/*--------------------------------*- C++ -*----------------------------------*\
  =========                 |
  \\      /  F ield         | OpenFOAM: The Open Source CFD Toolbox
   \\    /   O peration     | Website:  https://openfoam.org
    \\  /    A nd           | Version:  9
     \\/     M anipulation  |
\*---------------------------------------------------------------------------*/
FoamFile
{
    format      ascii;
    class       volScalarField;
    location    "0.5";
    object      p;
}
// * * * * * * * * * * * * * * * * * * * * * * * * * * * * * * * * * * * * * //

dimensions      [0 2 -2 0 0 0 0];

internalField   nonuniform List<scalar> 
25600
(
-7.69872e-08
1.09262e-05
8.98319e-06
-1.09216e-05
-4.87926e-05
-0.000103753
-0.000174081
-0.000257712
-0.000352526
-0.000456506
-0.000567769
-0.000684588
-0.0008054
-0.000928782
-0.00105346
-0.00117829
-0.00130225
-0.00142443
-0.001544
-0.00166025
-0.00177253
-0.00188027
-0.00198297
-0.0020802
-0.00217155
-0.0022567
-0.00233534
-0.00240724
-0.00247215
-0.0025299
-0.00258033
-0.00262331
-0.00265871
-0.00268646
-0.00270649
-0.00271873
-0.00272313
-0.00271968
-0.00270835
-0.00268911
-0.00266199
-0.00262697
-0.00258408
-0.00253333
-0.00247475
-0.00240838
-0.00233424
-0.00225237
-0.00216284
-0.00206568
-0.00196096
-0.00184874
-0.00172908
-0.00160207
-0.00146778
-0.0013263
-0.00117772
-0.00102216
-0.000859728
-0.000690536
-0.000514718
-0.000332411
-0.000143769
5.10486e-05
0.000251869
0.000458508
0.000670768
0.000888445
0.00111132
0.00133915
0.00157169
0.00180869
0.00204986
0.00229492
0.00254355
0.00279545
0.00305028
0.0033077
0.00356734
0.00382884
0.00409182
0.00435587
0.00462059
0.00488556
0.00515035
0.00541452
0.00567761
0.00593918
0.00619876
0.00645589
0.0067101
0.00696091
0.00720785
0.00745044
0.0076882
0.00792067
0.00814738
0.00836786
0.00858167
0.00878835
0.00898748
0.00917864
0.00936142
0.00953544
0.00970033
0.00985573
0.0100013
0.0101368
0.0102619
0.0103763
0.0104798
0.0105723
0.0106535
0.0107234
0.0107817
0.0108286
0.0108638
0.0108875
0.0108997
0.0109004
0.0108898
0.010868
0.0108352
0.0107917
0.0107377
0.0106736
0.0105997
0.0105164
0.0104241
0.0103233
0.0102145
0.0100983
0.00997524
0.00984598
0.00971118
0.00957154
0.0094278
0.00928075
0.00913122
0.00898007
0.00882819
0.00867653
0.00852607
0.00837782
0.00823285
0.00809226
0.00795722
0.0078289
0.00770855
0.00759744
0.00749686
0.00740812
0.00733253
0.00727129
0.00722546
0.00719572
0.00718206
0.00718321
0.00719594
0.00721257
-1.42671e-05
-3.0816e-06
-6.95713e-06
-2.70368e-05
-6.22102e-05
-0.000111882
-0.000174936
-0.000249837
-0.000334923
-0.000428531
-0.000529059
-0.000634998
-0.000744939
-0.000857598
-0.000971792
-0.00108644
-0.00120059
-0.00131335
-0.00142393
-0.00153165
-0.00163585
-0.00173598
-0.00183155
-0.0019221
-0.00200725
-0.00208665
-0.00216
-0.00222704
-0.00228753
-0.00234128
-0.00238813
-0.00242791
-0.00246052
-0.00248585
-0.00250382
-0.00251436
-0.00251742
-0.00251296
-0.00250095
-0.00248136
-0.00245418
-0.00241942
-0.00237708
-0.00232718
-0.00226974
-0.00220478
-0.00213233
-0.00205244
-0.00196514
-0.00187049
-0.00176853
-0.00165934
-0.00154297
-0.0014195
-0.00128901
-0.00115158
-0.0010073
-0.000856294
-0.000698653
-0.000534502
-0.00036397
-0.000187194
-4.31757e-06
0.0001845
0.000379088
0.000579266
0.00078484
0.00099561
0.00121136
0.00143186
0.00165687
0.00188613
0.00211938
0.00235634
0.0025967
0.00284016
0.0030864
0.00333509
0.00358588
0.0038384
0.0040923
0.00434719
0.00460267
0.00485835
0.00511379
0.0053686
0.00562232
0.00587454
0.00612479
0.00637264
0.00661764
0.00685934
0.00709728
0.007331
0.00756004
0.00778397
0.00800234
0.0082147
0.00842063
0.0086197
0.00881149
0.00899563
0.00917171
0.00933939
0.0094983
0.00964811
0.00978852
0.00991923
0.01004
0.0101506
0.0102507
0.0103403
0.0104191
0.0104871
0.0105441
0.0105901
0.0106251
0.0106491
0.0106621
0.0106641
0.0106554
0.0106361
0.0106064
0.0105665
0.0105166
0.0104572
0.0103884
0.0103108
0.0102247
0.0101307
0.0100291
0.0099205
0.00980552
0.00968475
0.00955881
0.00942839
0.00929421
0.00915701
0.0090176
0.00887678
0.00873541
0.00859439
0.00845463
0.0083171
0.0081828
0.00805275
0.00792801
0.00780967
0.00769885
0.00759666
0.00750423
0.00742266
0.00735298
0.00729611
0.00725279
0.00722336
0.00720757
0.00720433
0.00721256
0.00722919
-1.67693e-05
-2.65789e-06
-5.95653e-06
-2.54131e-05
-5.85765e-05
-0.000104729
-0.000162912
-0.000231834
-0.000310091
-0.000396257
-0.000488936
-0.00058678
-0.000688524
-0.000792986
-0.000899074
-0.00100579
-0.00111221
-0.0012175
-0.00132091
-0.00142176
-0.00151944
-0.00161339
-0.00170313
-0.00178821
-0.00186825
-0.0019429
-0.00201186
-0.00207486
-0.00213166
-0.00218207
-0.00222589
-0.002263
-0.00229325
-0.00231653
-0.00233276
-0.00234186
-0.00234377
-0.00233845
-0.00232585
-0.00230595
-0.00227874
-0.0022442
-0.00220234
-0.00215317
-0.0020967
-0.00203296
-0.00196197
-0.00188377
-0.00179839
-0.00170589
-0.00160632
-0.00149973
-0.00138619
-0.00126576
-0.00113853
-0.00100458
-0.000863997
-0.00071689
-0.000563361
-0.000403527
-0.000237516
-6.54638e-05
0.000112487
0.000296182
0.000485455
0.000680128
0.000880014
0.00108491
0.00129462
0.0015089
0.00172752
0.00195024
0.00217679
0.00240691
0.00264029
0.00287664
0.00311565
0.003357
0.00360035
0.00384534
0.00409163
0.00433884
0.00458659
0.00483449
0.00508215
0.00532914
0.00557505
0.00581947
0.00606197
0.00630211
0.00653946
0.00677359
0.00700406
0.00723043
0.00745226
0.00766912
0.00788059
0.00808623
0.00828565
0.00847843
0.00866418
0.00884252
0.00901309
0.00917553
0.00932951
0.00947472
0.00961086
0.00973765
0.00985486
0.00996225
0.0100596
0.0101468
0.0102237
0.0102901
0.010346
0.0103913
0.010426
0.0104501
0.0104637
0.0104669
0.0104598
0.0104424
0.0104151
0.0103781
0.0103316
0.0102759
0.0102113
0.0101383
0.0100572
0.00996851
0.00987269
0.00977026
0.00966177
0.00954779
0.00942896
0.00930593
0.00917938
0.00905004
0.00891868
0.00878606
0.00865302
0.0085204
0.00838907
0.00825994
0.00813395
0.00801206
0.00789526
0.00778455
0.00768094
0.00758543
0.00749903
0.00742268
0.00735727
0.00730358
0.00726218
0.0072334
0.00721705
0.00721251
0.00722078
0.00724194
-9.00219e-07
1.42464e-05
1.11084e-05
-8.05379e-06
-4.01199e-05
-8.41738e-05
-0.000139266
-0.000204199
-0.000277708
-0.000358533
-0.000445418
-0.000537159
-0.000632603
-0.000730661
-0.00083033
-0.000930673
-0.00103083
-0.00113001
-0.0012275
-0.00132264
-0.00141484
-0.00150358
-0.00158837
-0.00166879
-0.00174445
-0.00181501
-0.00188017
-0.00193966
-0.00199325
-0.00204072
-0.00208191
-0.00211665
-0.00214482
-0.00216629
-0.00218098
-0.00218881
-0.00218971
-0.00218362
-0.00217051
-0.00215034
-0.0021231
-0.00208877
-0.00204734
-0.00199884
-0.00194326
-0.00188062
-0.00181095
-0.00173429
-0.00165066
-0.00156012
-0.00146271
-0.00135848
-0.0012475
-0.00112983
-0.00100555
-0.000874746
-0.000737504
-0.000593923
-0.000444109
-0.000288172
-0.000126238
4.15628e-05
0.000215086
0.000394179
0.000578683
0.000768423
0.000963214
0.00116286
0.00136717
0.0015759
0.00178884
0.00200573
0.00222634
0.00245037
0.00267757
0.00290763
0.00314024
0.00337511
0.00361189
0.00385025
0.00408984
0.00433031
0.00457127
0.00481236
0.00505319
0.00529334
0.00553243
0.00577005
0.00600578
0.0062392
0.0064699
0.00669745
0.00692143
0.00714142
0.00735699
0.00756773
0.00777323
0.00797307
0.00816685
0.0083542
0.00853473
0.00870806
0.00887387
0.0090318
0.00918153
0.00932277
0.00945522
0.00957864
0.00969278
0.00979742
0.00989238
0.0099775
0.0100526
0.0101177
0.0101726
0.0102172
0.0102517
0.010276
0.0102901
0.0102941
0.0102882
0.0102725
0.0102473
0.0102126
0.0101689
0.0101163
0.0100552
0.00998604
0.00990914
0.00982495
0.00973394
0.00963662
0.00953352
0.0094252
0.00931227
0.00919536
0.00907513
0.00895229
0.00882756
0.00870168
0.00857546
0.00844968
0.00832519
0.00820285
0.00808353
0.00796815
0.00785762
0.00775288
0.00765484
0.00756444
0.00748257
0.0074101
0.00734783
0.00729645
0.00725654
0.0072285
0.00721233
0.00720788
0.00721757
0.0072432
3.3942e-05
4.68014e-05
4.20944e-05
2.21815e-05
-9.77618e-06
-5.27808e-05
-0.000105889
-0.00016798
-0.000237908
-0.000314532
-0.000396731
-0.000483417
-0.000573541
-0.000666115
-0.000760211
-0.000854958
-0.000949557
-0.00104327
-0.00113541
-0.00122537
-0.00131258
-0.00139652
-0.00147675
-0.00155284
-0.00162441
-0.00169114
-0.00175273
-0.00180892
-0.00185947
-0.00190417
-0.00194284
-0.00197534
-0.00200152
-0.00202126
-0.00203448
-0.00204109
-0.00204102
-0.00203421
-0.00202061
-0.0020002
-0.00197294
-0.00193882
-0.00189784
-0.00184999
-0.00179529
-0.00173375
-0.0016654
-0.00159025
-0.00150835
-0.00141973
-0.00132444
-0.00122254
-0.00111408
-0.000999125
-0.000877752
-0.000750039
-0.000616072
-0.000475948
-0.000329772
-0.000177651
-1.97056e-05
0.000143936
0.000313134
0.000487739
0.000667595
0.000852532
0.00104237
0.00123692
0.00143598
0.00163933
0.00184676
0.00205802
0.00227287
0.00249105
0.00271227
0.00293627
0.00316273
0.00339136
0.00362184
0.00385384
0.00408701
0.00432102
0.0045555
0.00479009
0.00502439
0.00525803
0.00549062
0.00572177
0.00595107
0.00617811
0.00640249
0.00662381
0.00684164
0.00705559
0.00726524
0.00747019
0.00767004
0.0078644
0.00805287
0.0082351
0.0084107
0.00857933
0.00874064
0.00889432
0.00904006
0.00917755
0.00930654
0.00942678
0.00953802
0.00964007
0.00973276
0.00981591
0.00988941
0.00995315
0.0100071
0.0100511
0.0100853
0.0101097
0.0101242
0.010129
0.0101243
0.0101101
0.0100866
0.0100541
0.0100129
0.00996318
0.0099053
0.00983961
0.0097665
0.00968641
0.00959979
0.00950713
0.00940893
0.00930575
0.00919818
0.00908682
0.00897231
0.00885533
0.00873657
0.00861676
0.00849663
0.00837697
0.00825856
0.00814221
0.00802877
0.00791908
0.00781399
0.00771437
0.00762108
0.00753497
0.00745687
0.00738756
0.00732779
0.00727823
0.00723945
0.00721195
0.0071959
0.00719147
0.00720192
0.00722983
8.65904e-05
9.44055e-05
8.63922e-05
6.45419e-05
3.16038e-05
-1.14221e-05
-6.3614e-05
-0.000123946
-0.000191371
-0.000264863
-0.000343413
-0.000426033
-0.000511781
-0.000599755
-0.0006891
-0.000779017
-0.000868767
-0.000957654
-0.00104504
-0.00113036
-0.00121305
-0.00129265
-0.0013687
-0.00144082
-0.00150863
-0.00157182
-0.0016301
-0.0016832
-0.0017309
-0.001773
-0.00180932
-0.0018397
-0.00186401
-0.00188213
-0.00189397
-0.00189943
-0.00189844
-0.00189095
-0.00187691
-0.00185627
-0.00182901
-0.00179512
-0.00175459
-0.0017074
-0.00165358
-0.00159312
-0.00152605
-0.0014524
-0.00137219
-0.00128547
-0.00119227
-0.00109264
-0.000986649
-0.00087435
-0.000755817
-0.000631125
-0.000500356
-0.000363605
-0.000220974
-7.2567e-05
8.1499e-05
0.000241098
0.000406096
0.000576347
0.000751699
0.000931986
0.00111703
0.00130665
0.00150065
0.00169882
0.00190095
0.00210679
0.00231611
0.00252866
0.00274417
0.00296236
0.00318294
0.00340562
0.00363008
0.00385601
0.00408308
0.00431095
0.00453927
0.00476767
0.0049958
0.00522328
0.00544972
0.00567475
0.00589797
0.006119
0.00633743
0.00655287
0.00676493
0.0069732
0.00717729
0.0073768
0.00757136
0.00776058
0.00794408
0.00812151
0.0082925
0.00845673
0.00861385
0.00876355
0.00890555
0.00903955
0.0091653
0.00928256
0.0093911
0.00949072
0.00958126
0.00966258
0.00973453
0.00979704
0.00985004
0.00989349
0.00992739
0.00995175
0.00996664
0.00997215
0.00996838
0.00995551
0.0099337
0.00990318
0.0098642
0.00981704
0.00976201
0.00969947
0.00962979
0.00955339
0.00947071
0.00938223
0.00928844
0.00918988
0.0090871
0.00898071
0.00887131
0.00875955
0.0086461
0.00853165
0.00841692
0.00830263
0.00818954
0.00807843
0.00797007
0.00786526
0.00776481
0.00766951
0.00758017
0.00749757
0.00742248
0.00735564
0.00729775
0.00724944
0.00721133
0.00718396
0.00716763
0.00716272
0.00717279
0.00720067
0.000155288
0.000155942
0.000143128
0.00011819
8.31981e-05
3.91067e-05
-1.32117e-05
-7.2814e-05
-0.000138766
-0.000210144
-0.000286031
-0.000365544
-0.000447829
-0.000532065
-0.000617476
-0.000703329
-0.000788936
-0.000873657
-0.000956903
-0.00103812
-0.00111682
-0.00119253
-0.00126484
-0.00133336
-0.00139776
-0.00145771
-0.00151295
-0.00156322
-0.00160831
-0.001648
-0.00168214
-0.00171056
-0.00173313
-0.00174974
-0.00176028
-0.00176468
-0.00176285
-0.00175474
-0.00174029
-0.00171947
-0.00169225
-0.0016586
-0.00161852
-0.00157199
-0.00151903
-0.00145964
-0.00139384
-0.00132165
-0.0012431
-0.00115822
-0.00106706
-0.000969655
-0.000866063
-0.000756347
-0.000640572
-0.000518811
-0.000391145
-0.000257664
-0.000118465
2.63509e-05
0.000176669
0.000332367
0.000493313
0.000659371
0.00083039
0.00100621
0.00118665
0.00137155
0.0015607
0.00175391
0.00195097
0.00215164
0.0023557
0.00256289
0.00277296
0.00298563
0.00320063
0.00341767
0.00363645
0.00385665
0.00407795
0.00430003
0.00452254
0.00474514
0.00496746
0.00518915
0.00540983
0.00562913
0.00584667
0.00606207
0.00627494
0.00648491
0.00669158
0.00689456
0.00709348
0.00728795
0.00747759
0.00766204
0.00784093
0.00801392
0.00818064
0.00834078
0.00849402
0.00864006
0.00877859
0.00890936
0.00903212
0.00914662
0.00925265
0.00935003
0.00943858
0.00951818
0.0095887
0.00965004
0.00970216
0.00974502
0.00977861
0.00980296
0.00981814
0.00982421
0.00982131
0.00980958
0.00978921
0.00976041
0.00972342
0.00967852
0.00962603
0.00956627
0.00949962
0.00942649
0.0093473
0.00926251
0.00917261
0.00907812
0.00897957
0.00887754
0.00877261
0.00866542
0.0085566
0.00844682
0.00833675
0.00822709
0.00811856
0.00801189
0.00790782
0.0078071
0.00771047
0.0076187
0.00753251
0.00745266
0.00737985
0.00731479
0.00725812
0.00721048
0.00717248
0.00714471
0.00712752
0.00712144
0.00712994
0.00715573
0.000237993
0.00022992
0.000211064
0.00018201
0.000143985
9.78656e-05
4.44801e-05
-1.53332e-05
-8.07397e-05
-0.00015091
-0.000225029
-0.000302301
-0.000381953
-0.000463244
-0.000545472
-0.000627963
-0.000710089
-0.000791262
-0.000870932
-0.000948588
-0.00102377
-0.00109604
-0.001165
-0.0012303
-0.00129162
-0.00134865
-0.00140112
-0.00144881
-0.0014915
-0.00152899
-0.00156111
-0.00158773
-0.0016087
-0.00162391
-0.00163327
-0.00163669
-0.0016341
-0.00162542
-0.00161063
-0.00158966
-0.0015625
-0.00152911
-0.00148949
-0.00144364
-0.00139154
-0.00133321
-0.00126865
-0.0011979
-0.00112097
-0.0010379
-0.000948723
-0.000853484
-0.000752235
-0.000645031
-0.000531937
-0.000413023
-0.000288366
-0.000158055
-2.21789e-05
0.000119162
0.000265857
0.00041779
0.000574833
0.000736852
0.000903701
0.00107522
0.00125125
0.00143162
0.00161614
0.00180461
0.00199682
0.00219256
0.0023916
0.00259369
0.00279859
0.00300603
0.00321574
0.00342745
0.00364084
0.00385563
0.0040715
0.00428812
0.00450517
0.00472231
0.00493919
0.00515545
0.00537074
0.00558468
0.00579692
0.00600707
0.00621477
0.00641964
0.0066213
0.00681937
0.00701349
0.00720328
0.00738837
0.0075684
0.00774303
0.00791191
0.00807469
0.00823106
0.00838072
0.00852337
0.00865872
0.00878651
0.00890649
0.00901845
0.00912217
0.00921747
0.00930419
0.00938219
0.00945136
0.00951162
0.0095629
0.00960518
0.00963846
0.00966276
0.00967814
0.00968469
0.00968252
0.00967178
0.00965265
0.00962535
0.00959011
0.00954719
0.00949691
0.0094396
0.00937561
0.00930534
0.00922921
0.00914766
0.00906116
0.00897021
0.00887534
0.0087771
0.00867606
0.00857282
0.00846799
0.0083622
0.00825611
0.00815038
0.0080457
0.00794274
0.00784222
0.00774483
0.00765129
0.00756229
0.00747854
0.00740072
0.0073295
0.00726554
0.00720947
0.0071619
0.00712342
0.00709463
0.00707596
0.00706793
0.00707372
0.00709573
0.000332671
0.000314735
0.000288858
0.00025481
0.000212889
0.000163896
0.000108602
4.77391e-05
-1.79494e-05
-8.77307e-05
-0.000160883
-0.000236689
-0.000314461
-0.000393532
-0.00047326
-0.000553037
-0.000632294
-0.000710489
-0.000787116
-0.000861708
-0.00093383
-0.00100308
-0.00106909
-0.00113153
-0.00119009
-0.00124448
-0.00129447
-0.00133981
-0.00138032
-0.00141579
-0.00144609
-0.00147105
-0.00149056
-0.0015045
-0.00151278
-0.00151532
-0.00151203
-0.00150287
-0.00148777
-0.00146671
-0.00143964
-0.00140655
-0.00136741
-0.00132223
-0.00127099
-0.0012137
-0.00115038
-0.00108105
-0.00100571
-0.000924413
-0.00083718
-0.000744056
-0.00064509
-0.000540335
-0.00042985
-0.000313702
-0.000191966
-6.47264e-05
6.79299e-05
0.000205908
0.000349103
0.000497401
0.00065068
0.000808809
0.000971648
0.00113905
0.00131084
0.00148686
0.00166694
0.00185088
0.00203847
0.0022295
0.00242376
0.00262101
0.002821
0.00302348
0.00322819
0.00343484
0.00364316
0.00385284
0.00406358
0.00427508
0.004487
0.00469902
0.0049108
0.00512198
0.00533222
0.00554117
0.00574846
0.00595373
0.00615661
0.00635675
0.00655376
0.00674729
0.00693696
0.00712242
0.00730331
0.00747927
0.00764996
0.00781505
0.00797421
0.00812712
0.00827348
0.00841301
0.00854543
0.00867048
0.00878793
0.00889754
0.00899913
0.00909252
0.00917754
0.00925407
0.009322
0.00938123
0.00943172
0.00947345
0.00950641
0.00953062
0.00954615
0.00955307
0.00955152
0.00954162
0.00952356
0.00949754
0.0094638
0.00942261
0.00937425
0.00931905
0.00925737
0.00918959
0.0091161
0.00903735
0.00895379
0.0088659
0.0087742
0.00867922
0.0085815
0.00848162
0.00838017
0.00827776
0.00817501
0.00807255
0.00797103
0.00787111
0.00777345
0.00767871
0.00758755
0.00750064
0.00741864
0.00734218
0.0072719
0.00720842
0.00715234
0.00710423
0.00706469
0.00703428
0.00701344
0.00700271
0.00700481
0.00702166
0.000437385
0.000408796
0.000375151
0.000335383
0.000288835
0.00023623
0.000178286
0.00011564
4.89297e-05
-2.11988e-05
-9.41004e-05
-0.000169145
-0.00024572
-0.000323224
-0.000401083
-0.000478751
-0.000555705
-0.000631454
-0.00070554
-0.000777534
-0.000847033
-0.000913667
-0.000977097
-0.00103701
-0.00109312
-0.00114518
-0.00119293
-0.00123617
-0.00127471
-0.00130838
-0.00133701
-0.00136048
-0.00137867
-0.00139146
-0.00139877
-0.00140052
-0.00139663
-0.00138704
-0.00137171
-0.00135059
-0.00132366
-0.00129088
-0.00125225
-0.00120775
-0.00115738
-0.00110114
-0.00103904
-0.000971101
-0.000897336
-0.000817772
-0.000732443
-0.000641387
-0.00054465
-0.000442279
-0.000334333
-0.000220875
-0.000101976
2.22854e-05
0.000151826
0.000286553
0.000426365
0.000571155
0.000720806
0.000875192
0.00103418
0.00119761
0.00136534
0.00153721
0.00171304
0.00189265
0.00207583
0.00226239
0.00245211
0.00264475
0.00284009
0.00303787
0.00323784
0.00343973
0.00364325
0.00384813
0.00405406
0.00426074
0.00446785
0.00467508
0.00488208
0.00508853
0.00529407
0.00549836
0.00570106
0.00590179
0.00610022
0.00629597
0.00648868
0.00667801
0.00686359
0.00704506
0.00722207
0.00739429
0.00756137
0.00772299
0.00787882
0.00802855
0.0081719
0.00830858
0.00843832
0.00856087
0.00867599
0.00878347
0.00888311
0.00897474
0.00905821
0.00913338
0.00920015
0.00925844
0.00930819
0.00934938
0.00938201
0.00940611
0.00942172
0.00942895
0.00942789
0.00941869
0.00940153
0.00937661
0.00934415
0.00930443
0.00925771
0.00920433
0.00914462
0.00907896
0.00900773
0.00893137
0.00885031
0.00876502
0.008676
0.00858376
0.00848883
0.00839176
0.00829312
0.0081935
0.00809348
0.00799367
0.0078947
0.00779717
0.00770172
0.00760898
0.00751956
0.00743409
0.0073532
0.00727747
0.00720752
0.00714392
0.00708724
0.00703802
0.00699683
0.0069642
0.00694058
0.00692646
0.00692403
0.00693467
0.000550344
0.000510569
0.000468595
0.000422534
0.000370749
0.000313901
0.00025267
0.000187591
0.000119206
4.80838e-05
-2.52135e-05
-0.000100132
-0.000176124
-0.000252659
-0.000329225
-0.000405331
-0.000480504
-0.000554306
-0.00062632
-0.000696152
-0.000763438
-0.00082784
-0.000889045
-0.000946764
-0.00100074
-0.00105072
-0.0010965
-0.00113788
-0.00117466
-0.00120671
-0.00123386
-0.00125599
-0.001273
-0.00128477
-0.00129122
-0.00129227
-0.00128786
-0.00127792
-0.00126242
-0.0012413
-0.00121454
-0.00118212
-0.00114402
-0.00110022
-0.00105072
-0.000995528
-0.000934646
-0.000868086
-0.000795865
-0.000718008
-0.000634547
-0.000545515
-0.000450953
-0.000350907
-0.000245433
-0.000134592
-1.84459e-05
0.000102929
0.00022945
0.000361032
0.000497578
0.000638986
0.000785144
0.000935926
0.00109121
0.00125084
0.00141468
0.00158258
0.00175435
0.00192982
0.00210881
0.0022911
0.0024765
0.00266478
0.00285571
0.00304905
0.00324455
0.00344194
0.00364096
0.00384132
0.00404273
0.0042449
0.00444752
0.00465027
0.00485283
0.00505486
0.00525603
0.00545601
0.00565445
0.00585099
0.00604529
0.006237
0.00642576
0.00661122
0.00679304
0.00697085
0.00714432
0.00731312
0.0074769
0.00763534
0.00778814
0.00793498
0.00807559
0.00820968
0.00833698
0.00845725
0.00857027
0.0086758
0.00877368
0.00886371
0.00894576
0.0090197
0.00908541
0.00914282
0.00919187
0.00923255
0.00926486
0.00928881
0.00930447
0.00931191
0.00931125
0.00930263
0.00928621
0.0092622
0.00923082
0.00919233
0.00914699
0.00909513
0.00903708
0.0089732
0.00890387
0.0088295
0.00875053
0.0086674
0.0085806
0.00849063
0.00839798
0.0083032
0.00820683
0.00810944
0.00801158
0.00791385
0.00781682
0.00772108
0.00762724
0.00753588
0.00744759
0.00736297
0.00728258
0.00720701
0.00713681
0.00707252
0.00701469
0.00696382
0.00692043
0.00688502
0.00685803
0.00683994
0.00683228
0.00683591
0.000669914
0.0006186
0.0005679
0.000515094
0.000457574
0.00039596
0.000330893
0.000262817
0.000192191
0.000119501
4.52338e-05
-3.0121e-05
-0.000106086
-0.000182194
-0.00025799
-0.000333035
-0.000406913
-0.000479229
-0.000549604
-0.000617685
-0.000683144
-0.000745674
-0.000804991
-0.00086083
-0.000912956
-0.000961146
-0.0010052
-0.00104493
-0.00108017
-0.00111078
-0.00113662
-0.00115758
-0.00117354
-0.00118442
-0.00119012
-0.00119058
-0.00118574
-0.00117553
-0.00115991
-0.00113885
-0.00111232
-0.00108029
-0.00104274
-0.000999658
-0.000951047
-0.000896903
-0.000837231
-0.000772039
-0.000701343
-0.000625169
-0.000543541
-0.000456489
-0.000364054
-0.000266279
-0.000163213
-5.49133e-05
5.85593e-05
0.000177132
0.00030073
0.000429272
0.000562664
0.000700809
0.000843602
0.000990922
0.00114265
0.00129864
0.00145875
0.00162284
0.00179074
0.00196228
0.00213727
0.00231551
0.00249682
0.00268096
0.00286773
0.00305688
0.00324816
0.00344133
0.00363611
0.00383223
0.00402941
0.00422737
0.00442579
0.00462438
0.0048228
0.00502074
0.00521787
0.00541386
0.00560836
0.00580104
0.00599155
0.00617954
0.00636468
0.00654661
0.00672498
0.00689946
0.0070697
0.00723538
0.00739616
0.00755174
0.00770179
0.00784602
0.00798414
0.00811589
0.008241
0.00835922
0.00847033
0.00857412
0.0086704
0.008759
0.00883977
0.00891258
0.00897733
0.00903394
0.00908235
0.00912256
0.00915454
0.00917834
0.00919399
0.00920159
0.00920123
0.00919307
0.00917725
0.00915398
0.00912348
0.009086
0.0090418
0.00899119
0.0089345
0.00887208
0.0088043
0.00873156
0.00865428
0.0085729
0.00848789
0.00839972
0.00830889
0.0082159
0.0081213
0.00802561
0.00792938
0.00783317
0.00773752
0.00764302
0.00755021
0.00745967
0.00737194
0.00728759
0.00720716
0.00713118
0.00706019
0.00699469
0.00693518
0.00688214
0.00683605
0.00679737
0.0067665
0.00674392
0.00673049
0.00672651
0.000794595
0.000731545
0.00067183
0.000611934
0.00054829
0.000481473
0.000412106
0.000340553
0.00026719
0.000192428
0.000116688
4.03929e-05
-3.60438e-05
-0.000112212
-0.000187711
-0.000262157
-0.000335182
-0.000406433
-0.000475572
-0.000542286
-0.000606281
-0.000667278
-0.000725025
-0.000779284
-0.00082984
-0.000876491
-0.000919052
-0.000957361
-0.000991265
-0.00102063
-0.00104533
-0.00106526
-0.00108032
-0.00109043
-0.0010955
-0.00109547
-0.00109028
-0.00107988
-0.00106422
-0.00104328
-0.00101702
-0.000985411
-0.000948447
-0.000906112
-0.000858402
-0.000805313
-0.000746848
-0.000683017
-0.000613833
-0.000539315
-0.000459488
-0.00037438
-0.000284027
-0.000188467
-8.7749e-05
1.80756e-05
0.000128951
0.000244809
0.000365575
0.000491175
0.000621523
0.000756526
0.000896079
0.00104007
0.00118838
0.00134088
0.00149743
0.00165789
0.00182209
0.00198988
0.00216107
0.00233547
0.0025129
0.00269313
0.00287597
0.00306116
0.00324848
0.00343768
0.00362849
0.00382065
0.00401389
0.00420792
0.00440244
0.00459715
0.00479175
0.0049859
0.0051793
0.00537161
0.00556251
0.00575164
0.00593868
0.00612328
0.00630511
0.00648382
0.00665908
0.00683053
0.00699785
0.00716072
0.0073188
0.00747179
0.00761937
0.00776126
0.00789716
0.00802682
0.00814997
0.00826636
0.00837578
0.00847801
0.00857287
0.00866018
0.00873981
0.00881162
0.00887551
0.00893139
0.00897922
0.00901898
0.00905067
0.00907429
0.00908991
0.0090976
0.00909747
0.00908965
0.0090743
0.00905162
0.00902182
0.00898514
0.00894185
0.00889224
0.00883663
0.00877537
0.00870881
0.00863736
0.0085614
0.00848139
0.00839775
0.00831096
0.00822149
0.00812984
0.00803652
0.00794204
0.00784693
0.00775172
0.00765695
0.00756314
0.00747084
0.00738058
0.00729288
0.00720827
0.00712727
0.00705038
0.00697809
0.00691088
0.00684921
0.00679354
0.00674428
0.00670186
0.00666669
0.00663918
0.00661956
0.00660751
0.00092303
0.00084814
0.000779225
0.000711986
0.000641903
0.000569529
0.00049548
0.000420039
0.00034351
0.000266241
0.000188586
0.000110903
3.35519e-05
-4.31118e-05
-0.000118744
-0.00019301
-0.000265584
-0.000336157
-0.000404434
-0.000470137
-0.000533003
-0.000592787
-0.000649266
-0.000702228
-0.000751476
-0.000796834
-0.000838137
-0.000875237
-0.000907998
-0.000936296
-0.000960025
-0.000979084
-0.000993383
-0.00100284
-0.00100739
-0.00100698
-0.00100153
-0.000991017
-0.000975392
-0.000954624
-0.000928684
-0.000897551
-0.000861208
-0.000819642
-0.00077285
-0.000720826
-0.000663571
-0.000601094
-0.000533407
-0.000460527
-0.000382473
-0.000299272
-0.000210958
-0.000117566
-1.91378e-05
8.42797e-05
0.000192631
0.00030585
0.000423874
0.000546633
0.000674042
0.000806013
0.000942446
0.00108324
0.00122827
0.00137743
0.00153057
0.00168756
0.00184825
0.00201247
0.00218005
0.00235081
0.00252457
0.00270111
0.00288024
0.00306172
0.00324532
0.00343079
0.0036179
0.00380637
0.00399593
0.00418631
0.00437722
0.00456835
0.00475941
0.00495008
0.00514005
0.005329
0.00551659
0.00570249
0.00588637
0.00606789
0.00624673
0.00642254
0.00659498
0.00676371
0.00692841
0.00708876
0.00724443
0.00739511
0.0075405
0.00768031
0.00781425
0.00794206
0.00806347
0.00817826
0.00828618
0.00838705
0.00848066
0.00856686
0.00864548
0.00871641
0.00877953
0.00883477
0.00888209
0.00892145
0.00895284
0.00897629
0.00899185
0.00899959
0.00899961
0.00899204
0.00897705
0.00895481
0.00892555
0.00888948
0.00884688
0.00879804
0.00874325
0.00868287
0.00861723
0.00854673
0.00847176
0.00839274
0.00831009
0.00822427
0.00813575
0.008045
0.00795251
0.00785878
0.00776432
0.00766963
0.00757523
0.00748162
0.00738932
0.00729884
0.00721067
0.00712531
0.00704325
0.00696497
0.00689091
0.00682154
0.00675727
0.00669852
0.00664569
0.00659914
0.00655927
0.00652649
0.00650033
0.00647991
0.00105397
0.00096722
0.000889
0.000814228
0.000737466
0.000659258
0.000580209
0.000500535
0.000420477
0.000340321
0.000260361
0.0001809
0.000102243
2.46909e-05
-5.14616e-05
-0.000125923
-0.000198413
-0.000268665
-0.000336424
-0.000401442
-0.000463494
-0.000522365
-0.000577859
-0.000629787
-0.000677979
-0.00072228
-0.000762545
-0.00079864
-0.000830446
-0.000857857
-0.000880775
-0.000899111
-0.000912782
-0.000921723
-0.000925869
-0.000925164
-0.000919559
-0.000909012
-0.000893491
-0.000872962
-0.000847399
-0.000816781
-0.000781094
-0.000740328
-0.000694474
-0.000643524
-0.000587485
-0.000526362
-0.000460162
-0.000388899
-0.000312595
-0.000231272
-0.000144957
-5.36827e-05
4.25115e-05
0.00014358
0.000249474
0.000360136
0.000475505
0.000595514
0.000720084
0.000849132
0.000982566
0.00112028
0.00126218
0.00140814
0.00155802
0.00171171
0.00186904
0.00202987
0.00219403
0.00236135
0.00253164
0.0027047
0.00288034
0.00305833
0.00323845
0.00342045
0.0036041
0.00378913
0.00397528
0.00416229
0.00434985
0.00453769
0.00472551
0.00491299
0.00509983
0.0052857
0.00547029
0.00565326
0.00583429
0.00601304
0.00618919
0.00636239
0.00653232
0.00669863
0.00686101
0.00701913
0.00717267
0.00732133
0.00746479
0.00760278
0.007735
0.0078612
0.00798112
0.00809451
0.00820115
0.00830084
0.00839338
0.0084786
0.00855637
0.00862653
0.008689
0.0087437
0.00879056
0.00882956
0.0088607
0.00888398
0.00889946
0.00890721
0.00890732
0.00889993
0.00888518
0.00886326
0.00883438
0.00879876
0.00875665
0.00870835
0.00865415
0.00859437
0.00852938
0.00845953
0.00838522
0.00830684
0.00822482
0.0081396
0.00805163
0.00796136
0.00786928
0.00777586
0.0076816
0.00758698
0.00749249
0.00739862
0.00730586
0.00721468
0.00712558
0.00703901
0.00695543
0.00687531
0.00679905
0.00672709
0.00665982
0.00659761
0.00654083
0.00648979
0.0064449
0.00640656
0.00637362
0.00634461
0.00118627
0.00108771
0.00100013
0.000917695
0.00083408
0.000749813
0.000665505
0.000581315
0.000497422
0.000414052
0.000331451
0.000249869
0.000169557
9.07661e-05
1.37493e-05
-6.12473e-05
-0.000133988
-0.000204244
-0.000271795
-0.000336431
-0.00039796
-0.000456198
-0.000510968
-0.000562114
-0.000609488
-0.000652956
-0.000692391
-0.000727677
-0.000758714
-0.000785408
-0.000807671
-0.000825428
-0.000838608
-0.000847153
-0.000851006
-0.000850116
-0.000844441
-0.000833949
-0.000818604
-0.000798376
-0.000773244
-0.000743192
-0.000708202
-0.000668262
-0.000623367
-0.000573512
-0.000518696
-0.000458924
-0.000394203
-0.000324547
-0.000249972
-0.000170495
-8.61428e-05
3.05568e-06
9.70648e-05
0.000195844
0.00029935
0.000407528
0.000520321
0.00063767
0.000759498
0.00088573
0.00101628
0.00115104
0.00128993
0.00143283
0.0015796
0.00173013
0.00188428
0.00204189
0.00220281
0.00236687
0.00253389
0.00270369
0.00287605
0.00305077
0.00322763
0.0034064
0.00358683
0.00376868
0.00395168
0.00413558
0.00432007
0.00450489
0.00468974
0.00487432
0.00505831
0.00524141
0.00542329
0.00560363
0.0057821
0.00595839
0.00613214
0.00630304
0.00647074
0.00663493
0.00679527
0.00695144
0.00710313
0.00725004
0.00739184
0.00752827
0.00765903
0.00778385
0.0079025
0.00801471
0.00812027
0.00821897
0.00831061
0.00839503
0.00847207
0.00854161
0.00860354
0.00865777
0.00870426
0.00874296
0.00877387
0.008797
0.00881239
0.00882012
0.00882028
0.00881299
0.0087984
0.00877668
0.00874804
0.00871271
0.00867092
0.00862295
0.00856911
0.00850971
0.00844509
0.00837561
0.00830165
0.0082236
0.00814187
0.00805689
0.00796909
0.00787893
0.00778686
0.00769335
0.00759887
0.00750388
0.00740887
0.0073143
0.00722063
0.00712833
0.00703785
0.00694964
0.00686413
0.00678174
0.00670289
0.00662795
0.00655729
0.00649128
0.00643022
0.00637439
0.00632422
0.00628008
0.00624016
0.00620243
0.00131889
0.00120859
0.00111164
0.00102148
0.000930881
0.000840383
0.000750615
0.000661674
0.000573683
0.000486825