/*--------------------------------*- C++ -*----------------------------------*\
  =========                 |
  \\      /  F ield         | OpenFOAM: The Open Source CFD Toolbox
   \\    /   O peration     | Website:  https://openfoam.org
    \\  /    A nd           | Version:  9
     \\/     M anipulation  |
\*---------------------------------------------------------------------------*/
FoamFile
{
    format      ascii;
    class       surfaceScalarField;
    location    "0.5";
    object      phi;
}
// * * * * * * * * * * * * * * * * * * * * * * * * * * * * * * * * * * * * * //

dimensions      [0 3 -1 0 0 0 0];

internalField   nonuniform List<scalar> 
50880
(
7.69191e-12
-7.60703e-12
3.88468e-11
-3.11577e-11
8.25063e-11
-4.36579e-11
1.2855e-10
-4.60481e-11
1.69919e-10
-4.13688e-11
2.01906e-10
-3.19901e-11
2.2143e-10
-1.9522e-11
2.26526e-10
-5.099e-12
2.16027e-10
1.05002e-11
1.89307e-10
2.67256e-11
1.46123e-10
4.31882e-11
8.65166e-11
5.9613e-11
1.07223e-11
7.57932e-11
-8.08676e-11
9.15894e-11
-1.87762e-10
1.06892e-10
-3.09387e-10
1.21622e-10
-4.45116e-10
1.35729e-10
-5.94289e-10
1.49171e-10
-7.56219e-10
1.61925e-10
-9.30203e-10
1.73983e-10
-1.11554e-09
1.85334e-10
-1.31152e-09
1.9598e-10
-1.51745e-09
2.05928e-10
-1.73263e-09
2.15187e-10
-1.9564e-09
2.23769e-10
-2.1881e-09
2.31692e-10
-2.42706e-09
2.38971e-10
-2.67268e-09
2.45619e-10
-2.92434e-09
2.51659e-10
-3.18144e-09
2.57108e-10
-3.44343e-09
2.61983e-10
-3.70973e-09
2.66303e-10
-3.97982e-09
2.70089e-10
-4.25318e-09
2.73354e-10
-4.5293e-09
2.76115e-10
-4.80769e-09
2.78391e-10
-5.08789e-09
2.80199e-10
-5.36944e-09
2.8155e-10
-5.6519e-09
2.82456e-10
-5.93483e-09
2.82932e-10
-6.21781e-09
2.82986e-10
-6.50044e-09
2.82628e-10
-6.78231e-09
2.81868e-10
-7.06303e-09
2.80721e-10
-7.34222e-09
2.79191e-10
-7.6195e-09
2.77283e-10
-7.89451e-09
2.75005e-10
-8.16687e-09
2.72363e-10
-8.43623e-09
2.6936e-10
-8.70223e-09
2.66e-10
-8.96452e-09
2.62288e-10
-9.22275e-09
2.58228e-10
-9.47657e-09
2.53821e-10
-9.72564e-09
2.49069e-10
-9.96962e-09
2.43974e-10
-1.02082e-08
2.38539e-10
-1.04409e-08
2.32765e-10
-1.06676e-08
2.26652e-10
-1.08878e-08
2.20203e-10
-1.11012e-08
2.1342e-10
-1.13075e-08
2.06307e-10
-1.15064e-08
1.98866e-10
-1.16975e-08
1.91096e-10
-1.18805e-08
1.83001e-10
-1.2055e-08
1.74586e-10
-1.22209e-08
1.65854e-10
-1.23777e-08
1.56812e-10
-1.25252e-08
1.47464e-10
-1.2663e-08
1.37816e-10
-1.27909e-08
1.27875e-10
-1.29085e-08
1.1765e-10
-1.30157e-08
1.07147e-10
-1.3112e-08
9.6376e-11
-1.31974e-08
8.53501e-11
-1.32715e-08
7.40802e-11
-1.3334e-08
6.25781e-11
-1.33849e-08
5.08586e-11
-1.34238e-08
3.8937e-11
-1.34507e-08
2.68285e-11
-1.34652e-08
1.45509e-11
-1.34674e-08
2.1226e-12
-1.34569e-08
-1.04392e-11
-1.34338e-08
-2.31138e-11
-1.33979e-08
-3.58774e-11
-1.33492e-08
-4.87078e-11
-1.32876e-08
-6.15831e-11
-1.32132e-08
-7.44777e-11
-1.31258e-08
-8.73647e-11
-1.30256e-08
-1.00219e-10
-1.29126e-08
-1.13013e-10
-1.27868e-08
-1.25719e-10
-1.26485e-08
-1.38307e-10
-1.24978e-08
-1.50752e-10
-1.23348e-08
-1.63022e-10
-1.21597e-08
-1.75083e-10
-1.19728e-08
-1.86906e-10
-1.17743e-08
-1.98462e-10
-1.15646e-08
-2.0972e-10
-1.13439e-08
-2.20649e-10
-1.11127e-08
-2.31215e-10
-1.08713e-08
-2.4139e-10
-1.06202e-08
-2.51143e-10
-1.03598e-08
-2.60442e-10
-1.00905e-08
-2.69261e-10
-9.81293e-09
-2.7757e-10
-9.52759e-09
-2.85341e-10
-9.23504e-09
-2.92546e-10
-8.93588e-09
-2.9916e-10
-8.63072e-09
-3.05159e-10
-8.3202e-09
-3.1052e-10
-8.00498e-09
-3.1522e-10
-7.68574e-09
-3.19238e-10
-7.36319e-09
-3.22555e-10
-7.03803e-09
-3.25155e-10
-6.71101e-09
-3.27022e-10
-6.38287e-09
-3.28143e-10
-6.05436e-09
-3.28506e-10
-5.72626e-09
-3.28105e-10
-5.39933e-09
-3.2693e-10
-5.07435e-09
-3.24976e-10
-4.75211e-09
-3.2224e-10
-4.43339e-09
-3.18723e-10
-4.11896e-09
-3.14428e-10
-3.8096e-09
-3.09359e-10
-3.50608e-09
-3.03522e-10
-3.20915e-09
-2.96926e-10
-2.91956e-09
-2.89586e-10
-2.63805e-09
-2.81513e-10
-2.36533e-09
-2.72726e-10
-2.10209e-09
-2.63241e-10
-1.849e-09
-2.53083e-10
-1.60673e-09
-2.42277e-10
-1.37588e-09
-2.3085e-10
-1.15705e-09
-2.18831e-10
-9.50793e-10
-2.06252e-10
-7.57643e-10
-1.9315e-10
-5.78078e-10
-1.79565e-10
-4.12539e-10
-1.65539e-10
-2.61421e-10
-1.51119e-10
-1.25065e-10
-1.36356e-10
-3.75867e-12
-1.21307e-10
1.02275e-10
-1.06034e-10
1.92879e-10
-9.06052e-11
2.67978e-10
-7.50983e-11
3.27582e-10
-5.96025e-11
3.71804e-10
-4.422e-11
4.00873e-10
-2.90686e-11
4.15159e-10
-1.42868e-11
4.15199e-10
-3.91205e-14
4.01733e-10
1.3467e-11
3.75752e-10
2.59827e-11
3.38563e-10
3.71889e-11
2.91883e-10
4.66779e-11
2.37967e-10
5.39145e-11
1.7978e-10
5.81866e-11
1.21223e-10
5.85574e-11
6.73733e-11
5.385e-11
2.47244e-11
4.26488e-11
1.0154e-12
2.37085e-11
1.01506e-12
3.07881e-11
-3.83976e-11
1.0007e-10
-1.00436e-10
1.87859e-10
-1.31449e-10
2.7637e-10
-1.3455e-10
3.51346e-10
-1.16344e-10
4.02037e-10
-8.26763e-11
4.20677e-10
-3.81636e-11
4.01888e-10
1.36883e-11
3.42114e-10
7.02658e-11
2.392e-10
1.2963e-10
9.20423e-11
1.90343e-10
-9.967e-11
2.5132e-10
-3.35632e-10
3.1176e-10
-6.15095e-10
3.71055e-10
-9.36958e-10
4.28752e-10
-1.29986e-09
4.84522e-10
-1.70224e-09
5.38114e-10
-2.14242e-09
5.89351e-10
-2.61861e-09
6.38117e-10
-3.12895e-09
6.84329e-10
-3.67156e-09
7.27943e-10
-4.24453e-09
7.68949e-10
-4.84595e-09
8.07345e-10
-5.47391e-09
8.43153e-10
-6.12655e-09
8.76409e-10
-6.80201e-09
9.07156e-10
-7.49849e-09
9.35445e-10
-8.21422e-09
9.61337e-10
-8.94745e-09
9.84892e-10
-9.69652e-09
1.00617e-09
-1.04598e-08
1.02524e-09
-1.12356e-08
1.04216e-09
-1.20225e-08
1.057e-09
-1.2819e-08
1.06981e-09
-1.36235e-08
1.08067e-09
-1.44348e-08
1.08962e-09
-1.52513e-08
1.09673e-09
-1.60718e-08
1.10204e-09
-1.68949e-08
1.10562e-09
-1.77195e-08
1.10749e-09
-1.85442e-08
1.10771e-09
-1.93679e-08
1.10632e-09
-2.01894e-08
1.10335e-09
-2.10075e-08
1.09883e-09
-2.18211e-08
1.09279e-09
-2.26291e-08
1.08527e-09
-2.34304e-08
1.07628e-09
-2.42239e-08
1.06585e-09
-2.50085e-08
1.054e-09
-2.57833e-08
1.04074e-09
-2.65471e-08
1.02609e-09
-2.72989e-08
1.01006e-09
-2.80377e-08
9.9266e-10
-2.87626e-08
9.73903e-10
-2.94724e-08
9.53797e-10
-3.01662e-08
9.32353e-10
-3.0843e-08
9.09577e-10
-3.15018e-08
8.85476e-10
-3.21417e-08
8.6006e-10
-3.27616e-08
8.33336e-10
-3.33606e-08
8.05314e-10
-3.39377e-08
7.76006e-10
-3.44921e-08
7.45425e-10
-3.50227e-08
7.13584e-10
-3.55286e-08
6.80497e-10
-3.60089e-08
6.46181e-10
-3.64627e-08
6.10657e-10
-3.68892e-08
5.73948e-10
-3.72875e-08
5.36081e-10
-3.76567e-08
4.97084e-10
-3.7996e-08
4.56986e-10
-3.83047e-08
4.15824e-10
-3.8582e-08
3.73638e-10
-3.88271e-08
3.30471e-10
-3.90394e-08
2.8637e-10
-3.92182e-08
2.41385e-10
-3.93629e-08
1.95571e-10
-3.9473e-08
1.48986e-10
-3.95478e-08
1.01696e-10
-3.9587e-08
5.37649e-11
-3.95902e-08
5.2638e-12
-3.95569e-08
-4.37292e-11
-3.94869e-08
-9.3135e-11
-3.93799e-08
-1.42871e-10
-3.92357e-08
-1.92848e-10
-3.90543e-08
-2.42973e-10
-3.88357e-08
-2.93153e-10
-3.85797e-08
-3.43289e-10
-3.82867e-08
-3.93277e-10
-3.79567e-08
-4.43012e-10
-3.759e-08
-4.92386e-10
-3.7187e-08
-5.4129e-10
-3.67482e-08
-5.89608e-10
-3.6274e-08
-6.37228e-10
-3.5765e-08
-6.84033e-10
-3.5222e-08
-7.29904e-10
-3.46458e-08
-7.74722e-10
-3.40371e-08
-8.18368e-10
-3.33971e-08
-8.60724e-10
-3.27266e-08
-9.01672e-10
-3.20269e-08
-9.41092e-10
-3.12992e-08
-9.7887e-10
-3.05447e-08
-1.01489e-09
-2.9765e-08
-1.04904e-09
-2.89613e-08
-1.08121e-09
-2.81354e-08
-1.11129e-09
-2.72887e-08
-1.13919e-09
-2.64231e-08
-1.1648e-09
-2.55402e-08
-1.18803e-09
-2.46419e-08
-1.20878e-09
-2.37302e-08
-1.22699e-09
-2.28069e-08
-1.24256e-09
-2.1874e-08
-1.25543e-09
-2.09336e-08
-1.26553e-09
-1.99878e-08
-1.2728e-09
-1.90388e-08
-1.2772e-09
-1.80886e-08
-1.27868e-09
-1.71395e-08
-1.27721e-09
-1.61937e-08
-1.27276e-09
-1.52533e-08
-1.26531e-09
-1.43207e-08
-1.25486e-09
-1.3398e-08
-1.24141e-09
-1.24875e-08
-1.22496e-09
-1.15913e-08
-1.20553e-09
-1.07117e-08
-1.18316e-09
-9.85075e-09
-1.15787e-09
-9.01061e-09
-1.12972e-09
-8.19335e-09
-1.09877e-09
-7.401e-09
-1.06507e-09
-6.63553e-09
-1.02872e-09
-5.89882e-09
-9.89788e-10
-5.19272e-09
-9.48381e-10
-4.51896e-09
-9.04605e-10
-3.87921e-09
-8.5858e-10
-3.27503e-09
-8.10437e-10
-2.70786e-09
-7.60318e-10
-2.17905e-09
-7.08381e-10
-1.68979e-09
-6.54797e-10
-1.24115e-09
-5.99754e-10
-8.34052e-10
-5.43459e-10
-4.69222e-10
-4.86135e-10
-1.47219e-10
-4.28035e-10
1.31611e-10
-3.69434e-10
3.67157e-10
-3.10645e-10
5.59574e-10
-2.5202e-10
7.09317e-10
-1.93963e-10
8.17189e-10
-1.3694e-10
8.84398e-10
-8.14956e-11
9.12631e-10
-2.82718e-11
9.0414e-10
2.1959e-11
8.61862e-10
6.82631e-11
7.89561e-10
1.09492e-10
6.92012e-10
1.44229e-10
5.75219e-10
1.70709e-10
4.46667e-10
1.8674e-10
3.15553e-10
1.89673e-10
1.92901e-10
1.76504e-10
9.13047e-11
1.44246e-10
2.36722e-11
9.13424e-11
2.46873e-11
4.37054e-11
-8.21014e-11
1.31443e-10
-1.88172e-10
2.3531e-10
-2.35316e-10
3.33076e-10
-2.3232e-10
4.06625e-10
-1.8989e-10
4.41704e-10
-1.17758e-10
4.2754e-10
-2.39968e-11
3.56281e-10
8.49556e-11
2.22467e-10
2.04085e-10
2.25726e-11
3.29532e-10
-2.45407e-10
4.5832e-10
-5.82261e-10
5.88174e-10
-9.87842e-10
7.17341e-10
-1.46127e-09
8.44477e-10
-2.00108e-09
9.68563e-10
-2.60538e-09
1.08882e-09
-3.27195e-09
1.20467e-09
-3.99828e-09
1.31569e-09
-4.78174e-09
1.42157e-09
-5.61951e-09
1.5221e-09
-6.50871e-09
1.61715e-09
-7.44642e-09
1.70666e-09
-8.42968e-09
1.7906e-09
-9.45552e-09
1.869e-09
-1.0521e-08
1.94191e-09
-1.16233e-08
2.00941e-09
-1.27594e-08
2.07158e-09
-1.39266e-08
2.12855e-09
-1.51221e-08
2.18042e-09
-1.63433e-08
2.22733e-09
-1.75875e-08
2.2694e-09
-1.88521e-08
2.30676e-09
-2.01346e-08
2.33955e-09
-2.14327e-08
2.3679e-09
-2.2744e-08
2.39192e-09
-2.40661e-08
2.41175e-09
-2.53969e-08
2.42749e-09
-2.67341e-08
2.43926e-09
-2.80756e-08
2.44717e-09
-2.94194e-08
2.45131e-09
-3.07635e-08
2.45178e-09
-3.21058e-08
2.44865e-09
-3.34445e-08
2.44202e-09
-3.47776e-08
2.43194e-09
-3.61033e-08
2.4185e-09
-3.74198e-08
2.40173e-09
-3.87252e-08
2.38171e-09
-4.00178e-08
2.35847e-09
-4.12959e-08
2.33206e-09
-4.25577e-08
2.30252e-09
-4.38015e-08
2.26988e-09
-4.50256e-08
2.23417e-09
-4.62283e-08
2.19542e-09
-4.74081e-08
2.15365e-09
-4.85632e-08
2.10888e-09
-4.9692e-08
2.06114e-09
-5.07928e-08
2.01045e-09
-5.18642e-08
1.95682e-09
-5.29044e-08
1.90028e-09
-5.39119e-08
1.84085e-09
-5.48852e-08
1.77855e-09
-5.58226e-08
1.71341e-09
-5.67226e-08
1.64546e-09
-5.75837e-08
1.57473e-09
-5.84045e-08
1.50126e-09
-5.91834e-08
1.42509e-09
-5.9919e-08
1.34626e-09
-6.06099e-08
1.26484e-09
-6.12547e-08
1.18087e-09
-6.1852e-08
1.09443e-09
-6.24007e-08
1.00559e-09
-6.28992e-08
9.1442e-10
-6.33466e-08
8.21019e-10
-6.37416e-08
7.2548e-10
-6.40832e-08
6.27907e-10
-6.43702e-08
5.28415e-10
-6.46018e-08
4.27127e-10
-6.47769e-08
3.24172e-10
-6.48949e-08
2.1969e-10
-6.4955e-08
1.13832e-10
-6.49565e-08
6.75517e-12
-6.48989e-08
-1.01375e-10
-6.47816e-08
-2.10381e-10
-6.46044e-08
-3.20076e-10
-6.4367e-08
-4.30268e-10
-6.40692e-08
-5.40756e-10
-6.3711e-08
-6.51329e-10
-6.32926e-08
-7.61769e-10
-6.2814e-08
-8.71854e-10
-6.22756e-08
-9.81353e-10
-6.1678e-08
-1.09003e-09
-6.10216e-08
-1.19764e-09
-6.03073e-08
-1.30394e-09
-5.95359e-08
-1.40867e-09
-5.87083e-08
-1.51159e-09
-5.78258e-08
-1.61243e-09
-5.68896e-08
-1.71094e-09
-5.59011e-08
-1.80685e-09
-5.48619e-08
-1.89992e-09
-5.37737e-08
-1.98987e-09
-5.26383e-08
-2.07646e-09
-5.14578e-08
-2.15943e-09
-5.02341e-08
-2.23853e-09
-4.89697e-08
-2.31352e-09
-4.76667e-08
-2.38416e-09
-4.63278e-08
-2.45021e-09
-4.49555e-08
-2.51147e-09
-4.35526e-08
-2.5677e-09
-4.21219e-08
-2.61871e-09
-4.06664e-08
-2.66431e-09
-3.91891e-08
-2.70431e-09
-3.76931e-08
-2.73855e-09
-3.61817e-08
-2.76687e-09
-3.46581e-08
-2.78913e-09
-3.31256e-08
-2.80521e-09
-3.15878e-08
-2.81501e-09
-3.00481e-08
-2.81842e-09
-2.85099e-08
-2.81537e-09
-2.69769e-08
-2.80582e-09
-2.54525e-08
-2.78972e-09
-2.39403e-08
-2.76706e-09
-2.24438e-08
-2.73784e-09
-2.09667e-08
-2.70208e-09
-1.95124e-08
-2.65983e-09
-1.80844e-08
-2.61114e-09
-1.66862e-08
-2.55611e-09
-1.53211e-08
-2.49484e-09
-1.39924e-08
-2.42745e-09
-1.27034e-08
-2.35411e-09
-1.14571e-08
-2.27497e-09
-1.02567e-08
-2.19024e-09
-9.10492e-09
-2.10013e-09
-8.00464e-09
-2.00488e-09
-6.95846e-09
-1.90477e-09
-5.96882e-09
-1.80008e-09
-5.038e-09
-1.69113e-09
-4.16809e-09
-1.57829e-09
-3.36097e-09
-1.46193e-09
-2.61826e-09
-1.34246e-09
-1.94135e-09
-1.22037e-09
-1.33135e-09
-1.09613e-09
-7.89057e-10
-9.70332e-10
-3.14911e-10
-8.43578e-10
9.1014e-11
-7.16569e-10
4.29081e-10
-5.90086e-10
7.00138e-10
-4.6502e-10
9.05592e-10
-3.42394e-10
1.04749e-09
-2.23389e-10
1.1286e-09
-1.09388e-10
1.15259e-09
-2.02662e-12
1.12409e-09
9.67591e-11
1.04895e-09
1.84633e-10
9.34383e-10
2.58795e-10
7.89212e-10
3.1588e-10
6.24065e-10
3.51887e-10
4.51527e-10
3.62211e-10
2.86137e-10
3.41893e-10
1.44089e-10
2.86294e-10
4.25434e-11
1.92888e-10
6.72307e-11
4.62413e-11
-1.28348e-10
1.35061e-10
-2.76982e-10
2.33096e-10
-3.33355e-10
3.14994e-10
-3.14215e-10
3.60337e-10
-2.35235e-10
3.52885e-10
-1.10311e-10
2.80053e-10
4.88294e-11
1.32394e-10
2.32608e-10
-9.68709e-11
4.33355e-10
-4.12317e-10
6.44978e-10
-8.16681e-10
8.62688e-10
-1.31122e-09
1.08272e-09
-1.896e-09
1.30212e-09
-2.57012e-09
1.51859e-09
-3.33191e-09
1.73035e-09
-4.17912e-09
1.93602e-09
-5.10899e-09
2.13455e-09
-6.11845e-09
2.32515e-09
-7.20412e-09
2.50724e-09
-8.36244e-09
2.68041e-09
-9.58968e-09
2.8444e-09
-1.08821e-08
2.99903e-09
-1.22357e-08
3.14425e-09
-1.36467e-08
3.28004e-09
-1.51113e-08
3.40647e-09
-1.66255e-08
3.52363e-09
-1.81856e-08
3.63167e-09
-1.97878e-08
3.73075e-09
-2.14285e-08
3.82105e-09
-2.31039e-08
3.90278e-09
-2.48106e-08
3.97612e-09
-2.65452e-08
4.04131e-09
-2.83042e-08
4.09854e-09
-3.00843e-08
4.14804e-09
-3.18824e-08
4.19e-09
-3.36953e-08
4.22464e-09
-3.55199e-08
4.25214e-09
-3.73534e-08
4.2727e-09
-3.91927e-08
4.28648e-09
-4.1035e-08
4.29365e-09
-4.28776e-08
4.29438e-09
-4.47177e-08
4.2888e-09
-4.65528e-08
4.27705e-09
-4.83801e-08
4.25925e-09
-5.01971e-08
4.23551e-09
-5.20013e-08
4.20595e-09
-5.37902e-08
4.17064e-09
-5.55614e-08
4.12967e-09
-5.73125e-08
4.08313e-09
-5.90411e-08
4.03107e-09
-6.07447e-08
3.97356e-09
-6.24212e-08
3.91065e-09
-6.40682e-08
3.8424e-09
-6.56834e-08
3.76884e-09
-6.72645e-08
3.69002e-09
-6.88094e-08
3.60598e-09
-7.03157e-08
3.51675e-09
-7.17812e-08
3.42238e-09
-7.32039e-08
3.32292e-09
-7.45814e-08
3.21839e-09
-7.59117e-08
3.10885e-09
-7.71926e-08
2.99435e-09
-7.84221e-08
2.87494e-09
-7.95981e-08
2.75068e-09
-8.07185e-08
2.62165e-09
-8.17813e-08
2.48791e-09
-8.27846e-08
2.34956e-09
-8.37264e-08
2.20669e-09
-8.4605e-08
2.05941e-09
-8.54184e-08
1.90784e-09
-8.61649e-08
1.7521e-09
-8.68428e-08
1.59235e-09
-8.74505e-08
1.42873e-09
-8.79865e-08
1.26142e-09
-8.84492e-08
1.09061e-09
-8.88373e-08
9.16492e-10
-8.91494e-08
7.39284e-10
-8.93845e-08
5.59219e-10
-8.95413e-08
3.76541e-10
-8.9619e-08
1.91511e-10
-8.96167e-08
4.4078e-12
-8.95335e-08
-1.84477e-10
-8.93691e-08
-3.74836e-10
-8.91228e-08
-5.66346e-10
-8.87944e-08
-7.5867e-10
-8.83837e-08
-9.51457e-10
-8.78907e-08
-1.14434e-09
-8.73155e-08
-1.33695e-09
-8.66585e-08
-1.52888e-09
-8.59201e-08
-1.71975e-09
-8.5101e-08
-1.90914e-09
-8.4202e-08
-2.09663e-09
-8.32242e-08
-2.28179e-09
-8.21686e-08
-2.4642e-09
-8.10368e-08
-2.6434e-09
-7.98303e-08
-2.81896e-09
-7.85508e-08
-2.99043e-09
-7.72003e-08
-3.15736e-09
-7.57809e-08
-3.3193e-09
-7.4295e-08
-3.47581e-09
-7.2745e-08
-3.62645e-09
-7.11336e-08
-3.77078e-09
-6.94638e-08
-3.90838e-09
-6.77385e-08
-4.03881e-09
-6.5961e-08
-4.16168e-09
-6.41346e-08
-4.27658e-09
-6.22629e-08
-4.38313e-09
-6.03497e-08
-4.48097e-09
-5.83986e-08
-4.56974e-09
-5.64139e-08
-4.64911e-09
-5.43994e-08
-4.71877e-09
-5.23595e-08
-4.77843e-09
-5.02986e-08
-4.82783e-09
-4.8221e-08
-4.86674e-09
-4.61312e-08
-4.89493e-09
-4.4034e-08
-4.91222e-09
-4.1934e-08
-4.91846e-09
-3.98358e-08
-4.91353e-09
-3.77443e-08
-4.89733e-09
-3.56642e-08
-4.8698e-09
-3.36004e-08
-4.83092e-09
-3.15575e-08
-4.78068e-09
-2.95405e-08
-4.71914e-09
-2.75539e-08
-4.64638e-09
-2.56026e-08
-4.56249e-09
-2.3691e-08
-4.46765e-09
-2.18238e-08
-4.36202e-09
-2.00055e-08
-4.24585e-09
-1.82402e-08
-4.11938e-09
-1.65322e-08
-3.98294e-09
-1.48856e-08
-3.83685e-09
-1.33042e-08
-3.68151e-09
-1.17917e-08
-3.51735e-09
-1.03517e-08
-3.34482e-09
-8.98731e-09
-3.16446e-09
-7.70162e-09
-2.97683e-09
-6.49737e-09
-2.78254e-09
-5.37702e-09
-2.58228e-09
-4.34269e-09
-2.37679e-09
-3.39617e-09
-2.16688e-09
-2.53887e-09
-1.95344e-09
-1.77175e-09
-1.73745e-09
-1.09532e-09
-1.52001e-09
-5.09563e-10
-1.30232e-09
-1.38875e-11
-1.08576e-09
3.92952e-10
-8.7186e-10
7.12932e-10
-6.62375e-10
9.48862e-10
-4.59318e-10
1.1045e-09
-2.65021e-10
1.18467e-09
-8.21948e-11
1.19544e-09
8.5986e-11
1.14429e-09
2.35786e-10
1.04027e-09
3.62812e-10
8.9423e-10
4.61922e-10
7.18941e-10
5.27178e-10
5.29235e-10
5.51918e-10
3.42051e-10
5.29077e-10
1.76426e-10
4.51918e-10
5.37154e-11
3.15597e-10
1.20945e-10
4.18042e-11
-1.70154e-10
1.17466e-10
-3.52643e-10
1.91634e-10
-4.07519e-10
2.37285e-10
-3.59869e-10
2.32798e-10
-2.30745e-10
1.60892e-10
-3.84013e-11
8.00285e-12
2.01717e-10
-2.36226e-10
4.76838e-10
-5.79405e-10
7.76531e-10
-1.02678e-09
1.09236e-09
-1.58163e-09
1.41754e-09
-2.24556e-09
1.74665e-09
-3.01881e-09
2.07537e-09
-3.9005e-09
2.40028e-09
-4.88883e-09
2.71868e-09
-5.98126e-09
3.02845e-09
-7.17468e-09
3.32797e-09
-8.46551e-09
3.61597e-09
-9.8498e-09
3.89153e-09
-1.13234e-08
4.15396e-09
-1.28818e-08
4.4028e-09
-1.45205e-08
4.63774e-09
-1.62349e-08
4.85863e-09
-1.80202e-08
5.06541e-09
-1.98719e-08
5.25812e-09
-2.17851e-08
5.43689e-09
-2.37553e-08
5.60189e-09
-2.57779e-08
5.75331e-09
-2.78483e-08
5.89143e-09
-2.9962e-08
6.01651e-09
-3.21147e-08
6.12884e-09
-3.43022e-08
6.22872e-09
-3.65201e-08
6.31645e-09
-3.87644e-08
6.39234e-09
-4.10311e-08
6.4567e-09
-4.33162e-08
6.5098e-09
-4.5616e-08
6.55195e-09
-4.79268e-08
6.58341e-09
-5.02447e-08
6.60445e-09
-5.25664e-08
6.6153e-09
-5.48882e-08
6.61621e-09
-5.72068e-08
6.60738e-09
-5.95188e-08
6.58903e-09
-6.18209e-08
6.56133e-09
-6.41098e-08
6.52446e-09
-6.63824e-08
6.47856e-09
-6.86356e-08
6.4238e-09
-7.08662e-08
6.36028e-09
-7.30712e-08
6.28813e-09
-7.52476e-08
6.20746e-09
-7.73924e-08
6.11835e-09
-7.95026e-08
6.0209e-09
-8.15754e-08
5.91519e-09
-8.36078e-08
5.80128e-09
-8.55971e-08
5.67926e-09
-8.75403e-08
5.54918e-09
-8.94346e-08
5.41111e-09
-9.12774e-08
5.26511e-09
-9.30657e-08
5.11126e-09
-9.47969e-08
4.94962e-09
-9.64684e-08
4.78028e-09
-9.80773e-08
4.6033e-09
-9.96212e-08
4.41879e-09
-1.01097e-07
4.22685e-09
-1.02503e-07
4.02758e-09
-1.03836e-07
3.82111e-09
-1.05095e-07
3.60758e-09
-1.06275e-07
3.38714e-09
-1.07376e-07
3.15997e-09
-1.08394e-07
2.92624e-09
-1.09328e-07
2.68616e-09
-1.10176e-07
2.43996e-09
-1.10935e-07
2.18789e-09
-1.11604e-07
1.93021e-09
-1.1218e-07
1.66721e-09
-1.12663e-07
1.3992e-09
-1.1305e-07
1.12651e-09
-1.1334e-07
8.49506e-10
-1.13532e-07
5.68562e-10
-1.13625e-07
2.84083e-10
-1.13617e-07
-3.50553e-12
-1.13508e-07
-2.93752e-10
-1.13296e-07
-5.86186e-10
-1.12982e-07
-8.80311e-10
-1.12565e-07
-1.17561e-09
-1.12045e-07
-1.47155e-09
-1.11422e-07
-1.76756e-09
-1.10696e-07
-2.06308e-09
-1.09867e-07
-2.35751e-09
-1.08937e-07
-2.65023e-09
-1.07905e-07
-2.94062e-09
-1.06774e-07
-3.22805e-09
-1.05544e-07
-3.51185e-09
-1.04217e-07
-3.79137e-09
-1.02794e-07
-4.06595e-09
-1.01278e-07
-4.33489e-09
-9.96712e-08
-4.59754e-09
-9.79754e-08
-4.85319e-09
-9.61935e-08
-5.10119e-09
-9.43285e-08
-5.34084e-09
-9.23834e-08
-5.57148e-09
-9.03618e-08
-5.79245e-09
-8.82671e-08
-6.0031e-09
-8.61031e-08
-6.20279e-09
-8.38739e-08
-6.39089e-09
-8.15836e-08
-6.56681e-09
-7.92368e-08
-6.72997e-09
-7.6838e-08
-6.8798e-09
-7.43919e-08
-7.01579e-09
-7.19036e-08
-7.13742e-09
-6.93781e-08
-7.24423e-09
-6.68208e-08
-7.33579e-09
-6.42369e-08
-7.41169e-09
-6.16321e-08
-7.47157e-09
-5.90119e-08
-7.51512e-09
-5.63821e-08
-7.54206e-09
-5.37484e-08
-7.55215e-09
-5.11167e-08
-7.54522e-09
-4.84929e-08
-7.52112e-09
-4.58829e-08
-7.47976e-09
-4.32928e-08
-7.42111e-09
-4.07282e-08
-7.34519e-09
-3.81953e-08
-7.25205e-09
-3.56999e-08
-7.14183e-09
-3.32477e-08
-7.01471e-09
-3.08444e-08
-6.87091e-09
-2.84957e-08
-6.71073e-09
-2.6207e-08
-6.53451e-09
-2.39837e-08
-6.34268e-09
-2.1831e-08
-6.13569e-09
-1.97538e-08
-5.91409e-09
-1.77568e-08
-5.67846e-09
-1.58447e-08
-5.42946e-09
-1.40217e-08
-5.16784e-09
-1.22918e-08
-4.89438e-09
-1.06586e-08
-4.60997e-09
-9.12559e-09
-4.31557e-09
-7.69565e-09
-4.01222e-09
-6.37138e-09
-3.70106e-09
-5.15489e-09
-3.38337e-09
-4.04783e-09
-3.0605e-09
-3.05132e-09
-2.73397e-09
-2.16588e-09
-2.40545e-09
-1.39141e-09
-2.07679e-09
-7.27089e-10
-1.75008e-09
-1.71313e-10
-1.42764e-09
2.78404e-10
-1.11209e-09
6.25529e-10
-8.06444e-10
8.7463e-10
-5.14122e-10
1.0315e-09
-2.39068e-10
1.10333e-09
1.41609e-11
1.09882e-09
2.40295e-10
1.02839e-09
4.33245e-10
9.04297e-10
5.86012e-10
7.40822e-10
6.90654e-10
5.54373e-10
7.38367e-10
3.63688e-10
7.19763e-10
1.90134e-10
6.25473e-10
5.85145e-11
4.47216e-10
1.79459e-10
3.2659e-11
-2.02816e-10
8.4379e-11
-4.0436e-10
1.20335e-10
-4.43478e-10
1.13313e-10
-3.52851e-10
4.14258e-11
-1.58859e-10
-1.12909e-10
1.1593e-10
-3.63595e-10
4.5241e-10
-7.21393e-10
8.34636e-10
-1.1943e-09
1.24943e-09
-1.78792e-09
1.68598e-09
-2.50582e-09
2.13544e-09
-3.34983e-09
2.59065e-09
-4.32027e-09
3.04581e-09
-5.41626e-09
3.49626e-09
-6.63587e-09
3.93829e-09
-7.97637e-09
4.36895e-09
-9.43431e-09
4.78591e-09
-1.10057e-08
5.18738e-09
-1.26862e-08
5.57199e-09
-1.44709e-08
5.93873e-09
-1.6355e-08
6.28687e-09
-1.83332e-08
6.61594e-09
-2.04002e-08
6.92564e-09
-2.25506e-08
7.21584e-09
-2.47791e-08
7.48655e-09
-2.70801e-08
7.73789e-09
-2.94482e-08
7.97003e-09
-3.18781e-08
8.18325e-09
-3.43646e-08
8.37785e-09
-3.69022e-08
8.55418e-09
-3.9486e-08
8.71261e-09
-4.21108e-08
8.85354e-09
-4.47718e-08
8.97737e-09
-4.74639e-08
9.0845e-09
-5.01826e-08
9.17534e-09
-5.2923e-08
9.25028e-09
-5.56808e-08
9.3097e-09
-5.84513e-08
9.35397e-09
-6.12304e-08
9.38346e-09
-6.40135e-08
9.39849e-09
-6.67967e-08
9.39939e-09
-6.95758e-08
9.38645e-09
-7.23467e-08
9.35995e-09
-7.51055e-08
9.32015e-09
-7.78484e-08
9.26729e-09
-8.05714e-08
9.20158e-09
-8.32708e-08
9.12322e-09
-8.59429e-08
9.0324e-09
-8.85841e-08
8.92928e-09
-9.11906e-08
8.81401e-09
-9.3759e-08
8.68673e-09
-9.62857e-08
8.54757e-09
-9.87671e-08
8.39664e-09
-1.012e-07
8.23405e-09
-1.03581e-07
8.05991e-09
-1.05906e-07
7.87431e-09
-1.08172e-07
7.67736e-09
-1.10376e-07
7.46915e-09
-1.12514e-07
7.24979e-09
-1.14584e-07
7.01938e-09
-1.16582e-07
6.77805e-09
-1.18505e-07
6.52591e-09
-1.20349e-07
6.2631e-09
-1.22112e-07
5.98977e-09
-1.2379e-07
5.70609e-09
-1.25381e-07
5.41224e-09
-1.26882e-07
5.10842e-09
-1.2829e-07
4.79487e-09
-1.29602e-07
4.47181e-09
-1.30815e-07
4.13954e-09
-1.31927e-07
3.79834e-09
-1.32936e-07
3.44854e-09
-1.33839e-07
3.09049e-09
-1.34633e-07
2.72458e-09
-1.35317e-07
2.35122e-09
-1.35889e-07
1.97085e-09
-1.36346e-07
1.58396e-09
-1.36688e-07
1.19104e-09
-1.36912e-07
7.92639e-10
-1.37017e-07
3.89333e-10
-1.37002e-07
-1.82748e-11
-1.36866e-07
-4.29547e-10
-1.36609e-07
-8.43814e-10
-1.36229e-07
-1.26038e-09
-1.35726e-07
-1.6785e-09
-1.351e-07
-2.09744e-09
-1.34351e-07
-2.51639e-09
-1.3348e-07
-2.93454e-09
-1.32486e-07
-3.35107e-09
-1.31371e-07
-3.7651e-09
-1.30136e-07
-4.17577e-09
-1.28782e-07
-4.58216e-09
-1.2731e-07
-4.98336e-09
-1.25723e-07
-5.37845e-09
-1.24023e-07
-5.76648e-09
-1.22211e-07
-6.14651e-09
-1.20291e-07
-6.51759e-09
-1.18266e-07
-6.87876e-09
-1.16138e-07
-7.22907e-09
-1.13911e-07
-7.56757e-09
-1.11589e-07
-7.89333e-09
-1.09176e-07
-8.20541e-09
-1.06676e-07
-8.50292e-09
-1.04094e-07
-8.78495e-09
-1.01434e-07
-9.05064e-09
-9.87021e-08
-9.29914e-09
-9.59024e-08
-9.52965e-09
-9.30408e-08
-9.74138e-09
-9.0123e-08
-9.93361e-09
-8.71548e-08
-1.01056e-08
-8.41423e-08
-1.02568e-08
-8.10916e-08
-1.03864e-08
-7.80092e-08
-1.04941e-08
-7.49016e-08
-1.05792e-08
-7.17754e-08
-1.06413e-08
-6.86373e-08
-1.06801e-08
-6.54943e-08
-1.06952e-08
-6.23531e-08
-1.06864e-08
-5.92208e-08
-1.06534e-08
-5.61043e-08
-1.05962e-08
-5.30106e-08
-1.05148e-08
-4.99468e-08
-1.0409e-08
-4.69198e-08
-1.02791e-08
-4.39364e-08
-1.01252e-08
-4.10035e-08
-9.9476e-09
-3.81278e-08
-9.7466e-09
-3.53159e-08
-9.52262e-09
-3.25743e-08
-9.27617e-09
-2.99091e-08
-9.00783e-09
-2.73265e-08
-8.71828e-09
-2.48324e-08
-8.40826e-09
-2.24322e-08
-8.07864e-09
-2.01313e-08
-7.73034e-09
-1.79347e-08
-7.36442e-09
-1.58471e-08
-6.982e-09
-1.38727e-08
-6.58435e-09
-1.20154e-08
-6.17283e-09
-1.02787e-08
-5.74893e-09
-8.66553e-09
-5.31427e-09
-7.17827e-09
-4.87063e-09
-5.8188e-09
-4.41996e-09
-4.58836e-09
-3.9644e-09
-3.48752e-09
-3.50629e-09
-2.51607e-09
-3.04824e-09
-1.67301e-09
-2.59314e-09
-9.56414e-10
-2.14423e-09
-3.63386e-10
-1.70512e-09
1.10081e-10
-1.27991e-09
4.69203e-10
-8.73242e-10
7.20527e-10
-4.90392e-10
8.72072e-10
-1.37383e-10
9.33463e-10
1.78905e-10
9.16079e-10
4.50631e-10
8.3319e-10
6.68901e-10
7.00116e-10
8.23728e-10
5.34409e-10
9.04073e-10
3.56144e-10
8.98026e-10
1.88431e-10
7.93186e-10
5.8426e-11
5.77221e-10
2.37885e-10
2.03786e-11
-2.23193e-10
4.0235e-11
-4.24218e-10
2.69161e-11
-4.30156e-10
-4.58052e-11
-2.80132e-10
-1.99258e-10
-5.40988e-12
-4.50692e-10
3.67367e-10
-8.13865e-10
8.15582e-10
-1.29948e-09
1.32025e-09
-1.91556e-09
1.86552e-09
-2.66781e-09
2.43822e-09
-3.55983e-09
3.02747e-09
-4.59351e-09
3.62432e-09
-5.76916e-09
4.22146e-09
-7.08583e-09
4.81293e-09
-8.54146e-09
5.39393e-09
-1.01331e-08
5.96058e-09
-1.1857e-08
6.50983e-09
-1.37089e-08
7.03926e-09
-1.56839e-08
7.54701e-09
-1.77769e-08
8.03168e-09
-1.99822e-08
8.49224e-09
-2.22943e-08
8.92798e-09
-2.47071e-08
9.33845e-09
-2.72147e-08
9.72342e-09
-2.98109e-08
1.00828e-08
-3.24898e-08
1.04167e-08
-3.52452e-08
1.07254e-08
-3.8071e-08
1.10091e-08
-4.09612e-08
1.12681e-08
-4.391e-08
1.15029e-08
-4.69114e-08
1.1714e-08
-4.99597e-08
1.19018e-08
-5.30492e-08
1.20669e-08
-5.61743e-08
1.22097e-08
-5.93297e-08
1.23307e-08
-6.251e-08
1.24305e-08
-6.57098e-08
1.25096e-08
-6.89242e-08
1.25683e-08
-7.2148e-08
1.26073e-08
-7.53763e-08
1.26268e-08
-7.86043e-08
1.26274e-08
-8.18272e-08
1.26094e-08
-8.50404e-08
1.25731e-08
-8.82392e-08
1.2519e-08
-9.14192e-08
1.24473e-08
-9.45758e-08
1.23583e-08
-9.77048e-08
1.22522e-08
-1.00802e-07
1.21294e-08
-1.03863e-07
1.199e-08
-1.06883e-07
1.18343e-08
-1.09859e-07
1.16624e-08
-1.12786e-07
1.14745e-08
-1.1566e-07
1.12708e-08
-1.18477e-07
1.10514e-08
-1.21234e-07
1.08164e-08
-1.23925e-07
1.05661e-08
-1.26549e-07
1.03005e-08
-1.29099e-07
1.00198e-08
-1.31574e-07
9.72414e-09
-1.33968e-07
9.41365e-09
-1.36278e-07
9.08852e-09
-1.38501e-07
8.74891e-09
-1.40633e-07
8.39502e-09
-1.42671e-07
8.02706e-09
-1.4461e-07
7.64527e-09
-1.46447e-07
7.24989e-09
-1.4818e-07
6.84121e-09
-1.49805e-07
6.41953e-09
-1.51318e-07
5.98521e-09
-1.52717e-07
5.5386e-09
-1.53999e-07
5.08013e-09
-1.55161e-07
4.61022e-09
-1.562e-07
4.12936e-09
-1.57113e-07
3.63807e-09
-1.57899e-07
3.13691e-09
-1.58554e-07
2.62648e-09
-1.59078e-07
2.10742e-09
-1.59467e-07
1.58042e-09
-1.59721e-07
1.0462e-09
-1.59837e-07
5.05536e-10
-1.59815e-07
-4.07645e-11
-1.59652e-07
-5.91845e-10
-1.59349e-07
-1.14681e-09
-1.58905e-07
-1.70473e-09
-1.58319e-07
-2.26461e-09
-1.57591e-07
-2.82546e-09
-1.56721e-07
-3.38622e-09
-1.5571e-07
-3.9458e-09
-1.54558e-07
-4.5031e-09
-1.53266e-07
-5.05696e-09
-1.51835e-07
-5.60621e-09
-1.50268e-07
-6.14967e-09
-1.48565e-07
-6.6861e-09
-1.46729e-07
-7.21429e-09
-1.44763e-07
-7.73297e-09
-1.42668e-07
-8.2409e-09
-1.40449e-07
-8.73681e-09
-1.38108e-07
-9.21944e-09
-1.3565e-07
-9.68752e-09
-1.33078e-07
-1.01398e-08
-1.30396e-07
-1.0575e-08
-1.27609e-07
-1.0992e-08
-1.24723e-07
-1.13895e-08
-1.21741e-07
-1.17663e-08
-1.18671e-07
-1.21214e-08
-1.15516e-07
-1.24535e-08
-1.12284e-07
-1.27616e-08
-1.08981e-07
-1.30447e-08
-1.05613e-07
-1.33018e-08
-1.02186e-07
-1.3532e-08
-9.87087e-08
-1.37345e-08
-9.51869e-08
-1.39083e-08
-9.16281e-08
-1.40528e-08
-8.804e-08
-1.41673e-08
-8.443e-08
-1.42513e-08
-8.08059e-08
-1.43042e-08
-7.71754e-08
-1.43257e-08
-7.35465e-08
-1.43153e-08
-6.99271e-08
-1.42728e-08
-6.63252e-08
-1.41982e-08
-6.27487e-08
-1.40912e-08
-5.92057e-08
-1.39521e-08
-5.57039e-08
-1.37808e-08
-5.22514e-08
-1.35777e-08
-4.88559e-08
-1.33431e-08
-4.55249e-08
-1.30775e-08
-4.22662e-08
-1.27814e-08
-3.90868e-08
-1.24555e-08
-3.59941e-08
-1.21006e-08
-3.29948e-08
-1.17175e-08
-3.00956e-08
-1.13074e-08
-2.73029e-08
-1.08713e-08
-2.46227e-08
-1.04106e-08
-2.20606e-08
-9.92652e-09
-1.96219e-08
-9.42072e-09
-1.73114e-08
-8.89484e-09
-1.51335e-08
-8.35072e-09
-1.30921e-08
-7.79036e-09
-1.11904e-08
-7.21594e-09
-9.43123e-09
-6.62982e-09
-7.81657e-09
-6.03462e-09
-6.34781e-09
-5.43316e-09
-5.02552e-09
-4.82858e-09
-3.84945e-09
-4.2243e-09
-2.81846e-09
-3.62414e-09
-1.93037e-09
-3.03231e-09
-1.18196e-09
-2.45352e-09
-5.68815e-10
-1.89305e-09
-8.52277e-11
-1.35683e-09
2.75904e-10
-8.51524e-10
5.23207e-10
-3.84686e-10
6.66951e-10
3.51619e-11
7.19181e-10
3.98402e-10
6.93856e-10
6.94227e-10
6.07009e-10
9.10575e-10
4.76975e-10
1.03411e-09
3.24737e-10
1.05026e-09
1.74501e-10
9.43421e-10
5.4681e-11
6.97043e-10
2.92567e-10
6.04469e-12
-2.29241e-10
-1.16333e-11
-4.06543e-10
-8.25724e-11
-3.59213e-10
-2.31142e-10
-1.31564e-10
-4.77433e-10
2.40885e-10
-8.37856e-10
7.27787e-10
-1.32557e-09
1.30329e-09
-1.95086e-09
1.94555e-09
-2.72149e-09
2.63615e-09
-3.64294e-09
3.35968e-09
-4.71871e-09
4.10324e-09
-5.95054e-09
4.85615e-09
-7.33863e-09
5.60955e-09
-8.88187e-09
6.35617e-09
-1.0578e-08
7.09008e-09
-1.24239e-08
7.80647e-09
-1.44155e-08
8.50145e-09
-1.65483e-08
9.17197e-09
-1.88169e-08
9.81562e-09
-2.12157e-08
1.04306e-08
-2.37389e-08
1.10154e-08
-2.63802e-08
1.15692e-08
-2.91331e-08
1.20913e-08
-3.1991e-08
1.25814e-08
-3.49474e-08
1.30392e-08
-3.79956e-08
1.34649e-08
-4.11287e-08
1.38586e-08
-4.43402e-08
1.42206e-08
-4.76234e-08
1.45513e-08
-5.09717e-08
1.48512e-08
-5.43786e-08
1.51209e-08
-5.78378e-08
1.5361e-08
-6.13428e-08
1.55719e-08
-6.48874e-08
1.57543e-08
-6.84657e-08
1.5909e-08
-7.20715e-08
1.60363e-08
-7.5699e-08
1.61371e-08
-7.93424e-08
1.62117e-08
-8.29961e-08
1.62609e-08
-8.66544e-08
1.62851e-08
-9.03119e-08
1.62849e-08
-9.39633e-08
1.62607e-08
-9.76033e-08
1.62131e-08
-1.01227e-07
1.61423e-08
-1.04828e-07
1.60488e-08
-1.08403e-07
1.59331e-08
-1.11946e-07
1.57953e-08
-1.15453e-07
1.56359e-08
-1.18918e-07
1.54551e-08
-1.22336e-07
1.52531e-08
-1.25704e-07
1.50303e-08
-1.29017e-07