/*--------------------------------*- C++ -*----------------------------------*\
  =========                 |
  \\      /  F ield         | OpenFOAM: The Open Source CFD Toolbox
   \\    /   O peration     | Website:  https://openfoam.org
    \\  /    A nd           | Version:  9
     \\/     M anipulation  |
\*---------------------------------------------------------------------------*/
FoamFile
{
    format      ascii;
    class       volScalarField;
    location    "13.4";
    object      p;
}
// * * * * * * * * * * * * * * * * * * * * * * * * * * * * * * * * * * * * * //

dimensions      [0 2 -2 0 0 0 0];

internalField   nonuniform List<scalar> 
8500
(
-0.314566
-0.319313
-0.320565
-0.32316
-0.326557
-0.32861
-0.335091
-0.334751
-0.346147
-0.344515
-0.314881
-0.319547
-0.320794
-0.32335
-0.326783
-0.3287
-0.335414
-0.334605
-0.346565
-0.344234
-0.3155
-0.320006
-0.321241
-0.323717
-0.327221
-0.328858
-0.336039
-0.33429
-0.347366
-0.343677
-0.316402
-0.320674
-0.321886
-0.324235
-0.327841
-0.329051
-0.336918
-0.333766
-0.348477
-0.342853
-0.317559
-0.321528
-0.3227
-0.324869
-0.328598
-0.329234
-0.337981
-0.332994
-0.349801
-0.34177
-0.318935
-0.32254
-0.323649
-0.325577
-0.32944
-0.329368
-0.339137
-0.331946
-0.351228
-0.340397
-0.320492
-0.323681
-0.324696
-0.32632
-0.330302
-0.329422
-0.340279
-0.330604
-0.352656
-0.338673
-0.322192
-0.32492
-0.325804
-0.327059
-0.331119
-0.329382
-0.341304
-0.32898
-0.353926
-0.336946
-0.323997
-0.326231
-0.326935
-0.327765
-0.331826
-0.329248
-0.342103
-0.327308
-0.354776
-0.334913
-0.325878
-0.32759
-0.328059
-0.328419
-0.332361
-0.329067
-0.342372
-0.325669
-0.355434
-0.332479
-0.327808
-0.328982
-0.32915
-0.329013
-0.332651
-0.329013
-0.342183
-0.323899
-0.355802
-0.329932
-0.329774
-0.330395
-0.330194
-0.329558
-0.332649
-0.328963
-0.341627
-0.322212
-0.355532
-0.327884
-0.33177
-0.331827
-0.33118
-0.330077
-0.332418
-0.328875
-0.34063
-0.320981
-0.35399
-0.326901
-0.333802
-0.333282
-0.332107
-0.330542
-0.332031
-0.328764
-0.339158
-0.32039
-0.350751
-0.326909
-0.335892
-0.334769
-0.333021
-0.330949
-0.331536
-0.328632
-0.337289
-0.320361
-0.345822
-0.326867
-0.338071
-0.336306
-0.333955
-0.331332
-0.331004
-0.328297
-0.335166
-0.320491
-0.339782
-0.325533
-0.34038
-0.337923
-0.334944
-0.331732
-0.330525
-0.327729
-0.332872
-0.320346
-0.333301
-0.322377
-0.342867
-0.339653
-0.336033
-0.332191
-0.330162
-0.326951
-0.330365
-0.319682
-0.326584
-0.31748
-0.345591
-0.341539
-0.337273
-0.332745
-0.329908
-0.326063
-0.327554
-0.318362
-0.3195
-0.311298
-0.348615
-0.343622
-0.338717
-0.333415
-0.329712
-0.325159
-0.32443
-0.316199
-0.312065
-0.304528
-0.352001
-0.345957
-0.340415
-0.334194
-0.329543
-0.324245
-0.32106
-0.312993
-0.304875
-0.297593
-0.355792
-0.348614
-0.3424
-0.335059
-0.329433
-0.323231
-0.317496
-0.308783
-0.298211
-0.289705
-0.360065
-0.351646
-0.344667
-0.33602
-0.329429
-0.321982
-0.313732
-0.303863
-0.291453
-0.28176
-0.364884
-0.355112
-0.347166
-0.337164
-0.329507
-0.320389
-0.309743
-0.298385
-0.284659
-0.273925
-0.370309
-0.35906
-0.34984
-0.33862
-0.329556
-0.318395
-0.305479
-0.292543
-0.277757
-0.266114
-0.376407
-0.363491
-0.352699
-0.340444
-0.329449
-0.315976
-0.300927
-0.286422
-0.27074
-0.258376
-0.383252
-0.368346
-0.355873
-0.342532
-0.329081
-0.31313
-0.296076
-0.280082
-0.263622
-0.250627
-0.390911
-0.373519
-0.359576
-0.344665
-0.328375
-0.309865
-0.290924
-0.273544
-0.25639
-0.242858
-0.399421
-0.378909
-0.363986
-0.346627
-0.327261
-0.306188
-0.285469
-0.26681
-0.24904
-0.235021
-0.408747
-0.384461
-0.369122
-0.348274
-0.32567
-0.302093
-0.279704
-0.259871
-0.241554
-0.227092
-0.41876
-0.390201
-0.374771
-0.349516
-0.323541
-0.297564
-0.273615
-0.252708
-0.233911
-0.219038
-0.429214
-0.396215
-0.38052
-0.350277
-0.320826
-0.292575
-0.267182
-0.245303
-0.226085
-0.210834
-0.439772
-0.402605
-0.38587
-0.350466
-0.317483
-0.28709
-0.260378
-0.237629
-0.218052
-0.202454
-0.450114
-0.409429
-0.390365
-0.349967
-0.313478
-0.281075
-0.253174
-0.229659
-0.209787
-0.193876
-0.459936
-0.416639
-0.393666
-0.348647
-0.30877
-0.274497
-0.245536
-0.221364
-0.201267
-0.185079
-0.468989
-0.424044
-0.395571
-0.346372
-0.303315
-0.267326
-0.237434
-0.212717
-0.192469
-0.176043
-0.477074
-0.431296
-0.395991
-0.343017
-0.297063
-0.25953
-0.228838
-0.20369
-0.18337
-0.16675
-0.484035
-0.437921
-0.394924
-0.338487
-0.28996
-0.251075
-0.21972
-0.194261
-0.173951
-0.157193
-0.489749
-0.443383
-0.392403
-0.332718
-0.281954
-0.241928
-0.210054
-0.184408
-0.164195
-0.147379
-0.49411
-0.447217
-0.388392
-0.325665
-0.272998
-0.232057
-0.199818
-0.174111
-0.154087
-0.137329
-0.497019
-0.449096
-0.382771
-0.317284
-0.263051
-0.221433
-0.188993
-0.163354
-0.143614
-0.127057
-0.498367
-0.448747
-0.37545
-0.307531
-0.252079
-0.210031
-0.177562
-0.152122
-0.132766
-0.11653
-0.498022
-0.445978
-0.366372
-0.296369
-0.240054
-0.197833
-0.165512
-0.140401
-0.121556
-0.105678
-0.495822
-0.44066
-0.35549
-0.283776
-0.226957
-0.184823
-0.152828
-0.12818
-0.110028
-0.0944268
-0.491577
-0.432707
-0.342756
-0.269755
-0.212776
-0.170988
-0.139501
-0.115457
-0.0982212
-0.0827752
-0.485077
-0.422064
-0.328133
-0.254309
-0.197497
-0.156326
-0.12554
-0.102273
-0.0860964
-0.0708771
-0.476102
-0.408698
-0.311602
-0.237438
-0.181107
-0.140862
-0.110984
-0.0887191
-0.0735399
-0.0587849
-0.464439
-0.392594
-0.293154
-0.219138
-0.163624
-0.124659
-0.0958819
-0.0747687
-0.0605725
-0.046498
-0.449896
-0.373753
-0.272781
-0.199429
-0.145145
-0.107756
-0.0802051
-0.0604256
-0.0472422
-0.0340205
-0.432314
-0.352197
-0.250472
-0.1784
-0.125796
-0.0900761
-0.0639926
-0.0457014
-0.0335955
-0.0213673
-0.411578
-0.32799
-0.226233
-0.156216
-0.105505
-0.0716718
-0.0472841
-0.0306203
-0.0196739
-0.00856564
-0.387624
-0.301257
-0.200168
-0.132827
-0.0843329
-0.0526006
-0.0301229
-0.015215
-0.00551707
0.00434733
-0.360443
-0.272142
-0.172464
-0.108168
-0.0623403
-0.032928
-0.0125566
0.000475038
0.00883588
0.0173275
-0.330089
-0.240659
-0.143275
-0.082355
-0.039595
-0.012724
0.00536078
0.0164056
0.0233492
0.0303305
-0.296685
-0.206633
-0.112921
-0.055531
-0.016172
0.00793635
0.0235688
0.0325315
0.0379922
0.0433128
-0.260401
-0.170351
-0.0813845
-0.0278447
0.00784154
0.028973
0.0420027
0.0488113
0.0527332
0.0562043
-0.221327
-0.132238
-0.048727
0.000557943
0.0323451
0.0503007
0.0605973
0.0652114
0.0675177
0.0688316
-0.17948
-0.0928774
-0.0150827
0.0295343
0.0572275
0.0718296
0.0792906
0.0816988
0.0822335
0.0808571
-0.135324
-0.0524411
0.0193677
0.0589409
0.082369
0.0934664
0.098022
0.0982144
0.0967055
0.0919892
-0.0892218
-0.0111263
0.0544186
0.088628
0.107643
0.115116
0.116723
0.114647
0.110769
0.102545
-0.0415564
0.0308275
0.0898496
0.118438
0.13292
0.13668
0.135311
0.130856
0.124368
0.113847
0.00726747
0.0731552
0.125431
0.148207
0.158065
0.158059
0.153686
0.146729
0.13771
0.125679
0.0568284
0.115574
0.160927
0.177764
0.182943
0.179146
0.171754
0.162235
0.150843
0.137557
0.106694
0.157792
0.196101
0.206935
0.207415
0.199833
0.18942
0.177327
0.163715
0.149301
0.156423
0.199507
0.230714
0.235543
0.231342
0.22001
0.206595
0.191959
0.17625
0.160728
0.205577
0.24042
0.264529
0.263411
0.254588
0.239566
0.223194
0.206074
0.188384
0.171743
0.253716
0.280231
0.297314
0.290364
0.277014
0.258392
0.239131
0.219608
0.200047
0.182265
0.30041
0.318645
0.328843
0.31623
0.298487
0.276383
0.254327
0.2325
0.211177
0.192235
0.345239
0.355385
0.358896
0.340841
0.318877
0.293434
0.268701
0.244686
0.221712
0.201604
0.387792
0.390189
0.387266
0.364034
0.338057
0.309447
0.282176
0.256104
0.231595
0.210328
0.427694
0.4228
0.413754
0.385656
0.355908
0.324328
0.29468
0.266696
0.24077
0.218369
0.464644
0.452932
0.43817
0.40556
0.372319
0.337989
0.306145
0.276406
0.249187
0.225694
0.498347
0.480326
0.46034
0.42361
0.387184
0.350348
0.316506
0.285181
0.256798
0.232272
0.528513
0.504766
0.480102
0.439683
0.400408
0.361332
0.325706
0.292973
0.26356
0.238077
0.554879
0.526065
0.497315
0.45367
0.411908
0.370874
0.333692
0.299738
0.269431
0.243086
0.577213
0.544064
0.511853
0.465475
0.421607
0.378916
0.340419
0.305437
0.274379
0.247283
0.595321
0.558628
0.523613
0.475017
0.429444
0.38541
0.345848
0.310037
0.278372
0.250654
0.609043
0.569647
0.532507
0.482232
0.435366
0.390316
0.349948
0.313511
0.281389
0.253189
0.618258
0.577039
0.538473
0.487069
0.439336
0.393603
0.352695
0.315838
0.28341
0.254881
0.622886
0.580749
0.541467
0.489496
0.441328
0.395251
0.354073
0.317006
0.284424
0.255727
0.622886
0.580749
0.541467
0.489496
0.441328
0.395251
0.354073
0.317006
0.284424
0.255727
0.618258
0.577039
0.538473
0.487069
0.439336
0.393603
0.352695
0.315838
0.28341
0.254881
0.609043
0.569647
0.532507
0.482232
0.435366
0.390316
0.349948
0.313511
0.281389
0.253189
0.595321
0.558628
0.523613
0.475017
0.429444
0.38541
0.345848
0.310037
0.278372
0.250654
0.577213
0.544064
0.511853
0.465475
0.421607
0.378916
0.340419
0.305437
0.274379
0.247283
0.554879
0.526065
0.497315
0.45367
0.411908
0.370874
0.333692
0.299738
0.269431
0.243086
0.528513
0.504766
0.480102
0.439683
0.400408
0.361332
0.325706
0.292973
0.26356
0.238077
0.498347
0.480326
0.46034
0.42361
0.387184
0.350348
0.316506
0.285181
0.256799
0.232272
0.464644
0.452932
0.43817
0.40556
0.372319
0.337989
0.306145
0.276406
0.249187
0.225694
0.427694
0.4228
0.413754
0.385656
0.355908
0.324328
0.29468
0.266696
0.24077
0.218369
0.387792
0.390189
0.387266
0.364034
0.338057
0.309447
0.282176
0.256104
0.231595
0.210328
0.345239
0.355385
0.358896
0.340841
0.318877
0.293434
0.268701
0.244686
0.221712
0.201604
0.30041
0.318645
0.328843
0.31623
0.298487
0.276383
0.254327
0.2325
0.211177
0.192235
0.253716
0.280231
0.297314
0.290364
0.277014
0.258392
0.239131
0.219608
0.200047
0.182265
0.205577
0.24042
0.264529
0.263411
0.254588
0.239566
0.223194
0.206074
0.188384
0.171743
0.156423
0.199507
0.230714
0.235543
0.231342
0.22001
0.206595
0.191959
0.17625
0.160728
0.106694
0.157792
0.196101
0.206935
0.207415
0.199834
0.18942
0.177327
0.163715
0.149301
0.0568284
0.115574
0.160927
0.177764
0.182943
0.179146
0.171754
0.162235
0.150843
0.137557
0.00726749
0.0731552
0.125431
0.148207
0.158065
0.158059
0.153686
0.146729
0.13771
0.125679
-0.0415564
0.0308275
0.0898497
0.118438
0.13292
0.13668
0.135311
0.130856
0.124368
0.113847
-0.0892218
-0.0111263
0.0544186
0.088628
0.107644
0.115116
0.116724
0.114647
0.110769
0.102545
-0.135324
-0.0524411
0.0193677
0.0589409
0.082369
0.0934664
0.0980221
0.0982144
0.0967055
0.0919893
-0.17948
-0.0928774
-0.0150826
0.0295344
0.0572275
0.0718296
0.0792906
0.0816988
0.0822335
0.0808571
-0.221326
-0.132238
-0.048727
0.000557962
0.0323451
0.0503007
0.0605973
0.0652114
0.0675177
0.0688316
-0.260401
-0.170351
-0.0813845
-0.0278447
0.00784156
0.028973
0.0420027
0.0488113
0.0527333
0.0562043
-0.296685
-0.206633
-0.112921
-0.055531
-0.0161719
0.00793637
0.0235688
0.0325315
0.0379922
0.0433128
-0.330089
-0.240659
-0.143275
-0.082355
-0.039595
-0.012724
0.0053608
0.0164056
0.0233492
0.0303306
-0.360443
-0.272142
-0.172464
-0.108168
-0.0623402
-0.032928
-0.0125565
0.000475067
0.00883591
0.0173276
-0.387624
-0.301257
-0.200168
-0.132827
-0.0843329
-0.0526006
-0.0301229
-0.0152149
-0.00551704
0.00434736
-0.411578
-0.32799
-0.226233
-0.156216
-0.105505
-0.0716717
-0.047284
-0.0306203
-0.0196738
-0.0085656
-0.432314
-0.352197
-0.250472
-0.1784
-0.125796
-0.0900761
-0.0639926
-0.0457014
-0.0335955
-0.0213673
-0.449896
-0.373752
-0.272781
-0.199429
-0.145145
-0.107755
-0.080205
-0.0604255
-0.0472422
-0.0340204
-0.464439
-0.392594
-0.293154
-0.219138
-0.163624
-0.124659
-0.0958818
-0.0747687
-0.0605724
-0.0464979
-0.476102
-0.408698
-0.311602
-0.237438
-0.181107
-0.140862
-0.110984
-0.088719
-0.0735398
-0.0587848
-0.485077
-0.422064
-0.328133
-0.254309
-0.197497
-0.156326
-0.12554
-0.102273
-0.0860964
-0.0708771
-0.491577
-0.432707
-0.342756
-0.269755
-0.212776
-0.170988
-0.139501
-0.115457
-0.0982211
-0.0827752
-0.495822
-0.44066
-0.35549
-0.283776
-0.226957
-0.184823
-0.152828
-0.12818
-0.110028
-0.0944268
-0.498022
-0.445978
-0.366372
-0.296369
-0.240054
-0.197833
-0.165512
-0.140401
-0.121556
-0.105678
-0.498367
-0.448747
-0.37545
-0.307531
-0.252079
-0.210031
-0.177562
-0.152122
-0.132766
-0.11653
-0.497019
-0.449096
-0.382771
-0.317284
-0.263051
-0.221433
-0.188993
-0.163354
-0.143614
-0.127057
-0.49411
-0.447217
-0.388392
-0.325665
-0.272998
-0.232057
-0.199818
-0.174111
-0.154087
-0.137329
-0.489749
-0.443383
-0.392402
-0.332718
-0.281954
-0.241928
-0.210054
-0.184408
-0.164195
-0.147379
-0.484035
-0.437921
-0.394924
-0.338487
-0.28996
-0.251075
-0.21972
-0.194261
-0.173951
-0.157193
-0.477074
-0.431296
-0.395991
-0.343017
-0.297063
-0.25953
-0.228838
-0.20369
-0.18337
-0.16675
-0.468989
-0.424044
-0.395571
-0.346372
-0.303315
-0.267326
-0.237434
-0.212717
-0.192469
-0.176043
-0.459936
-0.416639
-0.393666
-0.348647
-0.30877
-0.274497
-0.245536
-0.221364
-0.201267
-0.185079
-0.450114
-0.409429
-0.390365
-0.349967
-0.313478
-0.281075
-0.253174
-0.229659
-0.209787
-0.193876
-0.439772
-0.402605
-0.38587
-0.350466
-0.317483
-0.28709
-0.260378
-0.237629
-0.218052
-0.202454
-0.429214
-0.396215
-0.38052
-0.350277
-0.320826
-0.292575
-0.267182
-0.245303
-0.226085
-0.210834
-0.418759
-0.390201
-0.374771
-0.349516
-0.323541
-0.297564
-0.273615
-0.252708
-0.233911
-0.219038
-0.408747
-0.384461
-0.369122
-0.348274
-0.32567
-0.302093
-0.279703
-0.259871
-0.241554
-0.227092
-0.399421
-0.378909
-0.363986
-0.346627
-0.327261
-0.306188
-0.285469
-0.26681
-0.24904
-0.235021
-0.390911
-0.373519
-0.359576
-0.344665
-0.328375
-0.309865
-0.290924
-0.273544
-0.256389
-0.242858
-0.383252
-0.368346
-0.355873
-0.342532
-0.329081
-0.31313
-0.296076
-0.280082
-0.263622
-0.250627
-0.376407
-0.363491
-0.352699
-0.340444
-0.329449
-0.315976
-0.300927
-0.286422
-0.27074
-0.258376
-0.370309
-0.35906
-0.34984
-0.33862
-0.329556
-0.318395
-0.305479
-0.292543
-0.277757
-0.266114
-0.364884
-0.355112
-0.347166
-0.337164
-0.329507
-0.320389
-0.309743
-0.298385
-0.284659
-0.273925
-0.360065
-0.351646
-0.344667
-0.33602
-0.329429
-0.321982
-0.313732
-0.303863
-0.291453
-0.28176
-0.355792
-0.348614
-0.3424
-0.335059
-0.329433
-0.323231
-0.317496
-0.308783
-0.298211
-0.289705
-0.352001
-0.345957
-0.340415
-0.334194
-0.329543
-0.324245
-0.32106
-0.312993
-0.304875
-0.297593
-0.348615
-0.343622
-0.338717
-0.333415
-0.329712
-0.325159
-0.32443
-0.316199
-0.312065
-0.304528
-0.345591
-0.341539
-0.337273
-0.332745
-0.329908
-0.326063
-0.327554
-0.318362
-0.3195
-0.311297
-0.342867
-0.339653
-0.336033
-0.332191
-0.330162
-0.326951
-0.330365
-0.319682
-0.326584
-0.31748
-0.34038
-0.337923
-0.334944
-0.331732
-0.330525
-0.327729
-0.332872
-0.320346
-0.333301
-0.322377
-0.338071
-0.336306
-0.333955
-0.331332
-0.331004
-0.328297
-0.335166
-0.320491
-0.339782
-0.325533
-0.335892
-0.334769
-0.333021
-0.330949
-0.331536
-0.328632
-0.337289
-0.320361
-0.345822
-0.326867
-0.333802
-0.333282
-0.332107
-0.330542
-0.332031
-0.328764
-0.339158
-0.32039
-0.350751
-0.326909
-0.33177
-0.331827
-0.33118
-0.330077
-0.332418
-0.328875
-0.34063
-0.320981
-0.35399
-0.326901
-0.329774
-0.330395
-0.330194
-0.329558
-0.332649
-0.328963
-0.341627
-0.322212
-0.355532
-0.327884
-0.327808
-0.328982
-0.32915
-0.329013
-0.332651
-0.329013
-0.342183
-0.323899
-0.355802
-0.329932
-0.325878
-0.32759
-0.328059
-0.328419
-0.332361
-0.329067
-0.342372
-0.325669
-0.355434
-0.332479
-0.323997
-0.326231
-0.326935
-0.327765
-0.331826
-0.329248
-0.342103
-0.327308
-0.354776
-0.334913
-0.322192
-0.32492
-0.325804
-0.327059
-0.331119
-0.329382
-0.341304
-0.32898
-0.353926
-0.336946
-0.320492
-0.323681
-0.324696
-0.32632
-0.330302
-0.329422
-0.340279
-0.330604
-0.352656
-0.338673
-0.318935
-0.32254
-0.323649
-0.325577
-0.32944
-0.329368
-0.339137
-0.331946
-0.351228
-0.340397
-0.317559
-0.321528
-0.3227
-0.324869
-0.328598
-0.329234
-0.337981
-0.332994
-0.349801
-0.34177
-0.316402
-0.320674
-0.321886
-0.324235
-0.327841
-0.329051
-0.336918
-0.333766
-0.348477
-0.342853
-0.3155
-0.320006
-0.321241
-0.323717
-0.327221
-0.328858
-0.336039
-0.33429
-0.347366
-0.343677
-0.314881
-0.319547
-0.320794
-0.32335
-0.326783
-0.3287
-0.335414
-0.334605
-0.346565
-0.344234
-0.314566
-0.319313
-0.320565
-0.32316
-0.326557
-0.32861
-0.335091
-0.334751
-0.346147
-0.344515
-0.363787
-0.36946
-0.386897
-0.393581
-0.394216
-0.375419
-0.335803
-0.270136
-0.185021
-0.0971449
-0.0294907
0.0134848
0.0327163
0.038126
0.0355314
0.0297949
0.0233935
0.017616
0.0128965
0.00918863
0.00630935
0.00415499
0.00268995
0.00183886
0.00139179
0.00112125
0.000849038
0.000591865
0.000315743
0.000144866
-0.36409
-0.369737
-0.387298
-0.394265
-0.395154
-0.376673
-0.33736
-0.271885
-0.186699
-0.0984753
-0.0304495
0.0128252
0.0322663
0.0378164
0.0353231
0.0296542
0.0232972
0.0175496
0.0128513
0.00915842
0.00628867
0.00413948
0.0026772
0.00182822
0.00138342
0.00111527
0.000845225
0.000589708
0.000314689
0.000144281
-0.364597
-0.370188
-0.387996
-0.395492
-0.396873
-0.378983
-0.340256
-0.275182
-0.189884
-0.101066
-0.032349
0.0114968
0.0313522
0.037185
0.0348981
0.0293677
0.023102
0.0174154
0.0127602
0.00909767
0.00624724
0.00410865
0.00265209
0.00180734
0.00136697
0.00110349
0.000837683
0.000585424
0.000312594
0.000143118
-0.365129
-0.370642
-0.388801
-0.396999
-0.399066
-0.382022
-0.34413
-0.279655
-0.194365
-0.104726
-0.0351512
0.00948184
0.0299511
0.0362115
0.0342423
0.0289272
0.0228035
0.0172115
0.0126222
0.00900579
0.00618491
0.00406289
0.00261535
0.001777
0.00134302
0.00108624
0.000826572
0.000579074
0.000309484
0.000141393
-0.365513
-0.370893
-0.389508
-0.398475
-0.401413
-0.385374
-0.348527
-0.284941
-0.199714
-0.109362
-0.0387976
0.00678163
0.0280408
0.0348741
0.0333397
0.0283232
0.0223969
0.0169357
0.0124362
0.00888213
0.00610155
0.00400269
0.00256793
0.0017382
0.00131236
0.00106398
0.000812115
0.000570748
0.000305397
0.000139127
-0.365478
-0.370823
-0.389853
-0.399656
-0.403527
-0.388664
-0.353091
-0.290513
-0.205668
-0.114778
-0.0432132
0.00340971
0.0256072
0.0331578
0.0321777
0.0275489
0.0218786
0.0165861
0.0122013
0.00872615
0.00599706
0.00392862
0.00251088
0.00169209
0.00127587
0.00103725
0.000794584
0.000560554
0.000300382
0.000136352
-0.365255
-0.37013
-0.389839
-0.400216
-0.405166
-0.391507
-0.357326
-0.296114
-0.211971
-0.120783
-0.0483078
-0.000603198
0.0226514
0.0310615
0.0307535
0.0266014
0.0212469
0.0161625
0.0119173
0.00853764
0.0058715
0.00384127
0.00244527
0.00163982
0.00123447
0.00100663
0.000774279
0.000548619
0.000294494
0.000133103
-0.36386
-0.369372
-0.388918
-0.400264
-0.405957
-0.393734
-0.361081
-0.301417
-0.218325
-0.127204
-0.0539822
-0.00521286
0.0192066
0.0285964
0.029072
0.0254828
0.0205033
0.0156657
0.011585
0.00831686
0.00572511
0.00374122
0.00237203
0.00158245
0.00118905
0.000972705
0.000751512
0.000535081
0.000287795
0.000129422
-0.362307
-0.367961
-0.387538
-0.399429
-0.406037
-0.395106
-0.364064
-0.306204
-0.224529
-0.133878
-0.0601275
-0.0103466
0.0153124
0.0257872
0.0271471
0.0242007
0.0196526
0.0150989
0.0112058
0.00806465
0.00555835
0.00362902
0.00229195
0.00152085
0.00114038
0.000936002
0.000726593
0.000520086
0.000280352
0.000125358
-0.360088
-0.366222
-0.385438
-0.397869
-0.405242
-0.395562
-0.366148
-0.310292
-0.230406
-0.140654
-0.0666318
-0.0159236
0.0110235
0.0226692
0.0249998
0.0227674
0.0187019
0.0144662
0.0107825
0.00778243
0.00537198
0.00350519
0.00220562
0.00145572
0.00108909
0.000897002
0.000699816
0.00050378
0.00027223
0.000120962
-0.357227
-0.364119
-0.38274
-0.395528
-0.403512
-0.395029
-0.367258
-0.313561
-0.235821
-0.147403
-0.0733848
-0.0218556
0.00640255
0.0192847
0.022656
0.0211979
0.0176603
0.0137733
0.0103184
0.00747211
0.00516697
0.00337026
0.00211346
0.00138751
0.00103568
0.000856111
0.000671451
0.000486309
0.000263498
0.000116288
-0.353512
-0.36164
-0.379445
-0.392428
-0.400849
-0.393492
-0.367372
-0.31588
-0.240666
-0.154013
-0.080282
-0.028053
0.00151512
0.0156787
0.0201439
0.0195091
0.016538
0.0130262
0.00981734
0.00713596
0.00494452
0.00322475
0.00201575
0.00131653
0.00098049
0.00081366
0.000641741
0.000467811
0.000254223
0.000111395
-0.34912
-0.358565
-0.375554
-0.388546
-0.397251
-0.390942
-0.366434
-0.317283
-0.244862
-0.160393
-0.0872284
-0.0344296
-0.00357427
0.011896
0.0174918
0.0177179
0.0153452
0.0122313
0.00928319
0.00677644
0.00470596
0.00306923
0.0019127
0.00124293
0.000923758
0.000769911
0.000610898
0.000448419
0.000244467
0.000106337
-0.34431
-0.354811
-0.370998
-0.383866
-0.392715
-0.387382
-0.364489
-0.317766
-0.248354
-0.16647
-0.0941418
-0.0409067
-0.00880572
0.00797882
0.0147262
0.0158401
0.0140918
0.0113946
0.00871994
0.0063961
0.00445273
0.0029043
0.00180443
0.00116677
0.000865619
0.000725061
0.000579104
0.000428254
0.000234291
0.000101161
-0.339324
-0.350316
-0.365715
-0.378361
-0.387274
-0.382881
-0.361611
-0.317409
-0.251148
-0.172185
-0.100953
-0.0474157
-0.0141257
0.00396572
0.0118758
0.0138891
0.0127869
0.0105218
0.00813129
0.00599738
0.00418628
0.00273057
0.00169108
0.00108805
0.000806143
0.00067926
0.000546515
0.000407429
0.000223755
9.5922e-05
-0.334202
-0.345026
-0.359703
-0.372092
-0.380943
-0.377442
-0.357825
-0.316237
-0.253325
-0.177498
-0.107604
-0.0538971
-0.0194893
-0.000112983
0.00895993
0.0118775
0.0114373
0.00961749
0.0075204
0.0055825
0.00390798
0.00254866
0.00157278
0.00100672
0.000745354
0.000632623
0.000513272
0.000386051
0.000212915
9.0653e-05
-0.328858
-0.339034
-0.352993
-0.365112
-0.374013
-0.371407
-0.353421
-0.314476
-0.254948
-0.182405
-0.114063
-0.0603191
-0.0248693
-0.00423291
0.00599564
0.00982384
0.0100522
0.00868604
0.00688994
0.00515333
0.00361906
0.0023592
0.00144969
0.000922782
0.000683256
0.000585228
0.000479485
0.000364218
0.000201819
8.54093e-05
-0.323299
-0.332553
-0.345784
-0.357592
-0.366131
-0.364391
-0.348168
-0.312062
-0.256122
-0.186921
-0.120288
-0.0666133
-0.0301956
-0.00834525
0.00300011
0.00773051
0.00864377
0.0077365
0.00624537
0.00471347
0.00332187
0.00216342
0.00132222
0.000836281
0.000619846
0.000537068
0.00044514
0.000341923
0.000190464
8.02481e-05
-0.317677
-0.325736
-0.33826
-0.349952
-0.3589
-0.357888
-0.343127
-0.309535
-0.2568
-0.190901
-0.126113
-0.0726958
-0.0354834
-0.0125124
-7.85404e-05
0.00553834
0.00717255
0.0067567
0.00558332
0.00426136
0.00301521
0.00196049
0.00118998
0.000747114
0.000555091
0.000488121
0.000410166
0.000319086
0.00017879
7.51826e-05
-0.312161
-0.318428
-0.329652
-0.340795
-0.349102
-0.349135
-0.336589
-0.306434
-0.257902
-0.195629
-0.132793
-0.0795547
-0.0412754
-0.016927
-0.00322735
0.00335784
0.00563874
0.00571225
0.00487563
0.00377837
0.00268786
0.00174492
0.00105108
0.000654603
0.000488919
0.000438931
0.000375437
0.000296416
0.000167176
7.03596e-05
-0.306411
-0.313101
-0.323862
-0.33507
-0.343772
-0.343409
-0.331021
-0.30174
-0.254754
-0.194676
-0.133736
-0.0817252
-0.0438842
-0.0194438
-0.00537345
0.00169835
0.00444382
0.00486088
0.00427501
0.00336556
0.0024105
0.00155798
0.000922169
0.000563872
0.000424343
0.000393024
0.000345061
0.000277288
0.000157631
6.64214e-05
-0.300101
-0.307101
-0.317274
-0.327729
-0.334981
-0.334357
-0.321932
-0.293592
-0.248737
-0.191654
-0.133506
-0.0833983
-0.0463748
-0.022014
-0.00762434
-0.000102514
0.00308545
0.00387481
0.00357528
0.00287554
0.00207357
0.00133362
0.00077735
0.000469516
0.000359646
0.000346555
0.000312963
0.000256313
0.000147056
6.19192e-05
-0.29347
-0.300575
-0.310117
-0.31996
-0.326578
-0.325275
-0.312822
-0.285484
-0.242761
-0.188619
-0.133196
-0.0849789
-0.0488187
-0.0245901
-0.00992474
-0.00197684
0.00164899
0.00282089
0.00282096
0.00234304
0.00170481
0.00108686
0.000618072
0.000366666
0.000289807
0.000296402
0.000277993
0.000233285
0.000135357
5.69683e-05
-0.286481
-0.293663
-0.30261
-0.311883
-0.317774
-0.316003
-0.303628
-0.277357
-0.236778
-0.185544
-0.132823
-0.0865011
-0.0512315
-0.0271659
-0.0122505
-0.00388761
0.000175955
0.00173405
0.00203926
0.00178955
0.00132065
0.000828635
0.000450094
0.000257471
0.000215681
0.000243474
0.000241296
0.000209199
0.000123093
5.18343e-05
-0.279063
-0.286437
-0.294834
-0.303518
-0.308717
-0.306558
-0.294334
-0.269175
-0.230748
-0.182392
-0.132355
-0.0879413
-0.0536003
-0.0297361
-0.0145986
-0.00583418
-0.00133577
0.000611456
0.0012278
0.00121301
0.000919299
0.000557772
0.000272943
0.000141829
0.000137256
0.000187784
0.000202876
0.000184038
0.00011025
4.65065e-05
-0.271287
-0.278953
-0.286843
-0.294937
-0.299522
-0.297031
-0.28502
-0.261004
-0.224712
-0.17918
-0.131793
-0.0892895
-0.0559127
-0.0322904
-0.0169625
-0.00781426
-0.00288705
-0.000548975
0.000384235
0.000611142
0.000498831
0.000272874
8.5777e-05
1.92874e-05
5.42637e-05
0.000129127
0.000162553
0.000157665
9.67501e-05
4.09596e-05
-0.263244
-0.271256
-0.278691
-0.286212
-0.290254
-0.287501
-0.27576
-0.252901
-0.218711
-0.175929
-0.13114
-0.0905391
-0.0581581
-0.0348181
-0.0193337
-0.0098222
-0.00447462
-0.00174565
-0.000490874
-1.59833e-05
5.91221e-05
-2.62608e-05
-0.000111655
-0.000110401
-3.34925e-05
6.73719e-05
0.000120247
0.00013004
8.25672e-05
3.51969e-05
-0.254995
-0.263379
-0.270421
-0.277397
-0.280965
-0.278023
-0.266607
-0.24491
-0.212771
-0.172652
-0.130398
-0.0916844
-0.0603267
-0.0373089
-0.0217034
-0.0118516
-0.00609428
-0.00297614
-0.00139627
-0.000667742
-0.000399532
-0.000339553
-0.000319426
-0.00024738
-0.000126143
2.44125e-06
7.59245e-05
0.000101156
6.76962e-05
2.92286e-05
-0.246596
-0.255359
-0.26207
-0.268536
-0.271698
-0.268639
-0.257599
-0.237059
-0.206912
-0.169359
-0.129569
-0.0927203
-0.0624096
-0.0397529
-0.0240631
-0.0138959
-0.00774168
-0.00423788
-0.00233057
-0.00134345
-0.000876825
-0.00066691
-0.000537578
-0.000391753
-0.000223787
-6.57223e-05
2.95623e-05
7.10082e-05
5.21315e-05
2.3064e-05
-0.238105
-0.247229
-0.253672
-0.259669
-0.262489
-0.259383
-0.248763
-0.22937
-0.20115
-0.16606
-0.128656
-0.0936432
-0.0643987
-0.0421406
-0.0264037
-0.0159483
-0.00941207
-0.00552793
-0.00329213
-0.00204225
-0.00137233
-0.00100816
-0.000766084
-0.000543568
-0.000326484
-0.000137157
-1.88569e-05
3.95966e-05
3.58691e-05
1.67127e-05
-0.22958
-0.239029
-0.245264
-0.250837
-0.253372
-0.250281
-0.240123
-0.221863
-0.195497
-0.162764
-0.127662
-0.0944506
-0.0662866
-0.0444628
-0.0287164
-0.0180013
-0.0111002
-0.00684291
-0.0042789
-0.00276296
-0.0018854
-0.00136297
-0.00100481
-0.000702802
-0.00043425
-0.000211872
-6.93326e-05
6.9308e-06
1.89108e-05
1.01857e-05
-0.221075
-0.230797
-0.236879
-0.242076
-0.244376
-0.241356
-0.231696
-0.214551
-0.189966
-0.159481
-0.126592
-0.095141
-0.068067
-0.0467107
-0.0309923
-0.0200475
-0.0128005
-0.00817887
-0.00528839
-0.00350408
-0.00241516
-0.00173084
-0.00125351
-0.000869342
-0.000547037
-0.000289838
-0.000121842
-2.69657e-05
1.26543e-06
3.4961e-06
-0.212645
-0.222577
-0.228554
-0.233423
-0.235533
-0.232633
-0.223501
-0.207447
-0.184567
-0.156218
-0.12545
-0.0957143
-0.0697344
-0.0488762
-0.0332221
-0.0220787
-0.0145064
-0.00953137
-0.00631763
-0.00426373
-0.00296044
-0.00211109
-0.00151178
-0.00104297
-0.000664728
-0.000370979
-0.000176333
-6.20527e-05
-1.7049e-05
-3.34072e-06
-0.204343
-0.21441
-0.220322
-0.224914
-0.226872
-0.224131
-0.215551
-0.200564
-0.179309
-0.152985
-0.124243
-0.0961715
-0.0712843
-0.0509514
-0.0353971
-0.0240865
-0.0162113
-0.0108953
-0.00736311
-0.00503958
-0.00351977
-0.00250279
-0.00177906
-0.00122336
-0.000787124
-0.000455168
-0.000232721
-9.82697e-05
-3.60039e-05
-1.03067e-05
-0.196214
-0.206341
-0.212219
-0.216583
-0.218423
-0.215872
-0.207861
-0.193912
-0.174201
-0.149792
-0.122978
-0.096515
-0.0727133
-0.0529294
-0.0375081
-0.0260621
-0.0179077
-0.012265
-0.00842074
-0.00582886
-0.0040913
-0.00290473
-0.00205457
-0.00141001
-0.000913925
-0.000542209
-0.000290883
-0.000135532
-5.55569e-05
-1.73804e-05
-0.188303
-0.198412
-0.20428
-0.208465
-0.210215
-0.207878
-0.200444
-0.187503
-0.169256
-0.146648
-0.121663
-0.0967482
-0.0740193
-0.0548037
-0.0395465
-0.0279965
-0.0195876
-0.0136341
-0.00948579
-0.00662822
-0.00467275
-0.0033154
-0.00233734
-0.0016023
-0.00104472
-0.000631834
-0.000350644
-0.000173726
-7.56502e-05
-2.45361e-05
-0.180651
-0.190669
-0.196541
-0.200591
-0.20228
-0.20017
-0.193316
-0.181347
-0.164482
-0.143566
-0.120308
-0.0968764
-0.0752012
-0.0565686
-0.0415037
-0.0298804
-0.0212424
-0.0149955
-0.0105529
-0.00743375
-0.0052614
-0.00373294
-0.00262609
-0.00179937
-0.00117896
-0.000723686
-0.000411776
-0.000212703
-9.62063e-05
-3.17435e-05
-0.173294
-0.183158
-0.189042
-0.192996
-0.194648
-0.192775
-0.186493
-0.175458
-0.159893
-0.140557
-0.118924
-0.096906
-0.0762594
-0.0582191
-0.0433714
-0.031704
-0.022863
-0.0163413
-0.0116158
-0.00824089
-0.00585399
-0.00415508
-0.00291928
-0.0020002
-0.00131595
-0.000817305
-0.000473983
-0.000252275
-0.000117126
-3.89666e-05
-0.16627
-0.175923
-0.18182
-0.185713
-0.187351
-0.185716
-0.179992
-0.169848
-0.155501
-0.137636
-0.117523
-0.0968452
-0.0771955
-0.0597511
-0.045142
-0.0334578
-0.0244397
-0.0176632
-0.0126677
-0.00904439
-0.00644668
-0.00457909
-0.00321502
-0.00220347
-0.00145482
-0.000912118
-0.000536897
-0.000292208
-0.000138285
-4.61631e-05
-0.159614
-0.16901
-0.174916
-0.178774
-0.180421
-0.179022
-0.173834
-0.164533
-0.151322
-0.134818
-0.11612
-0.0967034
-0.0780127
-0.0611614
-0.0468079
-0.0351319
-0.0259621
-0.0189517
-0.0137009
-0.00983823
-0.007035
-0.00500175
-0.00351102
-0.00240761
-0.00159451
-0.00100742
-0.000600059
-0.000332216
-0.000159528
-5.32832e-05
-0.153358
-0.162463
-0.16837
-0.172215
-0.173892
-0.172721
-0.168039
-0.15953
-0.147372
-0.13212
-0.114729
-0.096492
-0.0787154
-0.0624475
-0.0483622
-0.0367163
-0.0274194
-0.0201968
-0.0147068
-0.0106156
-0.0076138
-0.0054193
-0.00380461
-0.00261074
-0.00173374
-0.00110235
-0.000662917
-0.000371953
-0.000180669
-6.02694e-05
-0.147534
-0.156325
-0.162223
-0.166071
-0.167796
-0.166844
-0.162632
-0.154859
-0.143668
-0.12956
-0.113367
-0.0962236
-0.0793094
-0.0636081
-0.0497984
-0.038201
-0.0288003
-0.0213875
-0.0156758
-0.0113687
-0.00817717
-0.00582737
-0.00409262
-0.00281064
-0.00187097
-0.00119589
-0.000724806
-0.000411005
-0.000201482
-6.70546e-05
-0.142176
-0.150639
-0.156516
-0.160381
-0.162167
-0.161423
-0.157642
-0.150541
-0.140232
-0.127159
-0.112054
-0.0959123
-0.0798018
-0.0646426