/*--------------------------------*- C++ -*----------------------------------*\
  =========                 |
  \\      /  F ield         | OpenFOAM: The Open Source CFD Toolbox
   \\    /   O peration     | Website:  https://openfoam.org
    \\  /    A nd           | Version:  7
     \\/     M anipulation  |
\*---------------------------------------------------------------------------*/
FoamFile
{
    version     2.0;
    format      ascii;
    class       volScalarField;
    location    "2.1";
    object      T;
}
// * * * * * * * * * * * * * * * * * * * * * * * * * * * * * * * * * * * * * //

dimensions      [0 0 0 1 0 0 0];

internalField   nonuniform List<scalar> 
64512
(
1
1
1
1
1
1
1
1
1
1
1
1
1
1
1
1
1
1
1
1
1
1
1
1
1
1
1
1
1
1
1
1
1
1
1
1
1
1
1
1
1
1
1
1
1
1
1
1
1
1.11871
2.36633
2.6898
2.70127
2.70978
2.71471
2.71827
2.7211
2.72316
2.72428
2.72488
2.7259
2.72867
2.73452
2.74359
2.75422
2.7638
2.76995
2.77221
2.77242
2.77243
2.77273
2.77413
2.77768
2.78339
2.78944
2.79369
2.7956
2.79627
2.79727
2.79928
2.80204
2.80457
2.8061
2.80685
2.8076
2.80923
2.8118
2.81471
2.81778
2.8206
2.82372
2.82828
2.83538
2.84415
2.85109
2.8542
1
1
1
1
1
1
1
1
1
1
1
1
1
1
1
1
1
1
1
1
1
1
1
1
1
1
1
1
1
1
1
1
1
1
1
1
1
1
1
1
1
1
1
1
1
1
1
1
1
1.11573
2.3639
2.68989
2.70236
2.70973
2.71453
2.71826
2.72124
2.72335
2.72445
2.72498
2.72593
2.72864
2.7345
2.74361
2.75424
2.76375
2.76982
2.77198
2.77213
2.77215
2.77252
2.77404
2.77766
2.78334
2.78929
2.79344
2.79534
2.79607
2.79715
2.7992
2.80194
2.80441
2.80589
2.80662
2.80737
2.80902
2.81159
2.81449
2.81755
2.82038
2.82356
2.82819
2.83529
2.84401
2.85082
2.85381
1
1
1
1
1
1
1
1
1
1
1
1
1
1
1
1
1
1
1
1
1
1
1
1
1
1
1
1
1
1
1
1
1
1
1
1
1
1
1
1
1
1
1
1
1
1
1
1
1
1.10891
2.35884
2.69035
2.70288
2.70908
2.71406
2.71815
2.72143
2.7237
2.72479
2.72517
2.72593
2.72851
2.73437
2.74357
2.75425
2.7637
2.76967
2.77168
2.77174
2.77174
2.77218
2.77387
2.7776
2.78327
2.78909
2.79309
2.79495
2.79572
2.79687
2.79898
2.80171
2.80413
2.80557
2.80628
2.80703
2.80872
2.81132
2.8142
2.81721
2.82003
2.82327
2.82799
2.83514
2.8438
2.85048
2.85331
1
1
1
1
1
1
1
1
1
1
1
1
1
1
1
1
1
1
1
1
1
1
1
1
1
1
1
1
1
1
1
1
1
1
1
1
1
1
1
1
1
1
1
1
1
1
1
1
1
1.09599
2.34845
2.68912
2.70149
2.70827
2.71381
2.71829
2.72182
2.7242
2.72525
2.72548
2.72604
2.72842
2.73419
2.74341
2.75409
2.76347
2.76938
2.77131
2.77131
2.7713
2.77181
2.77363
2.77744
2.78306
2.78872
2.79257
2.7944
2.79522
2.79644
2.79859
2.8013
2.80366
2.80505
2.80576
2.80656
2.80829
2.81091
2.81378
2.81673
2.81953
2.82283
2.82765
2.83487
2.84346
2.85001
2.85266
1
1
1
1
1
1
1
1
1
1
1
1
1
1
1
1
1
1
1
1
1
1
1
1
1
1
1
1
1
1
1
1
1
1
1
1
1
1
1
1
1
1
1
1
1
1
1
1
1
1.06018
2.32907
2.68852
2.70054
2.70827
2.71393
2.71843
2.72194
2.72426
2.72523
2.72537
2.72589
2.72827
2.73404
2.74319
2.75375
2.76299
2.76895
2.77093
2.77093
2.7709
2.77142
2.77328
2.77709
2.78262
2.78814
2.79187
2.7937
2.79458
2.79585
2.79801
2.80068
2.80298
2.80435
2.80509
2.80599
2.80779
2.81041
2.81327
2.81614
2.8189
2.82225
2.82716
2.83444
2.84299
2.84942
2.85192
1
1
1
1
1
1
1
1
1
1
1
1
1
1
1
1
1
1
1
1
1
1
1
1
1
1
1
1
1
1
1
1
1
1
1
1
1
1
1
1
1
1
1
1
1
1
1
1
1
1.0069
2.29981
2.68865
2.70015
2.70874
2.71445
2.7188
2.72217
2.72441
2.72532
2.72548
2.72603
2.72842
2.73401
2.7428
2.75298
2.76203
2.76818
2.77046
2.77058
2.77057
2.77105
2.77283
2.7765
2.78189
2.78729
2.791
2.79289
2.79385
2.79514
2.79725
2.79984
2.80207
2.80345
2.80426
2.80528
2.80714
2.80975
2.81258
2.81537
2.8181
2.82149
2.82647
2.83382
2.84238
2.84876
2.85117
1
1
1
1
1
1
1
1
1
1
1
1
1
1
1
1
1
1
1
1
1
1
1
1
1
1
1
1
1
1
1
1
1
1
1
1
1
1
1
1
1
1
1
1
1
1
1
1
1
1.00005
2.26394
2.68538
2.70008
2.70893
2.71487
2.71934
2.72263
2.72463
2.72532
2.72546
2.72616
2.72865
2.73395
2.74214
2.75173
2.76054
2.76699
2.76981
2.77026
2.77029
2.77068
2.77227
2.77569
2.78085
2.78615
2.78993
2.79195
2.79301
2.79429
2.79628
2.79872
2.80089
2.80231
2.80323
2.80437
2.80631
2.8089
2.81171
2.81445
2.81715
2.82057
2.8256
2.83298
2.84158
2.84799
2.85039
1
1
1
1
1
1
1
1
1
1
1
1
1
1
1
1
1
1
1
1
1
1
1
1
1
1
1
1
1
1
1
1
1
1
1
1
1
1
1
1
1
1
1
1
1
1
1
1
1
1
2.22167
2.68288
2.70078
2.70909
2.71508
2.71957
2.72275
2.72463
2.72534
2.72571
2.72667
2.72915
2.7339
2.74118
2.74994
2.75845
2.76526
2.76886
2.76986
2.77
2.7703
2.77162
2.77469
2.77954
2.78471
2.78861
2.79081
2.79201
2.79326
2.79512
2.7974
2.7995
2.80098
2.80203
2.80329
2.80529
2.80787
2.81065
2.81337
2.81607
2.81949
2.82451
2.83192
2.84057
2.84706
2.84952
1
1
1
1
1
1
1
1
1
1
1
1
1
1
1
1
1
1
1
1
1
1
1
1
1
1
1
1
1
1
1
1
1
1
1
1
1
1
1
1
1
1
1
1
1
1
1
1
1
1
2.17225
2.67906
2.70045
2.70838
2.71458
2.7193
2.72268
2.72471
2.72575
2.72648
2.72761
2.72979
2.73373
2.7399
2.74773
2.75588
2.76305
2.76754
2.76929
2.76967
2.76989
2.77094
2.77357
2.77799
2.78298
2.78701
2.78945
2.79082
2.79207
2.79379
2.79591
2.79794
2.79948
2.80062
2.80196
2.80398
2.80656
2.80934
2.81208
2.81482
2.81822
2.82323
2.83066
2.83939
2.846
2.84856
1
1
1
1
1
1
1
1
1
1
1
1
1
1
1
1
1
1
1
1
1
1
1
1
1
1
1
1
1
1
1
1
1
1
1
1
1
1
1
1
1
1
1
1
1
1
1
1
1
1
2.11538
2.674
2.69866
2.70636
2.71282
2.71804
2.72202
2.72465
2.72638
2.7276
2.7288
2.73052
2.73349
2.73845
2.74527
2.75294
2.76035
2.76572
2.76836
2.76916
2.76936
2.7702
2.77238
2.77629
2.78099
2.78512
2.78783
2.78942
2.79072
2.79234
2.79432
2.79627
2.79781
2.79899
2.80033
2.80238
2.80499
2.80782
2.81062
2.81341
2.81683
2.82181
2.82923
2.83802
2.84474
2.8474
1
1
1
1
1
1
1
1
1
1
1
1
1
1
1
1
1
1
1
1
1
1
1
1
1
1
1
1
1
1
1
1
1
1
1
1
1
1
1
1
1
1
1
1
1
1
1
1
1
1
2.05015
2.66766
2.69526
2.70286
2.70967
2.71558
2.7206
2.7243
2.72682
2.72854
2.72979
2.73111
2.73325
2.7371
2.74286
2.74991
2.75736
2.76346
2.76701
2.7684
2.7687
2.76942
2.77119
2.77453
2.77887
2.783
2.78595
2.78774
2.7891
2.79066
2.79254
2.79442
2.79593
2.79711
2.79844
2.80051
2.80321
2.8061
2.809
2.81186
2.81528
2.82024
2.82764
2.83647
2.84327
2.84599
1
1
1
1
1
1
1
1
1
1
1
1
1
1
1
1
1
1
1
1
1
1
1
1
1
1
1
1
1
1
1
1
1
1
1
1
1
1
1
1
1
1
1
1
1
1
1
1
1
1
1.97475
2.65897
2.6909
2.69839
2.7056
2.71221
2.71832
2.72331
2.72674
2.72889
2.73025
2.73134
2.73289
2.73582
2.74055
2.74681
2.75407
2.76073
2.7652
2.76741
2.76803
2.76871
2.7701
2.77283
2.77666
2.78063
2.7837
2.78569
2.78714
2.78871
2.79056
2.79241
2.79391
2.79508
2.79637
2.79844
2.80121
2.80421
2.8072
2.81013
2.81356
2.81849
2.82587
2.83472
2.84154
2.84428
1
1
1
1
1
1
1
1
1
1
1
1
1
1
1
1
1
1
1
1
1
1
1
1
1
1
1
1
1
1
1
1
1
1
1
1
1
1
1
1
1
1
1
1
1
1
1
1
1
1
1.88724
2.64559
2.68705
2.69407
2.70126
2.70822
2.71508
2.72117
2.7258
2.72868
2.73042
2.73152
2.73275
2.73496
2.73873
2.74409
2.75083
2.75763
2.76277
2.76575
2.76676
2.7675
2.76864
2.77089
2.77424
2.778
2.78117
2.78336
2.78495
2.78657
2.7884
2.79021
2.79168
2.7928
2.79405
2.79611
2.79897
2.80211
2.80522
2.80823
2.81167
2.81658
2.82394
2.83277
2.83957
2.84229
1
1
1
1
1
1
1
1
1
1
1
1
1
1
1
1
1
1
1
1
1
1
1
1
1
1
1
1
1
1
1
1
1
1
1
1
1
1
1
1
1
1
1
1
1
1
1
1
1
1
1.78709
2.62564
2.68539
2.69101
2.69756
2.70414
2.71103
2.71762
2.72302
2.72687
2.72937
2.73085
2.73205
2.73386
2.73693
2.74145
2.74752
2.75419
2.75978
2.76352
2.76507
2.76601
2.76705
2.76892
2.7718
2.77528
2.77846
2.78081
2.7825
2.78411
2.78588
2.78765
2.78911
2.79025
2.79154
2.79364
2.79658
2.79987
2.80308
2.80614
2.80958
2.81446
2.82178
2.83056
2.83729
2.83995
1
1
1
1
1
1
1
1
1
1
1
1
1
1
1
1
1
1
1
1
1
1
1
1
1
1
1
1
1
1
1
1
1
1
1
1
1
1
1
1
1
1
1
1
1
1
1
1
1
1
1.6748
2.59749
2.68583
2.68921
2.69474
2.70036
2.70654
2.71293
2.71869
2.72342
2.72701
2.72938
2.731
2.73278
2.73542
2.73918
2.74438
2.75056
2.75628
2.76063
2.76285
2.76413
2.76518
2.76678
2.76921
2.77238
2.77551
2.77799
2.77977
2.78136
2.78305
2.78477
2.78627
2.78751
2.78889
2.79106
2.79406
2.79742
2.8007
2.80379
2.80722
2.81205
2.81932
2.82804
2.8347
2.83729
1
1
1
1
1
1
1
1
1
1
1
1
1
1
1
1
1
1
1
1
1
1
1
1
1
1
1
1
1
1
1
1
1
1
1
1
1
1
1
1
1
1
1
1
1
1
1
1
1
1
1.54795
2.55786
2.68618
2.68748
2.69212
2.69662
2.70173
2.70737
2.71312
2.71843
2.72305
2.72663
2.72914
2.73125
2.73373
2.73688
2.7412
2.74668
2.75228
2.75708
2.76002
2.76177
2.76295
2.76437
2.76645
2.7693
2.77236
2.77494
2.7768
2.77834
2.77993
2.7816
2.78318
2.78455
2.78607
2.78835
2.79139
2.79476
2.79807
2.80118
2.80457
2.80934
2.81654
2.8252
2.83177
2.8343
1
1
1
1
1
1
1
1
1
1
1
1
1
1
1
1
1
1
1
1
1
1
1
1
1
1
1
1
1
1
1
1
1
1
1
1
1
1
1
1
1
1
1
1
1
1
1
1
1
1
1.40573
2.50498
2.68498
2.68508
2.68935
2.69282
2.69692
2.70171
2.7071
2.71259
2.7179
2.7226
2.72622
2.72898
2.7316
2.73439
2.73793
2.74263
2.74792
2.75295
2.75657
2.75888
2.76029
2.76164
2.76345
2.76602
2.76898
2.77162
2.77354
2.77504
2.77653
2.77816
2.77983
2.78137
2.78306
2.78545
2.78852
2.79185
2.79514
2.79824
2.80159
2.80627
2.81338
2.82198
2.82849
2.83098
1
1
1
1
1
1
1
1
1
1
1
1
1
1
1
1
1
1
1
1
1
1
1
1
1
1
1
1
1
1
1
1
1
1
1
1
1
1
1
1
1
1
1
1
1
1
1
1
1
1
1.25846
2.44089
2.68283
2.68247
2.68661
2.68963
2.6932
2.69728
2.70195
2.707
2.71237
2.71774
2.72236
2.72593
2.72891
2.73158
2.73453
2.73848
2.7433
2.74835
2.75247
2.75534
2.75709
2.7585
2.76016
2.76251
2.76533
2.76799
2.76997
2.77148
2.77292
2.77453
2.77629
2.77801
2.77987
2.78235
2.78541
2.78866
2.79191
2.79497
2.79825
2.80282
2.80981
2.81832
2.82479
2.82725
1
1
1
1
1
1
1
1
1
1
1
1
1
1
1
1
1
1
1
1
1
1
1
1
1
1
1
1
1
1
1
1
1
1
1
1
1
1
1
1
1
1
1
1
1
1
1
1
1
1
1.1146
2.37014
2.68174
2.68315
2.68671
2.68984
2.69319
2.6963
2.69954
2.70324
2.70765
2.71281
2.71791
2.72218
2.72564
2.72842
2.73105
2.73443
2.73872
2.74354
2.74791
2.75124
2.75339
2.75497
2.75661
2.75881
2.76147
2.76408
2.7661
2.76764
2.76908
2.77069
2.77252
2.77438
2.77638
2.77894
2.78197
2.78512
2.78829
2.79128
2.79448
2.79893
2.80577
2.81422
2.82067
2.82314
1
1
1
1
1
1
1
1
1
1
1
1
1
1
1
1
1
1
1
1
1
1
1
1
1
1
1
1
1
1
1
1
1
1
1
1
1
1
1
1
1
1
1
1
1
1
1
1
1
1
1.00522
2.29348
2.68471
2.68435
2.68644
2.68933
2.69233
2.695
2.6977
2.70076
2.70446
2.70911
2.71412
2.71855
2.72229
2.72525
2.7278
2.7308
2.73456
2.73891
2.74318
2.74672
2.74923
2.75107
2.75279
2.75489
2.75738
2.7599
2.76196
2.76357
2.76506
2.76667
2.76852
2.77048
2.77261
2.77522
2.77821
2.78123
2.78427
2.78713
2.7902
2.79448
2.80116
2.80953
2.81601
2.81851
1
1
1
1
1
1
1
1
1
1
1
1
1
1
1
1
1
1
1
1
1
1
1
1
1
1
1
1
1
1
1
1
1
1
1
1
1
1
1
1
1
1
1
1
1
1
1
1
1
1
1.00003
2.19739
2.68266
2.68495
2.68794
2.69116
2.69377
2.696
2.69828
2.70096
2.70412
2.70784
2.71202
2.71595
2.71953
2.7225
2.72505
2.72782
2.73111
2.73486
2.73872
2.74215
2.74485
2.74691
2.74874
2.75078
2.75311
2.75553
2.75761
2.75931
2.76085
2.76244
2.76426
2.76625
2.76846
2.77113
2.77406
2.77691
2.77976
2.78243
2.78532
2.78943
2.79594
2.80428
2.81084
2.81341
1
1
1
1
1
1
1
1
1
1
1
1
1
1
1
1
1
1
1
1
1
1
1
1
1
1
1
1
1
1
1
1
1
1
1
1
1
1
1
1
1
1
1
1
1
1
1
1
1
1
1
2.06777
2.66827
2.68502
2.68795
2.69092
2.69335
2.69566
2.69811
2.70086
2.70393
2.70734
2.71106
2.71452
2.71774
2.72053
2.72299
2.72551
2.72832
2.7314
2.73467
2.73776
2.74048
2.74268
2.74458
2.74654
2.74871
2.751
2.7531
2.75489
2.7565
2.75805
2.75976
2.76169
2.76392
2.76663
2.76949
2.77215
2.77477
2.7772
2.77984
2.7837
2.79
2.79827
2.80492
2.80755
1
1
1
1
1
1
1
1
1
1
1
1
1
1
1
1
1
1
1
1
1
1
1
1
1
1
1
1
1
1
1
1
1
1
1
1
1
1
1
1
1
1
1
1
1
1
1
1
1
1
1
1.90885
2.63632
2.68165
2.68624
2.68959
2.6923
2.6948
2.69748
2.70029
2.70327
2.70642
2.70982
2.71303
2.71602
2.71873
2.72122
2.72363
2.72616
2.72877
2.73144
2.73398
2.7364
2.73851
2.74037
2.74222
2.74422
2.74638
2.74846
2.75032
2.75197
2.75346
2.75501
2.7568
2.75896
2.76161
2.76434
2.76683
2.76917
2.77127
2.77358
2.77716
2.78327
2.79151
2.79828
2.80098
1
1
1
1
1
1
1
1
1
1
1
1
1
1
1
1
1
1
1
1
1
1
1
1
1
1
1
1
1
1
1
1
1
1
1
1
1
1
1
1
1
1
1
1
1
1
1
1
1
1
1
1.73458
2.58589
2.67273
2.67831
2.68259
2.6863
2.69039
2.69449
2.69833
2.70196
2.7052
2.70839
2.71137
2.71419
2.71688
2.71939
2.72172
2.72405
2.72635
2.72859
2.73064
2.73272
2.7346
2.73628
2.7379
2.73969
2.74168
2.74369
2.74557
2.74722
2.74863
2.75
2.75158
2.75358
2.75606
2.75857
2.7609
2.76296
2.76472
2.76666
2.76987
2.77567
2.78374
2.79051
2.7932
1
1
1
1
1
1
1
1
1
1
1
1
1
1
1
1
1
1
1
1
1
1
1
1
1
1
1
1
1
1
1
1
1
1
1
1
1
1
1
1
1
1
1
1
1
1
1
1
1
1
1
1.51415
2.50273
2.65962
2.66533
2.67237
2.67738
2.68255
2.68763
2.69274
2.69753
2.70165
2.70534
2.70861
2.71164
2.71457
2.71726
2.71962
2.72187
2.72402
2.72597
2.72764
2.72929
2.7309
2.73236
2.73373
2.73524
2.73695
2.7388
2.74059
2.74219
2.74349
2.74468
2.74598
2.74768
2.74985
2.75208
2.75418
2.7559
2.75723
2.75871
2.76148
2.76694
2.77484
2.78164
2.78437
1
1
1
1
1
1
1
1
1
1
1
1
1
1
1
1
1
1
1
1
1
1
1
1
1
1
1
1
1
1
1
1
1
1
1
1
1
1
1
1
1
1
1
1
1
1
1
1
1
1
1
1.24191
2.4084
2.65542
2.65139
2.65783
2.66458
2.67148
2.67827
2.68469
2.6903
2.6953
2.69974
2.70371
2.70741
2.71099
2.71424
2.71695
2.71931
2.72144
2.72328
2.72478
2.72618
2.72751
2.72869
2.72974
2.7309
2.7323
2.73387
2.73545
2.73689
2.73808
2.73905
2.73994
2.74122
2.74296
2.74486
2.74662
2.74797
2.74893
2.74999
2.75222
2.75708
2.76448
2.77102
2.77354
1
1
1
1
1
1
1
1
1
1
1
1
1
1
1
1
1
1
1
1
1
1
1
1
1
1
1
1
1
1
1
1
1
1
1
1
1
1
1
1
1
1
1
1
1
1
1
1
1
1
1
1.01851
2.32856
2.65769
2.65112
2.6553
2.65957
2.66437
2.66977
2.67583
2.68167
2.68696
2.69186
2.69659
2.70122
2.70567
2.70971
2.71301
2.71573
2.71804
2.72
2.72159
2.72292
2.72411
2.72512
2.72594
2.72677
2.7278
2.72902
2.73028
2.73148
2.73245
2.73304
2.73348
2.73423
2.73542
2.73685
2.73814
2.73901
2.73944
2.73986
2.74124
2.74524
2.75212
2.7585
2.76106
1
1
1
1
1
1
1
1
1
1
1
1
1
1
1
1
1
1
1
1
1
1
1
1
1
1
1
1
1
1
1
1
1
1
1
1
1
1
1
1
1
1
1
1
1
1
1
1
1
1
1
1.00009
2.2122
2.65396
2.65333
2.65578
2.6588
2.66229
2.66623
2.67012
2.67403
2.67834
2.68312
2.68821
2.69347
2.69865
2.70347
2.70748
2.71075
2.71341
2.71567
2.71759
2.71912
2.72035
2.72134
2.72202
2.72261
2.72333
2.7242
2.72511
2.72598
2.72656
2.72662
2.7266
2.72675
2.72724
2.72801
2.72863
2.72886
2.72869
2.72849
2.72907
2.73194
2.73757
2.74295
2.74467
1
1
1
1
1
1
1
1
1
1
1
1
1
1
1
1
1
1
1
1
1
1
1
1
1
1
1
1
1
1
1
1
1
1
1
1
1
1
1
1
1
1
1
1
1
1
1
1
1
1
1
1
2.05413
2.65322
2.65774
2.66
2.66208
2.66381
2.6658
2.66772
2.6699
2.67261
2.67599
2.6802
2.68531
2.69072
2.69592
2.70043
2.7042
2.70731
2.71003
2.71247
2.71439
2.71586
2.717
2.71769
2.71817
2.71867
2.71929
2.71987
2.72025
2.72033
2.71998
2.71938
2.71878
2.71847
2.71838
2.71815
2.71757
2.71649
2.71507
2.71415
2.71502
2.71875
2.72309
2.72499
1
1
1
1
1
1
1
1
1
1
1
1
1
1
1
1
1
1
1
1
1
1
1
1
1
1
1
1
1
1
1
1
1
1
1
1
1
1
1
1
1
1
1
1
1
1
1
1
1
1
1
1
1.84888
2.60951
2.66003
2.66175
2.66431
2.66642
2.6675
2.66836
2.66927
2.67023
2.67187
2.67462
2.67848
2.6831
2.68798
2.69253
2.6965
2.69998
2.70316
2.70605
2.7085
2.71042
2.71177
2.71265
2.71318
2.71365
2.71403
2.71427
2.7142
2.71382
2.71298
2.71173
2.71031
2.70906
2.70796
2.70668
2.70497
2.70255
2.69945
2.69674
2.69568
2.69681
2.69759
2.69518
1
1
1
1
1
1
1
1
1
1
1
1
1
1
1
1
1
1
1
1
1
1
1
1
1
1
1
1
1
1
1
1
1
1
1
1
1
1
1
1
1
1
1
1
1
1
1
1
1
1
1
1
1.56889
2.50375
2.6508
2.65495
2.65916
2.6631
2.66624
2.6683
2.66943
2.67009
2.6707
2.67182
2.67396
2.67726
2.68109
2.68498
2.68861
2.69208
2.69548
2.69853
2.7014
2.70378
2.70551
2.70664
2.70737
2.70787
2.70816
2.70818
2.70782
2.70699
2.70562
2.7037
2.70142
2.69911
2.69684
2.6943
2.69114
2.68704
2.68182
2.67597
2.67002
2.66428
2.65868
2.65257
1
1
1
1
1
1
1
1
1
1
1
1
1
1
1
1
1
1
1
1
1
1
1
1
1
1
1
1
1
1
1
1
1
1
1
1
1
1
1
1
1
1
1
1
1
1
1
1
1
1
1
1
1.22063
2.38189
2.64212
2.63896
2.64476
2.65289
2.66011
2.66518
2.66794
2.6692
2.66976
2.67038
2.67154
2.67348
2.67607
2.67895
2.68178
2.68471
2.68781
2.69061
2.69352
2.69615
2.6982
2.69961
2.70055
2.70119
2.70151
2.70143
2.70088
2.6997
2.69778
2.69518
2.69201
2.68858
2.68501
2.68102
2.67612
2.66981
2.6615
2.65108
2.6392
2.62654
2.61499
2.61081
1
1
1
1
1
1
1
1
1
1
1
1
1
1
1
1
1
1
1
1
1
1
1
1
1
1
1
1
1
1
1
1
1
1
1
1
1
1
1
1
1
1
1
1
1
1
1
1
1
1
1
1
1.01302
2.28537
2.63211
2.62914
2.63436
2.64158
2.65015
2.65786
2.66313
2.66608
2.66748
2.66832
2.66927
2.67071
2.67262
2.67469
2.67666
2.67869
2.68098
2.68314
2.68555
2.68796
2.69004
2.69158
2.69268
2.69347
2.69388
2.69381
2.69321
2.69181
2.68945
2.68619
2.68216
2.67758
2.67262
2.66697
2.66003
2.65109
2.63927
2.62383
2.60309
2.57206
2.51191
2.3749
1
1
1
1
1
1
1
1
1
1
1
1
1
1
1
1
1
1
1
1
1
1
1
1
1
1
1
1
1
1
1
1
1
1
1
1
1
1
1
1
1
1
1
1
1
1
1
1
1
1
1
1
1.00003
2.12549
2.62168
2.6294
2.63348
2.63738
2.64277
2.64952
2.65558
2.65994
2.66269
2.66444
2.66587
2.66747
2.66935
2.67125
2.67284
2.67413
2.67549
2.67687
2.6783
2.67997
2.68163
2.68299
2.68401
2.68481
2.68528
2.68524
2.68466
2.68316
2.68049
2.67667
2.67183
2.66614
2.65971
2.65227
2.64311
2.63125
2.61539
2.59334
2.56137
2.51018
2.43325
2.22302
1
1
1
1
1
1
1
1
1
1
1
1
1
1
1
1
1
1
1
1
1
1
1
1
1
1
1
1
1
1
1
1
1
1
1
1
1
1
1
1
1
1
1
1
1
1
1
1
1
1
1
1
1
1.90729
2.59908
2.63399
2.63478
2.63743
2.64045
2.64381
2.64811
2.65232
2.65572
2.65834
2.66057
2.66282
2.66521
2.66746
2.66921
2.67031
2.67108
2.67168
2.67208
2.6727
2.67352
2.67429
2.67493
2.67546
2.67581
2.67576
2.67519
2.67366
2.6708
2.66655
2.66102
2.6543
2.64642
2.63713
2.62566
2.61084
2.5908
2.56319
2.52186
2.46668
2.34746
2.14085
1
1
1
1
1
1
1
1
1
1
1
1
1
1
1
1
1
1
1
1
1
1
1
1
1
1
1
1
1
1
1
1
1
1
1
1
1
1
1
1
1
1
1
1
1
1
1
1
1
1
1
1
1
1.59035
2.50105
2.63103
2.63197
2.63494
2.63749
2.64021
2.64308
2.64595
2.6487
2.65127
2.65386
2.65665
2.65968
2.66257
2.66495
2.66645
2.66709
2.66712
2.66684
2.66649
2.66627
2.66615
2.66606
2.66598
2.6659
2.66565
2.66491
2.66328
2.6603
2.65578
2.6497
2.64209
2.63288
2.62182
2.60806
2.59053
2.56682
2.53491
2.48816
2.41944
2.29356
2.10851
1
1
1
1
1
1
1
1
1
1
1
1
1
1
1
1
1
1
1
1
1
1
1
1
1
1
1
1
1
1
1
1
1
1
1
1
1
1
1
1
1
1
1
1
1
1
1
1
1
1
1
1
1
1.19729
2.37068
2.62834
2.62387
2.62666
2.63154
2.63569
2.63847
2.64055
2.64238
2.64434
2.64668
2.64947
2.65278
2.6562
2.65933
2.66156
2.66258
2.66247
2.66189
2.66093
2.6598
2.65871
2.65775
2.65686
2.65606
2.65527
2.65412
2.65221
2.64905
2.6443
2.6378
2.62947
2.61912
2.6065
2.59069
2.57071
2.54418
2.50836
2.45878
2.38352
2.26765
2.1184
1
1
1
1
1
1
1
1
1
1
1
1
1
1
1
1
1
1
1
1
1
1
1
1
1
1
1
1
1
1
1
1
1
1
1
1
1
1
1
1
1
1
1
1
1
1
1
1
1
1
1
1
1
1.00992
2.25364
2.61181
2.61158
2.61702
2.62326
2.62904
2.63283
2.63519
2.63674
2.63822
2.64007
2.64238
2.64541
2.64888
2.65238
2.65528
2.657
2.65726
2.65674
2.65555
2.65388
2.65205
2.65028
2.64854
2.64683
2.64515
2.64325
2.64076
2.63722
2.6322
2.62534
2.61648
2.60525
2.59136
2.57394
2.55191
2.5233
2.48503
2.43418
2.35937
2.2584
2.13503
1
1
1
1
1
1
1
1
1
1
1
1
1
1
1
1
1
1
1
1
1
1
1
1
1
1
1
1
1
1
1
1
1
1
1
1
1
1
1
1
1
1
1
1
1
1
1
1
1
1
1
1
1
1.00001
2.04988
2.59318
2.61176
2.61559
2.6188
2.62238
2.62624
2.62918
2.63113
2.63266
2.63423
2.63596
2.63837
2.64135
2.64463
2.64777
2.65011
2.65107
2.65078
2.6497
2.64789
2.64565
2.6433
2.64089
2.63832
2.63564
2.63274
2.62939
2.62517
2.61968
2.61243
2.60311
2.59123
2.57639
2.55781
2.53438
2.50446
2.46528
2.41399
2.34457
2.25871
2.15134
1
1
1
1
1
1
1
1
1
1
1
1
1
1
1
1
1
1
1
1
1
1
1
1
1
1
1
1
1
1
1
1
1
1
1
1
1
1
1
1
1
1
1
1
1
1
1
1
1
1
1
1
1
0.999999
1.74932
2.53575
2.61069
2.61153
2.61302
2.61595
2.61942
2.62264
2.62524
2.62731
2.629
2.63041
2.63219
2.63441
2.63696
2.63972
2.64217
2.64372
2.64381
2.64309
2.64144
2.63913
2.63653
2.63374
2.63056
2.62696
2.62295
2.6185
2.61332
2.60711
2.59933
2.58956
2.5772
2.56173
2.54243
2.51823
2.48775
2.44874
2.39856
2.33546
2.26017
2.16726
1
1
1
1
1
1
1
1
1
1
1
1
1
1
1
1
1
1
1
1
1
1
1
1
1
1
1
1
1
1
1
1
1
1
1
1
1
1
1
1
1
1
1
1
1
1
1
1
1
1
1
1
1
1
1.3436
2.41187
2.60476
2.60207
2.60458
2.60887
2.61233
2.61563
2.61881
2.62155
2.6236
2.62511
2.62655
2.62807
2.62974
2.63175
2.63377
2.63547
2.63604
2.63558
2.63423
2.63211
2.62953
2.62663
2.62313
2.6189
2.61393
2.60836
2.60207
2.59493
2.58641
2.57608
2.56327
2.54738
2.52772
2.50326
2.47285
2.435
2.38704
2.32978
2.26317
2.18261
1
1
1
1
1
1
1
1
1
1
1
1
1
1
1
1
1
1
1
1
1
1
1
1
1
1
1
1
1
1
1
1
1
1
1
1
1
1
1
1
1
1
1
1
1
1
1
1
1
1
1
1
1
1
1.03128
2.27565
2.60488
2.59937
2.59959
2.6021
2.60502
2.6083
2.6119
2.61516
2.61774
2.61964
2.62107
2.62218
2.62316
2.62435
2.62565
2.62696
2.62764
2.62733
2.6262
2.62432
2.62193
2.61913
2.61563
2.61114
2.60554
2.59903
2.59168
2.58349
2.57408
2.56306
2.54975
2.53356
2.51377
2.48939
2.45979
2.42307
2.37809
2.32709
2.26675
2.19653
1
1
1
1
1
1
1
1
1
1
1
1
1
1
1
1
1
1
1
1
1
1
1
1
1
1
1
1
1
1
1
1
1
1
1
1
1
1
1
1
1
1
1
1
1
1
1
1
1
1
1
1
1
1
1.00018
2.0672
2.57643
2.58957
2.59417
2.59703
2.59882
2.60146
2.60484
2.60826
2.61114
2.61345
2.61512
2.61617
2.6168
2.61738
2.618
2.61866
2.61903
2.61871
2.61765
2.61594
2.61375
2.61112
2.60777
2.60331
2.59746
2.59034
2.58214
2.57299
2.56268
2.55088
2.53697
2.52043
2.50067
2.4766
2.44807
2.41228
2.37144
2.32582
2.26951
2.20856
1
1
1
1
1
1
1
1
1
1
1
1
1
1
1
1
1
1
1
1
1
1
1
1
1
1
1
1
1
1
1
1
1
1
1
1
1
1
1
1
1
1
1
1
1
1
1
1
1
1
1
1
1
1
0.999999
1.72932
2.51396
2.59077
2.59085
2.59139
2.59324
2.59576
2.59859
2.60163
2.60422
2.60655
2.60844
2.60968
2.61034
2.61066
2.61083
2.61086
2.61071
2.61013
2.60893
2.60717
2.60501
2.60246
2.59925
2.59496
2.5892
2.58191
2.57326
2.56342
2.55233
2.53975
2.52524
2.50833
2.48858
2.46479
2.4372
2.40321
2.36634
2.32392
2.27161
2.21936
1
1
1
1
1
1
1
1
1
1
1
1
1
1
1
1
1
1
1
1
1
1
1
1
1
1
1
1
1
1
1
1
1
1
1
1
1
1
1
1
1
1
1
1
1
1
1
1
1
1
1
1
1
1
1
1.27797
2.38587
2.5868
2.58136
2.58311
2.58688
2.58996
2.5925
2.59515
2.59716
2.59922
2.60111
2.60259
2.60351
2.60383
2.60378
2.60348
2.60286
2.60187
2.60041
2.59847
2.59617
2.5935
2.59027
2.58611
2.58057
2.57342
2.56471
2.55455
2.54295
2.52977
2.5147
2.49746
2.47759
2.45418
2.42766
2.39567
2.36147
2.32112
2.27469
2.22859
1
1
1
1
1
1
1
1
1
1
1
1
1
1
1
1
1
1
1
1
1
1
1
1
1
1
1
1
1
1
1
1
1
1
1
1
1
1
1
1
1
1
1
1
1
1
1
1
1
1
1
1
1
1
1
1.01884
2.24894
2.57387
2.57082
2.57488
2.57961
2.58334
2.58612
2.58867
2.59028
2.59189
2.59351
2.59502
2.59619
2.59668
2.59663
2.59622
2.59535
2.59405
2.59234
2.59018
2.58755
2.58451
2.58099
2.57675
2.57136
2.56451
2.55607
2.54599
2.53425
2.52076
2.50533
2.48784
2.46778
2.44514
2.4193
2.38893
2.357
2.31918
2.27817
2.23513
1
1
1
1
1
1
1
1
1
1
1
1
1
1
1
1
1
1
1
1
1
1
1
1
1
1
1
1
1
1
1
1
1
1
1
1
1
1
1
1
1
1
1
1
1
1
1
1
1
1
1
1
1
1
1
1.00005
1.98629
2.54347
2.56669
2.57143
2.57472
2.57736
2.5798
2.58211
2.58354
2.58482
2.58608
2.5874
2.58864
2.58933
2.58934
2.58897
2.58804
2.58662
2.58476
2.58238
2.5794
2.57589
2.57189
2.56731
2.56185
2.55522
2.54714
2.53737
2.5258
2.51237
2.49693
2.47938
2.4595
2.43735
2.41166
2.38331
2.35369
2.3178
2.28025
2.23945
1
1
1
1
1
1
1
1
1
1
1
1
1
1
1
1
1
1
1
1
1
1
1
1
1
1
1
1
1
1
1
1
1
1
1
1
1
1
1
1
1
1
1
1
1
1
1
1
1
1
1
1
1
1
1
1
1.55491
2.45061
2.56974
2.56879
2.56941
2.57122
2.57339
2.57532
2.57673
2.57786
2.57888
2.57994
2.58107
2.58181
2.58186
2.58154
2.58065
2.5793
2.57744
2.57498
2.57175
2.56779
2.56321
2.55809
2.55231
2.54566
2.53784
2.52846
2.51725
2.50412
2.489
2.47168
2.45244
2.43029
2.40512
2.37916
2.35066
2.31612
2.28161
2.24361
1
1
1
1
1
1
1
1
1
1
1
1
1
1
1
1
1
1
1
1
1
1
1
1
1
1
1
1
1
1
1
1
1
1
1
1
1
1
1
1
1
1
1
1
1
1
1
1
1
1
1
1
1
1
1
1
1.083
2.29892
2.57069
2.5635
2.56321
2.56448
2.56636
2.5681
2.56945
2.57059
2.57159
2.57255
2.57357
2.5743
2.57438
2.57407
2.57326
2.572
2.57021
2.56773
2.56437
2.56011
2.55504
2.54936
2.54309
2.5362
2.5284
2.51929
2.50845
2.49574
2.48115
2.46436
2.44586
2.42391
2.40026
2.37598
2.34714
2.3151
2.28356
2.2484
1
1
1
1
1
1
1
1
1
1
1
1
1
1
1
1
1
1
1
1
1
1
1
1
1
1
1
1
1
1
1
1
1
1
1
1
1
1
1
1
1
1
1
1
1
1
1
1
1
1
1
1
1
1
1
1
1.00152
2.0966
2.53872
2.54905
2.55572
2.55861
2.56015
2.56113
2.56215
2.56312
2.56408
2.56501
2.56597
2.56669
2.56681
2.56652
2.56576
2.56456
2.56281
2.56034
2.55696
2.55259
2.54723
2.54111
2.53438
2.52709
2.51909
2.51003
2.49945
2.48712
2.4731
2.45696
2.4391
2.41831
2.3964
2.37237
2.34395
2.31547
2.28547
2.25222
1
1
1
1
1
1
1
1
1
1
1
1
1
1
1
1
1
1
1
1
1
1
1
1
1
1
1
1
1
1
1
1
1
1
1
1
1
1
1
1
1
1
1
1
1
1
1
1
1
1
1
1
1
1
1
1
0.999991
1.68782
2.46497
2.55076
2.5505
2.55165
2.55361
2.55468
2.55537
2.55596
2.55663
2.55738
2.55822
2.55893
2.55917
2.55893
2.5582
2.55701
2.5552
2.5527
2.54934
2.54496
2.53948
2.53316
2.52613
2.51849
2.51017
2.50098
2.49051
2.47844
2.46494
2.44936
2.43238
2.41293
2.39211
2.36873
2.34245
2.31616
2.28674
2.25565
1
1
1
1
1
1
1
1
1
1
1
1
1
1
1
1
1
1
1
1
1
1
1
1
1
1
1
1
1
1
1
1
1
1
1
1
1
1
1
1
1
1
1
1
1
1
1
1
1
1
1
1
1
1
1
1
0.999998
1.15244
2.32002
2.54937
2.54149
2.54267
2.54504
2.5471
2.54809
2.54863
2.54903
2.54948
2.55008
2.55071
2.55109
2.55096
2.55036
2.5492
2.54733
2.54476
2.54136
2.537
2.53154
2.52525
2.51819
2.51036
2.50176
2.49232
2.48182
2.46991
2.45677
2.44173
2.42555
2.40699
2.38774
2.36548
2.34126
2.31602
2.28744
2.25897
1
1
1
1
1
1
1
1
1
1
1
1
1
1
1
1
1
1
1
1
1
1
1
1
1
1
1
1
1
1
1
1
1
1
1
1
1
1
1
1
1
1
1
1
1
1
1
1
1
1
1
1
1
1
1
1
1
1.00523
2.14224
2.52122
2.52444
2.53097
2.53692
2.53936
2.54093
2.54171
2.54184
2.54186
2.54198
2.54229
2.54265
2.54262
2.54218
2.54112
2.53926
2.53662
2.53314
2.52873
2.52334
2.51724
2.51035
2.50252
2.49381
2.4842
2.47363
2.46182
2.44898
2.43452
2.41872
2.40118
2.38332
2.36194
2.33944
2.31485
2.28866
2.26238
1
1
1
1
1
1
1
1
1
1
1
1
1
1
1
1
1
1
1
1
1
1
1
1
1
1
1
1
1
1
1
1
1
1
1
1
1
1
1
1
1
1
1
1
1
1
1
1
1
1
1
1
1
1
1
1
1
0.999989
1.73646
2.45868
2.52675
2.52683
2.52866
2.53178
2.53438
2.53542
2.53527
2.53482
2.53427
2.53396
2.53396
2.53386
2.5335
2.5326
2.53086
2.52826
2.52471
2.52022
2.51493
2.5091
2.5025
2.49483
2.48618
2.47653
2.46598
2.45421
2.44171
2.42771
2.41214
2.39574
2.37823
2.35778
2.33669
2.31367
2.28996
2.26449
1
1
1
1
1
1
1
1
1
1
1
1
1
1
1
1
1
1
1
1
1
1
1
1
1
1
1
1
1
1
1
1
1
1
1
1
1
1
1
1
1
1
1
1
1
1
1
1
1
1
1
1
1
1
1
1
1
0.999996
1.17403
2.31844
2.52837
2.5193
2.52018
2.52294
2.52652
2.52832
2.52851
2.528
2.52707
2.52616
2.52558
2.52515
2.52466
2.52382
2.52224
2.51977
2.51627
2.51178
2.50661
2.50102
2.49465
2.48716
2.47871
2.46919
2.45881
2.44713
2.43506
2.42138
2.40624
2.39056
2.37301
2.3537
2.33389
2.31266
2.29015
2.26554
1
1
1
1
1
1
1
1
1
1
1
1
1
1
1
1
1
1
1
1
1
1
1
1
1
1
1
1
1
1
1
1
1
1
1
1
1
1
1
1
1
1
1
1
1
1
1
1
1
1
1
1
1
1
1
1
1
0.999999
1.00677
2.13517
2.50232
2.50287
2.50768
2.51454
2.51812
2.52059
2.52167
2.52135
2.52037
2.51904
2.51782
2.51678
2.51589
2.5149
2.5134
2.51111
2.50778
2.50345
2.49849
2.49307
2.4868
2.47945
2.47122
2.46194
2.45182
2.44044
2.42888
2.41543
2.40086
2.38549
2.36813
2.35001
2.33086
2.31092
2.28951
2.26584
1
1
1
1
1
1
1
1
1
1
1
1
1
1
1
1
1
1
1
1
1
1
1
1
1
1
1
1
1
1
1
1
1
1
1
1
1
1
1
1
1
1
1
1
1
1
1
1
1
1
1
1
1
1
1
1
1
1
0.999991
1.69624
2.43365
2.50566
2.50617
2.50808
2.51043
2.51319
2.51498
2.51493
2.51415
2.51268
2.51092
2.50914
2.50761
2.5062
2.50459
2.50244
2.49941
2.49545
2.49077
2.4854
2.4791
2.47175
2.46372
2.45474
2.44499
2.43419
2.42299
2.40982
2.39587
2.38074
2.36396
2.3466
2.32792
2.30909
2.28869
2.26608
1
1
1
1
1
1
1
1
1
1
1
1
1
1
1
1
1
1
1
1
1
1
1
1
1
1
1
1
1
1
1
1
1
1
1
1
1
1
1
1
1
1
1
1
1
1
1
1
1
1
1
1
1
1
1
1
1
1
0.999996
1.13038
2.28556
2.50905
2.5003
2.49953
2.50146
2.50444
2.50676
2.50768
2.50729
2.50607
2.50416
2.50186
2.49968
2.49773
2.49589
2.49378
2.49103
2.4875
2.4831
2.47776
2.47143
2.46413
2.45628
2.4476
2.43828
2.4281
2.41702
2.40427
2.39096
2.37609
2.36003
2.34333
2.32523
2.30724
2.2876
2.26582
1
1
1
1
1
1
1
1
1
1
1
1
1
1
1
1
1
1
1
1
1
1
1
1
1
1
1
1
1
1
1
1
1
1
1
1
1
1
1
1
1
1
1
1
1
1
1
1
1
1
1
1
1
1
1
1
1
1
0.999999
1.00378
2.0607
2.47911
2.48268
2.48852
2.49304
2.49587
2.49823
2.49993
2.49998
2.49915
2.49735
2.49485
2.49217
2.48968
2.48747
2.48528
2.48277
2.47961
2.47547
2.47027
2.46399
2.45681
2.44919
2.44084
2.43179
2.42201
2.41101
2.39881
2.38599
2.37152
2.35634
2.34036
2.32288
2.30554
2.28652
2.2657
1
1
1
1
1
1
1
1
1
1
1
1
1
1
1
1
1
1
1
1
1
1
1
1
1
1
1
1
1
1
1
1
1
1
1
1
1
1
1
1
1
1
1
1
1
1
1
1
1
1
1
1
1
1
1
1
1
1
1
0.999989
1.55233
2.39035
2.48247
2.48375
2.48566
2.48691
2.48892
2.49103
2.49195
2.49142
2.48994
2.48761
2.48479
2.48198
2.47942
2.47708
2.47458
2.47159
2.46764
2.46264
2.45656
2.44964
2.44232
2.43429
2.42545
2.41583
2.40494
2.39328
2.38087
2.36694
2.35273
2.3374
2.32047
2.30373
2.2854
2.2658
1
1
1
1
1
1
1
1
1
1
1
1
1
1
1
1
1
1
1
1
1
1
1
1
1
1
1
1
1
1
1
1
1
1
1
1
1
1
1
1
1
1
1
1
1
1
1
1
1
1
1
1
1
1
1
1
1
1
1
0.999997
1.07605
2.22837
2.4822
2.47781
2.47769
2.47776
2.47904
2.48114
2.48272
2.48252
2.48156
2.47977
2.47728
2.47453
2.47182
2.46927
2.46665
2.46365
2.45981
2.45505
2.44929
2.44273
2.43572
2.42793
2.41926
2.40973
2.399
2.38779
2.37574
2.36245
2.34905
2.33418
2.31797
2.30199
2.28455
2.26616
1
1
1
1
1
1
1
1
1
1
1
1
1
1
1
1
1
1
1
1
1
1
1
1
1
1
1
1
1
1
1
1
1
1
1
1
1
1
1
1
1
1
1
1
1
1
1
1
1
1
1
1
1
1
1
1
1
1
1
0.999999
1.00109
1.88233
2.43556
2.46796
2.46864
2.46868
2.47044
2.47243
2.47368
2.47357
2.47296
2.47173
2.46978
2.46731
2.4646
2.46184
2.45899
2.45581
2.45198
2.44739
2.44197
2.43582
2.42909
2.42152
2.41305
2.40362
2.39313
2.38232
2.37063
2.35797
2.34508
2.33064
2.31543
2.30016
2.28367
2.26622
1
1
1
1
1
1
1
1
1
1
1
1
1
1
1
1
1
1
1
1
1
1
1
1
1
1
1
1
1
1
1
1
1
1
1
1
1
1
1
1
1
1
1
1
1
1
1
1
1
1
1
1
1
1
1
1
1
1
1
1
0.999997
1.26619
2.30826
2.47394
2.46334
2.46339
2.46326
2.4636
2.46387
2.46399
2.46388
2.4633
2.46197
2.45994
2.45743
2.4546
2.45159
2.4482
2.44431
2.43982
2.43469
2.4289
2.42242
2.41505
2.40681
2.39757
2.3874
2.37698
2.36562
2.3535
2.34098
2.32711
2.31282
2.29809
2.28252
2.26588
1
1
1
1
1
1
1
1
1
1
1
1
1
1
1
1
1
1
1
1
1
1
1
1
1
1
1
1
1
1
1
1
1
1
1
1
1
1
1
1
1
1
1
1
1
1
1
1
1
1
1
1
1
1
1
1
1
1
1
1
0.999999
1.01541
2.12722
2.45001
2.44846
2.45126
2.4546
2.45437
2.45405
2.45458
2.45518
2.45502
2.45417
2.45254
2.45024
2.44742
2.44425
2.44067
2.43671
2.43226
2.42732
2.42178
2.41552
2.40837
2.4004
2.39144
2.3817
2.37166
2.36065
2.34894
2.33664
2.32346
2.30989
2.29561
2.28079
2.26489
1
1
1
1
1
1
1
1
1
1
1
1
1
1
1
1
1
1
1
1
1
1
1
1
1
1
1
1
1
1
1
1
1
1
1
1
1
1
1
1
1
1
1
1
1
1
1
1
1
1
1
1
1
1
1
1
1
1
1
1
1
1.00002
1.63885
2.37308
2.4498
2.44942
2.44889
2.44685
2.44634
2.44682
2.44738
2.44727
2.44659
2.44518
2.44305
2.4403
2.43706
2.43337
2.4293
2.42482
2.41994
2.41453
2.40841
2.40147
2.39379
2.38518
2.37595
2.3663
2.35569
2.34431
2.33227
2.31973
2.30666
2.29282
2.27862
2.26345
1
1
1
1
1
1
1
1
1
1
1
1
1
1
1
1
1
1
1
1
1
1
1
1
1
1
1
1
1
1
1
1
1
1
1
1
1
1
1
1
1
1
1
1
1
1
1
1
1
1
1
1
1
1
1
1
1
1
1
1
1
0.999999
1.10571
2.21587
2.45056
2.44406
2.44111
2.43909
2.4391
2.43934
2.43953
2.43934
2.43871
2.43752
2.43565
2.43308
2.42988
2.42614
2.42196
2.41742
2.41249
2.40712
2.40111
2.39439
2.38702
2.37881
2.37009
2.36081
2.35055
2.3395
2.32786
2.31586
2.30318
2.2898