/*--------------------------------*- C++ -*----------------------------------*\
  =========                 |
  \\      /  F ield         | OpenFOAM: The Open Source CFD Toolbox
   \\    /   O peration     | Website:  https://openfoam.org
    \\  /    A nd           | Version:  7
     \\/     M anipulation  |
\*---------------------------------------------------------------------------*/
FoamFile
{
    version     2.0;
    format      ascii;
    class       surfaceScalarField;
    location    "2.4";
    object      phi;
}
// * * * * * * * * * * * * * * * * * * * * * * * * * * * * * * * * * * * * * //

dimensions      [0 3 -1 0 0 0 0];

internalField   nonuniform List<scalar> 
21785
(
-1.53601e-13
1.53563e-13
-3.62668e-13
4.5352e-13
-6.81808e-13
5.3858e-13
-9.4777e-13
4.74314e-13
-1.07659e-12
3.35984e-13
-1.04016e-12
1.71346e-13
-8.47245e-13
1.50371e-14
-1.7233e-15
-1.20794e-13
9.06036e-13
-3.99848e-13
1.74477e-12
-6.61764e-13
2.84067e-12
-8.93016e-13
4.14464e-12
-1.09658e-12
5.62384e-12
-1.2762e-12
7.2488e-12
-1.42706e-12
8.97511e-12
-1.53195e-12
1.13001e-11
-1.59111e-12
1.34936e-11
-1.77452e-12
1.5576e-11
-1.9004e-12
1.78435e-11
-2.02164e-12
2.02265e-11
-2.14211e-12
2.26597e-11
-2.24019e-12
2.51139e-11
-2.29908e-12
2.75777e-11
-2.31379e-12
3.00272e-11
-2.28279e-12
3.2852e-11
-2.21978e-12
3.5603e-11
-2.26017e-12
3.80614e-11
-2.30161e-12
4.05401e-11
-2.31093e-12
4.29949e-11
-2.2879e-12
4.54023e-11
-2.23827e-12
4.77364e-11
-2.16267e-12
4.99615e-11
-2.0528e-12
5.24561e-11
-1.91372e-12
5.47536e-11
-1.87388e-12
5.67241e-11
-1.82601e-12
5.86352e-11
-1.75218e-12
6.04482e-11
-1.65331e-12
6.21419e-11
-1.53416e-12
6.36951e-11
-1.39409e-12
6.50779e-11
-1.22456e-12
6.66522e-11
-1.03052e-12
6.79764e-11
-9.32468e-13
6.89425e-11
-8.30495e-13
6.98016e-11
-7.08737e-13
-5.67943e-13
7.05206e-11
-2.46462e-13
6.45057e-13
-6.21298e-13
1.26806e-12
-1.03966e-12
1.35922e-12
-1.25916e-12
1.0833e-12
-1.11795e-12
5.81375e-13
-5.1336e-13
-4.6772e-14
6.20168e-13
-7.29618e-13
2.73373e-12
-1.45739e-12
5.37666e-12
-2.26878e-12
8.15084e-12
-3.08044e-12
1.14852e-11
-3.85926e-12
1.53393e-11
-4.58681e-12
1.96749e-11
-5.25601e-12
2.44583e-11
-5.85467e-12
2.96612e-11
-6.37035e-12
3.56927e-11
-6.82333e-12
4.19625e-11
-7.36708e-12
4.81202e-11
-7.77276e-12
5.45983e-11
-8.15077e-12
6.13508e-11
-8.49694e-12
6.82885e-11
-8.78221e-12
7.53427e-11
-8.98899e-12
8.24806e-11
-9.1133e-12
8.96902e-11
-9.16175e-12
9.72898e-11
-9.17017e-12
1.04901e-10
-9.16572e-12
1.12083e-10
-9.16381e-12
1.19214e-10
-9.10998e-12
1.26245e-10
-8.99222e-12
1.33141e-10
-8.81204e-12
1.39871e-10
-8.57195e-12
1.46413e-10
-8.27603e-12
1.53077e-10
-7.95309e-12
1.59476e-10
-7.63914e-12
1.6526e-10
-7.31701e-12
1.7077e-10
-6.95638e-12
1.75968e-10
-6.54852e-12
1.8083e-10
-6.09575e-12
1.85334e-10
-5.59992e-12
1.8947e-10
-5.06425e-12
1.93542e-10
-4.51576e-12
1.97187e-10
-3.9915e-12
2.00102e-10
-3.47181e-12
2.0261e-10
-2.93142e-12
-2.36236e-12
2.04689e-10
-2.0998e-13
1.07477e-12
-4.75068e-13
1.93663e-12
-6.49212e-13
1.9034e-12
-4.50647e-13
1.24457e-12
3.2034e-13
1.68678e-13
1.79859e-12
-1.16682e-12
4.07985e-12
-2.65131e-12
7.60053e-12
-4.22501e-12
1.19856e-11
-5.87959e-12
1.67543e-11
-7.52117e-12
2.23435e-11
-9.11142e-12
2.87167e-11
-1.06223e-11
3.58396e-11
-1.20349e-11
4.3671e-11
-1.33282e-11
5.21644e-11
-1.44885e-11
6.15889e-11
-1.55245e-11
7.16686e-11
-1.66829e-11
8.16536e-11
-1.75389e-11
9.20748e-11
-1.83052e-11
1.02907e-10
-1.89845e-11
1.14052e-10
-1.95488e-11
1.25406e-10
-1.99843e-11
1.36908e-10
-2.02897e-11
1.48522e-10
-2.04696e-11
1.60555e-10
-2.05457e-11
1.72576e-10
-2.05216e-11
1.84155e-10
-2.04449e-11
1.95624e-10
-2.02697e-11
2.06925e-10
-1.99873e-11
2.1801e-10
-1.95975e-11
2.28835e-10
-1.91038e-11
2.39366e-10
-1.85158e-11
2.4989e-10
-1.78565e-11
2.60012e-10
-1.71429e-11
2.69349e-10
-1.638e-11
2.78219e-10
-1.55434e-11
2.86582e-10
-1.46299e-11
2.94406e-10
-1.36424e-11
3.01667e-10
-1.25856e-11
3.08345e-10
-1.14691e-11
3.14725e-10
-1.03146e-11
3.20454e-10
-9.14468e-12
3.2519e-10
-7.95488e-12
3.29251e-10
-6.72882e-12
-5.46435e-12
3.32617e-10
-8.44184e-14
1.36686e-12
-4.13205e-14
2.28491e-12
2.70512e-13
1.95174e-12
1.14232e-12
7.24505e-13
2.79029e-12
-1.12668e-12
5.36413e-12
-3.38713e-12
8.96478e-12
-5.89837e-12
1.40186e-11
-8.55094e-12
2.02169e-11
-1.12907e-11
2.70205e-11
-1.40099e-11
3.48753e-11
-1.66439e-11
4.37428e-11
-1.91567e-11
5.35937e-11
-2.15185e-11
6.43724e-11
-2.37009e-11
7.60115e-11
-2.56952e-11
8.85433e-11
-2.7514e-11
1.02306e-10
-2.94753e-11
1.15899e-10
-3.09702e-11
1.30028e-10
-3.22695e-11
1.44687e-10
-3.33777e-11
1.59775e-10
-3.42908e-11
1.7515e-10
-3.50113e-11
1.90731e-10
-3.55427e-11
2.06451e-10
-3.58829e-11
2.22623e-10
-3.60361e-11
2.38732e-10
-3.59987e-11
2.54399e-10
-3.58232e-11
2.69914e-10
-3.54788e-11
2.85198e-10
-3.49676e-11
3.0019e-10
-3.42922e-11
3.14831e-10
-3.34558e-11
3.29068e-10
-3.24683e-11
3.43183e-10
-3.13472e-11
3.56751e-10
-3.01025e-11
3.69389e-10
-2.87497e-11
3.81393e-10
-2.72681e-11
3.92709e-10
-2.56683e-11
4.03298e-10
-2.39576e-11
4.13127e-10
-2.21433e-11
4.22164e-10
-2.02377e-11
4.3069e-10
-1.82587e-11
4.38342e-10
-1.62244e-11
4.44771e-10
-1.41366e-11
4.50284e-10
-1.19841e-11
-9.77824e-12
4.54855e-10
1.0603e-13
1.46623e-12
5.95845e-13
2.18365e-12
1.55482e-12
1.35089e-12
3.27749e-12
-6.47014e-13
5.9787e-12
-3.47324e-12
9.80851e-12
-6.86064e-12
1.48668e-11
-1.06026e-11
2.15587e-11
-1.45429e-11
2.96393e-11
-1.85704e-11
3.85248e-11
-2.258e-11
4.86624e-11
-2.64541e-11
6.00097e-11
-3.01568e-11
7.25402e-11
-3.36482e-11
8.61739e-11
-3.68974e-11
1.0083e-10
-3.99102e-11
1.16212e-10
-4.27108e-11
1.33566e-10
-4.54903e-11
1.50595e-10
-4.77955e-11
1.68246e-10
-4.97805e-11
1.86534e-10
-5.14912e-11
2.0533e-10
-5.27898e-11
2.24477e-10
-5.38394e-11
2.43881e-10
-5.46299e-11
2.63458e-10
-5.51514e-11
2.83513e-10
-5.53931e-11
3.0344e-10
-5.53061e-11
3.22924e-10
-5.50214e-11
3.42215e-10
-5.44685e-11
3.6122e-10
-5.36691e-11
3.79863e-10
-5.26343e-11
3.98068e-10
-5.13671e-11
4.15765e-10
-4.98777e-11
4.3323e-10
-4.81792e-11
4.5001e-10
-4.62812e-11
4.6573e-10
-4.42024e-11
4.80659e-10
-4.19178e-11
4.94732e-10
-3.94625e-11
5.07903e-10
-3.68516e-11
5.20127e-10
-3.40936e-11
5.31364e-10
-3.12039e-11
5.41886e-10
-2.81988e-11
5.5133e-10
-2.50939e-11
5.5934e-10
-2.18984e-11
5.66208e-10
-1.85954e-11
-1.52195e-11
5.71906e-10
3.29633e-13
1.34188e-12
1.37521e-12
1.52535e-12
3.07947e-12
3.75879e-15
5.77087e-12
-2.9879e-12
9.64571e-12
-6.99281e-12
1.48457e-11
-1.17031e-11
2.14662e-11
-1.68691e-11
2.99013e-11
-2.22929e-11
3.98885e-11
-2.77529e-11
5.09243e-11
-3.32938e-11
6.33658e-11
-3.85499e-11
7.71842e-11
-4.36025e-11
9.2347e-11
-4.83828e-11
1.08738e-10
-5.28548e-11
1.26271e-10
-5.70464e-11
1.4443e-10
-6.09309e-11
1.65166e-10
-6.46565e-11
1.855e-10
-6.78143e-11
2.06507e-10
-7.05981e-11
2.28363e-10
-7.24676e-11
2.50628e-10
-7.43258e-11
2.73319e-10
-7.58054e-11
2.96314e-10
-7.69036e-11
3.19518e-10
-7.76388e-11
3.43278e-10
-7.80591e-11
3.66736e-10
-7.81377e-11
3.89824e-10
-7.78253e-11
4.12657e-10
-7.70061e-11
4.35148e-10
-7.58611e-11
4.5721e-10
-7.43971e-11
4.78756e-10
-7.26142e-11
4.99698e-10
-7.05264e-11
5.20306e-10
-6.81468e-11
5.40074e-10
-6.54494e-11
5.58701e-10
-6.25621e-11
5.76366e-10
-5.93048e-11
5.93016e-10
-5.58339e-11
6.08599e-10
-5.21573e-11
6.23062e-10
-4.82811e-11
6.36358e-10
-4.42261e-11
6.48752e-10
-4.00112e-11
6.59851e-10
-3.56136e-11
6.69359e-10
-3.11567e-11
6.77493e-10
-2.64727e-11
-2.17109e-11
6.84241e-10
5.55375e-13
9.92824e-13
2.27942e-12
7.80039e-13
4.76822e-12
-1.71651e-12
8.48429e-12
-5.93881e-12
1.36071e-11
-1.13577e-11
2.02488e-11
-1.76017e-11
2.84914e-11
-2.43826e-11
3.88006e-11
-3.15207e-11
5.06527e-11
-3.88167e-11
6.39913e-11
-4.56488e-11
7.87199e-11
-5.24498e-11
9.49934e-11
-5.91547e-11
1.12731e-10
-6.56258e-11
1.31777e-10
-7.17902e-11
1.52109e-10
-7.7501e-11
1.73019e-10
-8.27193e-11
1.96994e-10
-8.54485e-11
2.20437e-10
-8.96941e-11
2.45194e-10
-9.3348e-11
2.69951e-10
-9.66918e-11
2.95549e-10
-9.91984e-11
3.21597e-10
-1.01168e-10
3.47967e-10
-1.02618e-10
3.74529e-10
-1.03564e-10
4.01685e-10
-1.04063e-10
4.28582e-10
-1.04342e-10
4.5521e-10
-1.03675e-10
4.81365e-10
-1.0255e-10
5.07133e-10
-1.01024e-10
5.32408e-10
-9.90503e-11
5.57088e-10
-9.66474e-11
5.81073e-10
-9.3854e-11
6.0467e-10
-9.07447e-11
6.27189e-10
-8.73635e-11
6.48644e-10
-8.32799e-11
6.68847e-10
-7.89147e-11
6.87904e-10
-7.43079e-11
7.05743e-10
-6.94159e-11
7.22299e-10
-6.42534e-11
7.37514e-10
-5.88556e-11
7.51699e-10
-5.32981e-11
7.64291e-10
-4.76217e-11
7.75294e-10
-4.14531e-11
7.84585e-10
-3.51947e-11
-2.8878e-11
7.92306e-10
1.07662e-12
1.18453e-12
3.23693e-12
-2.36133e-13
6.48841e-12
-4.22663e-12
1.12805e-11
-9.98161e-12
1.77023e-11
-1.70223e-11
2.58374e-11
-2.49636e-11
3.57214e-11
-3.34743e-11
4.78252e-11
-4.22722e-11
6.2111e-11
-5.11201e-11
7.74673e-11
-5.9959e-11
9.43501e-11
-6.86579e-11
1.12946e-10
-7.69349e-11
1.33139e-10
-8.47651e-11
1.54891e-10
-9.21342e-11
1.7801e-10
-9.90358e-11
2.03816e-10
-1.05393e-10
2.28717e-10
-1.11233e-10
2.55292e-10
-1.16328e-10
2.82929e-10
-1.20743e-10
3.11164e-10
-1.24558e-10
3.39973e-10
-1.27683e-10
3.6924e-10
-1.30132e-10
3.98837e-10
-1.31925e-10
4.28623e-10
-1.33056e-10
4.58752e-10
-1.33518e-10
4.89359e-10
-1.33238e-10
5.19166e-10
-1.32425e-10
5.48451e-10
-1.31152e-10
5.77332e-10
-1.29231e-10
6.05644e-10
-1.26719e-10
6.33265e-10
-1.2365e-10
6.60068e-10
-1.20049e-10
6.86337e-10
-1.15923e-10
7.11877e-10
-1.11315e-10
7.3582e-10
-1.06244e-10
7.58383e-10
-1.0086e-10
7.79707e-10
-9.5013e-11
7.99669e-10
-8.87692e-11
8.18184e-10
-8.21715e-11
8.35165e-10
-7.52483e-11
8.50911e-10
-6.80158e-11
8.65296e-10
-6.05069e-11
8.77522e-10
-5.2791e-11
8.87866e-10
-4.49758e-11
-3.6938e-11
8.96498e-10
1.24785e-12
4.49703e-13
3.88166e-12
-2.54079e-12
8.11356e-12
-8.12812e-12
1.40767e-11
-1.56217e-11
2.18778e-11
-2.45027e-11
3.15824e-11
-3.43421e-11
4.32235e-11
-4.47792e-11
5.72581e-11
-5.54977e-11
7.35271e-11
-6.62902e-11
9.09795e-11
-7.7138e-11
1.10261e-10
-8.76723e-11
1.31302e-10
-9.77472e-11
1.53997e-10
-1.07285e-10
1.78305e-10
-1.16237e-10
2.04124e-10
-1.24576e-10
2.32662e-10
-1.32274e-10
2.60539e-10
-1.39367e-10
2.90084e-10
-1.45521e-10
3.20658e-10
-1.5086e-10
3.51987e-10
-1.55443e-10
3.83895e-10
-1.59235e-10
4.1627e-10
-1.62218e-10
4.48998e-10
-1.6438e-10
4.81931e-10
-1.65707e-10
5.15275e-10
-1.66192e-10
5.48898e-10
-1.65798e-10
5.81619e-10
-1.64878e-10
6.13977e-10
-1.63213e-10
6.45835e-10
-1.60801e-10
6.77053e-10
-1.57668e-10
7.07502e-10
-1.53843e-10
7.37059e-10
-1.49351e-10
7.6596e-10
-1.44204e-10
7.94048e-10
-1.38412e-10
8.20286e-10
-1.32238e-10
8.45201e-10
-1.25508e-10
8.68698e-10
-1.18247e-10
8.90688e-10
-1.10503e-10
9.11082e-10
-1.02317e-10
9.29801e-10
-9.37213e-11
9.47116e-10
-8.47344e-11
9.62879e-10
-7.5382e-11
9.76224e-10
-6.59111e-11
9.87671e-10
-5.61732e-11
-4.62017e-11
9.97185e-10
1.25559e-12
-6.25568e-13
4.5335e-12
-5.44314e-12
9.70346e-12
-1.29484e-11
1.68586e-11
-2.24385e-11
2.60682e-11
-3.33784e-11
3.73751e-11
-4.53149e-11
5.08023e-11
-5.78648e-11
6.67578e-11
-7.07066e-11
8.4894e-11
-8.3665e-11
1.04574e-10
-9.64823e-11
1.26207e-10
-1.08979e-10
1.49689e-10
-1.20963e-10
1.74895e-10
-1.32318e-10
2.0176e-10
-1.42956e-10
2.30206e-10
-1.52821e-10
2.61345e-10
-1.61877e-10
2.92221e-10
-1.70316e-10
3.24648e-10
-1.77545e-10
3.58098e-10
-1.83853e-10
3.92372e-10
-1.89275e-10
4.27263e-10
-1.93782e-10
4.62652e-10
-1.97333e-10
4.98417e-10
-1.99883e-10
5.34392e-10
-2.01414e-10
5.70834e-10
-2.01946e-10
6.07174e-10
-2.01507e-10
6.42834e-10
-2.00256e-10
6.78091e-10
-1.98155e-10
7.12797e-10
-1.95185e-10
7.468e-10
-1.91366e-10
7.79959e-10
-1.8672e-10
8.12146e-10
-1.8127e-10
8.43613e-10
-1.75046e-10
8.73917e-10
-1.68105e-10
9.02484e-10
-1.60542e-10
9.29601e-10
-1.52347e-10
9.55169e-10
-1.43534e-10
9.79092e-10
-1.3415e-10
1.00128e-09
-1.24237e-10
1.02165e-09
-1.13833e-10
1.04049e-09
-1.02975e-10
1.0574e-09
-9.17391e-11
1.07193e-09
-8.01975e-11
1.08438e-09
-6.83722e-11
-5.62859e-11
1.09473e-09
1.38782e-12
-1.81511e-12
5.23293e-12
-8.90713e-12
1.13011e-11
-1.86639e-11
1.9624e-11
-3.04169e-11
3.02319e-11
-4.36421e-11
4.31365e-11
-5.78767e-11
5.83361e-11
-7.27218e-11
7.61391e-11
-8.78418e-11
9.63107e-11
-1.03017e-10
1.18159e-10
-1.17979e-10
1.42097e-10
-1.32548e-10
1.67997e-10
-1.4652e-10
1.95709e-10
-1.59765e-10
2.25137e-10
-1.72171e-10
2.56203e-10
-1.83664e-10
2.89792e-10
-1.94199e-10
3.23716e-10
-2.0397e-10
3.58923e-10
-2.12365e-10
3.95158e-10
-2.19697e-10
4.32254e-10
-2.25988e-10
4.70029e-10
-2.31218e-10
5.08342e-10
-2.35342e-10
5.47079e-10
-2.3835e-10
5.85998e-10
-2.40058e-10
6.25359e-10
-2.40617e-10
6.64457e-10
-2.40014e-10
7.02906e-10
-2.38449e-10
7.4092e-10
-2.35869e-10
7.78344e-10
-2.32272e-10
8.15011e-10
-2.27691e-10
8.50765e-10
-2.2215e-10
8.85462e-10
-2.1567e-10
9.19332e-10
-2.08281e-10
9.51884e-10
-2.00056e-10
9.82644e-10
-1.91045e-10
1.01185e-09
-1.81277e-10
1.03938e-09
-1.7078e-10
1.06514e-09
-1.59616e-10
1.08903e-09
-1.47837e-10
1.11097e-09
-1.35488e-10
1.1312e-09
-1.2261e-10
1.14933e-09
-1.09302e-10
1.16495e-09
-9.55838e-11
1.17835e-09
-8.1521e-11
-6.7151e-11
1.18947e-09
1.57288e-12
-3.19006e-12
5.96395e-12
-1.29198e-11
1.29019e-11
-2.52506e-11
2.23633e-11
-3.95307e-11
3.43451e-11
-5.52687e-11
4.88287e-11
-7.20043e-11
6.57838e-11
-8.93273e-11
8.54393e-11
-1.06885e-10
1.07661e-10
-1.24395e-10
1.31653e-10
-1.41641e-10
1.57871e-10
-1.58388e-10
1.86162e-10
-1.74413e-10
2.16359e-10
-1.89596e-10
2.48329e-10
-2.03822e-10
2.81983e-10
-2.17007e-10
3.17968e-10
-2.29121e-10
3.54915e-10
-2.40326e-10
3.92838e-10
-2.49945e-10
4.3178e-10
-2.58328e-10
4.71609e-10
-2.65495e-10
5.12175e-10
-2.71431e-10
5.53303e-10
-2.76128e-10
5.95043e-10
-2.7899e-10
6.36795e-10
-2.80868e-10
6.79021e-10
-2.81586e-10
7.20774e-10
-2.81217e-10
7.61908e-10
-2.7936e-10
8.0257e-10
-2.76275e-10
8.42596e-10
-2.71985e-10
8.81815e-10
-2.6656e-10
9.20062e-10
-2.60041e-10
9.57174e-10
-2.52449e-10
9.93336e-10
-2.4381e-10
1.0281e-09
-2.34205e-10
1.06096e-09
-2.23655e-10
1.09216e-09
-2.12213e-10
1.12157e-09
-1.99907e-10
1.14908e-09
-1.86828e-10
1.1746e-09
-1.73045e-10
1.19803e-09
-1.58613e-10
1.21957e-09
-1.43578e-10
1.23891e-09
-1.28042e-10
1.25557e-09
-1.12014e-10
1.26986e-09
-9.55726e-11
-7.87594e-11
1.28171e-09
1.77019e-12
-4.76309e-12
6.68386e-12
-1.74581e-11
1.44976e-11
-3.2716e-11
2.50692e-11
-4.9756e-11
3.83924e-11
-6.82337e-11
5.44262e-11
-8.7675e-11
7.31166e-11
-1.07661e-10
9.46583e-11
-1.27825e-10
1.18873e-10
-1.47772e-10
1.44987e-10
-1.67437e-10
1.73501e-10
-1.86534e-10
2.04162e-10
-2.04662e-10
2.36813e-10
-2.21841e-10
2.71286e-10
-2.37939e-10
3.07466e-10
-2.52862e-10
3.45788e-10
-2.66518e-10
3.85765e-10
-2.78988e-10
4.26358e-10
-2.90094e-10
4.67966e-10
-2.99667e-10
5.10484e-10
-3.07594e-10
5.53727e-10
-3.13947e-10
5.98139e-10
-3.18748e-10
6.42306e-10
-3.22492e-10
6.86681e-10
-3.24718e-10
7.31432e-10
-3.25446e-10
7.76099e-10
-3.24964e-10
8.19862e-10
-3.22867e-10
8.63132e-10
-3.19312e-10
9.05675e-10
-3.14251e-10
9.47347e-10
-3.07907e-10
9.87989e-10
-3.00329e-10
1.02743e-09
-2.91544e-10
1.0658e-09
-2.81576e-10
1.10271e-09
-2.70444e-10
1.13759e-09
-2.58269e-10
1.17075e-09
-2.45105e-10
1.20196e-09
-2.30848e-10
1.23114e-09
-2.15724e-10
1.25821e-09
-1.99807e-10
1.28307e-09
-1.83163e-10
1.30586e-09
-1.65843e-10
1.32637e-09
-1.47884e-10
1.34401e-09
-1.29415e-10
1.35918e-09
-1.10505e-10
-9.10746e-11
1.37174e-09
1.96697e-12
-6.53143e-12
7.34609e-12
-2.24629e-11
1.61233e-11
-4.05723e-11
2.77402e-11
-6.06321e-11
4.23609e-11
-8.21291e-11
5.99021e-11
-1.0452e-10
8.02876e-11
-1.27373e-10
1.03781e-10
-1.50355e-10
1.29893e-10
-1.73069e-10
1.58091e-10
-1.9532e-10
1.89011e-10
-2.16484e-10
2.21989e-10
-2.36977e-10
2.57054e-10
-2.56526e-10
2.93999e-10
-2.74843e-10
3.32708e-10
-2.91685e-10
3.73463e-10
-3.06917e-10
4.16026e-10
-3.19949e-10
4.59373e-10
-3.32363e-10
5.0384e-10
-3.43116e-10
5.4914e-10
-3.52133e-10
5.95141e-10
-3.59406e-10
6.41823e-10
-3.64997e-10
6.88701e-10
-3.69029e-10
7.35775e-10
-3.71404e-10
7.82916e-10
-3.72161e-10
8.30397e-10
-3.71427e-10
8.7678e-10
-3.68941e-10
9.22725e-10
-3.64583e-10
9.67695e-10
-3.58854e-10
1.01173e-09
-3.51572e-10
1.05467e-09
-3.428e-10
1.09636e-09
-3.32661e-10
1.13692e-09
-3.21271e-10
1.17586e-09
-3.08658e-10
1.21268e-09
-2.94796e-10
1.24783e-09
-2.79513e-10
1.28076e-09
-2.63315e-10
1.31154e-09
-2.46126e-10
1.34008e-09
-2.27963e-10
1.3663e-09
-2.08931e-10
1.39035e-09
-1.89177e-10
1.41192e-09
-1.68744e-10
1.4305e-09
-1.47727e-10
1.44661e-09
-1.25888e-10
-1.03764e-10
1.45981e-09
2.17581e-12
-8.01629e-12
8.2827e-12
-2.72442e-11
1.7753e-11
-4.89008e-11
3.03298e-11
-7.24893e-11
4.61981e-11
-9.72482e-11
6.52089e-11
-1.22745e-10
8.72268e-11
-1.48574e-10
1.1261e-10
-1.74373e-10
1.40664e-10
-1.9983e-10
1.71324e-10
-2.24484e-10
2.04195e-10
-2.48379e-10
2.39337e-10
-2.71253e-10
2.76777e-10
-2.92829e-10
3.16304e-10
-3.13039e-10
3.57682e-10
-3.31802e-10
4.01684e-10
-3.49004e-10
4.4587e-10
-3.64141e-10
4.91883e-10
-3.77863e-10
5.39061e-10
-3.89783e-10
5.87081e-10
-3.99804e-10
6.35738e-10
-4.07869e-10
6.84929e-10
-4.13996e-10
7.34427e-10
-4.18272e-10
7.8409e-10
-4.20722e-10
8.33687e-10
-4.21399e-10
8.83862e-10
-4.19721e-10
9.33042e-10
-4.16664e-10
9.81282e-10
-4.1195e-10
1.02872e-09
-4.05428e-10
1.07513e-09
-3.97162e-10
1.1203e-09
-3.87247e-10
1.16408e-09
-3.75777e-10
1.2067e-09
-3.62829e-10
1.24767e-09
-3.48357e-10
1.28667e-09
-3.32482e-10
1.32345e-09
-3.15417e-10
1.35806e-09
-2.97173e-10
1.39044e-09
-2.77742e-10
1.42044e-09
-2.57231e-10
1.44792e-09
-2.35749e-10
1.47316e-09
-2.13409e-10
1.49576e-09
-1.90192e-10
1.51555e-09
-1.6628e-10
1.53228e-09
-1.41874e-10
-1.16977e-10
1.5461e-09
2.42391e-12
-9.94097e-12
9.02919e-12
-3.31069e-11
1.91177e-11
-5.86936e-11
3.27971e-11
-8.58651e-11
4.99431e-11
-1.14092e-10
7.04282e-11
-1.42915e-10
9.41074e-11
-1.7192e-10
1.21292e-10
-2.00719e-10
1.51475e-10
-2.2901e-10
1.8411e-10
-2.56533e-10
2.19117e-10
-2.83148e-10
2.56584e-10
-3.08473e-10
2.96333e-10
-3.32358e-10
3.38211e-10
-3.5471e-10
3.82019e-10
-3.75428e-10
4.28916e-10
-3.94385e-10
4.75314e-10
-4.1101e-10
5.239e-10
-4.25953e-10
5.73735e-10
-4.38953e-10
6.24458e-10
-4.49964e-10
6.75783e-10
-4.58884e-10
7.27556e-10
-4.65651e-10
7.79615e-10
-4.70275e-10
8.31767e-10
-4.7278e-10
8.84433e-10
-4.7319e-10
9.36685e-10
-4.71258e-10
9.88225e-10
-4.67661e-10
1.03895e-09
-4.62256e-10
1.08881e-09
-4.54911e-10
1.13751e-09
-4.45638e-10
1.18488e-09
-4.34489e-10
1.23078e-09
-4.21538e-10
1.27553e-09
-4.06864e-10
1.3185e-09
-3.90545e-10
1.35926e-09
-3.72749e-10
1.39776e-09
-3.53636e-10
1.43407e-09
-3.33158e-10
1.46801e-09
-3.11398e-10
1.49941e-09
-2.88434e-10
1.52818e-09
-2.64346e-10
1.55466e-09
-2.39229e-10
1.57829e-09
-2.1317e-10
1.59887e-09
-1.86414e-10
1.61634e-09
-1.59081e-10
-1.31168e-10
1.63082e-09
2.5321e-12
-1.22969e-11
9.50376e-12
-3.97253e-11
2.04221e-11
-6.92782e-11
3.51681e-11
-1.00291e-10
5.3595e-11
-1.32205e-10
7.5556e-11
-1.64554e-10
1.00899e-10
-1.96918e-10
1.29881e-10
-2.28921e-10
1.61982e-10
-2.60396e-10
1.96549e-10
-2.90826e-10
2.33776e-10
-3.20107e-10
2.73516e-10
-3.47971e-10
3.15555e-10
-3.74216e-10
3.59765e-10
-3.98719e-10
4.05978e-10
-4.21373e-10
4.55814e-10
-4.42052e-10
5.04472e-10
-4.60511e-10
5.55557e-10
-4.76665e-10
6.07914e-10
-4.90706e-10
6.61243e-10
-5.02656e-10
7.15215e-10
-5.1242e-10
7.6962e-10
-5.1988e-10
8.24276e-10
-5.24951e-10
8.78973e-10
-5.2756e-10
9.34439e-10
-5.27683e-10
9.88824e-10
-5.25433e-10
1.04264e-09
-5.21179e-10
1.09576e-09
-5.14894e-10
1.14799e-09
-5.06599e-10
1.19901e-09
-4.96249e-10
1.24861e-09
-4.83824e-10
1.29664e-09
-4.69363e-10
1.34344e-09
-4.52946e-10
1.38829e-09
-4.34909e-10
1.43075e-09
-4.15042e-10
1.47098e-09
-3.93628e-10
1.50891e-09
-3.70754e-10
1.54437e-09
-3.46509e-10
1.57721e-09
-3.20965e-10
1.60728e-09
-2.94176e-10
1.63496e-09
-2.66225e-10
1.6595e-09
-2.37372e-10
1.68085e-09
-2.07574e-10
1.69908e-09
-1.77058e-10
-1.45958e-10
1.71417e-09
2.64227e-12
-1.47469e-11
1.00399e-11
-4.67511e-11
2.17191e-11
-8.06141e-11
3.74884e-11
-1.15727e-10
5.71671e-11
-1.51548e-10
8.0579e-11
-1.87622e-10
1.07553e-10
-2.23535e-10
1.38162e-10
-2.58914e-10
1.72262e-10
-2.93614e-10
2.08815e-10
-3.27076e-10
2.48192e-10
-3.59185e-10
2.90173e-10
-3.89672e-10
3.345e-10
-4.18305e-10
3.81036e-10
-4.44948e-10
4.29644e-10
-4.6951e-10
4.82097e-10
-4.91969e-10
5.33393e-10
-5.12492e-10
5.86908e-10
-5.29934e-10
6.41647e-10
-5.45055e-10
6.97434e-10
-5.57938e-10
7.53967e-10
-5.68502e-10
8.11007e-10
-5.76616e-10
8.68359e-10
-5.82145e-10
9.25743e-10
-5.84922e-10
9.83802e-10
-5.84839e-10
1.0404e-09
-5.82234e-10
1.0965e-09
-5.7728e-10
1.15186e-09
-5.70009e-10
1.20634e-09
-5.6057e-10
1.25966e-09
-5.48953e-10
1.31151e-09
-5.35118e-10
1.3617e-09
-5.19093e-10
1.41032e-09
-5.00928e-10
1.45719e-09
-4.81161e-10
1.5014e-09
-4.59171e-10
1.54329e-09
-4.35403e-10
1.58277e-09
-4.09978e-10
1.6197e-09
-3.83045e-10
1.65394e-09
-3.54743e-10
1.68532e-09
-3.25136e-10
1.71404e-09
-2.94287e-10
1.73962e-09
-2.6253e-10
1.7618e-09
-2.29587e-10
1.7807e-09
-1.95797e-10
-1.61365e-10
1.79634e-09
2.78193e-12
-1.73402e-11
1.06126e-11
-5.42104e-11
2.30124e-11
-9.26664e-11
3.97698e-11
-1.32135e-10
6.06674e-11
-1.72078e-10
8.54978e-11
-2.1208e-10
1.14066e-10
-2.51737e-10
1.46239e-10
-2.90676e-10
1.82331e-10
-3.28669e-10
2.20866e-10
-3.65299e-10
2.62368e-10
-4.0035e-10
3.06594e-10
-4.33537e-10
3.53243e-10
-4.64617e-10
4.02114e-10
-4.9344e-10
4.5303e-10
-5.19955e-10
5.07546e-10
-5.44056e-10
5.6203e-10
-5.67517e-10
6.17925e-10
-5.86954e-10
6.74956e-10
-6.0317e-10
7.33078e-10
-6.16199e-10
7.92071e-10
-6.26355e-10
8.51711e-10
-6.33862e-10
9.11812e-10
-6.38852e-10
9.72012e-10
-6.41511e-10
1.03257e-09
-6.41883e-10
1.0915e-09
-6.41755e-10
1.14994e-09
-6.36061e-10
1.20743e-09
-6.27778e-10
1.26406e-09
-6.16997e-10
1.31959e-09
-6.03899e-10
1.37364e-09
-5.8847e-10
1.42597e-09
-5.70776e-10
1.47619e-09
-5.50849e-10
1.5253e-09
-5.29198e-10
1.5713e-09
-5.05109e-10
1.61485e-09
-4.78923e-10
1.65584e-09
-4.5085e-10
1.69416e-09
-4.2107e-10
1.72973e-09
-3.89819e-10
1.76237e-09
-3.57225e-10
1.79202e-09
-3.23357e-10
1.8188e-09
-2.88641e-10
1.84182e-09
-2.52394e-10
1.86138e-09
-2.15261e-10
-1.77378e-10
1.87753e-09
2.94097e-12
-2.00952e-11
1.11908e-11
-6.20919e-11
2.42754e-11
-1.05403e-10
4.20221e-11
-1.49523e-10
6.41022e-11
-1.93771e-10
9.03083e-11
-2.37894e-10
1.20435e-10
-2.81496e-10
1.54218e-10
-3.24189e-10
1.92188e-10
-3.65538e-10
2.32689e-10
-4.05452e-10
2.76308e-10
-4.43563e-10
3.22817e-10
-4.79593e-10
3.71826e-10
-5.13173e-10
4.2302e-10
-5.44334e-10
4.76329e-10
-5.7303e-10
5.31359e-10
-5.99199e-10
5.89745e-10
-6.2257e-10
6.48642e-10
-6.43272e-10
7.08646e-10
-6.61154e-10
7.69399e-10
-6.76038e-10
8.308e-10
-6.87923e-10
8.92721e-10
-6.96785e-10
9.54894e-10
-7.02532e-10
1.01715e-09
-7.05145e-10
1.07793e-09
-7.04754e-10
1.14217e-09
-7.02544e-10
1.20291e-09
-6.96763e-10
1.26264e-09
-6.8778e-10
1.32134e-09
-6.75858e-10
1.37898e-09
-6.61167e-10
1.43509e-09
-6.44017e-10
1.48947e-09
-6.24552e-10
1.54121e-09
-6.02815e-10
1.59259e-09
-5.78921e-10
1.64047e-09
-5.5266e-10
1.68575e-09
-5.2415e-10
1.72828e-09
-4.9332e-10
1.76795e-09
-4.60587e-10
1.80474e-09
-4.26253e-10
1.83856e-09
-3.90498e-10
1.86896e-09
-3.53383e-10
1.89719e-09
-3.14835e-10
1.92099e-09
-2.759e-10
1.94123e-09
-2.3531e-10
-1.93907e-10
1.95788e-09
3.12047e-12
-2.30262e-11
1.17569e-11
-7.0362e-11
2.54734e-11
-1.18776e-10
4.42986e-11
-1.67473e-10
6.74818e-11
-2.16322e-10
9.49956e-11
-2.64896e-10
1.26618e-10
-3.12683e-10
1.62167e-10
-3.59305e-10
2.01844e-10
-4.04165e-10
2.44296e-10
-4.47543e-10
2.90012e-10
-4.88845e-10
3.38891e-10
-5.27841e-10
3.90152e-10
-5.64901e-10
4.43599e-10
-5.99328e-10
4.99149e-10
-6.30598e-10
5.56628e-10
-6.58516e-10
6.17257e-10
-6.81162e-10
6.78526e-10
-7.03712e-10
7.41049e-10
-7.23021e-10
8.04306e-10
-7.38983e-10
8.68224e-10
-7.51581e-10
9.32761e-10
-7.60894e-10
9.97548e-10
-7.66931e-10
1.06233e-09
-7.69731e-10
1.12437e-09
-7.69309e-10
1.19172e-09
-7.65827e-10
1.25514e-09
-7.59606e-10
1.31733e-09
-7.49983e-10
1.37831e-09
-7.36727e-10
1.43795e-09
-7.21621e-10
1.49596e-09
-7.03261e-10
1.5522e-09
-6.81879e-10
1.6057e-09
-6.57692e-10
1.65908e-09
-6.30268e-10
1.70887e-09
-6.01906e-10
1.7561e-09
-5.69777e-10
1.80021e-09
-5.37418e-10
1.84121e-09
-5.02603e-10
1.87915e-09
-4.65314e-10
1.91408e-09
-4.25988e-10
1.94572e-09
-3.8519e-10
1.97413e-09
-3.43164e-10
1.9994e-09
-2.99962e-10
2.0203e-09
-2.55928e-10
-2.10885e-10
2.03748e-09
3.33847e-12
-2.56948e-11
1.23025e-11
-7.85936e-11
2.69108e-11
-1.32117e-10
4.65108e-11
-1.85916e-10
7.06853e-11
-2.39679e-10
9.94865e-11
-2.92744e-10
1.32592e-10
-3.44757e-10
1.70067e-10
-3.95382e-10
2.11257e-10
-4.43996e-10
2.55669e-10
-4.90637e-10
3.03464e-10
-5.35079e-10
3.53932e-10
-5.77037e-10
4.07391e-10
-6.16205e-10
4.63497e-10
-6.52616e-10
5.21808e-10
-6.86222e-10
5.83972e-10
-7.16884e-10
6.44017e-10
-7.43076e-10
7.0784e-10
-7.66893e-10
7.72957e-10
-7.8735e-10
8.38844e-10
-8.04288e-10
9.0528e-10
-8.17669e-10
9.72298e-10
-8.27581e-10
1.03953e-09
-8.3405e-10
1.10678e-09
-8.37049e-10
1.17115e-09
-8.36728e-10
1.24049e-09
-8.28842e-10
1.30655e-09
-8.21484e-10
1.37167e-09
-8.11718e-10
1.4338e-09
-7.99031e-10
1.49602e-09
-7.81725e-10
1.55638e-09
-7.61485e-10
1.61476e-09
-7.38349e-10
1.67092e-09
-7.12405e-10
1.72467e-09
-6.82488e-10
1.77773e-09
-6.50176e-10
1.82466e-09
-6.17833e-10
1.87077e-09
-5.81863e-10
1.91378e-09
-5.43651e-10
1.95334e-09
-5.03171e-10
1.98936e-09
-4.60755e-10
2.0219e-09
-4.16744e-10
2.05118e-09
-3.71417e-10
2.07701e-09
-3.24356e-10
2.09868e-09
-2.76584e-10
-2.2784e-10
2.11641e-09
3.47499e-12
-2.86632e-11
1.30101e-11
-8.73903e-11
2.82571e-11
-1.46652e-10
4.85544e-11
-2.0598e-10
7.38569e-11
-2.64736e-10
1.03923e-10
-3.22508e-10
1.38461e-10
-3.78925e-10
1.77839e-10
-4.33613e-10
2.20744e-10
-4.86421e-10
2.66969e-10
-5.36721e-10
3.16753e-10
-5.84457e-10
3.69393e-10
-6.29554e-10
4.24876e-10
-6.71655e-10
4.82992e-10
-7.1071e-10
5.43411e-10
-7.46649e-10
6.09165e-10
-7.79297e-10
6.70642e-10
-8.0747e-10
7.36854e-10
-8.32514e-10
8.04514e-10
-8.54016e-10
8.72965e-10
-8.72048e-10
9.41846e-10
-8.86287e-10
1.01123e-09
-8.96868e-10
1.08091e-09
-9.03686e-10
1.15037e-09
-9.06567e-10
1.2213e-09
-9.05338e-10
1.28911e-09
-8.99776e-10
1.35667e-09
-8.91337e-10
1.42373e-09
-8.79413e-10
1.48957e-09
-8.64232e-10
1.55381e-09
-8.45687e-10
1.61617e-09
-8.23757e-10
1.67644e-09
-7.98441e-10
1.73576e-09
-7.69714e-10
1.79117e-09
-7.39341e-10
1.84363e-09
-7.04314e-10
1.89351e-09
-6.67198e-10
1.94118e-09
-6.28177e-10
1.98585e-09
-5.87083e-10
2.0268e-09
-5.43704e-10
2.0639e-09
-4.98067e-10
2.09731e-09
-4.50468e-10
2.12792e-09
-4.01252e-10
2.15409e-09
-3.5042e-10
2.17642e-09
-2.98684e-10
-2.45847e-10
2.19481e-09
3.56252e-12
-3.20501e-11
1.35176e-11
-9.70003e-11
2.93074e-11
-1.62146e-10
5.05483e-11
-2.2696e-10
7.6975e-11
-2.90926e-10
1.08332e-10
-3.53579e-10
1.44344e-10
-4.14544e-10
1.85189e-10
-4.73472e-10
2.30036e-10
-5.3063e-10
2.78152e-10
-5.84692e-10
3.29774e-10
-6.35936e-10
3.84521e-10
-6.842e-10
4.42044e-10
-7.29236e-10
5.02202e-10
-7.70898e-10
5.64779e-10
-8.09087e-10
6.33828e-10
-8.43624e-10
6.97223e-10
-8.74322e-10
7.65733e-10
-9.00529e-10
8.35601e-10
-9.23126e-10
9.06554e-10
-9.42236e-10
9.77809e-10
-9.57456e-10
1.04963e-09
-9.68822e-10
1.12193e-09
-9.76114e-10
1.19416e-09
-9.78951e-10
1.26819e-09
-9.77109e-10
1.33755e-09
-9.71186e-10
1.40741e-09
-9.61484e-10
1.47651e-09
-9.48109e-10
1.54459e-09
-9.31516e-10
1.61111e-09
-9.11502e-10
1.67573e-09
-8.87756e-10
1.73826e-09
-8.60092e-10
1.79819e-09
-8.28533e-10
1.85733e-09
-7.97794e-10
1.91104e-09
-7.59632e-10
1.962e-09
-7.18906e-10
2.0109e-09
-6.76217e-10
2.0571e-09
-6.31726e-10
2.0996e-09
-5.85114e-10
2.13804e-09
-5.36182e-10
2.1725e-09
-4.85032e-10
2.20423e-09
-4.31969e-10
2.23083e-09
-3.77217e-10
2.25386e-09
-3.21343e-10
-2.6437e-10
2.2728e-09
3.64729e-12
-3.55138e-11
1.39758e-11
-1.06955e-10
3.03819e-11
-1.78213e-10
5.25221e-11
-2.48783e-10
8.00771e-11
-3.18162e-10
1.12738e-10
-3.85883e-10
1.50217e-10
-4.51587e-10
1.92101e-10
-5.14949e-10
2.3917e-10
-5.76404e-10
2.89112e-10
-6.34415e-10
3.42625e-10
-6.89303e-10
3.99407e-10
-7.4084e-10
4.59008e-10
-7.88764e-10
5.21266e-10
-8.32898e-10
5.86068e-10
-8.73231e-10
6.57524e-10
-9.09848e-10
7.23855e-10
-9.43359e-10
7.94409e-10
-9.70913e-10
8.6617e-10
-9.94484e-10
9.39493e-10
-1.01571e-09
1.01304e-09
-1.02908e-09
1.08739e-09
-1.03849e-09
1.16256e-09
-1.04406e-09
1.23784e-09
-1.0463e-09
1.31436e-09
-1.04525e-09
1.38602e-09
-1.04591e-09
1.4581e-09
-1.03462e-09
1.52896e-09
-1.01968e-09
1.59903e-09
-1.00124e-09
1.66796e-09
-9.79207e-10
1.73517e-09
-9.5313e-10
1.80025e-09
-9.22933e-10
1.85815e-09
-8.8894e-10
1.92351e-09
-8.57974e-10
1.97877e-09
-8.17547e-10
2.03068e-09
-7.73575e-10
2.08037e-09
-7.26998e-10
2.12777e-09
-6.78455e-10
2.17176e-09
-6.27957e-10
2.21168e-09
-5.75306e-10
2.24737e-09
-5.20424e-10
2.28016e-09
-4.6346e-10
2.30733e-09
-4.04841e-10
2.33098e-09
-3.44684e-10
-2.83399e-10
2.35039e-09
3.75521e-12
-3.91058e-11
1.44482e-11
-1.17276e-10
3.14644e-11
-1.9486e-10
5.44776e-11
-2.71385e-10
8.31583e-11
-3.46383e-10
1.1712e-10
-4.19377e-10
1.56051e-10
-4.90058e-10
1.98775e-10
-5.58111e-10
2.48099e-10
-6.23745e-10
2.99844e-10
-6.85942e-10
3.55299e-10
-7.44643e-10
4.14168e-10
-7.99499e-10
4.7596e-10
-8.50301e-10
5.40352e-10
-8.96893e-10
6.07195e-10
-9.39409e-10
6.79956e-10
-9.77956e-10
7.50419e-10
-1.01612e-09
8.23088e-10
-1.04717e-09
8.95313e-10
-1.07238e-09
9.74591e-10
-1.08994e-09
1.05022e-09
-1.10668e-09
1.12662e-09
-1.11866e-09
1.20325e-09
-1.12581e-09
1.28003e-09
-1.12783e-09
1.35297e-09
-1.12482e-09
1.43482e-09
-1.12035e-09
1.50872e-09
-1.10937e-09
1.58142e-09
-1.09361e-09
1.65336e-09
-1.07341e-09
1.72477e-09
-1.049e-09
1.79455e-09
-1.02038e-09
1.86208e-09
-9.87953e-10
1.91553e-09
-9.52456e-10
1.98896e-09
-9.18422e-10
2.04635e-09
-8.76654e-10
2.09967e-09
-8.30392e-10
2.15013e-09
-7.80333e-10
2.19841e-09
-7.27605e-10
2.2436e-09
-6.72821e-10
2.28487e-09
-6.15918e-10
2.32185e-09
-5.56931e-10
2.35558e-09
-4.95873e-10
2.38365e-09
-4.33195e-10
2.40787e-09
-3.68676e-10
-3.02954e-10
2.42771e-09
3.89852e-12
-4.28494e-11
1.49528e-11
-1.2797e-10
3.25596e-11
-2.12082e-10
5.63992e-11
-2.94772e-10
8.62029e-11
-3.75611e-10
1.21414e-10
-4.54035e-10
1.61752e-10
-5.29936e-10
2.05494e-10
-6.02974e-10
2.56731e-10
-6.72684e-10
3.10302e-10
-7.39188e-10
3.67836e-10
-8.01832e-10
4.28902e-10
-8.60202e-10