/*--------------------------------*- C++ -*----------------------------------*\
  =========                 |
  \\      /  F ield         | OpenFOAM: The Open Source CFD Toolbox
   \\    /   O peration     | Website:  https://openfoam.org
    \\  /    A nd           | Version:  7
     \\/     M anipulation  |
\*---------------------------------------------------------------------------*/
FoamFile
{
    version     2.0;
    format      ascii;
    class       volVectorField;
    location    "2.4";
    object      U;
}
// * * * * * * * * * * * * * * * * * * * * * * * * * * * * * * * * * * * * * //

dimensions      [0 1 -1 0 0 0 0];

internalField   nonuniform List<vector> 
11050
(
(-3.49924e-11 2.88371e-11 0)
(-1.24243e-10 1.0018e-10 0)
(-2.62621e-10 1.25522e-10 0)
(-4.17517e-10 1.18102e-10 0)
(-5.22827e-10 9.62602e-11 0)
(-5.55714e-10 7.21723e-11 0)
(-5.06955e-10 5.5253e-11 0)
(-2.40596e-10 4.28433e-11 0)
(2.11291e-10 -1.01872e-11 0)
(6.49469e-10 -5.95742e-11 0)
(1.12534e-09 -1.00424e-10 0)
(1.72377e-09 -1.33685e-10 0)
(2.42321e-09 -1.60732e-10 0)
(3.19561e-09 -1.80393e-10 0)
(4.0296e-09 -1.88459e-10 0)
(5.04792e-09 -1.87874e-10 0)
(6.19022e-09 -2.22375e-10 0)
(7.2647e-09 -2.46521e-10 0)
(8.34623e-09 -2.6957e-10 0)
(9.50776e-09 -2.91673e-10 0)
(1.07151e-08 -3.0841e-10 0)
(1.19393e-08 -3.16457e-10 0)
(1.31653e-08 -3.14473e-10 0)
(1.43905e-08 -3.0153e-10 0)
(1.57147e-08 -2.83418e-10 0)
(1.71205e-08 -2.94548e-10 0)
(1.84277e-08 -3.08852e-10 0)
(1.9656e-08 -3.15383e-10 0)
(2.08878e-08 -3.14016e-10 0)
(2.21064e-08 -3.06411e-10 0)
(2.32889e-08 -2.92424e-10 0)
(2.44255e-08 -2.69597e-10 0)
(2.561e-08 -2.41632e-10 0)
(2.68186e-08 -2.41428e-10 0)
(2.78899e-08 -2.41903e-10 0)
(2.88546e-08 -2.35983e-10 0)
(2.97839e-08 -2.2366e-10 0)
(3.0663e-08 -2.06258e-10 0)
(3.14716e-08 -1.83345e-10 0)
(3.2202e-08 -1.52449e-10 0)
(3.29452e-08 -1.17036e-10 0)
(3.36793e-08 -1.08168e-10 0)
(3.42555e-08 -1.00424e-10 0)
(3.47059e-08 -8.73771e-11 0)
(3.50985e-08 -6.89563e-11 0)
(-5.72558e-11 1.88825e-10 0)
(-2.1229e-10 4.20586e-10 0)
(-4.26533e-10 4.76874e-10 0)
(-6.07872e-10 4.11668e-10 0)
(-6.43073e-10 2.78592e-10 0)
(-4.74329e-10 1.14988e-10 0)
(-6.21802e-11 -5.42965e-11 0)
(7.56991e-10 -2.27439e-10 0)
(1.97586e-09 -4.65669e-10 0)
(3.33521e-09 -6.99229e-10 0)
(4.84946e-09 -9.16138e-10 0)
(6.64418e-09 -1.1129e-09 0)
(8.69823e-09 -1.28925e-09 0)
(1.09747e-08 -1.44121e-09 0)
(1.34607e-08 -1.56171e-09 0)
(1.62828e-08 -1.65828e-09 0)
(1.93889e-08 -1.81779e-09 0)
(2.25034e-08 -1.9322e-09 0)
(2.56534e-08 -2.03995e-09 0)
(2.89614e-08 -2.14034e-09 0)
(3.2391e-08 -2.22201e-09 0)
(3.58942e-08 -2.27623e-09 0)
(3.94391e-08 -2.30048e-09 0)
(4.30172e-08 -2.29575e-09 0)
(4.67327e-08 -2.27658e-09 0)
(5.05647e-08 -2.28832e-09 0)
(5.42706e-08 -2.3049e-09 0)
(5.78392e-08 -2.30172e-09 0)
(6.13778e-08 -2.2755e-09 0)
(6.48658e-08 -2.22819e-09 0)
(6.827e-08 -2.16034e-09 0)
(7.15786e-08 -2.07047e-09 0)
(7.48911e-08 -1.96896e-09 0)
(7.8183e-08 -1.90147e-09 0)
(8.12351e-08 -1.83324e-09 0)
(8.40488e-08 -1.74977e-09 0)
(8.67234e-08 -1.64866e-09 0)
(8.92431e-08 -1.53167e-09 0)
(9.15812e-08 -1.39878e-09 0)
(9.37312e-08 -1.24827e-09 0)
(9.57921e-08 -1.08986e-09 0)
(9.77447e-08 -9.67388e-10 0)
(9.93893e-08 -8.47327e-10 0)
(1.00734e-07 -7.17068e-10 0)
(1.01878e-07 -5.7433e-10 0)
(-5.23694e-11 4.36519e-10 0)
(-1.78322e-10 8.25451e-10 0)
(-3.10544e-10 8.59454e-10 0)
(-3.32276e-10 6.48728e-10 0)
(-1.10531e-10 2.81171e-10 0)
(4.30096e-10 -1.78758e-10 0)
(1.34516e-09 -6.88367e-10 0)
(2.8016e-09 -1.22791e-09 0)
(4.81039e-09 -1.81116e-09 0)
(7.10628e-09 -2.39016e-09 0)
(9.68151e-09 -2.94922e-09 0)
(1.26696e-08 -3.47646e-09 0)
(1.6051e-08 -3.96548e-09 0)
(1.97875e-08 -4.40836e-09 0)
(2.38602e-08 -4.79875e-09 0)
(2.83568e-08 -5.14315e-09 0)
(3.32696e-08 -5.54568e-09 0)
(3.82959e-08 -5.84133e-09 0)
(4.33878e-08 -6.10991e-09 0)
(4.87049e-08 -6.3515e-09 0)
(5.42105e-08 -6.55109e-09 0)
(5.98425e-08 -6.70108e-09 0)
(6.55547e-08 -6.79999e-09 0)
(7.1326e-08 -6.85133e-09 0)
(7.72537e-08 -6.86915e-09 0)
(8.33028e-08 -6.86461e-09 0)
(8.92146e-08 -6.84907e-09 0)
(9.49676e-08 -6.79816e-09 0)
(1.0066e-07 -6.70642e-09 0)
(1.06264e-07 -6.57402e-09 0)
(1.11741e-07 -6.40255e-09 0)
(1.17071e-07 -6.19548e-09 0)
(1.22348e-07 -5.96509e-09 0)
(1.27541e-07 -5.72792e-09 0)
(1.32416e-07 -5.47762e-09 0)
(1.36958e-07 -5.20132e-09 0)
(1.41264e-07 -4.8954e-09 0)
(1.45316e-07 -4.56078e-09 0)
(1.49085e-07 -4.19907e-09 0)
(1.5256e-07 -3.81354e-09 0)
(1.55834e-07 -3.41571e-09 0)
(1.58889e-07 -3.02358e-09 0)
(1.61512e-07 -2.62801e-09 0)
(1.637e-07 -2.21929e-09 0)
(1.65553e-07 -1.7942e-09 0)
(-3.06772e-11 6.29902e-10 0)
(-5.9223e-11 1.1051e-09 0)
(5.03916e-12 1.03862e-09 0)
(2.71358e-10 5.91228e-10 0)
(8.78616e-10 -1.15524e-10 0)
(1.91046e-09 -9.88648e-10 0)
(3.42832e-09 -1.96122e-09 0)
(5.59712e-09 -2.99041e-09 0)
(8.44254e-09 -4.05981e-09 0)
(1.17017e-08 -5.1214e-09 0)
(1.53525e-08 -6.15069e-09 0)
(1.95305e-08 -7.13146e-09 0)
(2.42173e-08 -8.05148e-09 0)
(2.93739e-08 -8.89822e-09 0)
(3.4974e-08 -9.66526e-09 0)
(4.10379e-08 -1.03549e-08 0)
(4.76509e-08 -1.11122e-08 0)
(5.44997e-08 -1.16794e-08 0)
(6.14189e-08 -1.2183e-08 0)
(6.86239e-08 -1.2624e-08 0)
(7.60774e-08 -1.29855e-08 0)
(8.37025e-08 -1.32669e-08 0)
(9.14412e-08 -1.347e-08 0)
(9.92604e-08 -1.35958e-08 0)
(1.07252e-07 -1.36507e-08 0)
(1.15361e-07 -1.36322e-08 0)
(1.23319e-07 -1.35709e-08 0)
(1.31108e-07 -1.34462e-08 0)
(1.38809e-07 -1.32552e-08 0)
(1.46388e-07 -1.2998e-08 0)
(1.53797e-07 -1.26766e-08 0)
(1.6101e-07 -1.22959e-08 0)
(1.68112e-07 -1.18659e-08 0)
(1.75067e-07 -1.13924e-08 0)
(1.81631e-07 -1.08814e-08 0)
(1.87783e-07 -1.03221e-08 0)
(1.93612e-07 -9.71547e-09 0)
(1.99095e-07 -9.06373e-09 0)
(2.04198e-07 -8.36993e-09 0)
(2.08906e-07 -7.63968e-09 0)
(2.13307e-07 -6.88261e-09 0)
(2.17381e-07 -6.10789e-09 0)
(2.20909e-07 -5.31598e-09 0)
(2.23884e-07 -4.50033e-09 0)
(2.26401e-07 -3.66241e-09 0)
(2.71572e-12 7.31182e-10 0)
(1.19155e-10 1.17079e-09 0)
(4.58544e-10 9.07405e-10 0)
(1.10103e-09 1.27341e-10 0)
(2.18402e-09 -1.01708e-09 0)
(3.79284e-09 -2.40431e-09 0)
(5.98901e-09 -3.94274e-09 0)
(8.93198e-09 -5.56496e-09 0)
(1.26567e-08 -7.22886e-09 0)
(1.69077e-08 -8.89053e-09 0)
(2.16514e-08 -1.04954e-08 0)
(2.70196e-08 -1.20286e-08 0)
(3.29956e-08 -1.34725e-08 0)
(3.95373e-08 -1.48122e-08 0)
(4.661e-08 -1.60435e-08 0)
(5.41434e-08 -1.71783e-08 0)
(6.23695e-08 -1.83471e-08 0)
(7.09739e-08 -1.92815e-08 0)
(7.9629e-08 -2.00961e-08 0)
(8.86271e-08 -2.07925e-08 0)
(9.79213e-08 -2.13412e-08 0)
(1.07418e-07 -2.1778e-08 0)
(1.17056e-07 -2.21029e-08 0)
(1.26797e-07 -2.23136e-08 0)
(1.36728e-07 -2.24068e-08 0)
(1.46763e-07 -2.237e-08 0)
(1.56631e-07 -2.22568e-08 0)
(1.6632e-07 -2.20367e-08 0)
(1.75898e-07 -2.17162e-08 0)
(1.85322e-07 -2.12974e-08 0)
(1.94536e-07 -2.07819e-08 0)
(2.03507e-07 -2.01745e-08 0)
(2.12314e-07 -1.94823e-08 0)
(2.2091e-07 -1.87093e-08 0)
(2.29049e-07 -1.78715e-08 0)
(2.36706e-07 -1.69492e-08 0)
(2.43956e-07 -1.59559e-08 0)
(2.50775e-07 -1.48968e-08 0)
(2.57123e-07 -1.3776e-08 0)
(2.62981e-07 -1.26002e-08 0)
(2.68432e-07 -1.13774e-08 0)
(2.73453e-07 -1.0115e-08 0)
(2.77826e-07 -8.82273e-09 0)
(2.81536e-07 -7.48616e-09 0)
(2.84674e-07 -6.11852e-09 0)
(4.1303e-11 7.10674e-10 0)
(3.37324e-10 9.68654e-10 0)
(1.00646e-09 4.03309e-10 0)
(2.07968e-09 -8.08345e-10 0)
(3.69861e-09 -2.48916e-09 0)
(5.9445e-09 -4.48855e-09 0)
(8.87465e-09 -6.69142e-09 0)
(1.26438e-08 -9.00955e-09 0)
(1.72799e-08 -1.13654e-08 0)
(2.25474e-08 -1.37277e-08 0)
(2.84073e-08 -1.59895e-08 0)
(3.49687e-08 -1.81577e-08 0)
(4.22203e-08 -2.02061e-08 0)
(5.01133e-08 -2.21179e-08 0)
(5.85938e-08 -2.39034e-08 0)
(6.75414e-08 -2.55656e-08 0)
(7.73094e-08 -2.71724e-08 0)
(8.75829e-08 -2.85325e-08 0)
(9.79117e-08 -2.97103e-08 0)
(1.08643e-07 -3.05929e-08 0)
(1.19695e-07 -3.13714e-08 0)
(1.30948e-07 -3.19948e-08 0)
(1.42371e-07 -3.24626e-08 0)
(1.5392e-07 -3.27749e-08 0)
(1.65683e-07 -3.29389e-08 0)
(1.77528e-07 -3.29469e-08 0)
(1.89185e-07 -3.27975e-08 0)
(2.00663e-07 -3.24596e-08 0)
(2.11999e-07 -3.19801e-08 0)
(2.2315e-07 -3.13638e-08 0)
(2.34056e-07 -3.06114e-08 0)
(2.44675e-07 -2.97282e-08 0)
(2.5508e-07 -2.87214e-08 0)
(2.65209e-07 -2.75918e-08 0)
(2.74825e-07 -2.63631e-08 0)
(2.83895e-07 -2.4995e-08 0)
(2.92474e-07 -2.35318e-08 0)
(3.00541e-07 -2.19795e-08 0)
(3.08053e-07 -2.03419e-08 0)
(3.14986e-07 -1.86272e-08 0)
(3.21421e-07 -1.68447e-08 0)
(3.27323e-07 -1.4997e-08 0)
(3.32486e-07 -1.31051e-08 0)
(3.3689e-07 -1.11333e-08 0)
(3.40606e-07 -9.12399e-09 0)
(8.47245e-11 5.92639e-10 0)
(5.8782e-10 6.19211e-10 0)
(1.62144e-09 -3.5531e-10 0)
(3.15257e-09 -2.11713e-09 0)
(5.34183e-09 -4.44396e-09 0)
(8.26268e-09 -7.15825e-09 0)
(1.19603e-08 -1.01256e-08 0)
(1.65949e-08 -1.32505e-08 0)
(2.21736e-08 -1.64222e-08 0)
(2.84917e-08 -1.94942e-08 0)
(3.54935e-08 -2.24857e-08 0)
(4.32426e-08 -2.54007e-08 0)
(5.17544e-08 -2.81923e-08 0)
(6.09554e-08 -3.08337e-08 0)
(7.0792e-08 -3.32969e-08 0)
(8.11329e-08 -3.556e-08 0)
(9.23972e-08 -3.71696e-08 0)
(1.04263e-07 -3.90056e-08 0)
(1.16314e-07 -4.05969e-08 0)
(1.28706e-07 -4.18865e-08 0)
(1.4132e-07 -4.29619e-08 0)
(1.54242e-07 -4.38179e-08 0)
(1.6735e-07 -4.44533e-08 0)
(1.80586e-07 -4.48776e-08 0)
(1.9403e-07 -4.51198e-08 0)
(2.07591e-07 -4.52167e-08 0)
(2.21004e-07 -4.49807e-08 0)
(2.34194e-07 -4.44999e-08 0)
(2.47181e-07 -4.38361e-08 0)
(2.59955e-07 -4.29844e-08 0)
(2.7245e-07 -4.19489e-08 0)
(2.84615e-07 -4.07428e-08 0)
(2.96522e-07 -3.93876e-08 0)
(3.08093e-07 -3.78837e-08 0)
(3.19112e-07 -3.61541e-08 0)
(3.29519e-07 -3.4262e-08 0)
(3.39336e-07 -3.22564e-08 0)
(3.48569e-07 -3.0132e-08 0)
(3.5717e-07 -2.78928e-08 0)
(3.65107e-07 -2.55531e-08 0)
(3.72463e-07 -2.31358e-08 0)
(3.79192e-07 -2.06415e-08 0)
(3.8511e-07 -1.80062e-08 0)
(3.90171e-07 -1.52912e-08 0)
(3.94421e-07 -1.25418e-08 0)
(2.01617e-10 5.75278e-10 0)
(9.29105e-10 2.23576e-10 0)
(2.26015e-09 -1.36209e-09 0)
(4.25164e-09 -3.82335e-09 0)
(7.03901e-09 -6.91079e-09 0)
(1.0661e-08 -1.04332e-08 0)
(1.51377e-08 -1.42364e-08 0)
(2.0639e-08 -1.82047e-08 0)
(2.7275e-08 -2.22185e-08 0)
(3.47048e-08 -2.61228e-08 0)
(4.27578e-08 -2.99754e-08 0)
(5.16237e-08 -3.37023e-08 0)
(6.13323e-08 -3.72597e-08 0)
(7.18225e-08 -4.06267e-08 0)
(8.30384e-08 -4.37676e-08 0)
(9.52843e-08 -4.66497e-08 0)
(1.08008e-07 -4.87898e-08 0)
(1.20906e-07 -5.11116e-08 0)
(1.34458e-07 -5.31222e-08 0)
(1.48444e-07 -5.48987e-08 0)
(1.62722e-07 -5.63027e-08 0)
(1.77253e-07 -5.74065e-08 0)
(1.9198e-07 -5.82162e-08 0)
(2.0682e-07 -5.87372e-08 0)
(2.21821e-07 -5.89839e-08 0)
(2.37055e-07 -5.89851e-08 0)
(2.52188e-07 -5.86236e-08 0)
(2.66967e-07 -5.8025e-08 0)
(2.8151e-07 -5.71694e-08 0)
(2.95822e-07 -5.60565e-08 0)
(3.09814e-07 -5.46994e-08 0)
(3.23415e-07 -5.3114e-08 0)
(3.36701e-07 -5.13213e-08 0)
(3.49697e-07 -4.9334e-08 0)
(3.62092e-07 -4.70632e-08 0)
(3.73719e-07 -4.46369e-08 0)
(3.84689e-07 -4.20394e-08 0)
(3.9502e-07 -3.92735e-08 0)
(4.04643e-07 -3.6353e-08 0)
(4.13507e-07 -3.32946e-08 0)
(4.21701e-07 -3.01213e-08 0)
(4.29269e-07 -2.68431e-08 0)
(4.3594e-07 -2.33969e-08 0)
(4.41576e-07 -1.98965e-08 0)
(4.46313e-07 -1.63296e-08 0)
(2.2422e-10 4.48825e-10 0)
(1.09275e-09 -5.82038e-10 0)
(2.78809e-09 -2.94674e-09 0)
(5.32441e-09 -6.23067e-09 0)
(8.757e-09 -1.01847e-08 0)
(1.31194e-08 -1.46051e-08 0)
(1.84293e-08 -1.93174e-08 0)
(2.48528e-08 -2.41726e-08 0)
(3.2469e-08 -2.90672e-08 0)
(4.09222e-08 -3.39694e-08 0)
(5.00966e-08 -3.87666e-08 0)
(6.01731e-08 -4.33455e-08 0)
(7.11263e-08 -4.76756e-08 0)
(8.28828e-08 -5.17419e-08 0)
(9.54055e-08 -5.55394e-08 0)
(1.09013e-07 -5.90475e-08 0)
(1.23165e-07 -6.22663e-08 0)
(1.37549e-07 -6.5078e-08 0)
(1.52588e-07 -6.75119e-08 0)
(1.68079e-07 -6.96098e-08 0)
(1.839e-07 -7.13402e-08 0)
(1.99987e-07 -7.26955e-08 0)
(2.16276e-07 -7.36821e-08 0)
(2.32691e-07 -7.42938e-08 0)
(2.49279e-07 -7.45248e-08 0)
(2.66072e-07 -7.43613e-08 0)
(2.82695e-07 -7.39255e-08 0)
(2.98968e-07 -7.31973e-08 0)
(3.15023e-07 -7.2124e-08 0)
(3.3081e-07 -7.07215e-08 0)
(3.46237e-07 -6.90073e-08 0)
(3.61233e-07 -6.69925e-08 0)
(3.75866e-07 -6.46831e-08 0)
(3.90159e-07 -6.20983e-08 0)
(4.03769e-07 -5.92986e-08 0)
(4.16555e-07 -5.62878e-08 0)
(4.28656e-07 -5.30308e-08 0)
(4.40041e-07 -4.95521e-08 0)
(4.50642e-07 -4.58739e-08 0)
(4.60411e-07 -4.20109e-08 0)
(4.6943e-07 -3.79727e-08 0)
(4.77737e-07 -3.37795e-08 0)
(4.85035e-07 -2.95012e-08 0)
(4.91225e-07 -2.5137e-08 0)
(4.96456e-07 -2.066e-08 0)
(2.01123e-10 -1.01757e-11 0)
(1.20455e-09 -1.91187e-09 0)
(3.30455e-09 -5.14954e-09 0)
(6.3884e-09 -9.36314e-09 0)
(1.04744e-08 -1.42904e-08 0)
(1.55914e-08 -1.97095e-08 0)
(2.17554e-08 -2.54327e-08 0)
(2.91066e-08 -3.12987e-08 0)
(3.76714e-08 -3.72165e-08 0)
(4.7145e-08 -4.31177e-08 0)
(5.74605e-08 -4.88675e-08 0)
(6.87426e-08 -5.43731e-08 0)
(8.09361e-08 -5.95875e-08 0)
(9.3964e-08 -6.4476e-08 0)
(1.07782e-07 -6.90145e-08 0)
(1.22695e-07 -7.31906e-08 0)
(1.38247e-07 -7.70658e-08 0)
(1.54105e-07 -8.04054e-08 0)
(1.70586e-07 -8.33129e-08 0)
(1.87528e-07 -8.58144e-08 0)
(2.04834e-07 -8.78854e-08 0)
(2.22421e-07 -8.95165e-08 0)
(2.40224e-07 -9.06967e-08 0)
(2.58164e-07 -9.14116e-08 0)
(2.76291e-07 -9.16649e-08 0)
(2.94539e-07 -9.14532e-08 0)
(3.1257e-07 -9.09144e-08 0)
(3.303e-07 -8.99829e-08 0)
(3.478e-07 -8.86446e-08 0)
(3.64996e-07 -8.69141e-08 0)
(3.81797e-07 -8.48046e-08 0)
(3.98133e-07 -8.2328e-08 0)
(4.14065e-07 -7.94935e-08 0)
(4.29555e-07 -7.63221e-08 0)
(4.44298e-07 -7.29022e-08 0)
(4.58215e-07 -6.91903e-08 0)
(4.71391e-07 -6.51887e-08 0)
(4.83777e-07 -6.09233e-08 0)
(4.9531e-07 -5.64156e-08 0)
(5.05945e-07 -5.16823e-08 0)
(5.15759e-07 -4.67363e-08 0)
(5.24733e-07 -4.16076e-08 0)
(5.32609e-07 -3.6375e-08 0)
(5.39345e-07 -3.10091e-08 0)
(5.45043e-07 -2.55169e-08 0)
(2.08268e-10 -5.86255e-10 0)
(1.36312e-09 -3.5205e-09 0)
(3.83927e-09 -7.79477e-09 0)
(7.4491e-09 -1.30712e-08 0)
(1.21799e-08 -1.90838e-08 0)
(1.80484e-08 -2.56018e-08 0)
(2.50596e-08 -3.24289e-08 0)
(3.33225e-08 -3.94e-08 0)
(4.28563e-08 -4.64137e-08 0)
(5.33765e-08 -5.33441e-08 0)
(6.48138e-08 -6.00954e-08 0)
(7.72791e-08 -6.65738e-08 0)
(9.07035e-08 -7.27164e-08 0)
(1.05001e-07 -7.84714e-08 0)
(1.20121e-07 -8.38041e-08 0)
(1.363e-07 -8.86911e-08 0)
(1.53226e-07 -9.32376e-08 0)
(1.70543e-07 -9.71352e-08 0)
(1.88413e-07 -1.00544e-07 0)
(2.06759e-07 -1.03471e-07 0)
(2.25493e-07 -1.05905e-07 0)
(2.44531e-07 -1.07829e-07 0)
(2.63811e-07 -1.09218e-07 0)
(2.83235e-07 -1.10029e-07 0)
(3.02835e-07 -1.10302e-07 0)
(3.22499e-07 -1.10038e-07 0)
(3.41908e-07 -1.09336e-07 0)
(3.61028e-07 -1.08169e-07 0)
(3.79901e-07 -1.06533e-07 0)
(3.98445e-07 -1.04441e-07 0)
(4.16561e-07 -1.01903e-07 0)
(4.34176e-07 -9.89299e-08 0)
(4.5134e-07 -9.5538e-08 0)
(4.6799e-07 -9.17576e-08 0)
(4.8384e-07 -8.76289e-08 0)
(4.9883e-07 -8.3152e-08 0)
(5.13021e-07 -7.83395e-08 0)
(5.26359e-07 -7.32187e-08 0)
(5.38778e-07 -6.78127e-08 0)
(5.50233e-07 -6.21416e-08 0)
(5.6079e-07 -5.62256e-08 0)
(5.70414e-07 -5.0107e-08 0)
(5.78864e-07 -4.38123e-08 0)
(5.8611e-07 -3.73591e-08 0)
(5.9224e-07 -3.0765e-08 0)
(2.32763e-10 -1.22874e-09 0)
(1.54798e-09 -5.39123e-09 0)
(4.3837e-09 -1.08783e-08 0)
(8.50377e-09 -1.73536e-08 0)
(1.38658e-08 -2.45657e-08 0)
(2.04751e-08 -3.22828e-08 0)
(2.83239e-08 -4.03023e-08 0)
(3.7494e-08 -4.84514e-08 0)
(4.80044e-08 -5.66016e-08 0)
(5.9571e-08 -6.46367e-08 0)
(7.2117e-08 -7.24552e-08 0)
(8.57523e-08 -7.99445e-08 0)
(1.00395e-07 -8.70439e-08 0)
(1.15951e-07 -9.36964e-08 0)
(1.32358e-07 -9.98608e-08 0)
(1.49784e-07 -1.05519e-07 0)
(1.68067e-07 -1.10757e-07 0)
(1.86819e-07 -1.15258e-07 0)
(2.06043e-07 -1.19184e-07 0)
(2.25749e-07 -1.22549e-07 0)
(2.4586e-07 -1.25344e-07 0)
(2.66307e-07 -1.27547e-07 0)
(2.87046e-07 -1.29014e-07 0)
(3.07929e-07 -1.29908e-07 0)
(3.28957e-07 -1.3022e-07 0)
(3.49999e-07 -1.29977e-07 0)
(3.70741e-07 -1.29121e-07 0)
(3.91193e-07 -1.27713e-07 0)
(4.11384e-07 -1.2575e-07 0)
(4.31218e-07 -1.23258e-07 0)
(4.50596e-07 -1.20252e-07 0)
(4.69439e-07 -1.16743e-07 0)
(4.87783e-07 -1.12745e-07 0)
(5.05557e-07 -1.08296e-07 0)
(5.22482e-07 -1.03418e-07 0)
(5.385e-07 -9.81324e-08 0)
(5.53662e-07 -9.24476e-08 0)
(5.67907e-07 -8.64033e-08 0)
(5.8117e-07 -8.00296e-08 0)
(5.93406e-07 -7.33505e-08 0)
(6.04666e-07 -6.63885e-08 0)
(6.14918e-07 -5.91922e-08 0)
(6.23929e-07 -5.17724e-08 0)
(6.3166e-07 -4.41679e-08 0)
(6.38198e-07 -3.63924e-08 0)
(2.61718e-10 -1.97352e-09 0)
(1.73482e-09 -7.54985e-09 0)
(4.92522e-09 -1.44114e-08 0)
(9.55002e-09 -2.22098e-08 0)
(1.55271e-08 -3.07338e-08 0)
(2.28614e-08 -3.97513e-08 0)
(3.1535e-08 -4.90546e-08 0)
(4.16158e-08 -5.8463e-08 0)
(5.30961e-08 -6.78099e-08 0)
(6.56895e-08 -7.70254e-08 0)
(7.9345e-08 -8.59714e-08 0)
(9.4151e-08 -9.44986e-08 0)
(1.09998e-07 -1.02579e-07 0)
(1.26794e-07 -1.10151e-07 0)
(1.44457e-07 -1.17171e-07 0)
(1.63106e-07 -1.23608e-07 0)
(1.82733e-07 -1.29514e-07 0)
(2.02908e-07 -1.34689e-07 0)
(2.23468e-07 -1.39172e-07 0)
(2.44506e-07 -1.42944e-07 0)
(2.65967e-07 -1.46015e-07 0)
(2.87906e-07 -1.48384e-07 0)
(3.10071e-07 -1.50036e-07 0)
(3.32225e-07 -1.51057e-07 0)
(3.54536e-07 -1.51422e-07 0)
(3.76935e-07 -1.51218e-07 0)
(3.99063e-07 -1.50244e-07 0)
(4.20828e-07 -1.48593e-07 0)
(4.42303e-07 -1.46267e-07 0)
(4.6338e-07 -1.43334e-07 0)
(4.8397e-07 -1.39819e-07 0)
(5.03997e-07 -1.35734e-07 0)
(5.23479e-07 -1.3109e-07 0)
(5.4234e-07 -1.25917e-07 0)
(5.60303e-07 -1.2025e-07 0)
(5.77317e-07 -1.14111e-07 0)
(5.93423e-07 -1.07486e-07 0)
(6.08536e-07 -1.00451e-07 0)
(6.22604e-07 -9.30417e-08 0)
(6.35586e-07 -8.52877e-08 0)
(6.47519e-07 -7.72138e-08 0)
(6.58374e-07 -6.88565e-08 0)
(6.6792e-07 -6.02519e-08 0)
(6.7612e-07 -5.14312e-08 0)
(6.83056e-07 -4.23902e-08 0)
(2.8802e-10 -2.81565e-09 0)
(1.91219e-09 -9.94316e-09 0)
(5.46487e-09 -1.82477e-08 0)
(1.05931e-08 -2.74869e-08 0)
(1.71606e-08 -3.74466e-08 0)
(2.51978e-08 -4.78771e-08 0)
(3.46768e-08 -5.85655e-08 0)
(4.56683e-08 -6.93353e-08 0)
(5.8108e-08 -7.99912e-08 0)
(7.17077e-08 -9.0454e-08 0)
(8.6491e-08 -1.00501e-07 0)
(1.02476e-07 -1.10139e-07 0)
(1.19508e-07 -1.19304e-07 0)
(1.37522e-07 -1.27895e-07 0)
(1.56436e-07 -1.35826e-07 0)
(1.7633e-07 -1.43035e-07 0)
(1.97215e-07 -1.49404e-07 0)
(2.18725e-07 -1.5527e-07 0)
(2.40686e-07 -1.60344e-07 0)
(2.63137e-07 -1.64576e-07 0)
(2.85982e-07 -1.67981e-07 0)
(3.09181e-07 -1.70583e-07 0)
(3.326e-07 -1.72528e-07 0)
(3.56099e-07 -1.73686e-07 0)
(3.79677e-07 -1.74074e-07 0)
(4.03377e-07 -1.73784e-07 0)
(4.26873e-07 -1.72651e-07 0)
(4.49969e-07 -1.70678e-07 0)
(4.72715e-07 -1.67986e-07 0)
(4.9499e-07 -1.64586e-07 0)
(5.16745e-07 -1.60508e-07 0)
(5.3791e-07 -1.5579e-07 0)
(5.585e-07 -1.50465e-07 0)
(5.78414e-07 -1.44546e-07 0)
(5.97378e-07 -1.38048e-07 0)
(6.15378e-07 -1.30945e-07 0)
(6.32408e-07 -1.23342e-07 0)
(6.48351e-07 -1.15275e-07 0)
(6.63187e-07 -1.0677e-07 0)
(6.76877e-07 -9.78687e-08 0)
(6.89462e-07 -8.86203e-08 0)
(7.00897e-07 -7.90447e-08 0)
(7.10949e-07 -6.919e-08 0)
(7.19619e-07 -5.90173e-08 0)
(7.26948e-07 -4.86435e-08 0)
(3.24413e-10 -3.61632e-09 0)
(2.16096e-09 -1.23619e-08 0)
(6.07072e-09 -2.22651e-08 0)
(1.162e-08 -3.31366e-08 0)
(1.87404e-08 -4.46694e-08 0)
(2.74598e-08 -5.66153e-08 0)
(3.77152e-08 -6.87656e-08 0)
(4.95848e-08 -8.09481e-08 0)
(6.299e-08 -9.29757e-08 0)
(7.76949e-08 -1.04686e-07 0)
(9.3584e-08 -1.15936e-07 0)
(1.10605e-07 -1.26755e-07 0)
(1.28769e-07 -1.3702e-07 0)
(1.4802e-07 -1.46639e-07 0)
(1.6825e-07 -1.55533e-07 0)
(1.89619e-07 -1.63638e-07 0)
(2.11724e-07 -1.70678e-07 0)
(2.34314e-07 -1.7721e-07 0)
(2.57618e-07 -1.82875e-07 0)
(2.81429e-07 -1.87631e-07 0)
(3.05618e-07 -1.91465e-07 0)
(3.30111e-07 -1.94397e-07 0)
(3.5481e-07 -1.96483e-07 0)
(3.79606e-07 -1.97702e-07 0)
(4.04445e-07 -1.98069e-07 0)
(4.29438e-07 -1.97474e-07 0)
(4.54312e-07 -1.96089e-07 0)
(4.78686e-07 -1.93821e-07 0)
(5.02625e-07 -1.90756e-07 0)
(5.26104e-07 -1.86874e-07 0)
(5.49009e-07 -1.82213e-07 0)
(5.71254e-07 -1.76825e-07 0)
(5.92879e-07 -1.7076e-07 0)
(6.13822e-07 -1.64004e-07 0)
(6.33842e-07 -1.56581e-07 0)
(6.52796e-07 -1.48505e-07 0)
(6.70659e-07 -1.399e-07 0)
(6.87419e-07 -1.30756e-07 0)
(7.03018e-07 -1.21103e-07 0)
(7.17387e-07 -1.10994e-07 0)
(7.30583e-07 -1.00494e-07 0)
(7.42577e-07 -8.9601e-08 0)
(7.53191e-07 -7.83858e-08 0)
(7.6232e-07 -6.68409e-08 0)
(7.6996e-07 -5.50962e-08 0)
(3.6991e-10 -4.45606e-09 0)
(2.37397e-09 -1.50027e-08 0)
(6.56543e-09 -2.67713e-08 0)
(1.25466e-08 -3.94311e-08 0)
(2.02638e-08 -5.26525e-08 0)
(2.96789e-08 -6.62076e-08 0)
(4.07173e-08 -7.98923e-08 0)
(5.34559e-08 -9.35206e-08 0)
(6.78457e-08 -1.06939e-07 0)
(8.3578e-08 -1.1997e-07 0)
(1.00503e-07 -1.32581e-07 0)
(1.18637e-07 -1.44621e-07 0)
(1.37962e-07 -1.55977e-07 0)
(1.58384e-07 -1.66606e-07 0)
(1.79802e-07 -1.7647e-07 0)
(2.02502e-07 -1.85514e-07 0)
(2.25884e-07 -1.93458e-07 0)
(2.49672e-07 -2.00634e-07 0)
(2.74294e-07 -2.06863e-07 0)
(2.99447e-07 -2.12114e-07 0)
(3.24979e-07 -2.16353e-07 0)
(3.50781e-07 -2.19572e-07 0)
(3.76763e-07 -2.21797e-07 0)
(4.02823e-07 -2.23038e-07 0)
(4.2905e-07 -2.23316e-07 0)
(4.55333e-07 -2.22421e-07 0)
(4.81323e-07 -2.20762e-07 0)
(5.06912e-07 -2.1823e-07 0)
(5.32073e-07 -2.14767e-07 0)
(5.5673e-07 -2.10389e-07 0)
(5.80762e-07 -2.05131e-07 0)
(6.04083e-07 -1.99036e-07 0)
(6.26771e-07 -1.92143e-07 0)
(6.48748e-07 -1.8446e-07 0)
(6.6971e-07 -1.76056e-07 0)
(6.89541e-07 -1.67022e-07 0)
(7.08254e-07 -1.57356e-07 0)
(7.25826e-07 -1.47073e-07 0)
(7.42169e-07 -1.36218e-07 0)
(7.57207e-07 -1.2484e-07 0)
(7.71035e-07 -1.12993e-07 0)
(7.83599e-07 -1.00691e-07 0)
(7.9467e-07 -8.80433e-08 0)
(8.04187e-07 -7.51241e-08 0)
(8.12175e-07 -6.19403e-08 0)
(3.78326e-10 -5.53002e-09 0)
(2.48335e-09 -1.81322e-08 0)
(6.97151e-09 -3.18825e-08 0)
(1.34302e-08 -4.64031e-08 0)
(2.17429e-08 -6.14121e-08 0)
(3.18501e-08 -7.66802e-08 0)
(4.36788e-08 -9.19982e-08 0)
(5.72842e-08 -1.07173e-07 0)
(7.26044e-08 -1.22095e-07 0)
(8.93033e-08 -1.36566e-07 0)
(1.07259e-07 -1.50531e-07 0)
(1.26517e-07 -1.63825e-07 0)
(1.46995e-07 -1.7635e-07 0)
(1.68577e-07 -1.88056e-07 0)
(1.91177e-07 -1.98892e-07 0)
(2.15206e-07 -2.08799e-07 0)
(2.39886e-07 -2.17576e-07 0)
(2.64869e-07 -2.25353e-07 0)
(2.90753e-07 -2.32114e-07 0)
(3.17192e-07 -2.37849e-07 0)
(3.44039e-07 -2.4251e-07 0)
(3.7116e-07 -2.46056e-07 0)
(3.98444e-07 -2.48472e-07 0)
(4.25788e-07 -2.49752e-07 0)
(4.53357e-07 -2.49892e-07 0)
(4.80875e-07 -2.48851e-07 0)
(5.07968e-07 -2.46901e-07 0)
(5.34722e-07 -2.43991e-07 0)
(5.61076e-07 -2.40089e-07 0)
(5.86909e-07 -2.35188e-07 0)
(6.12078e-07 -2.293e-07 0)
(6.36493e-07 -2.22454e-07 0)
(6.60228e-07 -2.14688e-07 0)
(6.83186e-07 -2.0611e-07 0)
(7.05042e-07 -1.96707e-07 0)
(7.25725e-07 -1.86592e-07 0)
(7.45278e-07 -1.75774e-07 0)
(7.63644e-07 -1.64287e-07 0)
(7.80728e-07 -1.52173e-07 0)
(7.96451e-07 -1.39466e-07 0)
(8.10902e-07 -1.26209e-07 0)
(8.23994e-07 -1.12495e-07 0)
(8.35489e-07 -9.83737e-08 0)
(8.45382e-07 -8.3934e-08 0)
(8.5371e-07 -6.92041e-08 0)
(3.88201e-10 -6.74028e-09 0)
(2.60569e-09 -2.15609e-08 0)
(7.39097e-09 -3.7382e-08 0)
(1.43034e-08 -5.38812e-08 0)
(2.31891e-08 -7.07874e-08 0)
(3.39739e-08 -8.78692e-08 0)
(4.65774e-08 -1.04916e-07 0)
(6.10045e-08 -1.2174e-07 0)
(7.72345e-08 -1.38263e-07 0)
(9.49247e-08 -1.5422e-07 0)
(1.13911e-07 -1.69558e-07 0)
(1.3427e-07 -1.84139e-07 0)
(1.55885e-07 -1.97855e-07 0)
(1.78624e-07 -2.1064e-07 0)
(2.02411e-07 -2.22439e-07 0)
(2.2769e-07 -2.33212e-07 0)
(2.53682e-07 -2.42955e-07 0)
(2.79933e-07 -2.51351e-07 0)
(3.07018e-07 -2.58644e-07 0)
(3.34673e-07 -2.64857e-07 0)
(3.62778e-07 -2.6994e-07 0)
(3.91199e-07 -2.73832e-07 0)
(4.1981e-07 -2.7648e-07 0)
(4.48503e-07 -2.77824e-07 0)
(4.77404e-07 -2.77829e-07 0)
(5.06123e-07 -2.76618e-07 0)
(5.34326e-07 -2.74317e-07 0)
(5.62207e-07 -2.7094e-07 0)
(5.89695e-07 -2.6652e-07 0)
(6.16671e-07 -2.61038e-07 0)
(6.42976e-07 -2.54481e-07 0)
(6.68495e-07 -2.46866e-07 0)
(6.93229e-07 -2.38224e-07 0)
(7.17149e-07 -2.28778e-07 0)
(7.39943e-07 -2.18322e-07 0)
(7.61473e-07 -2.07046e-07 0)
(7.8183e-07 -1.94989e-07 0)
(8.00954e-07 -1.82215e-07 0)
(8.18758e-07 -1.68769e-07 0)
(8.35162e-07 -1.54682e-07 0)
(8.50199e-07 -1.39993e-07 0)
(8.63813e-07 -1.24853e-07 0)
(8.75773e-07 -1.0918e-07 0)
(8.86038e-07 -9.31243e-08 0)
(8.94675e-07 -7.67614e-08 0)
(4.06729e-10 -8.00393e-09 0)
(2.74759e-09 -2.51872e-08 0)
(7.82091e-09 -4.32332e-08 0)
(1.51668e-08 -6.18513e-08 0)
(2.4608e-08 -8.07659e-08 0)
(3.60536e-08 -9.97612e-08 0)
(4.94143e-08 -1.18631e-07 0)
(6.46375e-08 -1.37189e-07 0)
(8.17601e-08 -1.5534e-07 0)
(1.00441e-07 -1.72845e-07 0)
(1.20451e-07 -1.89622e-07 0)
(1.41903e-07 -2.05539e-07 0)
(1.64661e-07 -2.20467e-07 0)
(1.88568e-07 -2.34333e-07 0)
(2.13525e-07 -2.47094e-07 0)
(2.39902e-07 -2.58722e-07 0)
(2.67205e-07 -2.69697e-07 0)
(2.94847e-07 -2.78906e-07 0)
(3.23095e-07 -2.86739e-07 0)
(3.51903e-07 -2.93229e-07 0)
(3.81211e-07 -2.98426e-07 0)
(4.10897e-07 -3.02345e-07 0)
(4.40847e-07 -3.04984e-07 0)
(4.70945e-07 -3.06341e-07 0)
(5.01177e-07 -3.06396e-07 0)
(5.31107e-07 -3.05697e-07 0)
(5.6047e-07 -3.03027e-07 0)
(5.89449e-07 -2.99149e-07 0)
(6.18014e-07 -2.94119e-07 0)
(6.4609e-07 -2.8796e-07 0)
(6.73499e-07 -2.80658e-07 0)
(7.00109e-07 -2.72235e-07 0)
(7.25782e-07 -2.62713e-07 0)
(7.50662e-07 -2.52356e-07 0)
(7.74455e-07 -2.40841e-07 0)
(7.96843e-07 -2.28369e-07 0)
(8.17996e-07 -2.15016e-07 0)
(8.37849e-07 -2.0086e-07 0)
(8.56337e-07 -1.85993e-07 0)
(8.73389e-07 -1.7046e-07 0)
(8.88973e-07 -1.54293e-07 0)
(9.0312e-07 -1.37683e-07 0)
(9.15593e-07 -1.20398e-07 0)
(9.26229e-07 -1.02676e-07 0)
(9.35154e-07 -8.4614e-08 0)
(4.31974e-10 -9.34655e-09 0)
(2.89793e-09 -2.9034e-08 0)
(8.2445e-09 -4.94521e-08 0)
(1.60161e-08 -7.03199e-08 0)
(2.60054e-08 -9.13418e-08 0)
(3.80909e-08 -1.12347e-07 0)
(5.21868e-08 -1.33138e-07 0)
(6.8208e-08 -1.53523e-07 0)
(8.62068e-08 -1.73338e-07 0)
(1.05847e-07 -1.92455e-07 0)
(1.26875e-07 -2.10735e-07 0)
(1.4943e-07 -2.28028e-07 0)
(1.7335e-07 -2.44188e-07 0)
(1.98432e-07 -2.59178e-07 0)
(2.24564e-07 -2.72971e-07 0)
(2.51682e-07 -2.85524e-07 0)
(2.80097e-07 -2.97202e-07 0)
(3.09457e-07 -3.07219e-07 0)
(3.39196e-07 -3.15736e-07 0)
(3.69397e-07 -3.2272e-07 0)
(3.99965e-07 -3.28249e-07 0)
(4.30823e-07 -3.32362e-07 0)
(4.61867e-07 -3.35062e-07 0)
(4.93008e-07 -3.36379e-07 0)
(5.23827e-07 -3.36368e-07 0)
(5.55134e-07 -3.35769e-07 0)
(5.86381e-07 -3.32903e-07 0)
(6.16492e-07 -3.28595e-07 0)
(6.46136e-07 -3.22935e-07 0)
(6.75265e-07 -3.16012e-07 0)
(7.03722e-07 -3.07883e-07 0)
(7.31357e-07 -2.98601e-07 0)
(7.57928e-07 -2.88191e-07 0)
(7.83752e-07 -2.7681e-07 0)
(8.0858e-07 -2.64236e-07 0)
(8.31873e-07 -2.50562e-07 0)
(8.53846e-07 -2.35854e-07 0)
(8.74423e-07 -2.20247e-07 0)
(8.9355e-07 -2.03871e-07 0)
(9.11203e-07 -1.86802e-07 0)
(9.27273e-07 -1.69075e-07 0)
(9.41964e-07 -1.50771e-07 0)
(9.54999e-07 -1.31988e-07 0)
(9.66008e-07 -1.12567e-07 0)
(9.75219e-07 -9.27597e-08 0)
(4.63232e-10 -1.07735e-08 0)
(3.04847e-09 -3.30883e-08 0)
(8.65282e-09 -5.59888e-08 0)
(1.68601e-08 -7.91599e-08 0)
(2.73948e-08 -1.02403e-07 0)
(4.00856e-08 -1.25547e-07 0)
(5.48826e-08 -1.48372e-07 0)
(7.17194e-08 -1.70684e-07 0)
(9.05889e-08 -1.92225e-07 0)
(1.11143e-07 -2.13036e-07 0)
(1.33192e-07 -2.32869e-07 0)
(1.56871e-07 -2.51602e-07 0)
(1.81942e-07 -2.6924e-07 0)
(2.08148e-07 -2.85622e-07 0)
(2.35403e-07 -3.00606e-07 0)
(2.63698e-07 -3.14118e-07 0)
(2.93291e-07 -3.25623e-07 0)
(3.23808e-07 -3.3642e-07 0)
(3.54771e-07 -3.45707e-07 0)
(3.86224e-07 -3.53413e-07 0)
(4.18043e-07 -3.59534e-07 0)
(4.50182e-07 -3.64085e-07 0)
(4.82546e-07 -3.67041e-07 0)
(5.14969e-07 -3.68403e-07 0)
(5.46731e-07 -3.6822e-07 0)
(5.79134e-07 -3.66807e-07 0)
(6.1183e-07 -3.63817e-07 0)
(6.43235e-07 -3.59164e-07 0)
(6.74059e-07 -3.52869e-07 0)
(7.04258e-07 -3.45417e-07 0)
(7.33695e-07 -3.36545e-07 0)
(7.62268e-07 -3.26348e-07 0)
(7.89739e-07 -3.14894e-07 0)
(8.16496e-07 -3.02094e-07 0)
(8.42314e-07 -2.88449e-07 0)
(8.66583e-07 -2.73298e-07 0)
(8.89434e-07 -2.57493e-07 0)
(9.10736e-07 -2.40609e-07 0)
(9.30483e-07 -2.22718e-07 0)
(9.48701e-07 -2.03969e-07 0)
(9.65352e-07 -1.84513e-07 0)
(9.80404e-07 -1.64398e-07 0)
(9.93857e-07 -1.43882e-07 0)
(1.0054e-06 -1.22747e-07 0)
(1.0149e-06 -1.01152e-07 0)
(4.99236e-10 -1.21663e-08 0)
(3.21134e-09 -3.71935e-08 0)
(9.12071e-09 -6.264e-08 0)
(1.7744e-08 -8.82309e-08 0)
(2.87285e-08 -1.13847e-07 0)
(4.19877e-08 -1.3923e-07 0)
(5.74753e-08 -1.64161e-07 0)
(7.51638e-08 -1.88462e-07 0)
(9.489e-08 -2.11822e-07 0)
(1.16323e-07 -2.34317e-07 0)
(1.39389e-07 -2.5573e-07 0)
(1.63991e-07 -2.75943e-07 0)
(1.90019e-07 -2.94966e-07 0)
(2.17428e-07 -3.12654e-07 0)
(2.46033e-07 -3.2887e-07 0)
(2.76174e-07 -3.43527e-07 0)
(3.06798e-07 -3.55756e-07 0)
(3.37829e-07 -3.67356e-07 0)
(3.70081e-07 -3.77296e-07 0)
(4.02845e-07 -3.855e-07 0)
(4.35947e-07 -3.91973e-07 0)
(4.69338e-07 -3.96758e-07 0)
(5.02932e-07 -3.99877e-07 0)
(5.3657e-07 -4.01342e-07 0)
(5.69528e-07 -4.01189e-07 0)
(6.03013e-07 -3.98391e-07 0)
(6.3688e-07 -3.95016e-07 0)
(6.69688e-07 -3.90159e-07 0)
(7.01541e-07 -3.83652e-07 0)
(7.32675e-07 -3.75525e-07 0)
(7.63324e-07 -3.65868e-07 0)
(7.93009e-07 -3.54757e-07 0)
(8.21678e-07 -3.42262e-07 0)
(8.49209e-07 -3.27972e-07 0)
(8.75929e-07 -3.12831e-07 0)
(9.00952e-07 -2.96721e-07 0)
(9.24254e-07 -2.79624e-07 0)
(9.46541e-07 -2.61358e-07 0)
(9.67184e-07 -2.4192e-07 0)
(9.86082e-07 -2.21503e-07 0)
(1.00323e-06 -2.00325e-07 0)
(1.01872e-06 -1.78517e-07 0)
(1.03254e-06 -1.55982e-07 0)
(1.04442e-06 -1.33054e-07 0)
(1.05425e-06 -1.09624e-07 0)
(5.1852e-10 -1.35635e-08 0)
(3.38866e-09 -4.14221e-08 0)
(9.60218e-09 -6.95851e-08 0)
(1.85683e-08 -9.78339e-08 0)
(3.00076e-08 -1.25939e-07 0)
(4.38658e-08 -1.53627e-07 0)
(6.00312e-08 -1.80713e-07 0)
(7.85519e-08 -2.07023e-07 0)
(9.91835e-08 -2.32366e-07 0)
(1.215e-07 -2.56588e-07 0)
(1.45523e-07 -2.79621e-07 0)
(1.71174e-07 -3.01365e-07 0)
(1.98258e-07 -3.21663e-07 0)
(2.26676e-07 -3.40511e-07 0)
(2.56297e-07 -3.57888e-07 0)
(2.87853e-07 -3.7373e-07 0)
(3.19728e-07 -3.87339e-07 0)
(3.5172e-07 -3.99583e-07 0)
(3.85232e-07 -4.10072e-07 0)
(4.19281e-07 -4.18796e-07 0)
(4.53632e-07 -4.25669e-07 0)
(4.88229e-07 -4.30764e-07 0)
(5.23012e-07 -4.34064e-07 0)
(5.57809e-07 -4.35543e-07 0)
(5.92942e-07 -4.3518e-07 0)
(6.27684e-07 -4.31854e-07 0)
(6.61574e-07 -4.2793e-07 0)
(6.95262e-07 -4.22518e-07 0)
(7.28528e-07 -4.15528e-07 0)
(7.61074e-07 -4.06551e-07 0)