/*--------------------------------*- C++ -*----------------------------------*\
  =========                 |
  \\      /  F ield         | OpenFOAM: The Open Source CFD Toolbox
   \\    /   O peration     | Website:  https://openfoam.org
    \\  /    A nd           | Version:  9
     \\/     M anipulation  |
\*---------------------------------------------------------------------------*/
FoamFile
{
    format      ascii;
    class       volScalarField;
    location    "0.2";
    object      p;
}
// * * * * * * * * * * * * * * * * * * * * * * * * * * * * * * * * * * * * * //

dimensions      [0 2 -2 0 0 0 0];

internalField   nonuniform List<scalar> 
8500
(
-0.364225
-0.264246
-0.195459
-0.127354
-0.0883337
-0.0642122
-0.0516658
-0.0437959
-0.0390417
-0.0346697
-0.367001
-0.266976
-0.198009
-0.129506
-0.0900415
-0.0655325
-0.0526769
-0.0445595
-0.0396351
-0.0350997
-0.372531
-0.272414
-0.203088
-0.13379
-0.0934402
-0.0681597
-0.0546886
-0.0460784
-0.0408149
-0.0359538
-0.380772
-0.280517
-0.21065
-0.140165
-0.0984966
-0.0720676
-0.0576799
-0.0483362
-0.0425671
-0.0372206
-0.391657
-0.291221
-0.22063
-0.148573
-0.105161
-0.0772171
-0.0616193
-0.0513084
-0.044871
-0.0388827
-0.4051
-0.304439
-0.232939
-0.158933
-0.113368
-0.0835565
-0.0664657
-0.054963
-0.0476994
-0.0409174
-0.420995
-0.320068
-0.24747
-0.171148
-0.123038
-0.0910225
-0.0721683
-0.0592603
-0.0510184
-0.0432963
-0.439215
-0.337982
-0.264095
-0.185105
-0.134077
-0.0995403
-0.0786672
-0.0641537
-0.0547883
-0.0459858
-0.459615
-0.358038
-0.282669
-0.200673
-0.146375
-0.109025
-0.0858941
-0.0695901
-0.0589633
-0.0489471
-0.482031
-0.380076
-0.303028
-0.217707
-0.159814
-0.119381
-0.0937727
-0.0755102
-0.0634924
-0.0521364
-0.506283
-0.40392
-0.324995
-0.236046
-0.174263
-0.130506
-0.10222
-0.0818496
-0.0683196
-0.0555054
-0.532176
-0.429378
-0.348375
-0.255521
-0.189581
-0.142286
-0.111145
-0.0885391
-0.0733837
-0.0590022
-0.559502
-0.456245
-0.372965
-0.275951
-0.205619
-0.154605
-0.120453
-0.0955055
-0.0786183
-0.0625719
-0.588037
-0.484304
-0.398547
-0.297144
-0.22222
-0.167337
-0.130044
-0.102672
-0.0839509
-0.0661599
-0.617548
-0.513326
-0.424896
-0.318903
-0.239223
-0.180353
-0.139812
-0.109958
-0.0893022
-0.0697169
-0.647791
-0.543076
-0.451779
-0.341026
-0.256462
-0.19352
-0.149649
-0.117281
-0.0945846
-0.0731912
-0.678515
-0.573308
-0.478958
-0.363305
-0.273768
-0.206701
-0.159447
-0.124556
-0.0996905
-0.0764848
-0.709462
-0.603771
-0.50619
-0.385532
-0.290971
-0.219759
-0.169097
-0.131696
-0.104471
-0.0794603
-0.740368
-0.63421
-0.53323
-0.407498
-0.307902
-0.232558
-0.178498
-0.138613
-0.108768
-0.0823258
-0.770964
-0.664367
-0.559833
-0.428994
-0.324391
-0.244963
-0.187551
-0.145214
-0.112619
-0.0861535
-0.800983
-0.693982
-0.585757
-0.449816
-0.340274
-0.256841
-0.196154
-0.151405
-0.116324
-0.0915197
-0.830155
-0.722795
-0.610761
-0.469762
-0.355388
-0.268062
-0.204208
-0.157096
-0.119664
-0.0948186
-0.85821
-0.75055
-0.63461
-0.488637
-0.369576
-0.278502
-0.211613
-0.162205
-0.122649
-0.0971633
-0.884883
-0.776991
-0.657075
-0.506252
-0.382686
-0.28804
-0.218272
-0.166658
-0.125193
-0.098805
-0.909913
-0.80187
-0.677935
-0.522426
-0.394573
-0.296559
-0.224091
-0.170382
-0.127199
-0.0997592
-0.933044
-0.824944
-0.696977
-0.536989
-0.4051
-0.303951
-0.228981
-0.173311
-0.128592
-0.100029
-0.954028
-0.845978
-0.714
-0.549777
-0.414137
-0.310112
-0.232857
-0.175381
-0.129304
-0.0996088
-0.972626
-0.864748
-0.728812
-0.56064
-0.421563
-0.314947
-0.235639
-0.17653
-0.129279
-0.0984817
-0.988608
-0.881043
-0.741234
-0.569438
-0.427269
-0.318366
-0.237255
-0.176705
-0.128463
-0.0966249
-1.00176
-0.894661
-0.7511
-0.576046
-0.431153
-0.320288
-0.237639
-0.175853
-0.12681
-0.0940131
-1.01187
-0.905417
-0.758259
-0.580347
-0.433125
-0.320643
-0.236732
-0.173929
-0.124278
-0.0906207
-1.01877
-0.913138
-0.762578
-0.582242
-0.433108
-0.319367
-0.234482
-0.170892
-0.120832
-0.0864243
-1.02226
-0.917669
-0.763937
-0.581645
-0.431033
-0.316405
-0.230844
-0.166708
-0.11644
-0.0814029
-1.0222
-0.91887
-0.762236
-0.578482
-0.426846
-0.311715
-0.225784
-0.161349
-0.111077
-0.0755391
-1.01846
-0.916623
-0.75739
-0.572698
-0.420503
-0.30526
-0.219272
-0.154793
-0.104724
-0.0688199
-1.01091
-0.910827
-0.749333
-0.56425
-0.411973
-0.297016
-0.21129
-0.147025
-0.0973656
-0.0612366
-0.999462
-0.901401
-0.73802
-0.553111
-0.401237
-0.28697
-0.201828
-0.138037
-0.0889935
-0.0527853
-0.984037
-0.888286
-0.72342
-0.53927
-0.388292
-0.275115
-0.190883
-0.12783
-0.0796023
-0.0434673
-0.964583
-0.871444
-0.705524
-0.522731
-0.373142
-0.261453
-0.178457
-0.116408
-0.0692006
-0.0332917
-0.941073
-0.850862
-0.684339
-0.503512
-0.355792
-0.245996
-0.164554
-0.103768
-0.0578212
-0.0222768
-0.913502
-0.826548
-0.659891
-0.48164
-0.336237
-0.228788
-0.149204
-0.0899247
-0.0454897
-0.0104406
-0.881888
-0.798532
-0.632234
-0.457151
-0.314515
-0.209911
-0.132491
-0.074968
-0.0321676
0.00222035
-0.846278
-0.766873
-0.601448
-0.430097
-0.29082
-0.189379
-0.114371
-0.058882
-0.017882
0.0156491
-0.806742
-0.731673
-0.567585
-0.400561
-0.265177
-0.167192
-0.0949327
-0.0417141
-0.00268618
0.029823
-0.763371
-0.693106
-0.53057
-0.368699
-0.237632
-0.143449
-0.0742338
-0.0235135
0.0133785
0.0447063
-0.71628
-0.65135
-0.490412
-0.334663
-0.208284
-0.11823
-0.0523343
-0.00433305
0.0302668
0.0602563
-0.665593
-0.606306
-0.447626
-0.298433
-0.177233
-0.0916213
-0.0293042
0.0157675
0.047929
0.0764252
-0.611427
-0.557689
-0.402875
-0.260168
-0.144587
-0.0637191
-0.00522105
0.0367226
0.0663114
0.0931599
-0.553971
-0.506233
-0.355894
-0.220027
-0.110467
-0.0346244
0.0198308
0.0584613
0.0853559
0.110403
-0.493622
-0.452045
-0.306794
-0.178176
-0.0750004
-0.00444533
0.0457606
0.0809075
0.105
0.128091
-0.430599
-0.395289
-0.255763
-0.134792
-0.0383239
0.0267033
0.0724724
0.103981
0.125178
0.146157
-0.365045
-0.336294
-0.203
-0.090055
-0.000582779
0.058701
0.099865
0.127597
0.145819
0.164529
-0.297231
-0.275333
-0.148723
-0.0441559
0.0380702
0.0914216
0.127833
0.151669
0.16685
0.183134
-0.227462
-0.212678
-0.0931621
0.00270965
0.0774753
0.124734
0.156267
0.176106
0.188196
0.20189
-0.156046
-0.148615
-0.0365623
0.050339
0.117467
0.158501
0.185053
0.200816
0.209776
0.220715
-0.0833108
-0.0834421
0.0208225
0.0985236
0.157874
0.192583
0.214073
0.2257
0.231512
0.239525
-0.00959319
-0.0174642
0.0787305
0.14705
0.19852
0.226833
0.243204
0.250659
0.253347
0.258233
0.0647566
0.0490042
0.136895
0.1957
0.239227
0.261101
0.272316
0.275604
0.275258
0.276665
0.13938
0.115643
0.195043
0.244254
0.27981
0.295233
0.301276
0.300448
0.297168
0.29439
0.213911
0.182126
0.252903
0.29249
0.320088
0.329073
0.329957
0.325079
0.318709
0.310719
0.287981
0.248127
0.3102
0.340185
0.359877
0.36247
0.358233
0.349338
0.339305
0.325544
0.361217
0.313317
0.36666
0.38712
0.398995
0.395273
0.385979
0.373088
0.359693
0.34201
0.433247
0.377369
0.422012
0.433075
0.437266
0.427337
0.413076
0.396211
0.37952
0.358918
0.503702
0.43996
0.475991
0.477838
0.474513
0.458518
0.439405
0.418629
0.398672
0.375617
0.572217
0.50077
0.528335
0.521198
0.510567
0.488678
0.464853
0.440261
0.41712
0.391837
0.638435
0.55949
0.578788
0.562951
0.545261
0.517681
0.489308
0.461023
0.434814
0.407457
0.702008
0.615815
0.627106
0.602901
0.578436
0.545397
0.512664
0.48083
0.451689
0.422379
0.762599
0.669456
0.673051
0.640858
0.609939
0.571702
0.534818
0.499601
0.467679
0.43652
0.819885
0.720133
0.716397
0.676642
0.639623
0.596477
0.555672
0.517255
0.482719
0.449811
0.873561
0.767583
0.756932
0.710082
0.66735
0.619608
0.575134
0.53372
0.496747
0.462191
0.923337
0.811557
0.794454
0.741018
0.692991
0.64099
0.593117
0.548925
0.509705
0.473609
0.968943
0.851824
0.828779
0.769302
0.716425
0.660526
0.609541
0.562805
0.521537
0.484017
1.01013
0.888172
0.859735
0.794799
0.737543
0.678125
0.624332
0.575299
0.53219
0.493375
1.04668
0.92041
0.887168
0.817385
0.756245
0.693707
0.637425
0.586354
0.541619
0.501644
1.07839
0.948367
0.910942
0.836952
0.772443
0.707199
0.648759
0.595922
0.549782
0.508793
1.10509
0.971895
0.930938
0.853404
0.78606
0.71854
0.658283
0.60396
0.556642
0.514793
1.12662
0.990869
0.947057
0.866663
0.797032
0.727677
0.665956
0.610434
0.562167
0.519622
1.14288
1.00519
0.959217
0.876664
0.805307
0.734566
0.671741
0.615314
0.566333
0.52326
1.15376
1.01478
0.967357
0.883358
0.810845
0.739178
0.675612
0.618579
0.569121
0.525693
1.15922
1.01958
0.971438
0.886713
0.813621
0.741488
0.677552
0.620216
0.570519
0.526912
1.15922
1.01958
0.971438
0.886713
0.813621
0.741488
0.677552
0.620216
0.570519
0.526912
1.15376
1.01478
0.967357
0.883358
0.810845
0.739178
0.675612
0.618579
0.569121
0.525693
1.14288
1.00519
0.959217
0.876664
0.805307
0.734566
0.671741
0.615314
0.566333
0.52326
1.12662
0.990869
0.947057
0.866663
0.797032
0.727677
0.665956
0.610434
0.562167
0.519622
1.10509
0.971895
0.930938
0.853404
0.78606
0.71854
0.658283
0.60396
0.556642
0.514793
1.07839
0.948367
0.910942
0.836952
0.772443
0.707199
0.648759
0.595922
0.549782
0.508793
1.04668
0.92041
0.887168
0.817385
0.756245
0.693707
0.637425
0.586354
0.541619
0.501644
1.01013
0.888172
0.859735
0.794799
0.737543
0.678125
0.624332
0.575299
0.53219
0.493375
0.968943
0.851824
0.828779
0.769302
0.716425
0.660526
0.609541
0.562805
0.521537
0.484017
0.923337
0.811557
0.794454
0.741018
0.692991
0.64099
0.593117
0.548925
0.509705
0.473609
0.873561
0.767583
0.756932
0.710082
0.66735
0.619608
0.575134
0.53372
0.496747
0.462191
0.819885
0.720133
0.716397
0.676642
0.639623
0.596477
0.555672
0.517255
0.482719
0.449811
0.762599
0.669456
0.673051
0.640858
0.609939
0.571702
0.534818
0.499601
0.467679
0.43652
0.702008
0.615815
0.627106
0.602901
0.578436
0.545397
0.512664
0.48083
0.451689
0.422379
0.638435
0.55949
0.578788
0.562951
0.545261
0.517681
0.489308
0.461023
0.434814
0.407457
0.572217
0.50077
0.528335
0.521198
0.510567
0.488678
0.464853
0.440261
0.41712
0.391837
0.503702
0.43996
0.475991
0.477838
0.474513
0.458518
0.439405
0.418629
0.398672
0.375617
0.433247
0.377369
0.422012
0.433075
0.437266
0.427337
0.413076
0.396211
0.37952
0.358918
0.361217
0.313317
0.36666
0.38712
0.398995
0.395273
0.385979
0.373088
0.359693
0.34201
0.287981
0.248127
0.3102
0.340185
0.359877
0.36247
0.358233
0.349338
0.339305
0.325544
0.213911
0.182126
0.252903
0.29249
0.320088
0.329073
0.329957
0.325079
0.318709
0.310719
0.13938
0.115643
0.195043
0.244254
0.27981
0.295233
0.301276
0.300448
0.297168
0.29439
0.0647566
0.0490042
0.136895
0.1957
0.239227
0.261101
0.272316
0.275604
0.275258
0.276665
-0.00959319
-0.0174642
0.0787305
0.14705
0.19852
0.226833
0.243204
0.250659
0.253347
0.258233
-0.0833108
-0.0834421
0.0208225
0.0985236
0.157874
0.192583
0.214073
0.2257
0.231512
0.239525
-0.156046
-0.148615
-0.0365623
0.050339
0.117467
0.158501
0.185053
0.200816
0.209776
0.220715
-0.227462
-0.212678
-0.0931621
0.00270965
0.0774753
0.124734
0.156267
0.176106
0.188196
0.20189
-0.297231
-0.275333
-0.148723
-0.0441559
0.0380702
0.0914216
0.127833
0.151669
0.16685
0.183134
-0.365045
-0.336294
-0.203
-0.090055
-0.000582778
0.058701
0.099865
0.127597
0.145819
0.164529
-0.430599
-0.395289
-0.255763
-0.134792
-0.0383239
0.0267033
0.0724724
0.103981
0.125178
0.146157
-0.493622
-0.452045
-0.306794
-0.178176
-0.0750004
-0.00444533
0.0457606
0.0809075
0.105
0.128091
-0.553971
-0.506233
-0.355894
-0.220027
-0.110467
-0.0346244
0.0198308
0.0584613
0.0853559
0.110403
-0.611427
-0.557689
-0.402875
-0.260168
-0.144587
-0.0637191
-0.00522105
0.0367226
0.0663114
0.0931599
-0.665593
-0.606306
-0.447626
-0.298433
-0.177233
-0.0916213
-0.0293042
0.0157675
0.047929
0.0764252
-0.71628
-0.65135
-0.490412
-0.334663
-0.208284
-0.11823
-0.0523343
-0.00433305
0.0302668
0.0602563
-0.763371
-0.693106
-0.53057
-0.368699
-0.237632
-0.143449
-0.0742338
-0.0235135
0.0133785
0.0447063
-0.806742
-0.731673
-0.567585
-0.400561
-0.265177
-0.167192
-0.0949327
-0.0417141
-0.00268618
0.029823
-0.846278
-0.766873
-0.601448
-0.430097
-0.29082
-0.189379
-0.114371
-0.058882
-0.017882
0.0156491
-0.881888
-0.798532
-0.632234
-0.457151
-0.314515
-0.209911
-0.132491
-0.074968
-0.0321676
0.00222035
-0.913502
-0.826548
-0.659891
-0.48164
-0.336237
-0.228788
-0.149204
-0.0899247
-0.0454897
-0.0104405
-0.941073
-0.850862
-0.684339
-0.503512
-0.355792
-0.245996
-0.164554
-0.103768
-0.0578212
-0.0222768
-0.964583
-0.871444
-0.705524
-0.522731
-0.373142
-0.261453
-0.178457
-0.116408
-0.0692006
-0.0332917
-0.984037
-0.888286
-0.72342
-0.53927
-0.388292
-0.275115
-0.190883
-0.12783
-0.0796023
-0.0434673
-0.999462
-0.901401
-0.73802
-0.553111
-0.401237
-0.28697
-0.201828
-0.138037
-0.0889935
-0.0527853
-1.01091
-0.910827
-0.749333
-0.56425
-0.411973
-0.297016
-0.21129
-0.147025
-0.0973656
-0.0612366
-1.01846
-0.916623
-0.75739
-0.572698
-0.420503
-0.30526
-0.219272
-0.154793
-0.104724
-0.0688199
-1.0222
-0.91887
-0.762236
-0.578482
-0.426846
-0.311715
-0.225784
-0.161349
-0.111077
-0.0755391
-1.02226
-0.917669
-0.763937
-0.581645
-0.431033
-0.316405
-0.230844
-0.166708
-0.11644
-0.0814029
-1.01877
-0.913138
-0.762578
-0.582242
-0.433108
-0.319367
-0.234482
-0.170892
-0.120832
-0.0864243
-1.01187
-0.905417
-0.758259
-0.580347
-0.433125
-0.320643
-0.236732
-0.173929
-0.124278
-0.0906207
-1.00176
-0.894661
-0.7511
-0.576046
-0.431153
-0.320288
-0.237639
-0.175853
-0.12681
-0.0940131
-0.988608
-0.881043
-0.741234
-0.569438
-0.427269
-0.318366
-0.237255
-0.176705
-0.128463
-0.0966249
-0.972626
-0.864748
-0.728812
-0.56064
-0.421563
-0.314947
-0.235639
-0.17653
-0.129279
-0.0984817
-0.954028
-0.845978
-0.714
-0.549777
-0.414137
-0.310112
-0.232857
-0.175381
-0.129304
-0.0996088
-0.933044
-0.824944
-0.696977
-0.536989
-0.4051
-0.303951
-0.228981
-0.173311
-0.128592
-0.100029
-0.909913
-0.80187
-0.677935
-0.522426
-0.394573
-0.296559
-0.224091
-0.170382
-0.127199
-0.0997592
-0.884883
-0.776991
-0.657075
-0.506252
-0.382686
-0.28804
-0.218272
-0.166658
-0.125193
-0.098805
-0.85821
-0.75055
-0.63461
-0.488637
-0.369576
-0.278502
-0.211613
-0.162205
-0.122649
-0.0971633
-0.830155
-0.722795
-0.610761
-0.469762
-0.355388
-0.268062
-0.204208
-0.157096
-0.119664
-0.0948186
-0.800983
-0.693982
-0.585757
-0.449816
-0.340274
-0.256841
-0.196154
-0.151405
-0.116324
-0.0915197
-0.770964
-0.664367
-0.559833
-0.428994
-0.324391
-0.244963
-0.187551
-0.145214
-0.112619
-0.0861535
-0.740368
-0.63421
-0.53323
-0.407498
-0.307902
-0.232558
-0.178498
-0.138613
-0.108768
-0.0823258
-0.709462
-0.603771
-0.50619
-0.385532
-0.290971
-0.219759
-0.169097
-0.131696
-0.104471
-0.0794603
-0.678515
-0.573308
-0.478958
-0.363305
-0.273768
-0.206701
-0.159447
-0.124556
-0.0996905
-0.0764848
-0.647791
-0.543076
-0.451779
-0.341026
-0.256462
-0.19352
-0.149649
-0.117281
-0.0945846
-0.0731912
-0.617548
-0.513326
-0.424896
-0.318903
-0.239223
-0.180353
-0.139812
-0.109958
-0.0893022
-0.0697169
-0.588037
-0.484304
-0.398547
-0.297144
-0.22222
-0.167337
-0.130044
-0.102672
-0.0839509
-0.0661599
-0.559502
-0.456245
-0.372965
-0.275951
-0.205619
-0.154605
-0.120453
-0.0955055
-0.0786183
-0.0625719
-0.532176
-0.429378
-0.348375
-0.255521
-0.189581
-0.142286
-0.111145
-0.0885391
-0.0733837
-0.0590022
-0.506283
-0.40392
-0.324995
-0.236046
-0.174263
-0.130506
-0.10222
-0.0818496
-0.0683196
-0.0555054
-0.482031
-0.380076
-0.303028
-0.217707
-0.159814
-0.119381
-0.0937727
-0.0755102
-0.0634924
-0.0521364
-0.459615
-0.358038
-0.282669
-0.200673
-0.146375
-0.109025
-0.0858941
-0.0695901
-0.0589633
-0.0489471
-0.439215
-0.337982
-0.264095
-0.185105
-0.134077
-0.0995403
-0.0786672
-0.0641537
-0.0547883
-0.0459858
-0.420995
-0.320068
-0.24747
-0.171148
-0.123038
-0.0910225
-0.0721683
-0.0592603
-0.0510184
-0.0432963
-0.4051
-0.304439
-0.232939
-0.158933
-0.113368
-0.0835565
-0.0664657
-0.054963
-0.0476994
-0.0409174
-0.391657
-0.291221
-0.22063
-0.148573
-0.105161
-0.0772171
-0.0616193
-0.0513084
-0.044871
-0.0388827
-0.380772
-0.280517
-0.21065
-0.140165
-0.0984966
-0.0720676
-0.0576799
-0.0483362
-0.0425671
-0.0372206
-0.372531
-0.272414
-0.203088
-0.13379
-0.0934402
-0.0681597
-0.0546886
-0.0460784
-0.0408149
-0.0359538
-0.367001
-0.266976
-0.198009
-0.129506
-0.0900415
-0.0655325
-0.0526769
-0.0445595
-0.0396351
-0.0350997
-0.364225
-0.264246
-0.195459
-0.127354
-0.0883337
-0.0642122
-0.0516658
-0.0437959
-0.0390417
-0.0346697
-0.0327153
-0.0310819
-0.0293631
-0.0277193
-0.0261201
-0.0245439
-0.0229934
-0.0214711
-0.0199789
-0.0185195
-0.0170967
-0.0157148
-0.0143782
-0.0130911
-0.0118575
-0.0106818
-0.00955873
-0.0085013
-0.00750113
-0.00656455
-0.00569251
-0.00488447
-0.00413885
-0.00345221
-0.00282069
-0.00223561
-0.00169705
-0.0011753
-0.00071025
-0.00015769
-0.0331157
-0.0314139
-0.0296178
-0.0279177
-0.0262757
-0.024665
-0.0230868
-0.0215425
-0.0200329
-0.0185599
-0.0171264
-0.0157361
-0.0143929
-0.0131007
-0.0118633
-0.0106849
-0.00956056
-0.00850114
-0.00750007
-0.00656287
-0.00569039
-0.00488217
-0.00413655
-0.00345003
-0.00281873
-0.00223392
-0.00169571
-0.00117436
-0.000709674
-0.000157788
-0.0339116
-0.0320741
-0.0301246
-0.0283129
-0.026586
-0.0249065
-0.0232731
-0.021685
-0.0201408
-0.0186406
-0.0171857
-0.0157786
-0.0144224
-0.0131201
-0.0118749
-0.0106909
-0.0095666
-0.00850067
-0.00749789
-0.00655948
-0.00568613
-0.00487755
-0.00413193
-0.00344567
-0.0028148
-0.00223054
-0.001693
-0.00117249
-0.000708517
-0.000157979
-0.0350939
-0.0330546
-0.0308782
-0.0289016
-0.027049
-0.0252671
-0.0235514
-0.021898
-0.0203022
-0.0187613
-0.0172744
-0.0158422
-0.0144665
-0.013149
-0.0118922
-0.0106994
-0.00957836
-0.00849881
-0.0074945
-0.00655432
-0.00567966
-0.00487056
-0.00412496
-0.00343908
-0.00280886
-0.00222543
-0.00168893
-0.00116966
-0.00070677
-0.00015825
-0.0366486
-0.0343436
-0.0318708
-0.0296793
-0.0276615
-0.0257448
-0.0239204
-0.0221808
-0.0205166
-0.0189217
-0.0173924
-0.0159269
-0.0145251
-0.0131876
-0.0119152
-0.0107099
-0.00957459
-0.00849482
-0.00748973
-0.00654732
-0.0056709
-0.00486112
-0.00411558
-0.00343023
-0.00280089
-0.00221857
-0.00168345
-0.00116585
-0.000704418
-0.000158586
-0.0385572
-0.0359259
-0.0330923
-0.0306398
-0.0284198
-0.0263368
-0.0243785
-0.0225322
-0.0207834
-0.0191215
-0.0175394
-0.0160326
-0.0145984
-0.0132357
-0.0119438
-0.0107224
-0.00957023
-0.00848958
-0.00748367
-0.00653834
-0.0056597
-0.00484913
-0.00410371
-0.00341906
-0.00279083
-0.00220991
-0.00167654
-0.00116104
-0.000701445
-0.000158965
-0.0407971
-0.0377825
-0.0345303
-0.0317754
-0.0293186
-0.0270398
-0.0249233
-0.0229509
-0.0211017
-0.0193601
-0.0177151
-0.0161589
-0.0146861
-0.0132933
-0.0119783
-0.0107385
-0.00957475
-0.00848414
-0.00747632
-0.0065272
-0.00564591
-0.00483449
-0.00408926
-0.0034055
-0.00277863
-0.00219939
-0.00166814
-0.00115518
-0.000697828
-0.000159359
-0.0433408
-0.0398913
-0.0361703
-0.0330771
-0.0303521
-0.0278499
-0.0255524
-0.0234353
-0.0214705
-0.0196369
-0.0179191
-0.0163057
-0.0147881
-0.0133604
-0.0120186
-0.0107585
-0.00958111
-0.00847508
-0.00746741
-0.00651367
-0.00562931
-0.00481704
-0.00407212
-0.00338947
-0.00276419
-0.00218694
-0.00165821
-0.00114824
-0.000693538
-0.000159736
-0.0461571
-0.0422267
-0.0379957
-0.0345345
-0.0315132
-0.0287622
-0.0262628
-0.0239835
-0.0218887
-0.0199513
-0.0181511
-0.0164728
-0.0149043
-0.0134371
-0.0120648
-0.0107819
-0.00958889
-0.00850123
-0.00745819
-0.00649729
-0.00560963
-0.00479663
-0.00405216
-0.00337087
-0.00274744
-0.00217249
-0.00164669
-0.00114017
-0.000688546
-0.000160059
-0.0492099
-0.0447602
-0.0399879
-0.0361356
-0.0327937
-0.0297715
-0.0270512
-0.0245936
-0.022355
-0.0203025
-0.0184107
-0.0166599
-0.0150346
-0.0135231
-0.0121167
-0.0108081
-0.00959519
-0.00848256
-0.00744577
-0.00647693
-0.00558653
-0.00477306
-0.00402924
-0.00334962
-0.00272828
-0.00215595
-0.0016335
-0.00113093
-0.000682815
-0.000160286
-0.0524592
-0.04746
-0.0421263
-0.0378672
-0.0341847
-0.0308718
-0.0279137
-0.0252632
-0.0228681
-0.0206897
-0.0186974
-0.0168668
-0.0151788
-0.0136184
-0.0121743
-0.0108371
-0.00960117
-0.00846452
-0.00741471
-0.00645052
-0.00555979
-0.00474616
-0.00400316
-0.0033256
-0.00270658
-0.00213722
-0.00161857
-0.00112045
-0.000676306
-0.000160372
-0.0558606
-0.0502917
-0.0443883
-0.0397141
-0.0356758
-0.0320565
-0.0288465
-0.0259897
-0.0234265
-0.0211121
-0.0190107
-0.0170933
-0.0153368
-0.0137229
-0.0122375
-0.0108688
-0.00960872
-0.00845417
-0.00739923
-0.00642002
-0.00552858
-0.00471579
-0.00397374
-0.00329869
-0.00268222
-0.00211619
-0.00160182
-0.00110869
-0.000668973
-0.000160268
-0.0593659
-0.0532178
-0.0467485
-0.0416588
-0.0372553
-0.033318
-0.0298445
-0.0267702
-0.0240283
-0.0215686
-0.0193501
-0.017339
-0.0155084
-0.0138365
-0.0123062
-0.0109034
-0.00961762
-0.00844082
-0.00735782
-0.00638458
-0.00548905
-0.00468118
-0.00394085
-0.00326883
-0.00265503
-0.00209274
-0.00158315
-0.00109559
-0.000660766
-0.000159919
-0.0629277
-0.0561996
-0.0491795
-0.0436822
-0.0389101
-0.0346485
-0.0309032
-0.027602
-0.0246721
-0.0220586
-0.0197154
-0.017604
-0.0156938
-0.0139594
-0.0123807
-0.0109411
-0.00962732
-0.00842853
-0.00733534
-0.00636132
-0.0054367
-0.00463947
-0.00390391
-0.00323623
-0.00262491
-0.00206678
-0.00156248
-0.00108109
-0.000651629
-0.00015927
-0.0665097
-0.0592061
-0.0516592
-0.0457685
-0.0406307
-0.0360433
-0.0320211
-0.0284853
-0.0253591
-0.0225834
-0.0201077
-0.0178895
-0.0158939
-0.0140923
-0.0124615
-0.0109821
-0.00963848
-0.00841799
-0.00731135
-0.00631716
-0.0054381
-0.00459064
-0.00386006
-0.00320054
-0.00259169
-0.00203829
-0.00153973
-0.00106517
-0.000641497
-0.000158258
-0.0700763
-0.0622026
-0.0541582
-0.0478913
-0.0423968
-0.0374888
-0.0331881
-0.0294126
-0.0260831
-0.0231382
-0.0205233
-0.0181921
-0.016106
-0.014233
-0.0125467
-0.011025
-0.00964981
-0.0084066
-0.00728447
-0.00627754
-0.0053823
-0.00456474
-0.00380774
-0.00315695
-0.00255405
-0.0020068
-0.00151468
-0.00104789
-0.000630289
-0.000156815
-0.0735231
-0.0650705
-0.0565722
-0.0499587
-0.0441323
-0.0389243
-0.0343559
-0.0303447
-0.0268133
-0.0236984
-0.0209428
-0.0184968
-0.0163185
-0.0143725
-0.0126293
-0.0110644
-0.00965706
-0.00839082
-0.00725305
-0.00623482
-0.00532708
-0.00451079
-0.00377836
-0.00310132
-0.00251008
-0.00197048
-0.00148682
-0.00102901
-0.000617942
-0.000154897
-0.0769457
-0.0678794
-0.058977
-0.0520394
-0.0459027
-0.0404171
-0.0355912
-0.0313456
-0.0276079
-0.024316
-0.0214116
-0.0188426
-0.0165643
-0.0145383
-0.0127324
-0.0111191
-0.00967549
-0.0083829
-0.00722667
-0.00619522
-0.00527745
-0.00445514
-0.0037224
-0.00306266
-0.00246588
-0.00192982
-0.00145638
-0.00100697
-0.000604469
-0.00015255
-0.0813745
-0.0715984
-0.0622015
-0.0547952
-0.0482669
-0.0424548
-0.037318
-0.0327765
-0.0287685
-0.0252383
-0.0221296
-0.0193895
-0.0169703
-0.0148303
-0.0129334
-0.011249
-0.00975092
-0.00841753
-0.00723145
-0.00617839
-0.00524525
-0.00441373
-0.0036744
-0.00300961
-0.00242866
-0.00190513
-0.00142637
-0.000981333
-0.000589715
-0.000149679
-0.0842856
-0.0736887
-0.0642926
-0.0565753
-0.0498127
-0.0438264
-0.0385034
-0.0337644
-0.0295617
-0.025852
-0.0225865
-0.0197144
-0.017187
-0.0149607
-0.0129968
-0.0112618
-0.00972699
-0.00836829
-0.00716587
-0.00610322
-0.0051654
-0.00433436
-0.00359781
-0.00293966
-0.00236578
-0.00185127
-0.00138795
-0.000954866
-0.000571464
-0.000145023
-0.0694546
-0.0640153
-0.0570773
-0.050419
-0.0444097
-0.0390618
-0.0343481
-0.0301988
-0.0265393
-0.0233089
-0.0204562
-0.0179355
-0.0157057
-0.0137301
-0.0119769
-0.0104186
-0.00903169
-0.00779664
-0.00669733
-0.00572038
-0.00485346
-0.00408206
-0.00339535
-0.00278115
-0.00224003
-0.0017547
-0.00131722
-0.000904519
-0.000543148
-0.000137148
-0.0665672
-0.0610392
-0.0546296
-0.0484266
-0.0427896
-0.0377138
-0.0332009
-0.0292082
-0.0256751
-0.0225493
-0.0197845
-0.017339
-0.0151746
-0.0132571
-0.0115561
-0.0100455
-0.00870227
-0.00750751
-0.00644517
-0.00550188
-0.00466533
-0.00392192
-0.00326083
-0.00267131
-0.00215018
-0.00168362
-0.00126307
-0.000866516
-0.000520506
-0.000131381
-0.0641327
-0.0584887
-0.0523921
-0.0466283
-0.0413628
-0.0365639
-0.0322494
-0.0284
-0.0249735
-0.0219299
-0.0192309
-0.0168396
-0.0147217
-0.0128455
-0.0111824
-0.00970734
-0.00839805
-0.00723573
-0.00620431
-0.00529019
-0.00448079
-0.00376306
-0.00312605
-0.00255971
-0.00205872
-0.0016109
-0.0012078
-0.000829132
-0.000497048
-0.000125622
-0.060487
-0.0552032
-0.0495414
-0.0442676
-0.039416
-0.0349449
-0.0308877
-0.0272416
-0.0239772
-0.0210647
-0.0184733
-0.0161719
-0.0141303
-0.0123203
-0.0107157
-0.00929324
-0.00803186
-0.00691346
-0.00592242
-0.00504525
-0.00426952
-0.00358277
-0.00297425
-0.00243443
-0.00195674
-0.00153027
-0.00114695
-0.000787909
-0.000471376
-0.000119409
-0.0563246
-0.0515641
-0.0463828
-0.041603
-0.0371803
-0.0330608
-0.0292891
-0.0258762
-0.0228026
-0.020047
-0.017586
-0.0153943
-0.0134462
-0.0117172
-0.0101837
-0.00882439
-0.00761983
-0.0065529
-0.00560857
-0.00477376
-0.00403635
-0.00338453
-0.00280785
-0.00229723
-0.00184541
-0.00144244
-0.00108076
-0.000742749
-0.000443582
-0.000112772
-0.0518342
-0.0476799
-0.0430055
-0.0387206
-0.0347393
-0.0309896
-0.0275233
-0.0243636
-0.0214999
-0.0189185
-0.0166033
-0.0145348
-0.0126921
-0.0110541
-0.00960036
-0.00831172
-0.00717039
-0.00616041
-0.00526756
-0.00447924
-0.00378382
-0.00317009
-0.00262805
-0.00214894
-0.00172525
-0.00134774
-0.00100939
-0.000693885
-0.000413702
-0.000105698
-0.0470376
-0.0435352
-0.0393914
-0.0356072
-0.0320806
-0.0287194
-0.0255784
-0.0226921
-0.0200582
-0.0176694
-0.0155167
-0.0135861
-0.0118614
-0.0103256
-0.00896123
-0.00775146
-0.00668039
-0.00573339
-0.00489722
-0.00415993
-0.00351048
-0.0029383
-0.00243388
-0.00198883
-0.00159566
-0.00124572
-0.000932544
-0.000641152
-0.000381611
-9.81181e-05
-0.04198
-0.0391396
-0.0355421
-0.0322626
-0.0292001
-0.0262435
-0.023446
-0.0208525
-0.0184678
-0.0162904
-0.0143172
-0.01254
-0.0109472
-0.00952552
-0.00826091
-0.00713904
-0.00614601
-0.00526869
-0.00449497
-0.00381373
-0.0032146
-0.00268776
-0.00222424
-0.00181606
-0.00145596
-0.00113586
-0.000849839
-0.000584314
-0.000347173
-8.99573e-05
-0.036709
-0.0345202
-0.0314762
-0.0287017
-0.0261076
-0.0235672
-0.0211286
-0.0188445
-0.0167267
-0.0147781
-0.013001
-0.0113924
-0.00994525
-0.00865008
-0.00749603
-0.00647149
-0.00556466
-0.00476409
-0.00405893
-0.00343905
-0.00289489
-0.00241741
-0.00199826
-0.00162995
-0.0013056
-0.00101774
-0.000760963
-0.000523171
-0.000310278
-8.11435e-05
-0.031268
-0.0297085
-0.0272177
-0.0249438
-0.0228175
-0.0207002
-0.0186321
-0.0166713
-0.0148355
-0.0131317
-0.0115663
-0.010141
-0.00885297
-0.00769651
-0.00666396
-0.00574636
-0.00493417
-0.0042177
-0.0035875
-0.00303454
-0.00255021
-0.00212629
-0.00175516
-0.00142989
-0.0011441
-0.00089099
-0.00066564
-0.000457539
-0.000270827
-7.16039e-05
-0.0257014
-0.024739
-0.0227939
-0.021012
-0.0193475
-0.0176553
-0.0159654
-0.0143384
-0.0127973
-0.0113521
-0.0100125
-0.00878426
-0.00766843
-0.00666271
-0.00576252
-0.00496161
-0.00425266
-0.00362784
-0.00307922
-0.00259898
-0.00217952
-0.00181355
-0.00149425
-0.00121533
-0.000971015
-0.000755253
-0.000563623
-0.000387257
-0.00022873
-6.12671e-05
-0.0200554
-0.0196498
-0.0182363
-0.016933
-0.0157195
-0.0144492
-0.0131407
-0.0118544
-0.0106176
-0.00944241
-0.00834101
-0.00732245
-0.006391
-0.00554755
-0.00479038
-0.0041158
-0.00351874
-0.00299325
-0.00253296
-0.00213135
-0.00178196
-0.00147848
-0.00121495
-0.000985811
-0.000785996
-0.000610254
-0.000454711
-0.000312193
-0.000183916
-5.00681e-05
-0.0143777
-0.0144823
-0.0135794
-0.0127369
-0.011959
-0.0111023
-0.0101738
-0.00923143
-0.00830512
-0.00740863
-0.00655566
-0.00575767
-0.00502167
-0.00435123
-0.00374722
-0.00320835
-0.00273169
-0.00231317
-0.001948
-0.00163103
-0.00135699
-0.00112061
-0.000916867
-0.000741033
-0.000588799
-0.000455804
-0.000338775
-0.000232257
-0.000136339
-3.79523e-05
-0.0087159
-0.00927988
-0.00886026
-0.00845658
-0.00809487
-0.0076386
-0.00708419
-0.00648474
-0.00587162
-0.00525949
-0.0046627
-0.00409425
-0.00356325
-0.00307547
-0.00263401
-0.00223971
-0.00189165
-0.00158754
-0.00132419
-0.00109783
-0.000904411
-0.000739768
-0.000599863
-0.000480877
-0.000379337
-0.000291833
-0.00021577
-0.00014742
-8.59845e-05
-2.48794e-05
-0.00311601
-0.00408633
-0.0041175
-0.00412697
-0.00415837
-0.00408516
-0.00389446
-0.00363303
-0.00333216
-0.00300677
-0.00267109
-0.00233888
-0.00202064
-0.00172378
-0.0014532
-0.00121159
-0.000999782
-0.000817169
-0.000662083
-0.000532132
-0.000424496
-0.000336152
-0.000264096
-0.000205472
-0.000157716
-0.000118423
-8.57619e-05
-5.77315e-05
-3.28829e-05
-1.08281e-05
0.0023784
0.00105488
0.000609395
0.000215555
-0.000183058
-0.000471827
-0.00063038
-0.000698101
-0.0007049
-0.000665265
-0.00059269
-0.000500886
-0.000401051
-0.00030168
-0.000208991
-0.000127137
-5.84699e-05
-3.86645e-06
3.69289e-05
6.49861e-05
8.19025e-05
8.95567e-05
8.98896e-05
8.4742e-05
7.57122e-05
6.41532e-05
5.10401e-05
3.66654e-05
2.28807e-05
4.19894e-06
0.00772688
0.00610174
0.00528096
0.00453384
0.0037961
0.00316938
0.00267964
0.00229528
0.00198893
0.00174715
0.00155773
0.0014077
0.00128581
0.00118309
0.00109249
0.00100879
0.000928449
0.000849329
0.000770426
0.000691584
0.000613225
0.000536101
0.000461075
0.000388945
0.000320296
0.000255388
0.000194255
0.000135506
8.11511e-05
2.01706e-05
0.0128923
0.0110142
0.00985833
0.00879052
0.00774319
0.00680477
0.00600489
0.00531969
0.00472521
0.00420961
0.00376242
0.00337196
0.00302759
0.00272036
0.00244293
0.00218944
0.00195549
0.00173796
0.00153479
0.00134472
0.00116707
0.00100152
0.000847873
0.000705857
0.000575015
0.000454489
0.000343293
0.000238379
0.000141688
3.70223e-05
0.0178407
0.0157545
0.0143037
0.0129485
0.0116219
0.0103994
0.00931281
0.00834534
0.00747713
0.00669838
0.00600067
0.00537409
0.00480911
0.00429737
0.00383167
0.00340594
0.00301532
0.00265597
0.00232502
0.00202026
0.00174006
0.00148305
0.00124802
0.00103365
0.000838415
0.000660325
0.00049731
0.000344699
0.000204149
5.46517e-05
0.0225412
0.0202873
0.0185807
0.0169712
0.0153956
0.0139177
0.0125693
0.0113404
0.0102155
0.009187
0.00824891
0.00739336
0.00661238
0.00589864
0.0052455
0.00464713
0.00409852
0.00359548
0.00313453
0.00271275
0.00232765
0.00197696
0.00165847
0.00136985
0.00110853
0.000871369
0.000655169
0.000453677
0.000268072