/*--------------------------------*- C++ -*----------------------------------*\
  =========                 |
  \\      /  F ield         | OpenFOAM: The Open Source CFD Toolbox
   \\    /   O peration     | Website:  https://openfoam.org
    \\  /    A nd           | Version:  9
     \\/     M anipulation  |
\*---------------------------------------------------------------------------*/
FoamFile
{
    format      ascii;
    class       surfaceScalarField;
    location    "0.2";
    object      phi;
}
// * * * * * * * * * * * * * * * * * * * * * * * * * * * * * * * * * * * * * //

dimensions      [0 3 -1 0 0 0 0];

internalField   nonuniform List<scalar> 
16735
(
0.00527401
-0.00527401
-4.14167e-12
0.0250652
-0.0197912
2.20234e-11
0.0583023
-0.0332371
4.67049e-11
0.10019
-0.0418876
4.40469e-11
0.146182
-0.045992
4.16242e-11
0.193815
-0.047633
6.31334e-11
0.242364
-0.0485493
9.60581e-11
0.291985
-0.049621
1.1458e-10
0.343032
-0.0510467
1.29316e-10
-0.0531221
1.3295e-10
0.396154
0.00529214
-0.0105662
0.0250927
-0.0395918
0.0583061
-0.0664504
0.100135
-0.0837167
0.146048
-0.0919043
0.193593
-0.0951784
0.242054
-0.0970108
0.291588
-0.0991549
0.34255
-0.102008
-0.106156
0.395584
0.0053282
-0.0158944
0.0251472
-0.0594108
0.0583127
-0.0996159
0.100025
-0.125429
0.145778
-0.137657
0.193148
-0.142549
0.241435
-0.145297
0.290795
-0.148515
0.341587
-0.152801
-0.159013
0.394444
0.00538173
-0.0212761
0.0252274
-0.0792565
0.0583204
-0.132709
0.0998569
-0.166965
0.145372
-0.183172
0.192481
-0.189658
0.240504
-0.193321
0.289605
-0.197615
0.340143
-0.203339
-0.211606
0.392736
0.0054521
-0.0267282
0.0253317
-0.099136
0.0583267
-0.165704
0.0996286
-0.208267
0.144826
-0.22837
0.191588
-0.236419
0.239263
-0.240996
0.288018
-0.24637
0.33822
-0.253542
-0.263848
0.390462
0.00553844
-0.0322666
0.0254576
-0.119055
0.0583279
-0.198574
0.0993365
-0.249276
0.144139
-0.273172
0.190468
-0.282748
0.23771
-0.288238
0.286035
-0.294695
0.33582
-0.303327
-0.315652
0.387624
0.0056397
-0.0379063
0.0256022
-0.139018
0.05832
-0.231292
0.0989761
-0.289932
0.143306
-0.317503
0.189119
-0.328561
0.235844
-0.334964
0.283657
-0.342507
0.332944
-0.352614
-0.366934
0.384226
0.00575463
-0.0436609
0.0257624
-0.159025
0.058298
-0.263828
0.0985422
-0.330176
0.142324
-0.361284
0.187538
-0.373776
0.233665
-0.38109
0.280883
-0.389725
0.329597
-0.401328
-0.417609
0.380272
0.00588182
-0.0495428
0.0259341
-0.179078
0.0582562
-0.29615
0.0980291
-0.369949
0.141187
-0.404442
0.185723
-0.418312
0.231171
-0.426538
0.277715
-0.436269
0.325781
-0.449394
-0.467596
0.375767
0.00601967
-0.0555624
0.0261133
-0.199171
0.0581887
-0.328225
0.0974305
-0.409191
0.13989
-0.446902
0.18367
-0.462091
0.22836
-0.471228
0.274152
-0.482062
0.321501
-0.496743
-0.516813
0.370718
0.00616644
-0.0617289
0.0262952
-0.2193
0.0580887
-0.360019
0.0967397
-0.447842
0.138429
-0.488591
0.181375
-0.505036
0.225231
-0.515084
0.270196
-0.527027
0.316761
-0.543308
-0.565181
0.365129
0.00632028
-0.0680492
0.026475
-0.239455
0.0579493
-0.391493
0.0959498
-0.485842
0.136798
-0.52944
0.178836
-0.547074
0.221782
-0.558031
0.265847
-0.571092
0.311563
-0.589024
-0.612622
0.359004
0.00647918
-0.0745283
0.0266475
-0.259623
0.0577632
-0.422608
0.0950535
-0.523133
0.134991
-0.569378
0.176049
-0.588132
0.218012
-0.599993
0.261103
-0.614183
0.305904
-0.633825
-0.659056
0.352338
0.00664106
-0.0811694
0.0268072
-0.27979
0.0575228
-0.453324
0.0940435
-0.559653
0.133003
-0.608338
0.173012
-0.628141
0.213919
-0.6409
0.255965
-0.656229
0.299775
-0.677634
-0.704397
0.345116
0.00680376
-0.0879732
0.0269487
-0.299934
0.0572207
-0.483596
0.0929127
-0.595345
0.13083
-0.646255
0.169722
-0.667033
0.209501
-0.680679
0.250431
-0.69716
0.293157
-0.72036
-0.748547
0.337308
0.00696503
-0.0949382
0.0270663
-0.320036
0.0568493
-0.513379
0.0916542
-0.63015
0.128465
-0.683066
0.166177
-0.704745
0.20476
-0.719261
0.244501
-0.736901
0.286029
-0.761888
-0.7914
0.328882
0.00712261
-0.102061
0.0271542
-0.340067
0.0564011
-0.542626
0.0902613
-0.66401
0.125907
-0.718711
0.162377
-0.741215
0.199696
-0.756581
0.238178
-0.775383
0.278376
-0.802086
-0.832846
0.319821
0.00727418
-0.109335
0.027207
-0.36
0.055869
-0.571288
0.0887279
-0.696869
0.12315
-0.753133
0.158321
-0.776386
0.194318
-0.792577
0.231472
-0.812538
0.270203
-0.840817
-0.87276
0.310118
0.00741744
-0.116752
0.027219
-0.379802
0.0552459
-0.599315
0.0870481
-0.728672
0.120193
-0.786279
0.154012
-0.810205
0.188632
-0.827197
0.224402
-0.848308
0.261529
-0.877943
-0.911083
0.299852
0.00755008
-0.124302
0.0271849
-0.399437
0.0545254
-0.626655
0.0852169
-0.759363
0.117034
-0.818096
0.149452
-0.842624
0.18265
-0.860395
0.216989
-0.882647
0.252429
-0.913384
-0.948199
0.289545
0.00766981
-0.131972
0.0270993
-0.418866
0.0537013
-0.653257
0.0832296
-0.788891
0.113671
-0.848537
0.144644
-0.873596
0.176379
-0.89213
0.209244
-0.915513
0.243243
-0.947383
-0.985674
0.280719
0.00777442
-0.139747
0.0269574
-0.438049
0.052768
-0.679068
0.0810825
-0.817206
0.110103
-0.877558
0.139589
-0.903082
0.169824
-0.922364
0.201175
-0.946864
0.233634
-0.979842
-1.02084
0.268802
0.00786171
-0.147608
0.0267543
-0.456942
0.0517204
-0.704034
0.0787723
-0.844258
0.106331
-0.905116
0.134292
-0.931043
0.16299
-0.951062
0.192788
-0.976663
0.223727
-1.01078
-1.05408
0.256968
0.00792959
-0.155538
0.0264857
-0.475498
0.050554
-0.728102
0.0762967
-0.87
0.102355
-0.931175
0.128756
-0.957444
0.155884
-0.97819
0.184091
-1.00487
0.213474
-1.04016
-1.08548
0.244866
0.00797606
-0.163514
0.0261477
-0.493669
0.049265
-0.75122
0.073654
-0.894389
0.098176
-0.955697
0.122986
-0.982254
0.14851
-1.00371
0.17509
-1.03145
0.202861
-1.06793
-1.11503
0.232419
0.00799921
-0.171513
0.0257365
-0.511407
0.0478504
-0.773334
0.0708435
-0.917382
0.0937968
-0.97865
0.116986
-1.00544
0.140876
-1.0276
0.165795
-1.05637
0.191901
-1.09404
-1.14275
0.219618
0.00799729
-0.179511
0.0252491
-0.528658
0.0463079
-0.794392
0.0678653
-0.93894
0.0892204
-1.00001
0.110763
-1.02698
0.13299
-1.04983
0.156217
-1.0796
0.18061
-1.11843
-1.16861
0.206471
0.00796867
-0.187479
0.0246829
-0.545373
0.0446358
-0.814345
0.0647206
-0.959025
0.0844509
-1.01974
0.104323
-1.04686
0.124863
-1.07037
0.146368
-1.1011
0.169007
-1.14107
-1.1926
0.192993
0.00791188
-0.195391
0.024036
-0.561497
0.0428335
-0.833143
0.0614112
-0.977602
0.0794931
-1.03782
0.0976749
-1.06504
0.116504
-1.0892
0.136261
-1.12086
0.157113
-1.16192
-1.21469
0.179201
0.0078256
-0.203217
0.0233066
-0.576978
0.0409011
-0.850737
0.0579401
-0.994641
0.0743529
-1.05423
0.0908268
-1.08151
0.107925
-1.1063
0.125912
-1.13884
0.144944
-1.18096
-1.23486
0.165113
0.00770871
-0.210925
0.0224936
-0.591763
0.0388392
-0.867083
0.0543109
-1.01011
0.0690371
-1.06896
0.083788
-1.09626
0.0991386
-1.12165
0.115334
-1.15504
0.132521
-1.19814
-1.25308
0.150749
0.00756024
-0.218486
0.0215963
-0.605799
0.0366496
-0.882136
0.0505282
-1.02399
0.063553
-1.08198
0.076569
-1.10928
0.0901568
-1.13524
0.104543
-1.16943
0.119863
-1.21346
-1.26935
0.13613
0.00737941
-0.225865
0.0206148
-0.619034
0.0343346
-0.895856
0.0465975
-1.03625
0.057909
-1.09329
0.0691804
-1.12055
0.0809935
-1.14705
0.0935561
-1.18199
0.106988
-1.22689
-1.28364
0.121277
0.00716565
-0.233031
0.0195494
-0.631418
0.0318972
-0.908204
0.0425249
-1.04688
0.0521141
-1.10288
0.0616341
-1.13007
0.0716629
-1.15708
0.0823895
-1.19272
0.0939171
-1.23842
-1.29594
0.106213
0.0069186
-0.239949
0.0184011
-0.6429
0.0293413
-0.919144
0.0383174
-1.05586
0.046178
-1.11074
0.0539421
-1.13784
0.0621798
-1.16532
0.0710608
-1.2016
0.0806708
-1.24803
-1.30622
0.0909596
0.00663811
-0.246587
0.0171714
-0.653434
0.0266714
-0.928644
0.0339826
-1.06317
0.0401108
-1.11687
0.0461172
-1.14384
0.0525594
-1.17176
0.0595879
-1.20862
0.0672701
-1.25571
-1.3145
0.0755418
0.00632424
-0.252912
0.0158625
-0.662972
0.0238926
-0.936674
0.0295287
-1.06881
0.0339235
-1.12127
0.0381726
-1.14809
0.0428174
-1.17641
0.0479891
-1.2138
0.0537365
-1.26146
-1.32074
0.0599836
0.00597732
-0.258889
0.0144769
-0.671471
0.0210108
-0.943208
0.0249647
-1.07276
0.0276272
-1.12393
0.030122
-1.15059
0.0329697
-1.17925
0.0362831
-1.21711
0.0400919
-1.26527
-1.32496
0.0443095
0.00559788
-0.264487
0.0130177
-0.678891
0.0180323
-0.948223
0.0202999
-1.07503
0.0212331
-1.12486
0.021979
-1.15133
0.0230322
-1.18031
0.0244882
-1.21857
0.0263584
-1.26714
-1.32715
0.0285446
0.00518673
-0.269674
0.0114888
-0.685193
0.0149642
-0.951698
0.015544
-1.07561
0.014753
-1.12407
0.0137564
-1.15033
0.013019
-1.17957
0.0126209
-1.21817
0.0125565
-1.26708
-1.3273
0.0127145
0.00474497
-0.274419
0.00989445
-0.690343
0.0118142
-0.953618
0.0107067
-1.0745
0.00819681
-1.12156
0.0054615
-1.1476
0.00293047
-1.17704
0.000650274
-1.21589
-0.00129269
-1.26513
-1.32544
-0.00315596
0.00427395
-0.278693
0.00823998
-0.694309
0.00859093
-0.953969
0.00579921
-1.07171
0.00155062
-1.11731
-0.00287134
-1.14318
-0.00714359
-1.17277
-0.0112271
-1.2118
-0.0151383
-1.26122
-1.32154
-0.0190358
0.00377535
-0.282468
0.00653156
-0.697065
0.00530427
-0.952742
0.000834049
-1.06724
-0.00506372
-1.11141
-0.0112067
-1.13703
-0.0172441
-1.16673
-0.0231606
-1.20589
-0.0289967
-1.25539
-1.31564
-0.0349047
0.00325153
-0.285719
0.00477635
-0.69859
0.0019722
-0.949937
-0.00417123
-1.06109
-0.011731
-1.10385
-0.0195738
-1.12919
-0.0273536
-1.15895
-0.0350859
-1.19816
-0.0428265
-1.24765
-1.30773
-0.0507361
0.00270263
-0.288422
0.00298464
-0.698872
-0.00143357
-0.945519
-0.00921919
-1.05331
-0.0184274
-1.09465
-0.0279447
-1.11967
-0.0374486
-1.14944
-0.0469786
-1.18863
-0.0566059
-1.23802
-1.29783
-0.0665046
0.00212818
-0.29055
0.00118258
-0.697926
-0.00489103
-0.939446
-0.0142959
-1.0439
-0.0251326
-1.08381
-0.0363019
-1.1085
-0.0475098
-1.13824
-0.058817
-1.17732
-0.0703122
-1.22652
-1.28595
-0.0821853
0.00152604
-0.292076
-0.000685871
-0.695714
-0.0083627
-0.931769
-0.0193873
-1.03288
-0.0318315
-1.07137
-0.0446293
-1.09571
-0.0575189
-1.12535
-0.0705807
-1.16426
-0.0839229
-1.21318
-1.27212
-0.0977543
0.000893235
-0.292969
-0.00269266
-0.692128
-0.011861
-0.9226
-0.0244818
-1.02026
-0.0385097
-1.05734
-0.0529117
-1.08131
-0.0674585
-1.1108
-0.0822499
-1.14946
-0.0974164
-1.19801
-1.25635
-0.113189
0.000220461
-0.29319
-0.00467907
-0.687229
-0.0153731
-0.911906
-0.0295676
-1.00606
-0.0451536
-1.04175
-0.0611341
-1.06532
-0.077312
-1.09462
-0.0938059
-1.13297
-0.110773
-1.18105
-1.23865
-0.12847
-0.000432205
-0.292758
-0.00667112
-0.68099
-0.0188899
-0.899688
-0.0346327
-0.990321
-0.0517501
-1.02463
-0.0692823
-1.04779
-0.0870641
-1.07684
-0.105232
-1.1148
-0.123975
-1.1623
-1.21905
-0.143579
-0.00109149
-0.291666
-0.00866938
-0.673412
-0.022402
-0.885955
-0.0396657
-0.973057
-0.0582862
-1.00601
-0.0773427
-1.02874
-0.0967007
-1.05748
-0.116515
-1.09499
-0.13701
-1.14181
-1.19755
-0.158506
-0.00176935
-0.289897
-0.0106709
-0.66451
-0.0258999
-0.870726
-0.044655
-0.954302
-0.0647492
-0.985919
-0.085302
-1.00818
-0.10621
-1.03657
-0.127644
-1.07355
-0.14987
-1.11958
-1.17418
-0.173243
-0.00245801
-0.287439
-0.0126711
-0.654297
-0.0293744
-0.854023
-0.0495896
-0.934087
-0.0711265
-0.964382
-0.0931475
-0.986162
-0.115579
-1.01414
-0.138612
-1.05052
-0.162551
-1.09564
-1.14895
-0.187786
-0.00315341
-0.284285
-0.0146644
-0.642786
-0.032816
-0.835871
-0.0544579
-0.912445
-0.0774053
-0.941435
-0.100866
-0.962702
-0.124798
-0.99021
-0.14941
-1.02591
-0.175048
-1.07001
-1.12187
-0.202128
-0.00385228
-0.280433
-0.016645
-0.629994
-0.0362154
-0.816301
-0.0592487
-0.889412
-0.0835723
-0.917111
-0.108441
-0.937833
-0.13385
-0.964802
-0.160024
-0.999736
-0.187347
-1.04268
-1.09296
-0.21625
-0.00455162
-0.275882
-0.0186068
-0.615939
-0.0395634
-0.795344
-0.0639503
-0.865025
-0.0896136
-0.891448
-0.115858
-0.911588
-0.142715
-0.937945
-0.170429
-0.972022
-0.199411
-1.0137
-1.06227
-0.230102
-0.00524855
-0.270633
-0.0205438
-0.600643
-0.0428508
-0.773037
-0.0685515
-0.839324
-0.0955149
-0.864485
-0.123097
-0.884006
-0.151364
-0.909678
-0.180581
-0.942805
-0.211181
-0.983101
-1.02984
-0.243613
-0.00594027
-0.264693
-0.0224498
-0.584134
-0.0460687
-0.749418
-0.0730411
-0.812351
-0.101262
-0.836264
-0.130137
-0.855131
-0.159767
-0.880048
-0.19043
-0.912142
-0.222585
-0.950946
-0.995732
-0.256693
-0.00662405
-0.258069
-0.0243189
-0.566439
-0.0492087
-0.724528
-0.0774083
-0.784152
-0.106841
-0.806831
-0.13696
-0.825012
-0.167892
-0.849117
-0.199927
-0.880107
-0.233548
-0.917325
-0.96008
-0.2692
-0.00729719
-0.250772
-0.0261453
-0.547591
-0.0522623
-0.698411
-0.081643
-0.754771
-0.11224
-0.776233
-0.14355
-0.793703
-0.175717
-0.81695
-0.209036
-0.846788
-0.244009
-0.882353
-0.923055
-0.281033
-0.00795708
-0.242814
-0.0279231
-0.527625
-0.0552218
-0.671113
-0.0857357
-0.724257
-0.117448
-0.74452
-0.149895
-0.761256
-0.183236
-0.783609
-0.21775
-0.812273
-0.253436
-0.846667
-0.886474
-0.290017
-0.00860116
-0.234213
-0.0296471
-0.506579
-0.0580798
-0.64268
-0.0896777
-0.692659
-0.122456
-0.711742
-0.155986
-0.727726
-0.190445
-0.74915
-0.226107
-0.776611
-0.263051
-0.809723
-0.848334
-0.301192
-0.00922695
-0.224986
-0.0313118
-0.484494
-0.060829
-0.613163
-0.0934608
-0.660028
-0.127254
-0.677949
-0.161817
-0.693163
-0.19734
-0.713627
-0.234103
-0.739848
-0.272254
-0.771571
-0.808687
-0.311901
-0.00983206
-0.215154
-0.0329125
-0.461414
-0.063463
-0.582612
-0.0970774
-0.626413
-0.131836
-0.64319
-0.167379
-0.65762
-0.203917
-0.677089
-0.241734
-0.702031
-0.281032
-0.732273
-0.767669
-0.32205
-0.0104142
-0.20474
-0.0344443
-0.437383
-0.0659753
-0.551081
-0.10052
-0.591868
-0.136192
-0.607519
-0.172666
-0.621146
-0.210167
-0.639588
-0.248991
-0.663207
-0.289379
-0.691885
-0.725412
-0.331637
-0.0109712
-0.193769
-0.0359027
-0.412452
-0.0683601
-0.518624
-0.103783
-0.556446
-0.140316
-0.570986
-0.177668
-0.583794
-0.21608
-0.601176
-0.25586
-0.623427
-0.297278
-0.650467
-0.682021
-0.340669
-0.0115009
-0.182268
-0.0372835
-0.386669
-0.0706116
-0.485296
-0.106858
-0.5202
-0.1442
-0.533644
-0.182377
-0.545617
-0.221648
-0.561905
-0.262328
-0.582747
-0.304711
-0.608084
-0.637588
-0.349144
-0.0120014
-0.170267
-0.0385826
-0.360088
-0.0727248
-0.451154
-0.109739
-0.483185
-0.147837
-0.495546
-0.186785
-0.506668
-0.226859
-0.521831
-0.268382
-0.541224
-0.311663
-0.564803
-0.592198
-0.357053
-0.0124708
-0.157796
-0.0397965
-0.332762
-0.0746945
-0.416256
-0.112422
-0.445457
-0.15122
-0.456748
-0.190885
-0.467003
-0.231705
-0.481011
-0.274011
-0.498918
-0.318124
-0.52069
-0.545929
-0.364393
-0.0129073
-0.144888
-0.0409215
-0.304748
-0.0765163
-0.380661
-0.114901
-0.407073
-0.154344
-0.417305
-0.19467
-0.426678
-0.236178
-0.439503
-0.279206
-0.45589
-0.324083
-0.475813
-0.498858
-0.371155
-0.0133095
-0.131579
-0.0419546
-0.276103
-0.078186
-0.344429
-0.11717
-0.36809
-0.157203
-0.377271
-0.198132
-0.385749
-0.240269
-0.397366
-0.283956
-0.412202
-0.329532
-0.430237
-0.451057
-0.377332
-0.0136757
-0.117903
-0.0428927
-0.246886
-0.0796998
-0.307622
-0.119225
-0.328565
-0.159791
-0.336705
-0.201265
-0.344275
-0.243971
-0.35466
-0.288255
-0.367918
-0.334461
-0.384032
-0.4026
-0.382918
-0.0140047
-0.103899
-0.0437333
-0.217157
-0.0810541
-0.270301
-0.121062
-0.288557
-0.162103
-0.295664
-0.204065
-0.302313
-0.247278
-0.311446
-0.292095
-0.323101
-0.338862
-0.337265
-0.353559
-0.387903
-0.0142952
-0.0896034
-0.0444741
-0.186979
-0.082246
-0.23253
-0.122678
-0.248125
-0.164136
-0.254205
-0.206525
-0.259924
-0.250185
-0.267787
-0.295469
-0.277817
-0.342729
-0.290004
-0.304005
-0.392283
-0.0145462
-0.0750573
-0.0451128
-0.156412
-0.0832726
-0.19437
-0.124068
-0.207329
-0.165886
-0.212388
-0.208642
-0.217168
-0.252685
-0.223744
-0.298371
-0.232131
-0.346055
-0.24232
-0.254012
-0.396049
-0.0147567
-0.0603005
-0.0456479
-0.125521
-0.0841317
-0.155886
-0.125232
-0.166229
-0.167349
-0.170271
-0.210412
-0.174104
-0.254776
-0.179381
-0.300798
-0.186109
-0.348836
-0.194282
-0.203651
-0.399196
-0.0149261
-0.0453744
-0.0460777
-0.0943692
-0.0848213
-0.117142
-0.126165
-0.124886
-0.168522
-0.127914
-0.211832
-0.130794
-0.256452
-0.134761
-0.302743
-0.139818
-0.351065
-0.14596
-0.152996
-0.40172
-0.0150537
-0.0303207
-0.0464011
-0.0630218
-0.0853399
-0.0782034
-0.126867
-0.083359
-0.169404
-0.0853761
-0.212899
-0.0872988
-0.257712
-0.0899477
-0.304206
-0.0933245
-0.352741
-0.0974255
-0.10212
-0.403616
-0.015139
-0.0151817
-0.0466172
-0.0315437
-0.0856863
-0.0391343
-0.127335
-0.0417101
-0.169993
-0.0427182
-0.213612
-0.0436803
-0.258553
-0.0450061
-0.305182
-0.046696
-0.353859
-0.0487483
-0.051097
-0.404882
-0.0151817
-1.05441e-10
-0.0467254
-1.95009e-10
-0.0858597
-2.03525e-10
-0.12757
-1.45014e-10
-0.170288
-7.16683e-11
-0.213968
-1.95095e-11
-0.258974
1.50435e-11
-0.30567
3.13548e-11
-0.354419
3.34356e-11
3.10058e-11
-0.405516
-0.0151817
0.0151817
-0.0467254
0.0315437
-0.0858597
0.0391343
-0.12757
0.0417101
-0.170288
0.0427182
-0.213968
0.0436803
-0.258974
0.0450061
-0.30567
0.046696
-0.354419
0.0487483
0.051097
-0.405516
-0.015139
0.0303207
-0.0466172
0.0630218
-0.0856863
0.0782034
-0.127335
0.083359
-0.169993
0.0853761
-0.213612
0.0872988
-0.258553
0.0899477
-0.305182
0.0933245
-0.353859
0.0974255
0.10212
-0.404882
-0.0150537
0.0453744
-0.0464011
0.0943692
-0.0853399
0.117142
-0.126867
0.124886
-0.169404
0.127914
-0.212899
0.130794
-0.257712
0.134761
-0.304206
0.139818
-0.352741
0.14596
0.152996
-0.403616
-0.0149261
0.0603005
-0.0460777
0.125521
-0.0848213
0.155886
-0.126165
0.166229
-0.168522
0.170271
-0.211832
0.174104
-0.256452
0.179381
-0.302743
0.186109
-0.351065
0.194282
0.203651
-0.40172
-0.0147567
0.0750573
-0.0456479
0.156412
-0.0841317
0.19437
-0.125232
0.207329
-0.167349
0.212388
-0.210412
0.217168
-0.254776
0.223744
-0.300798
0.232131
-0.348836
0.24232
0.254012
-0.399196
-0.0145462
0.0896034
-0.0451128
0.186979
-0.0832726
0.23253
-0.124068
0.248125
-0.165886
0.254205
-0.208642
0.259924
-0.252685
0.267787
-0.298371
0.277817
-0.346055
0.290004
0.304005
-0.396049
-0.0142952
0.103899
-0.0444741
0.217157
-0.082246
0.270301
-0.122678
0.288557
-0.164136
0.295664
-0.206525
0.302313
-0.250185
0.311446
-0.295469
0.323101
-0.342729
0.337265
0.353559
-0.392283
-0.0140047
0.117903
-0.0437333
0.246886
-0.0810541
0.307622
-0.121062
0.328565
-0.162103
0.336705
-0.204065
0.344275
-0.247278
0.35466
-0.292095
0.367918
-0.338862
0.384032
0.4026
-0.387903
-0.0136757
0.131579
-0.0428927
0.276103
-0.0796998
0.344429
-0.119225
0.36809
-0.159791
0.377271
-0.201265
0.385749
-0.243971
0.397366
-0.288255
0.412202
-0.334461
0.430237
0.451057
-0.382918
-0.0133095
0.144888
-0.0419546
0.304748
-0.078186
0.380661
-0.11717
0.407073
-0.157203
0.417305
-0.198132
0.426678
-0.240269
0.439503
-0.283956
0.45589
-0.329532
0.475813
0.498858
-0.377332
-0.0129073
0.157796
-0.0409215
0.332762
-0.0765163
0.416256
-0.114901
0.445457
-0.154344
0.456748
-0.19467
0.467003
-0.236178
0.481011
-0.279206
0.498918
-0.324083
0.52069
0.545929
-0.371155
-0.0124708
0.170267
-0.0397965
0.360088
-0.0746945
0.451154
-0.112422
0.483185
-0.15122
0.495546
-0.190885
0.506668
-0.231705
0.521831
-0.274011
0.541224
-0.318124
0.564803
0.592198
-0.364393
-0.0120014
0.182268
-0.0385826
0.386669
-0.0727248
0.485296
-0.109739
0.5202
-0.147837
0.533644
-0.186785
0.545617
-0.226859
0.561905
-0.268382
0.582747
-0.311663
0.608084
0.637588
-0.357053
-0.0115009
0.193769
-0.0372835
0.412452
-0.0706116
0.518624
-0.106858
0.556446
-0.1442
0.570986
-0.182377
0.583794
-0.221648
0.601176
-0.262328
0.623427
-0.304711
0.650467
0.682021
-0.349144
-0.0109712
0.20474
-0.0359027
0.437383
-0.0683601
0.551081
-0.103783
0.591868
-0.140316
0.607519
-0.177668
0.621146
-0.21608
0.639588
-0.25586
0.663207
-0.297278
0.691885
0.725412
-0.340669
-0.0104142
0.215154
-0.0344443
0.461414
-0.0659753
0.582612
-0.10052
0.626413
-0.136192
0.64319
-0.172666
0.65762
-0.210167
0.677089
-0.248991
0.702031
-0.289379
0.732273
0.767669
-0.331637
-0.00983206
0.224986
-0.0329125
0.484494
-0.063463
0.613163
-0.0970774
0.660028
-0.131836
0.677949
-0.167379
0.693163
-0.203917
0.713627
-0.241734
0.739848
-0.281032
0.771571
0.808687
-0.32205
-0.00922695
0.234213
-0.0313118
0.506579
-0.060829
0.64268
-0.0934608
0.692659
-0.127254
0.711742
-0.161817
0.727726
-0.19734
0.74915
-0.234103
0.776611
-0.272254
0.809723
0.848334
-0.311901
-0.00860116
0.242814
-0.0296471
0.527625
-0.0580798
0.671113
-0.0896777
0.724257
-0.122456
0.74452
-0.155986
0.761256
-0.190445
0.783609
-0.226107
0.812273
-0.263051
0.846667
0.886474
-0.301192
-0.00795708
0.250772
-0.0279231
0.547591
-0.0552218
0.698411
-0.0857357
0.754771
-0.117448
0.776233
-0.149895
0.793703
-0.183236
0.81695
-0.21775
0.846788
-0.253436
0.882353
0.923055
-0.290017
-0.00729719
0.258069
-0.0261453
0.566439
-0.0522623
0.724528
-0.081643
0.784152
-0.11224
0.806831
-0.14355
0.825012
-0.175717
0.849117
-0.209036
0.880107
-0.244009
0.917325
0.96008
-0.281033
-0.00662405
0.264693
-0.0243189
0.584134
-0.0492087
0.749418
-0.0774083
0.812351
-0.106841
0.836264
-0.13696
0.855131
-0.167892
0.880048
-0.199927
0.912142
-0.233548
0.950946
0.995732
-0.2692
-0.00594027
0.270633
-0.0224498
0.600643
-0.0460687
0.773037
-0.0730411
0.839324
-0.101262
0.864485
-0.130137
0.884006
-0.159767
0.909678
-0.19043
0.942805
-0.222585
0.983101
1.02984
-0.256693
-0.00524855
0.275882
-0.0205438
0.615939
-0.0428508
0.795344
-0.0685515
0.865025
-0.0955149
0.891448
-0.123097
0.911588
-0.151364
0.937945
-0.180581
0.972022
-0.211181
1.0137
1.06227
-0.243613
-0.00455162
0.280433
-0.0186068
0.629994
-0.0395634
0.816301
-0.0639503
0.889412
-0.0896136
0.917111
-0.115858
0.937833
-0.142715
0.964802
-0.170429
0.999736
-0.199411
1.04268
1.09296
-0.230102
-0.00385228
0.284285
-0.016645
0.642786
-0.0362154
0.835871
-0.0592487
0.912445
-0.0835723
0.941435
-0.108441
0.962702
-0.13385
0.99021
-0.160024
1.02591
-0.187347
1.07001
1.12187
-0.21625
-0.00315341
0.287439
-0.0146644
0.654297
-0.032816
0.854023
-0.0544579
0.934087
-0.0774053
0.964382
-0.100866
0.986162
-0.124798
1.01414
-0.14941
1.05052
-0.175048
1.09564
1.14895
-0.202128
-0.00245801
0.289897
-0.0126711
0.66451
-0.0293744
0.870726
-0.0495896
0.954302
-0.0711265
0.985919
-0.0931475
1.00818
-0.115579
1.03657
-0.138612
1.07355
-0.162551
1.11958
1.17418
-0.187786
-0.00176935
0.291666
-0.0106709
0.673412
-0.0258999
0.885955
-0.044655
0.973057
-0.0647492
1.00601
-0.085302
1.02874
-0.10621
1.05748
-0.127644
1.09499
-0.14987
1.14181
1.19755
-0.173243
-0.00109149
0.292758
-0.00866938
0.68099
-0.022402
0.899688
-0.0396657
0.990321
-0.0582862
1.02463
-0.0773427
1.04779
-0.0967007
1.07684
-0.116515
1.1148
-0.13701
1.1623
1.21905
-0.158506
-0.000432205
0.29319
-0.00667112
0.687229
-0.0188899
0.911906
-0.0346327
1.00606
-0.0517501
1.04175
-0.0692823
1.06532
-0.0870641
1.09462
-0.105232
1.13297
-0.123975
1.18105
1.23865
-0.143579
0.000220461
0.292969
-0.00467907
0.692128
-0.0153731
0.9226
-0.0295676
1.02026
-0.0451536
1.05734
-0.0611341
1.08131
-0.077312
1.1108
-0.0938059
1.14946
-0.110773
1.19801
1.25635
-0.12847
0.000893235
0.292076
-0.00269266
0.695714
-0.011861
0.931769
-0.0244818
1.03288
-0.0385097
1.07137
-0.0529117
1.09571
-0.0674585
1.12535
-0.0822499
1.16426
-0.0974164
1.21318
1.27212
-0.113189
0.00152604
0.29055
-0.000685871
0.697926
-0.0083627
0.939446
-0.0193873
1.0439
-0.0318315
1.08381
-0.0446293
1.1085
-0.0575189
1.13824
-0.0705807
1.17732
-0.0839229
1.22652
1.28595
-0.0977543
0.00212818
0.288422
0.00118258
0.698872
-0.00489103
0.945519
-0.0142959
1.05331
-0.0251326
1.09465
-0.0363019
1.11967
-0.0475098
1.14944
-0.058817
1.18863
-0.0703122
1.23802
1.29783
-0.0821853
0.00270263
0.285719
0.00298464
0.69859
-0.00143357
0.949937
-0.00921919
1.06109
-0.0184274
1.10385
-0.0279447
1.12919
-0.0374486
1.15895
-0.0469786
1.19816
-0.0566059
1.24765
1.30773
-0.0665046
0.00325153
0.282468
0.00477635
0.697065
0.0019722
0.952742
-0.00417123
1.06724
-0.011731
1.11141
-0.0195738
1.13703
-0.0273536
1.16673
-0.0350859
1.20589
-0.0428265
1.25539
1.31564
-0.0507361
0.00377535
0.278693
0.00653156
0.694309
0.00530427
0.953969
0.000834049
1.07171
-0.00506372
1.11731
-0.0112067
1.14318
-0.0172441
1.17277
-0.0231606
1.2118
-0.0289967
1.26122
1.32154
-0.0349047
0.00427395
0.274419
0.00823998
0.690343
0.00859093
0.953618
0.00579921
1.0745
0.00155062
1.12156
-0.00287134
1.1476
-0.00714359
1.17704
-0.0112271
1.21589
-0.0151383
1.26513
1.32544
-0.0190358
0.00474497
0.269674
0.00989445
0.685193
0.0118142
0.951698
0.0107067
1.07561
0.00819681
1.12407
0.0054615
1.15033
0.00293047
1.17957
0.000650275
1.21817
-0.00129269
1.26708
1.3273
-0.00315596
0.00518673
0.264487
0.0114888
0.678891
0.0149642
0.948223
0.015544
1.07503
0.014753
1.12486
0.0137564
1.15133
0.013019
1.18031
0.0126209
1.21857
0.0125565
1.26714
1.32715
0.0127145
0.00559788
0.258889
0.0130177
0.671471
0.0180323
0.943208
0.0202999
1.07276
0.0212331
1.12393
0.021979
1.15059
0.0230322
1.17925
0.0244882
1.21711
0.0263584
1.26527
1.32496
0.0285446
0.00597732
0.252912
0.0144769
0.662972
0.0210108
0.936674
0.0249647
1.06881
0.0276272
1.12127
0.030122
1.14809
0.0329697
1.17641
0.0362831
1.2138
0.0400919
1.26146
1.32074
0.0443095
0.00632424
0.246587
0.0158625
0.653434
0.0238926
0.928644
0.0295287
1.06317
0.0339235
1.11687
0.0381726
1.14384
0.0428174
1.17176
0.0479891
1.20862
0.0537365
1.25571
1.3145
0.0599836
0.00663811
0.239949
0.0171714
0.6429
0.0266714
0.919144
0.0339826
1.05586
0.0401108
1.11074
0.0461172
1.13784
0.0525594
1.16532
0.0595879
1.2016
0.0672701
1.24803
1.30622
0.0755418
0.0069186
0.233031
0.0184011
0.631418
0.0293413
0.908204
0.0383174
1.04688
0.046178
1.10288
0.0539421
1.13007
0.0621798
1.15708
0.0710608
1.19272
0.0806708
1.23842
1.29594
0.0909596
0.00716565
0.225865
0.0195494
0.619034
0.0318972
0.895856
0.0425249
1.03625
0.0521141
1.09329
0.0616341
1.12055
0.0716629
1.14705
0.0823895
1.18199
0.0939171
1.22689
1.28364
0.106213
0.00737941
0.218486
0.0206148
0.605799
0.0343346
0.882136
0.0465975
1.02399
0.057909
1.08198
0.0691804
1.10928
0.0809935
1.13524
0.0935561
1.16943
0.106988
1.21346
1.26935
0.121277
0.00756024
0.210925
0.0215963
0.591763
0.0366496
0.867083
0.0505282
1.01011
0.063553
1.06896
0.076569
1.09626
0.0901568
1.12165
0.104543
1.15504
0.119863
1.19814
1.25308
0.13613
0.00770871
0.203217
0.0224936
0.576978
0.0388392
0.850737
0.0543109
0.994641
0.0690371
1.05423
0.083788
1.08151
0.0991386
1.1063
0.115334
1.13884
0.132521
1.18096
1.23486
0.150749
0.0078256
0.195391
0.0233066
0.561497
0.0409011
0.833143
0.0579401
0.977602
0.0743529
1.03782
0.0908268
1.06504
0.107925
1.0892
0.125912
1.12086
0.144944
1.16192
1.21469
0.165113
0.00791188
0.187479
0.024036
0.545373
0.0428335
0.814345
0.0614112
0.959025
0.0794931
1.01974
0.0976749
1.04686
0.116504
1.07037
0.136261
1.1011
0.157113
1.14107
1.1926
0.179201
0.00796867
0.179511
0.0246829
0.528658
0.0446358
0.794392
0.0647206
0.93894
0.0844509
1.00001
0.104323
1.02698
0.124863
1.04983
0.146368
1.0796
0.169007
1.11843
1.16861
0.192993
0.00799729
0.171513
0.0252491
0.511407
0.0463079
0.773334
0.0678653
0.917382
0.0892204
0.97865
0.110763
1.00544
0.13299
1.0276
0.156217
1.05637
0.18061
1.09404
1.14275
0.206471
0.00799921
0.163514
0.0257365
0.493669
0.0478504
0.75122
0.0708435
0.894389
0.0937968
0.955697
0.116986
0.982254
0.140876
1.00371
0.165795
1.03145
0.191901
1.06793
1.11503
0.219618
0.00797606
0.155538
0.0261477
0.475498
0.049265
0.728102
0.073654
0.87
0.098176
0.931175
0.122986
0.957444
0.14851
0.97819
0.17509
1.00487
0.202861
1.04016
1.08548
0.232419
0.00792959
0.147608
0.0264857
0.456942
0.050554
0.704034
0.0762967
0.844258
0.102355
0.905116
0.128756
0.931043
0.155884
0.951062
0.184091
0.976663
0.213474
1.01078
1.05408
0.244866
0.00786171
0.139747
0.0267543
0.438049
0.0517204
0.679068
0.0787723
0.817206
0.106331
0.877558
0.134292
0.903082
0.16299
0.922364
0.192788
0.946864
0.223727
0.979842
1.02084
0.256968
0.00777442
0.131972
0.0269574
0.418866
0.052768
0.653257
0.0810825
0.788891
0.110103
0.848537
0.139589
0.873596
0.169824
0.89213
0.201175
0.915513
0.233634
0.947383
0.985674
0.268802
0.00766981
0.124302
0.0270993
0.399437
0.0537013
0.626655
0.0832296
0.759363
0.113671
0.818096
0.144644
0.842624
0.176379
0.860395
0.209244
0.882647
0.243243
0.913384
0.948199
0.280719
0.00755008
0.116752
0.0271849
0.379802
0.0545254
0.599315
0.0852169
0.728672
0.117034
0.786279
0.149452
0.810205
0.18265
0.827197
0.216989
0.848308
0.252429
0.877943
0.911083
0.289545
0.00741744
0.109335
0.027219
0.36
0.0552459
0.571288
0.0870481
0.696869
0.120193
0.753133
0.154012
0.776386
0.188632
0.792577
0.224402
0.812538
0.261529
0.840817
0.87276
0.299852
0.00727418
0.102061
0.027207
0.340067
0.055869
0.542626
0.0887279
0.66401
0.12315
0.718711
0.158321
0.741215
0.194318
0.756581
0.231472
0.775383
0.270203
0.802086
0.832846
0.310118
0.00712261
0.0949382
0.0271542
0.320036
0.0564011
0.513379
0.0902613
0.63015
0.125907
0.683066
0.162377
0.704745
0.199696
0.719261
0.238178
0.736901
0.278376
0.761888
0.7914
0.319821
0.00696503
0.0879732
0.0270663
0.299934
0.0568493
0.483596
0.0916542
0.595345
0.128465
0.646255
0.166177
0.667033
0.20476
0.680679
0.244501
0.69716
0.286029
0.72036
0.748547
0.328882
0.00680376
0.0811694
0.0269487
0.27979
0.0572207
0.453324
0.0929127
0.559653
0.13083
0.608338
0.169722
0.628141
0.209501
0.6409
0.250431
0.656229
0.293157
0.677634
0.704397
0.337308
0.00664106
0.0745283
0.0268072
0.259623
0.0575228
0.422608
0.0940435
0.523133
0.133003
0.569378
0.173012
0.588132
0.213919
0.599993
0.255965
0.614183
0.299775
0.633825
0.659056
0.345116
0.00647918
0.0680492
0.0266475
0.239455
0.0577632
0.391493
0.0950535
0.485842
0.134991
0.52944
0.176049
0.547074
0.218012
0.558031
0.261103
0.571092
0.305904
0.589024
0.612622
0.352338
0.00632028
0.0617289
0.026475
0.2193
0.0579493
0.360019
0.0959498
0.447842
0.136798
0.488591
0.178836
0.505036
0.221782
0.515084
0.265847
0.527027
0.311563
0.543308
0.565181
0.359004
0.00616644
0.0555624
0.0262952
0.199171
0.0580887
0.328225
0.0967397
0.409191
0.138429
0.446902
0.181375
0.462091
0.225231
0.471228
0.270196
0.482062
0.316761
0.496743
0.516813
0.365129
0.00601967
0.0495428
0.0261133
0.179078
0.0581887
0.29615
0.0974305
0.369949
0.13989
0.404442
0.18367
0.418312
0.22836
0.426538
0.274152
0.436269
0.321501
0.449394
0.467596
0.370718
0.00588182
0.0436609
0.0259341
0.159025
0.0582562
0.263828
0.0980291
0.330176
0.141187