/*--------------------------------*- C++ -*----------------------------------*\
  =========                 |
  \\      /  F ield         | OpenFOAM: The Open Source CFD Toolbox
   \\    /   O peration     | Website:  https://openfoam.org
    \\  /    A nd           | Version:  9
     \\/     M anipulation  |
\*---------------------------------------------------------------------------*/
FoamFile
{
    format      ascii;
    class       volVectorField;
    location    "39";
    object      U;
}
// * * * * * * * * * * * * * * * * * * * * * * * * * * * * * * * * * * * * * //

dimensions      [0 1 -1 0 0 0 0];

internalField   nonuniform List<vector> 
8500
(
(-0.00648674 0.00259301 0)
(-0.0291304 0.00447106 -6.54863e-23)
(-0.0611768 0.00493268 -3.60063e-24)
(-0.0889894 0.00476781 6.82171e-37)
(-0.116404 0.00445057 -1.00347e-23)
(-0.136832 0.00384781 8.35542e-24)
(-0.160749 0.00379451 -5.65557e-23)
(-0.171621 0.0024858 -8.7598e-23)
(-0.191916 0.00351359 -8.0095e-23)
(-0.199043 0.00123618 -4.1577e-24)
(-0.00678048 0.00772666 1.89099e-22)
(-0.0293879 0.0133382 6.1186e-23)
(-0.0610555 0.0147224 2.45558e-22)
(-0.0883116 0.0142325 0)
(-0.115145 0.0132823 0)
(-0.134594 0.0114829 1.68266e-23)
(-0.157943 0.0113163 4.25063e-23)
(-0.167095 0.00739703 9.34985e-23)
(-0.186875 0.010505 6.02954e-23)
(-0.19178 0.003572 1.66397e-23)
(-0.00735974 0.0127062 -1.68043e-22)
(-0.0298991 0.0219841 0)
(-0.0608174 0.0242883 -2.31085e-22)
(-0.0869645 0.0234873 0)
(-0.112637 0.0219074 -4.0197e-23)
(-0.130125 0.0189419 3.34701e-23)
(-0.152339 0.0186336 0)
(-0.158003 0.0121407 0)
(-0.176797 0.0173992 0)
(-0.177279 0.00552033 0)
(-0.00820865 0.0174356 3.3783e-22)
(-0.0306565 0.0302669 -2.45709e-22)
(-0.0604707 0.0334835 -5.79483e-23)
(-0.0849649 0.0323927 -3.61311e-22)
(-0.108903 0.0301822 -3.62699e-22)
(-0.123441 0.0261117 3.37525e-23)
(-0.143942 0.0255859 -2.81816e-23)
(-0.144259 0.0166306 3.2586e-22)
(-0.161657 0.0241462 1.82857e-26)
(-0.155514 0.00688178 3.28462e-22)
(-0.00930488 0.0218289 -3.3783e-22)
(-0.031649 0.0380529 -3.17569e-22)
(-0.0600267 0.0421651 8.71775e-23)
(-0.0823366 0.0408101 4.82187e-22)
(-0.103966 0.0379558 -4.10154e-23)
(-0.114568 0.0328851 5.36627e-22)
(-0.132747 0.0319763 0)
(-0.125722 0.0208094 -3.73204e-22)
(-0.141356 0.0307097 -7.95529e-23)
(-0.126267 0.00756957 -4.56505e-22)
(-0.0106212 0.0258132 8.51661e-23)
(-0.0328622 0.0452198 5.28145e-22)
(-0.0594968 0.0501944 -4.08211e-22)
(-0.0791086 0.0486029 -2.96422e-25)
(-0.0978445 0.0450699 -3.65704e-22)
(-0.103542 0.039162 1.35584e-22)
(-0.118721 0.0375591 -5.66231e-23)
(-0.102187 0.0246452 4.66777e-22)
(-0.115676 0.0370363 -7.97239e-23)
(-0.0888793 0.00773021 2.61446e-22)
(-0.0121273 0.0293311 4.26673e-23)
(-0.0342786 0.0516591 0)
(-0.0588899 0.0574382 -1.56757e-24)
(-0.0753109 0.0556383 0)
(-0.0905405 0.0513614 6.48609e-22)
(-0.0903995 0.0448513 -5.37122e-22)
(-0.101772 0.0420335 0)
(-0.0733995 0.0281402 -1.12591e-24)
(-0.0842719 0.0429069 0)
(-0.0419598 0.00797463 0)
(-0.0137922 0.032343 -6.88053e-22)
(-0.0358772 0.0572782 -7.10812e-23)
(-0.0582074 0.0637723 5.26676e-22)
(-0.0709668 0.0617875 9.76312e-23)
(-0.0820178 0.0566686 -6.52475e-22)
(-0.0751619 0.0498768 -4.02303e-22)
(-0.0816808 0.0450383 -5.69135e-23)
(-0.0390698 0.031382 4.63302e-22)
(-0.0466856 0.0475925 -8.00347e-23)
(0.0169044 0.00935183 6.62027e-23)
(-0.015586 0.0348275 7.74596e-22)
(-0.0376334 0.0620025 -5.71441e-22)
(-0.0574373 0.0690838 -1.76529e-22)
(-0.0660821 0.0669261 9.73883e-23)
(-0.0721793 0.0608391 6.52406e-22)
(-0.0578045 0.0541922 6.0632e-22)
(-0.05798 0.0461623 -5.70456e-23)
(0.00117546 0.0345508 9.27279e-23)
(-0.00271432 0.0502887 -1.60441e-22)
(0.0916979 0.0123729 6.74957e-23)
(-0.0174821 0.0367815 6.96043e-22)
(-0.0395168 0.065776 5.71761e-22)
(-0.0565477 0.0732758 -8.28441e-22)
(-0.0606281 0.0709344 -9.76979e-23)
(-0.0608277 0.0637312 0)
(-0.0382148 0.0577994 0)
(-0.0298817 0.0452007 0)
(0.0483782 0.0376677 -1.46861e-21)
(0.0473703 0.0501132 -6.71761e-22)
(0.186124 0.0175953 5.13504e-22)
(-0.0194584 0.0382187 -1.39636e-21)
(-0.041489 0.0685626 0)
(-0.0554777 0.0762705 1.89659e-21)
(-0.0545238 0.0737013 7.84538e-22)
(-0.0476213 0.0652192 8.16498e-23)
(-0.0159989 0.060634 0)
(0.00361265 0.042363 -9.32703e-22)
(0.103881 0.0410734 7.32926e-22)
(0.105229 0.0457368 6.71752e-22)
(0.301798 0.0255007 -5.13484e-22)
(-0.0214979 0.0391675 7.88244e-22)
(-0.0434992 0.070345 -7.21725e-23)
(-0.0541254 0.0780144 -9.50039e-22)
(-0.0476122 0.0751324 -8.83077e-22)
(-0.0321254 0.0653002 0)
(0.00972428 0.0624393 1.08015e-21)
(0.044209 0.038144 5.22172e-25)
(0.168496 0.0455715 6.32433e-22)
(0.176142 0.0373892 7.54005e-22)
(0.437126 0.0352059 -5.09213e-22)
(-0.0235887 0.0396677 4.54898e-26)
(-0.0454789 0.0711248 1.23722e-21)
(-0.0523327 0.0784796 -1.19533e-22)
(-0.0395739 0.0751359 6.89434e-22)
(-0.0138168 0.064067 4.11983e-22)
(0.0401667 0.0629926 2.74414e-22)
(0.0946882 0.0333999 9.30374e-22)
(0.242642 0.0510208 -8.22336e-22)
(0.268382 0.0290045 -5.13567e-22)
(0.586015 0.0454814 3.74502e-22)
(-0.0257226 0.0397671 0)
(-0.0473355 0.0709198 -1.01902e-21)
(-0.0498846 0.077672 -1.2003e-22)
(-0.0298962 0.073648 1.62958e-24)
(0.00813028 0.0616025 6.57239e-22)
(0.0768468 0.0622021 -9.44326e-22)
(0.158202 0.0297327 9.24959e-22)
(0.326901 0.0559329 -9.41806e-23)
(0.388434 0.0265124 0)
(0.738142 0.0562906 0)
(-0.027894 0.0395173 8.95593e-23)
(-0.0489416 0.0697633 -1.17624e-21)
(-0.0464891 0.0756396 0)
(-0.0178843 0.0707096 -9.73712e-23)
(0.03492 0.0580544 8.20569e-23)
(0.121884 0.0599478 0)
(0.237128 0.0291734 -9.26844e-22)
(0.422761 0.0591754 -7.277e-22)
(0.534062 0.0332885 1.5863e-22)
(0.881329 0.0683751 -1.33309e-22)
(-0.0300939 0.0389654 -9.0003e-23)
(-0.0501302 0.0677069 1.25012e-21)
(-0.0417354 0.072453 0)
(-0.00263538 0.0664802 -8.90128e-22)
(0.0681105 0.0537502 8.21e-23)
(0.177949 0.0565546 -1.08194e-21)
(0.331987 0.0330645 -1.12034e-22)
(0.53211 0.062052 8.21454e-22)
(0.692328 0.0480326 0)
(1.00501 0.0815004 1.01295e-21)
(-0.0323017 0.0381492 -1.36906e-21)
(-0.0506905 0.064815 -7.43524e-23)
(-0.0350713 0.0682053 -1.20484e-22)
(0.0170178 0.0612223 9.96578e-23)
(0.109663 0.0492767 -1.31071e-21)
(0.247881 0.0532739 1.08193e-21)
(0.440985 0.041422 9.10931e-22)
(0.653822 0.0676098 7.27627e-22)
(0.845393 0.0669823 1.25889e-21)
(1.10302 0.0942889 -8.86212e-22)
(-0.0344817 0.0370966 1.45964e-21)
(-0.0503559 0.061154 0)
(-0.0258049 0.0630304 1.09454e-21)
(0.0425211 0.0552881 -9.99361e-23)
(0.16182 0.045455 2.62056e-21)
(0.333693 0.0521206 0)
(0.560236 0.0535319 -9.10912e-22)
(0.780879 0.0774787 -1.84554e-24)
(0.978551 0.0868372 -1.41096e-21)
(1.17419 0.105295 1.27827e-22)
(-0.036579 0.0358237 0)
(-0.0487975 0.0567911 1.20312e-21)
(-0.0131 0.0571029 -9.73712e-22)
(0.0755634 0.0491457 0)
(0.226743 0.0433449 -1.30985e-21)
(0.434979 0.055125 0)
(0.683831 0.0686446 8.95828e-22)
(0.902546 0.0907246 -7.25752e-22)
(1.08434 0.105641 -1.20322e-21)
(1.22143 0.113526 -9.68566e-22)
(-0.038513 0.0343318 -1.85235e-22)
(-0.0456253 0.0517975 -1.05107e-21)
(0.00402946 0.0506384 0)
(0.117992 0.0434504 0)
(0.305779 0.0441913 0)
(0.547884 0.063266 -1.33799e-22)
(0.804379 0.0857809 -8.97919e-22)
(1.00953 0.105506 -9.1734e-23)
(1.16204 0.12223 1.20321e-21)
(1.25011 0.118248 1.08957e-21)
(-0.0401747 0.0326115 0)
(-0.0403867 0.0462473 -1.2206e-21)
(0.0267212 0.0439058 0)
(0.171606 0.0391456 0)
(0.398481 0.0491313 0)
(0.66561 0.076061 1.32904e-22)
(0.914827 0.10359 -1.0963e-21)
(1.09692 0.120457 8.49694e-23)
(1.21531 0.135388 8.57416e-22)
(1.26716 0.118839 9.35367e-22)
(-0.0414405 0.0306591 0)
(-0.0325526 0.0402019 1.2206e-21)
(0.0562593 0.0372709 -9.94706e-22)
(0.23773 0.0374807 0)
(0.501852 0.0586655 -1.3075e-21)
(0.780439 0.0920228 0)
(1.0104 0.120876 8.76819e-22)
(1.16395 0.134506 -6.98949e-22)
(1.24985 0.144021 -1.14748e-21)
(1.2919 0.129426 -9.30467e-22)
(-0.04217 0.0284603 1.5548e-21)
(-0.021526 0.033713 0)
(0.0940273 0.0312931 8.71447e-22)
(0.316532 0.039759 1.01944e-22)
(0.610588 0.0723155 2.61492e-21)
(0.886015 0.109475 0)
(1.08914 0.136926 -8.55265e-22)
(1.21271 0.146615 -1.38627e-21)
(1.2745 0.152222 -9.60482e-22)
(1.30114 0.135507 -5.30251e-24)
(-0.0421904 0.025988 -1.65137e-21)
(-0.00663483 0.0268469 7.92661e-23)
(0.141343 0.0268361 1.2394e-22)
(0.406388 0.0468026 -1.02513e-22)
(0.7185 0.08887 -1.30742e-21)
(0.978493 0.127111 1.05261e-21)
(1.15138 0.151329 8.55261e-22)
(1.24733 0.157268 6.87322e-22)
(1.28875 0.158665 1.09649e-21)
(1.30437 0.141281 -9.65957e-22)
(-0.041311 0.0232145 9.78926e-23)
(0.0128978 0.0197126 1.19146e-21)
(0.199126 0.0250778 0)
(0.503783 0.058503 -7.12701e-22)
(0.820222 0.106984 -8.29731e-23)
(1.05642 0.144099 -1.0526e-21)
(1.19894 0.164138 1.02351e-22)
(1.27046 0.166422 5.75123e-22)
(1.29649 0.164362 0)
(1.30437 0.146294 8.59765e-22)
(-0.0393245 0.0201119 -1.01083e-22)
(0.037954 0.0125444 -1.27181e-21)
(0.26744 0.0272547 0)
(0.604039 0.0739123 9.54929e-23)
(0.912177 0.125603 -8.31977e-23)
(1.12006 0.160037 0)
(1.23402 0.175474 -8.17897e-22)
(1.28507 0.174438 -6.60794e-22)
(1.29943 0.169359 -1.25823e-22)
(1.30115 0.150825 -1.05842e-22)
(-0.0359935 0.0166518 0)
(0.0694574 0.005829 -1.46684e-21)
(0.345138 0.0341753 1.31441e-22)
(0.702485 0.0917914 -5.21369e-24)
(0.992608 0.144057 -6.52066e-22)
(1.17061 0.174782 -1.15128e-21)
(1.25894 0.185561 9.22591e-22)
(1.29332 0.181545 0)
(1.29902 0.173931 0)
(1.29683 0.155135 0)
(-0.0310241 0.0128147 2.29003e-24)
(0.10822 0.000409787 1.23011e-21)
(0.429865 0.0458475 1.33131e-22)
(0.795404 0.111091 9.23359e-22)
(1.06111 0.161978 5.68422e-22)
(1.20972 0.188351 -1.11896e-22)
(1.27579 0.194621 7.95592e-22)
(1.29695 0.187999 -5.35282e-22)
(1.29643 0.17823 -5.99799e-22)
(1.29131 0.159297 4.8084e-22)
(-0.0240393 0.00861181 7.65796e-22)
(0.154714 -0.00254296 8.60405e-23)
(0.518476 0.0615495 -1.06364e-21)
(0.880385 0.131091 -8.32348e-22)
(1.11814 0.179188 0)
(1.23911 0.200842 1.01416e-21)
(1.28637 0.20288 -1.58081e-23)
(1.29727 0.193996 6.89582e-22)
(1.2923 0.182375 4.19409e-22)
(1.28531 0.1634 -3.80936e-22)
(-0.014574 0.00412202 -1.76294e-21)
(0.208842 -0.00177271 0)
(0.607665 0.0802594 2.14351e-21)
(0.956207 0.151352 7.31349e-22)
(1.1646 0.195623 8.38293e-23)
(1.26044 0.212398 0)
(1.29214 0.21054 -7.73123e-22)
(1.29522 0.199696 5.83596e-22)
(1.28717 0.186451 4.51899e-22)
(1.27886 0.16749 -3.55203e-22)
(-0.00210196 -0.000464797 8.92322e-22)
(0.26982 0.00368239 6.94859e-22)
(0.694497 0.101063 -1.21147e-21)
(1.0225 0.171634 1.08849e-22)
(1.20162 0.211291 0)
(1.2752 0.223175 0)
(1.29427 0.217777 0)
(1.2915 0.205216 -1.15004e-21)
(1.28133 0.190513 -4.51903e-22)
(1.27213 0.171583 3.55187e-22)
(0.0138956 -0.00480525 8.27538e-22)
(0.336253 0.0141913 -6.89127e-22)
(0.776683 0.123311 7.07129e-23)
(1.07944 0.19182 0)
(1.23039 0.226243 6.3283e-22)
(1.28464 0.233328 4.18704e-22)
(1.29364 0.224734 4.80223e-23)
(1.28655 0.21064 -4.9143e-23)
(1.27496 0.194593 1.08009e-22)
(1.26515 0.175691 -4.35787e-23)
(0.0338017 -0.00837378 -9.39091e-22)
(0.406369 0.0295015 8.72051e-23)
(0.852625 0.14657 5.59963e-22)
(1.12751 0.211847 -1.55658e-22)
(1.25205 0.240549 -4.74688e-22)
(1.28982 0.242997 -5.94853e-22)
(1.29094 0.231519 4.69375e-23)
(1.2807 0.21602 2.83595e-22)
(1.26819 0.198709 0)
(1.25795 0.179807 -3.85791e-23)
(0.0577854 -0.0105116 -6.09074e-23)
(0.478271 0.048954 0)
(0.921357 0.17054 6.16632e-24)
(1.16732 0.231663 0)
(1.26765 0.254288 6.16478e-22)
(1.29159 0.252303 -4.5566e-22)
(1.28664 0.23821 0)
(1.27416 0.221387 9.69354e-24)
(1.26106 0.202864 0)
(1.25053 0.183922 0)
(0.0857875 -0.0105284 -1.2174e-22)
(0.550152 0.0717838 7.93672e-22)
(0.982422 0.195 -6.38639e-22)
(1.19959 0.25121 1.05338e-22)
(1.27813 0.267539 -2.82147e-22)
(1.29063 0.261346 -4.8386e-23)
(1.28109 0.244857 0)
(1.26704 0.226755 1.9558e-22)
(1.25362 0.207053 5.01198e-23)
(1.24287 0.188017 1.42242e-22)
(0.117512 -0.00782363 -5.13422e-22)
(0.620394 0.0973144 -3.2019e-22)
(1.03575 0.219789 -1.05167e-22)
(1.22501 0.27043 4.20716e-22)
(1.28429 0.280377 3.44624e-23)
(1.28747 0.270201 4.43887e-22)
(1.27453 0.251486 0)
(1.25941 0.232121 -2.34594e-22)
(1.24586 0.211262 4.33171e-23)
(1.23496 0.192072 -3.1315e-22)
(0.152462 -0.00199611 -5.1342e-22)
(0.687614 0.125009 3.3329e-22)
(1.08151 0.244783 -4.10713e-24)
(1.24428 0.289266 -4.8943e-22)
(1.2868 0.292861 -2.57145e-22)
(1.28251 0.278921 -2.49546e-23)
(1.26712 0.258106 2.0836e-23)
(1.25133 0.237474 2.61805e-22)
(1.23778 0.215474 -2.32246e-24)
(1.22679 0.196064 1.01699e-22)
(0.189994 0.00710457 -2.64677e-22)
(0.750663 0.154437 0)
(1.12007 0.269877 -2.87239e-22)
(1.25805 0.307668 0)
(1.28622 0.305038 -3.23566e-22)
(1.27606 0.287538 2.7832e-23)
(1.25896 0.264708 0)
(1.2428 0.242793 0)
(1.22938 0.219666 0)
(1.21834 0.199965 0)
(0.229372 0.0194009 2.3216e-22)
(0.808629 0.185218 1.11983e-22)
(1.15188 0.294962 2.8724e-22)
(1.26694 0.325601 0)
(1.28299 0.316938 0)
(1.26833 0.296062 -1.14977e-23)
(1.25013 0.271273 4.40373e-23)
(1.23383 0.248052 4.99181e-23)
(1.22066 0.223812 4.58519e-23)
(1.20963 0.203745 -7.59222e-24)
(0.269808 0.0346647 -4.20091e-24)
(0.860865 0.216985 -1.04775e-22)
(1.17738 0.319923 4.79372e-24)
(1.27148 0.343047 5.60748e-24)
(1.27749 0.328574 -8.54226e-24)
(1.25947 0.304486 3.23707e-24)
(1.24066 0.277769 -3.83537e-23)
(1.22442 0.253219 -4.66408e-23)
(1.21159 0.227878 -3.47225e-23)
(1.20068 0.207369 1.36216e-24)
(0.310504 0.0525994 0)
(0.907033 0.249396 -1.05676e-22)
(1.19698 0.344638 -3.21672e-24)
(1.27217 0.359992 6.61125e-24)
(1.27 0.339946 1.17125e-37)
(1.2496 0.312785 -8.1637e-38)
(1.23057 0.284159 -3.41863e-23)
(1.21456 0.25826 -4.03172e-23)
(1.20217 0.231822 -3.14851e-23)
(1.1915 0.210804 0)
(0.35068 0.0728892 3.04426e-22)
(0.947035 0.282156 8.66339e-23)
(1.21104 0.368994 2.85888e-22)
(1.26942 0.376408 -1.28933e-23)
(1.26074 0.351035 0)
(1.23879 0.320923 9.7536e-24)
(1.21987 0.290399 2.23711e-23)
(1.20425 0.263137 4.33909e-23)
(1.1924 0.235596 2.44373e-23)
(1.18208 0.214027 5.92371e-24)
(0.389594 0.0952337 -2.71327e-22)
(0.980869 0.315005 0)
(1.21996 0.392869 -2.70303e-22)
(1.26358 0.39226 0)
(1.2499 0.361808 -2.67323e-23)
(1.22709 0.328851 2.22589e-23)
(1.20858 0.29644 0)
(1.19348 0.267808 0)
(1.18228 0.23916 0)
(1.17239 0.217018 0)
(0.426561 0.119355 5.37817e-22)
(1.00862 0.347704 -3.44291e-22)
(1.22412 0.41614 -6.57238e-23)
(1.25496 0.407504 -2.66761e-22)
(1.23761 0.372215 -2.45071e-22)
(1.21455 0.336512 1.67889e-23)
(1.19668 0.302233 -1.4018e-23)
(1.18223 0.272228 1.13895e-22)
(1.17184 0.242484 2.11834e-24)
(1.16235 0.219751 8.11094e-23)
(0.460966 0.144985 -5.37818e-22)
(1.03043 0.380025 -4.1508e-22)
(1.22386 0.438682 9.13543e-23)
(1.24383 0.422091 3.18542e-22)
(1.22399 0.382198 -1.42912e-23)
(1.20117 0.343845 2.57878e-22)
(1.18417 0.307722 0)
(1.17052 0.276338 -1.29806e-22)
(1.16113 0.245557 -1.94455e-23)
(1.15193 0.222245 -1.00701e-22)
(0.492278 0.171852 1.27898e-22)
(1.04647 0.411753 7.09763e-22)
(1.21949 0.460364 -4.10425e-22)
(1.23042 0.435961 -7.70809e-23)
(1.20912 0.39169 -1.79749e-22)
(1.18699 0.350781 3.65407e-23)
(1.17107 0.312851 -2.29498e-23)
(1.15837 0.280076 1.2184e-22)
(1.15015 0.248365 -2.02916e-23)
(1.1412 0.224535 5.34343e-23)
(0.520056 0.199667 6.478e-23)
(1.05695 0.442673 0)
(1.21131 0.481057 2.66134e-23)
(1.21492 0.449046 0)
(1.19307 0.400617 3.63107e-22)
(1.17204 0.357251 -2.31577e-22)
(1.1574 0.31756 0)
(1.14585 0.283397 -1.68336e-23)
(1.1388 0.250846 0)
(1.13029 0.226432 0)
(0.543952 0.228118 -9.94061e-22)
(1.0621 0.472568 -7.62799e-23)
(1.1996 0.500625 4.99524e-22)
(1.19751 0.46127 5.58137e-23)
(1.17588 0.40889 -3.70023e-22)
(1.15637 0.36318 -1.25985e-22)
(1.14321 0.321787 -1.73433e-23)
(1.13296 0.286277 6.22134e-23)
(1.12708 0.25296 -1.34719e-23)
(1.11918 0.227973 6.39866e-24)
(0.563712 0.25687 1.10622e-21)
(1.06214 0.501218 -6.62423e-22)
(1.18462 0.518932 -1.43843e-22)
(1.17832 0.472549 7.00755e-23)
(1.15765 0.41642 2.8984e-22)
(1.14005 0.368489 1.92151e-22)
(1.1285 0.325475 -1.43622e-23)
(1.1197 0.288684 -2.38217e-23)
(1.11501 0.254661 -1.6513e-23)
(1.10791 0.229095 5.54927e-24)
(0.579169 0.28557 9.14923e-22)
(1.0573 0.528399 6.42135e-22)
(1.16659 0.53583 -6.01686e-22)
(1.15752 0.482791 -6.32245e-23)
(1.13853 0.423135 0)
(1.12306 0.373093 0)
(1.11327 0.328568 0)
(1.10608 0.290574 -1.46123e-22)
(1.10264 0.255917 -2.28848e-23)
(1.09649 0.22978 -3.27431e-25)
(0.590239 0.313861 -1.77955e-21)
(1.04786 0.553891 0)
(1.14573 0.551153 1.27939e-21)
(1.13532 0.491899 3.23835e-22)
(1.11856 0.428956 0)
(1.10538 0.37692 0)
(1.09759 0.331 -6.61657e-23)
(1.09213 0.291907 5.47845e-23)
(1.08999 0.256693 2.2885e-23)
(1.08494 0.229992 3.27418e-25)
(0.596918 0.341377 9.579e-22)
(1.0341 0.577493 -7.65639e-23)
(1.12226 0.56473 -6.0127e-22)
(1.11185 0.499755 -3.53399e-22)
(1.09774 0.4338 2.45375e-23)
(1.0871 0.379904 9.25921e-23)
(1.08147 0.332713 5.08789e-23)
(1.07788 0.292642 -1.92386e-23)
(1.0771 0.256954 -3.6726e-23)
(1.07328 0.229705 4.50717e-23)
(0.599277 0.367752 -1.16872e-23)
(1.01636 0.599021 9.16557e-22)
(1.09646 0.576444 -7.97228e-23)
(1.08714 0.506196 1.76927e-22)
(1.07614 0.437593 7.38946e-23)
(1.06826 0.381976 -5.28476e-23)
(1.06499 0.333652 9.18893e-24)
(1.06335 0.292741 2.37337e-23)
(1.06402 0.256668 -4.99675e-23)
(1.06157 0.228888 -3.28527e-23)
(0.597458 0.39262 0)
(0.994904 0.618248 -8.07202e-22)
(1.0686 0.586203 -6.81034e-23)
(1.06129 0.511092 -6.67305e-23)
(1.05386 0.440229 -7.23382e-23)
(1.04893 0.383074 -2.79358e-23)
(1.04818 0.333765 -9.50114e-23)
(1.04861 0.292166 0)
(1.05076 0.255798 0)
(1.04982 0.227506 0)
(0.591658 0.415654 7.90518e-23)
(0.96984 0.634827 -6.37953e-22)
(1.03902 0.593961 0)
(1.03447 0.514366 -7.55719e-23)
(1.03096 0.441618 5.33702e-24)
(1.02918 0.383138 0)
(1.0311 0.333006 8.96947e-23)
(1.03368 0.290884 1.38816e-22)
(1.03736 0.254308 -2.88151e-23)
(1.03809 0.225515 2.42029e-23)
(0.582103 0.436639 -5.6877e-23)
(0.941384 0.64846 6.84643e-22)
(1.00799 0.599575 0)
(1.0068 0.51598 -6.14019e-23)
(1.00754 0.441676 -1.49762e-24)
(1.00909 0.382111 1.96686e-22)
(1.01383 0.331334 2.24484e-23)
(1.0186 0.288864 -1.57606e-22)
(1.02385 0.252166 0)
(1.02641 0.222875 -2.69442e-22)
(0.569007 0.455353 -7.83574e-22)
(0.910018 0.65903 -3.77189e-23)
(0.975669 0.602833 -3.30111e-24)
(0.978441 0.515867 2.73059e-24)
(0.983707 0.440331 2.58851e-22)
(0.98874 0.379939 -1.96687e-22)
(0.996412 0.328711 -2.52506e-22)
(1.00343 0.286072 -2.19416e-22)
(1.01028 0.249342 -3.72977e-22)
(1.01492 0.219579 2.35841e-22)
(0.552488 0.471443 8.29528e-22)
(0.876305 0.666526 0)
(0.942283 0.603607 -6.74419e-23)
(0.949535 0.513958 7.24488e-24)
(0.959555 0.437521 -6.23211e-22)
(0.968211 0.376577 0)
(0.978917 0.325107 2.52508e-22)
(0.988182 0.282473 -4.0581e-23)
(0.996743 0.24581 4.23e-22)
(1.00389 0.215666 -4.20079e-23)
(0.532761 0.484487 0)
(0.840629 0.670793 5.48719e-23)
(0.908033 0.601833 5.86838e-23)
(0.920236 0.510186 0)
(0.935198 0.433195 3.6436e-22)
(0.947596 0.371987 0)
(0.9614 0.320495 -3.62422e-22)
(0.972915 0.278026 2.6e-22)
(0.983419 0.241529 4.9215e-22)
(0.993626 0.211202 3.90031e-22)
(0.510311 0.494319 -2.00055e-23)
(0.803334 0.671695 -3.84508e-23)
(0.873149 0.597452 0)
(0.890703 0.50449 0)
(0.910755 0.427313 0)
(0.926984 0.366137 5.80416e-23)
(0.943922 0.314857 2.65622e-22)
(0.957721 0.272706 4.04614e-23)
(0.970496 0.236441 -4.92153e-22)
(0.984018 0.206137 -4.3806e-22)
(0.485556 0.500767 0)
(0.764764 0.669116 2.57184e-22)
(0.837871 0.59042 0)
(0.861095 0.496819 0)
(0.886346 0.419843 0)
(0.906471 0.359007 -6.69057e-23)
(0.926556 0.308177 5.82115e-22)
(0.942723 0.266516 -1.34041e-22)
(0.958056 0.230558 -4.61396e-22)
(0.9744 0.198973 -4.69677e-22)
(0.458906 0.503699 0)
(0.725279 0.662977 -2.57185e-22)
(0.80244 0.58071 4.91734e-22)
(0.83158 0.487138 0)
(0.862098 0.410765 7.89466e-22)
(0.886149 0.350579 0)
(0.909391 0.300441 -4.71498e-22)
(0.928031 0.25947 4.18763e-22)
(0.94585 0.224336 6.04945e-22)
(0.963498 0.193794 4.68311e-22)
(0.430773 0.503021 -4.49587e-22)
(0.685242 0.653231 0)
(0.767101 0.568313 -4.20429e-22)
(0.802326 0.475425 -5.89842e-23)
(0.838138 0.400069 -1.68316e-21)
(0.86612 0.340847 0)
(0.89252 0.291635 5.77564e-22)
(0.913714 0.251492 3.76578e-23)
(0.933995 0.217061 6.30821e-22)
(0.953025 0.187165 2.43775e-24)
(0.401565 0.498681 4.9155e-22)
(0.645018 0.639861 -3.44453e-23)
(0.732096 0.553236 -8.37369e-23)
(0.773504 0.461673 -6.92653e-23)
(0.814593 0.387756 8.93694e-22)
(0.846482 0.329813 -7.9552e-22)
(0.876025 0.281777 -5.77567e-22)
(0.899774 0.24268 -4.56426e-22)
(0.922333 0.20921 -7.13384e-22)
(0.942535 0.180314 6.62377e-22)
(0.371687 0.490664 -5.50095e-23)
(0.60497 0.62288 -8.38336e-22)
(0.697666 0.535505 0)
(0.745286 0.445892 5.97253e-22)
(0.791595 0.37384 6.60064e-23)
(0.827342 0.317488 7.95524e-22)
(0.859996 0.270867 -7.91868e-23)
(0.886283 0.232983 -4.62126e-22)
(0.911012 0.200577 0)
(0.932345 0.172769 -5.90784e-22)
(0.341536 0.478996 6.32377e-23)
(0.565453 0.602332 8.83494e-22)
(0.664046 0.515166 0)
(0.717841 0.428109 -1.79386e-23)
(0.769273 0.358343 7.27899e-23)
(0.808801 0.303894 0)
(0.84451 0.258932 7.26267e-22)
(0.873276 0.222456 5.28407e-22)
(0.900049 0.191295 1.01142e-22)
(0.922507 0.164687 -8.49566e-23)
(0.3115 0.463737 0)
(0.526816 0.578287 1.32235e-21)
(0.631466 0.492282 -1.17233e-22)
(0.691338 0.408365 6.72152e-23)
(0.747754 0.341302 6.42442e-22)
(0.79096 0.28906 1.11456e-21)
(0.829647 0.245994 -8.23744e-22)
(0.860814 0.211105 0)
(0.889514 0.181342 0)
(0.913103 0.156028 0)
(0.28195 0.444986 2.41652e-24)
(0.489395 0.550848 -1.09736e-21)
(0.600148 0.466933 1.30755e-22)
(0.66594 0.386717 -9.16909e-22)
(0.727164 0.322765 -5.56815e-22)
(0.77392 0.273026 1.85773e-22)
(0.815481 0.232089 -8.23647e-22)
(0.84895 0.198968 5.45951e-22)
(0.879461 0.170758 5.91337e-22)
(0.904187 0.146824 -4.62565e-22)
(0.253247 0.422881 -7.67354e-22)
(0.453509 0.520135 -8.55691e-23)
(0.570308 0.439218 1.19871e-21)
(0.641806 0.363236 9.38849e-22)
(0.707625 0.302789 0)
(0.757776 0.25584 -1.05952e-21)
(0.802086 0.217258 -4.0957e-23)
(0.837743 0.186076 -7.02627e-22)
(0.869944 0.159563 -4.14597e-22)
(0.895806 0.137097 3.68185e-22)
(0.22573 0.397602 1.83692e-21)
(0.419456 0.486288 0)
(0.54215 0.409251 -2.48183e-21)
(0.619087 0.338009 -8.21713e-22)
(0.689256 0.281444 -9.72349e-23)
(0.74262 0.23756 0)
(0.789533 0.201546 8.56499e-22)
(0.827245 0.172472 -6.82055e-22)
(0.861013 0.147788 -5.19779e-22)
(0.887999 0.126876 3.98465e-22)
(0.199713 0.369369 -9.65323e-22)
(0.387514 0.449466 -8.48458e-22)
(0.515874 0.377158 1.44351e-21)
(0.597929 0.311137 -1.32666e-22)
(0.672168 0.258809 0)
(0.728539 0.21825 0)
(0.777888 0.185007 0)
(0.81751 0.158198 1.38912e-21)
(0.852717 0.135468 5.19781e-22)
(0.880801 0.116197 -3.98464e-22)
(0.175466 0.338405 -9.97772e-22)
(0.357949 0.409879 8.4538e-22)
(0.491672 0.343083 8.89427e-23)
(0.578468 0.282734 0)
(0.656468 0.234976 -8.36954e-22)
(0.715617 0.197985 -5.59536e-22)
(0.767215 0.167702 -6.22759e-23)
(0.808588 0.143302 1.0867e-22)
(0.845103 0.12264 -1.37507e-22)
(0.874242 0.105096 5.49743e-23)
(0.153228 0.304912 1.13304e-21)
(0.331015 0.36778 -1.13774e-22)
(0.469719 0.307189 -9.30966e-22)
(0.560832 0.252927 2.07639e-22)
(0.642252 0.210042 6.23296e-22)
(0.703928 0.176844 7.96141e-22)
(0.757572 0.149694 -6.43749e-23)
(0.800526 0.127838 -3.54713e-22)
(0.838214 0.109348 0)
(0.868349 0.0936144 5.17748e-23)
(0.133224 0.269118 7.74987e-23)
(0.30694 0.323434 0)
(0.450169 0.269657 -2.84587e-23)
(0.545137 0.221855 0)
(0.629609 0.184117 -8.92804e-22)
(0.693541 0.154915 6.72761e-22)
(0.74901 0.131054 0)
(0.793366 0.111861 8.96582e-24)
(0.832089 0.0956374 0)
(0.863145 0.081797 0)
(0.115664 0.231283 1.60565e-22)
(0.285924 0.277111 -1.09512e-21)
(0.433155 0.23068 8.72178e-22)
(0.531486 0.189666 -1.50123e-22)
(0.618621 0.157315 3.86678e-22)
(0.684519 0.132291 1.05411e-22)
(0.741579 0.111858 0)
(0.787149 0.0954324 -2.91448e-22)
(0.826766 0.0815577 -7.77084e-23)
(0.858651 0.0696896 -2.26021e-22)
(0.100735 0.191689 6.85686e-22)
(0.26814 0.229089 -1.62388e-21)
(0.418795 0.190462 1.4986e-22)
(0.519969 0.156517 -6.26655e-22)
(0.609354 0.12976 -7.01812e-23)
(0.676915 0.109069 -6.88252e-22)
(0.73532 0.0921831 0)
(0.78191 0.0786165 3.98109e-22)
(0.822275 0.0671621 -7.15222e-23)
(0.854882 0.0573387 5.15403e-22)
(0.0885973 0.150632 -6.85686e-22)
(0.253735 0.17966 5.95417e-22)
(0.407188 0.149217 -1.0346e-22)
(0.510663 0.122572 7.35366e-22)
(0.601869 0.101581 4.04822e-22)
(0.670776 0.0853517 4.2114e-23)
(0.730268 0.0721131 -3.51629e-23)
(0.77768 0.0614809 -4.45917e-22)
(0.818647 0.0525067 3.86262e-24)
(0.851852 0.0447913 -1.71242e-22)
(0.0793789 0.108425 3.58419e-22)
(0.242827 0.129125 0)
(0.398413 0.107165 4.24671e-22)
(0.503628 0.0880024 0)
(0.596214 0.0729119 5.68492e-23)
(0.666138 0.0612457 -4.73357e-23)
(0.726453 0.0517328 0)
(0.774485 0.0440949 0)
(0.815903 0.0376491 0)
(0.849571 0.0320948 0)
(0.0731785 0.0653887 -3.13979e-22)
(0.235505 0.0777953 -1.2103e-22)
(0.392529 0.0645326 -4.24671e-22)
(0.498913 0.0529825 0)
(0.592423 0.0438892 0)
(0.66303 0.0368599 2.14731e-23)
(0.723897 0.0311293 -8.57943e-23)
(0.772343 0.0265292 -1.02202e-22)
(0.814063 0.0226472 -9.57299e-23)
(0.848046 0.0192961 1.5472e-23)
(0.0700617 0.021852 -5.68239e-24)
(0.231828 0.0259853 1.30543e-22)
(0.389577 0.0215499 -5.86847e-24)
(0.496547 0.0176911 2.02191e-23)
(0.590522 0.0146535 -7.97701e-24)
(0.661472 0.0123054 0)
(0.722615 0.0103914 6.78654e-23)
(0.771269 0.00885512 1.02202e-22)
(0.81314 0.00755867 7.26892e-23)
(0.847282 0.00643841 1.09068e-23)
(0.0700617 -0.021852 -5.68239e-24)
(0.231828 -0.0259852 1.30543e-22)
(0.389577 -0.0215498 -5.86847e-24)
(0.496547 -0.017691 2.02191e-23)
(0.590522 -0.0146534 -7.97701e-24)
(0.661472 -0.0123054 0)
(0.722615 -0.0103914 5.97697e-23)
(0.771269 -0.00885508 1.08978e-22)
(0.81314 -0.00755863 7.73095e-23)
(0.847282 -0.00643838 0)
(0.0731785 -0.0653887 -4.0286e-22)
(0.235505 -0.0777953 -1.56944e-22)
(0.392529 -0.0645326 -4.50192e-22)
(0.498913 -0.0529824 2.11097e-23)
(0.592423 -0.0438891 0)
(0.66303 -0.0368599 -2.14731e-23)
(0.723897 -0.0311293 -4.99365e-23)
(0.772343 -0.0265291 -1.02202e-22)
(0.814063 -0.0226471 -5.88889e-23)
(0.848046 -0.0192961 -1.5472e-23)
(0.0793789 -0.108425 3.58419e-22)
(0.242827 -0.129125 0)
(0.398413 -0.107165 4.24671e-22)
(0.503628 -0.0880024 0)
(0.596214 -0.0729118 5.68492e-23)
(0.666138 -0.0612456 -4.73357e-23)
(0.726453 -0.0517328 0)
(0.774485 -0.0440949 0)
(0.815903 -0.0376491 0)
(0.849571 -0.0320948 0)
(0.0885973 -0.150632 -6.85686e-22)
(0.253735 -0.17966 4.65009e-22)
(0.407188 -0.149217 1.0346e-22)
(0.510663 -0.122572 5.03545e-22)
(0.601869 -0.101581 5.2895e-22)
(0.670776 -0.0853516 -4.2114e-23)
(0.730268 -0.0721131 3.51629e-23)
(0.77768 -0.0614809 -3.50302e-22)
(0.818647 -0.0525067 -3.86262e-24)
(0.851852 -0.0447912 -2.87374e-22)
(0.100735 -0.191689 6.85686e-22)
(0.26814 -0.229089 5.63453e-22)
(0.418795 -0.190462 -1.4986e-22)
(0.519969 -0.156517 -6.12254e-22)
(0.609354 -0.12976 5.16361e-23)
(0.676915 -0.109069 -6.88252e-22)
(0.73532 -0.0921831 0)
(0.78191 -0.0786164 3.98108e-22)
(0.822275 -0.067162 7.15222e-23)
(0.854882 -0.0573387 3.95255e-22)
(0.115664 -0.231283 -1.60565e-22)
(0.285924 -0.277111 1.09512e-21)
(0.433155 -0.23068 6.82454e-22)
(0.531486 -0.189666 1.50123e-22)
(0.618621 -0.157315 4.83711e-22)
(0.684519 -0.132291 -1.55709e-22)
(0.741579 -0.111858 6.78593e-23)
(0.787149 -0.0954324 -4.76727e-22)
(0.826766 -0.0815576 7.77084e-23)
(0.858651 -0.0696896 -2.26021e-22)
(0.133224 -0.269118 -7.74987e-23)
(0.30694 -0.323434 0)
(0.450169 -0.269657 -2.84588e-23)
(0.545137 -0.221855 0)
(0.629609 -0.184117 -8.92804e-22)
(0.693541 -0.154915 6.72761e-22)
(0.74901 -0.131054 0)
(0.793366 -0.111861 8.96583e-24)
(0.832089 -0.0956373 0)
(0.863145 -0.081797 0)
(0.153228 -0.304912 1.13304e-21)
(0.331015 -0.36778 1.13774e-22)
(0.469719 -0.307189 -6.55114e-22)
(0.560832 -0.252927 -1.34539e-22)
(0.642252 -0.210042 1.05062e-21)
(0.703927 -0.176844 4.72108e-22)
(0.757572 -0.149694 6.43749e-23)
(0.800526 -0.127838 -4.43149e-22)
(0.838214 -0.109348 7.41819e-23)
(0.868349 -0.0936144 -5.17748e-23)
(0.175466 -0.338405 -1.2683e-21)
(0.357949 -0.409879 8.5154e-22)
(0.491672 -0.343082 8.00188e-23)
(0.578468 -0.282734 -1.39761e-22)
(0.656468 -0.234976 -8.36954e-22)
(0.715617 -0.197985 -7.08709e-22)
(0.767215 -0.167702 6.22759e-23)
(0.808588 -0.143302 -6.31346e-23)
(0.845103 -0.12264 1.37507e-22)
(0.874242 -0.105096 -5.49743e-23)
(0.199713 -0.369369 -9.65323e-22)
(0.387514 -0.449466 -8.48458e-22)
(0.515874 -0.377158 1.12274e-21)
(0.597929 -0.311137 1.32666e-22)
(0.672168 -0.258809 0)
(0.728539 -0.21825 0)
(0.777888 -0.185007 0)
(0.81751 -0.158198 1.38912e-21)
(0.852717 -0.135468 5.1978e-22)
(0.880801 -0.116197 -3.98464e-22)
(0.22573 -0.397602 1.83692e-21)
(0.419456 -0.486288 0)
(0.54215 -0.409251 -2.48183e-21)
(0.619087 -0.338009 -9.38853e-22)
(0.689256 -0.281444 0)
(0.74262 -0.23756 0)
(0.789533 -0.201546 8.56499e-22)
(0.827245 -0.172472 -6.82055e-22)
(0.861013 -0.147788 -5.19779e-22)
(0.887999 -0.126876 3.98465e-22)
(0.253247 -0.422881 -9.7584e-22)
(0.453509 -0.520135 8.55691e-23)
(0.570307 -0.439218 1.19871e-21)
(0.641806 -0.363236 1.04921e-21)
(0.707625 -0.302789 -9.16065e-23)
(0.757776 -0.25584 -1.05952e-21)
(0.802086 -0.217257 -4.0957e-23)
(0.837743 -0.186076 -5.49127e-22)
(0.869944 -0.159563 -5.43357e-22)
(0.895806 -0.137097 3.68185e-22)
(0.28195 -0.444986 -2.41652e-24)
(0.489395 -0.550847 -1.26276e-21)
(0.600148 -0.466933 -1.30755e-22)
(0.66594 -0.386717 -7.1059e-22)
(0.727164 -0.322765 -5.67327e-22)
(0.77392 -0.273026 -1.96237e-22)
(0.815481 -0.232089 -8.07422e-22)
(0.84895 -0.198967 7.05798e-22)
(0.879461 -0.170758 3.66613e-22)
(0.904187 -0.146824 -2.73806e-22)
(0.3115 -0.463737 0)
(0.526816 -0.578287 1.03777e-21)
(0.631466 -0.492282 1.17233e-22)
(0.691338 -0.408365 6.72152e-23)
(0.747754 -0.341302 6.42442e-22)
(0.79096 -0.28906 8.81079e-22)
(0.829647 -0.245994 -7.19098e-22)
(0.860814 -0.211105 7.5581e-23)
(0.889514 -0.181342 0)
(0.913103 -0.156028 0)
(0.341536 -0.478996 -6.32377e-23)
(0.565453 -0.602332 8.83494e-22)
(0.664046 -0.515166 0)
(0.717841 -0.428109 1.57442e-22)
(0.769273 -0.358343 -7.27899e-23)
(0.808801 -0.303894 0)
(0.84451 -0.258931 7.26267e-22)
(0.873276 -0.222456 5.28407e-22)
(0.900049 -0.191295 -1.01142e-22)
(0.922507 -0.164687 8.49565e-23)
(0.371687 -0.490664 5.50095e-23)
(0.60497 -0.62288 -9.28646e-22)