/*--------------------------------*- C++ -*----------------------------------*\
  =========                 |
  \\      /  F ield         | OpenFOAM: The Open Source CFD Toolbox
   \\    /   O peration     | Website:  https://openfoam.org
    \\  /    A nd           | Version:  7
     \\/     M anipulation  |
\*---------------------------------------------------------------------------*/
FoamFile
{
    version     2.0;
    format      ascii;
    class       volScalarField;
    location    "4.4";
    object      p;
}
// * * * * * * * * * * * * * * * * * * * * * * * * * * * * * * * * * * * * * //

dimensions      [0 2 -2 0 0 0 0];

internalField   nonuniform List<scalar> 
306000
(
-0.339522
-0.344008
-0.345597
-0.347862
-0.349511
-0.351184
-0.352757
-0.354375
-0.356061
-0.357866
-0.359816
-0.361934
-0.364233
-0.366722
-0.369406
-0.372286
-0.375359
-0.378623
-0.382071
-0.385697
-0.38949
-0.393442
-0.39754
-0.401771
-0.406121
-0.410574
-0.415113
-0.419718
-0.424369
-0.429045
-0.433722
-0.438375
-0.442977
-0.447502
-0.45192
-0.456201
-0.460314
-0.464226
-0.467904
-0.471315
-0.474425
-0.477199
-0.479602
-0.481601
-0.483162
-0.484251
-0.484838
-0.48489
-0.484379
-0.483279
-0.481562
-0.479208
-0.476194
-0.472502
-0.468114
-0.463017
-0.457194
-0.450638
-0.443328
-0.435221
-0.339568
-0.344048
-0.345636
-0.347898
-0.349546
-0.351217
-0.35279
-0.354407
-0.356092
-0.357897
-0.359847
-0.361965
-0.364263
-0.366753
-0.369437
-0.372316
-0.37539
-0.378654
-0.382103
-0.385729
-0.389523
-0.393475
-0.397574
-0.401806
-0.406157
-0.410611
-0.415151
-0.419757
-0.42441
-0.429088
-0.433766
-0.438421
-0.443026
-0.447553
-0.451973
-0.456256
-0.460371
-0.464286
-0.467968
-0.471382
-0.474495
-0.477272
-0.479679
-0.481681
-0.483246
-0.484339
-0.484929
-0.484986
-0.484479
-0.483382
-0.48167
-0.47932
-0.47631
-0.472622
-0.46824
-0.463148
-0.45733
-0.45078
-0.443477
-0.435369
-0.33966
-0.344128
-0.345713
-0.347971
-0.349616
-0.351284
-0.352855
-0.354471
-0.356155
-0.357959
-0.359909
-0.362026
-0.364324
-0.366814
-0.369498
-0.372378
-0.375452
-0.378717
-0.382166
-0.385793
-0.389588
-0.393542
-0.397642
-0.401876
-0.406228
-0.410685
-0.415227
-0.419836
-0.424492
-0.429172
-0.433854
-0.438513
-0.443122
-0.447653
-0.452078
-0.456366
-0.460486
-0.464407
-0.468094
-0.471514
-0.474634
-0.477417
-0.479831
-0.481841
-0.483413
-0.484514
-0.485112
-0.485176
-0.484678
-0.483589
-0.481886
-0.479544
-0.476543
-0.472864
-0.468491
-0.463408
-0.457601
-0.451063
-0.443774
-0.435663
-0.339797
-0.344248
-0.345828
-0.348079
-0.34972
-0.351385
-0.352953
-0.354567
-0.35625
-0.358052
-0.360001
-0.362117
-0.364416
-0.366905
-0.369589
-0.372469
-0.375544
-0.37881
-0.38226
-0.385888
-0.389685
-0.393641
-0.397743
-0.40198
-0.406335
-0.410795
-0.41534
-0.419954
-0.424614
-0.429299
-0.433986
-0.43865
-0.443265
-0.447803
-0.452234
-0.45653
-0.460658
-0.464587
-0.468283
-0.471712
-0.474841
-0.477635
-0.480059
-0.48208
-0.483663
-0.484775
-0.485385
-0.485461
-0.484975
-0.483899
-0.482207
-0.479878
-0.476889
-0.473224
-0.468864
-0.463797
-0.458005
-0.451486
-0.444217
-0.436101
-0.33998
-0.344408
-0.345982
-0.348223
-0.349859
-0.351519
-0.353084
-0.354694
-0.356375
-0.358176
-0.360123
-0.362239
-0.364537
-0.367026
-0.36971
-0.372591
-0.375667
-0.378933
-0.382385
-0.386015
-0.389814
-0.393772
-0.397878
-0.402118
-0.406477
-0.410941
-0.415491
-0.42011
-0.424775
-0.429467
-0.434161
-0.438832
-0.443455
-0.448001
-0.452442
-0.456747
-0.460886
-0.464825
-0.468533
-0.471974
-0.475116
-0.477923
-0.480361
-0.482396
-0.483994
-0.485121
-0.485746
-0.485838
-0.485368
-0.484308
-0.482633
-0.48032
-0.477348
-0.4737
-0.469359
-0.464311
-0.45854
-0.452046
-0.444803
-0.436681
-0.340208
-0.344608
-0.346173
-0.348402
-0.350031
-0.351686
-0.353246
-0.354853
-0.356531
-0.35833
-0.360276
-0.362391
-0.364688
-0.367177
-0.369861
-0.372743
-0.375819
-0.379087
-0.382541
-0.386173
-0.389975
-0.393936
-0.398045
-0.402289
-0.406653
-0.411122
-0.415679
-0.420303
-0.424976
-0.429676
-0.434378
-0.439058
-0.443691
-0.448248
-0.4527
-0.457017
-0.461168
-0.465121
-0.468843
-0.4723
-0.475457
-0.47828
-0.480736
-0.482788
-0.484404
-0.48555
-0.486194
-0.486306
-0.485855
-0.484815
-0.48316
-0.480868
-0.477917
-0.47429
-0.469971
-0.464947
-0.459202
-0.452737
-0.445528
-0.437398
-0.34048
-0.344846
-0.346401
-0.348617
-0.350238
-0.351885
-0.35344
-0.355043
-0.356718
-0.358515
-0.360459
-0.362572
-0.364868
-0.367357
-0.370042
-0.372924
-0.376001
-0.379271
-0.382727
-0.386362
-0.390166
-0.394131
-0.398245
-0.402493
-0.406863
-0.411338
-0.415902
-0.420534
-0.425215
-0.429924
-0.434636
-0.439327
-0.443971
-0.448541
-0.453006
-0.457338
-0.461504
-0.465473
-0.469212
-0.472686
-0.475862
-0.478705
-0.48118
-0.483254
-0.484891
-0.48606
-0.486726
-0.486861
-0.486434
-0.485417
-0.483786
-0.481518
-0.478592
-0.47499
-0.470698
-0.465702
-0.459986
-0.453557
-0.446387
-0.438248
-0.340796
-0.345122
-0.346667
-0.348866
-0.350478
-0.352116
-0.353665
-0.355263
-0.356935
-0.358728
-0.36067
-0.362782
-0.365078
-0.367566
-0.370251
-0.373133
-0.376212
-0.379484
-0.382942
-0.38658
-0.390388
-0.394357
-0.398475
-0.40273
-0.407106
-0.411588
-0.416159
-0.420801
-0.425492
-0.430211
-0.434934
-0.439638
-0.444295
-0.448879
-0.45336
-0.457708
-0.461892
-0.465879
-0.469637
-0.473132
-0.476329
-0.479194
-0.481693
-0.48379
-0.485453
-0.486647
-0.487339
-0.4875
-0.4871
-0.486111
-0.484507
-0.482267
-0.479369
-0.475796
-0.471534
-0.46657
-0.460888
-0.4545
-0.447376
-0.439224
-0.341156
-0.345437
-0.346968
-0.349149
-0.35075
-0.352379
-0.353921
-0.355514
-0.357181
-0.358971
-0.36091
-0.36302
-0.365315
-0.367803
-0.370488
-0.373371
-0.376451
-0.379725
-0.383186
-0.386827
-0.390639
-0.394613
-0.398737
-0.402997
-0.407381
-0.411871
-0.416451
-0.421102
-0.425804
-0.430534
-0.435271
-0.439989
-0.444661
-0.449261
-0.453759
-0.458125
-0.462329
-0.466337
-0.470116
-0.473634
-0.476856
-0.479746
-0.482271
-0.484395
-0.486085
-0.487308
-0.48803
-0.488221
-0.487851
-0.486892
-0.485319
-0.48311
-0.480244
-0.476704
-0.472475
-0.467547
-0.461903
-0.455559
-0.448487
-0.44032
-0.341558
-0.345788
-0.347306
-0.349466
-0.351054
-0.352673
-0.354207
-0.355793
-0.357456
-0.359242
-0.361179
-0.363287
-0.36558
-0.368067
-0.370752
-0.373636
-0.376718
-0.379994
-0.383457
-0.387102
-0.390919
-0.394898
-0.399028
-0.403295
-0.407686
-0.412185
-0.416775
-0.421437
-0.426151
-0.430894
-0.435645
-0.440378
-0.445067
-0.449684
-0.454201
-0.458588
-0.462813
-0.466844
-0.470648
-0.474191
-0.477439
-0.480357
-0.48291
-0.485065
-0.486786
-0.48804
-0.488794
-0.489018
-0.488681
-0.487756
-0.486218
-0.484043
-0.481211
-0.477707
-0.473515
-0.468626
-0.463023
-0.456727
-0.449713
-0.441528
-0.342001
-0.346177
-0.347678
-0.349815
-0.35139
-0.352997
-0.354523
-0.356102
-0.357759
-0.359541
-0.361474
-0.36358
-0.365872
-0.368358
-0.371043
-0.373928
-0.377012
-0.380289
-0.383756
-0.387405
-0.391226
-0.395211
-0.399347
-0.403622
-0.408022
-0.41253
-0.41713
-0.421804
-0.42653
-0.431288
-0.436054
-0.440804
-0.445511
-0.450148
-0.454685
-0.459094
-0.463342
-0.467398
-0.471228
-0.474799
-0.478075
-0.481024
-0.483608
-0.485795
-0.48755
-0.488838
-0.489628
-0.489888
-0.489588
-0.488699
-0.487198
-0.48506
-0.482266
-0.4788
-0.474648
-0.469801
-0.464242
-0.457998
-0.451048
-0.44284
-0.342486
-0.3466
-0.348084
-0.350197
-0.351757
-0.353351
-0.354867
-0.356438
-0.358089
-0.359867
-0.361796
-0.3639
-0.36619
-0.368675
-0.37136
-0.374246
-0.377331
-0.380611
-0.384081
-0.387733
-0.39156
-0.39555
-0.399694
-0.403976
-0.408385
-0.412904
-0.417515
-0.422201
-0.426942
-0.431715
-0.436497
-0.441265
-0.445991
-0.450648
-0.455208
-0.45964
-0.463914
-0.467996
-0.471854
-0.475454
-0.478762
-0.481743
-0.484361
-0.486583
-0.488374
-0.489699
-0.490527
-0.490825
-0.490564
-0.489715
-0.488253
-0.486156
-0.483402
-0.479977
-0.475867
-0.471065
-0.465553
-0.459363
-0.452482
-0.444248
-0.34301
-0.347059
-0.348524
-0.350609
-0.352154
-0.353733
-0.355239
-0.356802
-0.358446
-0.360219
-0.362144
-0.364245
-0.366533
-0.369017
-0.371702
-0.374589
-0.377675
-0.380957
-0.384431
-0.388087
-0.391919
-0.395916
-0.400066
-0.404357
-0.408775
-0.413305
-0.417928
-0.422628
-0.427383
-0.432172
-0.436972
-0.441758
-0.446504
-0.451184
-0.455767
-0.460225
-0.464525
-0.468635
-0.472523
-0.476155
-0.479495
-0.48251
-0.485165
-0.487424
-0.489253
-0.490618
-0.491486
-0.491825
-0.491605
-0.490799
-0.489379
-0.487324
-0.484614
-0.481232
-0.477166
-0.47241
-0.466948
-0.460814
-0.454008
-0.445743
-0.343573
-0.347551
-0.348996
-0.351052
-0.35258
-0.354143
-0.355638
-0.357192
-0.358829
-0.360596
-0.362517
-0.364614
-0.3669
-0.369383
-0.372068
-0.374955
-0.378043
-0.381328
-0.384804
-0.388465
-0.392302
-0.396305
-0.400463
-0.404763
-0.409191
-0.413732
-0.418368
-0.423081
-0.427851
-0.432657
-0.437475
-0.442281
-0.447049
-0.451752
-0.45636
-0.460844
-0.465172
-0.469312
-0.473232
-0.476896
-0.480271
-0.483323
-0.486015
-0.488313
-0.490182
-0.491589
-0.492499
-0.492882
-0.492706
-0.491944
-0.490569
-0.488559
-0.485893
-0.482557
-0.478538
-0.473831
-0.468419
-0.462343
-0.455617
-0.447315
-0.344173
-0.348077
-0.3495
-0.351525
-0.353034
-0.354581
-0.356064
-0.357607
-0.359237
-0.360998
-0.362914
-0.365008
-0.367291
-0.369773
-0.372457
-0.375344
-0.378433
-0.38172
-0.3852
-0.388866
-0.392708
-0.396718
-0.400883
-0.405192
-0.409631
-0.414183
-0.418832
-0.423559
-0.428346
-0.433169
-0.438006
-0.442833
-0.447623
-0.45235
-0.456984
-0.461495
-0.465852
-0.470023
-0.473976
-0.477675
-0.481086
-0.484175
-0.486906
-0.489245
-0.491157
-0.492607
-0.493562
-0.49399
-0.493861
-0.493145
-0.491817
-0.489853
-0.487234
-0.483945
-0.479975
-0.475317
-0.469958
-0.46394
-0.457299
-0.448954
-0.34481
-0.348634
-0.350034
-0.352025
-0.353515
-0.355045
-0.356514
-0.358048
-0.359669
-0.361423
-0.363334
-0.365424
-0.367704
-0.370184
-0.372867
-0.375755
-0.378845
-0.382135
-0.385618
-0.389287
-0.393135
-0.397152
-0.401325
-0.405643
-0.410092
-0.414656
-0.419318
-0.424061
-0.428863
-0.433705
-0.438561
-0.44341
-0.448223
-0.452974
-0.457635
-0.462174
-0.466562
-0.470765
-0.474751
-0.478486
-0.481935
-0.485063
-0.487835
-0.490217
-0.492172
-0.493667
-0.494668
-0.495144
-0.495062
-0.494395
-0.493115
-0.4912
-0.48863
-0.48539
-0.481469
-0.476863
-0.471557
-0.465597
-0.459046
-0.450651
-0.345482
-0.349222
-0.350597
-0.352554
-0.354022
-0.355533
-0.356989
-0.358511
-0.360123
-0.36187
-0.363776
-0.365861
-0.368138
-0.370616
-0.373298
-0.376186
-0.379277
-0.382569
-0.386055
-0.389729
-0.393583
-0.397606
-0.401787
-0.406114
-0.410574
-0.41515
-0.419826
-0.424583
-0.429402
-0.434262
-0.439139
-0.444009
-0.448846
-0.453623
-0.45831
-0.462879
-0.467298
-0.471534
-0.475555
-0.479326
-0.482814
-0.485982
-0.488796
-0.491221
-0.493222
-0.494763
-0.495812
-0.496336
-0.496304
-0.495687
-0.494457
-0.492593
-0.490073
-0.486883
-0.483012
-0.478458
-0.473207
-0.467304
-0.460848
-0.452395
-0.346188
-0.349839
-0.351189
-0.353108
-0.354555
-0.356046
-0.357487
-0.358997
-0.3606
-0.362339
-0.364239
-0.366319
-0.368593
-0.371068
-0.373749
-0.376636
-0.379728
-0.383022
-0.386511
-0.390189
-0.394048
-0.398078
-0.402267
-0.406603
-0.411073
-0.415662
-0.420351
-0.425124
-0.42996
-0.434838
-0.439736
-0.444628
-0.449489
-0.454291
-0.459007
-0.463606
-0.468056
-0.472326
-0.476382
-0.480191
-0.483717
-0.486927
-0.489784
-0.492254
-0.4943
-0.49589
-0.496988
-0.497562
-0.497581
-0.497014
-0.495837
-0.494024
-0.491556
-0.488417
-0.484598
-0.480097
-0.474901
-0.469053
-0.462697
-0.454175
-0.346926
-0.350485
-0.351807
-0.353688
-0.355111
-0.356582
-0.358008
-0.359505
-0.361097
-0.362828
-0.364721
-0.366796
-0.369066
-0.371538
-0.374218
-0.377104
-0.380197
-0.383492
-0.386984
-0.390666
-0.39453
-0.398566
-0.402763
-0.407109
-0.41159
-0.41619
-0.420893
-0.425681
-0.430535
-0.435431
-0.440349
-0.445264
-0.450149
-0.454978
-0.459721
-0.46435
-0.468832
-0.473136
-0.477228
-0.481075
-0.484642
-0.487893
-0.490794
-0.493309
-0.495403
-0.497041
-0.498189
-0.498814
-0.498884
-0.498371
-0.497246
-0.495486
-0.49307
-0.489984
-0.486217
-0.481769
-0.476628
-0.470834
-0.464584
-0.455982
-0.347695
-0.351158
-0.352452
-0.354292
-0.355691
-0.35714
-0.358549
-0.360033
-0.361614
-0.363336
-0.365222
-0.367292
-0.369557
-0.372026
-0.374703
-0.377589
-0.380682
-0.383978
-0.387473
-0.391159
-0.395027
-0.39907
-0.403274
-0.407629
-0.41212
-0.416732
-0.421449
-0.426253
-0.431123
-0.436038
-0.440977
-0.445914
-0.450823
-0.455678
-0.46045
-0.465109
-0.469623
-0.473962
-0.47809
-0.481975
-0.485582
-0.488876
-0.49182
-0.494381
-0.496523
-0.49821
-0.499408
-0.500085
-0.500209
-0.499749
-0.498678
-0.496972
-0.49461
-0.491577
-0.487863
-0.483468
-0.478382
-0.472638
-0.4665
-0.457805
-0.348493
-0.351857
-0.353121
-0.354919
-0.356292
-0.357718
-0.35911
-0.36058
-0.36215
-0.363862
-0.36574
-0.367804
-0.370064
-0.37253
-0.375204
-0.378089
-0.381181
-0.384479
-0.387975
-0.391664
-0.395538
-0.399586
-0.403798
-0.408161
-0.412663
-0.417287
-0.422017
-0.426835
-0.431722
-0.436657
-0.441615
-0.446575
-0.451508
-0.45639
-0.46119
-0.465878
-0.470425
-0.474798
-0.478962
-0.482886
-0.486533
-0.489869
-0.492858
-0.495465
-0.497654
-0.499391
-0.500641
-0.50137
-0.501547
-0.501142
-0.500125
-0.498474
-0.496166
-0.493187
-0.489526
-0.485184
-0.480155
-0.474457
-0.468437
-0.459632
-0.349319
-0.35258
-0.353813
-0.355567
-0.356914
-0.358316
-0.35969
-0.361145
-0.362703
-0.364405
-0.366275
-0.368331
-0.370586
-0.373048
-0.375719
-0.378602
-0.381694
-0.384992
-0.38849
-0.392182
-0.39606
-0.400114
-0.404332
-0.408704
-0.413215
-0.417851
-0.422594
-0.427427
-0.432331
-0.437283
-0.442262
-0.447243
-0.452201
-0.457108
-0.461936
-0.466655
-0.471234
-0.47564
-0.479841
-0.483802
-0.48749
-0.490868
-0.493901
-0.496555
-0.498792
-0.500578
-0.501879
-0.502662
-0.502892
-0.502542
-0.501581
-0.499985
-0.497732
-0.494807
-0.4912
-0.486911
-0.481937
-0.476281
-0.470388
-0.461454
-0.350172
-0.353326
-0.354528
-0.356236
-0.357556
-0.358933
-0.360288
-0.361726
-0.363271
-0.364963
-0.366824
-0.368873
-0.371122
-0.373579
-0.376247
-0.379127
-0.382218
-0.385516
-0.389016
-0.39271
-0.396592
-0.400651
-0.404876
-0.409255
-0.413776
-0.418422
-0.423178
-0.428026
-0.432945
-0.437915
-0.442914
-0.447916
-0.452898
-0.45783
-0.462686
-0.467434
-0.472044
-0.476485
-0.480721
-0.484721
-0.488448
-0.491868
-0.494945
-0.497644
-0.499929
-0.501766
-0.503118
-0.503953
-0.504238
-0.503942
-0.503037
-0.501497
-0.4993
-0.49643
-0.492876
-0.48864
-0.483722
-0.478102
-0.472346
-0.46326
-0.351049
-0.354094
-0.355262
-0.356924
-0.358215
-0.359566
-0.360901
-0.362324
-0.363855
-0.365535
-0.367387
-0.369428
-0.371671
-0.374122
-0.376786
-0.379664
-0.382753
-0.38605
-0.389551
-0.393247
-0.397132
-0.401195
-0.405426
-0.409813
-0.414342
-0.418999
-0.423767
-0.428628
-0.433563
-0.43855
-0.443568
-0.448591
-0.453595
-0.458553
-0.463435
-0.468213
-0.472854
-0.477327
-0.481599
-0.485635
-0.489402
-0.492863
-0.495984
-0.498728
-0.501061
-0.502946
-0.50435
-0.505237
-0.505576
-0.505336
-0.504486
-0.503002
-0.500861
-0.498047
-0.494547
-0.490363
-0.485501
-0.479912
-0.474303
-0.465037
-0.351949
-0.354882
-0.356017
-0.35763
-0.358891
-0.360215
-0.36153
-0.362935
-0.364452
-0.366121
-0.367962
-0.369995
-0.37223
-0.374676
-0.377335
-0.380209
-0.383296
-0.386592
-0.390093
-0.39379
-0.397677
-0.401744
-0.405981
-0.410374
-0.414912
-0.419578
-0.424357
-0.429231
-0.434181
-0.439185
-0.444221
-0.449265
-0.454291
-0.459272
-0.464181
-0.468986
-0.473658
-0.478163
-0.482469
-0.486542
-0.490347
-0.493849
-0.497012
-0.499802
-0.502181
-0.504115
-0.505569
-0.506509
-0.506901
-0.506716
-0.505922
-0.504494
-0.50241
-0.49965
-0.496204
-0.492072
-0.487268
-0.481701
-0.476256
-0.466775
-0.35287
-0.355688
-0.356788
-0.358352
-0.359583
-0.360879
-0.362173
-0.363559
-0.365062
-0.366717
-0.368548
-0.370571
-0.372799
-0.375238
-0.377892
-0.380762
-0.383846
-0.38714
-0.39064
-0.394338
-0.398227
-0.402298
-0.406538
-0.410938
-0.415483
-0.420158
-0.424948
-0.429834
-0.434797
-0.439816
-0.44487
-0.449933
-0.45498
-0.459985
-0.464919
-0.469751
-0.474452
-0.478988
-0.483328
-0.487436
-0.491279
-0.49482
-0.498025
-0.500858
-0.503283
-0.505265
-0.506769
-0.50776
-0.508206
-0.508075
-0.507337
-0.505966
-0.503937
-0.501233
-0.497842
-0.493761
-0.489015
-0.483461
-0.478198
-0.468461
-0.353811
-0.356512
-0.357577
-0.35909
-0.360288
-0.361556
-0.362828
-0.364196
-0.365682
-0.367324
-0.369144
-0.371157
-0.373376
-0.375808
-0.378456
-0.381321
-0.384401
-0.387693
-0.391192
-0.39489
-0.39878
-0.402852
-0.407097
-0.411501
-0.416052
-0.420736
-0.425535
-0.430432
-0.435408
-0.440442
-0.445512
-0.450593
-0.455661
-0.460688
-0.465645
-0.470504
-0.475232
-0.479799
-0.48417
-0.488313
-0.492192
-0.495772
-0.499017
-0.501893
-0.504363
-0.506391
-0.507944
-0.508986
-0.509484
-0.509407
-0.508725
-0.507409
-0.505437
-0.502789
-0.499451
-0.495421
-0.490735
-0.485185
-0.480124
-0.470084
-0.35477
-0.357352
-0.35838
-0.359841
-0.361007
-0.362246
-0.363494
-0.364842
-0.366312
-0.36794
-0.369747
-0.37175
-0.37396
-0.376384
-0.379025
-0.381885
-0.384961
-0.388249
-0.391745
-0.395442
-0.399332
-0.403406
-0.407653
-0.412062
-0.416619
-0.421309
-0.426117
-0.431024
-0.436012
-0.441059
-0.446144
-0.451243
-0.456329
-0.461377
-0.466357
-0.47124
-0.475995
-0.480591
-0.484993
-0.489168
-0.493082
-0.496699
-0.499983
-0.5029
-0.505413
-0.507488
-0.509088
-0.51018
-0.51073
-0.510706
-0.510078
-0.508818
-0.506902
-0.504309
-0.501026
-0.497046
-0.492421
-0.486864
-0.482032
-0.471631
-0.355746
-0.358207
-0.359197
-0.360604
-0.361737
-0.362945
-0.36417
-0.365498
-0.366951
-0.368564
-0.370358
-0.37235
-0.374549
-0.376965
-0.379599
-0.382452
-0.385522
-0.388806
-0.392299
-0.395994
-0.399884
-0.403958
-0.408207
-0.412618
-0.41718
-0.421876
-0.426691
-0.431607
-0.436605
-0.441665
-0.446764
-0.451878
-0.456982
-0.462049
-0.46705
-0.471957
-0.476737
-0.481359
-0.485791
-0.489997
-0.493944
-0.497597
-0.500919
-0.503875
-0.50643
-0.508549
-0.510195
-0.511336
-0.511936
-0.511965
-0.511391
-0.510186
-0.508325
-0.505787
-0.502559
-0.498628
-0.494066
-0.48849
-0.483916
-0.473081
-0.356735
-0.359074
-0.360026
-0.361379
-0.362478
-0.363655
-0.364855
-0.366161
-0.367596
-0.369194
-0.370974
-0.372954
-0.375143
-0.377548
-0.380174
-0.38302
-0.386084
-0.389363
-0.392852
-0.396544
-0.400432
-0.404505
-0.408755
-0.413168
-0.417733
-0.422433
-0.427254
-0.432178
-0.437186
-0.442256
-0.447368
-0.452496
-0.457616
-0.4627
-0.467722
-0.472649
-0.477453
-0.482101
-0.48656
-0.490796
-0.494774
-0.498461
-0.501819
-0.504813
-0.507409
-0.509569
-0.511261
-0.512448
-0.513097
-0.513177
-0.512656
-0.511505
-0.509699
-0.507217
-0.504043
-0.500161
-0.495664
-0.490059
-0.485777
-0.474382
-0.357738
-0.359952
-0.360865
-0.362163
-0.363228
-0.364372
-0.365547
-0.366832
-0.368248
-0.369829
-0.371595
-0.373561
-0.375739
-0.378134
-0.38075
-0.383588
-0.386645
-0.389918
-0.393402
-0.39709
-0.400974
-0.405046
-0.409295
-0.413709
-0.418276
-0.42298
-0.427805
-0.432735
-0.437751
-0.442831
-0.447953
-0.453094
-0.458228
-0.463329
-0.468368
-0.473315
-0.478141
-0.482812
-0.487297
-0.49156
-0.495568
-0.499286
-0.502678
-0.505709
-0.508343
-0.510544
-0.512279
-0.513511
-0.514208
-0.514338
-0.513868
-0.512771
-0.51102
-0.508592
-0.505472
-0.501638
-0.497208
-0.491562
-0.487618
-0.475547
-0.358751
-0.36084
-0.361714
-0.362956
-0.363985
-0.365096
-0.366245
-0.367507
-0.368904
-0.370468
-0.372218
-0.374171
-0.376336
-0.37872
-0.381326
-0.384154
-0.387203
-0.390469
-0.393946
-0.397629
-0.40151
-0.405579
-0.409826
-0.414239
-0.418806
-0.423512
-0.428341
-0.433276
-0.438298
-0.443385
-0.448517
-0.453668
-0.458815
-0.46393
-0.468985
-0.473951
-0.478796
-0.483489
-0.487997
-0.492286
-0.496322
-0.50007
-0.503494
-0.506558
-0.509229
-0.511469
-0.513244
-0.51452
-0.515264
-0.515441
-0.515022
-0.513977
-0.512279
-0.509906
-0.506839
-0.503054
-0.498691
-0.492995
-0.48936
-0.477018
-0.359774
-0.361737
-0.362571
-0.363756
-0.364748
-0.365826
-0.366948
-0.368187
-0.369563
-0.371109
-0.372843
-0.374781
-0.376933
-0.379304
-0.381899
-0.384717
-0.387757
-0.391014
-0.394485
-0.398162
-0.402037
-0.406101
-0.410345
-0.414757
-0.419323
-0.424029
-0.42886
-0.433798
-0.438824
-0.443917
-0.449056
-0.454217
-0.459375
-0.464502
-0.469571
-0.474553
-0.479415
-0.484128
-0.488658
-0.49297
-0.497031
-0.500807
-0.50426
-0.507357
-0.510062
-0.512339
-0.514153
-0.515471
-0.516258
-0.516483
-0.516112
-0.515118
-0.513473
-0.511152
-0.508139
-0.504402
-0.500111
-0.494409
-0.490734
-0.478711
-0.360804
-0.362641
-0.363434
-0.364562
-0.365517
-0.366561
-0.367655
-0.368869
-0.370225
-0.371752
-0.373469
-0.375391
-0.377528
-0.379887
-0.382469
-0.385276
-0.388305
-0.391553
-0.395015
-0.398684
-0.402553
-0.406612
-0.410851
-0.415259
-0.419823
-0.424528
-0.429359
-0.434298
-0.439327
-0.444424
-0.449569
-0.454737
-0.459903
-0.465041
-0.470122
-0.475117
-0.479996
-0.484726
-0.489274
-0.493608
-0.497693
-0.501493
-0.504974
-0.508101
-0.510838
-0.513149
-0.515001
-0.516358
-0.517188
-0.517457
-0.517134
-0.516189
-0.514595
-0.512327
-0.509367
-0.505676
-0.501427
-0.495835
-0.491995
-0.480287
-0.361841
-0.36355
-0.364302
-0.365372
-0.366289
-0.367298
-0.368364
-0.369554
-0.370887
-0.372394
-0.374093
-0.375999
-0.378121
-0.380465
-0.383034
-0.385828
-0.388846
-0.392084
-0.395536
-0.399196
-0.403057
-0.407109
-0.411342
-0.415745
-0.420305
-0.425007
-0.429836
-0.434775
-0.439804
-0.444904
-0.450053
-0.455226
-0.460399
-0.465545
-0.470636
-0.475642
-0.480534
-0.485279
-0.489845
-0.494197
-0.498303
-0.502126
-0.505632
-0.508786
-0.511553
-0.513897
-0.515783
-0.517178
-0.518048
-0.51836
-0.518082
-0.517185
-0.515641
-0.513424
-0.510516
-0.506878
-0.502659
-0.49717
-0.493228
-0.481728
-0.362881
-0.364464
-0.365174
-0.366186
-0.367065
-0.368038
-0.369075
-0.370238
-0.371549
-0.373036
-0.374716
-0.376604
-0.378709
-0.381038
-0.383593
-0.386374
-0.389379
-0.392604
-0.396045
-0.399695
-0.403546
-0.40759
-0.411815
-0.416211
-0.420766
-0.425463
-0.430289
-0.435226
-0.440254
-0.445354
-0.450504
-0.455681
-0.460858
-0.46601
-0.471109
-0.476124
-0.481027
-0.485785
-0.490365
-0.494734
-0.498858
-0.502702
-0.506231
-0.50941
-0.512204
-0.514577
-0.516496
-0.517926
-0.518834
-0.519187
-0.518953
-0.518103
-0.516607
-0.51444
-0.511583
-0.507996
-0.503814
-0.4984
-0.494407
-0.483056
-0.363925
-0.36538
-0.366049
-0.367001
-0.367841
-0.368778
-0.369785
-0.370923
-0.37221
-0.373675
-0.375335
-0.377205
-0.379293
-0.381605
-0.384144
-0.38691
-0.389901
-0.393113
-0.396541
-0.40018
-0.40402
-0.408053
-0.41227
-0.416658
-0.421204
-0.425896
-0.430716
-0.435649
-0.440674
-0.445773
-0.450922
-0.456099
-0.461279
-0.466435
-0.471538
-0.476561
-0.481472
-0.48624
-0.490833
-0.495216
-0.499355
-0.503217
-0.506767
-0.509968
-0.512787
-0.515188
-0.517137
-0.5186
-0.519544
-0.519935
-0.519743
-0.518937
-0.517488
-0.515369
-0.512563
-0.509025
-0.504886
-0.499534
-0.495517
-0.484274
-0.364969
-0.366297
-0.366924
-0.367817
-0.368618
-0.369518
-0.370495
-0.371605
-0.372868
-0.374311
-0.37595
-0.3778
-0.379869
-0.382164
-0.384686
-0.387436
-0.390411
-0.393609
-0.397024
-0.400648
-0.404476
-0.408498
-0.412703
-0.417081
-0.421619
-0.426302
-0.431116
-0.436042
-0.441062
-0.446157
-0.451304
-0.456479
-0.461659
-0.466816
-0.471923
-0.47695
-0.481867
-0.486643
-0.491245
-0.495639
-0.499792
-0.50367
-0.507237
-0.510458
-0.5133
-0.515726
-0.517703
-0.519197
-0.520174
-0.520602
-0.520449
-0.519685
-0.518282
-0.51621
-0.513452
-0.509962
-0.505868
-0.500569
-0.496549
-0.485379
-0.366013
-0.367214
-0.367799
-0.368633
-0.369394
-0.370257
-0.371203
-0.372285
-0.373522
-0.374942
-0.376559
-0.378389
-0.380438
-0.382714
-0.385218
-0.38795
-0.390909
-0.394091
-0.39749
-0.4011
-0.404914
-0.408922
-0.413115
-0.417481
-0.422008
-0.426681
-0.431485
-0.436403
-0.441416
-0.446505
-0.451647
-0.456819
-0.461996
-0.467152
-0.472259
-0.477289
-0.482209
-0.48699
-0.491599
-0.496003
-0.500167
-0.504057
-0.507639
-0.510878
-0.51374
-0.516189
-0.518191
-0.519713
-0.520721
-0.521184
-0.521068
-0.520345
-0.518984
-0.516958
-0.514248
-0.510805
-0.506757
-0.501503
-0.497498
-0.486371
-0.367055
-0.368131
-0.368673
-0.369447
-0.370168
-0.370993
-0.371907
-0.37296
-0.374172
-0.375567
-0.377162
-0.378969
-0.380998
-0.383254
-0.385739
-0.388452
-0.391393
-0.394557
-0.397939
-0.401533
-0.405331
-0.409324
-0.413503
-0.417855
-0.422369
-0.42703
-0.431823
-0.43673
-0.441734
-0.446815
-0.451949
-0.457116
-0.462288
-0.467441
-0.472546
-0.477575
-0.482497
-0.48728
-0.491894
-0.496303
-0.500476
-0.504376
-0.507971
-0.511225
-0.514104
-0.516573
-0.518599
-0.520147
-0.521184
-0.521678
-0.521598
-0.520913
-0.519594
-0.517611
-0.514947
-0.511549
-0.507548
-0.502334
-0.498357
-0.487251
-0.368093
-0.369044
-0.369544
-0.370258
-0.370939
-0.371726
-0.372608
-0.373631
-0.374816
-0.376186
-0.377757
-0.379542
-0.381549
-0.383783
-0.386247
-0.38894
-0.391861
-0.395006
-0.39837
-0.401946
-0.405726
-0.409703
-0.413865
-0.418202
-0.422701
-0.427348
-0.432127
-0.437022
-0.442015
-0.447085
-0.45221
-0.457368
-0.462533
-0.46768
-0.472781
-0.477807
-0.482727
-0.487511
-0.492126
-0.49654
-0.500718
-0.504626
-0.508231
-0.511498
-0.514392
-0.516878
-0.518924
-0.520496
-0.52156
-0.522084
-0.522037
-0.521388
-0.520108
-0.518168
-0.515548
-0.512194
-0.50824
-0.50306
-0.499123
-0.488018
-0.369126
-0.369954
-0.370411
-0.371066
-0.371706
-0.372454
-0.373303
-0.374296
-0.375453
-0.376797
-0.378343
-0.380104
-0.382088
-0.384299
-0.386741
-0.389413
-0.392313
-0.395437
-0.398781
-0.402337
-0.406098
-0.410056
-0.4142
-0.41852
-0.423002
-0.427633
-0.432397
-0.437278
-0.442256
-0.447313
-0.452427
-0.457574
-0.46273
-0.467869
-0.472963
-0.477983
-0.482899
-0.487681
-0.492295
-0.49671
-0.500891
-0.504805
-0.508417
-0.511694
-0.5146
-0.517103
-0.519167
-0.520759
-0.521848
-0.5224
-0.522383
-0.521769
-0.520526
-0.518625
-0.516048
-0.512735
-0.508829
-0.50368
-0.49979
-0.488672
-0.370153
-0.370858
-0.371274
-0.371869
-0.372468
-0.373177
-0.373992
-0.374955
-0.376083
-0.3774
-0.37892
-0.380656
-0.382615
-0.384803
-0.387221
-0.38987
-0.392747
-0.395849
-0.399171
-0.402706
-0.406446
-0.410384
-0.414508
-0.418808
-0.423271
-0.427884
-0.43263
-0.437494
-0.442457
-0.447499
-0.452599
-0.457733
-0.462877
-0.468005
-0.473089
-0.478101
-0.483011
-0.487788
-0.492399
-0.496812
-0.500994
-0.504911
-0.508528
-0.511812
-0.514729
-0.517244
-0.519324
-0.520936
-0.522046
-0.522624
-0.522636
-0.522053
-0.520845
-0.518982
-0.516447
-0.513173
-0.509314
-0.504192
-0.500356
-0.489212
-0.371172
-0.371757
-0.37213
-0.372666
-0.373224
-0.373893
-0.374675
-0.375606
-0.376705
-0.377993
-0.379487
-0.381196
-0.383129
-0.385292
-0.387685
-0.39031
-0.393163
-0.396241
-0.399539
-0.403051
-0.406769
-0.410684
-0.414786
-0.419065
-0.423507
-0.428099
-0.432826
-0.437671
-0.442616
-0.447641
-0.452724
-0.457842
-0.462972
-0.468087
-0.473159
-0.478161
-0.483062
-0.487831
-0.492436
-0.496846
-0.501026
-0.504943
-0.508563
-0.511853
-0.514777
-0.517303
-0.519396
-0.521025
-0.522155
-0.522755
-0.522794
-0.522241
-0.521067
-0.519239
-0.516742
-0.513507
-0.509694
-0.504595
-0.500817
-0.489639
-0.372183
-0.372648
-0.372979
-0.373456
-0.373973
-0.374602
-0.37535
-0.376248
-0.377317
-0.378577
-0.380042
-0.381724
-0.38363
-0.385766
-0.388133
-0.390731
-0.393559
-0.396611
-0.399884
-0.403371
-0.407064
-0.410955
-0.415034
-0.419289
-0.423708
-0.428278
-0.432983
-0.437807
-0.442732
-0.447736
-0.452801
-0.457902
-0.463015
-0.468114
-0.473172
-0.478161
-0.48305
-0.487809
-0.492406
-0.49681
-0.500986
-0.504901
-0.508521
-0.511814
-0.514744
-0.517278
-0.519383
-0.521026
-0.522174
-0.522795
-0.522858
-0.522333
-0.521189
-0.519395
-0.516935
-0.513735
-0.509967
-0.504888
-0.501172
-0.489953
-0.373182
-0.373531
-0.373821
-0.374239
-0.374714
-0.375303
-0.376016
-0.376881
-0.377919
-0.379149
-0.380585
-0.382238
-0.384117
-0.386224
-0.388564
-0.391134
-0.393934
-0.39696
-0.400206
-0.403666
-0.407332
-0.411197
-0.41525
-0.41948
-0.423874
-0.428419
-0.433101
-0.437901
-0.442803
-0.447786
-0.452829
-0.45791
-0.463004
-0.468085
-0.473126
-0.478099
-0.482975
-0.487722
-0.492309
-0.496703
-0.500873
-0.504783
-0.508402
-0.511695
-0.514628
-0.517169
-0.519283
-0.520938
-0.522102
-0.522742
-0.522828
-0.522328
-0.521212
-0.519449
-0.517025
-0.513857
-0.510134
-0.505071
-0.50142
-0.490151
-0.374171
-0.374404
-0.374653
-0.375013
-0.375447
-0.375996
-0.376673
-0.377505
-0.378511
-0.37971
-0.381116
-0.382739
-0.384588
-0.386666
-0.388976
-0.391517
-0.394288
-0.397285
-0.400502
-0.403934
-0.407572
-0.411409
-0.415434
-0.419636
-0.424003
-0.428522
-0.433177
-0.437952
-0.442829
-0.447788
-0.452808
-0.457866
-0.462938
-0.467999
-0.473021
-0.477977
-0.482836
-0.487568
-0.492142
-0.496526
-0.500687
-0.504591
-0.508206
-0.511497
-0.514432
-0.516976
-0.519098
-0.520763
-0.521941
-0.522598
-0.522703
-0.522226
-0.521138
-0.519404
-0.517012
-0.513875
-0.510194
-0.505144
-0.501559
-0.490236
-0.375147
-0.375267
-0.375475
-0.375778
-0.37617
-0.376679
-0.37732
-0.378118
-0.379092
-0.380259
-0.381633
-0.383225
-0.385043
-0.38709
-0.389369
-0.39188
-0.39462
-0.397586
-0.400773
-0.404174
-0.407782
-0.411589
-0.415584
-0.419757
-0.424095
-0.428585
-0.433212
-0.437959
-0.442809
-0.447742
-0.452736
-0.457769
-0.462818
-0.467856
-0.472857
-0.477793
-0.482633
-0.487349
-0.491908
-0.496278
-0.500428
-0.504323
-0.507932
-0.51122
-0.514154
-0.5167
-0.518827
-0.520501
-0.52169
-0.522362
-0.522486
-0.52203
-0.520966
-0.519258
-0.516897
-0.513788
-0.510147
-0.505108
-0.501589
-0.490206
-0.376108
-0.376119
-0.376287
-0.376533
-0.376884
-0.377352
-0.377957
-0.37872
-0.37966
-0.380795
-0.382136
-0.383696
-0.385482
-0.387497
-0.389744
-0.392222
-0.39493
-0.397863
-0.401017
-0.404386
-0.407962
-0.411737
-0.415701
-0.419842
-0.424149
-0.428608
-0.433205
-0.437922
-0.442743
-0.447647
-0.452613
-0.457619
-0.462642
-0.467655
-0.472633
-0.477546
-0.482366
-0.487062
-0.491604
-0.495959
-0.500096
-0.503981
-0.507581
-0.510864
-0.513795
-0.516342
-0.518472
-0.520153
-0.521352
-0.522037
-0.522176
-0.52174
-0.520698
-0.519015
-0.516682
-0.513598
-0.509995
-0.504962
-0.50151
-0.490061
-0.377056
-0.376959
-0.377087
-0.377277
-0.377587
-0.378014
-0.378582
-0.37931
-0.380216
-0.381317
-0.382625
-0.384152
-0.385904
-0.387885
-0.390098
-0.392542
-0.395216
-0.398115
-0.401235
-0.40457