/*--------------------------------*- C++ -*----------------------------------*\
  =========                 |
  \\      /  F ield         | OpenFOAM: The Open Source CFD Toolbox
   \\    /   O peration     | Website:  https://openfoam.org
    \\  /    A nd           | Version:  9
     \\/     M anipulation  |
\*---------------------------------------------------------------------------*/
FoamFile
{
    format      ascii;
    class       volVectorField;
    location    "26";
    object      U;
}
// * * * * * * * * * * * * * * * * * * * * * * * * * * * * * * * * * * * * * //

dimensions      [0 1 -1 0 0 0 0];

internalField   nonuniform List<vector> 
8500
(
(-0.0065123 0.00260228 0)
(-0.0292333 0.00448606 -6.813e-23)
(-0.0613892 0.00495049 -3.74588e-24)
(-0.089311 0.00478789 7.09527e-37)
(-0.116853 0.00447419 -1.04352e-23)
(-0.137413 0.00387505 8.68891e-24)
(-0.161505 0.00382959 -5.87931e-23)
(-0.172549 0.0025252 -9.11146e-23)
(-0.193098 0.00356964 -8.32602e-23)
(-0.200488 0.00129844 -4.32428e-24)
(-0.00680632 0.00775436 1.96822e-22)
(-0.0294888 0.0133833 6.36537e-23)
(-0.061262 0.014776 2.55439e-22)
(-0.0886218 0.0142929 0)
(-0.115575 0.0133532 0)
(-0.135144 0.0115643 1.74953e-23)
(-0.158655 0.0114205 4.41854e-23)
(-0.16795 0.00751353 9.72503e-23)
(-0.187957 0.0106699 6.26689e-23)
(-0.193071 0.00375426 1.7306e-23)
(-0.0073861 0.0127511 -1.74907e-22)
(-0.0299963 0.0220577 0)
(-0.0610125 0.0243759 -2.40385e-22)
(-0.0872526 0.0235857 0)
(-0.113032 0.0220223 -4.17992e-23)
(-0.130616 0.019073 3.48042e-23)
(-0.152965 0.0188001 0)
(-0.158721 0.0123251 0)
(-0.177691 0.0176591 0)
(-0.178284 0.00580488 0)
(-0.00823573 0.0174958 3.51567e-22)
(-0.0307483 0.0303663 -2.55583e-22)
(-0.0606495 0.0336022 -6.02741e-23)
(-0.0852215 0.0325256 -3.75753e-22)
(-0.109247 0.030336 -3.77111e-22)
(-0.123849 0.0262857 3.50903e-23)
(-0.14445 0.0258036 -2.92986e-23)
(-0.144789 0.016869 3.38975e-22)
(-0.162296 0.0244801 1.13415e-26)
(-0.156141 0.00724181 3.41795e-22)
(-0.00933277 0.0219019 -3.51567e-22)
(-0.0317343 0.0381748 -3.30272e-22)
(-0.0601851 0.0423109 9.06675e-23)
(-0.0825541 0.0409725 5.01447e-22)
(-0.104247 0.0381418 -4.26183e-23)
(-0.114875 0.0330934 5.57991e-22)
(-0.133113 0.032231 0)
(-0.126029 0.0210845 -3.882e-22)
(-0.141701 0.0310921 -8.27221e-23)
(-0.126472 0.0079737 -4.75158e-22)
(-0.0106499 0.025896 8.86029e-23)
(-0.0329399 0.04536 5.4931e-22)
(-0.0596322 0.0503624 -4.24499e-22)
(-0.0792817 0.0487891 -2.99144e-25)
(-0.098055 0.0452802 -3.80129e-22)
(-0.103737 0.039395 1.40928e-22)
(-0.118932 0.0378345 -5.88575e-23)
(-0.102256 0.0249386 4.85518e-22)
(-0.115713 0.0374401 -8.28785e-23)
(-0.0886564 0.00814823 2.721e-22)
(-0.0121567 0.0294206 4.43862e-23)
(-0.0343482 0.0518129 0)
(-0.0590006 0.0576231 -1.57202e-24)
(-0.0754365 0.0558419 0)
(-0.0906758 0.0515871 6.74245e-22)
(-0.0904775 0.0450991 -5.58484e-22)
(-0.101824 0.0423123 0)
(-0.0732303 0.0284344 -1.13551e-24)
(-0.0840098 0.043302 0)
(-0.041324 0.00838461 0)
(-0.0138222 0.0324359 -7.15574e-22)
(-0.0359387 0.0574407 -7.39059e-23)
(-0.0582928 0.0639681 5.47624e-22)
(-0.0710442 0.0620018 1.01488e-22)
(-0.0820768 0.0569007 -6.78117e-22)
(-0.0751245 0.0501298 -4.18313e-22)
(-0.0815772 0.0453026 -5.91475e-23)
(-0.0386749 0.0316627 4.82015e-22)
(-0.046147 0.0479381 -8.3186e-23)
(0.0179367 0.00974015 6.88703e-23)
(-0.0156163 0.0349209 8.05558e-22)
(-0.0376869 0.0621688 -5.9404e-22)
(-0.0574981 0.0692846 -1.83514e-22)
(-0.0661125 0.0671439 1.01241e-22)
(-0.0721634 0.0610683 6.78045e-22)
(-0.0576577 0.0544418 6.3035e-22)
(-0.0577252 0.0463936 -5.92789e-23)
(0.00178054 0.0348004 9.64708e-23)
(-0.00193865 0.0505552 -1.66751e-22)
(0.0931474 0.0127147 7.01527e-23)
(-0.0175126 0.0368725 7.23586e-22)
(-0.0395631 0.0659415 5.94361e-22)
(-0.0565854 0.0734753 -8.61042e-22)
(-0.0606144 0.0711488 -1.01551e-22)
(-0.0607397 0.0639482 0)
(-0.0379677 0.0580388 0)
(-0.0294822 0.0453871 0)
(0.0491911 0.0378733 -1.52842e-21)
(0.0483389 0.0502772 -6.97e-22)
(0.188001 0.0178642 5.34738e-22)
(-0.0194889 0.0383051 -1.45146e-21)
(-0.0415288 0.0687226 0)
(-0.0554941 0.076463 1.97111e-21)
(-0.0544701 0.0739055 8.15363e-22)
(-0.0474635 0.0654144 8.48506e-23)
(-0.0156574 0.0608543 0)
(0.00415111 0.0425019 -9.68446e-22)
(0.104896 0.0412374 7.62827e-22)
(0.106404 0.0457652 6.9699e-22)
(0.304089 0.0256727 -5.34717e-22)
(-0.0215282 0.0392477 8.1924e-22)
(-0.0435335 0.0704959 -7.49994e-23)
(-0.0541229 0.0781944 -9.873e-22)
(-0.047523 0.0753199 -9.17757e-22)
(-0.0319011 0.0654665 0)
(0.0101615 0.0626284 1.12282e-21)
(0.0448981 0.0382359 5.51372e-25)
(0.169704 0.0456928 6.5858e-22)
(0.177614 0.0372962 7.82279e-22)
(0.439772 0.0352414 -5.30458e-22)
(-0.0236188 0.0397405 4.46649e-26)
(-0.0455086 0.0712632 1.28527e-21)
(-0.052313 0.0786426 -1.24191e-22)
(-0.0394517 0.0753004 7.16398e-22)
(-0.0135293 0.0642003 4.27976e-22)
(0.0407049 0.0631395 2.85065e-22)
(0.0955608 0.0334466 9.66094e-22)
(0.244039 0.0510732 -8.55961e-22)
(0.270287 0.0288652 -5.32403e-22)
(0.588886 0.045357 3.90454e-22)
(-0.0257528 0.039832 0)
(-0.0473615 0.0710432 -1.05859e-21)
(-0.0498493 0.0778143 -1.24688e-22)
(-0.0297404 0.0737835 1.62343e-24)
(0.00848398 0.0616977 6.82832e-22)
(0.0774968 0.0622955 -9.81641e-22)
(0.159297 0.0297474 9.6061e-22)
(0.3285 0.0558781 -9.79146e-23)
(0.390839 0.0263971 0)
(0.741052 0.056018 0)
(-0.0279244 0.0395743 9.30065e-23)
(-0.048964 0.0698699 -1.22148e-21)
(-0.0464386 0.0757587 0)
(-0.017692 0.0708124 -1.01229e-22)
(0.0353502 0.0581081 8.52537e-23)
(0.12267 0.0599773 0)
(0.238472 0.029175 -9.62486e-22)
(0.424606 0.0590025 -7.57594e-22)
(0.536854 0.0331976 1.64904e-22)
(0.884085 0.0679746 -1.38582e-22)
(-0.0301247 0.0390149 -9.34495e-23)
(-0.0501487 0.0677958 1.29819e-21)
(-0.0416677 0.0725466 0)
(-0.00239936 0.0665485 -9.24782e-22)
(0.0686359 0.0537626 8.52958e-23)
(0.178909 0.0565183 -1.12452e-21)
(0.333586 0.0330526 -1.1649e-22)
(0.534236 0.0617991 8.55077e-22)
(0.695237 0.0479058 0)
(1.00747 0.08098 1.0552e-21)
(-0.0323332 0.0381917 -1.4208e-21)
(-0.0507042 0.064886 -7.71819e-23)
(-0.034982 0.0682721 -1.25139e-22)
(0.0173106 0.0612555 1.03508e-22)
(0.110311 0.0492515 -1.36183e-21)
(0.24906 0.0531849 1.1245e-21)
(0.442818 0.0413811 9.46472e-22)
(0.656177 0.0673225 7.57462e-22)
(0.848132 0.066758 1.30854e-21)
(1.10512 0.0936499 -9.23199e-22)
(-0.0345139 0.0371329 1.51483e-21)
(-0.0503626 0.0612073 0)
(-0.0256869 0.0630701 1.13645e-21)
(0.0428897 0.0552866 -1.03787e-22)
(0.162628 0.0453994 2.72278e-21)
(0.335121 0.0520021 0)
(0.562255 0.0534484 -9.46452e-22)
(0.783304 0.077163 -1.89196e-24)
(0.980936 0.0864854 -1.46684e-21)
(1.17596 0.104547 1.33055e-22)
(-0.0366118 0.0358546 0)
(-0.0487942 0.0568272 1.24838e-21)
(-0.0129433 0.0571158 -1.01097e-21)
(0.0760327 0.0491113 0)
(0.227746 0.0432693 -1.36095e-21)
(0.436648 0.0549962 0)
(0.685946 0.0685104 9.31274e-22)
(0.904852 0.090358 -7.55539e-22)
(1.08632 0.10516 -1.25268e-21)
(1.22292 0.11269 -1.01024e-21)
(-0.0385459 0.034358 -1.92134e-22)
(-0.0456077 0.0518171 -1.09067e-21)
(0.00423806 0.0506253 0)
(0.118591 0.0433881 0)
(0.307 0.0441076 0)
(0.549735 0.0631309 -1.39107e-22)
(0.806472 0.0855852 -9.33366e-22)
(1.01159 0.105071 -9.54423e-23)
(1.16365 0.121637 1.25267e-21)
(1.2514 0.117354 1.13644e-21)
(-0.0402071 0.0326338 0)
(-0.040349 0.046251 -1.2659e-21)
(0.0269983 0.043868 0)
(0.172367 0.0390648 0)
(0.399916 0.0490484 0)
(0.667543 0.075908 1.38208e-22)
(0.916794 0.103321 -1.14049e-21)
(1.09868 0.119949 8.86448e-23)
(1.21663 0.134706 8.94321e-22)
(1.26831 0.11792 9.76681e-22)
(-0.0414714 0.0306778 0)
(-0.0324884 0.0401902 1.2659e-21)
(0.056625 0.0372111 -1.032e-21)
(0.238676 0.0373951 0)
(0.503456 0.0585824 -1.35857e-21)
(0.78235 0.0918343 0)
(1.01217 0.12053 9.12164e-22)
(1.16543 0.133933 -7.28419e-22)
(1.25097 0.143287 -1.19673e-21)
(1.29279 0.1285 -9.71749e-22)
(-0.0421979 0.0284755 1.61013e-21)
(-0.0214273 0.0336858 0)
(0.0945041 0.0312164 9.04082e-22)
(0.31767 0.0396822 1.05798e-22)
(0.612288 0.0722205 2.71706e-21)
(0.887822 0.109237 0)
(1.09071 0.136509 -8.90505e-22)
(1.21396 0.145991 -1.44512e-21)
(1.27543 0.151458 -1.00335e-21)
(1.30188 0.134566 -5.33554e-24)
(-0.0422136 0.0259995 -1.71015e-21)
(-0.00649223 0.0268037 8.21033e-23)
(0.141953 0.026752 1.286e-22)
(0.407697 0.0467396 -1.06367e-22)
(0.720214 0.0887475 -1.35849e-21)
(0.980151 0.126819 1.09497e-21)
(1.15274 0.150853 8.90501e-22)
(1.24838 0.156609 7.16708e-22)
(1.28955 0.157883 1.14548e-21)
(1.30501 0.140352 -1.01191e-21)
(-0.0413275 0.0232217 1.01352e-22)
(0.0130955 0.0196528 1.23403e-21)
(0.199886 0.0249995 0)
(0.505217 0.058447 -7.39676e-22)
(0.821883 0.106822 -8.61669e-23)
(1.05791 0.143755 -1.09496e-21)
(1.20012 0.163615 1.06734e-22)
(1.27136 0.165741 6.00691e-22)
(1.29719 0.163577 0)
(1.30493 0.145379 9.00624e-22)
(-0.0393323 0.0201139 -1.04547e-22)
(0.03822 0.0124689 -1.31721e-21)
(0.268354 0.0271946 0)
(0.605539 0.0738493 9.93304e-23)
(0.913743 0.125397 -8.63913e-23)
(1.12139 0.159648 0)
(1.23505 0.17492 -8.52953e-22)
(1.28586 0.173748 -6.90031e-22)
(1.30005 0.168578 -1.31889e-22)
(1.30165 0.149932 -1.10944e-22)
(-0.0359899 0.0166476 0)
(0.0698057 0.00574184 -1.51798e-21)
(0.346195 0.0341389 1.36117e-22)
(0.703994 0.0917085 -5.21682e-24)
(0.994059 0.14381 -6.7754e-22)
(1.1718 0.174358 -1.19872e-21)
(1.25985 0.184986 9.6204e-22)
(1.29402 0.180854 0)
(1.29958 0.173162 0)
(1.29729 0.154269 0)
(-0.0310056 0.0128028 2.29446e-24)
(0.108664 0.000319608 1.27274e-21)
(0.431037 0.0458301 1.37809e-22)
(0.796878 0.11098 9.58038e-22)
(1.06244 0.161694 5.90703e-22)
(1.21077 0.1879 -1.17083e-22)
(1.2766 0.194036 8.30551e-22)
(1.29758 0.187315 -5.60684e-22)
(1.29694 0.177477 -6.30036e-22)
(1.29174 0.158459 5.06142e-22)
(-0.0240013 0.0085909 7.90155e-22)
(0.155262 -0.00262366 8.88894e-23)
(0.519727 0.0615401 -1.10108e-21)
(0.881796 0.130951 -8.63163e-22)
(1.11935 0.178873 0)
(1.24005 0.200373 1.05627e-21)
(1.2871 0.202292 -1.58693e-23)
(1.29785 0.193324 7.22246e-22)
(1.29278 0.181642 4.40576e-22)
(1.28571 0.162593 -4.01158e-22)
(-0.0145104 0.00409152 -1.81864e-21)
(0.209496 -0.00183108 0)
(0.608957 0.0802465 2.21841e-21)
(0.957541 0.151185 7.58326e-22)
(1.1657 0.195284 8.7016e-23)
(1.2613 0.211919 0)
(1.29281 0.209957 -8.07992e-22)
(1.29576 0.199041 6.12536e-22)
(1.28763 0.18574 4.76008e-22)
(1.27923 0.166714 -3.75346e-22)
(-0.00200561 -0.000504333 9.20186e-22)
(0.270574 0.00365498 7.17636e-22)
(0.695797 0.101039 -1.2536e-21)
(1.02375 0.171443 1.12711e-22)
(1.20263 0.210936 0)
(1.27597 0.222693 0)
(1.29488 0.217204 0)
(1.292 0.204581 -1.20787e-21)
(1.28175 0.189826 -4.76013e-22)
(1.27249 0.170838 3.75329e-22)
(0.0140315 -0.00485123 8.51975e-22)
(0.337095 0.0141966 -7.11894e-22)
(0.777964 0.123272 7.30577e-23)
(1.08061 0.19161 0)
(1.23131 0.225878 6.58151e-22)
(1.28535 0.232848 4.37021e-22)
(1.29422 0.224174 5.02007e-23)
(1.28703 0.210026 -5.26933e-23)
(1.27537 0.193931 1.14023e-22)
(1.26549 0.174979 -4.60989e-23)
(0.0339828 -0.00842147 -9.67007e-22)
(0.40728 0.0295349 9.00522e-23)
(0.85387 0.146516 5.78685e-22)
(1.12859 0.211624 -1.61415e-22)
(1.2529 0.240178 -4.93681e-22)
(1.29048 0.242524 -6.21008e-22)
(1.29148 0.230976 4.91126e-23)
(1.28117 0.215429 2.9804e-22)
(1.26858 0.198072 0)
(1.25827 0.179126 -4.10769e-23)
(0.0580155 -0.0105547 -6.26535e-23)
(0.479235 0.0490082 0)
(0.922553 0.170472 6.14964e-24)
(1.16834 0.23143 0)
(1.26844 0.253917 6.41727e-22)
(1.29221 0.251841 -4.76523e-22)
(1.28716 0.237685 0)
(1.2746 0.22082 9.71413e-24)
(1.26144 0.202253 0)
(1.25083 0.183272 0)
(0.0860679 -0.0105602 -1.2523e-22)
(0.55115 0.0718517 8.17949e-22)
(0.983563 0.19492 -6.59686e-22)
(1.20053 0.250973 1.09173e-22)
(1.27887 0.267173 -2.93232e-22)
(1.29122 0.260897 -5.09716e-23)
(1.28158 0.244352 0)
(1.26746 0.226211 2.06379e-22)
(1.25397 0.206468 5.31242e-23)
(1.24316 0.187398 1.52242e-22)
(0.117842 -0.00783823 -5.27388e-22)
(0.62141 0.0973908 -3.30184e-22)
(1.03683 0.2197 -1.08665e-22)
(1.22589 0.270191 4.36036e-22)
(1.28498 0.280018 3.60261e-23)
(1.28803 0.269768 4.64719e-22)
(1.275 0.251003 0)
(1.25982 0.231602 -2.48936e-22)
(1.2462 0.210702 4.62989e-23)
(1.23524 0.191484 -3.35646e-22)
(0.152838 -0.00198982 -5.27387e-22)
(0.688633 0.125091 3.43297e-22)
(1.08254 0.244689 -4.11808e-24)
(1.24511 0.289028 -5.07596e-22)
(1.28745 0.292512 -2.68153e-22)
(1.28305 0.278506 -2.62496e-23)
(1.26758 0.257645 2.19173e-23)
(1.25172 0.236979 2.77935e-22)
(1.23811 0.21494 -2.33168e-24)
(1.22705 0.195506 1.09192e-22)
(0.190414 0.00713301 -2.71655e-22)
(0.751672 0.154523 0)
(1.12104 0.26978 -2.96546e-22)
(1.25883 0.307434 0)
(1.28683 0.304702 -3.377e-22)
(1.27657 0.287141 2.91346e-23)
(1.25941 0.264269 0)
(1.24318 0.242322 0)
(1.22971 0.219158 0)
(1.2186 0.199437 0)
(0.229828 0.0194508 2.38266e-22)
(0.809618 0.185306 1.15196e-22)
(1.1528 0.294866 2.96548e-22)
(1.26767 0.325374 0)
(1.28358 0.316616 0)
(1.26882 0.295685 -1.21435e-23)
(1.25056 0.270856 4.67245e-23)
(1.2342 0.247604 5.34917e-23)
(1.22097 0.223328 4.95761e-23)
(1.20988 0.203245 -8.21714e-24)
(0.270296 0.0347341 -4.30983e-24)
(0.861826 0.217076 -1.07807e-22)
(1.17825 0.319829 4.93978e-24)
(1.27217 0.342828 5.84428e-24)
(1.27805 0.328269 -8.9338e-24)
(1.25995 0.304129 3.39942e-24)
(1.24107 0.277374 -4.07692e-23)
(1.22478 0.252795 -4.99905e-23)
(1.21189 0.227419 -3.75176e-23)
(1.20092 0.206897 1.51644e-24)
(0.311017 0.0526861 0)
(0.907963 0.249488 -1.087e-22)
(1.1978 0.344548 -3.35928e-24)
(1.27283 0.359783 6.8498e-24)
(1.27054 0.339658 1.22682e-37)
(1.25006 0.312448 -8.62304e-38)
(1.23097 0.283785 -3.65966e-23)
(1.21491 0.257859 -4.36599e-23)
(1.20246 0.231386 -3.44614e-23)
(1.19173 0.21036 0)
(0.351212 0.0729913 3.12252e-22)
(0.94793 0.28225 8.91248e-23)
(1.21182 0.36891 2.95709e-22)
(1.27004 0.376211 -1.33695e-23)
(1.26126 0.350765 0)
(1.23924 0.320606 1.03969e-23)
(1.22027 0.290046 2.3977e-23)
(1.20459 0.262757 4.69573e-23)
(1.19268 0.235184 2.66718e-23)
(1.1823 0.213609 6.54725e-24)
(0.390138 0.0953496 -2.78283e-22)
(0.981727 0.315102 0)
(1.2207 0.392793 -2.79548e-22)
(1.26417 0.392076 0)
(1.25039 0.361555 -2.82854e-23)
(1.22753 0.328553 2.35522e-23)
(1.20896 0.296109 0)
(1.1938 0.26745 0)
(1.18255 0.23877 0)
(1.1726 0.216626 0)
(0.427111 0.119483 5.51699e-22)
(1.00944 0.347804 -3.54206e-22)
(1.22482 0.416072 -6.80313e-23)
(1.25552 0.407334 -2.79026e-22)
(1.23809 0.37198 -2.59068e-22)
(1.21497 0.336234 1.80725e-23)
(1.19705 0.301922 -1.50897e-23)
(1.18255 0.271891 1.26347e-22)
(1.17211 0.242117 2.12591e-24)
(1.16255 0.219386 9.3522e-23)
(0.461517 0.145125 -5.517e-22)
(1.03121 0.380129 -4.27756e-22)
(1.22452 0.438623 9.48023e-23)
(1.24437 0.421934 3.33622e-22)
(1.22445 0.38198 -1.5831e-23)
(1.20158 0.343585 2.7843e-22)
(1.18453 0.307431 0)
(1.17083 0.276021 -1.44033e-22)
(1.16139 0.245213 -2.24074e-23)
(1.15212 0.221902 -1.18063e-22)
(0.492823 0.172004 1.31355e-22)
(1.04722 0.411862 7.30941e-22)
(1.22012 0.460316 -4.26481e-22)
(1.23093 0.435819 -8.0847e-23)
(1.20956 0.39149 -1.93662e-22)
(1.18739 0.35054 4.16515e-23)
(1.17141 0.31258 -2.50882e-23)
(1.15867 0.279778 1.39593e-22)
(1.1504 0.248042 -2.32662e-23)
(1.14139 0.224204 6.33579e-23)
(0.520592 0.19983 6.65086e-23)
(1.05767 0.442786 0)
(1.21191 0.481019 2.66527e-23)
(1.21542 0.448919 0)
(1.19349 0.400434 3.879e-22)
(1.17242 0.357028 -2.52104e-22)
(1.15773 0.317307 0)
(1.14614 0.283119 -1.68427e-23)
(1.13905 0.250544 0)
(1.13047 0.226121 0)
(0.544475 0.228291 -1.02164e-21)
(1.06278 0.472687 -7.90713e-23)
(1.20017 0.500598 5.20126e-22)
(1.19798 0.461157 5.95519e-23)
(1.17629 0.408724 -4.00931e-22)
(1.15673 0.362974 -1.41338e-22)
(1.14353 0.321551 -1.94769e-23)
(1.13324 0.286017 7.99325e-23)
(1.12731 0.252677 -1.64427e-23)
(1.11936 0.22768 8.87619e-24)
(0.564218 0.257052 1.13722e-21)
(1.06278 0.501342 -6.84819e-22)
(1.18516 0.518916 -1.50681e-22)
(1.17877 0.47245 7.3834e-23)
(1.15805 0.416271 3.14561e-22)
(1.14041 0.368299 2.15181e-22)
(1.12881 0.325257 -1.64935e-23)
(1.11997 0.288441 -2.03026e-23)
(1.11524 0.254397 -2.24397e-23)
(1.10809 0.228821 8.03422e-24)
(0.579656 0.285761 9.42368e-22)
(1.05791 0.528528 6.64502e-22)
(1.1671 0.535824 -6.33509e-22)
(1.15795 0.482706 -6.69752e-23)
(1.13891 0.423001 0)
(1.1234 0.372919 0)
(1.11357 0.328366 0)
(1.10634 0.290347 -2.02814e-22)
(1.10285 0.255671 -4.65731e-23)
(1.09666 0.229524 1.95041e-23)
(0.590705 0.314058 -1.83436e-21)
(1.04843 0.554026 0)
(1.14621 0.551157 1.35203e-21)
(1.13573 0.491826 3.53643e-22)
(1.11893 0.428837 0)
(1.10571 0.376762 0)
(1.09787 0.330813 -1.0011e-22)
(1.09238 0.291696 8.31204e-23)
(1.0902 0.256463 4.65735e-23)
(1.08511 0.229753 -1.95033e-23)
(0.597362 0.341579 9.88675e-22)
(1.03464 0.577635 -7.93556e-23)
(1.12271 0.564744 -6.37546e-22)
(1.11225 0.499694 -3.86921e-22)
(1.09809 0.433696 2.76204e-23)
(1.08742 0.37976 1.33354e-22)
(1.08175 0.332542 5.09078e-23)
(1.07812 0.292447 5.52701e-24)
(1.07731 0.256741 -1.00946e-23)
(1.07345 0.229481 2.52503e-23)
(0.599698 0.367959 -1.17033e-23)
(1.01686 0.599168 9.63508e-22)
(1.09689 0.576469 -8.42654e-23)
(1.08752 0.506145 2.02918e-22)
(1.07648 0.437501 9.53903e-23)
(1.06856 0.381846 -4.27041e-23)
(1.06526 0.333495 4.30913e-23)
(1.06359 0.29256 -8.10737e-24)
(1.06422 0.256469 -2.03924e-23)
(1.06173 0.22868 -1.79944e-23)
(0.597854 0.39283 0)
(0.995376 0.618396 -8.45924e-22)
(1.06901 0.586239 -7.26341e-23)
(1.06165 0.511052 -6.67817e-23)
(1.05418 0.440149 -9.68857e-23)
(1.04922 0.382958 -6.35745e-23)
(1.04844 0.333621 -6.11637e-23)
(1.04883 0.291999 0)
(1.05095 0.255613 0)
(1.04998 0.227312 0)
(0.59203 0.415867 8.24383e-23)
(0.970278 0.634976 -6.81905e-22)
(1.03941 0.594006 0)
(1.03481 0.514337 -7.93179e-23)
(1.03127 0.44155 8.40523e-24)
(1.02946 0.383034 0)
(1.03135 0.332875 5.58342e-23)
(1.03389 0.290731 1.10568e-22)
(1.03755 0.254138 -2.29114e-23)
(1.03824 0.225336 1.92441e-23)
(0.58245 0.436854 -6.02369e-23)
(0.941793 0.64861 7.31354e-22)
(1.00835 0.599626 0)
(1.00713 0.515962 -9.4692e-23)
(1.00784 0.441618 1.56597e-24)
(1.00936 0.382018 1.56093e-22)
(1.01407 0.331214 1.82255e-23)
(1.01881 0.288722 -1.25823e-22)
(1.02403 0.252008 0)
(1.02656 0.222708 -2.2984e-22)
(0.569327 0.455568 -8.33964e-22)
(0.910399 0.659183 -4.04686e-23)
(0.976011 0.602889 -7.77459e-24)
(0.978749 0.515857 6.43095e-24)
(0.98399 0.440283 2.1002e-22)
(0.988996 0.379857 -1.56095e-22)
(0.996642 0.328602 -2.18723e-22)
(1.00363 0.285943 -1.91198e-22)
(1.01045 0.249197 -3.25735e-22)
(1.01506 0.219425 2.01187e-22)
(0.552782 0.471655 8.83268e-22)
(0.876661 0.666679 0)
(0.942604 0.603668 -2.72215e-23)
(0.949827 0.513957 3.55147e-24)
(0.959824 0.437481 -5.25608e-22)
(0.968456 0.376505 0)
(0.979138 0.325008 2.18725e-22)
(0.988376 0.282354 -4.05961e-23)
(0.996911 0.245676 3.69859e-22)
(1.00402 0.215523 -3.70543e-23)
(0.533031 0.484697 0)
(0.840959 0.670947 9.83793e-23)
(0.908334 0.601898 2.29282e-23)
(0.920513 0.510192 0)
(0.935455 0.433164 3.15589e-22)
(0.94783 0.371923 0)
(0.961612 0.320407 -3.28687e-22)
(0.973102 0.277918 2.31797e-22)
(0.983581 0.241406 4.44942e-22)
(0.99376 0.21107 3.50456e-22)
(0.510558 0.494524 -2.66475e-23)
(0.803639 0.671847 -7.65064e-23)
(0.873431 0.59752 0)
(0.890964 0.504502 0)
(0.910999 0.427289 0)
(0.927208 0.366082 5.29883e-23)
(0.944124 0.314777 2.40318e-22)
(0.957901 0.272607 3.69357e-23)
(0.970653 0.236327 -4.44944e-22)
(0.984149 0.206015 -3.93541e-22)
(0.48578 0.500967 0)
(0.765046 0.669266 2.13886e-22)
(0.838134 0.59049 0)
(0.861342 0.496837 0)
(0.886578 0.419826 0)
(0.906684 0.358959 -6.18563e-23)
(0.92675 0.308106 5.39998e-22)
(0.942895 0.266426 -1.23481e-22)
(0.958207 0.230454 -4.26014e-22)
(0.974528 0.198861 -4.30095e-22)
(0.45911 0.503893 0)
(0.725538 0.663125 -2.13887e-22)
(0.802686 0.580782 4.56252e-22)
(0.831813 0.48716 0)
(0.862318 0.410753 7.40915e-22)
(0.886353 0.350538 0)
(0.909577 0.300377 -4.37807e-22)
(0.928197 0.259389 3.90615e-22)
(0.945996 0.224242 5.57766e-22)
(0.963623 0.19369 4.28736e-22)
(0.430956 0.503208 -3.96828e-22)
(0.68548 0.653375 0)
(0.76733 0.568385 -3.89374e-22)
(0.802545 0.47545 -5.53219e-23)
(0.838346 0.400062 -1.58611e-21)
(0.866313 0.340812 0)
(0.892698 0.291579 5.43912e-22)
(0.913873 0.251419 3.76698e-23)
(0.934137 0.216975 5.8956e-22)
(0.953146 0.18707 2.43078e-24)
(0.40173 0.49886 4.35505e-22)
(0.645236 0.640001 -3.17478e-23)
(0.73231 0.553308 -7.9316e-23)
(0.77371 0.461701 -6.56084e-23)
(0.814791 0.387753 8.45192e-22)
(0.846667 0.329784 -7.55205e-22)
(0.876195 0.281727 -5.43916e-22)
(0.899927 0.242614 -4.2829e-22)
(0.92247 0.209132 -6.66231e-22)
(0.942652 0.180227 6.1788e-22)
(0.371834 0.490835 -5.17311e-23)
(0.605169 0.623015 -7.98095e-22)
(0.697865 0.535576 0)
(0.74548 0.445923 5.7172e-22)
(0.791783 0.37384 6.2978e-23)
(0.827518 0.317464 7.55209e-22)
(0.860159 0.270823 -7.49854e-23)
(0.88643 0.232924 -4.37528e-22)
(0.911143 0.200506 0)
(0.93246 0.17269 -5.51229e-22)
(0.341667 0.479158 5.99618e-23)
(0.565635 0.602461 8.40562e-22)
(0.66423 0.515236 0)
(0.718023 0.428141 -1.4262e-23)
(0.76945 0.358346 6.97646e-23)
(0.808969 0.303875 0)
(0.844666 0.258893 6.92668e-22)
(0.873418 0.222403 5.00293e-22)
(0.900176 0.191231 9.52544e-23)
(0.922618 0.164616 -8.00111e-23)
(0.311615 0.463889 0)
(0.526981 0.57841 1.27422e-21)
(0.631637 0.492349 -1.12826e-22)
(0.691509 0.408398 6.7245e-23)
(0.747922 0.341308 6.18275e-22)
(0.79112 0.289044 1.0693e-21)
(0.829796 0.24596 -7.85945e-22)
(0.86095 0.211058 0)
(0.889637 0.181285 0)
(0.91321 0.155963 0)
(0.282052 0.445129 2.41952e-24)
(0.489544 0.550963 -1.05725e-21)
(0.600307 0.466998 1.26355e-22)
(0.666101 0.38675 -8.84151e-22)
(0.727324 0.322772 -5.35668e-22)
(0.774073 0.273013 1.80768e-22)
(0.815624 0.23206 -7.90076e-22)
(0.849082 0.198926 5.21377e-22)
(0.87958 0.170706 5.61903e-22)
(0.904292 0.146766 -4.37856e-22)
(0.253336 0.423013 -7.44597e-22)
(0.453645 0.520243 -8.28996e-23)
(0.570456 0.43928 1.16358e-21)
(0.641957 0.363268 9.09782e-22)
(0.707777 0.302798 0)
(0.757922 0.25583 -1.01931e-21)
(0.802224 0.217233 -4.09702e-23)
(0.83787 0.18604 -6.71031e-22)
(0.870059 0.159517 -3.93993e-22)
(0.895908 0.137045 3.4842e-22)
(0.225808 0.397723 1.78495e-21)
(0.41958 0.486389 0)
(0.542287 0.409309 -2.4116e-21)
(0.61923 0.338041 -7.96279e-22)
(0.689401 0.281453 -9.42198e-23)
(0.742759 0.237552 0)
(0.789666 0.201524 8.22942e-22)
(0.827368 0.17244 -6.53983e-22)
(0.861125 0.147748 -4.9624e-22)
(0.888098 0.12683 3.78705e-22)
(0.19978 0.369479 -9.39359e-22)
(0.387625 0.449558 -8.27188e-22)
(0.516002 0.377212 1.40403e-21)
(0.598064 0.311167 -1.29038e-22)
(0.672306 0.258819 0)
(0.728673 0.218245 0)
(0.778017 0.184989 0)
(0.817629 0.15817 1.33298e-21)
(0.852826 0.135433 4.96242e-22)
(0.880897 0.116156 -3.78704e-22)
(0.175524 0.338504 -9.75125e-22)
(0.35805 0.409962 8.24109e-22)
(0.491792 0.343132 8.67529e-23)
(0.578596 0.282762 0)
(0.656599 0.234986 -8.12861e-22)
(0.715746 0.197981 -5.41975e-22)
(0.767339 0.167687 -6.01805e-23)
(0.808703 0.143278 1.05169e-22)
(0.845209 0.122609 -1.31624e-22)
(0.874335 0.10506 5.25041e-23)
(0.153278 0.304999 1.10715e-21)
(0.331107 0.367855 -1.11118e-22)
(0.469832 0.307233 -9.09086e-22)
(0.560954 0.252953 2.02202e-22)
(0.642378 0.210052 6.05225e-22)
(0.704052 0.176842 7.71054e-22)
(0.757692 0.149681 -6.22802e-23)
(0.800638 0.127818 -3.40681e-22)
(0.838317 0.109321 0)
(0.86844 0.0935834 4.93062e-23)
(0.133267 0.269194 7.58839e-23)
(0.307024 0.3235 0)
(0.450274 0.269696 -2.847e-23)
(0.545253 0.221878 0)
(0.629731 0.184126 -8.68731e-22)
(0.693661 0.154914 6.52703e-22)
(0.749127 0.131044 0)
(0.793475 0.111844 8.96817e-24)
(0.83219 0.0956148 0)
(0.863235 0.0817706 0)
(0.115701 0.231348 1.57338e-22)
(0.286001 0.277166 -1.0726e-21)
(0.433255 0.230714 8.52499e-22)
(0.531597 0.189686 -1.46503e-22)
(0.618738 0.157323 3.76144e-22)
(0.684635 0.13229 1.0291e-22)
(0.741693 0.111849 0)
(0.787256 0.0954181 -2.80929e-22)
(0.826864 0.0815389 -7.47677e-23)
(0.85874 0.0696677 -2.16145e-22)
(0.100767 0.191742 6.72796e-22)
(0.268212 0.229134 -1.59077e-21)
(0.418891 0.19049 1.46582e-22)
(0.520076 0.156533 -6.12182e-22)
(0.609468 0.129767 -6.86814e-23)
(0.677029 0.109068 -6.68198e-22)
(0.735431 0.0921764 0)
(0.782015 0.078605 3.84088e-22)
(0.822372 0.0671469 -6.85825e-23)
(0.85497 0.057321 4.93183e-22)
(0.0886252 0.150673 -6.72796e-22)
(0.253802 0.179695 5.83501e-22)
(0.40728 0.149239 -1.01276e-22)
(0.510766 0.122585 7.18176e-22)
(0.60198 0.101587 3.94295e-22)
(0.670887 0.0853514 4.08607e-23)
(0.730377 0.0721081 -3.41165e-23)
(0.777784 0.0614722 -4.30143e-22)
(0.818742 0.0524951 3.86239e-24)
(0.851938 0.0447776 -1.63836e-22)
(0.0794039 0.108455 3.51981e-22)
(0.24289 0.129151 0)
(0.398501 0.107181 4.15939e-22)
(0.503729 0.0880117 0)
(0.596323 0.072916 5.53453e-23)
(0.666248 0.0612456 -4.60835e-23)
(0.72656 0.0517293 0)
(0.774587 0.0440888 0)
(0.815998 0.0376409 0)
(0.849656 0.0320852 0)
(0.0732015 0.0654064 -3.08346e-22)
(0.235566 0.0778107 -1.18715e-22)
(0.392615 0.0645421 -4.15939e-22)
(0.499012 0.0529881 0)
(0.59253 0.0438916 0)
(0.663139 0.0368599 2.08466e-23)
(0.724003 0.0311273 -8.31782e-23)
(0.772444 0.0265255 -9.86978e-23)
(0.814157 0.0226423 -9.20554e-23)
(0.84813 0.0192903 1.48547e-23)
(0.0700838 0.0218579 -5.58183e-24)
(0.231889 0.0259904 1.28063e-22)
(0.389662 0.021553 -5.73174e-24)
(0.496646 0.0176929 1.9767e-23)
(0.590628 0.0146543 -7.78927e-24)
(0.66158 0.0123054 0)
(0.722721 0.0103907 6.57724e-23)
(0.77137 0.00885389 9.86978e-23)
(0.813233 0.00755703 6.99333e-23)
(0.847366 0.00643648 1.0444e-23)
(0.0700838 -0.0218579 -5.58183e-24)
(0.231889 -0.0259904 1.28063e-22)
(0.389662 -0.021553 -5.73174e-24)
(0.496646 -0.0176929 1.9767e-23)
(0.590628 -0.0146543 -7.78927e-24)
(0.66158 -0.0123054 0)
(0.722721 -0.0103907 5.79383e-23)
(0.77137 -0.00885389 1.05255e-22)
(0.813233 -0.00755703 7.43698e-23)
(0.847366 -0.00643648 0)
(0.0732015 -0.0654064 -3.95617e-22)
(0.235566 -0.0778107 -1.53968e-22)
(0.392615 -0.0645421 -4.40913e-22)
(0.499012 -0.0529881 2.0658e-23)
(0.59253 -0.0438916 0)
(0.663139 -0.0368599 -2.08466e-23)
(0.724003 -0.0311273 -4.83666e-23)
(0.772444 -0.0265255 -9.86978e-23)
(0.814157 -0.0226423 -5.66841e-23)
(0.84813 -0.0192903 -1.48547e-23)
(0.0794039 -0.108455 3.51981e-22)
(0.24289 -0.129151 0)
(0.398501 -0.107181 4.15939e-22)
(0.503729 -0.0880117 0)
(0.596323 -0.072916 5.53453e-23)
(0.666248 -0.0612456 -4.60835e-23)
(0.72656 -0.0517293 0)
(0.774587 -0.0440888 0)
(0.815998 -0.0376409 0)
(0.849656 -0.0320852 0)
(0.0886252 -0.150673 -6.72796e-22)
(0.253802 -0.179695 4.55743e-22)
(0.40728 -0.149239 1.01276e-22)
(0.510766 -0.122585 4.91784e-22)
(0.60198 -0.101587 5.15418e-22)
(0.670887 -0.0853514 -4.08607e-23)
(0.730377 -0.0721081 3.41165e-23)
(0.777784 -0.0614722 -3.38033e-22)
(0.818742 -0.0524951 -3.86239e-24)
(0.851938 -0.0447776 -2.7503e-22)
(0.100767 -0.191742 6.72796e-22)
(0.268212 -0.229134 5.51525e-22)
(0.418891 -0.19049 -1.46582e-22)
(0.520076 -0.156533 -5.97776e-22)
(0.609468 -0.129767 5.013e-23)
(0.677029 -0.109068 -6.68198e-22)
(0.735431 -0.0921764 0)
(0.782015 -0.078605 3.84088e-22)
(0.822372 -0.0671469 6.85825e-23)
(0.85497 -0.057321 3.77974e-22)
(0.115701 -0.231348 -1.57338e-22)
(0.286001 -0.277166 1.0726e-21)
(0.433255 -0.230714 6.67149e-22)
(0.531597 -0.189686 1.46503e-22)
(0.618738 -0.157323 4.70164e-22)
(0.684635 -0.13229 -1.50691e-22)
(0.741693 -0.111849 6.57657e-23)
(0.787256 -0.0954181 -4.59197e-22)
(0.826864 -0.0815389 7.47677e-23)
(0.85874 -0.0696677 -2.16145e-22)
(0.133267 -0.269194 -7.58839e-23)
(0.307024 -0.3235 0)
(0.450274 -0.269696 -2.847e-23)
(0.545253 -0.221878 0)
(0.629731 -0.184126 -8.68731e-22)
(0.693661 -0.154914 6.52703e-22)
(0.749127 -0.131044 0)
(0.793475 -0.111844 8.96817e-24)
(0.83219 -0.0956148 0)
(0.863235 -0.0817706 0)
(0.153278 -0.304999 1.10715e-21)
(0.331107 -0.367855 1.11118e-22)
(0.469832 -0.307233 -6.39799e-22)
(0.560954 -0.252953 -1.30913e-22)
(0.642378 -0.210052 1.0205e-21)
(0.704052 -0.176842 4.57053e-22)
(0.757692 -0.149681 6.22802e-23)
(0.800638 -0.127818 -4.2561e-22)
(0.838317 -0.109321 7.12404e-23)
(0.86844 -0.0935834 -4.93062e-23)
(0.175524 -0.338504 -1.23917e-21)
(0.35805 -0.409962 8.3027e-22)
(0.491792 -0.343132 7.78262e-23)
(0.578596 -0.282762 -1.36136e-22)
(0.656599 -0.234986 -8.12861e-22)
(0.715746 -0.197981 -6.86129e-22)
(0.767339 -0.167687 6.01805e-23)
(0.808703 -0.143278 -5.96212e-23)
(0.845209 -0.122609 1.31624e-22)
(0.874335 -0.10506 -5.25041e-23)
(0.19978 -0.369479 -9.39359e-22)
(0.387625 -0.449558 -8.27188e-22)
(0.516002 -0.377212 1.09203e-21)
(0.598064 -0.311167 1.29038e-22)
(0.672306 -0.258819 0)
(0.728673 -0.218245 0)
(0.778017 -0.184989 0)
(0.817629 -0.15817 1.33298e-21)
(0.852826 -0.135433 4.96242e-22)
(0.880897 -0.116156 -3.78704e-22)
(0.225808 -0.397723 1.78495e-21)
(0.41958 -0.486389 0)
(0.542287 -0.409309 -2.4116e-21)
(0.61923 -0.338041 -9.09786e-22)
(0.689401 -0.281453 0)
(0.742759 -0.237552 0)
(0.789666 -0.201524 8.22942e-22)
(0.827368 -0.17244 -6.53983e-22)
(0.861125 -0.147748 -4.9624e-22)
(0.888098 -0.12683 3.78705e-22)
(0.253336 -0.423013 -9.46578e-22)
(0.453645 -0.520243 8.28996e-23)
(0.570456 -0.43928 1.16358e-21)
(0.641957 -0.363268 1.01651e-21)
(0.707777 -0.302798 -8.85891e-23)
(0.757922 -0.25583 -1.01931e-21)
(0.802224 -0.217233 -4.09702e-23)
(0.83787 -0.18604 -5.24549e-22)
(0.870059 -0.159517 -5.16865e-22)
(0.895908 -0.137045 3.4842e-22)
(0.282052 -0.445129 -2.41952e-24)
(0.489544 -0.550963 -1.21732e-21)
(0.600307 -0.466998 -1.26355e-22)
(0.666101 -0.38675 -6.85109e-22)
(0.727324 -0.322772 -5.4618e-22)
(0.774073 -0.273013 -1.86158e-22)
(0.815624 -0.23206 -7.73854e-22)
(0.849082 -0.198926 6.74198e-22)
(0.87958 -0.170706 3.48951e-22)
(0.904292 -0.146766 -2.58985e-22)
(0.311615 -0.463889 0)
(0.526981 -0.57841 1.00034e-21)
(0.631637 -0.492349 1.12826e-22)
(0.691509 -0.408398 6.7245e-23)
(0.747922 -0.341308 6.18275e-22)
(0.79112 -0.289044 8.45872e-22)
(0.829796 -0.24596 -6.85501e-22)
(0.86095 -0.211058 7.20675e-23)
(0.889637 -0.181285 0)
(0.91321 -0.155963 0)
(0.341667 -0.479158 -5.99618e-23)
(0.565635 -0.602461 8.40562e-22)
(0.66423 -0.515236 0)
(0.718023 -0.428141 1.53829e-22)
(0.76945 -0.358346 -6.97646e-23)
(0.808969 -0.303875 0)
(0.844666 -0.258893 6.92668e-22)
(0.873418 -0.222403 5.00293e-22)
(0.900176 -0.191231 -9.52544e-23)
(0.922618 -0.164616 8.00111e-23)
(0.371834 -0.490835 5.17311e-23)
(0.605169 -0.623015 -8.83022e-22)
(0.697865 -0.535576 0)