/*--------------------------------*- C++ -*----------------------------------*\
  =========                 |
  \\      /  F ield         | OpenFOAM: The Open Source CFD Toolbox
   \\    /   O peration     | Website:  https://openfoam.org
    \\  /    A nd           | Version:  9
     \\/     M anipulation  |
\*---------------------------------------------------------------------------*/
FoamFile
{
    format      ascii;
    class       volVectorField;
    location    "0.8";
    object      U;
}
// * * * * * * * * * * * * * * * * * * * * * * * * * * * * * * * * * * * * * //

dimensions      [0 1 -1 0 0 0 0];

internalField   nonuniform List<vector> 
8500
(
(-0.00594682 0.00114914 0)
(-0.0100871 -0.000742343 -6.24981e-23)
(0.00424618 -0.00459661 -3.30085e-24)
(0.0455958 -0.00942178 4.9974e-37)
(0.113929 -0.0142353 -4.84589e-24)
(0.205194 -0.0182091 4.06423e-24)
(0.311382 -0.0206564 -1.3308e-23)
(0.422835 -0.0212544 -1.01214e-23)
(0.529123 -0.0200952 -2.76407e-24)
(0.625061 -0.0178077 -1.79926e-26)
(-0.00602053 0.00340132 1.84893e-22)
(-0.00947373 -0.00228622 5.7984e-23)
(0.00606188 -0.0138129 2.14044e-22)
(0.0487382 -0.0282347 0)
(0.118321 -0.0426056 0)
(0.21052 -0.0544543 5.42293e-24)
(0.317165 -0.0617345 8.75389e-24)
(0.428561 -0.06349 1.05382e-23)
(0.534301 -0.0600113 2.26083e-24)
(0.629596 -0.053163 1.46359e-25)
(-0.00615665 0.00551664 -1.64597e-22)
(-0.00823224 -0.00400483 0)
(0.00969739 -0.0230981 -2.02407e-22)
(0.0550088 -0.0469553 0)
(0.127067 -0.0706759 -2.01858e-23)
(0.22111 -0.0901827 1.69297e-23)
(0.328646 -0.102113 0)
(0.439916 -0.104913 0)
(0.544558 -0.0991113 0)
(0.638574 -0.0877449 0)
(-0.00633272 0.00740887 3.42602e-22)
(-0.00633461 -0.00600135 -2.44839e-22)
(0.0151611 -0.0324998 -5.15688e-23)
(0.0643798 -0.0655209 -2.87355e-22)
(0.140096 -0.0982488 -2.26264e-22)
(0.236842 -0.125058 1.1935e-23)
(0.345659 -0.14134 -1.00228e-23)
(0.456704 -0.145001 5.32285e-23)
(0.559701 -0.136874 2.86741e-24)
(0.651811 -0.121062 2.80512e-24)
(-0.00651466 0.00899938 -3.42602e-22)
(-0.00374198 -0.00836648 -3.25078e-22)
(0.0224632 -0.0420625 7.77534e-23)
(0.0768125 -0.0838661 3.76321e-22)
(0.157303 -0.12513 -3.79344e-23)
(0.257538 -0.158756 2.5385e-22)
(0.367962 -0.178984 0)
(0.478642 -0.183263 -5.80728e-23)
(0.579448 -0.172813 -3.76347e-24)
(0.669039 -0.152657 -4.98339e-24)
(-0.00665819 0.0102185 8.86266e-23)
(-0.00040391 -0.0111889 5.32276e-22)
(0.0316156 -0.0518134 -3.96336e-22)
(0.0922572 -0.10192 7.11055e-24)
(0.178549 -0.15113 -2.45712e-22)
(0.282963 -0.190967 8.47931e-23)
(0.395239 -0.214644 -2.31911e-23)
(0.505364 -0.219246 9.2014e-23)
(0.603436 -0.206486 -1.17749e-23)
(0.689916 -0.18212 6.21255e-24)
(-0.00671104 0.0110025 4.63345e-23)
(0.0037418 -0.0145437 0)
(0.0426335 -0.0617618 -1.66183e-23)
(0.110651 -0.119608 0)
(0.203666 -0.176063 4.36802e-22)
(0.312838 -0.221402 -2.72017e-22)
(0.427111 -0.247953 0)
(0.536432 -0.252548 1.22408e-23)
(0.631236 -0.237506 0)
(0.714038 -0.209095 0)
(-0.0066103 0.0112933 -7.86738e-22)
(0.00876626 -0.0184777 -7.39969e-23)
(0.0555344 -0.0719057 5.26184e-22)
(0.131921 -0.136847 7.89779e-23)
(0.23246 -0.199752 -4.75667e-22)
(0.346836 -0.249795 -2.38717e-22)
(0.463145 -0.278583 -2.74218e-23)
(0.57135 -0.282822 1.369e-22)
(0.662366 -0.265545 -1.6611e-23)
(0.740948 -0.233291 4.77993e-24)
(-0.00628776 0.0110607 8.84585e-22)
(0.014753 -0.0230258 -6.55852e-22)
(0.0703352 -0.0822306 -1.80351e-22)
(0.155982 -0.153548 9.71157e-23)
(0.264711 -0.222025 4.89128e-22)
(0.384595 -0.275904 3.51114e-22)
(0.502863 -0.306252 -2.98543e-23)
(0.609576 -0.30978 5.18527e-23)
(0.696302 -0.290344 -3.10052e-23)
(0.770155 -0.254484 9.80426e-24)
(-0.00567949 0.0102949 8.57151e-22)
(0.0217879 -0.028208 6.50595e-22)
(0.0870561 -0.0927037 -9.29599e-22)
(0.182742 -0.169613 -1.01605e-22)
(0.300181 -0.242716 0)
(0.425722 -0.299513 0)
(0.545753 -0.330726 0)
(0.650537 -0.3332 -5.02854e-22)
(0.732497 -0.311712 -1.52873e-22)
(0.801145 -0.272515 7.44431e-23)
(-0.00471674 0.0089883 -1.75335e-21)
(0.0299558 -0.0340122 0)
(0.105715 -0.103272 2.14905e-21)
(0.212097 -0.184935 8.18191e-22)
(0.33861 -0.261668 7.75903e-23)
(0.469801 -0.320437 0)
(0.591281 -0.351817 -4.99738e-22)
(0.693641 -0.352923 2.66571e-22)
(0.770397 -0.329521 1.52873e-22)
(0.833396 -0.287295 -7.44433e-23)
(-0.00332898 0.00714669 1.00718e-21)
(0.0393423 -0.0404018 -9.31665e-23)
(0.126327 -0.113863 -1.09803e-21)
(0.243937 -0.199396 -9.1588e-22)
(0.379724 -0.278728 0)
(0.516398 -0.338516 8.42618e-22)
(0.638899 -0.369387 -4.29422e-23)
(0.738294 -0.368856 2.95742e-22)
(0.809452 -0.343711 2.27174e-22)
(0.866389 -0.2988 -1.0419e-22)
(-0.00144744 0.00479182 -3.94308e-24)
(0.0500312 -0.0473192 1.61197e-21)
(0.148899 -0.124382 -1.51803e-22)
(0.278136 -0.212869 7.98941e-22)
(0.423234 -0.293756 4.22564e-22)
(0.565065 -0.353624 2.75211e-22)
(0.688057 -0.383347 5.22604e-22)
(0.783911 -0.380966 -3.81245e-22)
(0.84913 -0.354278 -1.55329e-22)
(0.899616 -0.30706 6.76207e-23)
(0.000993494 0.00195925 0)
(0.0621012 -0.0546848 -1.33838e-21)
(0.173432 -0.134717 -1.58321e-22)
(0.314561 -0.225219 4.34095e-23)
(0.468838 -0.306616 6.54022e-22)
(0.615353 -0.36566 -7.95049e-22)
(0.738213 -0.393654 6.07713e-22)
(0.829928 -0.389276 -5.59492e-23)
(0.88893 -0.361267 0)
(0.93259 -0.312163 0)
(0.00405512 -0.00130334 1.30895e-22)
(0.075623 -0.0623978 -1.65575e-21)
(0.199915 -0.144736 0)
(0.353063 -0.2363 -6.97319e-23)
(0.516224 -0.317184 9.52178e-23)
(0.66681 -0.374555 0)
(0.788841 -0.400308 -6.2839e-22)
(0.875816 -0.393862 -4.23302e-22)
(0.928391 -0.364765 5.34602e-23)
(0.964847 -0.314248 -4.50685e-23)
(0.00779317 -0.00493727 -1.31498e-22)
(0.0906569 -0.0703381 1.76614e-21)
(0.228323 -0.154289 0)
(0.393479 -0.245963 -1.10828e-21)
(0.565072 -0.325349 9.97499e-23)
(0.718991 -0.380268 -1.0649e-21)
(0.839437 -0.403351 -7.63315e-23)
(0.921086 -0.394847 4.87489e-22)
(0.967099 -0.36489 0)
(0.99595 -0.313506 3.24332e-22)
(0.0122566 -0.00887423 -2.18926e-21)
(0.10725 -0.0783678 -1.14942e-22)
(0.258617 -0.163213 -1.66056e-22)
(0.43563 -0.254054 1.38958e-22)
(0.615051 -0.331009 -1.58994e-21)
(0.771459 -0.382789 1.0649e-21)
(0.889528 -0.402865 7.48729e-22)
(0.965301 -0.392392 4.80918e-22)
(1.00468 -0.361771 6.10595e-22)
(1.02547 -0.310142 -2.81794e-22)
(0.017487 -0.0130378 2.32617e-21)
(0.125434 -0.0863341 0)
(0.290736 -0.171332 1.64412e-21)
(0.479319 -0.260417 -1.44592e-22)
(0.665827 -0.334082 3.24695e-21)
(0.823795 -0.382134 0)
(0.938678 -0.398965 -7.48727e-22)
(1.00808 -0.386687 2.64826e-23)
(1.04081 -0.355504 -6.77374e-22)
(1.05293 -0.304314 5.62953e-23)
(0.0235174 -0.0173449 0)
(0.145222 -0.094072 1.92359e-21)
(0.324598 -0.178461 -1.47133e-21)
(0.524331 -0.264903 0)
(0.717058 -0.334501 -1.65701e-21)
(0.875594 -0.378349 0)
(0.98649 -0.391807 8.18793e-22)
(1.04913 -0.377941 -5.07401e-22)
(1.07521 -0.346116 -6.73268e-22)
(1.07788 -0.29639 -3.98472e-22)
(0.030372 -0.021707 -3.06546e-22)
(0.166608 -0.101407 -1.66624e-21)
(0.3601 -0.184412 0)
(0.570431 -0.267367 0)
(0.768403 -0.33222 0)
(0.926474 -0.371507 -1.4035e-22)
(1.03262 -0.381576 -8.43388e-22)
(1.08822 -0.366364 -7.84308e-23)
(1.10769 -0.333734 6.73269e-22)
(1.10027 -0.287838 4.50655e-22)
(0.0380652 -0.0260319 0)
(0.189566 -0.108159 -2.05647e-21)
(0.39711 -0.188996 0)
(0.617366 -0.267675 0)
(0.819517 -0.327216 0)
(0.976076 -0.36171 1.4525e-22)
(1.07675 -0.368485 -1.09703e-21)
(1.12517 -0.352182 4.32683e-23)
(1.13818 -0.318947 5.41688e-22)
(1.12183 -0.280496 4.92618e-22)
(0.0466018 -0.0302247 0)
(0.214046 -0.114144 2.05646e-21)
(0.435473 -0.192027 -1.68446e-21)
(0.664864 -0.265709 0)
(0.870061 -0.319487 -1.89464e-21)
(1.02406 -0.349083 0)
(1.11861 -0.352763 8.78301e-22)
(1.15975 -0.335682 -5.93077e-22)
(1.16621 -0.302628 -7.2581e-22)
(1.1451 -0.270069 -4.73549e-22)
(0.0559758 -0.0341892 2.8713e-21)
(0.239974 -0.119179 0)
(0.475007 -0.193329 1.47993e-21)
(0.712638 -0.26137 1.71148e-22)
(0.919697 -0.309059 3.83859e-21)
(1.07013 -0.333774 0)
(1.15799 -0.334646 -9.25685e-22)
(1.19182 -0.317126 -1.20166e-21)
(1.19175 -0.284925 -6.84246e-22)
(1.16687 -0.256411 -2.14667e-23)
(0.0661708 -0.0378292 -3.0453e-21)
(0.267254 -0.123086 1.4608e-22)
(0.515505 -0.192738 2.10151e-22)
(0.760388 -0.25458 -1.75857e-22)
(0.968101 -0.295979 -1.94395e-21)
(1.114 -0.315949 1.39795e-21)
(1.19469 -0.314375 9.25686e-22)
(1.22125 -0.296781 6.0858e-22)
(1.21489 -0.266008 7.70121e-22)
(1.18653 -0.240759 -5.85484e-22)
(0.0771594 -0.0410497 1.78759e-22)
(0.295765 -0.125693 2.15245e-21)
(0.556735 -0.190109 0)
(0.807803 -0.245288 -1.22014e-21)
(1.01496 -0.280324 -1.34838e-22)
(1.15542 -0.295793 -1.39795e-21)
(1.22857 -0.292195 1.06902e-22)
(1.24796 -0.27491 5.41905e-22)
(1.23565 -0.246051 0)
(1.20412 -0.223724 5.32866e-22)
(0.0889034 -0.0437579 -1.91914e-22)
(0.325364 -0.126838 -2.30251e-21)
(0.598444 -0.185314 0)
(0.854566 -0.23347 1.36752e-22)
(1.05998 -0.262192 -1.37516e-22)
(1.1942 -0.273503 0)
(1.25953 -0.268348 -9.71476e-22)
(1.27192 -0.251767 -6.31802e-22)
(1.25408 -0.225224 -9.17687e-23)
(1.2197 -0.20566 -7.73452e-23)
(0.101353 -0.0458645 0)
(0.355883 -0.126373 -2.69862e-21)
(0.640361 -0.178252 2.42869e-22)
(0.90036 -0.21913 -2.40587e-23)
(1.10287 -0.241707 -1.04421e-21)
(1.23014 -0.249288 -1.62028e-21)
(1.2875 -0.243075 1.10945e-21)
(1.29314 -0.227591 0)
(1.27022 -0.203696 0)
(1.23333 -0.18683 0)
(0.114449 -0.0472846 9.11138e-24)
(0.387136 -0.124166 2.27266e-21)
(0.682198 -0.168848 2.47685e-22)
(0.944868 -0.202302 1.60185e-21)
(1.14339 -0.219015 9.02417e-22)
(1.26311 -0.223364 -1.75121e-22)
(1.31244 -0.216613 1.01283e-21)
(1.31163 -0.202608 -5.53972e-22)
(1.28412 -0.181632 -5.0645e-22)
(1.24508 -0.167445 3.55904e-22)
(0.128118 -0.0479393 1.45179e-21)
(0.418916 -0.120105 1.63619e-22)
(0.723658 -0.157056 -1.9672e-21)
(0.987784 -0.18305 -1.4695e-21)
(1.18131 -0.19428 0)
(1.293 -0.195954 1.46558e-21)
(1.33434 -0.189191 6.68557e-25)
(1.32746 -0.177028 7.18319e-22)
(1.29587 -0.159192 3.52786e-22)
(1.25502 -0.147684 -2.77259e-22)
(0.14228 -0.0477562 -3.31767e-21)
(0.451001 -0.114098 0)
(0.764434 -0.142859 3.95888e-21)
(1.02881 -0.161468 1.29702e-21)
(1.21642 -0.167685 1.44484e-22)
(1.31972 -0.167283 0)
(1.35322 -0.161028 -9.84681e-22)
(1.34068 -0.151044 6.42936e-22)
(1.30552 -0.136522 4.11249e-22)
(1.26323 -0.127697 -2.73301e-22)
(0.156842 -0.0466709 1.67098e-21)
(0.483151 -0.106076 1.28229e-21)
(0.804219 -0.126274 -2.22872e-21)
(1.06767 -0.137676 1.98355e-22)
(1.24856 -0.139428 0)
(1.34322 -0.137574 0)
(1.36913 -0.132333 0)
(1.35139 -0.124836 -1.27992e-21)
(1.31317 -0.113759 -4.11251e-22)
(1.26977 -0.107615 2.73294e-22)
(0.171702 -0.0446283 1.5043e-21)
(0.515118 -0.0959962 -1.26831e-21)
(0.842705 -0.107348 1.30733e-22)
(1.10409 -0.11182 0)
(1.27756 -0.109718 1.06292e-21)
(1.3635 -0.107049 6.43825e-22)
(1.38212 -0.103307 6.90582e-23)
(1.35967 -0.098568 -6.14467e-23)
(1.3189 -0.0910289 1.04453e-22)
(1.27471 -0.0875531 -3.82402e-23)
(0.186752 -0.0415831 -1.70717e-21)
(0.546645 -0.0838399 1.57415e-22)
(0.879592 -0.0861569 1.0041e-21)
(1.13784 -0.0840708 -2.73381e-22)
(1.30333 -0.0787731 -7.96967e-22)
(1.38053 -0.0759276 -9.08714e-22)
(1.39227 -0.0741338 6.82969e-23)
(1.36562 -0.072389 3.19865e-22)
(1.32278 -0.0684466 0)
(1.27812 -0.0676161 -2.71737e-23)
(0.201873 -0.0375013 -1.07676e-22)
(0.57747 -0.0696171 0)
(0.914591 -0.0628099 6.17691e-25)
(1.16871 -0.0546186 0)
(1.32578 -0.0468185 1.04496e-21)
(1.39436 -0.0444199 -7.06653e-22)
(1.39966 -0.0449893 0)
(1.36934 -0.0464356 7.09833e-24)
(1.32492 -0.0461172 0)
(1.28006 -0.0478973 0)
(0.216941 -0.0323608 -2.10933e-22)
(0.607329 -0.0533645 1.39622e-21)
(0.947427 -0.0374427 -1.13596e-21)
(1.19651 -0.0236719 1.85215e-22)
(1.34483 -0.0140818 -4.83589e-22)
(1.40502 -0.0127308 -8.50419e-23)
(1.40439 -0.0160356 0)
(1.37093 -0.0208317 2.35582e-22)
(1.32538 -0.0241366 5.53456e-23)
(1.2806 -0.0284828 1.18769e-22)
(0.231827 -0.0261523 -8.60423e-22)
(0.635961 -0.0351466 -5.77449e-22)
(0.977842 -0.0102175 -1.84431e-22)
(1.22108 0.00854588 7.42429e-22)
(1.36047 0.0192078 6.13319e-23)
(1.41257 0.0189441 6.92882e-22)
(1.40656 0.0125771 0)
(1.37051 0.00431004 -2.83033e-22)
(1.32426 -0.00259229 4.03298e-23)
(1.2798 -0.00945195 -2.65746e-22)
(0.246397 -0.0188804 -8.60423e-22)
(0.663111 -0.0150548 5.74921e-22)
(1.0056 0.0186789 -7.00138e-24)
(1.24229 0.0417996 -8.59667e-22)
(1.37269 0.0528224 -4.36284e-22)
(1.4171 0.050418 -3.72813e-23)
(1.40628 0.04071 3.13091e-23)
(1.36816 0.0288876 3.13623e-22)
(1.32163 0.0184357 -6.51434e-24)
(1.27773 0.00912165 8.52188e-23)
(0.260516 -0.0105633 -4.2339e-22)
(0.688532 0.00679319 0)
(1.03049 0.0490385 -4.9209e-22)
(1.26005 0.0758452 0)
(1.38149 0.0865373 -5.49484e-22)
(1.4187 0.0815142 4.61197e-23)
(1.40366 0.0682352 0)
(1.364 0.0528083 0)
(1.31757 0.0388743 0)
(1.27443 0.0271699 0)
(0.274049 -0.00123372 3.71941e-22)
(0.711992 0.0302546 1.79942e-22)
(1.05233 0.0806346 4.92091e-22)
(1.27427 0.110432 0)
(1.38693 0.120132 0)
(1.41745 0.112066 -1.73288e-23)
(1.39882 0.0950353 6.34203e-23)
(1.35812 0.0759882 6.13962e-23)
(1.31215 0.0586568 4.64673e-23)
(1.26998 0.0446304 -7.18163e-24)
(0.286861 0.00906105 -6.47413e-24)
(0.733273 0.0551632 -1.68259e-22)
(1.07096 0.113225 7.87993e-24)
(1.28492 0.145308 9.60841e-24)
(1.38906 0.153394 -1.44559e-23)
(1.41348 0.141916 5.37366e-24)
(1.39187 0.121003 -5.41025e-23)
(1.35062 0.0983513 -5.69947e-23)
(1.30544 0.0777226 -3.59696e-23)
(1.26442 0.0614467 6.28431e-25)
(0.298823 0.0202594 0)
(0.752175 0.081331 -1.62018e-22)
(1.08625 0.146553 -5.76241e-24)
(1.29199 0.180217 1.12745e-23)
(1.38796 0.186115 1.99357e-37)
(1.40689 0.170917 -1.29592e-37)
(1.38292 0.146038 -4.84577e-23)
(1.34158 0.119828 -4.94011e-23)
(1.29753 0.0960163 -3.2273e-23)
(1.25782 0.0775694 0)
(0.309808 0.0322858 4.38878e-22)
(0.768522 0.108551 1.3291e-22)
(1.0981 0.180354 4.71345e-22)
(1.29549 0.214907 -2.18168e-23)
(1.38372 0.218098 0)
(1.39782 0.198933 1.47986e-23)
(1.37208 0.170052 3.11091e-23)
(1.33109 0.140357 5.35395e-23)
(1.28846 0.113488 2.58044e-23)
(1.25022 0.0929541 5.44906e-24)
(0.319698 0.0450509 -3.90424e-22)
(0.78216 0.136598 0)
(1.10645 0.214357 -4.45276e-22)
(1.29545 0.249128 0)
(1.37646 0.249154 -4.40363e-23)
(1.38639 0.225835 3.69342e-23)
(1.35947 0.192962 0)
(1.31924 0.159876 0)
(1.27833 0.130095 0)
(1.24167 0.107553 0)
(0.328384 0.058453 7.27595e-22)
(0.792959 0.165233 -4.88729e-22)
(1.11126 0.248285 -1.04028e-22)
(1.29195 0.282637 -4.53783e-22)
(1.36628 0.279102 -4.15606e-22)
(1.37273 0.251506 2.55129e-23)
(1.3452 0.214693 -2.14259e-23)
(1.30612 0.178327 1.40159e-22)
(1.2672 0.145795 5.3144e-24)
(1.23225 0.121334 5.53341e-23)
(0.335765 0.0723785 -7.27595e-22)
(0.800818 0.194207 -5.72709e-22)
(1.11253 0.281861 1.4475e-22)
(1.28506 0.315197 5.42367e-22)
(1.35333 0.307775 -2.44044e-23)
(1.35697 0.275836 4.10952e-22)
(1.32938 0.235176 0)
(1.29183 0.195664 -1.57978e-22)
(1.25509 0.160547 -1.58385e-23)
(1.22201 0.134274 -5.97159e-23)
(0.341755 0.0867033 1.66253e-22)
(0.805662 0.223258 9.95994e-22)
(1.11027 0.314809 -6.4842e-22)
(1.2749 0.34658 -1.2798e-22)
(1.33776 0.335012 -3.02971e-22)
(1.33925 0.298721 5.92654e-23)
(1.31214 0.25434 -3.5121e-23)
(1.27645 0.211848 1.41077e-22)
(1.24207 0.174317 -2.17774e-23)
(1.211 0.14634 3.07479e-23)
(0.34628 0.101294 8.02985e-23)
(0.807446 0.252123 0)
(1.10455 0.34686 4.83824e-23)
(1.26159 0.376569 0)
(1.31971 0.360666 6.1562e-22)
(1.31972 0.320068 -3.69681e-22)
(1.29357 0.272126 0)
(1.26005 0.226839 -2.28327e-23)
(1.22822 0.187075 0)
(1.19927 0.157504 0)
(0.34928 0.116012 -1.16163e-21)
(0.806153 0.280531 -1.07675e-22)
(1.09543 0.377746 7.75879e-22)
(1.24529 0.404959 9.4025e-23)
(1.29934 0.384598 -6.3052e-22)
(1.29853 0.339791 -2.02547e-22)
(1.27379 0.288476 -2.66105e-23)
(1.24272 0.240597 6.01511e-23)
(1.2136 0.198792 -1.27776e-23)
(1.18689 0.167739 -1.00701e-24)
(0.350712 0.130709 1.29593e-21)
(0.8018 0.308215 -8.38956e-22)
(1.08306 0.407215 -2.18442e-22)
(1.22613 0.431552 1.13064e-22)
(1.27683 0.40668 4.95566e-22)
(1.27581 0.357809 3.07676e-22)
(1.25291 0.303343 -2.20957e-23)
(1.22455 0.253086 -3.9461e-23)
(1.19827 0.209438 -8.07834e-24)
(1.1739 0.17702 4.59046e-26)
(0.35055 0.145235 9.77257e-22)
(0.794435 0.334907 8.2586e-22)
(1.06755 0.435029 -9.2012e-22)
(1.20427 0.456164 -1.01661e-22)
(1.25235 0.426794 0)
(1.25171 0.374053 0)
(1.23103 0.31668 0)
(1.20561 0.264271 -1.26332e-22)
(1.18231 0.218987 2.5447e-23)
(1.16037 0.185321 -6.77625e-23)
(0.348786 0.159438 -1.85393e-21)
(0.784146 0.36035 0)
(1.04902 0.460941 1.96053e-21)
(1.17994 0.478647 5.5387e-22)
(1.22609 0.444828 0)
(1.22638 0.38846 0)
(1.20829 0.328445 -8.77143e-23)
(1.18599 0.274124 3.79635e-23)
(1.16576 0.227412 -2.54472e-23)
(1.14635 0.192615 6.77601e-23)
(0.345431 0.173161 9.76227e-22)
(0.771047 0.384318 -8.35759e-23)
(1.02757 0.484705 -9.18923e-22)
(1.15337 0.498839 -6.05778e-22)
(1.19822 0.460698 4.34806e-23)
(1.19996 0.400974 1.71793e-22)
(1.18478 0.338603 7.3128e-23)
(1.16578 0.282617 -5.79851e-23)
(1.1487 0.234693 -1.08573e-22)
(1.13191 0.198876 1.24078e-22)
(0.340498 0.186238 -2.88186e-24)
(0.75523 0.406572 1.08964e-21)
(1.00348 0.506154 -1.04793e-22)
(1.12474 0.516584 3.19834e-22)
(1.16895 0.474325 1.54455e-22)
(1.17262 0.411549 -6.89227e-23)
(1.16063 0.347123 1.22935e-24)
(1.14507 0.289729 7.3095e-23)
(1.1312 0.240808 -1.36872e-22)
(1.11709 0.204079 -9.43034e-23)
(0.334006 0.198505 0)
(0.736826 0.426866 -9.32348e-22)
(0.976996 0.525116 -8.76297e-23)
(1.09429 0.531765 -1.00415e-22)
(1.13845 0.485639 -1.54164e-22)
(1.14449 0.420143 -7.40569e-23)
(1.13595 0.35398 -1.47017e-22)
(1.12395 0.29544 0)
(1.11331 0.245744 0)
(1.10196 0.208196 0)
(0.326036 0.209817 6.09621e-23)
(0.716017 0.444978 -6.89218e-22)
(0.948331 0.541416 0)
(1.06222 0.544281 -1.1915e-22)
(1.10692 0.494582 1.41716e-23)
(1.11574 0.426725 0)
(1.11086 0.359152 1.35138e-22)
(1.10251 0.299739 2.28719e-22)
(1.09511 0.24949 -5.3896e-23)
(1.08658 0.211204 4.53748e-23)
(0.316684 0.220055 -4.53648e-23)
(0.692987 0.460714 7.27305e-22)
(0.917717 0.5549 0)
(1.02877 0.554043 -1.62543e-22)
(1.07456 0.501107 4.07282e-24)
(1.0865 0.431271 2.49685e-22)
(1.08547 0.362627 3.44237e-23)
(1.08086 0.302619 -2.57668e-22)
(1.07667 0.25204 0)
(1.07099 0.213076 -4.78496e-22)
(0.306032 0.229089 -3.35963e-22)
(0.667956 0.473906 -2.58966e-23)
(0.885406 0.56544 -1.16024e-23)
(0.994183 0.560979 9.70946e-24)
(1.04155 0.505182 2.86633e-22)
(1.05694 0.433766 -2.49686e-22)
(1.05992 0.364397 -3.63918e-22)
(1.05907 0.304078 -3.3842e-22)
(1.05804 0.253392 -6.01162e-22)
(1.05525 0.213781 4.18837e-22)
(0.294178 0.236794 3.6681e-22)
(0.641158 0.484402 0)
(0.851662 0.57293 -4.82382e-23)
(0.958699 0.565036 4.42222e-24)
(1.00811 0.506782 -7.2362e-22)
(1.02721 0.434203 0)
(1.03431 0.364461 3.6392e-22)
(1.03727 0.30412 -5.46951e-23)
(1.03928 0.253541 6.82987e-22)
(1.03943 0.21327 -6.88766e-23)
(0.281239 0.243061 0)
(0.612837 0.492069 -5.28231e-23)
(0.816754 0.577286 4.2954e-23)
(0.922561 0.566175 0)
(0.974416 0.505898 4.36988e-22)
(0.997458 0.432583 0)
(1.00878 0.362825 -5.15559e-22)
(1.01552 0.302759 3.9312e-22)
(1.02046 0.252485 7.61835e-22)
(1.02371 0.211484 6.4154e-22)
(0.267347 0.247795 2.77558e-23)
(0.583251 0.496801 2.95212e-23)
(0.780957 0.578446 0)
(0.886014 0.564376 0)
(0.940671 0.502533 0)
(0.967831 0.428915 7.99416e-23)
(0.983435 0.359503 3.78628e-22)
(0.993942 0.300019 5.86937e-23)
(1.00176 0.25028 -7.61839e-22)
(1.00836 0.208561 -7.20825e-22)
(0.252641 0.250912 0)
(0.552666 0.498511 4.31064e-22)
(0.744552 0.57637 0)
(0.849302 0.559636 0)
(0.907064 0.4967 0)
(0.938481 0.423219 -9.20271e-23)
(0.958399 0.354513 8.19255e-22)
(0.972646 0.295916 -1.97068e-22)
(0.983508 0.247057 -6.96503e-22)
(0.993623 0.204804 -7.35007e-22)
(0.237272 0.252345 0)
(0.521355 0.49714 -4.31065e-22)
(0.707818 0.57104 6.17235e-22)
(0.812665 0.55197 0)
(0.873784 0.488425 1.02492e-21)
(0.909553 0.41552 0)
(0.933784 0.347873 -6.6355e-22)
(0.951773 0.290417 6.05312e-22)
(0.965898 0.242715 9.14623e-22)
(0.979553 0.201361 7.37065e-22)
(0.221396 0.252043 -1.14191e-21)
(0.489596 0.492652 0)
(0.671038 0.562462 -5.2828e-22)
(0.776343 0.541406 -7.44443e-23)
(0.841018 0.477747 -2.19012e-21)
(0.881189 0.405855 0)
(0.909698 0.339613 8.05391e-22)
(0.931379 0.283547 5.0021e-23)
(0.948691 0.237126 9.35645e-22)
(0.965214 0.197116 3.52317e-25)
(0.205178 0.249969 1.2151e-21)
(0.457671 0.485037 -6.14443e-23)
(0.634489 0.550664 -1.04945e-22)
(0.74057 0.527994 -8.78236e-23)
(0.808947 0.464716 1.1652e-21)
(0.85353 0.394267 -1.07384e-21)
(0.886251 0.329771 -8.05395e-22)
(0.911545 0.275351 -6.55339e-22)
(0.931945 0.230372 -1.06045e-21)
(0.950988 0.19187 1.00345e-21)
(0.188784 0.246107 -8.73959e-23)
(0.42586 0.474311 -1.0866e-21)
(0.598446 0.535693 0)
(0.705574 0.511795 7.55385e-22)
(0.777748 0.449393 8.52248e-23)
(0.82671 0.38081 1.07385e-21)
(0.863552 0.31839 -1.10876e-22)
(0.892361 0.26587 -6.57061e-22)
(0.915744 0.222521 0)
(0.937087 0.185649 -8.92989e-22)
(0.172383 0.240455 1.08625e-22)
(0.394441 0.460515 1.15997e-21)
(0.563179 0.51762 0)
(0.671577 0.49289 -2.25244e-23)
(0.74759 0.431853 9.41067e-23)
(0.800862 0.365546 0)
(0.841708 0.305521 1.0013e-21)
(0.873915 0.255144 7.503e-22)
(0.900164 0.213617 1.48818e-22)
(0.923642 0.178502 -1.25341e-22)
(0.156144 0.233028 0)
(0.36369 0.443712 1.67266e-21)
(0.528947 0.496538 -1.49595e-22)
(0.638792 0.471373 8.57845e-23)
(0.718638 0.412178 8.39989e-22)
(0.776114 0.348546 1.49764e-21)
(0.820819 0.291221 -1.13415e-21)
(0.85629 0.24322 0)
(0.885276 0.203699 0)
(0.910757 0.170461 0)
(0.140235 0.223861 -8.91829e-24)
(0.333872 0.423992 -1.40277e-21)
(0.496004 0.472556 1.6542e-22)
(0.607425 0.447354 -1.16488e-21)
(0.69105 0.390464 -7.29288e-22)
(0.752587 0.329887 2.47593e-22)
(0.800985 0.275555 -1.12604e-21)
(0.839568 0.230153 7.6616e-22)
(0.871148 0.192813 8.51973e-22)
(0.898516 0.161561 -6.76132e-22)
(0.12482 0.213003 -1.0997e-21)
(0.305245 0.401469 -1.16919e-22)
(0.46459 0.445805 1.4964e-21)
(0.577669 0.420955 1.19051e-21)
(0.664973 0.366816 0)
(0.730396 0.309657 -1.41936e-21)
(0.782298 0.258593 -5.28602e-23)
(0.823823 0.216001 -9.85686e-22)
(0.857847 0.181009 -5.97562e-22)
(0.886991 0.151842 5.3874e-22)
(0.110058 0.200521 2.5705e-21)
(0.278056 0.376275 0)
(0.434933 0.416435 -3.09419e-21)
(0.54971 0.392314 -1.04072e-21)
(0.64055 0.341349 -1.25481e-22)
(0.70965 0.287949 0)
(0.764845 0.240413 1.1702e-21)
(0.809128 0.200828 -9.49568e-22)
(0.845432 0.168338 -7.40527e-22)
(0.876239 0.141353 5.77043e-22)
(0.0961013 0.186498 -1.33154e-21)
(0.252539 0.348567 -1.03042e-21)
(0.407248 0.384612 1.79784e-21)
(0.523718 0.361581 -1.67414e-22)
(0.617909 0.314189 0)
(0.690451 0.264866 0)
(0.748707 0.221098 0)
(0.795549 0.184704 1.93111e-21)
(0.833961 0.154861 7.40529e-22)
(0.866312 0.130147 -5.77043e-22)
(0.0830945 0.171031 -1.32439e-21)
(0.228911 0.318522 1.01826e-21)
(0.381735 0.350517 1.09767e-22)
(0.499853 0.328918 0)
(0.597174 0.285467 -1.08789e-21)
(0.672893 0.240516 -7.43204e-22)
(0.73396 0.200738 -8.39039e-23)
(0.783146 0.167704 1.49039e-22)
(0.823483 0.140639 -1.94345e-22)
(0.857254 0.11828 7.85545e-23)
(0.0711713 0.154232 1.49521e-21)
(0.207375 0.286331 -1.37736e-22)
(0.358577 0.314349 -1.15136e-21)
(0.478261 0.294497 2.63342e-22)
(0.578455 0.255327 8.10914e-22)
(0.657062 0.215014 1.05808e-21)
(0.720673 0.179427 -8.65771e-23)
(0.771976 0.149908 -4.92323e-22)
(0.814047 0.12574 0)
(0.849105 0.105814 7.48665e-23)
(0.0604548 0.136224 9.98928e-23)
(0.188113 0.252208 0)
(0.337939 0.276318 -3.34783e-23)
(0.459072 0.258501 0)
(0.561851 0.223916 -1.15777e-21)
(0.643035 0.188481 8.91885e-22)
(0.708906 0.157266 0)
(0.762089 0.131398 1.13424e-23)
(0.805695 0.110234 0)
(0.841899 0.0928114 0)
(0.0510553 0.117145 2.00552e-22)
(0.17129 0.216377 -1.30654e-21)
(0.31997 0.236648 1.07738e-21)
(0.442404 0.221121 -1.89482e-22)
(0.547451 0.19139 5.00351e-22)
(0.630882 0.161043 1.37636e-22)
(0.698717 0.134359 0)
(0.753529 0.112262 -4.01063e-22)
(0.798465 0.0941942 -1.08199e-22)
(0.835666 0.0793397 -3.22476e-22)
(0.0430698 0.0971403 8.61742e-22)
(0.157047 0.179079 -1.93008e-21)
(0.304796 0.195571 1.84435e-22)
(0.428358 0.182556 -7.87735e-22)
(0.535333 0.15791 -8.95822e-23)
(0.620661 0.132832 -9.11349e-22)
(0.690151 0.110812 0)
(0.746336 0.0925907 5.47236e-22)
(0.792389 0.0776989 -1.00882e-22)
(0.830432 0.0654672 7.34105e-22)
(0.0365805 0.0763662 -8.61742e-22)
(0.145506 0.140564 7.06741e-22)
(0.292526 0.153332 -1.26781e-22)
(0.417018 0.143014 9.26396e-22)
(0.52556 0.123643 5.24845e-22)
(0.612424 0.103982 5.6028e-23)
(0.68325 0.0867393 -4.70527e-23)
(0.740542 0.0724777 -6.13344e-22)
(0.787494 0.0608269 4.6222e-24)
(0.826219 0.0512643 -2.44069e-22)
(0.0316541 0.0549856 4.45597e-22)
(0.136764 0.101092 0)
(0.283247 0.110179 5.2199e-22)
(0.408452 0.102704 0)
(0.518184 0.0887598 7.39891e-23)
(0.60621 0.0746325 -6.20565e-23)
(0.678046 0.0622534 0)
(0.736174 0.0520186 0)
(0.783803 0.0436599 0)
(0.823044 0.036803 0)
(0.0283414 0.0331675 -3.91308e-22)
(0.130894 0.0609323 -1.41927e-22)
(0.277024 0.0663713 -5.2199e-22)
(0.402713 0.0618436 0)
(0.513245 0.0534337 0)
(0.602051 0.0449237 2.85343e-23)
(0.674563 0.037471 -1.15338e-22)
(0.73325 0.0313109 -1.40167e-22)
(0.781334 0.026281 -1.33829e-22)
(0.820919 0.0221562 2.18103e-23)
(0.0266765 0.0110853 -7.0398e-24)
(0.127947 0.020357 1.53917e-22)
(0.273902 0.0221678 -7.40985e-24)
(0.399835 0.0206515 2.54371e-23)
(0.510769 0.0178409 -1.02058e-23)
(0.599966 0.0149986 0)
(0.672817 0.0125102 9.1375e-23)
(0.731785 0.0104536 1.40167e-22)
(0.780096 0.00877453 1.0144e-22)
(0.819855 0.00739782 1.55215e-23)
(0.0266765 -0.0110853 -7.0398e-24)
(0.127947 -0.020357 1.53917e-22)
(0.273902 -0.0221678 -7.40985e-24)
(0.399835 -0.0206515 2.54371e-23)
(0.510769 -0.0178409 -1.02058e-23)
(0.599966 -0.0149986 0)
(0.672817 -0.0125102 8.04089e-23)
(0.731785 -0.0104536 1.49388e-22)
(0.780096 -0.00877453 1.07933e-22)
(0.819855 -0.00739782 0)
(0.0283414 -0.0331675 -4.99886e-22)
(0.130894 -0.0609323 -1.86063e-22)
(0.277024 -0.0663713 -5.53512e-22)
(0.402713 -0.0618436 2.63792e-23)
(0.513245 -0.0534337 0)
(0.602051 -0.0449237 -2.85343e-23)
(0.674563 -0.037471 -6.74117e-23)
(0.73325 -0.0313109 -1.40167e-22)
(0.781334 -0.026281 -8.20371e-23)
(0.820919 -0.0221562 -2.18103e-23)
(0.0316541 -0.0549856 4.45597e-22)
(0.136764 -0.101092 0)
(0.283247 -0.110179 5.2199e-22)
(0.408452 -0.102704 0)
(0.518184 -0.0887598 7.39891e-23)
(0.60621 -0.0746325 -6.20565e-23)
(0.678046 -0.0622534 0)
(0.736174 -0.0520186 0)
(0.783803 -0.0436599 0)
(0.823044 -0.036803 0)
(0.0365805 -0.0763662 -8.61742e-22)
(0.145506 -0.140564 5.50642e-22)
(0.292526 -0.153332 1.26781e-22)
(0.417018 -0.143014 6.33653e-22)
(0.52556 -0.123643 6.83838e-22)
(0.612424 -0.103982 -5.6028e-23)
(0.68325 -0.0867393 4.70527e-23)
(0.740542 -0.0724777 -4.8113e-22)
(0.787494 -0.0608269 -4.6222e-24)
(0.826219 -0.0512643 -4.09258e-22)
(0.0430698 -0.0971403 8.61742e-22)
(0.157047 -0.179079 6.72698e-22)
(0.304796 -0.195571 -1.84435e-22)
(0.428358 -0.182556 -7.72312e-22)
(0.535333 -0.15791 6.65688e-23)
(0.620661 -0.132832 -9.11349e-22)
(0.690151 -0.110812 0)
(0.746336 -0.0925907 5.47236e-22)
(0.792389 -0.0776989 1.00882e-22)
(0.830432 -0.0654672 5.64174e-22)
(0.0510553 -0.117145 -2.00552e-22)
(0.17129 -0.216377 1.30654e-21)
(0.31997 -0.236648 8.42244e-22)
(0.442404 -0.221121 1.89482e-22)
(0.547451 -0.19139 6.29524e-22)
(0.630882 -0.161043 -2.07066e-22)
(0.698717 -0.134359 9.09939e-23)
(0.753529 -0.112262 -6.58068e-22)
(0.798465 -0.0941942 1.08199e-22)
(0.835666 -0.0793397 -3.22476e-22)
(0.0604548 -0.136224 -9.98928e-23)
(0.188113 -0.252208 0)
(0.337939 -0.276318 -3.34783e-23)
(0.459072 -0.258501 0)
(0.561851 -0.223916 -1.15777e-21)
(0.643035 -0.188481 8.91885e-22)
(0.708906 -0.157266 0)
(0.762089 -0.131398 1.13424e-23)
(0.805695 -0.110234 0)
(0.841899 -0.0928114 0)
(0.0711713 -0.154232 1.49521e-21)
(0.207375 -0.286331 1.37736e-22)
(0.358577 -0.314349 -8.11143e-22)
(0.478261 -0.294497 -1.71416e-22)
(0.578455 -0.255327 1.36488e-21)
(0.657062 -0.215014 6.2815e-22)
(0.720673 -0.179427 8.65771e-23)
(0.771976 -0.149908 -6.15555e-22)
(0.814047 -0.12574 1.03761e-22)
(0.849105 -0.105814 -7.48665e-23)
(0.0830945 -0.171031 -1.66604e-21)
(0.228911 -0.318522 1.04259e-21)
(0.381735 -0.350517 1.00606e-22)
(0.499853 -0.328918 -1.76052e-22)
(0.597174 -0.285467 -1.08789e-21)
(0.672893 -0.240516 -9.43021e-22)
(0.73396 -0.200738 8.39039e-23)
(0.783146 -0.167704 -9.10436e-23)
(0.823483 -0.140639 1.94345e-22)
(0.857254 -0.11828 -7.85545e-23)
(0.0961013 -0.186498 -1.33154e-21)
(0.252539 -0.348567 -1.03042e-21)
(0.407248 -0.384612 1.39774e-21)
(0.523718 -0.361581 1.67414e-22)
(0.617909 -0.314189 0)
(0.690451 -0.264866 0)
(0.748707 -0.221098 0)
(0.795549 -0.184704 1.93111e-21)
(0.833961 -0.154861 7.40529e-22)
(0.866312 -0.130147 -5.77043e-22)
(0.110058 -0.200521 2.5705e-21)
(0.278056 -0.376275 0)
(0.434933 -0.416435 -3.09419e-21)
(0.54971 -0.392314 -1.19051e-21)
(0.64055 -0.341349 0)
(0.70965 -0.287949 0)
(0.764845 -0.240413 1.1702e-21)
(0.809128 -0.200828 -9.49568e-22)
(0.845432 -0.168338 -7.40527e-22)
(0.876239 -0.141353 5.77043e-22)
(0.12482 -0.213003 -1.37823e-21)
(0.305245 -0.401469 1.16919e-22)
(0.46459 -0.445805 1.4964e-21)
(0.577669 -0.420955 1.33177e-21)
(0.664973 -0.366816 -1.1834e-22)
(0.730396 -0.309657 -1.41936e-21)
(0.782298 -0.258593 -5.28602e-23)
(0.823823 -0.216001 -7.68853e-22)
(0.857847 -0.181009 -7.80134e-22)
(0.886991 -0.151842 5.3874e-22)
(0.140235 -0.223861 8.91829e-24)
(0.333872 -0.423992 -1.5848e-21)
(0.496004 -0.472556 -1.6542e-22)
(0.607425 -0.447354 -9.00577e-22)
(0.69105 -0.390464 -7.38823e-22)
(0.752587 -0.329887 -2.65503e-22)
(0.800985 -0.275555 -1.10863e-21)
(0.839568 -0.230153 9.88374e-22)
(0.871148 -0.192813 5.25718e-22)
(0.898516 -0.161561 -4.01349e-22)
(0.156144 -0.233028 0)
(0.36369 -0.443712 1.3149e-21)
(0.528947 -0.496538 1.49595e-22)
(0.638792 -0.471373 8.57845e-23)
(0.718638 -0.412178 8.39989e-22)
(0.776114 -0.348546 1.18127e-21)
(0.820819 -0.291221 -9.93857e-22)
(0.85629 -0.24322 1.0545e-22)
(0.885276 -0.203699 0)
(0.910757 -0.170461 0)
(0.172383 -0.240455 -1.08625e-22)
(0.394441 -0.460515 1.15997e-21)
(0.563179 -0.51762 0)
(0.671577 -0.49289 2.02151e-22)
(0.74759 -0.431853 -9.41067e-23)
(0.800862 -0.365546 0)
(0.841708 -0.305521 1.0013e-21)
(0.873915 -0.255144 7.503e-22)
(0.900164 -0.213617 -1.48818e-22)
(0.923642 -0.178502 1.25341e-22)