/*--------------------------------*- C++ -*----------------------------------*\
  =========                 |
  \\      /  F ield         | OpenFOAM: The Open Source CFD Toolbox
   \\    /   O peration     | Website:  https://openfoam.org
    \\  /    A nd           | Version:  9
     \\/     M anipulation  |
\*---------------------------------------------------------------------------*/
FoamFile
{
    format      ascii;
    class       volVectorField;
    location    "4.4";
    object      U;
}
// * * * * * * * * * * * * * * * * * * * * * * * * * * * * * * * * * * * * * //

dimensions      [0 1 -1 0 0 0 0];

internalField   nonuniform List<vector> 
8500
(
(-0.00424674 0.00147051 0)
(-0.0161789 0.00220607 -7.50658e-23)
(-0.0307778 0.00201096 -4.15637e-24)
(-0.0405516 0.0013047 7.72349e-37)
(-0.0453317 0.000338014 -1.08465e-23)
(-0.0438805 -0.000781141 9.09708e-24)
(-0.0365133 -0.00199386 -5.71145e-23)
(-0.0217666 -0.00329453 -8.47232e-23)
(-0.00293306 -0.00442884 -7.20961e-23)
(0.0246716 -0.00569047 -3.61466e-24)
(-0.00440859 0.0043741 2.10141e-22)
(-0.01616 0.00655194 7.01509e-23)
(-0.0302065 0.0059606 2.81594e-22)
(-0.0392428 0.00384562 0)
(-0.0431199 0.000956313 0)
(-0.0406293 -0.00238525 1.74481e-23)
(-0.0321173 -0.00600379 4.24616e-23)
(-0.0160462 -0.00986656 9.02104e-23)
(0.00404546 -0.0132784 5.4593e-23)
(0.0335716 -0.0169964 1.44701e-23)
(-0.00472346 0.00716652 -1.86728e-22)
(-0.0161083 0.0107008 0)
(-0.0290525 0.00969527 -2.65183e-22)
(-0.0366195 0.00618292 0)
(-0.0386997 0.00140317 -4.35467e-23)
(-0.0341435 -0.00411387 3.65231e-23)
(-0.023355 -0.0100852 0)
(-0.00467482 -0.0163964 0)
(0.0178977 -0.0220935 0)
(0.0512179 -0.0280712 0)
(-0.00517396 0.00977734 3.79435e-22)
(-0.0159965 0.0145269 -2.84171e-22)
(-0.0272929 0.0130777 -6.66445e-23)
(-0.0326696 0.00818692 -4.13021e-22)
(-0.0320771 0.00157023 -4.02277e-22)
(-0.0244565 -0.00604504 3.51119e-23)
(-0.0102856 -0.0142946 -2.94869e-23)
(0.0122237 -0.0228889 3.19473e-22)
(0.0384218 -0.0308121 2.79938e-24)
(0.0773043 -0.0387496 2.75018e-22)
(-0.00573469 0.0121414 -3.79435e-22)
(-0.0157843 0.0179132 -3.69654e-22)
(-0.0248932 0.0159798 1.00293e-22)
(-0.027374 0.00973702 5.49288e-22)
(-0.0232587 0.00135814 -4.73384e-23)
(-0.0116188 -0.00824487 5.78333e-22)
(0.00699294 -0.0186491 0)
(0.0344916 -0.0293611 -3.63729e-22)
(0.0653453 -0.0393754 -6.91087e-23)
(0.111374 -0.048866 -3.79112e-22)
(-0.00637298 0.0142008 9.68316e-23)
(-0.0154187 0.0207539 6.12805e-22)
(-0.0218067 0.0182858 -4.76237e-22)
(-0.0207049 0.0107251 1.42038e-24)
(-0.012248 0.000679659 -4.0587e-22)
(0.00431982 -0.0107688 1.48372e-22)
(0.0283494 -0.0231435 -5.95684e-23)
(0.0619089 -0.0357886 4.56896e-22)
(0.0983398 -0.0477447 -7.53819e-23)
(0.152851 -0.0582556 2.18437e-22)
(-0.00704982 0.0159059 4.89899e-23)
(-0.0148348 0.0229572 0)
(-0.017975 0.0198956 -4.94544e-24)
(-0.0126249 0.0110593 0)
(0.000954965 -0.000535745 7.22201e-22)
(0.023307 -0.0136607 -5.81706e-22)
(0.0536468 -0.0277883 0)
(0.0942146 -0.0421072 2.12054e-24)
(0.13702 -0.0558588 0)
(0.20106 -0.0667514 0)
(-0.00772101 0.0172172 -8.03932e-22)
(-0.013957 0.0244474 -8.30686e-23)
(-0.0133274 0.0207276 6.17593e-22)
(-0.00308552 0.0106672 1.10794e-22)
(0.0163572 -0.00233846 -7.29381e-22)
(0.0452883 -0.0169421 -4.42718e-22)
(0.0827432 -0.0325749 -6.03523e-23)
(0.131124 -0.0482414 4.64822e-22)
(0.180959 -0.0636301 -7.64593e-23)
(0.255245 -0.0741831 5.61105e-23)
(-0.00833843 0.0181057 9.05107e-22)
(-0.0126999 0.0251665 -6.83201e-22)
(-0.00778083 0.0207215 -2.0772e-22)
(0.00797385 0.00949917 1.15035e-22)
(0.0339757 -0.00475652 7.32692e-22)
(0.0702121 -0.0206086 6.62032e-22)
(0.115493 -0.0374655 -6.07932e-23)
(0.172336 -0.0541002 9.62421e-23)
(0.229707 -0.0709437 -1.4715e-22)
(0.31458 -0.0803786 5.90828e-23)
(-0.00885102 0.0185526 8.35231e-22)
(-0.0109704 0.0250773 6.82272e-22)
(-0.00124067 0.0198393 -9.93722e-22)
(0.0206262 0.00753071 -1.16234e-22)
(0.0538386 -0.00779133 0)
(0.0980335 -0.0246298 0)
(0.15175 -0.0423927 0)
(0.217534 -0.0595699 -1.50132e-21)
(0.282794 -0.0776521 -6.11682e-22)
(0.378183 -0.0851667 4.30827e-22)
(-0.00920323 0.018545 -1.68787e-21)
(-0.00866976 0.0241659 0)
(0.0063975 0.0180688 2.27924e-21)
(0.0349564 0.00476532 9.29868e-22)
(0.0759847 -0.0114144 9.52911e-23)
(0.128714 -0.0289457 0)
(0.191367 -0.047259 -9.67121e-22)
(0.266386 -0.0645134 7.53093e-22)
(0.339732 -0.0835725 6.11677e-22)
(0.445114 -0.0883804 -4.3084e-22)
(-0.00933835 0.0180862 9.59136e-22)
(-0.00568994 0.0224343 -8.94073e-23)
(0.0152457 0.0154241 -1.14662e-21)
(0.0510597 0.00123645 -1.04472e-21)
(0.100462 -0.0155652 0)
(0.162221 -0.0334648 1.21682e-21)
(0.234194 -0.0519355 -7.37802e-24)
(0.318544 -0.0687731 6.69426e-22)
(0.400013 -0.0884861 7.00533e-22)
(0.514386 -0.0898603 -4.28925e-22)
(-0.00920379 0.0171917 -1.56478e-24)
(-0.00191983 0.0199018 1.53079e-21)
(0.0254248 0.011946 -1.481e-22)
(0.0690386 -0.00299145 8.33682e-22)
(0.127324 -0.02015 4.81793e-22)
(0.198517 -0.0380628 3.15844e-22)
(0.280067 -0.0562629 9.6732e-22)
(0.373631 -0.072176 -8.6247e-22)
(0.463092 -0.0921443 -4.79374e-22)
(0.584971 -0.0894659 3.08956e-22)
(-0.00874483 0.0158803 0)
(0.00275151 0.0166123 -1.26507e-21)
(0.0370594 0.00770213 -1.50266e-22)
(0.0889995 -0.00782245 1.05017e-23)
(0.156623 -0.0250413 7.65483e-22)
(0.237561 -0.0425833 -1.07632e-21)
(0.328803 -0.0600536 9.81562e-22)
(0.43124 -0.0745425 -1.00145e-22)
(0.528377 -0.0942791 0)
(0.655797 -0.0870915 0)
(-0.0079073 0.0141788 1.15078e-22)
(0.00843527 0.0126287 -1.49113e-21)
(0.0502745 0.00278649 0)
(0.111047 -0.0131296 -1.07553e-22)
(0.188405 -0.0300794 9.91941e-23)
(0.279289 -0.0468405 0)
(0.38018 -0.0630976 -9.8888e-22)
(0.49092 -0.0756959 -7.77861e-22)
(0.595224 -0.0946192 1.43156e-22)
(0.725768 -0.0826931 -1.20677e-22)
(-0.00663868 0.0121216 -1.14985e-22)
(0.0152409 0.00803118 1.58766e-21)
(0.0651916 -0.00268165 0)
(0.135279 -0.0187566 -1.09071e-21)
(0.222696 -0.0350748 1.0025e-22)
(0.323609 -0.050624 -1.25777e-21)
(0.43393 -0.0651711 -1.20689e-22)
(0.552171 -0.0754736 8.79341e-22)
(0.662924 -0.0929094 0)
(0.793784 -0.0763193 8.57707e-22)
(-0.00488829 0.00974914 -1.83181e-21)
(0.0232735 0.00291633 -9.84672e-23)
(0.0819247 -0.00855953 -1.51236e-22)
(0.161777 -0.0245201 1.26557e-22)
(0.259497 -0.0398127 -1.59137e-21)
(0.370387 -0.0537051 1.25776e-21)
(0.489722 -0.0660473 1.00863e-21)
(0.614448 -0.0737388 7.87389e-22)
(0.730702 -0.0889191 1.26527e-21)
(0.858737 -0.0680917 -7.38293e-22)
(-0.00260763 0.00710728 1.9491e-21)
(0.0326314 -0.00260409 0)
(0.100575 -0.0146832 1.4167e-21)
(0.190601 -0.0302135 -1.28249e-22)
(0.298773 -0.0440591 3.19863e-21)
(0.419435 -0.0558461 0)
(0.547157 -0.0655127 -1.00862e-21)
(0.677166 -0.0703928 4.61532e-24)
(0.797726 -0.0824234 -1.40884e-21)
(0.919468 -0.0581207 1.21041e-22)
(0.000249209 0.00424635 0)
(0.0434037 -0.00840484 1.59285e-21)
(0.121225 -0.0208701 -1.26343e-21)
(0.221779 -0.0356117 0)
(0.340438 -0.0475677 -1.60727e-21)
(0.470504 -0.0568103 0)
(0.605766 -0.0633861 1.02007e-21)
(0.739737 -0.0653822 -7.91993e-22)
(0.863179 -0.0731971 -1.25518e-21)
(0.975041 -0.0468267 -8.73568e-22)
(0.00372509 0.00122085 -2.49035e-22)
(0.0556678 -0.0143488 -1.38377e-21)
(0.143937 -0.0269227 0)
(0.255302 -0.0404764 0)
(0.384353 -0.0500886 0)
(0.523272 -0.0563731 -1.57268e-22)
(0.665006 -0.0595348 -1.02861e-21)
(0.801566 -0.0586821 -1.03873e-22)
(0.926322 -0.0612326 1.25518e-21)
(1.02591 -0.036676 9.92742e-22)
(0.00785919 -0.00191096 0)
(0.0694865 -0.0202887 -1.64693e-21)
(0.168742 -0.0326322 0)
(0.291118 -0.0445622 0)
(0.430319 -0.051377 0)
(0.577349 -0.0543328 1.58265e-22)
(0.724267 -0.0538756 -1.28655e-21)
(0.861968 -0.0502723 8.87578e-23)
(0.986158 -0.0473391 9.30506e-22)
(1.07592 -0.0319261 9.61097e-22)
(0.0126863 -0.00508725 0)
(0.0849059 -0.0260691 1.64692e-21)
(0.195642 -0.0377819 -1.34086e-21)
(0.329125 -0.0476237 0)
(0.478073 -0.0512015 -1.67235e-21)
(0.632278 -0.050518 0)
(0.782904 -0.0463615 1.02956e-21)
(0.92014 -0.0401736 -8.04019e-22)
(1.04075 -0.0332412 -1.24145e-21)
(1.12458 -0.0280537 -9.53912e-22)
(0.0182362 -0.0082429 2.22574e-21)
(0.101952 -0.031528 0)
(0.224602 -0.0421527 1.17682e-21)
(0.369168 -0.0494222 1.37269e-22)
(0.527291 -0.049354 3.36059e-21)
(0.68755 -0.044797 0)
(0.840272 -0.036982 -1.03573e-21)
(0.975361 -0.0284052 -1.60751e-21)
(1.08996 -0.0187192 -1.07531e-21)
(1.16736 -0.0187091 -1.49189e-23)
(0.0245322 -0.0113096 -2.36028e-21)
(0.12063 -0.0364992 1.12944e-22)
(0.255548 -0.0455265 1.66258e-22)
(0.41104 -0.049733 -1.39126e-22)
(0.577594 -0.0456571 -1.68824e-21)
(0.742622 -0.0370857 1.33386e-21)
(0.895755 -0.0257724 1.03573e-21)
(1.02704 -0.0150592 8.03489e-22)
(1.13388 -0.00363806 1.22372e-21)
(1.20375 -0.0059709 -1.05682e-21)
(0.0315908 -0.0142162 1.37023e-22)
(0.140921 -0.0408144 1.6419e-21)
(0.288366 -0.0476917 0)
(0.454483 -0.0483521 -9.6144e-22)
(0.628555 -0.0399724 -1.10593e-22)
(0.796935 -0.0273528 -1.33386e-21)
(0.948782 -0.0128185 1.24572e-22)
(1.07471 -0.000316569 6.92514e-22)
(1.1726 0.0119354 0)
(1.2342 0.00850639 9.48684e-22)
(0.0394199 -0.0168889 -1.46269e-22)
(0.162779 -0.0443054 -1.75693e-21)
(0.322902 -0.0484477 0)
(0.499189 -0.0451026 1.21359e-22)
(0.679712 -0.0322048 -1.11676e-22)
(0.849935 -0.0156202 0)
(0.99885 0.00174766 -1.03503e-21)
(1.11805 0.0155935 -7.97267e-22)
(1.20624 0.0278876 -1.43525e-22)
(1.25915 0.0238466 -1.20998e-22)
(0.0480181 -0.0192519 0)
(0.186133 -0.0468068 -2.02924e-21)
(0.358961 -0.0476091 1.83526e-22)
(0.544808 -0.0398399 -1.1266e-23)
(0.73058 -0.0223061 -8.71109e-22)
(0.901089 -0.00196083 -1.50805e-21)
(1.04553 0.0177564 1.17061e-21)
(1.15685 0.0324246 0)
(1.23493 0.0440822 0)
(1.27907 0.039497 0)
(0.0573737 -0.0212279 7.50522e-24)
(0.210882 -0.048159 1.70833e-21)
(0.396308 -0.0450104 1.86018e-22)
(0.590957 -0.0324559 1.25228e-21)
(0.780665 -0.0102755 7.57517e-22)
(0.949904 0.013508 -1.61297e-22)
(1.08847 0.0350112 1.0381e-21)
(1.19102 0.0499313 -6.71385e-22)
(1.25891 0.0603712 -7.11838e-22)
(1.29447 0.0550905 5.53304e-22)
(0.0674634 -0.0227392 1.09604e-21)
(0.236898 -0.0482103 1.22829e-22)
(0.434675 -0.0405103 -1.47286e-21)
(0.637224 -0.0228818 -1.13607e-21)
(0.829482 0.00384191 0)
(0.995942 0.0306314 1.34669e-21)
(1.12744 0.0532993 -8.24334e-24)
(1.2206 0.0678811 8.65064e-22)
(1.27843 0.0766103 4.97228e-22)
(1.30585 0.0703913 -4.36666e-22)
(0.0782518 -0.0237086 -2.50236e-21)
(0.264027 -0.046821 0)
(0.473761 -0.0339947 2.96059e-21)
(0.683183 -0.0110899 9.98809e-22)
(0.876562 0.019958 1.14977e-22)
(1.03883 0.0492259 0)
(1.16227 0.0724015 -1.01709e-21)
(1.24569 0.086063 7.49877e-22)
(1.29383 0.0926697 5.49417e-22)
(1.3137 0.0852542 -4.11436e-22)
(0.0896905 -0.0240606 1.26001e-21)
(0.292085 -0.0438654 9.49541e-22)
(0.513239 -0.0253799 -1.66726e-21)
(0.728402 0.00290649 1.50233e-22)
(0.921473 0.0379469 0)
(1.07827 0.0690878 0)
(1.19289 0.0921014 0)
(1.26646 0.104291 -1.48451e-21)
(1.30544 0.10844 -5.4942e-22)
(1.31848 0.0995959 4.11422e-22)
(0.101718 -0.0237231 1.13757e-21)
(0.320864 -0.0392356 -9.38249e-22)
(0.552763 -0.0146152 9.7103e-23)
(0.772454 0.0190538 0)
(0.963823 0.0576503 8.7825e-22)
(1.11402 0.0900018 5.80486e-22)
(1.2193 0.112191 6.57858e-23)
(1.28313 0.122404 -6.76805e-23)
(1.31361 0.123832 1.33683e-22)
(1.32059 0.113374 -5.23989e-23)
(0.11426 -0.0226289 -1.28934e-21)
(0.350135 -0.032844 1.16937e-22)
(0.591972 -0.0016843 7.5219e-22)
(0.814923 0.0372605 -2.13795e-22)
(1.00327 0.0788839 -6.5878e-22)
(1.14594 0.111748 -8.2326e-22)
(1.24157 0.132477 6.48739e-23)
(1.29598 0.140269 3.68338e-22)
(1.31869 0.13878 0)
(1.32039 0.126574 -4.25321e-23)
(0.127229 -0.0207171 -8.15715e-23)
(0.379648 -0.0246262 0)
(0.630501 0.013394 2.10549e-24)
(0.855421 0.0574006 0)
(1.03953 0.101444 8.66674e-22)
(1.17392 0.134106 -6.40676e-22)
(1.25983 0.152782 0)
(1.30526 0.157774 1.06732e-23)
(1.32099 0.153232 0)
(1.31821 0.139195 0)
(0.140525 -0.0179349 -1.59403e-22)
(0.409137 -0.014543 1.03673e-21)
(0.667982 0.0305656 -8.52217e-22)
(0.893587 0.0793169 1.44328e-22)
(1.07236 0.125112 -3.93865e-22)
(1.19795 0.156864 -7.29977e-23)
(1.27423 0.172947 0)
(1.31127 0.174827 2.61171e-22)
(1.32085 0.167154 6.50093e-23)
(1.31431 0.151246 1.66875e-22)
(0.154037 -0.0142397 -6.57175e-22)
(0.438326 -0.00258266 -4.2686e-22)
(0.704057 0.0497422 -1.39827e-22)
(0.929097 0.102825 5.76761e-22)
(1.1016 0.149662 5.0335e-23)
(1.21804 0.179818 6.28463e-22)
(1.28496 0.192828 0)
(1.31429 0.191356 -3.13925e-22)
(1.31852 0.180519 5.27429e-23)
(1.30894 0.162737 -3.69118e-22)
(0.167644 -0.0095997 -6.57175e-22)
(0.46693 0.0112379 4.27125e-22)
(0.738383 0.0708026 -4.19563e-24)
(0.961666 0.12772 -6.73171e-22)
(1.12712 0.174864 -3.6608e-22)
(1.23426 0.202775 -3.52361e-23)
(1.29225 0.212301 2.95914e-23)
(1.31459 0.207299 3.49366e-22)
(1.31427 0.193309 -4.84018e-24)
(1.30228 0.17368 1.19378e-22)
(0.181217 -0.00399632 -3.2607e-22)
(0.494662 0.0268724 0)
(0.770633 0.0935948 -3.7428e-22)
(0.991055 0.153777 0)
(1.14885 0.200488 -4.61893e-22)
(1.24672 0.225554 4.0043e-23)
(1.2963 0.231255 0)
(1.31242 0.222609 0)
(1.30832 0.20551 0)
(1.2945 0.184081 0)
(0.194618 0.00257525 2.86605e-22)
(0.521238 0.0442447 1.35435e-22)
(0.800509 0.117939 3.7428e-22)
(1.01707 0.18076 0)
(1.16676 0.226309 0)
(1.25554 0.247989 -1.63822e-23)
(1.29734 0.249595 6.23985e-23)
(1.30802 0.237243 6.73708e-23)
(1.30087 0.217111 5.74781e-23)
(1.28573 0.193945 -9.27726e-24)
(0.207708 0.0101048 -5.0204e-24)
(0.54638 0.0632495 -1.26502e-22)
(0.82774 0.143631 5.98044e-24)
(1.03955 0.20842 7.8439e-24)
(1.18087 0.252105 -1.21657e-23)
(1.26089 0.269926 4.69253e-24)
(1.29559 0.267233 -5.40616e-23)
(1.30162 0.251166 -6.28131e-23)
(1.29207 0.228098 -4.39162e-23)
(1.27609 0.20327 1.30875e-24)
(0.220343 0.0185667 0)
(0.569823 0.0837533 -1.22821e-22)
(0.852088 0.170446 -4.66705e-24)
(1.05839 0.236508 8.82563e-24)
(1.19124 0.277665 1.68965e-37)
(1.26293 0.291222 -1.18387e-37)
(1.29127 0.284093 -4.84313e-23)
(1.29339 0.264347 -5.4412e-23)
(1.2821 0.238458 -3.96247e-23)
(1.26568 0.212051 0)
(0.232379 0.0279189 3.4409e-22)
(0.591318 0.105596 1.00428e-22)
(0.87335 0.198138 3.66385e-22)
(1.07354 0.264768 -1.71683e-23)
(1.19795 0.302785 0)
(1.26185 0.311748 1.40311e-23)
(1.28458 0.300109 3.15549e-23)
(1.28354 0.276754 5.86956e-23)
(1.27106 0.248175 3.11341e-23)
(1.25457 0.220279 7.15344e-24)
(0.243677 0.0381037 -3.06402e-22)
(0.610637 0.128592 0)
(0.891363 0.226453 -3.4587e-22)
(1.08495 0.292947 0)
(1.2011 0.327272 -3.8807e-23)
(1.25783 0.331383 3.25481e-23)
(1.27572 0.315217 0)
(1.27221 0.28836 0)
(1.25906 0.257229 0)
(1.24285 0.227938 0)
(0.2541 0.0490473 5.76403e-22)
(0.627573 0.152536 -3.74915e-22)
(0.905998 0.255121 -8.15062e-23)
(1.09264 0.320795 -3.68678e-22)
(1.20083 0.350943 -3.56149e-22)
(1.25106 0.350017 2.42818e-23)
(1.26488 0.329361 -2.03921e-23)
(1.25955 0.299135 1.54779e-22)
(1.24621 0.265598 4.20345e-24)
(1.23054 0.235006 8.8734e-23)
(0.263519 0.0606609 -5.76403e-22)
(0.64195 0.177202 -4.43795e-22)
(0.917167 0.283869 1.14468e-22)
(1.09666 0.348068 4.43514e-22)
(1.19729 0.373625 -2.06583e-23)
(1.24173 0.367549 3.79895e-22)
(1.25223 0.342488 0)
(1.2457 0.309051 -1.75519e-22)
(1.23261 0.273267 -2.25822e-23)
(1.21767 0.24145 -1.06169e-22)
(0.271816 0.0728414 1.31682e-22)
(0.653618 0.202347 7.66981e-22)
(0.924819 0.31242 -5.12838e-22)
(1.09707 0.37453 -1.04652e-22)
(1.19064 0.395157 -2.66335e-22)
(1.23004 0.383886 5.50785e-23)
(1.23794 0.354548 -3.36202e-23)
(1.23077 0.318073 1.62769e-22)
(1.21836 0.280233 -2.62686e-23)
(1.20429 0.247258 5.60652e-23)
(0.278883 0.0854726 6.42914e-23)
(0.66246 0.227717 0)
(0.928941 0.340496 3.62222e-23)
(1.094 0.399952 0)
(1.18106 0.41539 5.33371e-22)
(1.21617 0.398944 -3.42744e-22)
(1.22217 0.365494 0)
(1.21486 0.326153 -2.31212e-23)
(1.2035 0.286464 0)
(1.19051 0.252397 0)
(0.284625 0.0984266 -9.34668e-22)
(0.66839 0.253049 -8.4641e-23)
(0.929553 0.367824 6.16233e-22)
(1.08755 0.424119 7.91787e-23)
(1.16873 0.434184 -5.4799e-22)
(1.2003 0.412642 -1.89933e-22)
(1.20505 0.375287 -2.57112e-23)
(1.1981 0.333274 8.1044e-23)
(1.18804 0.291904 -1.69845e-23)
(1.17641 0.256864 4.67393e-24)
(0.288966 0.111566 1.04132e-21)
(0.671356 0.278074 -6.55374e-22)
(0.926713 0.394135 -1.7507e-22)
(1.07789 0.446826 9.15561e-23)
(1.15385 0.45141 4.31459e-22)
(1.18261 0.424909 2.88269e-22)
(1.18674 0.383878 -2.15066e-23)
(1.18059 0.339416 -3.44726e-23)
(1.17205 0.296534 -1.78708e-23)
(1.16198 0.260618 4.82288e-24)
(0.291842 0.124745 7.89581e-22)
(0.671341 0.30252 6.44357e-22)
(0.920509 0.419171 -7.35044e-22)
(1.06519 0.467881 -8.24148e-23)
(1.13662 0.466954 0)
(1.16329 0.435679 0)
(1.16737 0.391226 0)
(1.16241 0.344547 -1.90795e-22)
(1.15561 0.300329 -1.27243e-23)
(1.14725 0.263627 -2.62045e-23)
(0.293209 0.137812 -1.49812e-21)
(0.668357 0.326117 0)
(0.911062 0.442683 1.56885e-21)
(1.04962 0.487106 4.56473e-22)
(1.11723 0.480706 0)
(1.14251 0.444892 0)
(1.14706 0.397293 -1.06609e-22)
(1.14363 0.348636 7.03638e-23)
(1.13877 0.303265 1.27244e-23)
(1.13228 0.265863 2.62035e-23)
(0.293041 0.150613 7.87649e-22)
(0.662453 0.348598 -6.64117e-23)
(0.898523 0.464439 -7.35327e-22)
(1.0314 0.504336 -5.0002e-22)
(1.09589 0.49257 3.64768e-23)
(1.12044 0.452495 1.66693e-22)
(1.12595 0.402046 6.99186e-23)
(1.12434 0.351655 -2.90883e-23)
(1.12159 0.305316 -6.75884e-23)
(1.11709 0.267295 8.44487e-23)
(0.291332 0.162992 -3.55687e-24)
(0.653714 0.369708 8.40359e-22)
(0.883062 0.484219 -8.20687e-23)
(1.01072 0.519423 2.57688e-22)
(1.07281 0.502461 1.29795e-22)
(1.09724 0.458439 -6.25955e-23)
(1.10415 0.405453 2.596e-23)
(1.10463 0.353581 3.60687e-23)
(1.10412 0.30646 -8.9575e-23)
(1.10173 0.267895 -6.33909e-23)
(0.2881 0.174793 0)
(0.642259 0.389205 -7.18684e-22)
(0.864839 0.501806 -6.78885e-23)
(0.98783 0.532241 -8.68507e-23)
(1.0482 0.510301 -1.31701e-22)
(1.07309 0.462683 -7.43549e-23)
(1.08178 0.407488 -1.16042e-22)
(1.08457 0.354391 0)
(1.08641 0.306676 0)
(1.08623 0.267634 0)
(0.283372 0.185859 4.82379e-23)
(0.628223 0.406866 -5.12677e-22)
(0.844061 0.51701 0)
(0.962972 0.542668 -1.02168e-22)
(1.02227 0.516034 1.08043e-23)
(1.04815 0.465193 0)
(1.05897 0.408126 1.06458e-22)
(1.06425 0.354066 1.9193e-22)
(1.06849 0.305947 -4.37192e-23)
(1.07064 0.266483 3.68094e-23)
(0.277178 0.196024 -3.4115e-23)
(0.61177 0.422477 5.41319e-22)
(0.820991 0.529681 0)
(0.93638 0.550599 -1.17366e-22)
(0.995229 0.519606 1.8194e-24)
(1.02258 0.465941 2.25182e-22)
(1.03583 0.40735 2.95794e-23)
(1.04377 0.352594 -2.16805e-22)
(1.05043 0.304262 0)
(1.05498 0.264409 -4.03047e-22)
(0.269603 0.205143 -2.27048e-22)
(0.593079 0.435821 -1.82342e-23)
(0.795877 0.53968 -5.53519e-24)
(0.908295 0.55595 4.6321e-24)
(0.967277 0.520978 2.75454e-22)
(0.996528 0.464905 -2.25184e-22)
(1.01248 0.405144 -3.2538e-22)
(1.02319 0.349966 -2.99091e-22)
(1.03228 0.301609 -5.26776e-22)
(1.03929 0.261378 3.52014e-22)
(0.260752 0.213104 2.48768e-22)
(0.572346 0.446715 0)
(0.768975 0.546875 -9.11157e-23)
(0.878966 0.558654 7.80476e-24)
(0.938626 0.520119 -6.88886e-22)
(0.970164 0.462071 0)
(0.989045 0.401499 3.25382e-22)
(1.00261 0.346176 -5.33401e-23)
(1.01407 0.297978 5.98393e-22)
(1.02362 0.257345 -6.02869e-23)
(0.250717 0.21978 0)
(0.549808 0.455012 -1.21063e-22)
(0.740552 0.551161 8.17897e-23)
(0.848645 0.558662 0)
(0.909477 0.51701 4.13433e-22)
(0.943638 0.457432 0)
(0.965631 0.396413 -4.70731e-22)
(0.982125 0.341227 3.52435e-22)
(0.995878 0.293359 6.85084e-22)
(1.00811 0.252262 5.66778e-22)
(0.239611 0.22506 3.43565e-23)
(0.525713 0.460583 9.22195e-23)
(0.710885 0.552459 0)
(0.817585 0.555941 0)
(0.880035 0.511645 0)
(0.917104 0.45099 7.35773e-23)
(0.942359 0.389889 3.45206e-22)
(0.961813 0.335129 5.35974e-23)
(0.977857 0.287785 -6.85088e-22)
(0.992899 0.246253 -6.37762e-22)
(0.227562 0.228844 0)
(0.500321 0.46332 4.52768e-22)
(0.680255 0.550711 0)
(0.786038 0.550475 0)
(0.850497 0.504028 0)
(0.89071 0.442752 -8.50755e-23)
(0.919339 0.381934 7.56356e-22)
(0.941791 0.327886 -1.80411e-22)
(0.960297 0.281347 -6.3742e-22)
(0.977994 0.239374 -6.64784e-22)
(0.214712 0.231053 0)
(0.4739 0.46314 -4.52769e-22)
(0.648946 0.545883 5.93972e-22)
(0.754252 0.542267 0)
(0.821059 0.494176 9.58634e-22)
(0.864602 0.432735 0)
(0.896681 0.372557 -6.12842e-22)
(0.92218 0.319472 5.5912e-22)
(0.943354 0.274018 8.35835e-22)
(0.963718 0.233154 6.66402e-22)
(0.201211 0.23162 -1.09156e-21)
(0.446726 0.459988 0)
(0.617245 0.537963 -5.09449e-22)
(0.722476 0.531335 -7.07352e-23)
(0.791911 0.482114 -2.04853e-21)
(0.838924 0.420964 0)
(0.87449 0.361777 7.49288e-22)
(0.90304 0.309903 4.87157e-23)
(0.926849 0.265679 8.64854e-22)
(0.949377 0.226317 7.99674e-25)
(0.187219 0.230496 1.16169e-21)
(0.419081 0.453836 -5.88738e-23)
(0.585436 0.526964 -9.91461e-23)
(0.690949 0.517713 -8.29706e-23)
(0.76324 0.467883 1.0899e-21)
(0.813813 0.407471 -1.00335e-21)
(0.852871 0.34962 -7.49292e-22)
(0.884448 0.299208 -6.07842e-22)
(0.910847 0.256378 -9.79518e-22)
(0.935349 0.218625 9.25711e-22)
(0.1729 0.227652 -8.3004e-23)
(0.391247 0.444679 -1.0354e-21)
(0.5538 0.51292 0)
(0.659909 0.501455 7.09024e-22)
(0.735225 0.451534 7.9903e-23)
(0.789405 0.392297 1.00335e-21)
(0.831928 0.336114 -1.03464e-22)
(0.866486 0.287411 -6.13328e-22)
(0.895422 0.246156 0)
(0.921791 0.210094 -8.24211e-22)
(0.158421 0.223073 1.02185e-22)
(0.363509 0.432542 1.10509e-21)
(0.522614 0.495888 0)
(0.629584 0.482626 -2.16887e-23)
(0.708041 0.433127 8.82078e-23)
(0.76583 0.375493 0)
(0.811762 0.321299 9.38143e-22)
(0.849235 0.274539 7.00335e-22)
(0.880635 0.235037 1.38453e-22)
(0.908789 0.200763 -1.16613e-22)
(0.143952 0.216764 0)
(0.336144 0.417476 1.57723e-21)
(0.492145 0.475946 -1.40887e-22)
(0.600194 0.461311 8.01225e-23)
(0.681855 0.412736 7.87493e-22)
(0.743215 0.357116 1.40527e-21)
(0.79247 0.305218 -1.06273e-21)
(0.832768 0.260625 0)
(0.866545 0.223047 0)
(0.896414 0.190654 0)
(0.129663 0.20875 -8.08978e-24)
(0.309426 0.399554 -1.32317e-21)
(0.462655 0.453194 1.5543e-22)
(0.571951 0.437607 -1.09205e-21)
(0.656825 0.390443 -6.837e-22)
(0.721677 0.337232 2.34e-22)
(0.774143 0.287922 -1.05844e-21)
(0.817158 0.24571 7.19722e-22)
(0.853209 0.210219 7.98291e-22)
(0.884722 0.179795 -6.32024e-22)
(0.115721 0.199072 -1.02874e-21)
(0.283621 0.378879 -1.09609e-22)
(0.434391 0.427752 1.40143e-21)
(0.545055 0.411629 1.11615e-21)
(0.633104 0.366344 0)
(0.701332 0.315915 -1.33346e-21)
(0.756868 0.26947 -5.11257e-23)
(0.802471 0.229841 -9.25881e-22)
(0.84068 0.196591 -5.59994e-22)
(0.873762 0.168222 5.03534e-22)
(0.102288 0.187789 2.40479e-21)
(0.258982 0.355574 0)
(0.407591 0.399758 -2.89745e-21)
(0.519696 0.383503 -9.75603e-22)
(0.610833 0.340542 -1.17744e-22)
(0.682285 0.293249 0)
(0.740727 0.249928 1.10137e-21)
(0.788773 0.213072 -8.94536e-22)
(0.829007 0.182205 -6.96484e-22)
(0.863576 0.155975 5.41283e-22)
(0.0895197 0.174977 -1.2455e-21)
(0.235751 0.329785 -9.65358e-22)
(0.382475 0.369369 1.68347e-21)
(0.496051 0.353368 -1.56868e-22)
(0.590145 0.313151 0)
(0.664637 0.269321 0)
(0.725798 0.229366 0)
(0.77612 0.19546 1.82026e-21)
(0.818239 0.167111 6.96486e-22)
(0.854201 0.1431 -5.41283e-22)
(0.0775657 0.160728 -1.23867e-21)
(0.214153 0.301681 9.54054e-22)
(0.359252 0.33676 1.02789e-22)
(0.474284 0.321378 0)
(0.571163 0.284292 -1.02334e-21)
(0.64848 0.24423 -7.0069e-22)
(0.71215 0.207862 -7.91218e-23)
(0.76457 0.17707 1.41496e-22)
(0.808417 0.151362 -1.83107e-22)
(0.845669 0.129646 7.39395e-23)
(0.0665641 0.145149 1.39854e-21)
(0.1944 0.27145 -1.2896e-22)
(0.338111 0.30212 -1.07829e-21)
(0.454545 0.287696 2.47238e-22)
(0.553998 0.254098 7.62777e-22)
(0.633898 0.218078 9.97571e-22)
(0.699849 0.1855 -8.17033e-23)
(0.754171 0.157969 -4.64373e-22)
(0.799582 0.135014 0)
(0.838009 0.115666 7.03027e-23)
(0.0566423 0.128362 9.34556e-23)
(0.17668 0.239298 0)
(0.319224 0.265653 -3.1515e-23)
(0.436969 0.252495 0)
(0.538753 0.222705 -1.09018e-21)
(0.620968 0.190976 8.41901e-22)
(0.688954 0.162368 0)
(0.74497 0.138232 1.10729e-23)
(0.791769 0.118129 0)
(0.831248 0.101215 0)
(0.0479151 0.110502 1.87672e-22)
(0.161164 0.205446 -1.22275e-21)
(0.302744 0.227576 1.00925e-21)
(0.421677 0.215959 -1.77936e-22)
(0.525516 0.190261 4.7064e-22)
(0.609757 0.163039 1.302e-22)
(0.679517 0.138559 0)
(0.737006 0.117934 -3.79241e-22)
(0.785011 0.100772 -1.02288e-22)
(0.825409 0.0863527 -3.0405e-22)
(0.0404831 0.0917126 8.06615e-22)
(0.148002 0.170132 -1.80633e-21)
(0.288804 0.188118 1.72901e-22)
(0.408773 0.178278 -7.39879e-22)
(0.514365 0.156915 -8.44778e-23)
(0.600323 0.134386 -8.60677e-22)
(0.671582 0.11417 0)
(0.730315 0.0971561 5.1798e-22)
(0.779336 0.0830106 -9.52687e-23)
(0.820512 0.071138 6.92456e-22)
(0.0344321 0.0721499 -8.06615e-22)
(0.137318 0.133603 6.6145e-22)
(0.277516 0.147515 -1.18832e-22)
(0.398343 0.139653 8.70481e-22)
(0.505366 0.122826 4.94687e-22)
(0.592716 0.105142 5.2979e-23)
(0.665188 0.0893017 -4.44922e-23)
(0.724926 0.0759818 -5.80539e-22)
(0.774766 0.0649146 4.45097e-24)
(0.816573 0.055633 -2.30246e-22)
(0.0298319 0.051977 4.17215e-22)
(0.129215 0.0961199 0)
(0.268969 0.106015 4.89227e-22)
(0.390458 0.100286 0)
(0.498569 0.0881523 6.98307e-23)
(0.586976 0.075435 -5.85688e-23)
(0.660366 0.0640573 0)
(0.720863 0.0544965 0)
(0.771322 0.0465562 0)
(0.813607 0.039901 0)
(0.0267353 0.0313637 -3.66386e-22)
(0.12377 0.0579487 -1.32823e-22)
(0.263234 0.0638687 -4.89227e-22)
(0.385172 0.0603854 0)
(0.494016 0.0530597 0)
(0.583133 0.0453947 2.69934e-23)
(0.657138 0.0385429 -1.0919e-22)
(0.718145 0.0327876 -1.32775e-22)
(0.769018 0.0280094 -1.26626e-22)
(0.811624 0.024006 2.06184e-23)
(0.0251781 0.0104842 -6.5921e-24)
(0.121034 0.0193625 1.44043e-22)
(0.260355 0.0213329 -6.97126e-24)
(0.38252 0.0201642 2.39078e-23)
(0.491733 0.0177147 -9.60708e-24)
(0.581206 0.0151539 0)
(0.65552 0.0128658 8.65206e-23)
(0.716783 0.0109442 1.32776e-22)
(0.767864 0.00934911 9.60067e-23)
(0.810631 0.00801291 1.46469e-23)
(0.0251781 -0.0104842 -6.5921e-24)
(0.121034 -0.0193625 1.44043e-22)
(0.260355 -0.0213329 -6.97126e-24)
(0.38252 -0.0201642 2.39078e-23)
(0.491733 -0.0177147 -9.60708e-24)
(0.581206 -0.0151539 0)
(0.65552 -0.0128658 7.61347e-23)
(0.716783 -0.0109442 1.41509e-22)
(0.767864 -0.00934911 1.02146e-22)
(0.810631 -0.00801291 0)
(0.0267353 -0.0313637 -4.68043e-22)
(0.12377 -0.0579487 -1.7414e-22)
(0.263234 -0.0638687 -5.1881e-22)
(0.385172 -0.0603854 2.47567e-23)
(0.494016 -0.0530597 0)
(0.583133 -0.0453947 -2.69934e-23)
(0.657138 -0.0385429 -6.38513e-23)
(0.718145 -0.0327876 -1.32775e-22)
(0.769018 -0.0280094 -7.76646e-23)
(0.811624 -0.024006 -2.06184e-23)
(0.0298319 -0.051977 4.17215e-22)
(0.129215 -0.0961199 0)
(0.268969 -0.106015 4.89227e-22)
(0.390458 -0.100286 0)
(0.498569 -0.0881523 6.98307e-23)
(0.586976 -0.075435 -5.85688e-23)
(0.660366 -0.0640573 0)
(0.720863 -0.0544965 0)
(0.771322 -0.0465562 0)
(0.813607 -0.039901 0)
(0.0344321 -0.0721499 -8.06615e-22)
(0.137318 -0.133603 5.15277e-22)
(0.277516 -0.147515 1.18832e-22)
(0.398343 -0.139653 5.95304e-22)
(0.505366 -0.122826 6.44291e-22)
(0.592716 -0.105142 -5.2979e-23)
(0.665188 -0.0893017 4.44922e-23)
(0.724926 -0.0759818 -4.55424e-22)
(0.774766 -0.0649146 -4.45097e-24)
(0.816573 -0.055633 -3.8609e-22)
(0.0404831 -0.0917126 8.06615e-22)
(0.148002 -0.170132 6.29608e-22)
(0.288804 -0.188118 -1.72901e-22)
(0.408773 -0.178278 -7.25903e-22)
(0.514365 -0.156915 6.24125e-23)
(0.600323 -0.134386 -8.60677e-22)
(0.671582 -0.11417 0)
(0.730315 -0.0971561 5.1798e-22)
(0.779336 -0.0830106 9.52687e-23)
(0.820512 -0.071138 5.3198e-22)
(0.0479151 -0.110502 -1.87672e-22)
(0.161164 -0.205446 1.22275e-21)
(0.302744 -0.227576 7.88733e-22)
(0.421677 -0.215959 1.77936e-22)
(0.525516 -0.190261 5.92819e-22)
(0.609757 -0.163039 -1.95026e-22)
(0.679517 -0.138559 8.59731e-23)
(0.737006 -0.117934 -6.22206e-22)
(0.785011 -0.100772 1.02288e-22)
(0.825409 -0.0863527 -3.0405e-22)
(0.0566423 -0.128362 -9.34556e-23)
(0.17668 -0.239298 0)
(0.319224 -0.265653 -3.1515e-23)
(0.436969 -0.252495 0)
(0.538753 -0.222705 -1.09018e-21)
(0.620968 -0.190976 8.41901e-22)
(0.688954 -0.162368 0)
(0.74497 -0.138232 1.10729e-23)
(0.791769 -0.118129 0)
(0.831248 -0.101215 0)
(0.0665641 -0.145149 1.39854e-21)
(0.1944 -0.27145 1.2896e-22)
(0.338111 -0.30212 -7.59626e-22)
(0.454545 -0.287696 -1.61069e-22)
(0.553998 -0.254098 1.28391e-21)
(0.633898 -0.218078 5.92242e-22)
(0.699849 -0.1855 8.17033e-23)
(0.754171 -0.157969 -5.80698e-22)
(0.799582 -0.135014 9.79458e-23)
(0.838009 -0.115666 -7.03027e-23)
(0.0775657 -0.160728 -1.5584e-21)
(0.214153 -0.301681 9.76665e-22)
(0.359252 -0.33676 9.43647e-23)
(0.474284 -0.321378 -1.64989e-22)
(0.571163 -0.284292 -1.02334e-21)
(0.64848 -0.24423 -8.89118e-22)
(0.71215 -0.207862 7.91218e-23)
(0.76457 -0.17707 -8.49105e-23)
(0.808417 -0.151362 1.83107e-22)
(0.845669 -0.129646 -7.39395e-23)
(0.0895197 -0.174977 -1.2455e-21)
(0.235751 -0.329785 -9.65358e-22)
(0.382475 -0.369369 1.30857e-21)
(0.496051 -0.353368 1.56868e-22)
(0.590145 -0.313151 0)
(0.664637 -0.269321 0)
(0.725798 -0.229366 0)
(0.77612 -0.19546 1.82026e-21)
(0.818239 -0.167111 6.96486e-22)
(0.854201 -0.1431 -5.41283e-22)
(0.102288 -0.187789 2.40479e-21)
(0.258982 -0.355574 0)
(0.407591 -0.399758 -2.89745e-21)
(0.519696 -0.383503 -1.11616e-21)
(0.610833 -0.340542 0)
(0.682285 -0.293249 0)
(0.740727 -0.249928 1.10137e-21)
(0.788773 -0.213072 -8.94536e-22)
(0.829007 -0.182205 -6.96484e-22)
(0.863576 -0.155975 5.41283e-22)
(0.115721 -0.199072 -1.28985e-21)
(0.283621 -0.378879 1.09609e-22)
(0.434391 -0.427752 1.40143e-21)
(0.545055 -0.411629 1.24865e-21)
(0.633104 -0.366344 -1.10995e-22)
(0.701332 -0.315915 -1.33346e-21)
(0.756868 -0.26947 -5.11257e-23)
(0.802471 -0.229841 -7.22215e-22)
(0.84068 -0.196591 -7.31481e-22)
(0.873762 -0.168222 5.03534e-22)
(0.129663 -0.20875 8.08978e-24)
(0.309426 -0.399554 -1.49436e-21)
(0.462655 -0.453194 -1.5543e-22)
(0.571951 -0.437607 -8.44243e-22)
(0.656825 -0.390443 -6.92481e-22)
(0.721677 -0.337232 -2.47712e-22)
(0.774143 -0.287922 -1.04204e-21)
(0.817158 -0.24571 9.28368e-22)
(0.853209 -0.210219 4.9318e-22)
(0.884722 -0.179795 -3.75045e-22)
(0.143952 -0.216764 0)
(0.336144 -0.417476 1.24029e-21)
(0.492145 -0.475946 1.40887e-22)
(0.600194 -0.461311 8.01225e-23)
(0.681855 -0.412736 7.87493e-22)
(0.743215 -0.357116 1.10859e-21)
(0.79247 -0.305218 -9.31104e-22)
(0.832768 -0.260625 9.88375e-23)
(0.866545 -0.223047 0)
(0.896414 -0.190654 0)