/*--------------------------------*- C++ -*----------------------------------*\
  =========                 |
  \\      /  F ield         | OpenFOAM: The Open Source CFD Toolbox
   \\    /   O peration     | Website:  https://openfoam.org
    \\  /    A nd           | Version:  9
     \\/     M anipulation  |
\*---------------------------------------------------------------------------*/
FoamFile
{
    format      ascii;
    class       volScalarField;
    location    "0.6";
    object      p;
}
// * * * * * * * * * * * * * * * * * * * * * * * * * * * * * * * * * * * * * //

dimensions      [0 2 -2 0 0 0 0];

internalField   nonuniform List<scalar> 
8500
(
-0.302564
-0.280043
-0.240414
-0.186489
-0.129241
-0.0772025
-0.0377479
-0.0121544
0.00101879
0.00763444
-0.304933
-0.282114
-0.242581
-0.188693
-0.131438
-0.0792579
-0.0395564
-0.0136523
-0.000210621
0.0067216
-0.309654
-0.286231
-0.246889
-0.193074
-0.135802
-0.0833366
-0.0431436
-0.0166234
-0.00264967
0.00491024
-0.316702
-0.292339
-0.253291
-0.199579
-0.142269
-0.089375
-0.0484507
-0.0210192
-0.00625942
0.00222872
-0.326012
-0.300371
-0.261717
-0.208128
-0.150751
-0.0972805
-0.0553917
-0.0267684
-0.0109829
-0.00128129
-0.337296
-0.310415
-0.272084
-0.21862
-0.161131
-0.106933
-0.0638556
-0.0337795
-0.0167463
-0.00556598
-0.350615
-0.322241
-0.284282
-0.230929
-0.173268
-0.118189
-0.0737095
-0.0419427
-0.0234607
-0.0105607
-0.365855
-0.335736
-0.298191
-0.244913
-0.187001
-0.130884
-0.0848022
-0.0511332
-0.0310243
-0.0161915
-0.382872
-0.350791
-0.313674
-0.260416
-0.202153
-0.144839
-0.0969675
-0.0612139
-0.0393237
-0.022376
-0.4015
-0.367279
-0.330586
-0.277265
-0.218534
-0.159861
-0.110029
-0.0720386
-0.0482368
-0.0290253
-0.421585
-0.385062
-0.348768
-0.295283
-0.235944
-0.175749
-0.123801
-0.0834553
-0.0576337
-0.0360448
-0.442958
-0.403996
-0.368058
-0.314282
-0.254178
-0.192299
-0.138098
-0.0953092
-0.0673788
-0.0433347
-0.465443
-0.423932
-0.388287
-0.334072
-0.273027
-0.209306
-0.152732
-0.107445
-0.0773313
-0.0507914
-0.488863
-0.444717
-0.409284
-0.354462
-0.292286
-0.226567
-0.167519
-0.119712
-0.087347
-0.058311
-0.513037
-0.466195
-0.430876
-0.375259
-0.311749
-0.243885
-0.182281
-0.131962
-0.0972808
-0.065799
-0.53778
-0.488208
-0.452889
-0.396275
-0.33122
-0.261072
-0.196849
-0.144058
-0.106986
-0.0731618
-0.562911
-0.510599
-0.475149
-0.417322
-0.350506
-0.277947
-0.211065
-0.155869
-0.116292
-0.080227
-0.588246
-0.533208
-0.497485
-0.438219
-0.369426
-0.294345
-0.224789
-0.16728
-0.124957
-0.0867255
-0.613602
-0.555877
-0.519723
-0.458788
-0.387807
-0.31011
-0.237901
-0.178188
-0.132742
-0.0929121
-0.638797
-0.578446
-0.541694
-0.478855
-0.405486
-0.325102
-0.2503
-0.188495
-0.139792
-0.100749
-0.663649
-0.600754
-0.56323
-0.498255
-0.422309
-0.339193
-0.261887
-0.198098
-0.146741
-0.112184
-0.687978
-0.622641
-0.584161
-0.516825
-0.438134
-0.352266
-0.272569
-0.206908
-0.153228
-0.120053
-0.711601
-0.643945
-0.604322
-0.534409
-0.452827
-0.364215
-0.282262
-0.214845
-0.159263
-0.12615
-0.734339
-0.664504
-0.623546
-0.550857
-0.466265
-0.374947
-0.290888
-0.221847
-0.164732
-0.131087
-0.756011
-0.684152
-0.641672
-0.566026
-0.478334
-0.384376
-0.29838
-0.227863
-0.169516
-0.135001
-0.776437
-0.702727
-0.658535
-0.579775
-0.488928
-0.39243
-0.304677
-0.232849
-0.173528
-0.13797
-0.795436
-0.720063
-0.673978
-0.591975
-0.497954
-0.399041
-0.309728
-0.236768
-0.176706
-0.140048
-0.812829
-0.735995
-0.687842
-0.6025
-0.505324
-0.404154
-0.313489
-0.239585
-0.178997
-0.141258
-0.82844
-0.750358
-0.699975
-0.611232
-0.51096
-0.407719
-0.315922
-0.241273
-0.180361
-0.141609
-0.842091
-0.762989
-0.710229
-0.618063
-0.514795
-0.409696
-0.316997
-0.24181
-0.180766
-0.1411
-0.853611
-0.773727
-0.71846
-0.62289
-0.516767
-0.410049
-0.31669
-0.241175
-0.180186
-0.139726
-0.862832
-0.782414
-0.724533
-0.625623
-0.516827
-0.408752
-0.314982
-0.239355
-0.178602
-0.137478
-0.86959
-0.788897
-0.728321
-0.626178
-0.514932
-0.405785
-0.31186
-0.236339
-0.176
-0.134351
-0.87373
-0.793031
-0.729705
-0.624485
-0.511049
-0.401132
-0.307316
-0.232121
-0.172371
-0.13034
-0.875105
-0.794677
-0.728578
-0.620483
-0.505152
-0.394787
-0.301347
-0.226699
-0.16771
-0.125443
-0.873577
-0.793706
-0.724847
-0.614123
-0.497227
-0.386748
-0.293956
-0.220075
-0.162019
-0.119662
-0.869022
-0.79
-0.718429
-0.605369
-0.487267
-0.377021
-0.285151
-0.212255
-0.155301
-0.113002
-0.861327
-0.783455
-0.709258
-0.594197
-0.475276
-0.365618
-0.274945
-0.203253
-0.147565
-0.105473
-0.850397
-0.77398
-0.697284
-0.580597
-0.461265
-0.352557
-0.263356
-0.193082
-0.138824
-0.0970897
-0.836151
-0.7615
-0.682472
-0.56457
-0.445256
-0.337864
-0.250407
-0.181762
-0.129098
-0.0878686
-0.81853
-0.74596
-0.664807
-0.546134
-0.427281
-0.32157
-0.236123
-0.169308
-0.118416
-0.0778229
-0.797491
-0.727321
-0.64429
-0.52532
-0.407381
-0.303713
-0.220531
-0.155731
-0.10682
-0.0669681
-0.773015
-0.705564
-0.620943
-0.50217
-0.385605
-0.284332
-0.203668
-0.14108
-0.0943421
-0.0553947
-0.745105
-0.680693
-0.594807
-0.476745
-0.362012
-0.263474
-0.185613
-0.12553
-0.0808788
-0.043099
-0.713785
-0.652733
-0.56594
-0.449121
-0.336671
-0.241221
-0.166426
-0.108989
-0.0665714
-0.0301109
-0.679104
-0.621735
-0.534416
-0.419392
-0.309655
-0.217674
-0.146109
-0.091521
-0.0514716
-0.0164702
-0.641137
-0.587776
-0.500343
-0.38765
-0.28106
-0.192864
-0.124756
-0.0731841
-0.0356254
-0.00222123
-0.59998
-0.550956
-0.463869
-0.35394
-0.250998
-0.166878
-0.102439
-0.0540392
-0.019084
0.0125877
-0.555761
-0.511413
-0.425096
-0.31839
-0.219576
-0.139811
-0.0792356
-0.0341526
-0.0019027
0.0279045
-0.508638
-0.469345
-0.383873
-0.281345
-0.186899
-0.11176
-0.0552285
-0.0135958
0.0158589
0.0436728
-0.458767
-0.424937
-0.340519
-0.242813
-0.153096
-0.0828294
-0.0305064
0.00755493
0.0341377
0.0598312
-0.406282
-0.378017
-0.295616
-0.202919
-0.118305
-0.0531303
-0.00516354
0.0292191
0.0528672
0.0763136
-0.351397
-0.329091
-0.249153
-0.161839
-0.0826665
-0.0227791
0.0207011
0.0513125
0.0719786
0.093047
-0.294569
-0.278246
-0.201291
-0.119758
-0.0463268
0.00810281
0.0469841
0.0737473
0.0914001
0.10995
-0.235952
-0.225756
-0.152257
-0.0768645
-0.00943729
0.0393894
0.0735784
0.0964326
0.111057
0.126931
-0.175772
-0.17191
-0.10228
-0.0333525
0.0278456
0.0709511
0.100373
0.119275
0.130874
0.143895
-0.114331
-0.116977
-0.0515974
0.0105788
0.0653613
0.102655
0.127256
0.142182
0.150798
0.160739
-0.0519454
-0.0612372
-0.000454006
0.0547257
0.102946
0.134366
0.154109
0.165074
0.170806
0.177287
0.0110624
-0.00498207
0.0508984
0.0988813
0.140434
0.165945
0.180818
0.187873
0.190811
0.193133
0.0743606
0.0514892
0.102203
0.142837
0.177658
0.197254
0.207266
0.210479
0.210455
0.207652
0.137609
0.107872
0.153201
0.186383
0.21445
0.228156
0.233347
0.232752
0.229221
0.220797
0.200462
0.163857
0.203631
0.229311
0.250644
0.258514
0.258947
0.254568
0.247848
0.235879
0.26257
0.219135
0.253233
0.271414
0.286072
0.288195
0.283954
0.275817
0.265967
0.251404
0.323584
0.273396
0.30175
0.312489
0.320573
0.317065
0.308259
0.296422
0.283472
0.266703
0.383157
0.326336
0.348928
0.352334
0.353987
0.344996
0.331754
0.316309
0.300341
0.281544
0.440947
0.377651
0.394518
0.390754
0.386159
0.371863
0.354337
0.335399
0.316526
0.295826
0.496617
0.427048
0.438281
0.427561
0.416937
0.397544
0.375908
0.353612
0.331967
0.309465
0.549843
0.474243
0.479985
0.462571
0.446178
0.421923
0.396372
0.370874
0.346602
0.322383
0.600309
0.518962
0.519406
0.495612
0.473743
0.444889
0.415639
0.387113
0.360374
0.334518
0.647717
0.560944
0.556336
0.526518
0.499502
0.466336
0.433622
0.40226
0.373223
0.345817
0.691782
0.599944
0.590575
0.555135
0.523332
0.486167
0.450241
0.416251
0.385096
0.356235
0.732242
0.635732
0.621941
0.58132
0.545119
0.504288
0.465422
0.429025
0.39594
0.36573
0.768851
0.668099
0.650264
0.604939
0.564759
0.520617
0.479097
0.440527
0.405707
0.374264
0.801388
0.696853
0.675392
0.625876
0.582158
0.535076
0.491202
0.450706
0.414353
0.381805
0.829655
0.721825
0.697188
0.644023
0.59723
0.547599
0.501683
0.459517
0.42184
0.388324
0.85348
0.742865
0.715535
0.659288
0.609905
0.558126
0.510492
0.46692
0.428133
0.393796
0.872718
0.759849
0.730334
0.671595
0.620119
0.566608
0.517588
0.472884
0.433202
0.398198
0.887251
0.772677
0.741504
0.68088
0.627823
0.573005
0.522939
0.47738
0.437025
0.401515
0.896989
0.781271
0.748984
0.687096
0.63298
0.577287
0.52652
0.480389
0.439584
0.403734
0.901873
0.785581
0.752735
0.690212
0.635565
0.579433
0.528315
0.481897
0.440866
0.404845
0.901873
0.785581
0.752735
0.690212
0.635565
0.579433
0.528315
0.481897
0.440866
0.404845
0.896989
0.781271
0.748984
0.687096
0.63298
0.577287
0.52652
0.480389
0.439584
0.403734
0.887251
0.772677
0.741504
0.68088
0.627823
0.573005
0.522939
0.47738
0.437025
0.401515
0.872718
0.759849
0.730334
0.671595
0.620119
0.566608
0.517588
0.472884
0.433202
0.398198
0.85348
0.742865
0.715535
0.659288
0.609905
0.558126
0.510492
0.46692
0.428133
0.393796
0.829655
0.721825
0.697188
0.644023
0.59723
0.547599
0.501683
0.459517
0.42184
0.388324
0.801388
0.696853
0.675392
0.625876
0.582158
0.535076
0.491202
0.450706
0.414353
0.381805
0.768851
0.668099
0.650264
0.604939
0.564759
0.520617
0.479097
0.440527
0.405707
0.374264
0.732242
0.635732
0.621941
0.58132
0.545119
0.504288
0.465422
0.429025
0.39594
0.36573
0.691782
0.599944
0.590575
0.555135
0.523332
0.486167
0.450241
0.416251
0.385096
0.356235
0.647717
0.560944
0.556336
0.526518
0.499502
0.466336
0.433622
0.40226
0.373223
0.345817
0.600309
0.518962
0.519406
0.495612
0.473743
0.444889
0.415639
0.387113
0.360374
0.334518
0.549843
0.474243
0.479985
0.462571
0.446178
0.421923
0.396372
0.370874
0.346602
0.322383
0.496617
0.427048
0.438281
0.427561
0.416937
0.397544
0.375908
0.353612
0.331967
0.309465
0.440947
0.377651
0.394518
0.390754
0.386159
0.371863
0.354337
0.335399
0.316526
0.295826
0.383157
0.326336
0.348928
0.352334
0.353987
0.344996
0.331754
0.316309
0.300341
0.281544
0.323584
0.273396
0.30175
0.312489
0.320573
0.317065
0.308259
0.296422
0.283472
0.266703
0.26257
0.219135
0.253233
0.271414
0.286072
0.288195
0.283954
0.275817
0.265967
0.251404
0.200462
0.163857
0.203631
0.229311
0.250644
0.258514
0.258947
0.254568
0.247848
0.235879
0.137609
0.107872
0.153201
0.186383
0.21445
0.228156
0.233347
0.232752
0.229221
0.220797
0.0743606
0.0514892
0.102203
0.142837
0.177658
0.197254
0.207266
0.210479
0.210455
0.207652
0.0110624
-0.00498207
0.0508984
0.0988813
0.140434
0.165945
0.180818
0.187873
0.190811
0.193133
-0.0519454
-0.0612372
-0.000454004
0.0547257
0.102946
0.134366
0.154109
0.165074
0.170806
0.177287
-0.114331
-0.116977
-0.0515974
0.0105788
0.0653613
0.102655
0.127256
0.142182
0.150798
0.160739
-0.175772
-0.17191
-0.10228
-0.0333525
0.0278456
0.0709511
0.100373
0.119275
0.130874
0.143895
-0.235952
-0.225756
-0.152257
-0.0768645
-0.00943729
0.0393894
0.0735784
0.0964326
0.111057
0.126931
-0.294569
-0.278246
-0.201291
-0.119758
-0.0463268
0.00810282
0.0469841
0.0737473
0.0914001
0.10995
-0.351397
-0.329091
-0.249153
-0.161839
-0.0826665
-0.0227791
0.0207011
0.0513125
0.0719786
0.093047
-0.406282
-0.378017
-0.295616
-0.202919
-0.118305
-0.0531303
-0.00516354
0.0292191
0.0528672
0.0763136
-0.458767
-0.424937
-0.340519
-0.242813
-0.153096
-0.0828294
-0.0305064
0.00755493
0.0341377
0.0598312
-0.508638
-0.469345
-0.383873
-0.281345
-0.186899
-0.11176
-0.0552285
-0.0135958
0.0158589
0.0436728
-0.555761
-0.511413
-0.425096
-0.31839
-0.219576
-0.139811
-0.0792356
-0.0341526
-0.00190269
0.0279045
-0.59998
-0.550956
-0.463869
-0.35394
-0.250998
-0.166878
-0.102439
-0.0540392
-0.019084
0.0125877
-0.641137
-0.587776
-0.500343
-0.38765
-0.28106
-0.192864
-0.124756
-0.0731841
-0.0356254
-0.00222123
-0.679104
-0.621735
-0.534416
-0.419392
-0.309655
-0.217674
-0.146109
-0.091521
-0.0514716
-0.0164702
-0.713785
-0.652733
-0.56594
-0.449121
-0.336671
-0.241221
-0.166426
-0.108989
-0.0665714
-0.0301109
-0.745105
-0.680693
-0.594807
-0.476745
-0.362012
-0.263474
-0.185613
-0.12553
-0.0808788
-0.043099
-0.773015
-0.705564
-0.620943
-0.50217
-0.385605
-0.284332
-0.203668
-0.14108
-0.0943421
-0.0553947
-0.797491
-0.727321
-0.64429
-0.52532
-0.407381
-0.303713
-0.220531
-0.155731
-0.10682
-0.0669681
-0.81853
-0.74596
-0.664807
-0.546134
-0.427281
-0.32157
-0.236123
-0.169308
-0.118416
-0.0778229
-0.836151
-0.7615
-0.682472
-0.56457
-0.445256
-0.337864
-0.250407
-0.181762
-0.129098
-0.0878686
-0.850397
-0.77398
-0.697284
-0.580597
-0.461265
-0.352557
-0.263356
-0.193082
-0.138824
-0.0970897
-0.861327
-0.783455
-0.709258
-0.594197
-0.475276
-0.365618
-0.274945
-0.203253
-0.147565
-0.105473
-0.869022
-0.79
-0.718429
-0.605369
-0.487267
-0.377021
-0.285151
-0.212255
-0.155301
-0.113002
-0.873577
-0.793706
-0.724847
-0.614123
-0.497227
-0.386748
-0.293956
-0.220075
-0.162019
-0.119662
-0.875105
-0.794677
-0.728578
-0.620483
-0.505152
-0.394787
-0.301347
-0.226699
-0.16771
-0.125443
-0.87373
-0.793031
-0.729705
-0.624485
-0.511049
-0.401132
-0.307316
-0.232121
-0.172371
-0.13034
-0.86959
-0.788897
-0.728321
-0.626178
-0.514932
-0.405785
-0.31186
-0.236339
-0.176
-0.134351
-0.862832
-0.782414
-0.724533
-0.625623
-0.516827
-0.408752
-0.314982
-0.239355
-0.178602
-0.137478
-0.853611
-0.773727
-0.71846
-0.62289
-0.516767
-0.410049
-0.31669
-0.241175
-0.180186
-0.139726
-0.842091
-0.762989
-0.710229
-0.618063
-0.514795
-0.409696
-0.316997
-0.24181
-0.180766
-0.1411
-0.82844
-0.750358
-0.699975
-0.611232
-0.51096
-0.407719
-0.315922
-0.241273
-0.180361
-0.141609
-0.812829
-0.735995
-0.687842
-0.6025
-0.505324
-0.404154
-0.313489
-0.239585
-0.178997
-0.141258
-0.795436
-0.720063
-0.673978
-0.591975
-0.497954
-0.399041
-0.309728
-0.236768
-0.176706
-0.140048
-0.776437
-0.702727
-0.658535
-0.579775
-0.488928
-0.39243
-0.304677
-0.232849
-0.173528
-0.13797
-0.756011
-0.684152
-0.641672
-0.566026
-0.478334
-0.384376
-0.29838
-0.227863
-0.169516
-0.135001
-0.734339
-0.664504
-0.623546
-0.550857
-0.466265
-0.374947
-0.290888
-0.221847
-0.164732
-0.131087
-0.711601
-0.643945
-0.604322
-0.534409
-0.452827
-0.364215
-0.282262
-0.214845
-0.159263
-0.12615
-0.687978
-0.622641
-0.584161
-0.516825
-0.438134
-0.352266
-0.272569
-0.206908
-0.153228
-0.120053
-0.663649
-0.600754
-0.56323
-0.498255
-0.422309
-0.339193
-0.261887
-0.198098
-0.146741
-0.112184
-0.638797
-0.578446
-0.541694
-0.478855
-0.405486
-0.325102
-0.2503
-0.188495
-0.139792
-0.100749
-0.613602
-0.555877
-0.519723
-0.458788
-0.387807
-0.31011
-0.237901
-0.178188
-0.132742
-0.0929121
-0.588246
-0.533208
-0.497485
-0.438219
-0.369426
-0.294345
-0.224789
-0.16728
-0.124957
-0.0867255
-0.562911
-0.510599
-0.475149
-0.417322
-0.350506
-0.277947
-0.211065
-0.155869
-0.116292
-0.080227
-0.53778
-0.488208
-0.452889
-0.396275
-0.33122
-0.261072
-0.196849
-0.144058
-0.106986
-0.0731617
-0.513037
-0.466195
-0.430876
-0.375259
-0.311749
-0.243885
-0.182281
-0.131962
-0.0972808
-0.065799
-0.488863
-0.444717
-0.409284
-0.354462
-0.292286
-0.226567
-0.167519
-0.119712
-0.087347
-0.058311
-0.465443
-0.423932
-0.388287
-0.334072
-0.273027
-0.209306
-0.152732
-0.107445
-0.0773313
-0.0507914
-0.442958
-0.403996
-0.368058
-0.314282
-0.254178
-0.192299
-0.138098
-0.0953092
-0.0673788
-0.0433347
-0.421585
-0.385062
-0.348768
-0.295283
-0.235944
-0.175749
-0.123801
-0.0834553
-0.0576337
-0.0360448
-0.4015
-0.367279
-0.330586
-0.277265
-0.218534
-0.159861
-0.110029
-0.0720386
-0.0482368
-0.0290253
-0.382872
-0.350791
-0.313674
-0.260416
-0.202153
-0.144839
-0.0969675
-0.0612139
-0.0393237
-0.022376
-0.365855
-0.335736
-0.298191
-0.244913
-0.187001
-0.130884
-0.0848022
-0.0511332
-0.0310243
-0.0161915
-0.350615
-0.322241
-0.284282
-0.230929
-0.173268
-0.118189
-0.0737095
-0.0419427
-0.0234607
-0.0105607
-0.337296
-0.310415
-0.272084
-0.21862
-0.161131
-0.106933
-0.0638556
-0.0337795
-0.0167463
-0.00556598
-0.326012
-0.300371
-0.261717
-0.208128
-0.150751
-0.0972805
-0.0553917
-0.0267684
-0.0109829
-0.00128129
-0.316702
-0.292339
-0.253291
-0.199579
-0.142269
-0.089375
-0.0484507
-0.0210192
-0.00625941
0.00222872
-0.309654
-0.286231
-0.246889
-0.193074
-0.135802
-0.0833366
-0.0431436
-0.0166234
-0.00264966
0.00491024
-0.304933
-0.282114
-0.242581
-0.188693
-0.131438
-0.0792579
-0.0395564
-0.0136523
-0.00021062
0.0067216
-0.302564
-0.280043
-0.240414
-0.186489
-0.129241
-0.0772025
-0.0377479
-0.0121544
0.00101879
0.00763444
0.0074464
0.00752598
0.0075271
0.00719333
0.00665605
0.00603144
0.00536491
0.00468737
0.00402603
0.00339983
0.00282102
0.00229758
0.00183392
0.00143133
0.00108865
0.000802743
0.000569246
0.000382913
0.00023797
0.0001294
5.11717e-05
-1.39614e-06
-3.44232e-05
-4.75672e-05
-5.46837e-05
-3.38962e-05
-4.30859e-05
3.79652e-05
-4.69754e-05
0.000219877
0.00653915
0.00677152
0.00694859
0.00673647
0.00629046
0.00574125
0.00513548
0.00450608
0.00388307
0.0032874
0.00273284
0.00222861
0.00178014
0.00138955
0.00105631
0.000777834
0.000550159
0.000368384
0.000227001
0.000121122
4.5012e-05
-5.94816e-06
-3.77511e-05
-4.99685e-05
-5.63905e-05
-3.5106e-05
-4.39019e-05
3.73107e-05
-4.72292e-05
0.000219139
0.00473811
0.00527375
0.00579825
0.00582632
0.00556157
0.0051624
0.00467756
0.00414406
0.00359747
0.00306273
0.00255657
0.00209072
0.00167261
0.001306
0.000991647
0.000728026
0.000511995
0.000339333
0.000205072
0.000104583
3.27105e-05
-1.5039e-05
-4.4395e-05
-5.47605e-05
-5.97947e-05
-3.75178e-05
-4.55274e-05
3.60074e-05
-4.77337e-05
0.00021767
0.00206992
0.00305467
0.00408925
0.00447021
0.004474
0.00429787
0.00399295
0.00360236
0.00316986
0.00272616
0.00229241
0.00188401
0.0015114
0.00118072
0.000894688
0.000653341
0.000454776
0.000295778
0.000172194
7.98168e-05
1.43013e-05
-2.86425e-05
-5.43316e-05
-6.19216e-05
-6.48776e-05
-4.11159e-05
-4.79499e-05
3.40663e-05
-4.84827e-05
0.000215484
-0.00142621
0.000146399
0.00184095
0.00267941
0.00303501
0.00315225
0.00308434
0.00288257
0.00260117
0.00227824
0.00194065
0.00160865
0.00129657
0.00101375
0.000765465
0.000553814
0.000378536
0.000237748
0.000128389
4.68619e-05
-1.01653e-05
-4.67201e-05
-6.75259e-05
-7.142e-05
-7.16111e-05
-4.58771e-05
-5.11504e-05
3.15038e-05
-4.94668e-05
0.0002126
-0.00569928
-0.00340964
-0.000921669
0.000468581
0.00125458
0.00173206
0.00195551
0.00198683
0.00189263
0.00171963
0.00150166
0.00126481
0.00102824
0.000805164
0.000604028
0.000429486
0.00028332
0.000165292
7.36981e-05
5.80463e-06
-4.06145e-05
-6.92208e-05
-8.39321e-05
-8.32129e-05
-7.99582e-05
-5.17708e-05
-5.51039e-05
2.83416e-05
-5.06738e-05
0.000209045
-0.0106876
-0.00756383
-0.00416857
-0.00214418
-0.000855207
4.53818e-05
0.000611609
0.00091814
0.00104588
0.00105122
0.000975879
0.000852737
0.000706522
0.000555027
0.00041043
0.000280414
0.000169189
7.84739e-05
8.18768e-06
-4.31497e-05
-7.69362e-05
-9.60825e-05
-0.000103494
-9.72474e-05
-8.98731e-05
-5.8759e-05
-5.97798e-05
2.46063e-05
-5.20885e-05
0.000204852
-0.0163198
-0.0122595
-0.00786517
-0.0051375
-0.00327998
-0.00189851
-0.000941538
-0.00031965
6.3273e-05
0.000274253
0.000363938
0.000372726
0.000331566
0.000263424
0.000184738
0.000106665
3.62203e-05
-2.26185e-05
-6.80626e-05
-0.000100049
-0.000118982
-0.000127235
-0.000126144
-0.00011346
-0.000101301
-6.6797e-05
-6.51417e-05
2.03289e-05
-5.36931e-05
0.000200059
-0.0225163
-0.0174338
-0.0119729
-0.00848684
-0.00600311
-0.0040889
-0.00269735
-0.00172251
-0.00105259
-0.000609589
-0.000333219
-0.000174752
-9.63959e-05
-6.95125e-05
-7.29495e-05
-9.16666e-05
-0.000115486
-0.000137871
-0.00015494
-0.000164859
-0.00016645
-0.000162596
-0.000151809
-0.000131775
-0.000114181
-7.58336e-05
-7.11482e-05
1.55449e-05
-5.54671e-05
0.000194712
-0.0291907
-0.0230194
-0.0164494
-0.0121646
-0.00900582
-0.00651373
-0.00464835
-0.00328589
-0.00229907
-0.00159878
-0.0011146
-0.000789047
-0.000576978
-0.000443559
-0.000362477
-0.000314443
-0.000285789
-0.000267138
-0.000252294
-0.000237463
-0.000219059
-0.000202057
-0.000180415
-0.000152111
-0.00012844
-8.58113e-05
-7.7753e-05
1.02935e-05
-5.73875e-05
0.000188862
-0.0362508
-0.0289445
-0.0212493
-0.0161405
-0.0122673
-0.00915971
-0.00678624
-0.00500467
-0.00367318
-0.00269169
-0.00197938
-0.00146972
-0.00110988
-0.000858472
-0.00068364
-0.000561483
-0.000474525
-0.000410266
-0.000359987
-0.000317945
-0.000283473
-0.000245471
-0.000211881
-0.000174378
-0.000144002
-9.66657e-05
-8.49045e-05
4.61747e-06
-5.9429e-05
0.000182565
-0.0436002
-0.0351343
-0.026324
-0.0203809
-0.0157648
-0.0120121
-0.00910171
-0.00687309
-0.0051715
-0.00388639
-0.00292651
-0.00221624
-0.00169485
-0.00131411
-0.00103632
-0.000832672
-0.000681569
-0.000567126
-0.00047786
-0.000405727
-0.000346847
-0.000292285
-0.000245998
-0.000198465
-0.000160786
-0.000108328
-9.25469e-05
-1.43738e-06
-6.15642e-05
0.000175883
-0.0511391
-0.0415108
-0.0316211
-0.024849
-0.0194725
-0.0150545
-0.0115843
-0.00888468
-0.00679027
-0.00518081
-0.00395498
-0.00302819
-0.00233176
-0.00181046
-0.00142054
-0.001128
-0.000906886
-0.000737649
-0.000605811
-0.000500784
-0.000415918
-0.000343314
-0.000282174
-0.000224176
-0.000178712
-0.000120736
-0.000100626
-7.8257e-06
-6.37647e-05
0.000168885
-0.058769
-0.0479951
-0.0370869
-0.0295066
-0.0233652
-0.0182713
-0.0142249
-0.0110344
-0.00852716
-0.00657431
-0.00506507
-0.00390625
-0.00302141
-0.00234826
-0.00183689
-0.00144791
-0.00115075
-0.000921992
-0.000743907
-0.000603176
-0.000490596
-0.000397336
-0.000320248
-0.000251243
-0.000197675
-0.000133829
-0.000109096
-1.45045e-05
-6.60019e-05
0.000161641
-0.0664038
-0.0545189
-0.0426764
-0.034322
-0.0274227
-0.0216515
-0.0170174
-0.0133195
-0.0103815
-0.00806717
-0.00625749
-0.00485124
-0.00376445
-0.00292795
-0.00228557
-0.00179241
-0.00141306
-0.00111997
-0.000891922
-0.000712677
-0.00057047
-0.0004548
-0.000361283
-0.00027958
-0.000217458
-0.000147471
-0.000117874
-2.14121e-05
-6.8236e-05
0.000154235
-0.0739388
-0.0609941
-0.0483213
-0.0392364
-0.031599
-0.0251598
-0.0199339
-0.0157175
-0.0123349
-0.00964452
-0.00752013
-0.00585327
-0.00455285
-0.00354299
-0.00276132
-0.00215728
-0.00169045
-0.00132892
-0.00104778
-0.000827679
-0.000654216
-0.000514906
-0.00040333
-0.000310113
-0.000237755
-0.000161271
-0.000126747
-2.84269e-05
-7.04001e-05
0.000146762
-0.0811767
-0.0672036
-0.0538377
-0.0440975
-0.0357726
-0.0287013
-0.0229004
-0.0181713
-0.0143439
-0.0112736
-0.00882867
-0.00689459
-0.00537386
-0.00418438
-0.00325787
-0.00253823
-0.00198002
-0.00154692
-0.00121023
-0.000947386
-0.000741282
-0.000577359
-0.000447334
-0.000340643
-0.00025908
-0.000175197
-0.000135603
-3.55127e-05
-7.24775e-05
0.000139294
-0.0883075
-0.0732824
-0.0593855
-0.0490708
-0.0401079
-0.0324355
-0.0260664
-0.020818
-0.0165317
-0.0130635
-0.0102785
-0.00805699
-0.00629626
-0.00490886
-0.00382118
-0.00297191
-0.00231064
-0.00179644
-0.00139657
-0.00108495
-0.000841545
-0.000649477
-0.000498581
-0.000376005
-0.000283144
-0.000192921
-0.000145621
-4.33207e-05
-7.47813e-05
0.000131782
-0.0967066
-0.0805744
-0.0660937
-0.0550733
-0.0453973
-0.0370429
-0.030006
-0.0241362
-0.019294
-0.0153392
-0.0121338
-0.00955285
-0.00748817
-0.00584739
-0.00455183
-0.00353459
-0.00273941
-0.00211974
-0.00163768
-0.00126267
-0.000970849
-0.000742275
-0.000564248
-0.000421381
-0.000313788
-0.000213241
-0.000158634
-5.27225e-05
-7.76342e-05
0.000124272
-0.102368
-0.0847837
-0.0704392
-0.0591084
-0.0491165
-0.0404152
-0.0329708
-0.0266822
-0.0214406
-0.017121
-0.0135913
-0.0107273
-0.00841992
-0.00657518
-0.00511174
-0.00395903
-0.00305646
-0.002353
-0.00180653
-0.00138273
-0.00105452
-0.000799317
-0.000602193
-0.000445808
-0.00032888
-0.000222477
-0.000163511
-5.73098e-05
-7.8088e-05
0.000118244
-0.0846386
-0.0736182
-0.06193
-0.0517223
-0.0427888
-0.0350676
-0.0284842
-0.0229294
-0.018298
-0.014488
-0.0113944
-0.00891083
-0.00693514
-0.00537499
-0.00415069
-0.00319534
-0.00245358
-0.00188004
-0.00143799
-0.00109777
-0.000836197
-0.000633987
-0.000478774
-0.000355371
-0.00026407
-0.000178063
-0.0001337
-4.146e-05
-6.77049e-05
0.000116873
-0.0811547
-0.0710506
-0.0603598
-0.0507876
-0.0423344
-0.0349311
-0.0285479
-0.0231117
-0.0185384
-0.0147437
-0.0116379
-0.00912691
-0.00711737
-0.00552253
-0.00426584
-0.00328196
-0.00251617
-0.00192318
-0.00146596
-0.0011144
-0.000844716
-0.00063711
-0.000478506
-0.000353386
-0.000261177
-0.000175821
-0.000131133
-4.19733e-05
-6.54605e-05
0.000111652
-0.0790509
-0.0693218
-0.0593243
-0.0503809
-0.0423825
-0.0352745
-0.0290698
-0.0237276
-0.0191862
-0.0153777
-0.0122267
-0.00965154
-0.00756927
-0.00590108
-0.0045755
-0.00352997
-0.00271092
-0.0020732
-0.00157933
-0.00119839
-0.000905667
-0.00068045
-0.000508534
-0.000373828
-0.000274379
-0.000184917
-0.000135938
-4.72992e-05
-6.5343e-05
0.00010465
-0.075902
-0.0668606
-0.0575604
-0.0492718
-0.0417802
-0.0350393
-0.0290908
-0.0239179
-0.0194771
-0.0157167
-0.0125752
-0.00998357
-0.00786931
-0.00616157
-0.00479446
-0.00370899
-0.00285366
-0.00218434
-0.00166386
-0.00126119
-0.000951182
-0.000712666
-0.00053064
-0.000388745
-0.000283786
-0.000191542
-0.000139098
-5.1844e-05
-6.45891e-05
9.71362e-05
-0.0723506
-0.0640818
-0.0554738
-0.0478268
-0.0408559
-0.0345094
-0.0288498
-0.0238804
-0.0195737
-0.0158928
-0.0127896
-0.0102072
-0.008083
-0.00635418
-0.0049606
-0.00384724
-0.00296513
-0.00227163
-0.00173029
-0.00131034
-0.000986458
-0.000737253
-0.000547114
-0.000399573
-0.000290272
-0.000196176
-0.000140899
-5.57068e-05
-6.32953e-05
8.91058e-05
-0.0685349
-0.0611012
-0.0531933
-0.0461755
-0.0397328
-0.0337984
-0.0284492
-0.0237064
-0.0195568
-0.0159768
-0.0129313
-0.0103745
-0.00825412
-0.00651508
-0.00510346
-0.00396857
-0.00306441
-0.00235018
-0.00179049
-0.00135502
-0.00101853
-0.000759522
-0.000561901
-0.000409184
-0.000295881
-0.000200219
-0.000142276
-5.9437e-05
-6.17932e-05
8.04636e-05
-0.0644446
-0.0578842
-0.0506892
-0.0442947
-0.0383886
-0.0328854
-0.02787
-0.0233787
-0.0194113
-0.015956
-0.0129894
-0.0104769
-0.00837561
-0.00663881
-0.0052189
-0.00406998
-0.00314937
-0.00241855
-0.00184348
-0.00139464
-0.00104705
-0.000779295
-0.000574933
-0.000417562
-0.000300632
-0.00020369
-0.00014327
-6.30391e-05
-6.01434e-05
7.12503e-05
-0.060119
-0.0544269
-0.0479517
-0.0421749
-0.0368106
-0.0317552
-0.0270953
-0.0228801
-0.0191201
-0.0158139
-0.0129489
-0.0105006
-0.00843567
-0.00671537
-0.00529867
-0.00414475
-0.00321469
-0.00247256
-0.00188608
-0.00142678
-0.0010702
-0.000795238
-0.000585243
-0.000424015
-0.000304052
-0.000206257
-0.000143687
-6.63658e-05
-5.8335e-05
6.15511e-05
-0.0556039
-0.05075
-0.0449932
-0.0398266
-0.0350045
-0.0304088
-0.0261228
-0.0222053
-0.0186762
-0.0155427
-0.0128015
-0.0104378
-0.008427
-0.00673824
-0.00533715
-0.0041882
-0.00325652
-0.00250917
-0.00191589
-0.00144959
-0.00108661
-0.000806319
-0.000592083
-0.000428004
-0.000305766
-0.000207654
-0.000143377
-6.92912e-05
-5.63734e-05
5.14567e-05
-0.0509406
-0.0468816
-0.0418319
-0.0372651
-0.032981
-0.0288519
-0.0249542
-0.0213531
-0.0180761
-0.0151373
-0.0125415
-0.0102824
-0.00834364
-0.00670195
-0.00532951
-0.00419621
-0.00327149
-0.00252562
-0.00193075
-0.00146141
-0.00109501
-0.000811602
-0.000594769
-0.000429038
-0.000305439
-0.00020764
-0.000142206
-7.16989e-05
-5.42714e-05
4.10656e-05
-0.0461697
-0.042853
-0.0384905
-0.0345087
-0.0307542
-0.0270936
-0.0235941
-0.0203246
-0.017318
-0.0145939
-0.0121639
-0.0100288
-0.00818
-0.00660119
-0.00527095
-0.00416461
-0.00325605
-0.00251904
-0.00192835
-0.00146044
-0.00109402
-0.000810064
-0.000592555
-0.000426579
-0.000302698
-0.000205952
-0.000140025
-7.34622e-05
-5.20363e-05
3.04865e-05
-0.041331
-0.0386986
-0.0349954
-0.03158
-0.0283419
-0.0251467
-0.0220509
-0.019124
-0.0164028
-0.0139111
-0.0116654
-0.00967283
-0.00793132
-0.00643116
-0.00515694
-0.00408935
-0.00320673
-0.00248653
-0.00190635
-0.00144483
-0.00108222
-0.000800619
-0.00058464
-0.000420047
-0.000297137
-0.000202304
-0.000136665
-7.44446e-05
-4.96663e-05
1.98366e-05
-0.0364633
-0.0344544
-0.0313769
-0.0285048
-0.0257659
-0.023028
-0.0203364
-0.0177589
-0.0153346
-0.0130898
-0.0110448
-0.00921172
-0.00759406
-0.00618796
-0.00498361
-0.00396677
-0.00312027
-0.00242528
-0.00186244
-0.00141271
-0.00105815
-0.000782158
-0.000570195
-0.000408838
-0.000288331
-0.000196398
-0.000131946
-7.45044e-05
-4.71498e-05
9.23751e-06
-0.0316048
-0.0301576
-0.0276675
-0.025312
-0.023051
-0.0207575
-0.018466
-0.0162403
-0.0141204
-0.0121339
-0.0103034
-0.00864484
-0.00716629
-0.0058689
-0.0047479
-0.00379383
-0.00299383
-0.00233279
-0.00179446
-0.00136233
-0.0010204
-0.000753592
-0.0005484
-0.000392349
-0.00027585
-0.000187933
-0.000125679
-7.34996e-05
-4.44644e-05
-1.18772e-06
-0.0267928
-0.0258461
-0.0239018
-0.0220327
-0.0202248
-0.0183587
-0.0164585
-0.0145827
-0.0127707
-0.0110502
-0.0094451
-0.00797372
-0.00664784
-0.00547269
-0.00444788
-0.0035683
-0.00282514
-0.00220693
-0.00170054
-0.00129209
-0.000967674
-0.000713901
-0.000518473
-0.000370001
-0.000259276
-0.000176616
-0.000117674
-7.12925e-05
-4.15767e-05
-1.13178e-05
-0.0220635
-0.0215573
-0.0201152
-0.0186998
-0.0173173
-0.0158577
-0.0143357
-0.0128036
-0.0112988
-0.0098485
-0.00847638
-0.00720234
-0.00604062
-0.00499974
-0.00408297
-0.003289
-0.00261273
-0.00204614
-0.00157921
-0.00120069
-0.000898875
-0.000662188
-0.000479715
-0.000341267
-0.000238222
-0.000162175
-0.000107749
-6.77557e-05
-3.84433e-05
-2.10366e-05
-0.0174517
-0.0173286
-0.0163436
-0.015347
-0.0143599
-0.0132826
-0.0121221
-0.0109236
-0.00972154
-0.00854161
-0.00740677
-0.00633726
-0.00534885
-0.00445242
-0.00365416
-0.00295598
-0.00235608
-0.00184964
-0.00142955
-0.00108721
-0.000813178
-0.00059776
-0.000431564
-0.000305713
-0.000212364
-0.00014438
-9.57441e-05
-6.27796e-05
-3.50128e-05
-3.02357e-05
-0.01299
-0.0131958
-0.0126225
-0.0120088
-0.0113853
-0.0106637
-0.00984462
-0.00896582
-0.00805829
-0.0071454
-0.00624866
-0.00538778
-0.00457918
-0.00383523
-0.00316428
-0.00257083
-0.0020559
-0.00161753
-0.00125135
-0.000951291
-0.000710153
-0.000520201
-0.000373656
-0.000263043
-0.000181469
-0.000123066
-8.15337e-05
-5.62811e-05
-3.12316e-05
-3.88164e-05
-0.00870871
-0.00919333
-0.00898677
-0.00871915
-0.00842674
-0.00803247
-0.00753203
-0.00695603
-0.00633131
-0.00567861
-0.00501734
-0.00436602
-0.00374087
-0.00315499
-0.00261816
-0.00213682