/*--------------------------------*- C++ -*----------------------------------*\
  =========                 |
  \\      /  F ield         | OpenFOAM: The Open Source CFD Toolbox
   \\    /   O peration     | Website:  https://openfoam.org
    \\  /    A nd           | Version:  7
     \\/     M anipulation  |
\*---------------------------------------------------------------------------*/
FoamFile
{
    version     2.0;
    format      ascii;
    class       volScalarField;
    location    "10.3";
    object      p;
}
// * * * * * * * * * * * * * * * * * * * * * * * * * * * * * * * * * * * * * //

dimensions      [0 2 -2 0 0 0 0];

internalField   nonuniform List<scalar> 
306000
(
-0.313025
-0.314483
-0.315047
-0.315833
-0.316412
-0.316973
-0.317466
-0.317928
-0.318362
-0.31878
-0.31919
-0.319598
-0.32001
-0.32043
-0.320862
-0.321309
-0.321772
-0.322254
-0.322756
-0.323278
-0.323822
-0.324388
-0.324977
-0.325588
-0.326223
-0.326881
-0.327562
-0.328268
-0.328997
-0.329751
-0.33053
-0.331333
-0.332162
-0.333016
-0.333896
-0.334802
-0.335736
-0.336697
-0.337686
-0.338704
-0.339752
-0.340829
-0.341939
-0.34308
-0.344255
-0.345464
-0.34671
-0.347994
-0.349318
-0.350684
-0.352094
-0.353551
-0.355057
-0.356616
-0.35823
-0.359904
-0.361638
-0.363439
-0.365309
-0.367227
-0.313036
-0.314493
-0.315057
-0.315842
-0.31642
-0.316981
-0.317473
-0.317935
-0.318369
-0.318787
-0.319196
-0.319604
-0.320016
-0.320437
-0.320868
-0.321315
-0.321778
-0.32226
-0.322762
-0.323284
-0.323828
-0.324394
-0.324983
-0.325594
-0.326229
-0.326886
-0.327568
-0.328273
-0.329003
-0.329756
-0.330535
-0.331338
-0.332167
-0.333021
-0.333901
-0.334807
-0.335741
-0.336702
-0.337691
-0.338709
-0.339756
-0.340834
-0.341943
-0.343084
-0.344259
-0.345468
-0.346714
-0.347998
-0.349321
-0.350687
-0.352097
-0.353553
-0.355059
-0.356618
-0.358233
-0.359906
-0.36164
-0.36344
-0.365311
-0.367226
-0.313057
-0.314512
-0.315075
-0.315859
-0.316437
-0.316997
-0.317489
-0.31795
-0.318383
-0.318801
-0.31921
-0.319618
-0.32003
-0.32045
-0.320881
-0.321328
-0.321791
-0.322273
-0.322774
-0.323296
-0.32384
-0.324406
-0.324994
-0.325605
-0.32624
-0.326897
-0.327579
-0.328284
-0.329013
-0.329767
-0.330545
-0.331348
-0.332177
-0.33303
-0.33391
-0.334817
-0.33575
-0.336711
-0.3377
-0.338718
-0.339765
-0.340842
-0.341951
-0.343092
-0.344267
-0.345476
-0.346721
-0.348005
-0.349328
-0.350693
-0.352102
-0.353558
-0.355064
-0.356623
-0.358237
-0.359909
-0.361644
-0.363444
-0.365316
-0.367224
-0.313089
-0.314541
-0.315103
-0.315886
-0.316462
-0.317021
-0.317512
-0.317973
-0.318405
-0.318822
-0.319231
-0.319638
-0.32005
-0.320469
-0.320901
-0.321347
-0.321809
-0.322291
-0.322792
-0.323314
-0.323857
-0.324423
-0.325011
-0.325622
-0.326256
-0.326914
-0.327595
-0.3283
-0.329029
-0.329782
-0.33056
-0.331363
-0.332192
-0.333045
-0.333925
-0.334831
-0.335764
-0.336725
-0.337714
-0.338731
-0.339778
-0.340855
-0.341964
-0.343104
-0.344278
-0.345487
-0.346732
-0.348015
-0.349338
-0.350702
-0.352111
-0.353566
-0.355071
-0.356629
-0.358243
-0.359915
-0.361649
-0.36345
-0.365323
-0.367219
-0.313132
-0.31458
-0.31514
-0.31592
-0.316495
-0.317053
-0.317543
-0.318002
-0.318434
-0.318851
-0.319259
-0.319665
-0.320076
-0.320495
-0.320926
-0.321372
-0.321834
-0.322315
-0.322816
-0.323338
-0.323881
-0.324446
-0.325034
-0.325645
-0.326279
-0.326936
-0.327617
-0.328321
-0.32905
-0.329803
-0.330581
-0.331384
-0.332211
-0.333065
-0.333944
-0.33485
-0.335783
-0.336743
-0.337732
-0.338749
-0.339795
-0.340872
-0.34198
-0.34312
-0.344294
-0.345502
-0.346746
-0.348028
-0.34935
-0.350714
-0.352122
-0.353577
-0.355081
-0.356638
-0.35825
-0.359922
-0.361656
-0.363457
-0.365331
-0.367214
-0.313186
-0.314627
-0.315186
-0.315963
-0.316537
-0.317092
-0.317581
-0.31804
-0.31847
-0.318886
-0.319293
-0.319699
-0.320109
-0.320528
-0.320958
-0.321403
-0.321865
-0.322346
-0.322846
-0.323367
-0.32391
-0.324475
-0.325062
-0.325673
-0.326306
-0.326963
-0.327643
-0.328348
-0.329076
-0.329829
-0.330606
-0.331409
-0.332236
-0.333089
-0.333968
-0.334874
-0.335806
-0.336766
-0.337754
-0.338771
-0.339817
-0.340893
-0.342
-0.34314
-0.344313
-0.34552
-0.346764
-0.348045
-0.349366
-0.350729
-0.352136
-0.353589
-0.355092
-0.356648
-0.35826
-0.359931
-0.361664
-0.363465
-0.365342
-0.367206
-0.31325
-0.314685
-0.315241
-0.316015
-0.316586
-0.31714
-0.317627
-0.318084
-0.318513
-0.318928
-0.319334
-0.319739
-0.320149
-0.320566
-0.320996
-0.321441
-0.321902
-0.322382
-0.322882
-0.323403
-0.323945
-0.324509
-0.325096
-0.325706
-0.326339
-0.326996
-0.327676
-0.328379
-0.329107
-0.32986
-0.330637
-0.331438
-0.332265
-0.333118
-0.333997
-0.334902
-0.335834
-0.336793
-0.337781
-0.338797
-0.339842
-0.340918
-0.342025
-0.343163
-0.344336
-0.345542
-0.346785
-0.348065
-0.349385
-0.350746
-0.352152
-0.353604
-0.355106
-0.35666
-0.358271
-0.359941
-0.361673
-0.363474
-0.365354
-0.367197
-0.313325
-0.314751
-0.315305
-0.316075
-0.316644
-0.317195
-0.31768
-0.318136
-0.318564
-0.318977
-0.319382
-0.319786
-0.320195
-0.320612
-0.321041
-0.321484
-0.321945
-0.322424
-0.322924
-0.323444
-0.323985
-0.324549
-0.325136
-0.325745
-0.326377
-0.327033
-0.327713
-0.328416
-0.329144
-0.329895
-0.330672
-0.331473
-0.332299
-0.333152
-0.33403
-0.334934
-0.335866
-0.336824
-0.337811
-0.338827
-0.339871
-0.340946
-0.342052
-0.34319
-0.344361
-0.345567
-0.346808
-0.348087
-0.349406
-0.350766
-0.35217
-0.35362
-0.355121
-0.356673
-0.358283
-0.359952
-0.361683
-0.363484
-0.365367
-0.367184
-0.313409
-0.314827
-0.315378
-0.316144
-0.31671
-0.317258
-0.317741
-0.318195
-0.318621
-0.319033
-0.319437
-0.31984
-0.320247
-0.320663
-0.321091
-0.321534
-0.321994
-0.322472
-0.322971
-0.32349
-0.324031
-0.324594
-0.32518
-0.325789
-0.326421
-0.327076
-0.327755
-0.328458
-0.329184
-0.329936
-0.330711
-0.331512
-0.332338
-0.333189
-0.334067
-0.334971
-0.335901
-0.33686
-0.337846
-0.33886
-0.339904
-0.340979
-0.342084
-0.343221
-0.344391
-0.345595
-0.346835
-0.348113
-0.349429
-0.350788
-0.35219
-0.353639
-0.355137
-0.356688
-0.358295
-0.359963
-0.361693
-0.363495
-0.365381
-0.367169
-0.313505
-0.314913
-0.315459
-0.316221
-0.316783
-0.317329
-0.31781
-0.318261
-0.318685
-0.319096
-0.319498
-0.3199
-0.320306
-0.320721
-0.321148
-0.32159
-0.322049
-0.322526
-0.323024
-0.323543
-0.324083
-0.324645
-0.32523
-0.325838
-0.326469
-0.327124
-0.327802
-0.328504
-0.32923
-0.329981
-0.330756
-0.331556
-0.332381
-0.333231
-0.334108
-0.335011
-0.335941
-0.336899
-0.337884
-0.338898
-0.339941
-0.341014
-0.342118
-0.343254
-0.344423
-0.345626
-0.346864
-0.34814
-0.349455
-0.350811
-0.352211
-0.353658
-0.355154
-0.356703
-0.358309
-0.359975
-0.361703
-0.363505
-0.365395
-0.367151
-0.31361
-0.315007
-0.31555
-0.316306
-0.316865
-0.317407
-0.317885
-0.318334
-0.318757
-0.319165
-0.319566
-0.319966
-0.320371
-0.320784
-0.32121
-0.321651
-0.322109
-0.322586
-0.323082
-0.3236
-0.324139
-0.324701
-0.325285
-0.325892
-0.326523
-0.327176
-0.327854
-0.328555
-0.32928
-0.33003
-0.330804
-0.331603
-0.332428
-0.333278
-0.334153
-0.335056
-0.335985
-0.336941
-0.337926
-0.338939
-0.339981
-0.341053
-0.342155
-0.34329
-0.344457
-0.345659
-0.346896
-0.34817
-0.349483
-0.350837
-0.352234
-0.353679
-0.355172
-0.356719
-0.358322
-0.359986
-0.361713
-0.363514
-0.365409
-0.367129
-0.313726
-0.31511
-0.315649
-0.3164
-0.316954
-0.317493
-0.317968
-0.318414
-0.318835
-0.319241
-0.31964
-0.320038
-0.320442
-0.320854
-0.321278
-0.321718
-0.322175
-0.322651
-0.323146
-0.323663
-0.324201
-0.324762
-0.325345
-0.325951
-0.326581
-0.327233
-0.32791
-0.32861
-0.329335
-0.330083
-0.330857
-0.331655
-0.332479
-0.333328
-0.334202
-0.335104
-0.336032
-0.336987
-0.337971
-0.338982
-0.340023
-0.341094
-0.342196
-0.343329
-0.344494
-0.345694
-0.346929
-0.348201
-0.349512
-0.350863
-0.352258
-0.3537
-0.355191
-0.356735
-0.358335
-0.359998
-0.361722
-0.363523
-0.365423
-0.367103
-0.313851
-0.315222
-0.315757
-0.316501
-0.317052
-0.317586
-0.318058
-0.318501
-0.318919
-0.319323
-0.31972
-0.320117
-0.320519
-0.320929
-0.321353
-0.321791
-0.322247
-0.322721
-0.323215
-0.323731
-0.324268
-0.324828
-0.32541
-0.326015
-0.326643
-0.327295
-0.327971
-0.32867
-0.329393
-0.330141
-0.330913
-0.331711
-0.332533
-0.333381
-0.334255
-0.335155
-0.336082
-0.337037
-0.338019
-0.339029
-0.340069
-0.341138
-0.342238
-0.343369
-0.344533
-0.345731
-0.346964
-0.348234
-0.349542
-0.350891
-0.352283
-0.353721
-0.355209
-0.35675
-0.358348
-0.360008
-0.36173
-0.36353
-0.365435
-0.367072
-0.313986
-0.315343
-0.315873
-0.31661
-0.317156
-0.317687
-0.318155
-0.318595
-0.31901
-0.319412
-0.319807
-0.320202
-0.320602
-0.321011
-0.321432
-0.321869
-0.322323
-0.322797
-0.32329
-0.323804
-0.32434
-0.324898
-0.325479
-0.326083
-0.326711
-0.327361
-0.328036
-0.328734
-0.329456
-0.330203
-0.330974
-0.33177
-0.332591
-0.333438
-0.334311
-0.33521
-0.336136
-0.337089
-0.338069
-0.339079
-0.340117
-0.341184
-0.342283
-0.343412
-0.344574
-0.34577
-0.347001
-0.348268
-0.349573
-0.350919
-0.352308
-0.353743
-0.355227
-0.356765
-0.358359
-0.360016
-0.361736
-0.363534
-0.365447
-0.367036
-0.314131
-0.315473
-0.315997
-0.316727
-0.317268
-0.317794
-0.318259
-0.318696
-0.319108
-0.319507
-0.3199
-0.320292
-0.32069
-0.321098
-0.321518
-0.321953
-0.322406
-0.322877
-0.323369
-0.323882
-0.324417
-0.324974
-0.325553
-0.326156
-0.326782
-0.327432
-0.328105
-0.328802
-0.329523
-0.330268
-0.331038
-0.331833
-0.332653
-0.333498
-0.33437
-0.335267
-0.336192
-0.337143
-0.338123
-0.33913
-0.340167
-0.341233
-0.342329
-0.343457
-0.344617
-0.34581
-0.347038
-0.348302
-0.349605
-0.350947
-0.352333
-0.353764
-0.355245
-0.356778
-0.358369
-0.360023
-0.361739
-0.363536
-0.365456
-0.366994
-0.314285
-0.315611
-0.31613
-0.316852
-0.317388
-0.317909
-0.318369
-0.318803
-0.319212
-0.319608
-0.319998
-0.320389
-0.320785
-0.32119
-0.321608
-0.322042
-0.322493
-0.322963
-0.323453
-0.323965
-0.324498
-0.325054
-0.325632
-0.326233
-0.326858
-0.327506
-0.328177
-0.328873
-0.329593
-0.330337
-0.331105
-0.331899
-0.332717
-0.333561
-0.334431
-0.335327
-0.33625
-0.3372
-0.338178
-0.339184
-0.340219
-0.341283
-0.342377
-0.343503
-0.34466
-0.345851
-0.347076
-0.348337
-0.349636
-0.350975
-0.352357
-0.353784
-0.355261
-0.35679
-0.358376
-0.360027
-0.36174
-0.363535
-0.365462
-0.366945
-0.314448
-0.315757
-0.31627
-0.316984
-0.317515
-0.318031
-0.318487
-0.318916
-0.319322
-0.319715
-0.320103
-0.320491
-0.320885
-0.321288
-0.321704
-0.322136
-0.322585
-0.323053
-0.323542
-0.324052
-0.324584
-0.325138
-0.325714
-0.326314
-0.326937
-0.327584
-0.328254
-0.328948
-0.329666
-0.330408
-0.331175
-0.331967
-0.332784
-0.333627
-0.334495
-0.33539
-0.336311
-0.337259
-0.338235
-0.339239
-0.340272
-0.341334
-0.342426
-0.343549
-0.344704
-0.345892
-0.347114
-0.348372
-0.349668
-0.351003
-0.35238
-0.353803
-0.355275
-0.356799
-0.358382
-0.360028
-0.361737
-0.363529
-0.365465
-0.366889
-0.31462
-0.315912
-0.316419
-0.317124
-0.317648
-0.318159
-0.31861
-0.319036
-0.319438
-0.319829
-0.320213
-0.320599
-0.32099
-0.321391
-0.321805
-0.322235
-0.322682
-0.323149
-0.323635
-0.324143
-0.324673
-0.325226
-0.325801
-0.326399
-0.32702
-0.327665
-0.328334
-0.329026
-0.329742
-0.330483
-0.331249
-0.332039
-0.332854
-0.333695
-0.334561
-0.335454
-0.336373
-0.33732
-0.338294
-0.339296
-0.340326
-0.341386
-0.342476
-0.343597
-0.344749
-0.345934
-0.347153
-0.348407
-0.349699
-0.35103
-0.352402
-0.35382
-0.355287
-0.356807
-0.358384
-0.360025
-0.361731
-0.363518
-0.365464
-0.366825
-0.314801
-0.316074
-0.316574
-0.317271
-0.317789
-0.318294
-0.31874
-0.319162
-0.31956
-0.319947
-0.320329
-0.320712
-0.3211
-0.321499
-0.321911
-0.322338
-0.322784
-0.323248
-0.323733
-0.324239
-0.324767
-0.325318
-0.325891
-0.326487
-0.327107
-0.32775
-0.328417
-0.329107
-0.329822
-0.330561
-0.331324
-0.332112
-0.332926
-0.333765
-0.334629
-0.33552
-0.336437
-0.337382
-0.338354
-0.339353
-0.340382
-0.341439
-0.342526
-0.343644
-0.344793
-0.345975
-0.34719
-0.348441
-0.349728
-0.351055
-0.352423
-0.353835
-0.355297
-0.356811
-0.358382
-0.360018
-0.361719
-0.363502
-0.365459
-0.366752
-0.314991
-0.316244
-0.316738
-0.317425
-0.317937
-0.318435
-0.318877
-0.319294
-0.319688
-0.320072
-0.32045
-0.32083
-0.321216
-0.321612
-0.322021
-0.322447
-0.32289
-0.323352
-0.323835
-0.324339
-0.324865
-0.325413
-0.325985
-0.326579
-0.327197
-0.327838
-0.328502
-0.329191
-0.329904
-0.330641
-0.331402
-0.332188
-0.333
-0.333836
-0.334699
-0.335588
-0.336503
-0.337445
-0.338414
-0.339412
-0.340437
-0.341492
-0.342577
-0.343691
-0.344837
-0.346015
-0.347227
-0.348473
-0.349756
-0.351078
-0.352441
-0.353848
-0.355303
-0.356811
-0.358376
-0.360007
-0.361703
-0.36348
-0.365449
-0.36667
-0.315189
-0.316422
-0.316909
-0.317586
-0.318091
-0.318583
-0.319019
-0.319432
-0.319822
-0.320202
-0.320577
-0.320954
-0.321337
-0.32173
-0.322137
-0.322559
-0.323
-0.32346
-0.323941
-0.324442
-0.324966
-0.325513
-0.326082
-0.326674
-0.327289
-0.327928
-0.328591
-0.329277
-0.329988
-0.330723
-0.331482
-0.332266
-0.333075
-0.33391
-0.33477
-0.335656
-0.336569
-0.337508
-0.338475
-0.33947
-0.340493
-0.341545
-0.342626
-0.343738
-0.34488
-0.346055
-0.347262
-0.348504
-0.349782
-0.351099
-0.352456
-0.353857
-0.355306
-0.356807
-0.358366
-0.359991
-0.361681
-0.363452
-0.365434
-0.366578
-0.315395
-0.316607
-0.317086
-0.317753
-0.318251
-0.318737
-0.319168
-0.319575
-0.319961
-0.320337
-0.320709
-0.321082
-0.321462
-0.321852
-0.322256
-0.322676
-0.323114
-0.323572
-0.32405
-0.32455
-0.325071
-0.325615
-0.326182
-0.326772
-0.327385
-0.328022
-0.328682
-0.329366
-0.330074
-0.330807
-0.331563
-0.332345
-0.333152
-0.333984
-0.334842
-0.335725
-0.336635
-0.337572
-0.338537
-0.339528
-0.340549
-0.341597
-0.342675
-0.343783
-0.344922
-0.346093
-0.347296
-0.348533
-0.349806
-0.351117
-0.352468
-0.353863
-0.355305
-0.356799
-0.358351
-0.359969
-0.361653
-0.363416
-0.365413
-0.366475
-0.315609
-0.316799
-0.317271
-0.317927
-0.318418
-0.318897
-0.319322
-0.319724
-0.320106
-0.320477
-0.320845
-0.321215
-0.321592
-0.321979
-0.32238
-0.322797
-0.323233
-0.323688
-0.324163
-0.32466
-0.325179
-0.325721
-0.326285
-0.326872
-0.327483
-0.328117
-0.328775
-0.329457
-0.330162
-0.330892
-0.331646
-0.332425
-0.333229
-0.334059
-0.334914
-0.335795
-0.336702
-0.337636
-0.338598
-0.339586
-0.340603
-0.341649
-0.342723
-0.343828
-0.344962
-0.346128
-0.347327
-0.348559
-0.349827
-0.351132
-0.352477
-0.353864
-0.355299
-0.356786
-0.35833
-0.35994
-0.361618
-0.363371
-0.365385
-0.366359
-0.315831
-0.316999
-0.317463
-0.318108
-0.318591
-0.319062
-0.319481
-0.319878
-0.320255
-0.320623
-0.320987
-0.321353
-0.321726
-0.32211
-0.322508
-0.322922
-0.323355
-0.323807
-0.324279
-0.324774
-0.32529
-0.325829
-0.32639
-0.326975
-0.327583
-0.328215
-0.32887
-0.329549
-0.330252
-0.330979
-0.33173
-0.332507
-0.333308
-0.334134
-0.334986
-0.335864
-0.336769
-0.3377
-0.338658
-0.339643
-0.340657
-0.341699
-0.342769
-0.34387
-0.345
-0.346162
-0.347356
-0.348583
-0.349844
-0.351143
-0.352481
-0.353862
-0.355289
-0.356767
-0.358303
-0.359905
-0.361576
-0.363318
-0.365351
-0.366231
-0.31606
-0.317205
-0.317661
-0.318294
-0.31877
-0.319234
-0.319647
-0.320038
-0.32041
-0.320773
-0.321133
-0.321495
-0.321865
-0.322245
-0.32264
-0.323051
-0.32348
-0.323929
-0.324399
-0.32489
-0.325404
-0.32594
-0.326498
-0.32708
-0.327685
-0.328314
-0.328966
-0.329642
-0.330342
-0.331066
-0.331815
-0.332588
-0.333386
-0.33421
-0.335059
-0.335934
-0.336835
-0.337762
-0.338717
-0.339699
-0.340709
-0.341747
-0.342813
-0.34391
-0.345036
-0.346192
-0.347381
-0.348602
-0.349858
-0.35115
-0.352481
-0.353854
-0.355273
-0.356743
-0.35827
-0.359863
-0.361526
-0.363256
-0.365311
-0.366089
-0.316297
-0.317418
-0.317865
-0.318487
-0.318954
-0.319411
-0.319817
-0.320203
-0.32057
-0.320928
-0.321283
-0.321641
-0.322007
-0.322384
-0.322775
-0.323183
-0.323609
-0.324055
-0.324521
-0.32501
-0.32552
-0.326053
-0.326608
-0.327187
-0.327789
-0.328415
-0.329064
-0.329737
-0.330434
-0.331155
-0.3319
-0.33267
-0.333465
-0.334285
-0.335131
-0.336002
-0.3369
-0.337824
-0.338775
-0.339753
-0.340759
-0.341793
-0.342855
-0.343947
-0.345068
-0.34622
-0.347403
-0.348618
-0.349868
-0.351153
-0.352476
-0.353841
-0.355251
-0.356712
-0.35823
-0.359813
-0.361468
-0.363183
-0.365264
-0.365932
-0.31654
-0.317636
-0.318075
-0.318685
-0.319144
-0.319593
-0.319993
-0.320372
-0.320734
-0.321087
-0.321438
-0.321792
-0.322154
-0.322527
-0.322914
-0.323318
-0.323741
-0.324183
-0.324646
-0.325131
-0.325638
-0.326168
-0.32672
-0.327296
-0.327895
-0.328517
-0.329163
-0.329832
-0.330526
-0.331243
-0.331985
-0.332752
-0.333543
-0.33436
-0.335202
-0.336069
-0.336963
-0.337884
-0.338831
-0.339805
-0.340806
-0.341836
-0.342894
-0.343981
-0.345097
-0.346243
-0.347421
-0.34863
-0.349873
-0.351151
-0.352466
-0.353822
-0.355224
-0.356675
-0.358182
-0.359755
-0.361402
-0.3631
-0.36521
-0.365757
-0.31679
-0.317862
-0.318292
-0.318889
-0.31934
-0.31978
-0.320173
-0.320547
-0.320902
-0.321251
-0.321597
-0.321946
-0.322304
-0.322673
-0.323056
-0.323457
-0.323876
-0.324314
-0.324774
-0.325255
-0.325759
-0.326285
-0.326834
-0.327406
-0.328001
-0.32862
-0.329262
-0.329928
-0.330618
-0.331332
-0.33207
-0.332833
-0.333621
-0.334434
-0.335272
-0.336135
-0.337025
-0.337941
-0.338884
-0.339854
-0.340851
-0.341876
-0.342929
-0.344011
-0.345122
-0.346263
-0.347434
-0.348637
-0.349873
-0.351143
-0.35245
-0.353798
-0.355189
-0.35663
-0.358127
-0.359689
-0.361327
-0.363004
-0.365151
-0.365564
-0.317046
-0.318092
-0.318514
-0.319099
-0.31954
-0.319972
-0.320358
-0.320725
-0.321076
-0.321418
-0.321759
-0.322104
-0.322458
-0.322822
-0.323202
-0.323598
-0.324013
-0.324448
-0.324904
-0.325381
-0.325881
-0.326403
-0.326949
-0.327517
-0.328109
-0.328724
-0.329362
-0.330024
-0.33071
-0.33142
-0.332155
-0.332914
-0.333697
-0.334506
-0.33534
-0.3362
-0.337085
-0.337997
-0.338935
-0.339901
-0.340893
-0.341913
-0.342961
-0.344038
-0.345143
-0.346278
-0.347443
-0.348639
-0.349867
-0.35113
-0.352428
-0.353766
-0.355148
-0.356578
-0.358063
-0.359613
-0.361243
-0.362896
-0.365086
-0.36535
-0.317308
-0.318329
-0.318741
-0.319313
-0.319746
-0.320169
-0.320548
-0.320909
-0.321253
-0.32159
-0.321926
-0.322266
-0.322615
-0.322975
-0.32335
-0.323742
-0.324153
-0.324584
-0.325036
-0.325509
-0.326005
-0.326523
-0.327065
-0.327629
-0.328217
-0.328828
-0.329462
-0.33012
-0.330802
-0.331508
-0.332238
-0.332993
-0.333773
-0.334577
-0.335406
-0.336262
-0.337143
-0.33805
-0.338983
-0.339944
-0.340931
-0.341946
-0.342989
-0.34406
-0.345159
-0.346288
-0.347446
-0.348635
-0.349856
-0.35111
-0.3524
-0.353728
-0.355099
-0.356518
-0.357991
-0.359529
-0.36115
-0.362775
-0.365016
-0.365113
-0.317576
-0.318571
-0.318974
-0.319533
-0.319956
-0.320371
-0.320742
-0.321096
-0.321434
-0.321765
-0.322096
-0.322431
-0.322775
-0.32313
-0.323501
-0.323889
-0.324295
-0.324722
-0.325169
-0.325639
-0.32613
-0.326644
-0.327181
-0.327742
-0.328325
-0.328932
-0.329562
-0.330216
-0.330894
-0.331595
-0.332321
-0.333071
-0.333846
-0.334646
-0.335471
-0.336321
-0.337197
-0.338099
-0.339028
-0.339983
-0.340966
-0.341975
-0.343012
-0.344077
-0.34517
-0.346292
-0.347444
-0.348625
-0.349838
-0.351084
-0.352364
-0.353683
-0.355043
-0.35645
-0.357911
-0.359434
-0.361047
-0.362639
-0.364944
-0.364849
-0.31785
-0.318818
-0.319211
-0.319757
-0.320171
-0.320577
-0.320941
-0.321287
-0.321619
-0.321945
-0.32227
-0.322599
-0.322938
-0.323289
-0.323654
-0.324037
-0.324439
-0.324861
-0.325304
-0.325769
-0.326256
-0.326766
-0.327299
-0.327855
-0.328433
-0.329036
-0.329661
-0.330311
-0.330984
-0.331681
-0.332402
-0.333147
-0.333917
-0.334712
-0.335532
-0.336378
-0.337249
-0.338146
-0.339069
-0.340019
-0.340996
-0.341999
-0.34303
-0.344089
-0.345176
-0.346291
-0.347436
-0.348609
-0.349814
-0.351051
-0.352322
-0.35363
-0.354978
-0.356373
-0.357821
-0.35933
-0.360935
-0.362487
-0.364871
-0.364554
-0.318129
-0.31907
-0.319454
-0.319986
-0.320391
-0.320787
-0.321143
-0.321482
-0.321807
-0.322127
-0.322446
-0.32277
-0.323104
-0.323449
-0.32381
-0.324188
-0.324585
-0.325003
-0.325441
-0.325901
-0.326383
-0.326889
-0.327417
-0.327968
-0.328542
-0.329139
-0.32976
-0.330405
-0.331073
-0.331765
-0.332481
-0.333221
-0.333986
-0.334776
-0.335591
-0.336431
-0.337297
-0.338188
-0.339106
-0.34005
-0.341021
-0.342019
-0.343044
-0.344096
-0.345176
-0.346284
-0.347421
-0.348587
-0.349783
-0.351011
-0.352272
-0.353569
-0.354905
-0.356288
-0.357722
-0.359216
-0.360814
-0.362319
-0.364798
-0.364227
-0.318413
-0.319327
-0.319701
-0.32022
-0.320614
-0.321001
-0.321349
-0.321681
-0.321999
-0.322313
-0.322626
-0.322944
-0.323272
-0.323612
-0.323968
-0.324341
-0.324733
-0.325145
-0.325578
-0.326034
-0.326511
-0.327011
-0.327534
-0.32808
-0.32865
-0.329242
-0.329858
-0.330497
-0.33116
-0.331847
-0.332558
-0.333293
-0.334053
-0.334837
-0.335646
-0.336481
-0.337341
-0.338227
-0.339139
-0.340077
-0.341041
-0.342033
-0.343051
-0.344097
-0.34517
-0.346271
-0.3474
-0.348557
-0.349745
-0.350963
-0.352214
-0.353499
-0.354824
-0.356193
-0.357614
-0.359091
-0.360683
-0.362133
-0.364727
-0.363861
-0.318701
-0.319588
-0.319952
-0.320457
-0.320842
-0.321219
-0.321559
-0.321883
-0.322195
-0.322501
-0.322808
-0.323121
-0.323443
-0.323778
-0.324128
-0.324495
-0.324882
-0.325289
-0.325717
-0.326167
-0.326639
-0.327134
-0.327652
-0.328193
-0.328757
-0.329344
-0.329954
-0.330588
-0.331246
-0.331927
-0.332633
-0.333362
-0.334116
-0.334895
-0.335698
-0.336527
-0.337381
-0.338261
-0.339166
-0.340098
-0.341056
-0.342041
-0.343053
-0.344091
-0.345157
-0.34625
-0.347371
-0.34852
-0.349699
-0.350907
-0.352147
-0.353422
-0.354734
-0.35609
-0.357496
-0.358956
-0.360543
-0.361929
-0.36466
-0.363444
-0.318995
-0.319854
-0.320208
-0.320699
-0.321073
-0.321441
-0.321772
-0.322089
-0.322393
-0.322693
-0.322994
-0.3233
-0.323616
-0.323945
-0.324289
-0.324651
-0.325032
-0.325433
-0.325856
-0.326301
-0.326767
-0.327257
-0.327769
-0.328304
-0.328863
-0.329444
-0.330049
-0.330678
-0.331329
-0.332005
-0.332705
-0.333428
-0.334176
-0.334949
-0.335746
-0.336569
-0.337416
-0.33829
-0.339189
-0.340114
-0.341066
-0.342044
-0.343048
-0.344079
-0.345137
-0.346223
-0.347335
-0.348476
-0.349645
-0.350843
-0.352073
-0.353336
-0.354635
-0.355977
-0.357368
-0.358809
-0.360393
-0.361705
-0.364607
-0.362955
-0.319292
-0.320124
-0.320467
-0.320944
-0.321308
-0.321666
-0.321989
-0.322298
-0.322594
-0.322887
-0.323181
-0.323481
-0.323791
-0.324114
-0.324452
-0.324808
-0.325183
-0.325579
-0.325996
-0.326434
-0.326895
-0.327379
-0.327885
-0.328415
-0.328967
-0.329543
-0.330142
-0.330765
-0.331411
-0.33208
-0.332774
-0.333491
-0.334233
-0.334999
-0.33579
-0.336606
-0.337447
-0.338314
-0.339206
-0.340125
-0.341069
-0.34204
-0.343037
-0.34406
-0.345111
-0.346188
-0.347292
-0.348423
-0.349583
-0.350771
-0.35199
-0.353241
-0.354527
-0.355855
-0.357231
-0.358653
-0.360234
-0.361458
-0.364555
-0.362465
-0.319593
-0.320397
-0.320731
-0.321193
-0.321547
-0.321895
-0.322209
-0.322509
-0.322798
-0.323084
-0.323371
-0.323664
-0.323968
-0.324284
-0.324616
-0.324966
-0.325335
-0.325725
-0.326135
-0.326568
-0.327023
-0.327501
-0.328001
-0.328524
-0.329071
-0.32964
-0.330233
-0.330849
-0.331489
-0.332152
-0.332839
-0.33355
-0.334285
-0.335045
-0.335829
-0.336638
-0.337473
-0.338333
-0.339218
-0.340129
-0.341066
-0.342029
-0.343019
-0.344034
-0.345077
-0.346145
-0.347241
-0.348363
-0.349512
-0.35069
-0.351898
-0.353136
-0.35441
-0.355723
-0.357083
-0.358485
-0.360064
-0.361202
-0.364361
-0.362292
-0.319897
-0.320674
-0.320997
-0.321445
-0.321788
-0.322126
-0.322431
-0.322723
-0.323005
-0.323283
-0.323563
-0.32385
-0.324146
-0.324456
-0.324782
-0.325125
-0.325488
-0.325871
-0.326275
-0.326701
-0.32715
-0.327621
-0.328115
-0.328632
-0.329172
-0.329735
-0.330322
-0.330931
-0.331564
-0.332221
-0.332901
-0.333606
-0.334334
-0.335087
-0.335864
-0.336666
-0.337493
-0.338346
-0.339224
-0.340127
-0.341057
-0.342012
-0.342993
-0.344001
-0.345035
-0.346095
-0.347181
-0.348294
-0.349433
-0.350601
-0.351796
-0.353023
-0.354283
-0.355581
-0.356925
-0.358303
-0.359872
-0.361035
-0.364016
-0.362158
-0.320205
-0.320954
-0.321267
-0.3217
-0.322033
-0.322361
-0.322657
-0.32294
-0.323214
-0.323485
-0.323757
-0.324037
-0.324326
-0.324629
-0.324948
-0.325285
-0.325641
-0.326017
-0.326415
-0.326834
-0.327276
-0.327741
-0.328228
-0.328739
-0.329272
-0.329828
-0.330408
-0.331011
-0.331637
-0.332286
-0.33296
-0.333657
-0.334378
-0.335123
-0.335893
-0.336688
-0.337508
-0.338353
-0.339223
-0.340119
-0.34104
-0.341988
-0.342961
-0.34396
-0.344985
-0.346036
-0.347113
-0.348216
-0.349345
-0.350502
-0.351686
-0.3529
-0.354146
-0.355429
-0.356758
-0.358122
-0.35965
-0.360854
-0.363686
-0.36197
-0.320516
-0.321237
-0.32154
-0.321959
-0.322281
-0.322598
-0.322885
-0.32316
-0.323425
-0.323688
-0.323953
-0.324225
-0.324507
-0.324803
-0.325115
-0.325445
-0.325794
-0.326163
-0.326554
-0.326967
-0.327402
-0.327859
-0.32834
-0.328843
-0.329369
-0.329919
-0.330491
-0.331087
-0.331705
-0.332348
-0.333014
-0.333704
-0.334417
-0.335155
-0.335918
-0.336705
-0.337517
-0.338354
-0.339216
-0.340104
-0.341017
-0.341956
-0.342921
-0.343911
-0.344927
-0.345969
-0.347036
-0.34813
-0.349249
-0.350394
-0.351566
-0.352767
-0.354
-0.355267
-0.356579
-0.357928
-0.359423
-0.360643
-0.363374
-0.361742
-0.32083
-0.321523
-0.321816
-0.32222
-0.322531
-0.322838
-0.323115
-0.323381
-0.323638
-0.323893
-0.324151
-0.324415
-0.32469
-0.324978
-0.325283
-0.325605
-0.325947
-0.326309
-0.326693
-0.327098
-0.327526
-0.327976
-0.328449
-0.328945
-0.329464
-0.330006
-0.330571
-0.331159
-0.331771
-0.332405
-0.333064
-0.333746
-0.334452
-0.335182
-0.335936
-0.336715
-0.337519
-0.338348
-0.339202
-0.340082
-0.340986
-0.341917
-0.342873
-0.343854
-0.344861
-0.345893
-0.346951
-0.348034
-0.349142
-0.350276
-0.351437
-0.352625
-0.353843
-0.355096
-0.35639
-0.357721
-0.359189
-0.360411
-0.363066
-0.361483
-0.321147
-0.321812
-0.322094
-0.322484
-0.322784
-0.32308
-0.323348
-0.323605
-0.323854
-0.3241
-0.32435
-0.324606
-0.324873
-0.325154
-0.325451
-0.325766
-0.3261
-0.326454
-0.32683
-0.327228
-0.327648
-0.328091
-0.328557
-0.329045
-0.329556
-0.330091
-0.330648
-0.331228
-0.331832
-0.332459
-0.333109
-0.333783
-0.334481
-0.335203
-0.335949
-0.33672
-0.337516
-0.338336
-0.339182
-0.340052
-0.340948
-0.34187
-0.342817
-0.343789
-0.344787
-0.345809
-0.346857
-0.347929
-0.349027
-0.35015
-0.351298
-0.352473
-0.353677
-0.354914
-0.356191
-0.357504
-0.358947
-0.360164
-0.362756
-0.361197
-0.321465
-0.322104
-0.322375
-0.32275
-0.32304
-0.323325
-0.323583
-0.323831
-0.324071
-0.324309
-0.32455
-0.324798
-0.325057
-0.32533
-0.325619
-0.325926
-0.326252
-0.326599
-0.326967
-0.327357
-0.32777
-0.328204
-0.328662
-0.329142
-0.329646
-0.330172
-0.330721
-0.331293
-0.331889
-0.332508
-0.33315
-0.333816
-0.334505
-0.335219
-0.335957
-0.336719
-0.337506
-0.338317
-0.339154
-0.340016
-0.340903
-0.341815
-0.342753
-0.343715
-0.344703
-0.345716
-0.346754
-0.347816
-0.348902
-0.350013
-0.351149
-0.352311
-0.353501
-0.354722
-0.355982
-0.357277
-0.358695
-0.359901
-0.362443
-0.360883
-0.321786
-0.322397
-0.322658
-0.323018
-0.323297
-0.323571
-0.32382
-0.324058
-0.324289
-0.324519
-0.324751
-0.324991
-0.325242
-0.325507
-0.325788
-0.326086
-0.326404
-0.326743
-0.327103
-0.327485
-0.327889
-0.328316
-0.328765
-0.329237
-0.329732
-0.33025
-0.330791
-0.331355
-0.331942
-0.332552
-0.333186
-0.333843
-0.334524
-0.335229
-0.335958
-0.336711
-0.337489
-0.338292
-0.339119
-0.339972
-0.340849
-0.341752
-0.34268
-0.343633
-0.344611
-0.345614
-0.346641
-0.347692
-0.348768
-0.349867
-0.350991
-0.35214
-0.353315
-0.354521
-0.355763
-0.357038
-0.358433
-0.359623
-0.362126
-0.360545
-0.322109
-0.322693
-0.322943
-0.323289
-0.323557
-0.32382
-0.324059
-0.324288
-0.324509
-0.32473
-0.324954
-0.325185
-0.325428
-0.325684
-0.325956
-0.326246
-0.326556
-0.326886
-0.327237
-0.327611
-0.328006
-0.328424
-0.328865
-0.329329
-0.329815
-0.330324
-0.330857
-0.331412
-0.33199
-0.332592
-0.333216
-0.333865
-0.334537
-0.335232
-0.335952
-0.336697
-0.337465
-0.338259
-0.339077
-0.33992
-0.340788
-0.341681
-0.3426
-0.343543
-0.344511
-0.345503
-0.346519
-0.34756
-0.348624
-0.349712
-0.350823
-0.351958
-0.35312
-0.354309
-0.355534
-0.35679
-0.358162
-0.359332
-0.361805
-0.360184
-0.322433
-0.32299
-0.32323
-0.323561
-0.323818
-0.32407
-0.324299
-0.324518
-0.324731
-0.324942
-0.325157
-0.32538
-0.325613
-0.325861
-0.326124
-0.326405
-0.326706
-0.327028
-0.32737
-0.327735
-0.328121
-0.328531
-0.328963
-0.329417
-0.329895
-0.330395
-0.330918
-0.331464
-0.332034
-0.332626
-0.333242
-0.333881
-0.334544
-0.33523
-0.335941
-0.336676
-0.337435
-0.338219
-0.339027
-0.339861
-0.340719
-0.341602
-0.342511
-0.343444
-0.344401
-0.345383
-0.346389
-0.347418
-0.348471
-0.349546
-0.350645
-0.351767
-0.352914
-0.354087
-0.355295
-0.356531
-0.357881
-0.359027
-0.361477
-0.359801
-0.322758
-0.323289
-0.323519
-0.323836
-0.324081
-0.324323
-0.324541
-0.32475
-0.324953
-0.325156
-0.325361
-0.325575
-0.325799
-0.326037
-0.326292
-0.326564
-0.326856
-0.327168
-0.327502
-0.327857
-0.328234
-0.328634
-0.329057
-0.329503
-0.329971
-0.330462
-0.330976
-0.331513
-0.332073
-0.332655
-0.333262
-0.333891
-0.334545
-0.335222
-0.335923
-0.336648
-0.337397
-0.338171
-0.33897
-0.339793
-0.340642
-0.341515
-0.342413
-0.343336
-0.344283
-0.345254
-0.346248
-0.347267
-0.348308
-0.349371
-0.350457
-0.351566
-0.352698
-0.353856
-0.355046
-0.356262
-0.35759
-0.358709
-0.361143
-0.359396
-0.323085
-0.32359
-0.32381
-0.324112
-0.324346
-0.324576
-0.324784
-0.324984
-0.325177
-0.32537
-0.325566
-0.32577
-0.325985
-0.326214
-0.326459
-0.326722
-0.327004
-0.327307
-0.327631
-0.327977
-0.328345
-0.328735
-0.329149
-0.329585
-0.330043
-0.330525
-0.331029
-0.331556
-0.332106
-0.33268
-0.333276
-0.333896
-0.334539
-0.335207
-0.335898
-0.336613
-0.337352
-0.338116
-0.338905
-0.339718
-0.340556
-0.341419
-0.342307
-0.343219
-0.344155
-0.345115
-0.346099
-0.347106
-0.348135
-0.349187
-0.35026
-0.351355
-0.352473
-0.353615
-0.354787
-0.355983
-0.357291
-0.358379
-0.360802
-0.358972
-0.323413
-0.323892
-0.324101
-0.324389
-0.324612
-0.324831
-0.325029
-0.325218
-0.325402
-0.325585
-0.325772
-0.325966
-0.326171
-0.326391
-0.326626
-0.326879
-0.327151
-0.327444
-0.327759
-0.328095
-0.328453
-0.328834
-0.329237