/*--------------------------------*- C++ -*----------------------------------*\
  =========                 |
  \\      /  F ield         | OpenFOAM: The Open Source CFD Toolbox
   \\    /   O peration     | Website:  https://openfoam.org
    \\  /    A nd           | Version:  9
     \\/     M anipulation  |
\*---------------------------------------------------------------------------*/
FoamFile
{
    format      ascii;
    class       volScalarField;
    location    "13.1";
    object      p;
}
// * * * * * * * * * * * * * * * * * * * * * * * * * * * * * * * * * * * * * //

dimensions      [0 2 -2 0 0 0 0];

internalField   nonuniform List<scalar> 
8500
(
-0.314991
-0.319801
-0.321104
-0.323805
-0.327355
-0.329639
-0.336418
-0.336479
-0.348393
-0.347344
-0.315312
-0.320039
-0.321337
-0.323999
-0.327586
-0.32973
-0.336746
-0.336332
-0.348822
-0.347068
-0.315942
-0.320505
-0.321791
-0.324372
-0.32803
-0.329891
-0.33738
-0.336012
-0.34964
-0.34652
-0.31686
-0.321183
-0.322445
-0.324897
-0.328657
-0.330083
-0.338268
-0.335479
-0.350767
-0.345704
-0.318036
-0.322048
-0.323269
-0.325538
-0.329422
-0.330263
-0.339336
-0.334689
-0.352097
-0.34462
-0.319433
-0.323072
-0.324229
-0.326251
-0.330267
-0.330388
-0.340488
-0.333615
-0.353509
-0.343235
-0.321012
-0.324223
-0.325285
-0.326995
-0.331127
-0.330426
-0.341613
-0.332235
-0.354895
-0.341498
-0.322732
-0.325472
-0.326399
-0.327731
-0.331935
-0.33036
-0.342604
-0.330564
-0.356088
-0.3397
-0.324556
-0.326791
-0.327534
-0.32843
-0.332624
-0.330195
-0.343338
-0.328859
-0.35683
-0.337577
-0.326451
-0.328155
-0.328656
-0.32907
-0.333132
-0.329982
-0.343543
-0.327151
-0.357378
-0.335036
-0.328392
-0.329549
-0.329742
-0.329645
-0.333383
-0.329876
-0.343294
-0.325306
-0.357632
-0.332378
-0.330365
-0.330961
-0.330775
-0.330171
-0.33334
-0.329765
-0.342667
-0.323543
-0.35725
-0.330229
-0.332364
-0.33239
-0.331746
-0.330664
-0.333071
-0.329616
-0.341597
-0.322241
-0.355596
-0.329158
-0.334395
-0.33384
-0.332659
-0.3311
-0.332644
-0.32945
-0.340055
-0.321586
-0.352247
-0.329084
-0.336481
-0.335319
-0.333559
-0.331481
-0.332111
-0.32927
-0.338123
-0.321504
-0.34721
-0.328946
-0.338654
-0.336849
-0.334478
-0.331839
-0.331544
-0.328895
-0.335944
-0.321589
-0.341075
-0.327491
-0.340955
-0.338458
-0.335454
-0.332219
-0.331039
-0.328296
-0.333603
-0.321403
-0.334511
-0.324193
-0.343434
-0.340183
-0.336533
-0.332664
-0.330656
-0.327498
-0.331057
-0.320697
-0.327723
-0.319145
-0.34615
-0.342064
-0.337766
-0.333209
-0.330389
-0.3266
-0.328214
-0.31933
-0.320572
-0.312812
-0.349169
-0.344145
-0.339206
-0.333875
-0.330185
-0.325691
-0.325066
-0.317109
-0.313073
-0.30588
-0.352552
-0.346479
-0.340905
-0.334653
-0.330013
-0.324775
-0.321679
-0.313839
-0.30582
-0.298764
-0.356341
-0.349139
-0.342894
-0.335521
-0.329904
-0.323759
-0.318101
-0.309567
-0.299086
-0.290729
-0.360616
-0.352176
-0.345168
-0.336488
-0.329905
-0.322506
-0.314324
-0.30459
-0.292256
-0.282657
-0.36544
-0.355649
-0.347673
-0.337641
-0.329988
-0.320909
-0.310317
-0.29906
-0.285392
-0.274714
-0.370872
-0.359605
-0.350353
-0.339108
-0.330043
-0.318909
-0.306035
-0.29317
-0.278423
-0.266811
-0.376979
-0.364045
-0.35322
-0.340943
-0.329938
-0.316481
-0.301463
-0.287005
-0.271346
-0.258991
-0.383834
-0.368908
-0.356404
-0.34304
-0.329572
-0.313626
-0.29659
-0.280624
-0.264171
-0.251172
-0.391505
-0.374089
-0.360117
-0.345179
-0.328865
-0.31035
-0.291415
-0.274048
-0.256889
-0.243341
-0.400028
-0.379484
-0.36454
-0.347145
-0.327748
-0.30666
-0.285938
-0.267279
-0.249494
-0.235449
-0.409368
-0.385042
-0.369688
-0.348793
-0.326151
-0.302553
-0.28015
-0.260307
-0.241967
-0.227472
-0.419394
-0.390787
-0.375348
-0.350034
-0.324016
-0.29801
-0.27404
-0.253114
-0.234287
-0.219375
-0.429858
-0.396808
-0.381102
-0.350792
-0.321291
-0.293006
-0.267586
-0.24568
-0.226428
-0.211134
-0.440425
-0.403207
-0.386452
-0.350977
-0.317939
-0.287506
-0.260761
-0.23798
-0.218365
-0.202721
-0.450772
-0.41004
-0.390943
-0.350472
-0.313923
-0.281475
-0.253537
-0.229986
-0.210073
-0.194114
-0.460597
-0.41726
-0.394237
-0.349144
-0.309203
-0.274882
-0.245881
-0.221669
-0.201528
-0.185291
-0.46965
-0.424673
-0.396131
-0.346858
-0.303735
-0.267696
-0.237761
-0.213001
-0.192708
-0.176232
-0.477733
-0.431931
-0.396539
-0.343491
-0.297469
-0.259884
-0.229147
-0.203955
-0.18359
-0.16692
-0.484692
-0.438556
-0.395461
-0.338948
-0.290352
-0.251413
-0.220012
-0.194508
-0.174153
-0.157345
-0.490402
-0.444015
-0.392927
-0.333166
-0.282332
-0.242252
-0.210331
-0.184639
-0.164381
-0.147515
-0.494759
-0.447842
-0.388904
-0.326098
-0.273362
-0.232366
-0.200079
-0.174327
-0.154259
-0.137452
-0.497662
-0.449709
-0.383268
-0.317701
-0.2634
-0.221727
-0.189239
-0.163556
-0.143772
-0.127168
-0.499004
-0.449347
-0.375931
-0.307932
-0.252413
-0.210311
-0.177794
-0.15231
-0.132911
-0.11663
-0.498651
-0.446561
-0.366836
-0.296754
-0.240373
-0.198098
-0.165731
-0.140577
-0.121691
-0.105768
-0.496442
-0.441225
-0.355938
-0.284144
-0.227261
-0.185074
-0.153034
-0.128344
-0.110153
-0.0945077
-0.492187
-0.433252
-0.343186
-0.270106
-0.213065
-0.171226
-0.139695
-0.11561
-0.0983383
-0.0828498
-0.485673
-0.422588
-0.328544
-0.254644
-0.19777
-0.15655
-0.125723
-0.102415
-0.0862056
-0.0709457
-0.476683
-0.4092
-0.311994
-0.237755
-0.181365
-0.141074
-0.111156
-0.0888519
-0.0736407
-0.0588477
-0.465004
-0.393073
-0.293526
-0.219438
-0.163867
-0.124858
-0.0960427
-0.074893
-0.0606656
-0.0465556
-0.450442
-0.374208
-0.273133
-0.199712
-0.145375
-0.107942
-0.0803554
-0.0605417
-0.0473284
-0.0340733
-0.432838
-0.352628
-0.250802
-0.178665
-0.126013
-0.0902504
-0.0641328
-0.0458098
-0.0336752
-0.0214156
-0.412078
-0.328396
-0.226542
-0.156465
-0.105708
-0.0718344
-0.0474146
-0.0307213
-0.0197475
-0.0086099
-0.388099
-0.301638
-0.200457
-0.133058
-0.0845218
-0.0527519
-0.0302441
-0.0153087
-0.00558514
0.00430684
-0.360892
-0.272496
-0.172734
-0.108382
-0.0625153
-0.0330684
-0.0126688
0.000388224
0.00877309
0.0172906
-0.33051
-0.240983
-0.143527
-0.0825528
-0.0397565
-0.0128537
0.0052571
0.0163254
0.0232914
0.0302969
-0.297078
-0.206929
-0.113153
-0.0557128
-0.0163203
0.00781694
0.0234733
0.0324576
0.0379391
0.0432823
-0.260764
-0.170622
-0.0815969
-0.0280109
0.00770602
0.0288636
0.0419151
0.0487435
0.0526847
0.0561767
-0.221658
-0.132485
-0.0489196
0.000406962
0.032222
0.050201
0.0605173
0.0651494
0.0674735
0.0688068
-0.179781
-0.0931002
-0.0152557
0.0293982
0.0571163
0.0717392
0.079218
0.0816425
0.0821935
0.0808349
-0.135596
-0.05264
0.0192135
0.0588192
0.0822694
0.093385
0.0979564
0.0981635
0.0966696
0.0919693
-0.0894639
-0.0113021
0.0542827
0.0885202
0.107555
0.115043
0.116665
0.114602
0.110737
0.102527
-0.0417695
0.0306741
0.0897314
0.118344
0.132842
0.136616
0.135258
0.130815
0.124339
0.11383
0.00708245
0.0730235
0.12533
0.148125
0.157998
0.158002
0.153639
0.146693
0.137684
0.125664
0.0566705
0.115463
0.160842
0.177695
0.182885
0.179097
0.171713
0.162203
0.15082
0.137544
0.106562
0.1577
0.196031
0.206877
0.207366
0.199791
0.189385
0.177299
0.163695
0.14929
0.156316
0.199435
0.230658
0.235496
0.231302
0.219975
0.206565
0.191935
0.176233
0.160719
0.205493
0.240365
0.264487
0.263375
0.254556
0.239537
0.223168
0.206053
0.188369
0.171736
0.253654
0.280192
0.297285
0.290338
0.276989
0.258369
0.239111
0.219591
0.200035
0.182259
0.300369
0.318622
0.328825
0.316213
0.298469
0.276365
0.25431
0.232486
0.211167
0.192231
0.345216
0.355375
0.35889
0.340832
0.318865
0.293421
0.268688
0.244675
0.221704
0.201601
0.387786
0.390192
0.387269
0.364033
0.338051
0.309439
0.282167
0.256096
0.231588
0.210326
0.427704
0.422815
0.413766
0.385662
0.355908
0.324324
0.294674
0.26669
0.240766
0.218369
0.464668
0.452958
0.438191
0.405572
0.372323
0.337988
0.306141
0.276402
0.249185
0.225695
0.498383
0.480361
0.460367
0.423627
0.387193
0.350351
0.316505
0.285179
0.256797
0.232274
0.528561
0.504809
0.480136
0.439705
0.400421
0.361338
0.325707
0.292972
0.26356
0.238079
0.554936
0.526115
0.497354
0.453697
0.411924
0.370882
0.333695
0.299739
0.269432
0.243089
0.577278
0.54412
0.511897
0.465505
0.421626
0.378927
0.340424
0.305439
0.274381
0.247287
0.595392
0.558689
0.52366
0.47505
0.429465
0.385422
0.345855
0.31004
0.278375
0.250658
0.609118
0.569711
0.532557
0.482267
0.435389
0.390329
0.349956
0.313515
0.281392
0.253193
0.618336
0.577105
0.538525
0.487105
0.43936
0.393617
0.352703
0.315843
0.283413
0.254886
0.622966
0.580817
0.541519
0.489533
0.441352
0.395266
0.354081
0.31701
0.284427
0.255732
0.622966
0.580817
0.541519
0.489533
0.441352
0.395266
0.354081
0.31701
0.284427
0.255732
0.618336
0.577105
0.538525
0.487105
0.43936
0.393617
0.352703
0.315843
0.283413
0.254886
0.609118
0.569711
0.532557
0.482267
0.435389
0.390329
0.349956
0.313515
0.281392
0.253193
0.595392
0.558689
0.52366
0.47505
0.429465
0.385422
0.345855
0.31004
0.278375
0.250658
0.577278
0.54412
0.511897
0.465505
0.421626
0.378927
0.340424
0.305439
0.274381
0.247287
0.554936
0.526115
0.497354
0.453697
0.411924
0.370882
0.333695
0.299739
0.269432
0.243089
0.528561
0.504809
0.480136
0.439705
0.400421
0.361338
0.325707
0.292972
0.26356
0.238079
0.498383
0.480361
0.460367
0.423627
0.387193
0.350351
0.316505
0.285179
0.256797
0.232274
0.464668
0.452958
0.438191
0.405572
0.372323
0.337988
0.306141
0.276402
0.249185
0.225695
0.427704
0.422815
0.413766
0.385662
0.355908
0.324324
0.294674
0.26669
0.240766
0.218369
0.387786
0.390192
0.387269
0.364033
0.338051
0.309439
0.282166
0.256096
0.231588
0.210326
0.345216
0.355375
0.35889
0.340832
0.318865
0.293421
0.268688
0.244675
0.221704
0.201601
0.300369
0.318622
0.328825
0.316213
0.298469
0.276365
0.25431
0.232486
0.211167
0.192231
0.253654
0.280192
0.297285
0.290338
0.276989
0.258369
0.239111
0.219591
0.200035
0.182259
0.205493
0.240365
0.264487
0.263375
0.254556
0.239537
0.223168
0.206053
0.188369
0.171736
0.156316
0.199435
0.230658
0.235496
0.231302
0.219975
0.206565
0.191935
0.176233
0.160719
0.106562
0.1577
0.196031
0.206877
0.207366
0.199791
0.189385
0.177299
0.163695
0.14929
0.0566705
0.115463
0.160842
0.177695
0.182885
0.179097
0.171713
0.162203
0.15082
0.137544
0.00708244
0.0730235
0.12533
0.148125
0.157998
0.158002
0.153639
0.146693
0.137684
0.125664
-0.0417695
0.0306741
0.0897314
0.118344
0.132842
0.136616
0.135258
0.130815
0.124339
0.11383
-0.0894639
-0.0113021
0.0542827
0.0885202
0.107555
0.115043
0.116665
0.114602
0.110737
0.102527
-0.135596
-0.05264
0.0192135
0.0588192
0.0822694
0.093385
0.0979564
0.0981635
0.0966696
0.0919693
-0.179781
-0.0931002
-0.0152557
0.0293982
0.0571163
0.0717392
0.079218
0.0816425
0.0821935
0.0808349
-0.221658
-0.132485
-0.0489196
0.00040696
0.032222
0.050201
0.0605173
0.0651494
0.0674735
0.0688068
-0.260764
-0.170622
-0.0815969
-0.0280109
0.00770602
0.0288636
0.0419151
0.0487435
0.0526847
0.0561767
-0.297078
-0.206929
-0.113153
-0.0557128
-0.0163203
0.00781694
0.0234733
0.0324576
0.0379391
0.0432823
-0.33051
-0.240983
-0.143527
-0.0825528
-0.0397565
-0.0128537
0.00525709
0.0163254
0.0232914
0.0302969
-0.360892
-0.272496
-0.172734
-0.108382
-0.0625153
-0.0330684
-0.0126688
0.000388224
0.00877309
0.0172906
-0.388099
-0.301638
-0.200457
-0.133058
-0.0845218
-0.0527519
-0.0302441
-0.0153087
-0.00558514
0.00430685
-0.412078
-0.328396
-0.226542
-0.156465
-0.105708
-0.0718344
-0.0474146
-0.0307213
-0.0197475
-0.0086099
-0.432838
-0.352628
-0.250802
-0.178665
-0.126013
-0.0902504
-0.0641328
-0.0458098
-0.0336752
-0.0214156
-0.450442
-0.374208
-0.273133
-0.199712
-0.145375
-0.107942
-0.0803554
-0.0605417
-0.0473284
-0.0340733
-0.465004
-0.393073
-0.293526
-0.219438
-0.163867
-0.124858
-0.0960427
-0.074893
-0.0606656
-0.0465556
-0.476683
-0.4092
-0.311994
-0.237755
-0.181365
-0.141074
-0.111156
-0.0888519
-0.0736407
-0.0588477
-0.485673
-0.422588
-0.328544
-0.254644
-0.19777
-0.15655
-0.125723
-0.102415
-0.0862056
-0.0709457
-0.492187
-0.433252
-0.343186
-0.270106
-0.213065
-0.171226
-0.139695
-0.11561
-0.0983383
-0.0828498
-0.496442
-0.441225
-0.355938
-0.284144
-0.227261
-0.185074
-0.153034
-0.128344
-0.110153
-0.0945077
-0.498651
-0.446561
-0.366836
-0.296754
-0.240373
-0.198098
-0.165731
-0.140577
-0.121691
-0.105768
-0.499004
-0.449347
-0.375931
-0.307932
-0.252413
-0.210311
-0.177794
-0.15231
-0.132911
-0.11663
-0.497662
-0.449709
-0.383268
-0.317701
-0.2634
-0.221727
-0.189239
-0.163556
-0.143772
-0.127168
-0.494759
-0.447842
-0.388904
-0.326098
-0.273362
-0.232366
-0.200079
-0.174327
-0.154259
-0.137452
-0.490402
-0.444015
-0.392927
-0.333166
-0.282332
-0.242252
-0.210331
-0.184639
-0.164381
-0.147515
-0.484692
-0.438556
-0.395461
-0.338948
-0.290352
-0.251413
-0.220012
-0.194508
-0.174153
-0.157345
-0.477733
-0.431931
-0.396539
-0.343491
-0.297469
-0.259884
-0.229147
-0.203955
-0.18359
-0.16692
-0.46965
-0.424673
-0.396131
-0.346858
-0.303735
-0.267696
-0.237761
-0.213001
-0.192708
-0.176232
-0.460597
-0.41726
-0.394237
-0.349144
-0.309203
-0.274882
-0.245881
-0.221669
-0.201528
-0.185291
-0.450772
-0.41004
-0.390943
-0.350472
-0.313923
-0.281475
-0.253537
-0.229986
-0.210073
-0.194114
-0.440425
-0.403207
-0.386452
-0.350977
-0.317939
-0.287506
-0.260761
-0.23798
-0.218365
-0.202721
-0.429858
-0.396808
-0.381102
-0.350792
-0.321291
-0.293006
-0.267586
-0.24568
-0.226428
-0.211134
-0.419394
-0.390787
-0.375348
-0.350034
-0.324016
-0.29801
-0.27404
-0.253114
-0.234287
-0.219375
-0.409368
-0.385042
-0.369688
-0.348793
-0.326151
-0.302553
-0.28015
-0.260307
-0.241967
-0.227472
-0.400028
-0.379484
-0.36454
-0.347145
-0.327748
-0.30666
-0.285938
-0.267279
-0.249494
-0.235449
-0.391505
-0.374089
-0.360117
-0.345179
-0.328865
-0.31035
-0.291415
-0.274048
-0.256889
-0.243341
-0.383834
-0.368908
-0.356404
-0.34304
-0.329572
-0.313626
-0.29659
-0.280624
-0.264171
-0.251172
-0.376979
-0.364045
-0.35322
-0.340943
-0.329938
-0.316481
-0.301463
-0.287005
-0.271346
-0.258991
-0.370872
-0.359605
-0.350353
-0.339108
-0.330043
-0.318909
-0.306035
-0.29317
-0.278423
-0.266811
-0.36544
-0.355649
-0.347673
-0.337641
-0.329988
-0.320909
-0.310317
-0.29906
-0.285392
-0.274714
-0.360616
-0.352176
-0.345168
-0.336488
-0.329905
-0.322506
-0.314324
-0.30459
-0.292256
-0.282657
-0.356341
-0.349139
-0.342895
-0.335521
-0.329904
-0.323759
-0.318101
-0.309567
-0.299086
-0.290729
-0.352552
-0.346479
-0.340905
-0.334653
-0.330013
-0.324775
-0.321679
-0.313839
-0.30582
-0.298764
-0.349169
-0.344145
-0.339206
-0.333875
-0.330185
-0.325691
-0.325066
-0.317109
-0.313073
-0.30588
-0.34615
-0.342064
-0.337766
-0.333209
-0.330389
-0.3266
-0.328214
-0.31933
-0.320572
-0.312812
-0.343434
-0.340183
-0.336533
-0.332664
-0.330656
-0.327498
-0.331057
-0.320697
-0.327723
-0.319145
-0.340955
-0.338458
-0.335454
-0.332219
-0.331039
-0.328296
-0.333603
-0.321403
-0.334511
-0.324193
-0.338654
-0.336849
-0.334478
-0.331839
-0.331544
-0.328895
-0.335944
-0.321589
-0.341075
-0.327491
-0.336481
-0.335319
-0.333559
-0.331481
-0.332111
-0.32927
-0.338123
-0.321504
-0.34721
-0.328946
-0.334395
-0.33384
-0.332659
-0.3311
-0.332644
-0.32945
-0.340055
-0.321586
-0.352247
-0.329084
-0.332364
-0.33239
-0.331746
-0.330664
-0.333071
-0.329616
-0.341597
-0.322241
-0.355596
-0.329158
-0.330365
-0.330961
-0.330775
-0.330171
-0.33334
-0.329765
-0.342667
-0.323543
-0.35725
-0.330229
-0.328392
-0.329549
-0.329742
-0.329645
-0.333383
-0.329876
-0.343294
-0.325306
-0.357632
-0.332378
-0.326451
-0.328155
-0.328656
-0.32907
-0.333132
-0.329982
-0.343543
-0.327151
-0.357378
-0.335036
-0.324556
-0.326791
-0.327534
-0.32843
-0.332624
-0.330195
-0.343338
-0.328859
-0.35683
-0.337577
-0.322732
-0.325472
-0.326399
-0.327731
-0.331935
-0.33036
-0.342604
-0.330564
-0.356088
-0.3397
-0.321012
-0.324223
-0.325285
-0.326995
-0.331127
-0.330426
-0.341613
-0.332235
-0.354895
-0.341498
-0.319433
-0.323072
-0.324229
-0.326251
-0.330267
-0.330388
-0.340488
-0.333615
-0.353509
-0.343235
-0.318036
-0.322048
-0.323269
-0.325538
-0.329422
-0.330263
-0.339336
-0.334689
-0.352097
-0.34462
-0.31686
-0.321183
-0.322445
-0.324897
-0.328657
-0.330083
-0.338268
-0.335479
-0.350767
-0.345704
-0.315942
-0.320505
-0.321791
-0.324372
-0.32803
-0.329891
-0.33738
-0.336012
-0.34964
-0.34652
-0.315312
-0.320039
-0.321337
-0.323999
-0.327586
-0.32973
-0.336746
-0.336332
-0.348822
-0.347068
-0.314991
-0.319801
-0.321104
-0.323805
-0.327355
-0.329639
-0.336418
-0.336479
-0.348393
-0.347344
-0.367624
-0.37427
-0.392052
-0.398131
-0.39632
-0.373562
-0.328619
-0.257016
-0.168609
-0.0818939
-0.0186329
0.0197919
0.0356705
0.039036
0.0354122
0.0292532
0.0228043
0.0171326
0.0125213
0.00887697
0.00605539
0.0039957
0.00265132
0.0018892
0.00145945
0.00114896
0.000833364
0.000553809
0.000287091
0.000125666
-0.367958
-0.374598
-0.392519
-0.398904
-0.397362
-0.374925
-0.330292
-0.258834
-0.170287
-0.0831774
-0.01956
0.0191606
0.0352413
0.0387409
0.0352146
0.0291188
0.0227121
0.0170694
0.0124787
0.00884847
0.00603526
0.00398002
0.00263831
0.00187857
0.0014514
0.00114346
0.000830001
0.000551964
0.000286215
0.000125183
-0.368517
-0.375141
-0.393335
-0.40028
-0.399247
-0.377443
-0.333403
-0.26227
-0.173465
-0.0857054
-0.0213936
0.0178865
0.0343681
0.0381388
0.0348115
0.0288456
0.0225254
0.0169419
0.012393
0.00879118
0.00599504
0.00394897
0.00261273
0.00185772
0.00143557
0.00113261
0.000823337
0.000548302
0.000284471
0.000124221
-0.369105
-0.375706
-0.39429
-0.401996
-0.401689
-0.380763
-0.33758
-0.266938
-0.178007
-0.0892717
-0.0241034
0.01595
0.0330274
0.0372103
0.0341899
0.0284261
0.0222403
0.0167482
0.0122632
0.00870463
0.0059348
0.00390315
0.00257542
0.00182741
0.00141247
0.00111667
0.000813496
0.000542866
0.000281878
0.000122795
-0.369529
-0.37606
-0.395152
-0.403704
-0.404295
-0.384436
-0.342331
-0.272513
-0.183387
-0.0938806
-0.0276363
0.0133382
0.0311956
0.035935
0.0333349
0.0278519
0.0218527
0.0164864
0.0120882
0.00858829
0.00585467
0.00384333
0.00252749
0.00178865
0.00138281
0.00109604
0.000800651
0.000535722
0.000278465
0.000120924
-0.369507
-0.376067
-0.395627
-0.405092
-0.406627
-0.388068
-0.347312
-0.278364
-0.189515
-0.0992578
-0.0319476
0.0100675
0.0288563
0.0343001
0.0322349
0.0271172
0.0213596
0.0161549
0.0118672
0.00844172
0.00575484
0.0037704
0.00247017
0.00174259
0.0013474
0.00107115
0.000785015
0.000526952
0.000274267
0.000118632
-0.36922
-0.375399
-0.395717
-0.405837
-0.408658
-0.391253
-0.351952
-0.284363
-0.196004
-0.105294
-0.0369548
0.0061615
0.0260094
0.0323045
0.0308873
0.0262195
0.0207598
0.0157533
0.0115998
0.00826475
0.0056356
0.00368523
0.00240467
0.00169039
0.00130707
0.00104251
0.000766827
0.000516654
0.000269323
0.00011595
-0.367768
-0.374622
-0.394825
-0.406011
-0.409703
-0.393806
-0.356137
-0.290072
-0.202632
-0.111801
-0.0425673
0.00166112
0.0226861
0.029957
0.0292961
0.0251612
0.020055
0.0152828
0.0112866
0.00805763
0.00549734
0.00358861
0.0023321
0.00163314
0.00126264
0.0010106
0.000746338
0.000504933
0.000263682
0.000112914
-0.366081
-0.373122
-0.393432
-0.405248
-0.409983
-0.395465
-0.359535
-0.295319
-0.209171
-0.118627
-0.0486821
-0.00336429
0.0189244
0.0272789
0.0274741
0.0239496
0.0192498
0.0147461
0.0109292
0.00782111
0.0053406
0.00348125
0.00225335
0.00157174
0.00121485
0.000975904
0.000723803
0.000491903
0.000257391
0.000109561
-0.363696
-0.371247
-0.39124
-0.403688
-0.409294
-0.396158
-0.362003
-0.299891
-0.21545
-0.12562
-0.0551903
-0.00883629
0.014777
0.0243029
0.0254409
0.0225964
0.0183509
0.0141473
0.0105297
0.00755643
0.00516608
0.00336374
0.0021691
0.00150691
0.00116432
0.000938839
0.000699468
0.000477682
0.000250504
0.000105934
-0.36064
-0.368957
-0.388392
-0.401276
-0.407611
-0.39581
-0.363472
-0.303664
-0.221328
-0.132648
-0.0619825
-0.0146685
0.0103042
0.0210689
0.0232207
0.0211156
0.0173671
0.0134916
0.0100914
0.00726527
0.00497463
0.00323659
0.00207982
0.00143917
0.00111153
0.000899787
0.000673567
0.000462387
0.000243072
0.000102078
-0.356705
-0.366254
-0.38489
-0.398037
-0.404939
-0.394408
-0.363887
-0.306519
-0.226695
-0.139596
-0.0689536
-0.0207732
0.0055694
0.0176199
0.0208398
0.0195229
0.0163077
0.0127847
0.00961779
0.00694965
0.00476725
0.00310024
0.00198581
0.00136887
0.00105687
0.000859068
0.000646314
0.000446131
0.000235149
9.80356e-05
-0.352111
-0.362894
-0.380739
-0.393952
-0.401272
-0.391947
-0.363246
-0.30842
-0.231465
-0.146367
-0.0760068
-0.0270658
0.000634755
0.0139985
0.0183247
0.0178339
0.0151823
0.0120327
0.00911257
0.0066118
0.00454505
0.00295511
0.00188725
0.0012962
0.0010006
0.000816946
0.000617902
0.000429026
0.000226783
9.38536e-05
-0.347052
-0.358872
-0.375877
-0.38901
-0.396613
-0.38843
-0.361538
-0.309408
-0.235585
-0.152882
-0.083057
-0.0334691
-0.00444224
0.0102445
0.0157
0.0160635
0.0140002
0.0112413
0.00857946
0.00625401
0.0043092
0.00280163
0.00178424
0.00122126
0.000942901
0.000773635
0.000588502
0.000411175
0.000218025
8.95746e-05
-0.341844
-0.354059
-0.370246
-0.383196
-0.391007
-0.383939
-0.358884
-0.309557
-0.239017
-0.159079
-0.0900329
-0.0399158
-0.00961024
0.00639365
0.0129869
0.0142242
0.0127696
0.0104158
0.008022
0.00587854
0.00406091
0.00264023
0.00167683
0.00114407
0.000883898
0.000729306
0.000558264
0.000392673
0.000208919
8.52222e-05
-0.336496
-0.34844
-0.363869
-0.376572
-0.384458
-0.378475
-0.355303
-0.308894
-0.24184
-0.164907
-0.0968728
-0.0463477
-0.0148268
0.00247499
0.010209
0.0123265
0.0114968
0.00956053
0.00744322
0.00548743
0.00380134
0.00247135
0.00156508
0.00106462
0.000823663
0.000684104
0.00052733
0.000373619
0.000199516
8.08251e-05
-0.330934
-0.342114
-0.35677
-0.369246
-0.377318
-0.372409
-0.351092
-0.307625
-0.244117
-0.170348
-0.103543
-0.0527339
-0.0200653
-0.001486
0.00739143
0.0103867
0.0101898
0.00867942
0.00684565
0.00508242
0.00353153
0.00229544
0.00144909
0.000982913
0.000762242
0.00063814
0.000495821
0.000354102
0.000189863
7.64776e-05
-0.32517
-0.3353
-0.349192
-0.361287
-0.369147
-0.365336
-0.346032
-0.305719
-0.245948
-0.175411
-0.109997
-0.059004
-0.0252574
-0.00544444
0.00453666
0.00840994
0.00886098
0.00778096
0.00623452
0.00466696
0.00325359
0.00211348
0.00132911
0.000898977
0.000699645
0.000591409
0.000463719
0.000334111
0.000179947
7.21313e-05
-0.31937
-0.328182
-0.341306
-0.353394
-0.36175
-0.358789
-0.34116
-0.303644
-0.247225
-0.179933
-0.116066
-0.0650868
-0.0304291
-0.00946631
0.00159467
0.00633124
0.00747666
0.00685543
0.005607
0.00423964
0.00296655
0.00192488
0.00120492
0.000812758
0.000635821
0.000543831
0.000430896
0.000313535
0.000169696
6.78593e-05
-0.313693
-0.320554
-0.332312
-0.343707
-0.351604
-0.350018
-0.334871
-0.301139
-0.249085
-0.185209
-0.123031
-0.0719292
-0.0360712
-0.0137067
-0.00140399
0.00425816
0.00602141
0.00586627
0.00493472
0.00378162
0.00265935
0.00172468
0.00107486
0.000723628
0.000570909
0.000496165
0.000398308
0.000293074
0.000159466
6.37931e-05
-0.307846
-0.315071
-0.326323
-0.337838
-0.346027
-0.344121
-0.32923
-0.296532
-0.246205
-0.184595
-0.124231
-0.0742381
-0.0387156
-0.0161942
-0.00348897
0.00267138
0.00488162
0.00505379
0.00436623
0.00339475
0.00239936
0.00154721
0.000950818
0.000635667
0.000508431
0.000452756
0.000370521
0.000276154
0.000151149
6.04792e-05
-0.301445
-0.308906
-0.319482
-0.330101
-0.336922
-0.334746
-0.319947
-0.288448
-0.240527
-0.182022
-0.124386
-0.0761319
-0.0412815
-0.0187539
-0.00568955
0.000931202
0.0035786
0.00411044
0.00369686
0.00292706
0.00208035
0.00133681
0.000814682
0.000545185
0.000445255
0.000407675
0.000340188
0.000257044
0.000141715
5.6629e-05
-0.294717
-0.302207
-0.312061
-0.321998
-0.328108
-0.325364
-0.31068
-0.280431
-0.234897
-0.17943
-0.124453
-0.0779361
-0.0438088
-0.0213265
-0.00794563
-0.000885137
0.00219805
0.00310071
0.00297402
0.00241788
0.0017307
0.00110527
0.000665187
0.000446739
0.000376896
0.000358686
0.000306862
0.000235897
0.000131209
5.2372e-05
-0.287621
-0.295117
-0.3043
-0.3136
-0.318973
-0.315822
-0.301355
-0.272409
-0.22926
-0.176792
-0.124454
-0.0796823
-0.0463079
-0.0239021
-0.0102292
-0.00273813
0.000781287
0.00205873
0.00222491
0.00188879
0.00136628
0.000862503
0.000507164
0.000342197
0.00030448
0.000307097
0.000271929
0.00021377
0.000120181
4.79449e-05
-0.280088
-0.287713
-0.296277
-0.304924
-0.309593
-0.306126
-0.291951
-0.264343
-0.223575
-0.17407
-0.124357
-0.0813486
-0.0487672
-0.026476
-0.0125374
-0.00462777
-0.000674078
0.000981721
0.001447
0.00133749
0.000985249
0.000607476
0.000340283
0.000231516
0.000228023
0.000252925
0.000235377
0.000190632
0.000108612
4.33345e-05
-0.272193
-0.280053
-0.288046
-0.296046
-0.300093
-0.296371
-0.282547
-0.256297
-0.21788
-0.171281
-0.12416
-0.0829241
-0.0511745
-0.0290386
-0.0148643
-0.00655243
-0.00216922
-0.00013254
0.00063784
0.000761635
0.000585689
0.000338882
0.000163789
0.000114275
0.000147246
0.000195935
0.000197007
0.00016634
9.642e-05
3.85155e-05
-0.264029
-0.27218
-0.279662
-0.287041
-0.290542
-0.286634
-0.273216
-0.248325
-0.212211
-0.16844
-0.123864
-0.0844012
-0.053519
-0.0315791
-0.017202
-0.0085068
-0.00370116
-0.00128265
-0.0002021
0.00016127
0.000167467
5.64871e-05
-2.25995e-05
-9.78317e-06
6.19536e-05
0.000136003
0.000156741
0.000140853
8.35817e-05
3.34884e-05
-0.255657
-0.264133
-0.271171
-0.277963
-0.280992
-0.27697
-0.264008
-0.240468
-0.206592
-0.165558
-0.123471
-0.085773
-0.0557905
-0.0340875
-0.0195419
-0.0104848
-0.00526598
-0.00246637
-0.00107165
-0.00046302
-0.000269163
-0.000239681
-0.000218995
-0.000140812
-2.79726e-05
7.30636e-05
0.000114553
0.000114162
7.00899e-05
2.82599e-05
-0.247134
-0.255946
-0.262609
-0.268857
-0.271486
-0.267421
-0.25496
-0.232752
-0.201042
-0.162645
-0.12298
-0.0870337
-0.0579796
-0.0365537
-0.0218755
-0.0124801
-0.00685959
-0.00368133
-0.00196955
-0.00111061
-0.00072394
-0.000549577
-0.000425473
-0.000278926
-0.000122623
7.0703e-06
7.04231e-05
8.6263e-05
5.59374e-05
2.28361e-05
-0.23852
-0.247655
-0.254013
-0.259764
-0.262061
-0.258018
-0.246097
-0.225199
-0.195575
-0.159709
-0.122394
-0.0881788
-0.0600779
-0.0389681
-0.0241941
-0.0144862
-0.00847754
-0.00492481
-0.00289427
-0.00178071
-0.00119649
-0.000873067
-0.000642038
-0.000424185
-0.000222058
-6.201e-05
2.43363e-05
5.71513e-05
4.11188e-05
1.72232e-05
-0.229873
-0.2393
-0.245418
-0.250723
-0.252747
-0.248787
-0.237441
-0.217826
-0.190204
-0.15676
-0.121715
-0.0892049
-0.0620776
-0.0413213
-0.0264889
-0.0164959
-0.0101149
-0.00619359
-0.00384389
-0.00247223
-0.00168622
-0.00120987
-0.000868595
-0.000576582
-0.000326292
-0.000134183
-2.37062e-05
2.6834e-05
2.56336e-05
1.14294e-05
-0.221249
-0.230921
-0.236858
-0.241772
-0.243576
-0.239752
-0.22901
-0.210647
-0.18494
-0.153805
-0.120946
-0.0901097
-0.0639717
-0.0436045
-0.0287509
-0.0185019
-0.011766
-0.00748398
-0.00481607
-0.00318375
-0.00219233
-0.00155955
-0.00110493
-0.000736026
-0.000435283
-0.00020942
-7.36821e-05
-4.66934e-06
9.48847e-06
5.46446e-06
-0.212703
-0.22256
-0.228371
-0.232947
-0.234577
-0.230934
-0.220819
-0.203674
-0.179792
-0.150852
-0.120093
-0.0908923
-0.0657542
-0.045809
-0.0309711
-0.0204962
-0.013425
-0.0087917
-0.005808
-0.00391351
-0.00271372
-0.00192147
-0.00135068
-0.000902322
-0.000548926
-0.00028765
-0.000125543
-3.73234e-05
-7.30159e-06
-6.5906e-07
-0.204289
-0.214261
-0.21999
-0.224283
-0.225779
-0.222352
-0.212882
-0.196918
-0.174772
-0.147912
-0.11916
-0.0915529
-0.06742
-0.0479268
-0.0331404
-0.0224706
-0.0150852
-0.0101119
-0.00681633
-0.00465931
-0.00324901
-0.00229476
-0.00160533
-0.00107516
-0.000667031
-0.00036875
-0.000179209
-7.10737e-05
-2.47114e-05
-6.92593e-06
-0.196053
-0.206068
-0.211749
-0.215813
-0.21721
-0.214028
-0.205211
-0.190389
-0.169888
-0.144993
-0.118155
-0.0920932
-0.068965
-0.0499503
-0.0352498
-0.0244163
-0.0167392
-0.0114391
-0.00783716
-0.00541849
-0.00379644
-0.00267829
-0.00186816
-0.0012541
-0.000789321
-0.000452537
-0.000234563
-0.000105843
-4.2703e-05
-1.33174e-05
-0.188041
-0.198025
-0.203686
-0.207571
-0.208899
-0.205981
-0.19782
-0.184099
-0.165151
-0.142105
-0.117086
-0.092516
-0.0703861
-0.0518726
-0.0372903
-0.0263244
-0.0183794
-0.012767
-0.00886595
-0.00618789
-0.00435386
-0.00307063
-0.00213825
-0.00143853
-0.000915405
-0.000538757
-0.000291442
-0.000141526
-6.12236e-05
-1.98104e-05
-0.180293
-0.190176
-0.195835
-0.199588
-0.200876
-0.198233
-0.190723
-0.178059
-0.160572
-0.139262
-0.115962
-0.0928258
-0.0716816
-0.0536876
-0.039253
-0.0281854
-0.0199973
-0.0140889
-0.0098975
-0.00696374
-0.00491866
-0.00347
-0.00241438
-0.00162766
-0.00104477
-0.000627072
-0.000349629
-0.000177985
-8.02021e-05
-2.63771e-05
-0.172847
-0.182567
-0.188234
-0.191898
-0.19317
-0.190807
-0.183935
-0.172279
-0.156164
-0.136475
-0.114794
-0.0930285
-0.0728511
-0.0553898
-0.0411295
-0.0299898
-0.0215837
-0.0153972
-0.0109259
-0.00774167
-0.00548771
-0.00387422
-0.00269507
-0.0018205
-0.00117675
-0.000717048
-0.000408845
-0.000215043
-9.95469e-05
-3.29841e-05
-0.16574
-0.175244
-0.180923
-0.184533
-0.185812
-0.183727
-0.177471
-0.166774
-0.15194
-0.133758
-0.113594
-0.0931314
-0.0738954
-0.0569746
-0.0429115
-0.0317276
-0.0231292
-0.0166834
-0.0119444
-0.00851661
-0.00605733
-0.00428069
-0.00297852
-0.00201579
-0.00131053
-0.000808139
-0.000468741
-0.000252482
-0.000119142
-3.95913e-05
-0.159007
-0.168251
-0.173941
-0.177525
-0.178833
-0.17702
-0.171352
-0.161559
-0.147915
-0.131128
-0.112376
-0.0931435
-0.0748168
-0.0584381
-0.0445911
-0.0333889
-0.0246234
-0.0179384
-0.0129455
-0.00928274
-0.00662321
-0.00468629
-0.00326252
-0.00221204
-0.00144508
-0.000899674
-0.000528883
-0.000290032
-0.000138843
-4.61516e-05
-0.152681
-0.161633
-0.167326
-0.170906
-0.172264
-0.170713
-0.165597
-0.156649
-0.144106
-0.128601
-0.111156
-0.0930754
-0.075619
-0.0597774
-0.046161
-0.0349634
-0.0260555
-0.0191524
-0.0139209
-0.0100335
-0.00718036
-0.00508738
-0.00354449
-0.00240744
-0.00157918
-0.000990838
-0.000588744
-0.000327364
-0.000158475
-5.26099e-05
-0.146796
-0.155431
-0.161119
-0.164713
-0.166137
-0.164835
-0.160231
-0.152064
-0.140532
-0.126196
-0.10995
-0.0929392
-0.076307
-0.0609901
-0.0476141
-0.0364409
-0.0274142
-0.0203145
-0.0148612
-0.0107613
-0.00772306
-0.00547974
-0.00382137
-0.00259984
-0.00171138
-0.00108065
-0.000647693
-0.000364089
-0.000177827
-5.89018e-05
-0.141382
-0.149689
-0.155362
-0.158983
-0.160485
-0.159416
-0.15528
-0.147825
-0.137212
-0.123935
-0.108777
-0.0927488
-0.0768872
-0.0620751
-0.0489436