/*--------------------------------*- C++ -*----------------------------------*\
  =========                 |
  \\      /  F ield         | OpenFOAM: The Open Source CFD Toolbox
   \\    /   O peration     | Website:  https://openfoam.org
    \\  /    A nd           | Version:  7
     \\/     M anipulation  |
\*---------------------------------------------------------------------------*/
FoamFile
{
    version     2.0;
    format      ascii;
    class       volScalarField;
    location    "2.8";
    object      rho;
}
// * * * * * * * * * * * * * * * * * * * * * * * * * * * * * * * * * * * * * //

dimensions      [1 -3 0 0 0 0 0];

internalField   nonuniform List<scalar> 
25200
(
1.40001
1.40001
1.40001
1.40001
1.40001
1.40001
1.40001
1.40001
1.40001
1.40001
1.40001
1.40001
1.40001
1.40001
1.40001
1.40001
1.40001
1.40001
1.40001
1.40001
1.40001
1.40001
1.40001
1.40001
1.40001
1.40001
1.40001
1.40001
1.40001
1.40001
2.11655
4.94173
5.43049
5.44953
5.48455
5.52021
5.55841
5.59674
5.63393
5.66821
5.69762
5.72176
5.74249
5.76268
5.78456
5.80821
5.83214
5.85475
5.87491
5.89246
5.90845
5.92402
5.93946
5.95378
5.96571
5.97322
5.9756
5.97328
5.971
5.9713
1.40001
1.40001
1.40001
1.40001
1.40001
1.40001
1.40001
1.40001
1.40001
1.40001
1.40001
1.40001
1.40001
1.40001
1.40001
1.40001
1.40001
1.40001
1.40001
1.40001
1.40001
1.40001
1.40001
1.40001
1.40001
1.40001
1.40001
1.40001
1.40001
1.40001
2.09583
4.92138
5.42962
5.45024
5.48502
5.52018
5.55803
5.59614
5.63311
5.6672
5.69647
5.72052
5.74117
5.76131
5.78315
5.80672
5.83055
5.85305
5.8731
5.89053
5.90635
5.92172
5.93701
5.9512
5.96302
5.9704
5.97269
5.9703
5.968
5.96833
1.40001
1.40001
1.40001
1.40001
1.40001
1.40001
1.40001
1.40001
1.40001
1.40001
1.40001
1.40001
1.40001
1.40001
1.40001
1.40001
1.40001
1.40001
1.40001
1.40001
1.40001
1.40001
1.40001
1.40001
1.40001
1.40001
1.40001
1.40001
1.40001
1.40001
2.04712
4.89052
5.43038
5.44837
5.48331
5.51835
5.5562
5.59427
5.63109
5.66499
5.69408
5.718
5.73856
5.75866
5.7805
5.80407
5.82786
5.85032
5.8703
5.88763
5.90329
5.91846
5.93349
5.94738
5.95889
5.9659
5.96786
5.96528
5.96283
5.96312
1.40001
1.40001
1.40001
1.40001
1.40001
1.40001
1.40001
1.40001
1.40001
1.40001
1.40001
1.40001
1.40001
1.40001
1.40001
1.40001
1.40001
1.40001
1.40001
1.40001
1.40001
1.40001
1.40001
1.40001
1.40001
1.40001
1.40001
1.40001
1.40001
1.40001
1.97908
4.84427
5.43327
5.4479
5.48187
5.51592
5.55324
5.59097
5.62752
5.66121
5.69015
5.71397
5.7344
5.75435
5.77606
5.79954
5.82326
5.84563
5.8655
5.88264
5.89806
5.913
5.92785
5.94156
5.95285
5.95952
5.96111
5.95831
5.95563
5.95578
1.40001
1.40001
1.40001
1.40001
1.40001
1.40001
1.40001
1.40001
1.40001
1.40001
1.40001
1.40001
1.40001
1.40001
1.40001
1.40001
1.40001
1.40001
1.40001
1.40001
1.40001
1.40001
1.40001
1.40001
1.40001
1.40001
1.40001
1.40001
1.40001
1.40001
1.89629
4.77358
5.43524
5.44677
5.47954
5.51231
5.54884
5.5861
5.62235
5.65587
5.68475
5.70852
5.72881
5.74854
5.77006
5.79351
5.81731
5.83976
5.8596
5.87654
5.89158
5.90607
5.92052
5.93388
5.94486
5.95117
5.95241
5.94953
5.94666
5.94672
1.40001
1.40001
1.40001
1.40001
1.40001
1.40001
1.40001
1.40001
1.40001
1.40001
1.40001
1.40001
1.40001
1.40001
1.40001
1.40001
1.40001
1.40001
1.40001
1.40001
1.40001
1.40001
1.40001
1.40001
1.40001
1.40001
1.40001
1.40001
1.40001
1.40001
1.80214
4.6764
5.43661
5.44609
5.47774
5.50896
5.54428
5.58062
5.61627
5.6495
5.67834
5.70215
5.72231
5.74166
5.76273
5.7858
5.80936
5.83163
5.85128
5.86793
5.88255
5.89662
5.91073
5.92381
5.93459
5.94062
5.94154
5.93862
5.93551
5.93546
1.40001
1.40001
1.40001
1.40001
1.40001
1.40001
1.40001
1.40001
1.40001
1.40001
1.40001
1.40001
1.40001
1.40001
1.40001
1.40001
1.40001
1.40001
1.40001
1.40001
1.40001
1.40001
1.40001
1.40001
1.40001
1.40001
1.40001
1.40001
1.40001
1.40001
1.70061
4.5549
5.44046
5.44568
5.47564
5.50511
5.53901
5.57426
5.60926
5.64227
5.67127
5.69529
5.7153
5.73408
5.75437
5.77681
5.79998
5.82206
5.84156
5.85798
5.87219
5.88572
5.89927
5.91185
5.92227
5.92802
5.92865
5.92571
5.92235
5.92221
1.40001
1.40001
1.40001
1.40001
1.40001
1.40001
1.40001
1.40001
1.40001
1.40001
1.40001
1.40001
1.40001
1.40001
1.40001
1.40001
1.40001
1.40001
1.40001
1.40001
1.40001
1.40001
1.40001
1.40001
1.40001
1.40001
1.40001
1.40001
1.40001
1.40001
1.59461
4.40733
5.44239
5.44233
5.4704
5.49901
5.53209
5.56659
5.60102
5.63371
5.66277
5.68698
5.70691
5.72516
5.7446
5.76625
5.78891
5.81067
5.82988
5.84589
5.85947
5.87221
5.885
5.89695
5.90704
5.91269
5.91335
5.9108
5.90765
5.908
1.40001
1.40001
1.40001
1.40001
1.40001
1.40001
1.40001
1.40001
1.40001
1.40001
1.40001
1.40001
1.40001
1.40001
1.40001
1.40001
1.40001
1.40001
1.40001
1.40001
1.40001
1.40001
1.40001
1.40001
1.40001
1.40001
1.40001
1.40001
1.40001
1.40001
1.48539
4.2366
5.43843
5.43951
5.46519
5.49323
5.52453
5.55721
5.5903
5.62233
5.65135
5.67584
5.69595
5.71389
5.73255
5.75332
5.77532
5.79667
5.81558
5.83122
5.8442
5.85615
5.8682
5.87958
5.88945
5.89515
5.89587
5.89346
5.89021
5.89072
1.40001
1.40001
1.40001
1.40001
1.40001
1.40001
1.40001
1.40001
1.40001
1.40001
1.40001
1.40001
1.40001
1.40001
1.40001
1.40001
1.40001
1.40001
1.40001
1.40001
1.40001
1.40001
1.40001
1.40001
1.40001
1.40001
1.40001
1.40001
1.40001
1.40001
1.40528
4.00418
5.40003
5.42145
5.44896
5.47932
5.51093
5.54334
5.57574
5.60711
5.63592
5.66069
5.68127
5.69932
5.7175
5.73748
5.7588
5.77969
5.79827
5.81352
5.8259
5.8371
5.8485
5.85948
5.86915
5.87482
5.87535
5.87277
5.86921
5.86975
1.40001
1.40001
1.40001
1.40001
1.40001
1.40001
1.40001
1.40001
1.40001
1.40001
1.40001
1.40001
1.40001
1.40001
1.40001
1.40001
1.40001
1.40001
1.40001
1.40001
1.40001
1.40001
1.40001
1.40001
1.40001
1.40001
1.40001
1.40001
1.40001
1.40001
1.40005
3.71327
5.34655
5.39967
5.4294
5.4623
5.49439
5.52655
5.55862
5.58964
5.61813
5.6429
5.66367
5.68176
5.69953
5.71868
5.7391
5.75934
5.77751
5.79243
5.80435
5.81488
5.82562
5.83604
5.84526
5.85076
5.85096
5.8481
5.84418
5.84469
1.40001
1.40001
1.40001
1.40001
1.40001
1.40001
1.40001
1.40001
1.40001
1.40001
1.40001
1.40001
1.40001
1.40001
1.40001
1.40001
1.40001
1.40001
1.40001
1.40001
1.40001
1.40001
1.40001
1.40001
1.40001
1.40001
1.40001
1.40001
1.40001
1.40001
1.40001
3.38831
5.28906
5.3791
5.41185
5.44553
5.47769
5.50949
5.54072
5.57086
5.59851
5.62273
5.64338
5.6613
5.67854
5.69685
5.71632
5.73575
5.75334
5.76778
5.77914
5.78894
5.79893
5.80876
5.81744
5.8226
5.82215
5.81864
5.81401
5.81408
1.40001
1.40001
1.40001
1.40001
1.40001
1.40001
1.40001
1.40001
1.40001
1.40001
1.40001
1.40001
1.40001
1.40001
1.40001
1.40001
1.40001
1.40001
1.40001
1.40001
1.40001
1.40001
1.40001
1.40001
1.40001
1.40001
1.40001
1.40001
1.40001
1.40001
1.40001
3.0355
5.21756
5.36975
5.40044
5.43326
5.46386
5.49418
5.52381
5.55222
5.57825
5.60122
5.62107
5.63851
5.65532
5.67268
5.69082
5.70897
5.7256
5.73934
5.75004
5.75902
5.76795
5.77658
5.784
5.78839
5.78722
5.78321
5.77803
5.77785
1.40001
1.40001
1.40001
1.40001
1.40001
1.40001
1.40001
1.40001
1.40001
1.40001
1.40001
1.40001
1.40001
1.40001
1.40001
1.40001
1.40001
1.40001
1.40001
1.40001
1.40001
1.40001
1.40001
1.40001
1.40001
1.40001
1.40001
1.40001
1.40001
1.40001
1.40001
2.66503
5.11006
5.3833
5.40324
5.43297
5.45957
5.48578
5.51168
5.53675
5.55993
5.58069
5.59897
5.61497
5.63017
5.64598
5.66248
5.67889
5.69402
5.70656
5.71622
5.72411
5.73177
5.73912
5.7452
5.74858
5.74618
5.74037
5.73348
5.73166
1.40001
1.40001
1.40001
1.40001
1.40001
1.40001
1.40001
1.40001
1.40001
1.40001
1.40001
1.40001
1.40001
1.40001
1.40001
1.40001
1.40001
1.40001
1.40001
1.40001
1.40001
1.40001
1.40001
1.40001
1.40001
1.40001
1.40001
1.40001
1.40001
1.40001
1.40001
2.28737
4.95139
5.40952
5.41815
5.44142
5.4615
5.48264
5.50412
5.52515
5.54481
5.56248
5.57833
5.59252
5.60584
5.61939
5.63327
5.647
5.65975
5.67033
5.67832
5.68459
5.6903
5.69515
5.69827
5.69884
5.69426
5.68696
5.67906
5.67723
1.40001
1.40001
1.40001
1.40001
1.40001
1.40001
1.40001
1.40001
1.40001
1.40001
1.40001
1.40001
1.40001
1.40001
1.40001
1.40001
1.40001
1.40001
1.40001
1.40001
1.40001
1.40001
1.40001
1.40001
1.40001
1.40001
1.40001
1.40001
1.40001
1.40001
1.40001
1.90121
4.75958
5.45911
5.43223
5.45269
5.46919
5.48589
5.50205
5.51803
5.53318
5.54692
5.55941
5.57097
5.58186
5.59278
5.60372
5.61412
5.62356
5.63119
5.63644
5.64001
5.64274
5.64449
5.64464
5.64219
5.63486
5.62289
5.60968
5.6025
1.40001
1.40001
1.40001
1.40001
1.40001
1.40001
1.40001
1.40001
1.40001
1.40001
1.40001
1.40001
1.40001
1.40001
1.40001
1.40001
1.40001
1.40001
1.40001
1.40001
1.40001
1.40001
1.40001
1.40001
1.40001
1.40001
1.40001
1.40001
1.40001
1.40001
1.40001
1.53844
4.44791
5.48777
5.44012
5.4521
5.46523
5.48158
5.49811
5.5121
5.52401
5.53421
5.54297
5.55109
5.55875
5.56635
5.57371
5.58037
5.58582
5.58962
5.59121
5.59122
5.59001
5.58739
5.58155
5.57122
5.55522
5.53663
5.51834
5.513
1.40001
1.40001
1.40001
1.40001
1.40001
1.40001
1.40001
1.40001
1.40001
1.40001
1.40001
1.40001
1.40001
1.40001
1.40001
1.40001
1.40001
1.40001
1.40001
1.40001
1.40001
1.40001
1.40001
1.40001
1.40001
1.40001
1.40001
1.40001
1.40001
1.40001
1.40001
1.40487
4.0066
5.37398
5.37733
5.41918
5.4464
5.46979
5.4864
5.5018
5.51373
5.5222
5.52793
5.53244
5.53649
5.54015
5.54324
5.54551
5.54624
5.54547
5.54272
5.53788
5.53079
5.52143
5.50797
5.49009
5.46658
5.43934
5.4053
5.37446
1.40001
1.40001
1.40001
1.40001
1.40001
1.40001
1.40001
1.40001
1.40001
1.40001
1.40001
1.40001
1.40001
1.40001
1.40001
1.40001
1.40001
1.40001
1.40001
1.40001
1.40001
1.40001
1.40001
1.40001
1.40001
1.40001
1.40001
1.40001
1.40001
1.40001
1.40001
1.40001
3.46357
5.21937
5.33196
5.38247
5.41478
5.44361
5.46722
5.48469
5.4972
5.50607
5.51095
5.51312
5.51407
5.51399
5.5126
5.51016
5.50562
5.4996
5.4912
5.48011
5.46606
5.44886
5.42599
5.39493
5.34981
5.28854
5.22559
5.18021
1.40001
1.40001
1.40001
1.40001
1.40001
1.40001
1.40001
1.40001
1.40001
1.40001
1.40001
1.40001
1.40001
1.40001
1.40001
1.40001
1.40001
1.40001
1.40001
1.40001
1.40001
1.40001
1.40001
1.40001
1.40001
1.40001
1.40001
1.40001
1.40001
1.40001
1.40001
1.40001
2.94029
5.06306
5.30193
5.35056
5.38969
5.41685
5.43824
5.45608
5.47137
5.48261
5.48879
5.4907
5.49017
5.48704
5.48166
5.47434
5.46425
5.45215
5.43671
5.41818
5.39566
5.36815
5.33128
5.28069
5.21256
5.1253
5.02252
4.95552
1.40001
1.40001
1.40001
1.40001
1.40001
1.40001
1.40001
1.40001
1.40001
1.40001
1.40001
1.40001
1.40001
1.40001
1.40001
1.40001
1.40001
1.40001
1.40001
1.40001
1.40001
1.40001
1.40001
1.40001
1.40001
1.40001
1.40001
1.40001
1.40001
1.40001
1.40001
1.40001
2.40162
4.89562
5.30746
5.33239
5.36641
5.39126
5.41075
5.42735
5.44147
5.45276
5.46068
5.46353
5.4628
5.45774
5.44952
5.43792
5.4225
5.40399
5.38079
5.35355
5.32095
5.2813
5.22935
5.15978
5.05947
4.89869
4.54029
3.64048
1.40001
1.40001
1.40001
1.40001
1.40001
1.40001
1.40001
1.40001
1.40001
1.40001
1.40001
1.40001
1.40001
1.40001
1.40001
1.40001
1.40001
1.40001
1.40001
1.40001
1.40001
1.40001
1.40001
1.40001
1.40001
1.40001
1.40001
1.40001
1.40001
1.40001
1.40001
1.40001
1.85037
4.705
5.38867
5.34631
5.35694
5.36959
5.38319
5.3972
5.41038
5.42095
5.42846
5.43203
5.43141
5.42516
5.41515
5.4002
5.38004
5.35525
5.32398
5.28707
5.24312
5.18973
5.12078
5.02522
4.88324
4.6349
4.23156
3.2363
1.40001
1.40001
1.40001
1.40001
1.40001
1.40001
1.40001
1.40001
1.40001
1.40001
1.40001
1.40001
1.40001
1.40001
1.40001
1.40001
1.40001
1.40001
1.40001
1.40001
1.40001
1.40001
1.40001
1.40001
1.40001
1.40001
1.40001
1.40001
1.40001
1.40001
1.40001
1.40001
1.45311
4.21397
5.39227
5.35126
5.3457
5.35391
5.36141
5.37006
5.37923
5.3874
5.39312
5.39609
5.39503
5.38818
5.37721
5.36018
5.33659
5.30639
5.2675
5.22084
5.16507
5.09717
5.01068
4.89192
4.71774
4.44933
3.96139
3.10591
1.40001
1.40001
1.40001
1.40001
1.40001
1.40001
1.40001
1.40001
1.40001
1.40001
1.40001
1.40001
1.40001
1.40001
1.40001
1.40001
1.40001
1.40001
1.40001
1.40001
1.40001
1.40001
1.40001
1.40001
1.40001
1.40001
1.40001
1.40001
1.40001
1.40001
1.40001
1.40001
1.40025
3.51857
5.19462
5.28485
5.31933
5.33361
5.34014
5.34603
5.35104
5.35557
5.3583
5.35924
5.35613
5.34791
5.33532
5.31674
5.29055
5.2559
5.21104
5.1557
5.08852
5.00696
4.90345
4.76767
4.56881
4.28821
3.79736
3.12762
1.40001
1.40001
1.40001
1.40001
1.40001
1.40001
1.40001
1.40001
1.40001
1.40001
1.40001
1.40001
1.40001
1.40001
1.40001
1.40001
1.40001
1.40001
1.40001
1.40001
1.40001
1.40001
1.40001
1.40001
1.40001
1.40001
1.40001
1.40001
1.40001
1.40001
1.40001
1.40001
1.4
2.82686
5.0522
5.29006
5.3137
5.32582
5.32782
5.32875
5.32864
5.32791
5.32598
5.32262
5.31596
5.3053
5.29028
5.26996
5.24199
5.20436
5.1551
5.09295
5.01598
4.92257
4.80474
4.65534
4.44807
4.1642
3.71335
3.18122
1.40001
1.40001
1.40001
1.40001
1.40001
1.40001
1.40001
1.40001
1.40001
1.40001
1.40001
1.40001
1.40001
1.40001
1.40001
1.40001
1.40001
1.40001
1.40001
1.40001
1.40001
1.40001
1.40001
1.40001
1.40001
1.40001
1.40001
1.40001
1.40001
1.40001
1.40001
1.40001
1.4
2.12468
4.8247
5.3213
5.30344
5.30912
5.31337
5.31443
5.31166
5.3062
5.29848
5.28914
5.27796
5.26311
5.24425
5.22065
5.19023
5.1504
5.09811
5.03157
4.94777
4.84533
4.71758
4.55763
4.35012
4.0741
3.67736
3.23995
1.40001
1.40001
1.40001
1.40001
1.40001
1.40001
1.40001
1.40001
1.40001
1.40001
1.40001
1.40001
1.40001
1.40001
1.40001
1.40001
1.40001
1.40001
1.40001
1.40001
1.40001
1.40001
1.40001
1.40001
1.40001
1.40001
1.40001
1.40001
1.40001
1.40001
1.40001
1.40001
1.4
1.52452
4.39201
5.35644
5.3071
5.29388
5.29564
5.29518
5.29097
5.28335
5.27211
5.25806
5.24227
5.22268
5.19925
5.17138
5.13754
5.09564
5.0413
4.97217
4.88426
4.77609
4.64242
4.47664
4.27069
4.00981
3.66817
3.29561
1.40001
1.40001
1.40001
1.40001
1.40001
1.40001
1.40001
1.40001
1.40001
1.40001
1.40001
1.40001
1.40001
1.40001
1.40001
1.40001
1.40001
1.40001
1.40001
1.40001
1.40001
1.40001
1.40001
1.40001
1.40001
1.40001
1.40001
1.40001
1.40001
1.40001
1.40001
1.40001
1.40001
1.40191
3.6477
5.15139
5.23656
5.25939
5.26676
5.26809
5.26482
5.25718
5.24471
5.22781
5.20785
5.18419
5.15614
5.12349
5.08517
5.03982
4.98337
4.91308
4.82373
4.71354
4.57866
4.41278
4.20873
3.96539
3.67122
3.34624
1.40001
1.40001
1.40001
1.40001
1.40001
1.40001
1.40001
1.40001
1.40001
1.40001
1.40001
1.40001
1.40001
1.40001
1.40001
1.40001
1.40001
1.40001
1.40001
1.40001
1.40001
1.40001
1.40001
1.40001
1.40001
1.40001
1.40001
1.40001
1.40001
1.40001
1.40001
1.40001
1.40001
1.39998
2.80857
4.99451
5.24131
5.24973
5.254
5.25054
5.24399
5.23435
5.22034
5.20132
5.17799
5.15037
5.1179
5.08024
5.03666
4.98671
4.92746
4.85565
4.76673
4.65683
4.52345
4.36165
4.1628
3.93668
3.68
3.39428
1.40001
1.40001
1.40001
1.40001
1.40001
1.40001
1.40001
1.40001
1.40001
1.40001
1.40001
1.40001
1.40001
1.40001
1.40001
1.40001
1.40001
1.40001
1.40001
1.40001
1.40001
1.40001
1.40001
1.40001
1.40001
1.40001
1.40001
1.40001
1.40001
1.40001
1.40001
1.40001
1.40001
1.4
1.99133
4.78659
5.27896
5.24383
5.24108
5.23365
5.22275
5.20991
5.19365
5.17274
5.14731
5.11705
5.08148
5.04005
4.99204
4.93749
4.87479
4.80064
4.71179
4.60393
4.47376
4.31955
4.13045
3.92304
3.69069
3.43533
1.40001
1.40001
1.40001
1.40001
1.40001
1.40001
1.40001
1.40001
1.40001
1.40001
1.40001
1.40001
1.40001
1.40001
1.40001
1.40001
1.40001
1.40001
1.40001
1.40001
1.40001
1.40001
1.40001
1.40001
1.40001
1.40001
1.40001
1.40001
1.40001
1.40001
1.40001
1.40001
1.40001
1.4
1.4722
4.1492
5.25007
5.22314
5.21331
5.21099
5.20069
5.18687
5.16873
5.14601
5.11881
5.0868
5.04895
5.0045
4.95266
4.89366
4.82698
4.75028
4.66105
4.55518
4.42955
4.28293
4.1067
3.91839
3.70367
3.47748
1.40001
1.40001
1.40001
1.40001
1.40001
1.40001
1.40001
1.40001
1.40001
1.40001
1.40001
1.40001
1.40001
1.40001
1.40001
1.40001
1.40001
1.40001
1.40001
1.40001
1.40001
1.40001
1.40001
1.40001
1.40001
1.40001
1.40001
1.40001
1.40001
1.40001
1.40001
1.40001
1.40001
1.4
1.4004
3.2366
5.03818
5.17848
5.19665
5.19354
5.1807
5.16541
5.14492
5.12001
5.09089
5.05703
5.01729
4.9708
4.91666
4.85481
4.78504
4.706
4.61605
4.51133
4.39107
4.24907
4.08729
3.91617
3.71807
3.51688
1.40001
1.40001
1.40001
1.40001
1.40001
1.40001
1.40001
1.40001
1.40001
1.40001
1.40001
1.40001
1.40001
1.40001
1.40001
1.40001
1.40001
1.40001
1.40001
1.40001
1.40001
1.40001
1.40001
1.40001
1.40001
1.40001
1.40001
1.40001
1.40001
1.40001
1.40001
1.40001
1.40001
1.40001
1.4
2.25911
4.86164
5.21469
5.18808
5.17618
5.16379
5.14677
5.12404
5.09706
5.06573
5.0296
4.98768
4.93926
4.88337
4.8197
4.74783
4.66725
4.57678
4.47269
4.35672
4.21963
4.07123
3.91276
3.73321
3.55315
1.40001
1.40001
1.40001
1.40001
1.40001
1.40001
1.40001
1.40001
1.40001
1.40001
1.40001
1.40001
1.40001
1.40001
1.40001
1.40001
1.40001
1.40001
1.40001
1.40001
1.40001
1.40001
1.40001
1.40001
1.40001
1.40001
1.40001
1.40001
1.40001
1.40001
1.40001
1.40001
1.40001
1.40001
1.4
1.54103
4.30282
5.23314
5.179
5.15146
5.14051
5.12306
5.10061
5.07393
5.04171
5.00396
4.95995
4.90964
4.85238
4.78769
4.71511
4.63428
4.54358
4.44058
4.32695
4.19565
4.05884
3.90871
3.7461
3.58075
1.40001
1.40001
1.40001
1.40001
1.40001
1.40001
1.40001
1.40001
1.40001
1.40001
1.40001
1.40001
1.40001
1.40001
1.40001
1.40001
1.40001
1.40001
1.40001
1.40001
1.40001
1.40001
1.40001
1.40001
1.40001
1.40001
1.40001
1.40001
1.40001
1.40001
1.40001
1.40001
1.40001
1.40001
1.4
1.40208
3.3626
5.02763
5.1221
5.12982
5.11822
5.09915
5.07664
5.05042
5.01797
4.97927
4.9339
4.8821
4.82377
4.75853
4.68539
4.60572
4.51468
4.41389
4.30164
4.17853
4.04946
3.90627
3.75784
3.6027
1.40001
1.40001
1.40001
1.40001
1.40001
1.40001
1.40001
1.40001
1.40001
1.40001
1.40001
1.40001
1.40001
1.40001
1.40001
1.40001
1.40001
1.40001
1.40001
1.40001
1.40001
1.40001
1.40001
1.40001
1.40001
1.40001
1.40001
1.40001
1.40001
1.40001
1.40001
1.40001
1.40001
1.40001
1.40001
1.39998
2.26807
4.86338
5.15399
5.13066
5.10709
5.08304
5.05875
5.03088
4.99701
4.95699
4.91052
4.85757
4.79817
4.73232
4.65947
4.58037
4.48972
4.39165
4.28217
4.1668
4.04212
3.90641
3.76747
3.62019
1.40001
1.40001
1.40001
1.40001
1.40001
1.40001
1.40001
1.40001
1.40001
1.40001
1.40001
1.40001
1.40001
1.40001
1.40001
1.40001
1.40001
1.40001
1.40001
1.40001
1.40001
1.40001
1.40001
1.40001
1.40001
1.40001
1.40001
1.40001
1.40001
1.40001
1.40001
1.40001
1.40001
1.40001
1.40001
1.4
1.53113
4.20626
5.15574
5.12515
5.09689
5.06708
5.03996
5.00965
4.97407
4.9333
4.88704
4.83431
4.77511
4.70912
4.63684
4.55749
4.46902
4.37364
4.26817
4.15827
4.03787
3.91037
3.77704
3.639
1.40001
1.40001
1.40001
1.40001
1.40001
1.40001
1.40001
1.40001
1.40001
1.40001
1.40001
1.40001
1.40001
1.40001
1.40001
1.40001
1.40001
1.40001
1.40001
1.40001
1.40001
1.40001
1.40001
1.40001
1.40001
1.40001
1.40001
1.40001
1.40001
1.40001
1.40001
1.40001
1.40001
1.40001
1.40001
1.4
1.40164
3.11005
4.96561
5.09733
5.07846
5.05542
5.02989
4.9959
4.95609
4.91282
4.86566
4.8129
4.75415
4.6884
4.61671
4.5378
4.45192
4.35859
4.25748
4.15121
4.03549
3.91532
3.78631
3.6567
1.40001
1.40001
1.40001
1.40001
1.40001
1.40001
1.40001
1.40001
1.40001
1.40001
1.40001
1.40001
1.40001
1.40001
1.40001
1.40001
1.40001
1.40001
1.40001
1.40001
1.40001
1.40001
1.40001
1.40001
1.40001
1.40001
1.40001
1.40001
1.40001
1.40001
1.40001
1.40001
1.40001
1.40001
1.40001
1.40001
1.39999
1.92657
4.75111
5.1723
5.09591
5.05727
5.02294
4.9827
4.93932
4.89451
4.84638
4.7937
4.73526
4.67058
4.59956
4.52193
4.4382
4.34671
4.24951
4.14615
4.03537
3.9213
3.79749
3.6742
1.40001
1.40001
1.40001
1.40001
1.40001
1.40001
1.40001
1.40001
1.40001
1.40001
1.40001
1.40001
1.40001
1.40001
1.40001
1.40001
1.40001
1.40001
1.40001
1.40001
1.40001
1.40001
1.40001
1.40001
1.40001
1.40001
1.40001
1.40001
1.40001
1.40001
1.40001
1.40001
1.40001
1.40001
1.40001
1.40001
1.4
1.44283
3.89463
5.02749
5.0357
5.03871
5.00871
4.9658
4.92189
4.87716
4.82839
4.77546
4.71737
4.65395
4.58379
4.508
4.42619
4.33692
4.24309
4.14238
4.03583
3.92697
3.80875
3.69059
1.40001
1.40001
1.40001
1.40001
1.40001
1.40001
1.40001
1.40001
1.40001
1.40001
1.40001
1.40001
1.40001
1.40001
1.40001
1.40001
1.40001
1.40001
1.40001
1.40001
1.40001
1.40001
1.40001
1.40001
1.40001
1.40001
1.40001
1.40001
1.40001
1.40001
1.40001
1.40001
1.40001
1.40001
1.40001
1.40001
1.4
1.40004
2.62434
4.81803
5.04837
5.03397
4.99993
4.96056
4.91899
4.8727
4.82044
4.76441
4.70444
4.64033
4.57055
4.49618
4.41592
4.32916
4.23838
4.1404
4.03773
3.93333
3.8204
3.70734
1.40001
1.40001
1.40001
1.40001
1.40001
1.40001
1.40001
1.40001
1.40001
1.40001
1.40001
1.40001
1.40001
1.40001
1.40001
1.40001
1.40001
1.40001
1.40001
1.40001
1.40001
1.40001
1.40001
1.40001
1.40001
1.40001
1.40001
1.40001
1.40001
1.40001
1.40001
1.40001
1.40001
1.40001
1.40001
1.40001
1.40001
1.4
1.63524
4.30682
5.08677
5.02639
4.98599
4.94907
4.90965
4.86349
4.81055
4.75346
4.69262
4.62815
4.55894
4.48582
4.40705
4.32266
4.23449
4.13936
4.04
3.93916
3.83152
3.72335
1.40001
1.40001
1.40001
1.40001
1.40001
1.40001
1.40001
1.40001
1.40001
1.40001
1.40001
1.40001
1.40001
1.40001
1.40001
1.40001
1.40001
1.40001
1.40001
1.40001
1.40001
1.40001
1.40001
1.40001
1.40001
1.40001
1.40001
1.40001
1.40001
1.40001
1.40001
1.40001
1.40001
1.40001
1.40001
1.40001
1.40001
1.4
1.40658
3.16652
4.87518
4.98413
4.96854
4.94324
4.907
4.86043
4.80649
4.74809
4.68574
4.61975
4.54987
4.47698
4.39935
4.31706
4.23144
4.13939
4.04329
3.94585
3.84339
3.73928
1.40001
1.40001
1.40001
1.40001
1.40001
1.40001
1.40001
1.40001
1.40001
1.40001
1.40001
1.40001
1.40001
1.40001
1.40001
1.40001
1.40001
1.40001
1.40001
1.40001
1.40001
1.40001
1.40001
1.40001
1.40001
1.40001
1.40001
1.40001
1.40001
1.40001
1.40001
1.40001
1.40001
1.40001
1.40001
1.40001
1.40001
1.40001
1.39998
1.86022
4.57923
5.06296
4.9973
4.95197
4.9076
4.856
4.8003
4.74143
4.67874
4.61243
4.54264
4.47028
4.39399
4.3136
4.22993
4.14077
4.04794
3.95335
3.85539
3.75473
1.40001
1.40001
1.40001
1.40001
1.40001
1.40001
1.40001
1.40001
1.40001
1.40001
1.40001
1.40001
1.40001
1.40001
1.40001
1.40001
1.40001
1.40001
1.40001
1.40001
1.40001
1.40001
1.40001
1.40001
1.40001
1.40001
1.40001
1.40001
1.40001
1.40001
1.40001
1.40001
1.40001
1.40001
1.40001
1.40001
1.40001
1.40001
1.4
1.43011
3.57882
4.91301
4.95286
4.93817
4.89845
4.84758
4.79283
4.73479
4.67221
4.60595
4.53654
4.4648
4.38977
4.31117
4.22912
4.14283
4.05318
3.96125
3.86727
3.77054
1.40001
1.40001
1.40001
1.40001
1.40001
1.40001
1.40001
1.40001
1.40001
1.40001
1.40001
1.40001
1.40001
1.40001
1.40001
1.40001
1.40001
1.40001
1.40001
1.40001
1.40001
1.40001
1.40001
1.40001
1.40001
1.40001
1.40001
1.40001
1.40001
1.40001
1.40001
1.40001
1.40001
1.40001
1.40001
1.40001
1.40001
1.40001
1.4
1.40002
2.15263
4.70909
5.00473
4.95314
4.9005
4.84752
4.79211
4.7331
4.66946
4.60278
4.53363
4.46236
4.38828
4.31094
4.23002
4.14637
4.06015
3.9708
3.88007
3.78743
1.40001
1.40001
1.40001
1.40001
1.40001
1.40001
1.40001
1.40001
1.40001
1.40001
1.40001
1.40001
1.40001
1.40001
1.40001
1.40001
1.40001
1.40001
1.40001
1.40001
1.40001
1.40001
1.40001
1.40001
1.40001
1.40001
1.40001
1.40001
1.40001
1.40001
1.40001
1.40001
1.40001
1.40001
1.40001
1.40001
1.40001
1.40001
1.4
1.4
1.48281
3.84793
4.94326
4.91913
4.87963
4.83247
4.78053
4.72365
4.66184
4.59706
4.52968
4.45965
4.38679
4.31088
4.23159
4.15037
4.06739
3.98066
3.89276
3.80391
1.40001
1.40001
1.40001
1.40001
1.40001
1.40001
1.40001
1.40001
1.40001
1.40001
1.40001
1.40001
1.40001
1.40001
1.40001
1.40001
1.40001
1.40001
1.40001
1.40001
1.40001
1.40001
1.40001
1.40001
1.40001
1.40001
1.40001
1.40001
1.40001
1.40001
1.40001
1.40001
1.40001
1.40001
1.40001
1.40001
1.40001
1.40001
1.40001
1.4
1.40058
2.41911
4.72985
4.92083
4.87818
4.83356
4.78337
4.72811
4.66741
4.60317
4.53574
4.46509
4.39147
4.31565
4.23729
4.15725
4.07632
3.99192
3.90635
3.8207
1.40001
1.40001
1.40001
1.40001
1.40001
1.40001
1.40001
1.40001
1.40001
1.40001
1.40001
1.40001
1.40001
1.40001
1.40001
1.40001
1.40001
1.40001
1.40001
1.40001
1.40001
1.40001
1.40001
1.40001
1.40001
1.40001
1.40001
1.40001
1.40001
1.40001
1.40001
1.40001
1.40001
1.40001
1.40001
1.40001
1.40001
1.40001
1.40001
1.40001
1.4
1.5497
3.95066
4.91335
4.87188
4.83109
4.78174
4.72744
4.66834
4.6054
4.53862
4.46813
4.3945
4.31911
4.24189
4.16332
4.08452
4.00296
3.91973
3.83669
1.40001
1.40001
1.40001
1.40001
1.40001
1.40001
1.40001
1.40001
1.40001
1.40001
1.40001
1.40001
1.40001
1.40001
1.40001
1.40001
1.40001
1.40001
1.40001
1.40001
1.40001
1.40001
1.40001
1.40001
1.40001
1.40001
1.40001
1.40001
1.40001
1.40001
1.40001
1.40001
1.40001
1.40001
1.40001
1.40001
1.40001
1.40001
1.40001
1.40001
1.4
1.40233
2.522
4.68697
4.8569
4.82588
4.78147
4.72952
4.67222
4.61037
4.54437
4.47466
4.40183
4.3273
4.25132
4.17385
4.09605
4.01604
3.93407
3.85267
1.40001
1.40001
1.40001
1.40001
1.40001
1.40001
1.40001
1.40001
1.40001
1.40001
1.40001
1.40001
1.40001
1.40001
1.40001
1.40001
1.40001
1.40001
1.40001
1.40001
1.40001
1.40001
1.40001
1.40001
1.40001
1.40001
1.40001
1.40001
1.40001
1.40001
1.40001
1.40001
1.40001
1.40001
1.40001
1.40001
1.40001
1.40001
1.40001
1.40001
1.40001
1.40001
1.58034
3.93524
4.87408
4.83819
4.79045
4.73549
4.67613
4.61342
4.54782
4.47959
4.40878
4.33596
4.26141
4.1849
4.10762
4.02895
3.94833
3.86819
1.40001
1.40001
1.40001
1.40001
1.40001
1.40001
1.40001
1.40001
1.40001
1.40001
1.40001
1.40001
1.40001
1.40001
1.40001
1.40001
1.40001
1.40001
1.40001
1.40001
1.40001
1.40001
1.40001
1.40001
1.40001
1.40001
1.40001
1.40001
1.40001
1.40001
1.40001
1.40001
1.40001
1.40001
1.40001
1.40001
1.40001
1.40001
1.40001
1.40001
1.40001
1.40001
1.40359
2.47306
4.64882
4.83004
4.78539
4.73307
4.67553
4.61475
4.55073
4.48466
4.41637
4.34571
4.27289
4.19778
4.12134
4.044
3.9649
3.88554
1.40001
1.40001
1.40001
1.40001
1.40001
1.40001
1.40001
1.40001
1.40001
1.40001
1.40001
1.40001
1.40001
1.40001
1.40001
1.40001
1.40001
1.40001
1.40001
1.40001
1.40001
1.40001
1.40001
1.40001
1.40001
1.40001
1.40001
1.40001
1.40001
1.40001
1.40001
1.40001
1.40001
1.40001
1.40001
1.40001
1.40001
1.40001
1.40001
1.40001
1.40001
1.40001
1.40001
1.56277
3.84395
4.84529
4.79792
4.74313
4.68366
4.62177
4.55757
4.49255
4.4259
4.35705
4.28602
4.21272
4.1374
4.06081
3.98301
3.90435
1.40001
1.40001
1.40001
1.40001
1.40001
1.40001
1.40001
1.40001
1.40001
1.40001
1.40001
1.40001
1.40001
1.40001
1.40001
1.40001
1.40001
1.40001
1.40001
1.40001
1.40001
1.40001
1.40001
1.40001
1.40001
1.40001
1.40001
1.40001
1.40001
1.40001
1.40001
1.40001
1.40001
1.40001
1.40001
1.40001
1.40001
1.40001
1.40001
1.40001
1.40001
1.40001
1.40001
1.40298
2.34212
4.5769
4.79419
4.73881
4.68241
4.6216
4.55987
4.49729
4.43276
4.36589
4.29667
4.22522
4.15187
4.07714
4.00147
3.92486
1.40001
1.40001
1.40001
1.40001
1.40001
1.40001
1.40001
1.40001
1.40001
1.40001
1.40001
1.40001
1.40001
1.40001
1.40001
1.40001
1.40001
1.40001
1.40001
1.40001
1.40001
1.40001
1.40001
1.40001
1.40001
1.40001
1.40001
1.40001
1.40001
1.40001
1.40001
1.40001
1.40001
1.40001
1.40001
1.40001
1.40001
1.40001
1.40001
1.40001
1.40001
1.40001
1.40001
1.40001
1.52185
3.64929
4.78065
4.74953
4.69526
4.63326
4.5728
4.51091
4.44677
4.38061
4.31249
4.24246
4.1708
4.0977
4.02312
3.9475
1.40001
1.40001
1.40001
1.40001
1.40001
1.40001
1.40001
1.40001
1.40001
1.40001
1.40001
1.40001
1.40001
1.40001
1.40001
1.40001
1.40001
1.40001
1.40001
1.40001
1.40001
1.40001
1.40001
1.40001
1.40001
1.40001
1.40001
1.40001
1.40001
1.40001
1.40001
1.40001
1.40001
1.40001
1.40001
1.40001
1.40001
1.40001
1.40001
1.40001
1.40001
1.40001
1.40001
1.40001
1.40179
2.16377
4.42699
4.75747
4.69059
4.63636
4.57828
4.51767
4.45481
4.39021
4.32396
4.25597
4.18643
4.11559
4.04311
3.96914
1.40001
1.40001
1.40001
1.40001
1.40001
1.40001
1.40001
1.40001
1.40001
1.40001
1.40001
1.40001
1.40001
1.40001
1.40001
1.40001
1.40001
1.40001
1.40001
1.40001
1.40001
1.40001
1.40001
1.40001
1.40001
1.40001
1.40001
1.40001
1.40001
1.40001
1.40001
1.40001
1.40001
1.40001
1.40001
1.40001
1.40001
1.40001
1.40001
1.40001
1.40001
1.40001
1.40001
1.40001
1.40001
1.47709
3.31032
4.691
4.68762
4.64391
4.59232
4.53459
4.47272
4.40813
4.34195
4.27452
4.20571
4.13574
4.06465
3.99185
1.40001
1.40001
1.40001
1.40001
1.40001
1.40001
1.40001
1.40001
1.40001
1.40001
1.40001
1.40001
1.40001
1.40001
1.40001
1.40001
1.40001
1.40001
1.40001
1.40001
1.40001
1.40001
1.40001
1.40001
1.40001
1.40001
1.40001
1.40001
1.40001
1.40001
1.40001
1.40001
1.40001
1.40001
1.40001
1.40001
1.40001
1.40001
1.40001
1.40001
1.40001
1.40001
1.40001
1.40001
1.40001
1.40093
1.92811
4.18182
4.72431
4.66955
4.61489
4.55367
4.4893
4.42319
4.35671
4.29007
4.22248
4.1536
4.08383
4.01264
1.40001
1.40001
1.40001
1.40001
1.40001
1.40001
1.40001
1.40001
1.40001
1.40001
1.40001
1.40001
1.40001
1.40001
1.40001
1.40001
1.40001
1.40001
1.40001
1.40001
1.40001
1.40001
1.40001
1.40001
1.40001
1.40001
1.40001
1.40001
1.40001
1.40001
1.40001
1.40001
1.40001
1.40001
1.40001
1.40001
1.40001
1.40001
1.40001
1.40001
1.40001
1.40001
1.40001
1.40001
1.40001
1.40001
1.43548
2.82449
4.57662
4.68235
4.62984
4.56866
4.50274
4.43663
4.37073
4.30489
4.23847
4.17056
4.10138
4.03169
1.40001
1.40001
1.40001
1.40001
1.40001
1.40001
1.40001
1.40001
1.40001
1.40001
1.40001
1.40001
1.40001
1.40001
1.40001
1.40001
1.40001
1.40001
1.40001
1.40001
1.40001
1.40001
1.40001
1.40001
1.40001
1.40001
1.40001
1.40001
1.40001
1.40001
1.40001
1.40001
1.40001
1.40001
1.40001
1.40001
1.40001
1.40001
1.40001
1.40001
1.40001
1.40001
1.40001
1.40001
1.40001
1.40001
1.40036
1.68135
3.83168
4.7217
4.65805
4.59
4.52197
4.45689
4.39167
4.32558
4.25878
4.19085
4.12163
4.05248
1.40001
1.40001
1.40001
1.40001
1.40001
1.40001
1.40001
1.40001
1.40001
1.40001
1.40001
1.40001
1.40001
1.40001
1.40001
1.40001
1.40001
1.40001
1.40001
1.40001
1.40001
1.40001
1.40001
1.40001
1.40001
1.40001
1.40001
1.40001
1.40001
1.40001
1.40001
1.40001
1.40001
1.40001
1.40001
1.40001
1.40001
1.40001
1.40001
1.40001
1.40001
1.40001
1.40001
1.40001
1.40001
1.40001
1.40001
1.40983
2.35562
4.40777
4.65346
4.59654
4.53894
4.47683
4.41125
4.34378
4.27572
4.2078
4.13957
4.07096
1.40001
1.40001
1.40001
1.40001
1.40001
1.40001
1.40001
1.40001
1.40001
1.40001
1.40001
1.40001
1.40001
1.40001
1.40001
1.40001
1.40001
1.40001
1.40001
1.40001
1.40001
1.40001
1.40001
1.40001
1.40001
1.40001
1.40001
1.40001
1.40001
1.40001
1.40001
1.40001
1.40001
1.40001
1.40001
1.40001
1.40001
1.40001
1.40001
1.40001