/*--------------------------------*- C++ -*----------------------------------*\
  =========                 |
  \\      /  F ield         | OpenFOAM: The Open Source CFD Toolbox
   \\    /   O peration     | Website:  https://openfoam.org
    \\  /    A nd           | Version:  9
     \\/     M anipulation  |
\*---------------------------------------------------------------------------*/
FoamFile
{
    format      ascii;
    class       volVectorField;
    location    "5";
    object      U;
}
// * * * * * * * * * * * * * * * * * * * * * * * * * * * * * * * * * * * * * //

dimensions      [0 1 -1 0 0 0 0];

internalField   nonuniform List<vector> 
8500
(
(-0.00407906 0.00141029 0)
(-0.0155139 0.00210906 -7.43481e-23)
(-0.0294398 0.00190822 -4.11708e-24)
(-0.0386467 0.00121689 7.65374e-37)
(-0.0430037 0.000282676 -1.07648e-23)
(-0.0413793 -0.000783219 9.02855e-24)
(-0.0341912 -0.00191525 -5.68581e-23)
(-0.0201412 -0.00310003 -8.4639e-23)
(-0.00261793 -0.00408122 -7.23721e-23)
(0.0227027 -0.00515186 -3.64423e-24)
(-0.00423666 0.00419559 2.08278e-22)
(-0.0155021 0.00626438 6.94768e-23)
(-0.0289028 0.00565619 2.78932e-22)
(-0.0374084 0.00358607 0)
(-0.0409094 0.000793967 0)
(-0.0383038 -0.00238849 1.73467e-23)
(-0.0300406 -0.00576604 4.22903e-23)
(-0.0147481 -0.00928365 9.01352e-23)
(0.0039488 -0.0122382 5.47619e-23)
(0.0310832 -0.0153901 1.45835e-23)
(-0.00454341 0.00687608 -1.85074e-22)
(-0.0154648 0.0102328 0)
(-0.0278166 0.00920046 -2.62673e-22)
(-0.0349242 0.00576307 0)
(-0.0367202 0.00114472 -4.32068e-23)
(-0.0321624 -0.00410906 3.62381e-23)
(-0.0217585 -0.00968279 0)
(-0.0040148 -0.0154276 0)
(0.0170004 -0.0203675 0)
(0.0477252 -0.0254254 0)
(-0.00498268 0.00938522 3.75899e-22)
(-0.015375 0.0138951 -2.81352e-22)
(-0.0261569 0.0124109 -6.60025e-23)
(-0.0311777 0.00762543 -4.09085e-22)
(-0.0304343 0.00123349 -3.98734e-22)
(-0.0229757 -0.00601693 3.48862e-23)
(-0.00938364 -0.013719 -2.92974e-23)
(0.0119666 -0.021535 3.18597e-22)
(0.0363798 -0.0284131 2.58797e-24)
(0.0723882 -0.0351089 2.77796e-22)
(-0.00553015 0.0116613 -3.75899e-22)
(-0.0151925 0.0171396 -3.65869e-22)
(-0.0238867 0.0151655 9.93119e-23)
(-0.026144 0.00905906 5.44083e-22)
(-0.0220472 0.000967146 -4.67954e-23)
(-0.0107758 -0.00817278 5.73712e-22)
(0.00701528 -0.0178869 0)
(0.0330825 -0.027622 -3.62855e-22)
(0.0618759 -0.0363225 -6.94545e-23)
(0.104709 -0.0442881 -3.82944e-22)
(-0.00615445 0.0136489 9.58733e-23)
(-0.0148649 0.0198653 6.06618e-22)
(-0.0209571 0.0173541 -4.71376e-22)
(-0.0197883 0.00996148 1.38429e-24)
(-0.0115488 0.00026384 -4.01999e-22)
(0.00441098 -0.0106273 1.46901e-22)
(0.0273426 -0.0221775 -5.91263e-23)
(0.059166 -0.0336658 4.55175e-22)
(0.0932348 -0.0440597 -7.52363e-23)
(0.144225 -0.0528067 2.20338e-22)
(-0.00681806 0.0153006 4.84914e-23)
(-0.0143278 0.0219838 0)
(-0.0173065 0.0188809 -4.76305e-24)
(-0.0120651 0.0102451 0)
(0.00107629 -0.000942646 7.15412e-22)
(0.0225579 -0.0134211 -5.76789e-22)
(0.0515012 -0.0266 0)
(0.0900156 -0.0396011 1.73038e-24)
(0.130153 -0.0515664 0)
(0.190384 -0.0605015 0)
(-0.00747829 0.0165779 -7.95288e-22)
(-0.0135063 0.023422 -8.21881e-23)
(-0.0128612 0.0196672 6.11147e-22)
(-0.00291765 0.00984098 1.09669e-22)
(0.0158512 -0.00269963 -7.22048e-22)
(0.0436373 -0.0165728 -4.38477e-22)
(0.0793912 -0.0311443 -5.98327e-23)
(0.125409 -0.0453526 4.61678e-22)
(0.172289 -0.0587585 -7.61307e-23)
(0.242554 -0.0672014 5.64309e-23)
(-0.00808856 0.0174522 8.95357e-22)
(-0.0123157 0.0241227 -6.75666e-22)
(-0.00753526 0.0196541 -2.05484e-22)
(0.00772307 0.00870103 1.13803e-22)
(0.032809 -0.00503366 7.25275e-22)
(0.0676247 -0.0200771 6.55785e-22)
(0.110908 -0.035772 -6.02324e-23)
(0.165105 -0.0508296 9.49096e-23)
(0.219273 -0.0655256 -1.46629e-22)
(0.300027 -0.0727306 5.90002e-23)
(-0.00859915 0.0179039 8.2564e-22)
(-0.0106633 0.0240485 6.74754e-22)
(-0.00123123 0.018804 -9.826e-22)
(0.0199379 0.00680087 -1.14958e-22)
(0.0519928 -0.00794627 0)
(0.0945002 -0.0239037 0)
(0.145944 -0.0404166 0)
(0.208842 -0.0559192 -1.48946e-21)
(0.270709 -0.0717257 -6.0814e-22)
(0.362017 -0.076913 4.30202e-22)
(-0.00895546 0.0179185 -1.6682e-21)
(-0.00845148 0.0231846 0)
(0.00615762 0.0171033 2.25351e-21)
(0.0338188 0.00414259 9.19343e-22)
(0.0734554 -0.0114107 9.42319e-23)
(0.124248 -0.0279952 0)
(0.184386 -0.0449831 -9.57084e-22)
(0.256339 -0.0604859 7.46751e-22)
(0.326174 -0.0771812 6.08135e-22)
(0.427663 -0.0795748 -4.30214e-22)
(-0.00910169 0.017498 9.47806e-22)
(-0.00557228 0.0215303 -8.83522e-23)
(0.0147452 0.0145634 -1.13354e-21)
(0.0494669 0.000756697 -1.03288e-21)
(0.0972567 -0.01537 0)
(0.156855 -0.0322638 1.2029e-21)
(0.226114 -0.0493468 -6.69276e-24)
(0.307286 -0.0643742 6.62359e-22)
(0.385211 -0.0816792 6.9495e-22)
(0.496031 -0.0805515 -4.26412e-22)
(-0.00898646 0.0166563 -1.52312e-24)
(-0.00191505 0.0191006 1.51259e-21)
(0.0246541 0.0112211 -1.46356e-22)
(0.0669898 -0.0032967 8.23809e-22)
(0.12346 -0.0197352 4.76027e-22)
(0.192301 -0.0365907 3.11648e-22)
(0.270988 -0.0533537 9.56732e-22)
(0.361339 -0.0674147 -8.53485e-22)
(0.447316 -0.0849755 -4.7558e-22)
(0.566118 -0.0796999 3.0737e-22)
(-0.00855537 0.0154089 0)
(0.00263053 0.0159357 -1.25002e-21)
(0.0360101 0.00713925 -1.48466e-22)
(0.0864977 -0.00792726 1.01513e-23)
(0.152125 -0.0243854 7.56399e-22)
(0.230556 -0.0408265 -1.06355e-21)
(0.318843 -0.0568232 9.69719e-22)
(0.41811 -0.069432 -9.89713e-23)
(0.511926 -0.0868039 0)
(0.636851 -0.0769137 0)
(-0.00775437 0.01378 1.13617e-22)
(0.00817542 0.0120939 -1.47285e-21)
(0.048939 0.00240629 0)
(0.108099 -0.0130146 -1.06452e-22)
(0.183303 -0.029168 9.79798e-23)
(0.271566 -0.0447935 0)
(0.369471 -0.0595532 -9.76918e-22)
(0.477162 -0.0702549 -7.68136e-22)
(0.578409 -0.086892 1.41722e-22)
(0.707108 -0.0721512 -1.19467e-22)
(-0.00653085 0.0118011 -1.13534e-22)
(0.0148291 0.0076504 1.56816e-21)
(0.0635633 -0.00286479 0)
(0.131892 -0.0184095 -1.07729e-21)
(0.217027 -0.0339017 9.89981e-23)
(0.315247 -0.0482897 -1.24142e-21)
(0.422612 -0.0613276 -1.19147e-22)
(0.538 -0.0697272 8.6832e-22)
(0.646059 -0.0849792 0)
(0.775746 -0.0654648 8.47313e-22)
(-0.0048339 0.00951009 -1.80793e-21)
(0.0226969 0.00269665 -9.72115e-23)
(0.0799976 -0.00853769 -1.49339e-22)
(0.157961 -0.0239361 1.2497e-22)
(0.2533 -0.0383798 -1.57071e-21)
(0.36147 -0.0510951 1.24141e-21)
(0.477941 -0.0619276 9.9521e-22)
(0.600076 -0.067719 7.7689e-22)
(0.714089 -0.080827 1.25159e-21)
(0.841595 -0.0569816 -7.28553e-22)
(-0.00261455 0.00695037 1.92372e-21)
(0.0318778 -0.00266051 0)
(0.0983438 -0.0144549 1.39867e-21)
(0.186368 -0.0293955 -1.26618e-22)
(0.292089 -0.0423764 3.15673e-21)
(0.410049 -0.05298 0)
(0.53506 -0.061146 -9.95203e-22)
(0.662799 -0.0641385 4.38919e-24)
(0.781643 -0.0742012 -1.39345e-21)
(0.903419 -0.0468175 1.19607e-22)
(0.000173689 0.00417009 0)
(0.0424617 -0.00830049 1.5725e-21)
(0.118687 -0.02044 -1.24736e-21)
(0.217143 -0.0345695 0)
(0.333313 -0.0456526 -1.58602e-21)
(0.460739 -0.0537145 0)
(0.593498 -0.0588072 1.00601e-21)
(0.725566 -0.0589393 -7.81268e-22)
(0.847868 -0.064867 -1.24107e-21)
(0.960222 -0.0353802 -8.62686e-22)
(0.00357435 0.00122185 -2.45798e-22)
(0.0545271 -0.0140904 -1.36614e-21)
(0.141088 -0.0263014 0)
(0.250279 -0.0392263 0)
(0.376834 -0.0479649 0)
(0.513218 -0.0530798 -1.55085e-22)
(0.652705 -0.0547825 -1.01441e-21)
(0.787766 -0.0521023 -1.02444e-22)
(0.911987 -0.0528091 1.24106e-21)
(1.01245 -0.0251874 9.81305e-22)
(0.00762739 -0.00183762 0)
(0.0681384 -0.0198868 -1.6256e-21)
(0.165582 -0.0318349 0)
(0.285728 -0.0431259 0)
(0.422456 -0.0490731 0)
(0.567096 -0.0508773 1.56047e-22)
(0.712064 -0.0489908 -1.26858e-21)
(0.848691 -0.0436093 8.7783e-23)
(0.972932 -0.0388517 9.20193e-22)
(1.06392 -0.0207498 9.52296e-22)
(0.0123684 -0.0049478 0)
(0.0833432 -0.0255372 1.6256e-21)
(0.192173 -0.0368284 -1.32314e-21)
(0.323388 -0.0460274 0)
(0.469919 -0.0487497 -1.64907e-21)
(0.621915 -0.0469378 0)
(0.770916 -0.0413855 1.01516e-21)
(0.907505 -0.0334787 -7.93389e-22)
(1.02867 -0.0247668 -1.22759e-21)
(1.11422 -0.0172938 -9.45751e-22)
(0.0178279 -0.00804452 2.19669e-21)
(0.10017 -0.0308824 0)
(0.220829 -0.0410659 1.1613e-21)
(0.363109 -0.047695 1.35427e-22)
(0.5189 -0.046788 3.31364e-21)
(0.677162 -0.0411292 0)
(0.8286 -0.0319543 -1.02132e-21)
(0.963457 -0.0217232 -1.58646e-21)
(1.07902 -0.0103247 -1.06372e-21)
(1.15853 -0.00830501 -1.42814e-23)
(0.0240302 -0.0110602 -2.32946e-21)
(0.118626 -0.035758 1.11469e-22)
(0.251479 -0.0443318 1.64011e-22)
(0.404689 -0.047906 -1.37247e-22)
(0.569022 -0.0430114 -1.66456e-21)
(0.73229 -0.033366 1.31491e-21)
(0.884483 -0.0207296 1.02131e-21)
(1.01592 -0.00842936 7.93069e-22)
(1.12405 0.0046198 1.21073e-21)
(1.19626 0.0040979 -1.04968e-21)
(0.0309926 -0.0139242 1.35237e-22)
(0.138693 -0.0399971 1.6203e-21)
(0.284012 -0.0464159 0)
(0.44787 -0.046457 -9.48161e-22)
(0.619859 -0.0372802 -1.09051e-22)
(0.786733 -0.0236143 -1.3149e-21)
(0.937978 -0.00779396 1.22931e-22)
(1.0644 0.00622577 6.84051e-22)
(1.16384 0.0200072 0)
(1.2279 0.0182221 9.42017e-22)
(0.0387238 -0.0165629 -1.44385e-22)
(0.16033 -0.0434321 -1.73383e-21)
(0.318278 -0.0471181 0)
(0.492349 -0.0431706 1.19711e-22)
(0.670948 -0.0294975 -1.10115e-22)
(0.839928 -0.011893 0)
(0.98856 0.00672373 -1.02116e-21)
(1.10854 0.0220161 -7.87423e-22)
(1.19845 0.0357313 -1.42355e-22)
(1.25386 0.0331808 -1.20013e-22)
(0.0472236 -0.0189008 0)
(0.183467 -0.0458983 -2.00249e-21)
(0.354084 -0.0462529 1.81082e-22)
(0.53778 -0.0379007 -1.10887e-23)
(0.721802 -0.0196124 -8.58842e-22)
(0.891334 0.0017287 -1.4871e-21)
(1.03578 0.0226571 1.15489e-21)
(1.14812 0.0386979 0)
(1.22804 0.0516629 0)
(1.27461 0.0484196 0)
(0.0564808 -0.0208607 7.44098e-24)
(0.208006 -0.0472355 1.6859e-21)
(0.3912 -0.043654 1.8354e-22)
(0.583778 -0.0305371 1.23487e-21)
(0.771926 -0.00762082 7.46837e-22)
(0.940446 0.0171365 -1.59353e-22)
(1.07929 0.0398125 1.02459e-21)
(1.18304 0.0560284 -6.63922e-22)
(1.2528 0.0676601 -7.05896e-22)
(1.2907 0.0635743 5.50016e-22)
(0.0664733 -0.0223645 1.08237e-21)
(0.233822 -0.0472918 1.21253e-22)
(0.42936 -0.0391784 -1.45301e-21)
(0.629935 -0.0210084 -1.12034e-21)
(0.820828 0.00643541 0)
(0.986816 0.0341789 1.32818e-21)
(1.11881 0.0579797 -7.84787e-24)
(1.2133 0.0737781 8.55434e-22)
(1.27302 0.0835844 4.93064e-22)
(1.30263 0.0784143 -4.34239e-22)
(0.0771664 -0.0233351 -2.4712e-21)
(0.260761 -0.0459263 0)
(0.468264 -0.0327101 2.92074e-21)
(0.675824 -0.00928373 9.84976e-22)
(0.868036 0.0224717 1.13386e-22)
(1.03006 0.0526753 0)
(1.15418 0.0769425 -1.00428e-21)
(1.23901 0.0917391 7.41933e-22)
(1.289 0.0993115 5.45068e-22)
(1.31091 0.0928018 -4.09374e-22)
(0.0885129 -0.0236965 1.24439e-21)
(0.288644 -0.0430125 9.37144e-22)
(0.507588 -0.0241631 -1.64483e-21)
(0.721011 0.00462664 1.48194e-22)
(0.913112 0.0403652 0)
(1.06987 0.0724246 0)
(1.18532 0.0964865 0)
(1.26034 0.109729 -1.46901e-21)
(1.30111 0.114737 -5.45071e-22)
(1.31602 0.106662 4.0936e-22)
(0.100452 -0.0233765 1.12381e-21)
(0.317263 -0.0384409 -9.25922e-22)
(0.546986 -0.0134843 9.58233e-23)
(0.765067 0.0206724 0)
(0.955657 0.0599607 8.66429e-22)
(1.106 0.0932138 5.72976e-22)
(1.21221 0.116407 6.4963e-23)
(1.27751 0.127591 -6.72873e-23)
(1.30969 0.129778 1.32648e-22)
(1.31838 0.11996 -5.20698e-23)
(0.11291 -0.0223072 -1.27368e-21)
(0.346391 -0.0321225 1.15404e-22)
(0.5861 -0.000654682 7.42212e-22)
(0.807577 0.0387652 -2.10921e-22)
(0.995324 0.0810766 -6.49877e-22)
(1.13829 0.114825 -8.1268e-22)
(1.23494 0.136512 6.40781e-23)
(1.29079 0.145195 3.64567e-22)
(1.3151 0.144372 0)
(1.31837 0.132688 -4.24489e-23)
(0.125801 -0.0204273 -8.05966e-23)
(0.375779 -0.0239909 0)
(0.624561 0.0143096 2.15204e-24)
(0.848147 0.0587818 0)
(1.03182 0.103511 8.5532e-22)
(1.16664 0.13704 -6.32703e-22)
(1.25361 0.156627 0)
(1.30045 0.162433 1.05049e-23)
(1.31769 0.158474 0)
(1.31633 0.144852 0)
(0.139025 -0.0176836 -1.57485e-22)
(0.405162 -0.0140054 1.02352e-21)
(0.662005 0.0313572 -8.41022e-22)
(0.886412 0.0805676 1.42428e-22)
(1.0649 0.127048 -3.88585e-22)
(1.19103 0.159649 -7.21921e-23)
(1.26839 0.176596 0)
(1.30679 0.179218 2.58579e-22)
(1.31776 0.172051 6.44573e-23)
(1.31253 0.156466 1.66145e-22)
(0.152472 -0.0140326 -6.49531e-22)
(0.434265 -0.00215222 -4.21369e-22)
(0.698071 0.0504022 -1.38013e-22)
(0.922047 0.103941 5.69222e-22)
(1.0944 0.151463 4.97533e-23)
(1.21146 0.182449 6.20767e-22)
(1.27948 0.196277 0)
(1.31009 0.19548 -3.10985e-22)
(1.31561 0.185082 5.24297e-23)
(1.30722 0.167546 -3.67429e-22)
(0.166021 -0.00944206 -6.49531e-22)
(0.462803 0.0115536 4.21709e-22)
(0.732413 0.0713258 -4.15008e-24)
(0.954762 0.128698 -6.64395e-22)
(1.12018 0.176529 -3.61419e-22)
(1.228 0.205249 -3.48305e-23)
(1.28707 0.215549 2.92508e-23)
(1.31063 0.211161 3.46128e-22)
(1.31151 0.197552 -4.73917e-24)
(1.3006 0.178104 1.18851e-22)
(0.179544 -0.00389257 -3.22355e-22)
(0.49049 0.0270675 0)
(0.764705 0.0939783 -3.69533e-22)
(0.984315 0.154617 0)
(1.14218 0.202016 -4.56097e-22)
(1.24076 0.227871 3.95536e-23)
(1.2914 0.234303 0)
(1.30867 0.226214 0)
(1.30567 0.209448 0)
(1.29284 0.18815 0)
(0.192904 0.00262141 2.83347e-22)
(0.51704 0.0443153 1.3376e-22)
(0.794646 0.118182 3.69533e-22)
(1.01051 0.181462 0)
(1.16036 0.227699 0)
(1.24988 0.250149 -1.61965e-23)
(1.29269 0.252444 6.1718e-23)
(1.30445 0.240601 6.67348e-23)
(1.2983 0.220761 5.70594e-23)
(1.28408 0.197688 -9.21911e-24)
(0.20596 0.0100905 -4.964e-24)
(0.542176 0.0631934 -1.24929e-22)
(0.821962 0.143734 5.90598e-24)
(1.03318 0.208988 7.74614e-24)
(1.17473 0.253361 -1.20165e-23)
(1.2555 0.27193 4.6361e-24)
(1.29117 0.269888 -5.34815e-23)
(1.29819 0.254288 -6.22238e-23)
(1.28958 0.231479 -4.35832e-23)
(1.27444 0.206717 1.3113e-24)
(0.218571 0.0184897 0)
(0.565632 0.08357 -1.21311e-22)
(0.846414 0.170411 -4.6083e-24)
(1.05222 0.236944 8.71561e-24)
(1.18535 0.278788 1.66896e-37)
(1.25779 0.293073 -1.17003e-37)
(1.28705 0.286561 -4.7903e-23)
(1.2901 0.267244 -5.38783e-23)
(1.27966 0.241589 -3.93011e-23)
(1.26403 0.21523 0)
(0.230592 0.027778 3.4028e-22)
(0.587159 0.105286 9.91824e-23)
(0.867799 0.19797 3.61868e-22)
(1.06757 0.265076 -1.69555e-23)
(1.19231 0.303779 0)
(1.25695 0.313448 1.38704e-23)
(1.28055 0.302395 3.12145e-23)
(1.28036 0.279439 5.81174e-23)
(1.26868 0.251074 3.08726e-23)
(1.25292 0.223218 7.10111e-24)
(0.241883 0.0378982 -3.03019e-22)
(0.606525 0.12816 0)
(0.885947 0.226156 -3.41607e-22)
(1.0792 0.293133 0)
(1.1957 0.328141 -3.83388e-23)
(1.25315 0.332938 3.21554e-23)
(1.27186 0.317329 0)
(1.26914 0.290845 0)
(1.25673 0.259916 0)
(1.24119 0.230665 0)
(0.252308 0.0487776 5.70073e-22)
(0.623525 0.151984 -3.70339e-22)
(0.900732 0.254702 -8.05049e-23)
(1.0871 0.320865 -3.64078e-22)
(1.19566 0.351691 -3.51745e-22)
(1.24658 0.351433 2.39922e-23)
(1.26117 0.331308 -2.01489e-23)
(1.25658 0.301434 1.53002e-22)
(1.24392 0.268091 4.13639e-24)
(1.22888 0.237544 8.80497e-23)
(0.261738 0.0603279 -5.70074e-22)
(0.63798 0.176534 -4.3835e-22)
(0.91206 0.283334 1.13057e-22)
(1.09134 0.348028 4.37985e-22)
(1.19235 0.374259 -2.03371e-23)
(1.23745 0.368832 3.75094e-22)
(1.24867 0.344278 0)
(1.24282 0.311177 -1.73524e-22)
(1.23035 0.275582 -2.23594e-23)
(1.21601 0.243822 -1.05299e-22)
(0.270053 0.0724468 1.30197e-22)
(0.64974 0.20157 7.57557e-22)
(0.919881 0.311777 -5.06478e-22)
(1.09197 0.374387 -1.03339e-22)
(1.18592 0.395682 -2.62802e-22)
(1.22595 0.385042 5.41701e-23)
(1.23452 0.356189 -3.31858e-23)
(1.22797 0.320038 1.6057e-22)
(1.21614 0.282386 -2.59358e-23)
(1.20263 0.249478 5.5544e-23)
(0.277146 0.0850186 6.35787e-23)
(0.658685 0.226839 0)
(0.924178 0.339753 3.58598e-23)
(1.08911 0.399713 0)
(1.17655 0.415811 5.26488e-22)
(1.21225 0.399978 -3.3822e-22)
(1.21887 0.366996 0)
(1.21214 0.32797 -2.30271e-23)
(1.20132 0.28847 0)
(1.18886 0.254483 0)
(0.282923 0.0979163 -9.24094e-22)
(0.664729 0.252077 -8.35758e-23)
(0.924972 0.366989 6.08486e-22)
(1.08288 0.423792 7.81192e-23)
(1.16443 0.434508 -5.40328e-22)
(1.19655 0.413563 -1.86989e-22)
(1.20187 0.376659 -2.53266e-23)
(1.19546 0.334952 7.91815e-23)
(1.1859 0.293778 -1.66856e-23)
(1.17476 0.258831 4.5767e-24)
(0.287303 0.111003 1.02947e-21)
(0.667819 0.277016 -6.46985e-22)
(0.922318 0.393217 -1.72775e-22)
(1.07343 0.446417 9.03418e-23)
(1.14974 0.451645 4.25387e-22)
(1.17902 0.425723 2.83848e-22)
(1.18368 0.38513 -2.11464e-23)
(1.17802 0.340966 -3.46126e-23)
(1.16995 0.298285 -1.74007e-23)
(1.16034 0.262479 4.66474e-24)
(0.290226 0.124133 7.80168e-22)
(0.667935 0.301385 6.36033e-22)
(0.916301 0.418178 -7.24951e-22)
(1.06093 0.467398 -8.1276e-23)
(1.1327 0.467105 0)
(1.15985 0.436392 0)
(1.16442 0.392365 0)
(1.15991 0.34598 -1.84942e-22)
(1.15355 0.301969 -1.1023e-23)
(1.14564 0.265393 -2.70827e-23)
(0.291644 0.137156 -1.4799e-21)
(0.665088 0.324914 0)
(0.907043 0.441625 1.54672e-21)
(1.04557 0.486558 4.49099e-22)
(1.11349 0.48078 0)
(1.13921 0.445512 0)
(1.14422 0.398327 -1.02446e-22)
(1.1412 0.34996 6.75329e-23)
(1.13676 0.304803 1.10231e-23)
(1.13068 0.267541 2.70816e-23)
(0.291534 0.149917 7.77772e-22)
(0.659327 0.347337 -6.5519e-23)
(0.894694 0.463325 -7.24644e-22)
(1.02755 0.503729 -4.91846e-22)
(1.09233 0.492575 3.58072e-23)
(1.11728 0.453029 1.60751e-22)
(1.12321 0.402982 6.96119e-23)
(1.12199 0.35288 -3.12695e-23)
(1.11963 0.30676 -6.93256e-23)
(1.11552 0.268892 8.52363e-23)
(0.289887 0.162261 -3.55817e-24)
(0.650733 0.368398 8.26815e-22)
(0.879425 0.48306 -8.07749e-23)
(1.00706 0.518763 2.52134e-22)
(1.06942 0.502402 1.26007e-22)
(1.09423 0.458893 -6.35656e-23)
(1.10151 0.406299 2.22278e-23)
(1.10235 0.354713 3.88723e-23)
(1.1022 0.307815 -9.13779e-23)
(1.10019 0.269415 -6.39268e-23)
(0.28672 0.174033 0)
(0.639426 0.387854 -7.07287e-22)
(0.861394 0.500611 -6.66925e-23)
(0.984357 0.531537 -8.63018e-23)
(1.04498 0.510185 -1.2756e-22)
(1.07021 0.463065 -6.94781e-23)
(1.07924 0.40825 -1.19193e-22)
(1.08236 0.355436 0)
(1.08453 0.307949 0)
(1.08472 0.269081 0)
(0.282059 0.185076 4.74022e-23)
(0.62554 0.405484 -5.01866e-22)
(0.840804 0.515786 0)
(0.959684 0.541929 -1.01022e-22)
(1.01921 0.515865 1.02891e-23)
(1.04539 0.465508 0)
(1.05653 0.408811 1.09721e-22)
(1.06212 0.355032 1.93858e-22)
(1.06667 0.307143 -4.39785e-23)
(1.06916 0.26786 3.70278e-23)
(0.275933 0.195221 -3.335e-23)
(0.609241 0.421074 5.29866e-22)
(0.817917 0.528436 0)
(0.933271 0.549831 -1.11598e-22)
(0.992319 0.519393 1.35342e-24)
(1.01994 0.466194 2.29282e-22)
(1.03348 0.407964 2.98961e-23)
(1.0417 0.353485 -2.19e-22)
(1.04866 0.305385 0)
(1.05354 0.265717 -4.04225e-22)
(0.268427 0.204325 -2.17396e-22)
(0.590704 0.434406 -1.76547e-23)
(0.792982 0.538422 -4.79086e-24)
(0.90536 0.55516 4.00921e-24)
(0.964516 0.520725 2.80978e-22)
(0.994015 0.465103 -2.29284e-22)
(1.01023 0.405692 -3.27817e-22)
(1.02119 0.350787 -3.00691e-22)
(1.03056 0.302662 -5.28819e-22)
(1.03789 0.262619 3.53048e-22)
(0.25965 0.212277 2.38425e-22)
(0.570121 0.445296 0)
(0.766254 0.545613 -9.72555e-23)
(0.876199 0.557849 8.3596e-24)
(0.936008 0.519832 -6.99301e-22)
(0.967766 0.46222 0)
(0.986878 0.401988 3.2782e-22)
(1.00069 0.346932 -5.31837e-23)
(1.0124 0.298964 6.00636e-22)
(1.02226 0.25852 -6.04554e-23)
(0.24969 0.218951 0)
(0.54773 0.453598 -1.28102e-22)
(0.738002 0.549903 8.72666e-23)
(0.84604 0.557847 0)
(0.906997 0.516696 4.18324e-22)
(0.941352 0.457537 0)
(0.963553 0.396846 -4.72668e-22)
(0.980266 0.341922 3.53879e-22)
(0.994259 0.29428 6.86749e-22)
(1.00679 0.253372 5.67656e-22)
(0.238657 0.224232 3.53089e-23)
(0.523781 0.459181 9.84593e-23)
(0.708499 0.551211 0)
(0.815135 0.555123 0)
(0.877687 0.511309 0)
(0.914925 0.451055 7.38824e-23)
(0.940366 0.390271 3.46681e-22)
(0.960021 0.335766 5.37701e-23)
(0.97629 0.288644 -6.86753e-22)
(0.991612 0.247301 -6.38768e-22)
(0.226681 0.228025 0)
(0.49853 0.461938 4.58046e-22)
(0.678028 0.549481 0)
(0.783737 0.54966 0)
(0.848276 0.503674 0)
(0.888634 0.442783 -8.53405e-23)
(0.917429 0.382269 7.5824e-22)
(0.940065 0.328468 -1.80805e-22)
(0.95878 0.282144 -6.38406e-22)
(0.976727 0.240355 -6.65656e-22)
(0.213903 0.230246 0)
(0.472245 0.461786 -4.58047e-22)
(0.646873 0.544677 5.96892e-22)
(0.752094 0.541461 0)
(0.818959 0.493809 9.61256e-22)
(0.862626 0.432736 0)
(0.894851 0.37285 -6.14323e-22)
(0.920519 0.320003 5.60004e-22)
(0.941885 0.274755 8.37176e-22)
(0.96247 0.234069 6.6722e-22)
(0.200472 0.23083 -1.09527e-21)
(0.445204 0.45867 0)
(0.615318 0.536788 -5.1207e-22)
(0.720453 0.530542 -7.09854e-23)
(0.789926 0.48174 -2.05328e-21)
(0.837042 0.420939 0)
(0.872738 0.362032 7.50361e-22)
(0.901441 0.310386 4.8596e-23)
(0.925428 0.266359 8.65787e-22)
(0.948155 0.227167 8.40253e-25)
(0.186548 0.229729 1.16561e-21)
(0.417686 0.452559 -5.90585e-23)
(0.583648 0.525826 -9.93819e-23)
(0.689055 0.516939 -8.3168e-23)
(0.761364 0.467506 1.09202e-21)
(0.812021 0.407425 -1.00455e-21)
(0.851193 0.349839 -7.50365e-22)
(0.882909 0.299646 -6.08607e-22)
(0.909472 0.257003 -9.80579e-22)
(0.934156 0.219413 9.26446e-22)
(0.172294 0.22691 -8.31667e-23)
(0.389973 0.443451 -1.03741e-21)
(0.552144 0.511824 0)
(0.658137 0.500703 7.09794e-22)
(0.733453 0.451157 8.00035e-23)
(0.787699 0.392234 1.00456e-21)
(0.830321 0.336303 -1.03558e-22)
(0.865005 0.287807 -6.13797e-22)
(0.894092 0.24673 0)
(0.920628 0.210821 -8.24883e-22)
(0.157878 0.222361 1.02271e-22)
(0.36235 0.431368 1.10724e-21)
(0.521083 0.494839 0)
(0.627926 0.481902 -2.2091e-23)
(0.706367 0.432755 8.82775e-23)
(0.764206 0.375416 0)
(0.810222 0.321459 9.38695e-22)
(0.847809 0.274895 7.00884e-22)
(0.879348 0.235562 1.38545e-22)
(0.907658 0.201432 -1.1669e-22)
(0.143469 0.216087 0)
(0.335093 0.41636 1.57817e-21)
(0.490732 0.474949 -1.40984e-22)
(0.598644 0.460618 7.98255e-23)
(0.680272 0.412373 7.87704e-22)
(0.741666 0.357028 1.40576e-21)
(0.790993 0.305353 -1.06334e-21)
(0.831394 0.260945 0)
(0.8653 0.223526 0)
(0.895313 0.191267 0)
(0.129236 0.20811 -8.06423e-24)
(0.308477 0.398503 -1.32395e-21)
(0.461351 0.452253 1.55467e-22)
(0.570501 0.436951 -1.09234e-21)
(0.655327 0.390093 -6.83897e-22)
(0.7202 0.337137 2.33821e-22)
(0.772724 0.288035 -1.05869e-21)
(0.815832 0.245996 7.19966e-22)
(0.852002 0.210654 7.98621e-22)
(0.883652 0.180355 -6.32312e-22)
(0.115347 0.198472 -1.02811e-21)
(0.282766 0.377896 -1.0958e-22)
(0.433189 0.426871 1.40099e-21)
(0.543698 0.411012 1.1159e-21)
(0.631685 0.366009 0)
(0.699921 0.315817 -1.33366e-21)
(0.755505 0.269564 -5.09995e-23)
(0.801191 0.230096 -9.26194e-22)
(0.83951 0.196983 -5.60226e-22)
(0.872721 0.168729 5.03763e-22)
(0.101962 0.187232 2.40314e-21)
(0.258214 0.354663 0)
(0.406482 0.398942 -2.89623e-21)
(0.518424 0.382928 -9.75389e-22)
(0.609487 0.340226 -1.17711e-22)
(0.680936 0.293149 0)
(0.739415 0.250005 1.10151e-21)
(0.787534 0.213297 -8.94673e-22)
(0.827871 0.182557 -6.96661e-22)
(0.862562 0.156432 5.41465e-22)
(0.089239 0.174465 -1.24451e-21)
(0.235063 0.328951 -9.64712e-22)
(0.381452 0.368621 1.68258e-21)
(0.494857 0.352839 -1.5678e-22)
(0.588866 0.312856 0)
(0.663343 0.269223 0)
(0.724532 0.229429 0)
(0.774921 0.195658 1.82047e-21)
(0.817134 0.167424 6.96664e-22)
(0.853212 0.143508 -5.41465e-22)
(0.0773257 0.160264 -1.23727e-21)
(0.213538 0.300926 9.53437e-22)
(0.358306 0.336082 1.0271e-22)
(0.47316 0.320897 0)
(0.569943 0.284022 -1.02282e-21)
(0.647237 0.244136 -7.00455e-22)
(0.710927 0.207913 -7.91059e-23)
(0.763405 0.177242 1.41453e-22)
(0.807341 0.151637 -1.83136e-22)
(0.844703 0.130007 7.39555e-23)
(0.0663605 0.144736 1.39699e-21)
(0.193848 0.270778 -1.28844e-22)
(0.337234 0.301515 -1.07729e-21)
(0.453483 0.287266 2.47063e-22)
(0.552833 0.253854 7.62399e-22)
(0.6327 0.21799 9.97241e-22)
(0.698664 0.185541 -8.1681e-23)
(0.753038 0.158117 -4.64407e-22)
(0.798531 0.135254 0)
(0.837065 0.115981 7.03187e-23)
(0.0564707 0.128001 9.33379e-23)
(0.176185 0.23871 0)
(0.318407 0.265124 -3.14068e-23)
(0.435963 0.252118 0)
(0.537634 0.22249 -1.08946e-21)
(0.619809 0.190896 8.41525e-22)
(0.687802 0.1624 0)
(0.743864 0.138357 1.10521e-23)
(0.790741 0.118334 0)
(0.830322 0.101486 0)
(0.047771 0.110193 1.8743e-22)
(0.160718 0.204945 -1.22133e-21)
(0.301979 0.227126 1.00822e-21)
(0.420718 0.215636 -1.77778e-22)
(0.524438 0.190076 4.7034e-22)
(0.608632 0.162968 1.30087e-22)
(0.678393 0.138583 0)
(0.735924 0.118038 -3.79209e-22)
(0.784003 0.100944 -1.02286e-22)
(0.824499 0.0865795 -3.041e-22)
(0.0403621 0.0914586 8.05471e-22)
(0.147596 0.169719 -1.8042e-21)
(0.288082 0.187747 1.72713e-22)
(0.407852 0.178013 -7.39155e-22)
(0.513321 0.156762 -8.43849e-23)
(0.599227 0.134327 -8.60254e-22)
(0.670483 0.114188 0)
(0.729253 0.0972397 5.17914e-22)
(0.778344 0.0831498 -9.52773e-23)
(0.819616 0.0713223 6.92559e-22)
(0.0343297 0.0719513 -8.05471e-22)
(0.136945 0.133281 6.60642e-22)
(0.276828 0.147225 -1.18695e-22)
(0.397454 0.139445 8.69651e-22)
(0.504348 0.122705 4.94325e-22)
(0.591643 0.105095 5.29553e-23)
(0.664108 0.0893147 -4.44722e-23)
(0.72388 0.0760459 -5.80468e-22)
(0.773788 0.065022 4.44386e-24)
(0.815688 0.0557756 -2.30282e-22)
(0.0297434 0.0518346 4.16596e-22)
(0.128866 0.095889 0)
(0.268308 0.105807 4.88632e-22)
(0.389593 0.100136 0)
(0.497572 0.0880653 6.97824e-23)
(0.58592 0.0754004 -5.85283e-23)
(0.6593 0.0640661 0)
(0.71983 0.0545418 0)
(0.770354 0.0466326 0)
(0.81273 0.0400023 0)
(0.0266561 0.031278 -3.65841e-22)
(0.123437 0.0578099 -1.32649e-22)
(0.262589 0.0637436 -4.88632e-22)
(0.384323 0.0602955 0)
(0.493033 0.0530073 0)
(0.582088 0.0453737 2.69804e-23)
(0.656081 0.0385479 -1.09147e-22)
(0.717119 0.0328147 -1.32753e-22)
(0.768056 0.028055 -1.26627e-22)
(0.810753 0.0240666 2.06195e-23)
(0.0251035 0.0104557 -6.58219e-24)
(0.12071 0.0193161 1.43852e-22)
(0.259719 0.0212912 -6.96439e-24)
(0.381678 0.0201342 2.38828e-23)
(0.490756 0.0176972 -9.59809e-24)
(0.580167 0.0151469 0)
(0.654468 0.0128674 8.64889e-23)
(0.715761 0.0109532 1.32753e-22)
(0.766905 0.00936429 9.60057e-23)
(0.809762 0.00803309 1.46486e-23)
(0.0251035 -0.0104557 -6.58219e-24)
(0.12071 -0.0193161 1.43852e-22)
(0.259719 -0.0212912 -6.96439e-24)
(0.381678 -0.0201342 2.38828e-23)
(0.490756 -0.0176972 -9.59809e-24)
(0.580167 -0.0151469 0)
(0.654468 -0.0128674 7.61058e-23)
(0.715761 -0.0109532 1.41484e-22)
(0.766905 -0.00936429 1.02145e-22)
(0.809762 -0.00803309 0)
(0.0266561 -0.031278 -4.6735e-22)
(0.123437 -0.0578099 -1.73908e-22)
(0.262589 -0.0637436 -5.18181e-22)
(0.384323 -0.0602955 2.47286e-23)
(0.493033 -0.0530073 0)
(0.582088 -0.0453737 -2.69804e-23)
(0.656081 -0.0385479 -6.38305e-23)
(0.717119 -0.0328147 -1.32753e-22)
(0.768056 -0.0280551 -7.76626e-23)
(0.810753 -0.0240666 -2.06195e-23)
(0.0297434 -0.0518346 4.16596e-22)
(0.128866 -0.095889 0)
(0.268308 -0.105807 4.88632e-22)
(0.389593 -0.100136 0)
(0.497572 -0.0880653 6.97824e-23)
(0.58592 -0.0754004 -5.85283e-23)
(0.6593 -0.0640661 0)
(0.71983 -0.0545418 0)
(0.770354 -0.0466326 0)
(0.81273 -0.0400023 0)
(0.0343297 -0.0719513 -8.05471e-22)
(0.136945 -0.133281 5.14646e-22)
(0.276828 -0.147225 1.18695e-22)
(0.397454 -0.139445 5.94735e-22)
(0.504348 -0.122705 6.43797e-22)
(0.591643 -0.105095 -5.29553e-23)
(0.664108 -0.0893147 4.44722e-23)
(0.72388 -0.0760459 -4.55361e-22)
(0.773788 -0.065022 -4.44386e-24)
(0.815688 -0.0557756 -3.86144e-22)
(0.0403621 -0.0914586 8.05471e-22)
(0.147596 -0.169719 6.28915e-22)
(0.288082 -0.187747 -1.72713e-22)
(0.407852 -0.178013 -7.25228e-22)
(0.513321 -0.156762 6.23816e-23)
(0.599227 -0.134327 -8.60254e-22)
(0.670483 -0.114188 0)
(0.729253 -0.0972397 5.17914e-22)
(0.778344 -0.0831498 9.52773e-23)
(0.819616 -0.0713223 5.32069e-22)
(0.047771 -0.110193 -1.8743e-22)
(0.160718 -0.204945 1.22133e-21)
(0.301979 -0.227126 7.87917e-22)
(0.420718 -0.215636 1.77778e-22)
(0.524438 -0.190076 5.92476e-22)
(0.608632 -0.162968 -1.94969e-22)
(0.678393 -0.138583 8.59404e-23)
(0.735924 -0.118038 -6.22169e-22)
(0.784003 -0.100944 1.02286e-22)
(0.824499 -0.0865795 -3.041e-22)
(0.0564707 -0.128001 -9.33379e-23)
(0.176185 -0.23871 0)
(0.318407 -0.265124 -3.14068e-23)
(0.435963 -0.252118 0)
(0.537634 -0.22249 -1.08946e-21)
(0.619809 -0.190896 8.41525e-22)
(0.687802 -0.1624 0)
(0.743864 -0.138357 1.10521e-23)
(0.790741 -0.118334 0)
(0.830322 -0.101486 0)
(0.0663605 -0.144736 1.39699e-21)
(0.193848 -0.270778 1.28844e-22)
(0.337234 -0.301515 -7.58907e-22)
(0.453483 -0.287266 -1.60965e-22)
(0.552833 -0.253854 1.28324e-21)
(0.6327 -0.21799 5.92064e-22)
(0.698664 -0.185541 8.1681e-23)
(0.753038 -0.158117 -5.80739e-22)
(0.798531 -0.135254 9.79512e-23)
(0.837065 -0.115981 -7.03187e-23)
(0.0773257 -0.160264 -1.55672e-21)
(0.213538 -0.300926 9.75989e-22)
(0.358306 -0.336082 9.43052e-23)
(0.47316 -0.320897 -1.64874e-22)
(0.569943 -0.284022 -1.02282e-21)
(0.647237 -0.244136 -8.88846e-22)
(0.710927 -0.207913 7.91059e-23)
(0.763405 -0.177242 -8.49773e-23)
(0.807341 -0.151637 1.83136e-22)
(0.844703 -0.130007 -7.39555e-23)
(0.089239 -0.174465 -1.24451e-21)
(0.235063 -0.328951 -9.64712e-22)
(0.381452 -0.368621 1.30789e-21)
(0.494857 -0.352839 1.5678e-22)
(0.588866 -0.312856 0)
(0.663343 -0.269223 0)
(0.724532 -0.229429 0)
(0.774921 -0.195658 1.82047e-21)
(0.817134 -0.167424 6.96664e-22)
(0.853212 -0.143508 -5.41465e-22)
(0.101962 -0.187232 2.40314e-21)
(0.258214 -0.354663 0)
(0.406482 -0.398942 -2.89623e-21)
(0.518424 -0.382928 -1.1159e-21)
(0.609487 -0.340226 0)
(0.680936 -0.293149 0)
(0.739415 -0.250005 1.10151e-21)
(0.787534 -0.213297 -8.94673e-22)
(0.827871 -0.182557 -6.96661e-22)
(0.862562 -0.156432 5.41465e-22)
(0.115347 -0.198472 -1.28915e-21)
(0.282766 -0.377896 1.0958e-22)
(0.433189 -0.426871 1.40099e-21)
(0.543698 -0.411012 1.24839e-21)
(0.631685 -0.366009 -1.10985e-22)
(0.699921 -0.315817 -1.33366e-21)
(0.755505 -0.269564 -5.09995e-23)
(0.801191 -0.230096 -7.22463e-22)
(0.83951 -0.196983 -7.31768e-22)
(0.872721 -0.168729 5.03763e-22)
(0.129236 -0.20811 8.06423e-24)
(0.308477 -0.398503 -1.49522e-21)
(0.461351 -0.452253 -1.55467e-22)
(0.570501 -0.436951 -8.445e-22)
(0.655327 -0.390093 -6.9267e-22)
(0.7202 -0.337137 -2.48009e-22)
(0.772724 -0.288035 -1.04232e-21)
(0.815832 -0.245996 9.28685e-22)
(0.852002 -0.210654 4.93368e-22)
(0.883652 -0.180355 -3.75214e-22)
(0.143469 -0.216087 0)
(0.335093 -0.41636 1.241e-21)
(0.490732 -0.474949 1.40984e-22)
(0.598644 -0.460618 7.98255e-23)
(0.680272 -0.412373 7.87704e-22)
(0.741666 -0.357028 1.10894e-21)
(0.790993 -0.305353 -9.31658e-22)
(0.831394 -0.260945 9.88877e-23)
(0.8653 -0.223526 0)
(0.895313 -0.191267 0)