/*--------------------------------*- C++ -*----------------------------------*\
  =========                 |
  \\      /  F ield         | OpenFOAM: The Open Source CFD Toolbox
   \\    /   O peration     | Website:  https://openfoam.org
    \\  /    A nd           | Version:  9
     \\/     M anipulation  |
\*---------------------------------------------------------------------------*/
FoamFile
{
    format      ascii;
    class       volVectorField;
    location    "3.9";
    object      U;
}
// * * * * * * * * * * * * * * * * * * * * * * * * * * * * * * * * * * * * * //

dimensions      [0 1 -1 0 0 0 0];

internalField   nonuniform List<vector> 
8500
(
(-0.0346906 0.0122405 0)
(-0.132226 0.0179334 -8.23954e-23)
(-0.254229 0.0188341 -4.62753e-24)
(-0.361256 0.0182736 9.65543e-37)
(-0.463308 0.0167603 -1.5896e-23)
(-0.54796 0.0136088 1.32359e-23)
(-0.60977 0.00823964 -9.6955e-23)
(-0.628048 -0.00108408 -1.51045e-22)
(-0.603219 -0.0125358 -1.25711e-22)
(-0.481194 -0.0280886 -5.74817e-24)
(-0.0349455 0.0362339 2.30961e-22)
(-0.130131 0.0533156 7.72821e-23)
(-0.248609 0.0560926 3.26059e-22)
(-0.351576 0.0544252 0)
(-0.448509 0.0499052 0)
(-0.526859 0.0405311 2.83949e-23)
(-0.581824 0.0246537 7.3246e-23)
(-0.592173 -0.00293338 1.60648e-22)
(-0.562233 -0.0370895 9.65685e-23)
(-0.430813 -0.0828982 2.34717e-23)
(-0.0354198 0.0587916 -2.05137e-22)
(-0.126045 0.087259 0)
(-0.23764 0.0921309 -3.06258e-22)
(-0.332698 0.089401 0)
(-0.419716 0.0819329 -6.45922e-23)
(-0.485918 0.066579 5.37831e-23)
(-0.52787 0.0408619 0)
(-0.523265 -0.00375739 0)
(-0.484284 -0.0600424 0)
(-0.336088 -0.133595 0)
(-0.0360473 0.0790455 4.22407e-22)
(-0.120168 0.118853 -3.15946e-22)
(-0.221841 0.126165 -7.82454e-23)
(-0.305536 0.122451 -5.20505e-22)
(-0.378449 0.112128 -5.66724e-22)
(-0.427476 0.0911916 5.85676e-23)
(-0.451357 0.0566528 -4.89007e-23)
(-0.42616 -0.00278242 6.06186e-22)
(-0.375627 -0.080355 8.94053e-24)
(-0.206112 -0.177529 4.53733e-22)
(-0.0367405 0.0962557 -4.22406e-22)
(-0.112787 0.147259 -4.18314e-22)
(-0.201949 0.157449 1.20082e-22)
(-0.271367 0.152871 7.00569e-22)
(-0.32678 0.139807 -6.72533e-23)
(-0.354691 0.113813 9.29291e-22)
(-0.35678 0.0716378 0)
(-0.306953 0.000616254 -6.89204e-22)
(-0.243167 -0.0971094 -1.27447e-22)
(-0.0506692 -0.212473 -6.412e-22)
(-0.0374028 0.109851 1.09537e-22)
(-0.104266 0.171732 6.88329e-22)
(-0.178873 0.18529 -5.59015e-22)
(-0.231737 0.180011 -5.83871e-24)
(-0.267169 0.164325 -5.96572e-22)
(-0.271298 0.133884 2.43518e-22)
(-0.249348 0.0851575 -1.01142e-22)
(-0.172699 0.00646332 9.01242e-22)
(-0.0940134 -0.110508 -1.49016e-22)
(0.12087 -0.236273 3.83902e-22)
(-0.0379418 0.119461 5.5397e-23)
(-0.0950205 0.191646 0)
(-0.153648 0.209051 -7.23717e-24)
(-0.188371 0.20328 0)
(-0.202287 0.185094 1.03668e-21)
(-0.181363 0.150908 -9.39731e-22)
(-0.13475 0.0963873 0)
(-0.0317694 0.0148036 1.05098e-23)
(0.0644687 -0.120967 0)
(0.299282 -0.249418 0)
(-0.0382817 0.124935 -9.1144e-22)
(-0.0855064 0.206511 -9.6764e-23)
(-0.127383 0.22816 7.2867e-22)
(-0.143094 0.222151 1.50866e-22)
(-0.134853 0.201579 -1.05819e-21)
(-0.0890086 0.164497 -7.10643e-22)
(-0.0183667 0.104483 -1.02755e-22)
(0.108151 0.0231562 9.26204e-22)
(0.223109 -0.127388 -1.54534e-22)
(0.474782 -0.25391 9.32645e-23)
(-0.0383721 0.126348 1.02724e-21)
(-0.0761887 0.216005 -7.67648e-22)
(-0.101212 0.242129 -2.50131e-22)
(-0.0977619 0.23616 1.40333e-22)
(-0.0675075 0.213249 1.04712e-21)
(0.00186662 0.174092 1.06996e-21)
(0.0939096 0.108945 -1.02534e-22)
(0.24135 0.0284311 1.77505e-22)
(0.376812 -0.131067 -2.9634e-22)
(0.639589 -0.251862 1.18992e-22)
(-0.0381963 0.123999 9.40186e-22)
(-0.067511 0.219983 7.70268e-22)
(-0.0762261 0.250526 -1.15195e-21)
(-0.054172 0.244815 -1.40624e-22)
(-0.00287573 0.219662 0)
(0.0878646 0.179074 0)
(0.197726 0.109365 0)
(0.363621 0.0297387 -2.91793e-21)
(0.522908 -0.13393 -1.21475e-21)
(0.789262 -0.245323 8.49055e-22)
(-0.0377778 0.118389 -1.89189e-21)
(-0.059874 0.218506 0)
(-0.0534307 0.253023 2.64416e-21)
(-0.0139317 0.247679 1.15069e-21)
(0.0567023 0.220479 1.24153e-22)
(0.165771 0.179019 0)
(0.290638 0.105385 -1.64501e-21)
(0.475223 0.0257841 1.44893e-21)
(0.661002 -0.136578 1.21472e-21)
(0.921609 -0.235433 -8.49027e-22)
(-0.0371797 0.110177 1.07114e-21)
(-0.0535952 0.21187 -9.80329e-23)
(-0.0336739 0.249502 -1.32221e-21)
(0.0215889 0.244499 -1.29851e-21)
(0.109409 0.215435 0)
(0.233391 0.17336 1.79535e-21)
(0.373418 0.0965971 3.85765e-23)
(0.580424 0.0166698 1.20565e-21)
(0.791646 -0.138552 1.29743e-21)
(1.03583 -0.222757 -8.13803e-22)
(-0.0365046 0.10013 -5.0414e-25)
(-0.0488706 0.200615 1.67168e-21)
(-0.0175404 0.240084 -1.63093e-22)
(0.0514619 0.235181 9.78959e-22)
(0.154228 0.204478 6.09297e-22)
(0.290623 0.161499 4.01808e-22)
(0.451134 0.0830264 1.61553e-21)
(0.6853 0.00412386 -1.54823e-21)
(0.914376 -0.138561 -8.88947e-22)
(1.13153 -0.207613 5.93737e-22)
(-0.0358904 0.0890574 0)
(-0.0457493 0.185509 -1.37469e-21)
(-0.00523542 0.225169 -1.62856e-22)
(0.0754678 0.219887 -1.57427e-23)
(0.19153 0.187837 9.87649e-22)
(0.341181 0.143431 -1.53027e-21)
(0.532063 0.0663761 1.52744e-21)
(0.793519 -0.00900781 -1.62795e-22)
(1.02667 -0.135204 0)
(1.20852 -0.190449 0)
(-0.0354976 0.0777376 1.22161e-22)
(-0.0441152 0.167503 -1.57622e-21)
(0.00353338 0.205474 0)
(0.0944164 0.199152 -1.56422e-22)
(0.223906 0.166101 1.16797e-22)
(0.39323 0.120531 0)
(0.623905 0.0495744 -1.51932e-21)
(0.903589 -0.0198782 -1.24722e-21)
(1.12485 -0.127755 2.41679e-22)
(1.26722 -0.17211 -2.03102e-22)
(-0.0354855 0.0668558 -1.21442e-22)
(-0.0436677 0.147664 1.6759e-21)
(0.00967379 0.182039 0)
(0.110493 0.173966 -1.23149e-21)
(0.256849 0.140531 1.14843e-22)
(0.457056 0.0961077 -1.62995e-21)
(0.728672 0.0357228 -1.8219e-22)
(1.00963 -0.0266635 1.39969e-21)
(1.20587 -0.116443 0)
(1.30909 -0.153545 1.38496e-21)
(-0.0359798 0.0569504 -1.85097e-21)
(-0.0439022 0.127079 -9.9902e-23)
(0.0147943 0.156172 -1.61418e-22)
(0.127512 0.145789 1.33515e-22)
(0.298418 0.113432 -1.82994e-21)
(0.540001 0.0744406 1.62993e-21)
(0.840939 0.0267371 1.38901e-21)
(1.10487 -0.0289205 1.15542e-21)
(1.26863 -0.102091 1.84902e-21)
(1.33631 -0.135532 -1.2253e-21)
(-0.0370335 0.0483795 1.97268e-21)
(-0.0440942 0.106752 0)
(0.0211995 0.129321 1.44133e-21)
(0.150756 0.116529 -1.32617e-22)
(0.356818 0.0882098 3.63406e-21)
(0.641886 0.0587292 0)
(0.951273 0.0228847 -1.38899e-21)
(1.18475 -0.0271579 -4.50879e-23)
(1.31403 -0.0855338 -2.05823e-21)
(1.35141 -0.118583 1.75827e-22)
(-0.0385962 0.041306 0)
(-0.0433103 0.0875062 1.58642e-21)
(0.0317471 0.102915 -1.281e-21)
(0.186183 0.0885743 0)
(0.436587 0.0684542 -1.80412e-21)
(0.754884 0.049863 0)
(1.05127 0.0233127 1.30618e-21)
(1.24788 -0.0221253 -1.11031e-21)
(1.34422 -0.0673752 -1.66246e-21)
(1.35702 -0.103547 -1.1924e-21)
(-0.0404985 0.035705 -2.4577e-22)
(-0.0404649 0.0699052 -1.38469e-21)
(0.0495618 0.0782087 0)
(0.238897 0.0646748 0)
(0.535866 0.0562137 0)
(0.868195 0.0469337 -1.91266e-22)
(1.13624 0.0268452 -1.30736e-21)
(1.29522 -0.0143601 -1.32664e-22)
(1.36194 -0.0484863 1.66246e-21)
(1.35643 -0.0917852 1.33518e-21)
(-0.0424638 0.0313908 0)
(-0.0344159 0.0542012 -1.60328e-21)
(0.0776728 0.0562342 0)
(0.311268 0.0473756 0)
(0.647029 0.0512517 0)
(0.973042 0.0484751 1.86849e-22)
(1.20502 0.0325337 -1.53672e-21)
(1.32891 -0.00431405 1.12174e-22)
(1.37042 -0.0307992 1.1167e-21)
(1.35277 -0.0858748 1.12265e-21)
(-0.0441485 0.0280651 0)
(-0.0240572 0.0403227 1.60328e-21)
(0.11855 0.0379615 -1.29623e-21)
(0.401651 0.0380264 0)
(0.760452 0.05193 -1.74903e-21)
(1.0646 0.0532034 0)
(1.25859 0.0397987 1.22775e-21)
(1.35139 0.00715285 -9.44558e-22)
(1.37282 -0.017066 -1.49787e-21)
(1.3541 -0.0594489 -1.0996e-21)
(-0.0451947 0.0253677 2.05474e-21)
(-0.0083495 0.0279546 0)
(0.173627 0.0244502 1.13535e-21)
(0.504661 0.0361558 1.33054e-22)
(0.868263 0.0565546 3.49162e-21)
(1.14136 0.0601893 0)
(1.29881 0.0482434 -1.15593e-21)
(1.36499 0.0186778 -1.85321e-21)
(1.37235 -0.00223346 -1.20631e-21)
(1.3492 -0.0447213 -1.94677e-23)
(-0.0452641 0.0229159 -2.18198e-21)
(0.0136905 0.016703 1.04439e-22)
(0.242869 0.0166706 1.61963e-22)
(0.61315 0.0400281 -1.33961e-22)
(0.965765 0.0639516 -1.7426e-21)
(1.20377 0.0687859 1.41073e-21)
(1.32784 0.0574028 1.15594e-21)
(1.3722 0.0305732 9.08651e-22)
(1.36856 0.0102365 1.37168e-21)
(1.34394 -0.0272398 -1.1007e-21)
(-0.0440381 0.0203386 1.28981e-22)
(0.0429978 0.00635981 1.5679e-21)
(0.324512 0.0150483 0)
(0.720511 0.0478332 -9.36107e-22)
(1.05095 0.0733882 -1.09413e-22)
(1.2532 0.0785011 -1.41073e-21)
(1.34785 0.0670972 1.33562e-22)
(1.3745 0.0421305 7.32124e-22)
(1.3633 0.0228057 0)
(1.33734 -0.0123202 9.84979e-22)
(-0.0411902 0.0173166 -1.33313e-22)
(0.0803905 -0.00282421 -1.67376e-21)
(0.415304 0.0191313 0)
(0.82199 0.0583548 1.24819e-22)
(1.12349 0.0843678 -1.09585e-22)
(1.29135 0.0889903 0)
(1.36069 0.0770717 -1.06025e-21)
(1.37342 0.0536109 -8.43923e-22)
(1.35674 0.0344049 -1.47478e-22)
(1.33028 0.00212291 -1.24041e-22)
(-0.0363417 0.013623 0)
(0.126412 -0.0100384 -1.9303e-21)
(0.511217 0.0278064 1.72792e-22)
(0.914806 0.0708967 -6.30591e-24)
(1.18399 0.0965113 -8.54438e-22)
(1.31996 0.0999893 -1.49893e-21)
(1.36801 0.0872487 1.19625e-21)
(1.36992 0.0647984 0)
(1.34956 0.0457397 0)
(1.32301 0.015685 0)
(-0.0290264 0.00915645 3.17596e-24)
(0.181101 -0.0141032 1.61907e-21)
(0.608294 0.0398801 1.75229e-22)
(0.997698 0.0850323 1.2135e-21)
(1.23348 0.109511 7.44798e-22)
(1.34066 0.111324 -1.33964e-22)
(1.3711 0.0975314 1.014e-21)
(1.36477 0.0758148 -6.5884e-22)
(1.34195 0.056612 -7.04983e-22)
(1.3156 0.0285464 5.40379e-22)
(-0.0186956 0.00398164 1.00947e-21)
(0.243791 -0.0139052 1.13293e-22)
(0.703194 0.0544829 -1.40537e-21)
(1.07038 0.100478 -1.08992e-21)
(1.27314 0.123129 0)
(1.3549 0.122874 1.31085e-21)
(1.37101 0.107899 -2.75936e-23)
(1.35851 0.0866262 8.49216e-22)
(1.33415 0.0672041 4.93625e-22)
(1.30819 0.0408452 -4.25091e-22)
(-0.00477229 -0.00163094 -2.32182e-21)
(0.313129 -0.00883158 0)
(0.793394 0.071105 2.83219e-21)
(1.13313 0.11704 9.5843e-22)
(1.30422 0.137186 1.09142e-22)
(1.3639 0.134566 0)
(1.36855 0.118326 -9.75122e-22)
(1.35148 0.097285 7.10757e-22)
(1.32622 0.0775099 5.28095e-22)
(1.30074 0.0525891 -3.9396e-22)
(0.0132624 -0.0071845 1.17432e-21)
(0.387291 0.00108718 9.1185e-22)
(0.877163 0.0894482 -1.59962e-21)
(1.18648 0.13456 1.42924e-22)
(1.3279 0.151547 0)
(1.3687 0.146352 0)
(1.36431 0.128809 0)
(1.34394 0.107796 -1.39743e-21)
(1.31823 0.0875806 -5.28099e-22)
(1.29328 0.0638775 3.93944e-22)
(0.0357287 -0.0119635 1.08196e-21)
(0.464262 0.0153617 -9.04567e-22)
(0.953437 0.109295 9.29153e-23)
(1.23112 0.15287 0)
(1.34526 0.166108 8.10954e-22)
(1.37013 0.158208 5.30101e-22)
(1.35873 0.139339 6.03574e-23)
(1.33602 0.118177 -5.5789e-23)
(1.31018 0.0974307 1.25774e-22)
(1.28576 0.0747212 -4.95852e-23)
(0.0626937 -0.0151491 -1.22824e-21)
(0.542072 0.0333378 1.14319e-22)
(1.0217 0.130453 7.30573e-22)
(1.26778 0.171797 -2.01335e-22)
(1.35726 0.180797 -6.08485e-22)
(1.36888 0.170118 -7.52167e-22)
(1.35212 0.149907 5.87807e-23)
(1.3278 0.128429 3.43322e-22)
(1.30204 0.107075 0)
(1.27816 0.0851651 -4.13729e-23)
(0.0939951 -0.0159732 -7.91372e-23)
(0.618932 0.0544287 0)
(1.08184 0.152754 3.58752e-24)
(1.29719 0.191162 0)
(1.36474 0.19556 7.84891e-22)
(1.36547 0.182073 -5.72946e-22)
(1.3447 0.160497 0)
(1.31933 0.138551 1.1986e-23)
(1.29379 0.116517 0)
(1.27043 0.0952174 0)
(0.129236 -0.0138492 -1.57875e-22)
(0.693292 0.0781821 1.03873e-21)
(1.13404 0.176041 -8.28339e-22)
(1.32007 0.210798 1.35375e-22)
(1.36839 0.210357 -3.61062e-22)
(1.36031 0.194059 -6.02875e-23)
(1.3366 0.171087 0)
(1.31059 0.148534 2.36684e-22)
(1.2854 0.125755 5.94296e-23)
(1.26254 0.104892 1.58319e-22)
(0.167829 -0.00845873 -6.59063e-22)
(0.763834 0.104243 -4.21056e-22)
(1.17864 0.200166 -1.35572e-22)
(1.33711 0.230553 5.38372e-22)
(1.36882 0.225152 4.3245e-23)
(1.35369 0.206062 5.57155e-22)
(1.32792 0.181652 0)
(1.30158 0.158363 -2.82969e-22)
(1.27684 0.134781 4.95015e-23)
(1.25447 0.114191 -3.50215e-22)
(0.209049 0.000249071 -6.59061e-22)
(0.829483 0.13229 4.35783e-22)
(1.21613 0.224969 -5.80266e-24)
(1.34892 0.250304 -6.25454e-22)
(1.36648 0.239913 -3.25752e-22)
(1.34585 0.218058 -3.10807e-23)
(1.31868 0.192159 2.59511e-23)
(1.29228 0.168017 3.15362e-22)
(1.26808 0.143581 -3.64947e-24)
(1.24618 0.12311 1.13535e-22)
(0.25209 0.0121315 -3.36811e-22)
(0.889427 0.16199 0)
(1.24697 0.25028 -3.65606e-22)
(1.3561 0.269957 0)
(1.36176 0.254604 -4.09369e-22)
(1.33693 0.230019 3.50767e-23)
(1.30892 0.202574 0)
(1.28267 0.17747 0)
(1.25907 0.152139 0)
(1.23767 0.131641 0)
(0.296108 0.0269494 2.95368e-22)
(0.943201 0.192994 1.44025e-22)
(1.27158 0.275924 3.65609e-22)
(1.35917 0.289441 0)
(1.35496 0.269188 0)
(1.32705 0.241903 -1.43629e-23)
(1.29864 0.212853 5.48043e-23)
(1.2727 0.186693 6.09042e-23)
(1.2498 0.160431 5.41561e-23)
(1.22891 0.139769 -8.81404e-24)
(0.340261 0.0444284 -5.31631e-24)
(0.990638 0.22499 -1.34786e-22)
(1.29033 0.301745 6.11719e-24)
(1.35855 0.308682 7.1005e-24)
(1.34634 0.28362 -1.08014e-23)
(1.31627 0.253665 4.08619e-24)
(1.28784 0.222952 -4.76536e-23)
(1.26236 0.195654 -5.68526e-23)
(1.24023 0.168428 -4.12141e-23)
(1.21994 0.147473 1.43643e-24)
(0.383735 0.0643054 0)
(1.03169 0.257694 -1.34519e-22)
(1.30361 0.327573 -4.03588e-24)
(1.35462 0.327606 8.35805e-24)
(1.33607 0.297848 1.48259e-37)
(1.30463 0.265248 -1.02936e-37)
(1.2765 0.232821 -4.29415e-23)
(1.25163 0.204318 -4.99482e-23)
(1.23035 0.176092 -3.80749e-23)
(1.21073 0.154729 0)
(0.425761 0.0863434 3.82681e-22)
(1.06641 0.290846 1.10421e-22)
(1.31181 0.353239 3.60136e-22)
(1.34772 0.346137 -1.62784e-23)
(1.3243 0.311811 0)
(1.29218 0.276592 1.23523e-23)
(1.2646 0.24241 2.80589e-23)
(1.24048 0.212648 5.37733e-23)
(1.22014 0.183386 2.96295e-23)
(1.20127 0.161538 7.09789e-24)
(0.465638 0.110321 -3.40955e-22)
(1.09491 0.324196 0)
(1.31529 0.378581 -3.4046e-22)
(1.33812 0.364201 0)
(1.31115 0.325438 -3.41059e-23)
(1.27891 0.28763 2.83986e-23)
(1.25214 0.251665 0)
(1.22888 0.220601 0)
(1.20963 0.190284 0)
(1.19146 0.167899 0)
(0.502744 0.136012 6.73007e-22)
(1.11736 0.357506 -4.32693e-22)
(1.31436 0.403439 -8.28306e-23)
(1.32607 0.38172 -3.39166e-22)
(1.2967 0.338655 -3.14641e-22)
(1.26484 0.298295 2.16539e-23)
(1.23909 0.260534 -1.808e-23)
(1.21682 0.228122 1.47859e-22)
(1.19885 0.196775 3.03223e-24)
(1.18127 0.173812 1.0006e-22)
(0.536545 0.163171 -6.73008e-22)
(1.13394 0.390545 -5.19121e-22)
(1.30934 0.42765 1.15226e-22)
(1.31178 0.398612 4.05512e-22)
(1.28102 0.351385 -2.0323e-23)
(1.24998 0.308516 3.38737e-22)
(1.22545 0.268962 0)
(1.20433 0.23515 -1.6812e-22)
(1.18778 0.202844 -2.48738e-23)
(1.17079 0.179269 -1.2632e-22)
(0.566605 0.19152 1.59761e-22)
(1.14486 0.423077 8.89909e-22)
(1.30049 0.451055 -5.17585e-22)
(1.29543 0.414788 -9.84395e-23)
(1.26416 0.363542 -2.39035e-22)
(1.23434 0.318215 5.3835e-23)
(1.21125 0.276888 -3.05436e-23)
(1.19146 0.241651 1.66701e-22)
(1.17634 0.208439 -2.72883e-23)
(1.16007 0.184234 6.85518e-23)
(0.592581 0.220748 8.07739e-23)
(1.15034 0.454867 0)
(1.28809 0.473495 3.16288e-23)
(1.27715 0.430156 0)
(1.24616 0.375033 4.7582e-22)
(1.21798 0.327317 -3.09632e-22)
(1.19652 0.284249 0)
(1.17822 0.247604 -1.77172e-23)
(1.1645 0.213531 0)
(1.14913 0.188681 0)
(0.614222 0.250518 -1.23854e-21)
(1.15058 0.485669 -9.5937e-23)
(1.27237 0.49481 6.32038e-22)
(1.25707 0.444617 7.35499e-23)
(1.22711 0.38576 -5.00997e-22)
(1.20096 0.335741 -1.79905e-22)
(1.18125 0.290991 -2.44436e-23)
(1.16457 0.252979 1.04053e-22)
(1.15229 0.218089 -2.0165e-23)
(1.13795 0.192584 9.79493e-24)
(0.631361 0.280471 1.37853e-21)
(1.14583 0.515236 -8.28952e-22)
(1.25354 0.514828 -1.84186e-22)
(1.23535 0.458062 9.06561e-23)
(1.20715 0.395642 3.93846e-22)
(1.18323 0.343402 2.7297e-22)
(1.16543 0.297061 -2.12078e-23)
(1.15055 0.257738 -1.78046e-23)
(1.13974 0.222087 -2.82667e-23)
(1.12657 0.195918 9.92486e-24)
(0.643917 0.310235 1.14158e-21)
(1.13633 0.543328 8.04582e-22)
(1.23179 0.533364 -7.79128e-22)
(1.2122 0.470383 -8.28472e-23)
(1.18628 0.404595 0)
(1.16478 0.350233 0)
(1.14911 0.302393 0)
(1.13615 0.261844 -2.79762e-22)
(1.12688 0.225499 -6.82381e-23)
(1.11499 0.198663 2.99201e-23)
(0.651884 0.339435 -2.22297e-21)
(1.12237 0.569721 0)
(1.20735 0.550224 1.67124e-21)
(1.18773 0.48145 4.55307e-22)
(1.16452 0.412537 0)
(1.14568 0.356163 0)
(1.13233 0.306932 -1.57123e-22)
(1.12141 0.265262 1.20711e-22)
(1.11375 0.228298 6.82386e-23)
(1.10324 0.200801 -2.99189e-23)
(0.655329 0.367689 1.19889e-21)
(1.10426 0.594201 -9.64436e-23)
(1.18049 0.56528 -7.91958e-22)
(1.16195 0.491087 -4.99668e-22)
(1.14194 0.419389 3.68199e-23)
(1.12597 0.361124 2.15985e-22)
(1.11513 0.310623 5.4047e-23)
(1.10636 0.267957 3.58533e-23)
(1.10036 0.230459 1.30932e-23)
(1.09136 0.202316 1.5183e-23)
(0.654385 0.394613 -1.38912e-23)
(1.08227 0.616513 1.18763e-21)
(1.15147 0.578424 -1.04686e-22)
(1.13494 0.49916 2.80765e-22)
(1.11859 0.425039 1.48851e-22)
(1.10572 0.365052 -2.74972e-23)
(1.09755 0.313417 9.5262e-23)
(1.09103 0.269897 -4.70268e-23)
(1.08676 0.231959 3.64435e-24)
(1.07938 0.203196 -1.12793e-23)
(0.649247 0.419864 0)
(1.0565 0.636304 -1.03834e-21)
(1.12063 0.589577 -9.15537e-23)
(1.10687 0.505585 -7.32637e-23)
(1.09457 0.429391 -1.55428e-22)
(1.08499 0.367886 -1.3263e-22)
(1.07965 0.315266 -1.49945e-23)
(1.07547 0.271051 0)
(1.07298 0.23277 0)
(1.06734 0.203421 0)
(0.640144 0.443208 1.0144e-22)
(1.02714 0.653251 -8.62742e-22)
(1.08821 0.598584 0)
(1.07786 0.510311 -9.45257e-23)
(1.06996 0.432357 1.58048e-23)
(1.06386 0.369566 0)
(1.06149 0.316129 8.09744e-24)
(1.05972 0.271391 8.16687e-23)
(1.05904 0.232866 -1.92151e-23)
(1.05528 0.202958 1.61389e-23)
(0.627301 0.464425 -7.5736e-23)
(0.994639 0.667184 9.24915e-22)
(1.05438 0.605224 0)
(1.04806 0.513268 -1.78335e-22)
(1.04486 0.433857 8.39365e-24)
(1.04239 0.370038 9.34175e-23)
(1.04313 0.315971 1.33925e-23)
(1.04384 0.270892 -9.28788e-23)
(1.04498 0.23222 0)
(1.04325 0.201772 -2.11917e-22)
(0.610824 0.483164 -1.06602e-21)
(0.959575 0.678079 -5.21058e-23)
(1.01935 0.609338 -1.92049e-23)
(1.01762 0.514381 1.58858e-23)
(1.01935 0.433826 1.24323e-22)
(1.02069 0.369251 -9.34182e-23)
(1.02465 0.314759 -1.79749e-22)
(1.02785 0.269527 -1.65634e-22)
(1.03085 0.230809 -2.94069e-22)
(1.03138 0.19986 1.85157e-22)
(0.590871 0.498958 1.12951e-21)
(0.922348 0.685772 0)
(0.983333 0.610848 7.06861e-23)
(0.986685 0.513572 -5.04379e-24)
(0.993569 0.432207 -3.61571e-22)
(0.998826 0.367164 0)
(1.0061 0.312466 1.79751e-22)
(1.01179 0.267264 -4.22277e-23)
(1.01675 0.228609 3.34973e-22)
(1.01998 0.197264 -3.43503e-23)
(0.567918 0.511593 0)
(0.883306 0.690108 2.20035e-22)
(0.946539 0.609681 -6.4589e-23)
(0.955415 0.510773 0)
(0.967615 0.428955 2.37249e-22)
(0.976906 0.363741 0)
(0.98754 0.309071 -2.95188e-22)
(0.995713 0.264068 2.07864e-22)
(1.00285 0.225584 4.16716e-22)
(1.00937 0.194052 3.34424e-22)
(0.542394 0.520874 -4.74365e-23)
(0.842787 0.690946 -1.81098e-22)
(0.909211 0.605783 0)
(0.923968 0.505921 0)
(0.941615 0.424032 0)
(0.955022 0.358957 4.76234e-23)
(0.969041 0.304561 2.1494e-22)
(0.979716 0.259922 3.38874e-23)
(0.989359 0.221686 -4.16718e-22)
(0.999471 0.190167 -3.75731e-22)
(0.514715 0.526638 0)
(0.801146 0.688181 1.19058e-22)
(0.871591 0.599112 0)
(0.892512 0.498971 0)
(0.915696 0.417413 0)
(0.93327 0.352794 -5.69478e-23)
(0.950678 0.298924 5.04151e-22)
(0.963929 0.254836 -1.16195e-22)
(0.976361 0.216948 -4.07336e-22)
(0.989601 0.184171 -4.14216e-22)
(0.485296 0.528765 0)
(0.758744 0.68174 -1.19059e-22)
(0.833925 0.589648 4.02811e-22)
(0.861215 0.489891 0)
(0.889987 0.409082 6.89409e-22)
(0.911749 0.345241 0)
(0.932546 0.292149 -4.09425e-22)
(0.948473 0.248823 3.72695e-22)
(0.963595 0.211815 5.32553e-22)
(0.978399 0.180015 4.13664e-22)
(0.454552 0.527174 -2.78684e-22)
(0.715947 0.671581 0)
(0.79646 0.577387 -3.41631e-22)
(0.830252 0.478663 -5.06083e-23)
(0.864621 0.399033 -1.48908e-21)
(0.890561 0.336295 0)
(0.914739 0.284228 5.2022e-22)
(0.933417 0.241807 3.89994e-23)
(0.951187 0.205568 5.69676e-22)
(0.967534 0.174431 1.68976e-24)
(0.422894 0.521824 3.11458e-22)
(0.673122 0.657693 -2.69023e-23)
(0.75944 0.56234 -7.44341e-23)
(0.799797 0.465289 -6.15703e-23)
(0.839729 0.387274 7.99669e-22)
(0.869813 0.325964 -7.25719e-22)
(0.897344 0.275181 -5.20223e-22)
(0.918767 0.233894 -4.11699e-22)
(0.938987 0.198687 -6.43824e-22)
(0.956664 0.168587 6.03273e-22)
(0.390728 0.512712 -4.68199e-23)
(0.630631 0.640096 -7.53935e-22)
(0.723109 0.544542 0)
(0.770026 0.449784 5.51673e-22)
(0.815445 0.373822 6.051e-23)
(0.84961 0.314263 7.25723e-22)
(0.880455 0.265013 -7.25973e-23)
(0.904594 0.225034 -4.25392e-22)
(0.92714 0.190967 0)
(0.946088 0.162003 -5.37949e-22)
(0.358451 0.499873 5.53601e-23)
(0.588831 0.618839 7.92371e-22)
(0.687701 0.524043 0)
(0.741112 0.432182 -7.7762e-24)
(0.791903 0.358708 6.76741e-23)
(0.830059 0.301218 0)
(0.864149 0.253756 6.75112e-22)
(0.890935 0.215287 4.86158e-22)
(0.91567 0.182548 9.31277e-23)
(0.935875 0.15484 -7.82237e-23)
(0.326448 0.483378 0)
(0.54807 0.594003 1.24159e-21)
(0.65345 0.500912 -1.09685e-22)
(0.713227 0.412529 7.0946e-23)
(0.769232 0.341972 6.0587e-22)
(0.811265 0.286864 1.04662e-21)
(0.848509 0.241436 -7.66224e-22)
(0.877853 0.204662 0)
(0.90465 0.173409 0)
(0.926105 0.147058 0)
(0.295091 0.463334 2.81113e-24)
(0.508684 0.565693 -1.02936e-21)
(0.620577 0.475237 1.24038e-22)
(0.686537 0.390891 -8.67102e-22)
(0.747563 0.323668 -5.24671e-22)
(0.793328 0.271246 1.81201e-22)
(0.833612 0.228093 -7.75864e-22)
(0.865404 0.193201 5.11908e-22)
(0.894133 0.163595 5.51921e-22)
(0.916839 0.138692 -4.3083e-22)
(0.264737 0.439884 -7.34612e-22)
(0.470994 0.534042 -8.16323e-23)
(0.589299 0.447122 1.15436e-21)
(0.661202 0.367346 9.01018e-22)
(0.727019 0.303859 0)
(0.776347 0.254417 -1.00195e-21)
(0.819535 0.21377 -4.25068e-23)
(0.853646 0.180941 -6.58821e-22)
(0.884177 0.153129 -3.8694e-22)
(0.908124 0.129764 3.42979e-22)
(0.235724 0.413216 1.76784e-21)
(0.435297 0.499196 0)
(0.55982 0.416688 -2.39775e-21)
(0.637376 0.341986 -7.88511e-22)
(0.70772 0.28262 -9.33927e-23)
(0.760418 0.236439 0)
(0.806348 0.19852 8.10384e-22)
(0.842636 0.167925 -6.44768e-22)
(0.874836 0.142045 -4.89153e-22)
(0.900001 0.120308 3.73769e-22)
(0.208362 0.383557 -9.33783e-22)
(0.401868 0.461319 -8.27974e-22)
(0.532341 0.384069 1.3989e-21)
(0.615207 0.314918 -1.28638e-22)
(0.689781 0.260037 0)
(0.745629 0.217383 0)
(0.794122 0.1824 0)
(0.832428 0.154201 1.31531e-21)
(0.866159 0.130381 4.89154e-22)
(0.892508 0.11036 -3.73769e-22)
(0.182925 0.351145 -9.79339e-22)
(0.37097 0.42062 8.2484e-22)
(0.507053 0.349413 8.69231e-23)
(0.594833 0.286263 0)
(0.67331 0.236206 -8.09569e-22)
(0.732063 0.197326 -5.3829e-22)
(0.782921 0.165474 -5.96445e-23)
(0.823075 0.13982 1.04869e-22)
(0.858196 0.118177 -1.30049e-22)
(0.885676 0.0999611 5.18755e-23)
(0.159644 0.316192 1.11168e-21)
(0.342855 0.377356 -1.11632e-22)
(0.484133 0.312888 -9.12885e-22)
(0.576381 0.256155 2.02167e-22)
(0.658405 0.211231 6.02524e-22)
(0.719799 0.176355 7.65808e-22)
(0.772803 0.14781 -6.18238e-23)
(0.814624 0.12484 -3.36494e-22)
(0.850991 0.10548 0)
(0.879536 0.089154 4.88218e-23)
(0.138737 0.278926 7.6551e-23)
(0.317749 0.331805 0)
(0.463736 0.274682 -2.98739e-23)
(0.55997 0.224739 0)
(0.645158 0.185224 -8.67864e-22)
(0.708906 0.154561 6.499e-22)
(0.763824 0.129483 0)
(0.807122 0.109318 9.23249e-24)
(0.844586 0.0923382 0)
(0.874112 0.0779858 0)
(0.120409 0.239604 1.59021e-22)
(0.295853 0.284244 -1.08371e-21)
(0.445998 0.234994 8.57591e-22)
(0.545704 0.192168 -1.4701e-22)
(0.633648 0.158309 3.75524e-22)
(0.699448 0.132042 1.03343e-22)
(0.756032 0.110573 0)
(0.800608 0.093321 -2.78417e-22)
(0.839019 0.0788049 -7.40938e-23)
(0.869426 0.0665053 -2.14125e-22)
(0.104845 0.198512 6.81746e-22)
(0.277337 0.234959 -1.60782e-21)
(0.431035 0.194034 1.47677e-22)
(0.533673 0.158606 -6.15302e-22)
(0.623946 0.130612 -6.92247e-23)
(0.691479 0.108899 -6.65993e-22)
(0.74947 0.0911628 0)
(0.79512 0.0769165 3.81181e-22)
(0.834325 0.0649364 -6.79607e-23)
(0.865496 0.0547615 4.88676e-22)
(0.0921999 0.155948 -6.81747e-22)
(0.262348 0.184247 5.90175e-22)
(0.418946 0.152021 -1.0218e-22)
(0.523955 0.124223 7.21521e-22)
(0.616112 0.102267 3.94522e-22)
(0.685047 0.0852411 4.07186e-23)
(0.744176 0.0713386 -3.39978e-23)
(0.79069 0.0601759 -4.26874e-22)
(0.830532 0.0507923 3.85961e-24)
(0.862335 0.0428044 -1.62345e-22)
(0.0826031 0.112227 3.57288e-22)
(0.251003 0.132413 0)
(0.409808 0.109182 4.19966e-22)
(0.516612 0.0891953 0)
(0.610194 0.0734143 5.53607e-23)
(0.680189 0.0611781 -4.60963e-23)
(0.740178 0.0511897 0)
(0.787343 0.0431721 0)
(0.827664 0.0364335 0)
(0.859955 0.0306852 0)
(0.0761509 0.0676718 -3.13003e-22)
(0.243389 0.0797722 -1.20281e-22)
(0.403684 0.0657479 -4.19966e-22)
(0.51169 0.0537037 0)
(0.606228 0.0441957 0)
(0.676934 0.0368239 2.07905e-23)
(0.737499 0.0308076 -8.28499e-23)
(0.7851 0.0259791 -9.80478e-23)
(0.825741 0.0219214 -9.13197e-23)
(0.858364 0.0184542 1.47334e-23)
(0.0729084 0.0226134 -5.66907e-24)
(0.239568 0.0266449 1.29783e-22)
(0.400611 0.0219559 -5.75518e-24)
(0.509221 0.0179324 1.98959e-23)
(0.604239 0.0147565 -7.82426e-24)
(0.675302 0.0122942 0)
(0.736156 0.0102848 6.5491e-23)
(0.783975 0.00867238 9.80478e-23)
(0.824776 0.00731734 6.93777e-23)
(0.857567 0.00615841 1.03604e-23)
(0.0729084 -0.0226134 -5.66907e-24)
(0.239568 -0.0266449 1.29783e-22)
(0.400611 -0.0219559 -5.75518e-24)
(0.509221 -0.0179324 1.98959e-23)
(0.604239 -0.0147565 -7.82426e-24)
(0.675302 -0.0122942 0)
(0.736156 -0.0102848 5.76979e-23)
(0.783975 -0.00867238 1.04571e-22)
(0.824776 -0.00731734 7.37784e-23)
(0.857567 -0.00615841 0)
(0.0761509 -0.0676718 -4.01573e-22)
(0.243389 -0.0797722 -1.56041e-22)
(0.403684 -0.0657479 -4.45144e-22)
(0.51169 -0.0537037 2.08264e-23)
(0.606228 -0.0441957 0)
(0.676934 -0.0368239 -2.07905e-23)
(0.737499 -0.0308076 -4.8132e-23)
(0.7851 -0.0259791 -9.80478e-23)
(0.825741 -0.0219214 -5.62371e-23)
(0.858364 -0.0184542 -1.47334e-23)
(0.0826031 -0.112227 3.57288e-22)
(0.251003 -0.132413 0)
(0.409808 -0.109182 4.19966e-22)
(0.516612 -0.0891953 0)
(0.610194 -0.0734143 5.53607e-23)
(0.680189 -0.0611781 -4.60963e-23)
(0.740178 -0.0511897 0)
(0.787343 -0.0431721 0)
(0.827664 -0.0364335 0)
(0.859955 -0.0306852 0)
(0.0921999 -0.155948 -6.81747e-22)
(0.262348 -0.184247 4.61063e-22)
(0.418946 -0.152021 1.0218e-22)
(0.523955 -0.124223 4.9406e-22)
(0.616112 -0.102267 5.16054e-22)
(0.685047 -0.0852411 -4.07186e-23)
(0.744176 -0.0713386 3.39978e-23)
(0.79069 -0.0601759 -3.35489e-22)
(0.830532 -0.0507923 -3.85961e-24)
(0.862335 -0.0428044 -2.72593e-22)
(0.104845 -0.198512 6.81746e-22)
(0.277337 -0.234959 5.56582e-22)
(0.431035 -0.194034 -1.47677e-22)
(0.533673 -0.158606 -6.00277e-22)
(0.623946 -0.130612 4.98955e-23)
(0.691479 -0.108899 -6.65993e-22)
(0.74947 -0.0911628 0)
(0.79512 -0.0769165 3.81181e-22)
(0.834325 -0.0649364 6.79607e-23)
(0.865496 -0.0547615 3.74512e-22)
(0.120409 -0.239604 -1.59021e-22)
(0.295853 -0.284244 1.08371e-21)
(0.445998 -0.234994 6.71282e-22)
(0.545704 -0.192168 1.4701e-22)
(0.633648 -0.158309 4.68965e-22)
(0.699448 -0.132042 -1.49536e-22)
(0.756032 -0.110573 6.54388e-23)
(0.800608 -0.093321 -4.55079e-22)
(0.839019 -0.0788049 7.40938e-23)
(0.869426 -0.0665053 -2.14125e-22)
(0.138737 -0.278926 -7.6551e-23)
(0.317749 -0.331805 0)
(0.463736 -0.274682 -2.98739e-23)
(0.55997 -0.224739 0)
(0.645158 -0.185224 -8.67864e-22)
(0.708906 -0.154561 6.499e-22)
(0.763824 -0.129483 0)
(0.807122 -0.109318 9.23249e-24)
(0.844586 -0.0923382 0)
(0.874112 -0.0779858 0)
(0.159644 -0.316192 1.11168e-21)
(0.342855 -0.377356 1.11632e-22)
(0.484133 -0.312888 -6.42585e-22)
(0.576381 -0.256155 -1.30739e-22)
(0.658405 -0.211231 1.01662e-21)
(0.719799 -0.176355 4.53646e-22)
(0.772803 -0.14781 6.18238e-23)
(0.814624 -0.12484 -4.20506e-22)
(0.850991 -0.10548 7.04712e-23)
(0.879536 -0.089154 -4.88218e-23)
(0.182925 -0.351145 -1.24403e-21)
(0.37097 -0.42062 8.31113e-22)
(0.507053 -0.349413 7.76058e-23)
(0.594833 -0.286263 -1.36095e-22)
(0.67331 -0.236206 -8.09569e-22)
(0.732063 -0.197326 -6.8116e-22)
(0.782921 -0.165474 5.96445e-23)
(0.823075 -0.13982 -5.79485e-23)
(0.858196 -0.118177 1.30049e-22)
(0.885676 -0.0999611 -5.18755e-23)
(0.208362 -0.383557 -9.33783e-22)
(0.401868 -0.461319 -8.27974e-22)
(0.532341 -0.384069 1.08787e-21)
(0.615207 -0.314918 1.28638e-22)
(0.689781 -0.260037 0)
(0.745629 -0.217383 0)
(0.794122 -0.1824 0)
(0.832428 -0.154201 1.31531e-21)
(0.866159 -0.130381 4.89154e-22)
(0.892508 -0.11036 -3.73769e-22)
(0.235724 -0.413216 1.76784e-21)
(0.435297 -0.499196 0)
(0.55982 -0.416688 -2.39775e-21)
(0.637376 -0.341986 -9.01022e-22)
(0.70772 -0.28262 0)
(0.760418 -0.236439 0)
(0.806348 -0.19852 8.10384e-22)
(0.842636 -0.167925 -6.44768e-22)
(0.874836 -0.142045 -4.89153e-22)
(0.900001 -0.120308 3.73769e-22)
(0.264737 -0.439884 -9.33505e-22)
(0.470994 -0.534042 8.16323e-23)
(0.589299 -0.447122 1.15436e-21)
(0.661202 -0.367346 1.00641e-21)
(0.727019 -0.303859 -8.74838e-23)
(0.776347 -0.254417 -1.00195e-21)
(0.819535 -0.21377 -4.25068e-23)
(0.853646 -0.180941 -5.14825e-22)
(0.884177 -0.153129 -5.07727e-22)
(0.908124 -0.129764 3.42979e-22)
(0.295091 -0.463334 -2.81113e-24)
(0.508684 -0.565693 -1.18757e-21)
(0.620577 -0.475237 -1.24038e-22)
(0.686537 -0.390891 -6.71453e-22)
(0.747563 -0.323668 -5.35177e-22)
(0.793328 -0.271246 -1.78815e-22)
(0.833612 -0.228093 -7.59877e-22)
(0.865404 -0.193201 6.61734e-22)
(0.894133 -0.163595 3.42742e-22)
(0.916839 -0.138692 -2.5513e-22)
(0.326448 -0.483378 0)
(0.54807 -0.594003 9.75334e-22)
(0.65345 -0.500912 1.09685e-22)
(0.713227 -0.412529 7.0946e-23)
(0.769232 -0.341972 6.0587e-22)
(0.811265 -0.286864 8.28386e-22)
(0.848509 -0.241436 -6.68134e-22)
(0.877853 -0.204662 7.04138e-23)
(0.90465 -0.173409 0)
(0.926105 -0.147058 0)
(0.358451 -0.499873 -5.53601e-23)
(0.588831 -0.618839 7.92371e-22)
(0.687701 -0.524043 0)
(0.741112 -0.432182 1.55278e-22)
(0.791903 -0.358708 -6.76741e-23)
(0.830059 -0.301218 0)
(0.864149 -0.253756 6.75112e-22)
(0.890935 -0.215287 4.86158e-22)
(0.91567 -0.182548 -9.31277e-23)
(0.935875 -0.15484 7.82237e-23)
(0.390728 -0.512712 4.68199e-23)
(0.630631 -0.640096 -8.308e-22)
(0.723109 -0.544542 0)
(0.770026 -0.449784 6.97467e-22)