/*--------------------------------*- C++ -*----------------------------------*\
  =========                 |
  \\      /  F ield         | OpenFOAM: The Open Source CFD Toolbox
   \\    /   O peration     | Website:  https://openfoam.org
    \\  /    A nd           | Version:  9
     \\/     M anipulation  |
\*---------------------------------------------------------------------------*/
FoamFile
{
    format      ascii;
    class       surfaceScalarField;
    location    "50.6";
    object      phi;
}
// * * * * * * * * * * * * * * * * * * * * * * * * * * * * * * * * * * * * * //

dimensions      [0 3 -1 0 0 0 0];

internalField   nonuniform List<scalar> 
16735
(
-0.00298925
0.00298971
-4.58194e-07
-0.00897725
0.00598841
-4.07687e-07
-0.0168434
0.00786609
1.98347e-08
-0.0258632
0.00901924
6.09959e-07
-0.0359286
0.010064
1.43961e-06
-0.0464609
0.0105297
2.5867e-06
-0.0585507
0.0120854
4.33786e-06
-0.0695103
0.010953
6.6402e-06
-0.0842533
0.0147331
9.8183e-06
0.0110899
1.38632e-05
-0.095357
-0.00293804
0.00592774
-0.00883064
0.011881
-0.0165603
0.0155958
-0.0253938
0.0178527
-0.0352097
0.01988
-0.045398
0.020718
-0.0570437
0.0237311
-0.0673598
0.0212691
-0.0813885
0.0287618
0.0209411
-0.0912397
-0.00283779
0.00876554
-0.00854248
0.0175857
-0.0160022
0.0230555
-0.0244661
0.0263166
-0.0337843
0.0291982
-0.0432907
0.0302244
-0.0540391
0.0344795
-0.0630796
0.0303096
-0.0756914
0.0413736
0.0283368
-0.0830872
-0.00269282
0.0114584
-0.00812271
0.0230156
-0.0151851
0.0301179
-0.0231025
0.0342339
-0.0316769
0.0377726
-0.0401753
0.0387228
-0.0495547
0.0438589
-0.0567032
0.0374581
-0.0672062
0.0518766
0.032166
-0.0710353
-0.00250931
0.0139677
-0.00758576
0.028092
-0.0141321
0.0366642
-0.0213353
0.0414372
-0.0289238
0.0453612
-0.036105
0.045904
-0.0436141
0.051368
-0.0482643
0.0421083
-0.0559434
0.0595556
0.0314361
-0.0552135
-0.00229512
0.0162628
-0.00694992
0.0327468
-0.0128712
0.0425855
-0.0192055
0.0477715
-0.0255711
0.0517268
-0.0311476
0.0514804
-0.0362438
0.0564643
-0.0377898
0.0436543
-0.0418136
0.0635795
0.0252669
-0.0356444
-0.00205939
0.0183222
-0.00623652
0.036924
-0.0114358
0.0477848
-0.0167605
0.0530961
-0.0216719
0.0566382
-0.0253807
0.0551893
-0.0274697
0.0585532
-0.0253125
0.0414971
-0.0245473
0.0628143
0.0128872
-0.0121675
-0.00181212
0.0201343
-0.00546893
0.0405808
-0.00986241
0.0521782
-0.01405
0.0572837
-0.0172801
0.0598683
-0.0188819
0.0567911
-0.0173018
0.0569731
-0.0109293
0.0351245
-0.00352622
0.0554112
-0.00702705
0.016388
-0.00156366
0.021698
-0.00467121
0.0436883
-0.00818849
0.0556955
-0.0111216
0.0602168
-0.0124418
0.0611885
-0.0117105
0.0560598
-0.00566576
0.0509283
0.00546095
0.0239978
0.0205806
0.0402915
-0.0375554
0.051109
-0.00132409
0.0230221
-0.0038665
0.0462307
-0.00644934
0.0582783
-0.00801429
0.0617818
-0.00717979
0.060354
-0.00390134
0.0527814
0.00716668
0.0398603
0.0242989
0.00686558
0.049013
0.0155774
-0.0811567
0.0926143
-0.00110258
0.0241246
-0.00307525
0.0482034
-0.0046748
0.0598779
-0.00475267
0.0618596
-0.00144832
0.0570497
0.00488042
0.0464526
0.0214426
0.0232981
0.0450566
-0.0167484
0.0820097
-0.0213757
-0.140391
0.141244
-0.00090667
0.0250313
-0.00231303
0.0496098
-0.00288445
0.0604493
-0.00135106
0.0603263
0.00458176
0.0511168
0.0148486
0.0361858
0.0377849
0.000361815
0.0686099
-0.0475734
0.119819
-0.0725845
-0.216467
0.195895
-0.000741618
0.0257729
-0.00158841
0.0504565
-0.00107838
0.0599393
0.0022944
0.0569535
0.0111839
0.0422274
0.026211
0.0211586
0.0565234
-0.0299506
0.096313
-0.087363
0.162769
-0.13904
-0.307417
0.253719
-0.000609901
0.0263828
-0.000901256
0.0507479
0.000746952
0.0582911
0.00620951
0.0514909
0.0185549
0.029882
0.0395259
0.000187571
0.0780159
-0.0684406
0.129234
-0.138581
0.210452
-0.220259
-0.407531
0.310566
-0.000511859
0.0268947
-0.000238998
0.050475
0.00262944
0.0554226
0.010482
0.0436383
0.0269288
0.0134353
0.0553039
-0.0281876
0.102628
-0.115764
0.166992
-0.202945
0.260412
-0.313679
-0.509071
0.361952
-0.00043844
0.0273331
0.000417149
0.0496195
0.00466723
0.0511726
0.0153061
0.0329995
0.0366449
-0.00790355
0.0738501
-0.0653928
0.130574
-0.172489
0.207494
-0.279865
0.308025
-0.41421
-0.605171
0.404125
-0.000378633
0.0277118
0.00110799
0.0481328
0.00696277
0.0453178
0.0209404
0.0190219
0.0481535
-0.0351167
0.095148
-0.112387
0.16134
-0.23868
0.247544
-0.366069
0.348356
-0.515022
-0.691679
0.434863
-0.000320112
0.0280319
0.00188522
0.0459275
0.00965189
0.0375511
0.0276913
0.00098244
0.0618934
-0.0693187
0.118816
-0.16931
0.193205
-0.313069
0.28361
-0.456474
0.378246
-0.609658
-0.767184
0.453752
-0.000246073
0.0282779
0.00280855
0.0428729
0.0128945
0.0274651
0.0358669
-0.0219899
0.0780545
-0.111506
0.14395
-0.235206
0.223607
-0.392726
0.312746
-0.545613
0.396979
-0.693891
-0.832223
0.462018
-0.000136297
0.0284142
0.00394434
0.0387922
0.016867
0.0145425
0.0457056
-0.0508285
0.0963327
-0.162133
0.169024
-0.307897
0.250062
-0.473765
0.333403
-0.628953
0.405608
-0.766096
-0.888884
0.462269
3.07308e-05
0.0283835
0.00536291
0.0334601
0.0217495
-0.00184414
0.0572787
-0.0863577
0.115845
-0.2207
0.192173
-0.384224
0.270856
-0.552447
0.345544
-0.703642
0.407141
-0.827693
-0.944887
0.463144
0.000248578
0.0281349
0.00713867
0.02657
0.0277002
-0.0224056
0.0703805
-0.129038
0.135281
-0.2856
0.211776
-0.460719
0.285258
-0.62593
0.350304
-0.768688
0.405197
-0.882585
-0.993477
0.453787
0.000555537
0.0275794
0.0093492
0.0177763
0.0348039
-0.0478604
0.0844704
-0.178705
0.153219
-0.354349
0.226852
-0.534352
0.293446
-0.692524
0.349879
-0.825121
0.397547
-0.930253
-1.03474
0.438814
0.00096189
0.0266175
0.0120717
0.00666647
0.0430055
-0.0787942
0.0987283
-0.234427
0.168491
-0.424112
0.237119
-0.60298
0.296284
-0.75169
0.344951
-0.873788
0.3865
-0.971802
-1.07169
0.423449
0.00147901
0.0251385
0.015373
-0.00722755
0.0520664
-0.115488
0.112219
-0.29458
0.180396
-0.492289
0.242832
-0.665416
0.29466
-0.803518
0.336693
-0.915821
0.373218
-1.00833
-1.10463
0.406159
0.00212083
0.0230177
0.0192833
-0.02439
0.0615818
-0.157786
0.124094
-0.357092
0.188708
-0.556903
0.244497
-0.721205
0.289523
-0.848544
0.325946
-0.952244
0.358231
-1.04061
-1.13449
0.388082
0.00290883
0.0201088
0.0237648
-0.045246
0.0710418
-0.205063
0.133759
-0.419809
0.193542
-0.616686
0.242735
-0.770397
0.281672
-0.887481
0.31338
-0.983952
0.342162
-1.06939
-1.16164
0.369321
0.00387579
0.016233
0.0286989
-0.0700692
0.0798994
-0.256263
0.140923
-0.480833
0.195217
-0.67098
0.238166
-0.813346
0.27177
-0.921085
0.299516
-1.0117
0.32529
-1.09517
-1.1864
0.350045
0.00506189
0.0111712
0.0339012
-0.0989085
0.0876552
-0.310017
0.145561
-0.538739
0.194141
-0.71956
0.231358
-0.850563
0.260346
-0.950073
0.284721
-1.03607
0.307865
-1.11831
-1.20894
0.330404
0.00649842
0.00467273
0.0391536
-0.131564
0.0939507
-0.364815
0.147814
-0.592603
0.190743
-0.762489
0.222801
-0.882621
0.247806
-0.975078
0.269269
-1.05754
0.290033
-1.13908
-1.22935
0.310447
0.00818527
-0.00351254
0.0442336
-0.167612
0.0986091
-0.41919
0.147908
-0.641902
0.185436
-0.800017
0.2129
-0.910085
0.234457
-0.996635
0.25335
-1.07643
0.2719
-1.15763
-1.2477
0.290247
0.0100782
-0.0135907
0.0489247
-0.206459
0.101603
-0.471868
0.146109
-0.686408
0.17859
-0.832498
0.201988
-0.933483
0.220531
-1.01518
0.2371
-1.093
0.253542
-1.17407
-1.264
0.269842
0.0120969
-0.0256876
0.053024
-0.247386
0.103003
-0.521847
0.142686
-0.726091
0.170525
-0.860337
0.190326
-0.953285
0.206198
-1.03105
0.220618
-1.10742
0.235013
-1.18846
-1.27826
0.249272
0.0141462
-0.0398338
0.0563599
-0.289599
0.102933
-0.568421
0.137896
-0.761053
0.16151
-0.883951
0.17812
-0.969895
0.191584
-1.04451
0.203971
-1.1198
0.216357
-1.20085
-1.29047
0.228572
0.0161384
-0.0559722
0.0588141
-0.332275
0.101548
-0.611154
0.131976
-0.791481
0.151766
-0.903742
0.165527
-0.983656
0.176782
-1.05577
0.187211
-1.13023
0.197611
-1.21125
-1.30064
0.207775
0.0180026
-0.0739748
0.060331
-0.374604
0.09901
-0.649833
0.125141
-0.817612
0.141476
-0.920077
0.152671
-0.994851
0.161861
-1.06496
0.170381
-1.13875
0.178807
-1.21968
-1.30874
0.186913
0.0196802
-0.0936549
0.0609105
-0.415834
0.0954814
-0.684404
0.117579
-0.839709
0.130788
-0.933286
0.139645
-1.00371
0.146876
-1.07219
0.153518
-1.14539
0.159975
-1.22613
-1.31479
0.166021
0.0211183
-0.114773
0.0605924
-0.455308
0.0911146
-0.714926
0.109453
-0.858048
0.119823
-0.943656
0.126522
-1.01041
0.131869
-1.07754
0.136652
-1.15018
0.141144
-1.23063
-1.31877
0.145129
0.0222668
-0.13704
0.0594348
-0.492476
0.086048
-0.74154
0.100903
-0.872903
0.108679
-0.951431
0.113358
-1.01509
0.116874
-1.08105
0.119811
-1.15311
0.122344
-1.23316
-1.3207
0.124275
0.0230824
-0.160123
0.0575236
-0.526917
0.0804079
-0.764424
0.0920459
-0.884541
0.0974331
-0.956819
0.100199
-1.01785
0.101921
-1.08277
0.10302
-1.15421
0.103601
-1.23374
-1.3206
0.1035
0.0235363
-0.183659
0.0550383
-0.558419
0.0743127
-0.783698
0.0829765
-0.893205
0.0861489
-0.959991
0.0870806
-1.01878
0.0870353
-1.08273
0.0863017
-1.15348
0.0849461
-1.23239
-1.31851
0.082855
0.0236167
-0.207276
0.0520447
-0.586847
0.0678669
-0.799521
0.0737741
-0.899112
0.0748755
-0.961092
0.0740343
-1.01794
0.0722411
-1.08094
0.0696802
-1.15092
0.0663993
-1.2291
-1.31442
0.0623075
0.0233289
-0.230604
0.0486146
-0.612133
0.0611609
-0.812067
0.0645051
-0.902456
0.0636525
-0.96024
0.0610852
-1.01537
0.0575601
-1.07741
0.0531811
-1.14654
0.0479785
-1.2239
-1.30831
0.0418742
0.022694
-0.253299
0.0448218
-0.634261
0.0542745
-0.82152
0.0552241
-0.903405
0.0525123
-0.957528
0.0482557
-1.01112
0.0430122
-1.07217
0.03683
-1.14036
0.0297281
-1.2168
-1.30017
0.0215806
0.0217454
-0.275044
0.0407365
-0.653252
0.047259
-0.828042
0.045975
-0.902121
0.0414816
-0.953035
0.0355662
-1.0052
0.0286161
-1.06522
0.020641
-1.13238
0.0117119
-1.20787
-1.28982
0.00136902
0.0205237
-0.295568
0.0364245
-0.669152
0.0401716
-0.831789
0.036794
-0.898744
0.0305834
-0.946824
0.0230339
-0.997653
0.01439
-1.05657
0.00459123
-1.12258
-0.00605702
-1.19722
-1.2775
-0.0183851
0.0190724
-0.31464
0.0319461
-0.682026
0.0330654
-0.832908
0.027712
-0.89339
0.0198357
-0.938948
0.0106687
-0.988486
0.000318786
-1.04622
-0.0111198
-1.11114
-0.0237087
-1.18463
-1.26334
-0.0378635
0.017434
-0.332074
0.0273559
-0.691948
0.0259841
-0.831537
0.0187556
-0.886162
0.00924521
-0.929437
-0.00152671
-0.977715
-0.0134209
-1.03433
-0.0265767
-1.09799
-0.0410618
-1.17015
-1.24733
-0.0570749
0.0156487
-0.347723
0.0227021
-0.699001
0.0189639
-0.827799
0.00994536
-0.877143
-0.00120082
-0.918291
-0.0134007
-0.965515
-0.0269594
-1.02077
-0.0418031
-1.08314
-0.0581195
-1.15383
-1.22948
-0.0759725
0.0137529
-0.361476
0.0180272
-0.703276
0.0120327
-0.821804
0.0012732
-0.866384
-0.0112682
-0.90575
-0.0250876
-0.951695
-0.0402503
-1.00561
-0.0567648
-1.06663
-0.0748623
-1.13573
-1.2098
-0.0945373
0.0117802
-0.373256
0.0133684
-0.704864
0.00520126
-0.813637
-0.0071157
-0.854067
-0.0211742
-0.891691
-0.0365407
-0.936329
-0.0532768
-0.988872
-0.0714369
-1.04847
-0.0912748
-1.1159
-1.18833
-0.11274
0.00976068
-0.383016
0.00876058
-0.703864
-0.00150443
-0.803372
-0.0153289
-0.840243
-0.0308628
-0.876157
-0.0477416
-0.91945
-0.0660227
-0.970591
-0.0857979
-1.0287
-0.107338
-1.09436
-1.16511
-0.130561
0.00771955
-0.390736
0.00424398
-0.700388
-0.00789368
-0.791234
-0.0233399
-0.824796
-0.0403166
-0.859181
-0.0586761
-0.90109
-0.0784728
-0.950794
-0.0998296
-1.00734
-0.123035
-1.07115
-1.14017
-0.147976
0.00567555
-0.396411
-7.78124e-05
-0.694635
-0.0141526
-0.777159
-0.031134
-0.807815
-0.049525
-0.84079
-0.0693315
-0.881284
-0.0906123
-0.929513
-0.113515
-0.984435
-0.138349
-1.04632
-1.11355
-0.164966
0.00364673
-0.400058
-0.0046405
-0.686348
-0.0202497
-0.76155
-0.0386967
-0.789368
-0.0584763
-0.82101
-0.0796963
-0.860064
-0.102427
-0.906783
-0.12684
-0.960022
-0.153264
-1.01989
-1.08532
-0.181501
0.00166949
-0.401728
-0.00894338
-0.675735
-0.0261665
-0.744327
-0.0460187
-0.769516
-0.0671603
-0.799869
-0.089759
-0.837465
-0.113904
-0.882638
-0.139791
-0.934135
-0.167761
-0.991924
-1.05552
-0.197558
-0.000218899
-0.401509
-0.0130784
-0.662875
-0.0318933
-0.725512
-0.0530955
-0.748313
-0.0755672
-0.777397
-0.0995088
-0.813524
-0.125031
-0.857115
-0.152356
-0.90681
-0.181824
-0.962456
-1.0242
-0.213141
-0.00234715
-0.399162
-0.0170621
-0.64816
-0.0374173
-0.705157
-0.059921
-0.72581
-0.0836878
-0.75363
-0.108935
-0.788277
-0.1358
-0.83025
-0.164538
-0.878072
-0.195447
-0.931546
-0.991434
-0.228216
-0.0043265
-0.394835
-0.020893
-0.631594
-0.0427271
-0.683323
-0.0664896
-0.702047
-0.0915136
-0.728606
-0.118027
-0.761763
-0.146201
-0.802077
-0.176328
-0.847945
-0.208583
-0.899292
-0.95747
-0.242547
-0.00621928
-0.388616
-0.0245683
-0.613245
-0.0478164
-0.660075
-0.0727956
-0.677068
-0.0990365
-0.702365
-0.126777
-0.734023
-0.156224
-0.77263
-0.187682
-0.816487
-0.221242
-0.865732
-0.922707
-0.256005
-0.00803185
-0.380584
-0.0280846
-0.593192
-0.0526806
-0.635479
-0.0788337
-0.650915
-0.106249
-0.67495
-0.135175
-0.705097
-0.165854
-0.741951
-0.198545
-0.783796
-0.232956
-0.831321
-0.885749
-0.269914
-0.0097645
-0.37082
-0.0314386
-0.571518
-0.0573162
-0.609601
-0.084599
-0.623632
-0.113145
-0.646403
-0.143215
-0.675027
-0.175068
-0.710098
-0.208878
-0.749986
-0.244549
-0.795649
-0.847203
-0.283095
-0.0114159
-0.359404
-0.0346276
-0.548306
-0.0617204
-0.582509
-0.090087
-0.595265
-0.119719
-0.616772
-0.150887
-0.643859
-0.183867
-0.677118
-0.218819
-0.715034
-0.255868
-0.7586
-0.807321
-0.29575
-0.012984
-0.34642
-0.0376486
-0.523642
-0.0658907
-0.554266
-0.0952933
-0.565863
-0.125962
-0.586103
-0.15818
-0.611641
-0.192226
-0.643072
-0.228265
-0.678994
-0.266536
-0.72033
-0.766174
-0.307683
-0.0144666
-0.331953
-0.0404993
-0.497609
-0.0698249
-0.524941
-0.100214
-0.535474
-0.131871
-0.554446
-0.165087
-0.578425
-0.200151
-0.608007
-0.23725
-0.641896
-0.276677
-0.680903
-0.723881
-0.31897
-0.0158616
-0.316091
-0.0431775
-0.470293
-0.0735211
-0.494597
-0.104845
-0.504149
-0.137438
-0.521853
-0.1716
-0.544264
-0.207627
-0.57198
-0.24573
-0.603793
-0.286233
-0.6404
-0.680515
-0.329599
-0.0171663
-0.298925
-0.0456815
-0.441778
-0.0769773
-0.463302
-0.109184
-0.471943
-0.142659
-0.488378
-0.177711
-0.509212
-0.214648
-0.535043
-0.2537
-0.564741
-0.295209
-0.598892
-0.636148
-0.339576
-0.0183778
-0.280547
-0.0480096
-0.412146
-0.0801918
-0.431119
-0.113226
-0.438908
-0.147529
-0.454075
-0.183415
-0.473325
-0.221204
-0.497254
-0.261146
-0.524799
-0.303591
-0.556447
-0.590847
-0.348892
-0.0194922
-0.261055
-0.0501602
-0.381478
-0.0831632
-0.398116
-0.116969
-0.405103
-0.152042
-0.419003
-0.188705
-0.436662
-0.227288
-0.45867
-0.268058
-0.48403
-0.31137
-0.513135
-0.544678
-0.357539
-0.0205027
-0.240553
-0.0521316
-0.349849
-0.0858904
-0.364357
-0.12041
-0.370583
-0.156194
-0.383218
-0.193574
-0.399283
-0.232891
-0.419352
-0.274425
-0.442496
-0.318535
-0.469025
-0.497708
-0.365504
-0.0213949
-0.219158
-0.0539226
-0.317321
-0.088373
-0.329907
-0.123546
-0.335411
-0.159982
-0.346782
-0.198017
-0.361248
-0.238007
-0.379362
-0.28024
-0.400262
-0.325077
-0.424189
-0.450008
-0.372777
-0.0222138
-0.196944
-0.0555353
-0.284
-0.0906105
-0.294832
-0.126375
-0.299646
-0.163401
-0.309756
-0.20203
-0.322619
-0.242629
-0.338763
-0.285496
-0.357396
-0.330987
-0.378698
-0.401648
-0.379347
-0.022959
-0.173985
-0.0569706
-0.249988
-0.0926024
-0.2592
-0.128895
-0.263353
-0.166449
-0.272203
-0.205607
-0.283461
-0.246751
-0.297618
-0.290184
-0.313964
-0.336257
-0.332624
-0.352702
-0.385203
-0.0236184
-0.150366
-0.0582279
-0.215379
-0.0943477
-0.22308
-0.131104
-0.226597
-0.169122
-0.234185
-0.208746
-0.243837
-0.250369
-0.255995
-0.294299
-0.270034
-0.340881
-0.286042
-0.303245
-0.390338
-0.0241871
-0.126179
-0.0593068
-0.180259
-0.0958454
-0.186542
-0.133
-0.189442
-0.171417
-0.195768
-0.211442
-0.203812
-0.253477
-0.21396
-0.297833
-0.225677
-0.344852
-0.239024
-0.253354
-0.394744
-0.0246629
-0.101516
-0.0602067
-0.144715
-0.0970948
-0.149653
-0.134583
-0.151955
-0.173334
-0.157017
-0.213693
-0.163453
-0.256072
-0.171582
-0.300783
-0.180966
-0.348162
-0.191645
-0.203102
-0.398414
-0.0250445
-0.076472
-0.0609271
-0.108833
-0.0980952
-0.112485
-0.13585
-0.1142
-0.174869
-0.117997
-0.215497
-0.122825
-0.258151
-0.128927
-0.303145
-0.135972
-0.35081
-0.143981
-0.152566
-0.401345
-0.0253312
-0.0511408
-0.0614677
-0.0726962
-0.0988459
-0.0751071
-0.136801
-0.076245
-0.176021
-0.078777
-0.216851
-0.0819952
-0.259712
-0.0860666
-0.304918
-0.0907655
-0.352795
-0.096104
-0.101822
-0.403538
-0.0255225
-0.0256183
-0.0618282
-0.0363904
-0.0993467
-0.0375887
-0.137436
-0.038156
-0.17679
-0.0394222
-0.217754
-0.0410313
-0.260753
-0.0430678
-0.306101
-0.045418
-0.354118
-0.048087
-0.050944
-0.404996
-0.0256182
-1.0479e-07
-0.0620085
-1.23421e-07
-0.0995971
-1.11214e-07
-0.137753
-9.75428e-08
-0.177175
-8.38958e-08
-0.218206
-7.07514e-08
-0.261274
-5.83886e-08
-0.306692
-4.728e-08
-0.354779
-3.74203e-08
-2.85816e-08
-0.405723
-0.0256182
0.0256181
-0.0620085
0.0363902
-0.0995971
0.0375885
-0.137753
0.0381558
-0.177175
0.039422
-0.218206
0.0410311
-0.261274
0.0430677
-0.306692
0.0454179
-0.354779
0.0480869
0.050944
-0.405723
-0.0255225
0.0511406
-0.0618282
0.0726959
-0.0993467
0.0751069
-0.137436
0.0762448
-0.17679
0.0787768
-0.217754
0.0819951
-0.260753
0.0860665
-0.306101
0.0907654
-0.354118
0.0961039
0.101822
-0.404996
-0.0253312
0.0764718
-0.0614677
0.108832
-0.0988459
0.112485
-0.136801
0.1142
-0.176021
0.117997
-0.216851
0.122824
-0.259712
0.128927
-0.304918
0.135972
-0.352795
0.14398
0.152566
-0.403538
-0.0250445
0.101516
-0.0609271
0.144715
-0.0980952
0.149653
-0.13585
0.151954
-0.174869
0.157016
-0.215497
0.163452
-0.258151
0.171582
-0.303145
0.180966
-0.35081
0.191645
0.203102
-0.401345
-0.0246629
0.126179
-0.0602067
0.180259
-0.0970948
0.186541
-0.134583
0.189442
-0.173334
0.195768
-0.213693
0.203812
-0.256072
0.21396
-0.300783
0.225677
-0.348162
0.239023
0.253354
-0.398414
-0.0241871
0.150366
-0.0593068
0.215379
-0.0958454
0.22308
-0.133
0.226597
-0.171417
0.234185
-0.211442
0.243837
-0.253477
0.255995
-0.297833
0.270034
-0.344852
0.286042
0.303245
-0.394743
-0.0236184
0.173985
-0.0582279
0.249988
-0.0943477
0.2592
-0.131104
0.263353
-0.169122
0.272202
-0.208746
0.283461
-0.250369
0.297618
-0.294299
0.313963
-0.340881
0.332624
0.352702
-0.390338
-0.022959
0.196944
-0.0569705
0.284
-0.0926024
0.294832
-0.128895
0.299646
-0.166449
0.309756
-0.205607
0.322619
-0.246751
0.338762
-0.290184
0.357396
-0.336257
0.378698
0.401648
-0.385203
-0.0222138
0.219157
-0.0555353
0.317321
-0.0906105
0.329907
-0.126375
0.33541
-0.163401
0.346782
-0.202029
0.361248
-0.242629
0.379362
-0.285496
0.400262
-0.330987
0.424189
0.450008
-0.379347
-0.0213949
0.240552
-0.0539225
0.349849
-0.0883729
0.364357
-0.123546
0.370583
-0.159982
0.383218
-0.198017
0.399283
-0.238007
0.419352
-0.28024
0.442496
-0.325077
0.469025
0.497708
-0.372777
-0.0205027
0.261055
-0.0521316
0.381478
-0.0858904
0.398116
-0.12041
0.405103
-0.156194
0.419003
-0.193574
0.436662
-0.232891
0.45867
-0.274425
0.48403
-0.318535
0.513135
0.544678
-0.365504
-0.0194921
0.280547
-0.0501602
0.412146
-0.0831632
0.431119
-0.116969
0.438908
-0.152042
0.454075
-0.188705
0.473325
-0.227288
0.497253
-0.268058
0.524799
-0.31137
0.556446
0.590847
-0.357539
-0.0183778
0.298925
-0.0480096
0.441778
-0.0801918
0.463301
-0.113226
0.471942
-0.147529
0.488378
-0.183415
0.509212
-0.221204
0.535043
-0.261146
0.564741
-0.303591
0.598891
0.636148
-0.348892
-0.0171663
0.316091
-0.0456815
0.470293
-0.0769772
0.494597
-0.109184
0.504149
-0.142659
0.521853
-0.177711
0.544264
-0.214648
0.57198
-0.2537
0.603793
-0.295209
0.6404
0.680515
-0.339576
-0.0158616
0.331953
-0.0431775
0.497609
-0.073521
0.524941
-0.104845
0.535473
-0.137438
0.554446
-0.1716
0.578425
-0.207627
0.608007
-0.24573
0.641896
-0.286233
0.680903
0.723881
-0.329599
-0.0144666
0.346419
-0.0404993
0.523641
-0.0698249
0.554266
-0.100214
0.565862
-0.131871
0.586103
-0.165087
0.611641
-0.200151
0.643071
-0.23725
0.678994
-0.276677
0.72033
0.766174
-0.318969
-0.0129839
0.359403
-0.0376486
0.548306
-0.0658906
0.582508
-0.0952933
0.595265
-0.125962
0.616772
-0.15818
0.643859
-0.192226
0.677118
-0.228265
0.715034
-0.266535
0.7586
0.807321
-0.307683
-0.0114158
0.370819
-0.0346275
0.571518
-0.0617203
0.609601
-0.0900869
0.623632
-0.119718
0.646403
-0.150887
0.675027
-0.183867
0.710098
-0.218819
0.749986
-0.255868
0.795649
0.847203
-0.29575
-0.00976449
0.380584
-0.0314386
0.593192
-0.0573162
0.635479
-0.084599
0.650914
-0.113145
0.67495
-0.143215
0.705096
-0.175068
0.741951
-0.208878
0.783796
-0.244549
0.831321
0.885749
-0.283095
-0.00803183
0.388615
-0.0280845
0.613244
-0.0526805
0.660075
-0.0788336
0.677068
-0.106249
0.702365
-0.135175
0.734022
-0.165854
0.77263
-0.198545
0.816487
-0.232956
0.865732
0.922707
-0.269914
-0.00621926
0.394835
-0.0245683
0.631593
-0.0478163
0.683323
-0.0727955
0.702047
-0.0990364
0.728606
-0.126777
0.761763
-0.156224
0.802077
-0.187682
0.847945
-0.221242
0.899291
0.95747
-0.256005
-0.00432648
0.399161
-0.020893
0.64816
-0.042727
0.705157
-0.0664895
0.725809
-0.0915135
0.75363
-0.118027
0.788276
-0.1462
0.83025
-0.176328
0.878072
-0.208583
0.931546
0.991434
-0.242547
-0.00234712
0.401508
-0.0170621
0.662875
-0.0374173
0.725512
-0.059921
0.748313
-0.0836877
0.777397
-0.108935
0.813523
-0.1358
0.857115
-0.164538
0.90681
-0.195447
0.962456
1.0242
-0.228216
-0.000218872
0.401727
-0.0130783
0.675734
-0.0318932
0.744327
-0.0530954
0.769515
-0.0755671
0.799868
-0.0995087
0.837465
-0.125031
0.882637
-0.152356
0.934135
-0.181824
0.991924
1.05552
-0.213141
0.00166951
0.400058
-0.00894332
0.686347
-0.0261664
0.76155
-0.0460187
0.789367
-0.0671602
0.82101
-0.0897589
0.860064
-0.113904
0.906782
-0.139791
0.960022
-0.167761
1.01989
1.08532
-0.197558
0.00364675
0.396411
-0.00464045
0.694634
-0.0202496
0.777159
-0.0386966
0.807814
-0.0584762
0.84079
-0.0796961
0.881284
-0.102427
0.929513
-0.12684
0.984435
-0.153264
1.04632
1.11355
-0.181501
0.00567557
0.390735
-7.77422e-05
0.700388
-0.0141525
0.791234
-0.0311339
0.824796
-0.0495248
0.85918
-0.0693314
0.90109
-0.0906121
0.950794
-0.113515
1.00734
-0.138349
1.07115
1.14017
-0.164965
0.00771958
0.383016
0.00424404
0.703863
-0.00789359
0.803371
-0.0233398
0.840242
-0.0403165
0.876157
-0.0586759
0.91945
-0.0784727
0.970591
-0.0998294
1.02869
-0.123035
1.09436
1.16511
-0.147976
0.00976071
0.373255
0.00876064
0.704863
-0.00150434
0.813636
-0.0153288
0.854067
-0.0308626
0.891691
-0.0477415
0.936329
-0.0660226
0.988872
-0.0857978
1.04847
-0.107338
1.1159
1.18833
-0.13056
0.0117802
0.361475
0.0133684
0.703275
0.00520136
0.821803
-0.00711558
0.866383
-0.0211741
0.905749
-0.0365406
0.951695
-0.0532767
1.00561
-0.0714367
1.06663
-0.0912746
1.13573
1.2098
-0.11274
0.0137529
0.347722
0.0180273
0.699001
0.0120328
0.827798
0.00127333
0.877143
-0.011268
0.918291
-0.0250874
0.965514
-0.0402501
1.02077
-0.0567646
1.08314
-0.0748621
1.15383
1.22948
-0.0945371
0.0156487
0.332073
0.0227022
0.691947
0.018964
0.831536
0.00994549
0.886161
-0.00120067
0.929437
-0.0134005
0.977714
-0.0269592
1.03433
-0.0418029
1.09799
-0.0581193
1.17015
1.24733
-0.0759723
0.0174341
0.314639
0.027356
0.682025
0.0259842
0.832908
0.0187557
0.89339
0.00924538
0.938947
-0.00152653
0.988486
-0.0134207
1.04622
-0.0265765
1.11114
-0.0410616
1.18463
1.26334
-0.0570747
0.0190724
0.295567
0.0319462
0.669151
0.0330655
0.831789
0.0277122
0.898743
0.0198359
0.946824
0.0106689
0.997653
0.000319002
1.05657
-0.0111196
1.12258
-0.0237084
1.19722
1.2775
-0.0378632
0.0205237
0.275043
0.0364245
0.653251
0.0401717
0.828041
0.0367941
0.902121
0.0305835
0.953034
0.0230341
1.0052
0.0143902
1.06522
0.00459147
1.13238
-0.00605677
1.20787
1.28982
-0.0183848
0.0217454
0.253298
0.0407365
0.63426
0.0472591
0.821519
0.0459751
0.903405
0.0414818
0.957528
0.0355664
1.01112
0.0286164
1.07217
0.0206412
1.14036
0.0117122
1.2168
1.30017
0.00136929
0.022694
0.230604
0.0448218
0.612132
0.0542747
0.812066
0.0552243
0.902455
0.0525125
0.960239
0.048256
1.01537
0.0430125
1.07741
0.0368303
1.14654
0.0297284
1.2239
1.30831
0.0215809
0.0233289
0.207275
0.0486147
0.586846
0.061161
0.79952
0.0645052
0.899111
0.0636527
0.961092
0.0610854
1.01794
0.0575604
1.08094
0.0531814
1.15092
0.0479788
1.2291
1.31442
0.0418745
0.0236167
0.183658
0.0520448
0.558418
0.067867
0.783697
0.0737742
0.893204
0.0748757
0.95999
0.0740345
1.01878
0.0722414
1.08273
0.0696805
1.15348
0.0663996
1.23239
1.31851
0.0623078
0.0235363
0.160122
0.0550383
0.526916
0.0743128
0.764423
0.0829766
0.88454
0.0861491
0.956818
0.0870809
1.01785
0.0870356
1.08277
0.086302
1.15421
0.0849464
1.23374
1.3206
0.0828554
0.0230824
0.137039
0.0575236
0.492475
0.080408
0.741538
0.0920461
0.872902
0.0974334
0.951431
0.100199
1.01509
0.101921
1.08105
0.10302
1.15311
0.103602
1.23316
1.3207
0.1035
0.0222668
0.114773
0.0594348
0.455307
0.0860481
0.714925
0.100903
0.858047
0.108679
0.943655
0.113358
1.01041
0.116874
1.07754
0.119811
1.15018
0.122344
1.23063
1.31877
0.124276
0.0211183
0.0936543
0.0605924
0.415832
0.0911147
0.684403
0.109453
0.839708
0.119823
0.933285
0.126522
1.00371
0.131869
1.07219
0.136652
1.14539
0.141145
1.22613
1.31479
0.14513
0.0196801
0.0739742
0.0609105
0.374602
0.0954815
0.649832
0.117579
0.817611
0.130788
0.920076
0.139645
0.99485
0.146876
1.06496
0.153518
1.13875
0.159976
1.21968
1.30874
0.166021
0.0180025
0.0559717
0.0603309
0.332274
0.09901
0.611153
0.125141
0.79148
0.141476
0.903741
0.152672
0.983655
0.161862
1.05577
0.170382
1.13023
0.178808
1.21125
1.30064
0.186914
0.0161384
0.0398333
0.0588141
0.289598
0.101548
0.568419
0.131976
0.761052
0.151767
0.88395
0.165528
0.969894
0.176782
1.04451
0.187211
1.1198
0.197612
1.20085
1.29047
0.207775
0.0141461
0.0256872
0.0563598
0.247384
0.102933
0.521845
0.137896
0.72609
0.16151
0.860335
0.17812
0.953284
0.191585
1.03105
0.203971
1.10742
0.216358
1.18846
1.27826
0.228573
0.0120969
0.0135904
0.0530239
0.206457
0.103003
0.471867
0.142686
0.686406
0.170525
0.832496
0.190327
0.933482
0.206199
1.01518
0.220618
1.093
0.235013
1.17407
1.264
0.249273
0.0100781
0.00351221
0.0489246
0.167611
0.101603
0.419188
0.146109
0.6419
0.17859
0.800015
0.201989
0.910083
0.220532
0.996634
0.237101
1.07643
0.253542
1.15763
1.2477
0.269843
0.00818522
-0.00467301
0.0442334
0.131563
0.098609
0.364813
0.147908
0.592601
0.185437
0.762487
0.212901
0.882619
0.234458
0.975077
0.253351
1.05753
0.271901
1.13908
1.22935
0.290248
0.00649838
-0.0111714
0.0391535
0.0989075
0.0939506
0.310016
0.147814
0.538737
0.190743
0.719558
0.222801
0.850562
0.247806
0.950072
0.26927
1.03607
0.290034
1.11831
1.20894
0.310447
0.00506185
-0.0162332
0.033901
0.0700683
0.0876549
0.256262
0.145561
0.480831
0.194141
0.670978
0.231359
0.813344
0.260347
0.921083
0.284722
1.0117
0.307866
1.09517
1.1864
0.330405
0.00387576
-0.020109
0.0286988
0.0452453
0.0798991
0.205061
0.140923
0.419807
0.195217
0.616684
0.238166
0.770395
0.271771
0.887479
0.299516
0.98395
0.325291
1.06939
1.16164
0.350046
0.00290879
-0.0230178
0.0237647
0.0243894
0.0710415
0.157785
0.133759
0.35709
0.193542
0.5569
0.242735
0.721202
0.281672
0.848542
0.31338
0.952242
0.342163
1.04061
1.13448
0.369322
0.0021208
-0.0251386
0.0192832
0.00722704
0.0615815
0.115486
0.124094
0.294577
0.188707
0.492287
0.244497
0.665413
0.289524
0.803515
0.325947
0.915818
0.358232
1.00832
1.10463
0.388083
0.00147897
-0.0266176
0.0153729
-0.00666684
0.052066
0.0787931
0.112218
0.234425
0.180396
0.424109
0.242832
0.602977
0.294661
0.751687
0.336693
0.873785
0.373219
0.971799
1.07169
0.406161
0.000961837
-0.0275794
0.0120715
-0.0177765
0.0430051
0.0478595
0.0987277
0.178703
0.168491
0.354346
0.237118
0.534349
0.296284
0.692521
0.344952
0.825118
0.386501
0.93025
1.03474
0.42345
0.000555474
-0.0281349
0.009349
-0.0265701
0.0348035
0.022405
0.0844698
0.129036
0.153218
0.285597
0.226852
0.460716
0.293446
0.625926
0.34988
0.768684
0.397548
0.882582
0.993474
0.438816
0.000248505
-0.0283834
0.00713845
-0.03346
0.0276997
0.00184368
0.0703799
0.0863563
0.13528
0.220698
0.211775
0.384221
0.285258
0.552443
0.350305
0.703638
0.405198
0.827688
0.944884
0.453789
3.06531e-05
-0.028414
0.00536267
-0.038792
0.0217491
-0.0145427
0.057278
0.0508274
0.115844
0.162131
0.192172
0.307893
0.270855
0.47376
0.345545
0.628948
0.407142
0.766091
0.88888
0.463146
-0.000136397
-0.0282776
0.00394408
-0.0428725
0.0168665
-0.0274652
0.0457048
0.0219891
0.0963316
0.111504
0.169022
0.235202
0.250061
0.392721
0.333402
0.545607
0.405609
0.693884
0.832218
0.462271
-0.000246176
-0.0280315
0.00280828
-0.045927
0.0128941
-0.037551
0.0358662
-0.000982991
0.0780534
0.0693172
0.143949
0.169307
0.223606
0.313064
0.312746
0.456467
0.396979
0.60965
0.767178
0.462019
-0.000320216
-0.0277112
0.00188496
-0.0481322
0.00965143
-0.0453174
0.0276906
-0.0190222
0.0618923
0.0351155
0.118815
0.112384
0.193203
0.238675
0.283608
0.366062
0.378246
0.515012
0.691671
0.453753
-0.000378735
-0.0273325
0.00110774
-0.0496186
0.00696234
-0.051172
0.0209397
-0.0329995
0.0481526
0.00790263
0.0951466
0.0653903
0.161338
0.172484
0.247542
0.279858
0.348355
0.414199
0.605162
0.434864
-0.000438536
-0.026894
0.000416921
-0.0504741
0.00466685
-0.055422
0.0153055
-0.0436382
0.0366441
-0.0134359
0.0738489
0.0281856
0.130573
0.11576
0.207492
0.202938
0.308024
0.313668
0.509061
0.404126
-0.000511944
-0.026382
-0.000239198
-0.0507468
0.00262912
-0.0582903
0.0104815
-0.0514907
0.0269281
-0.0298825
0.0553029
-0.000189282
0.102626
0.0684366
0.16699
0.138575
0.26041
0.220247
0.407519
0.361952
-0.000609974
-0.0257721
-0.000901416
-0.0504554
0.000746719
-0.0599384
0.00620918
-0.0569531
0.0185544
-0.0422277
0.0395252
-0.0211601
0.078015
0.0299468
0.129232
0.0873582
0.21045
0.139029
0.307404
0.310565
-0.000741677
-0.0250304
-0.00158853
-0.0496085
-0.00107853
-0.0604484
0.00229422
-0.0603259
0.0111837
-0.0511172
0.0262107
-0.0361871
0.0565229
-0.000365364
0.0963122
0.0475689
0.162767
0.072574
0.216453
0.253718
-0.000906715
-0.0241237
-0.0023131
-0.0482022
-0.00288452
-0.059877
-0.0013511
-0.0618593
0.00458179
-0.05705
0.0148487
-0.046454
0.0377849
-0.0233016
0.0686101
0.0167437
0.119818
0.0213658
0.140376
0.195895
-0.00110261
-0.0230211
-0.00307528
-0.0462295
-0.00467479
-0.0582775
-0.00475256
-0.0617815
-0.00144806
-0.0603546