/*--------------------------------*- C++ -*----------------------------------*\
  =========                 |
  \\      /  F ield         | OpenFOAM: The Open Source CFD Toolbox
   \\    /   O peration     | Website:  https://openfoam.org
    \\  /    A nd           | Version:  9
     \\/     M anipulation  |
\*---------------------------------------------------------------------------*/
FoamFile
{
    format      ascii;
    class       surfaceScalarField;
    location    "31.5";
    object      phi;
}
// * * * * * * * * * * * * * * * * * * * * * * * * * * * * * * * * * * * * * //

dimensions      [0 3 -1 0 0 0 0];

internalField   nonuniform List<scalar> 
16735
(
-0.0029945
0.00299453
-2.72777e-08
-0.00899232
0.00599787
-5.46014e-08
-0.0168719
0.00787963
-7.08842e-08
-0.0259088
0.00903699
-8.24343e-08
-0.0359964
0.0100877
-9.49178e-08
-0.0465564
0.0105601
-1.07365e-07
-0.0586839
0.0121276
-1.20556e-07
-0.0696875
0.0110037
-1.25547e-07
-0.0844946
0.0148072
-1.19866e-07
0.0111736
-9.16783e-08
-0.0956681
-0.00294307
0.0059376
-0.00884509
0.0118999
-0.0165876
0.0156221
-0.0254372
0.0178866
-0.0352738
0.0199244
-0.0454874
0.0207737
-0.0571672
0.0238074
-0.0675218
0.0213583
-0.0816066
0.0288921
0.0210827
-0.0915157
-0.00284241
0.00878001
-0.00855575
0.0176132
-0.0160272
0.0230935
-0.0245053
0.0263647
-0.0338414
0.0292604
-0.0433687
0.030301
-0.0541443
0.034583
-0.063213
0.030427
-0.0758662
0.0415453
0.0285147
-0.0832981
-0.00269683
0.0114768
-0.00813431
0.0230507
-0.0152067
0.0301659
-0.0231359
0.0342939
-0.0317242
0.0378488
-0.0402374
0.0388143
-0.0496345
0.04398
-0.0567972
0.0375897
-0.0673217
0.0520697
0.0323517
-0.0711587
-0.0025126
0.0139894
-0.0075953
0.0281334
-0.0141496
0.0367202
-0.0213615
0.0415058
-0.028959
0.0454463
-0.036148
0.0460032
-0.0436631
0.0514951
-0.0483115
0.0422382
-0.0559889
0.0597471
0.0315988
-0.055236
-0.00229759
0.016287
-0.00695713
0.0327929
-0.0128841
0.0426472
-0.0192236
0.0478453
-0.0255929
0.0518156
-0.0311694
0.0515798
-0.036259
0.0565846
-0.0377862
0.0437654
-0.0417833
0.0637442
0.0253762
-0.0355607
-0.00206102
0.0183481
-0.00624128
0.0369732
-0.0114438
0.0478496
-0.01677
0.0531715
-0.0216794
0.056725
-0.0253809
0.0552812
-0.02745
0.0586537
-0.0252581
0.0415736
-0.0244389
0.0629251
0.0129169
-0.0119796
-0.00181292
0.020161
-0.00547126
0.0406315
-0.00986544
0.0522438
-0.014051
0.0573571
-0.0172736
0.0599476
-0.018861
0.0568687
-0.0172481
0.0570408
-0.0108281
0.0351536
-0.00333512
0.0554321
-0.00710828
0.0166901
-0.0015637
0.0217247
-0.00467124
0.0437391
-0.00818682
0.0557594
-0.0111145
0.0602848
-0.0124218
0.0612549
-0.01167
0.0561169
-0.00557867
0.0509494
0.00561289
0.023962
0.0208312
0.0402138
-0.0377927
0.0515156
-0.00132347
0.0230481
-0.00386449
0.0462801
-0.0064434
0.0583383
-0.00799981
0.0618412
-0.00714728
0.0604023
-0.00384361
0.0528132
0.00727744
0.0398284
0.0244857
0.00675371
0.0493308
0.0153687
-0.0815842
0.0931223
-0.00110145
0.0241496
-0.00307152
0.0482502
-0.00466518
0.059932
-0.00473168
0.0619077
-0.00140355
0.0570742
0.00495891
0.0464507
0.0215821
0.0232052
0.0452782
-0.0169424
0.082388
-0.0217411
-0.141037
0.141841
-0.00090519
0.0250548
-0.00230797
0.049653
-0.0028718
0.0604958
-0.00132479
0.0603607
0.0046343
0.0511151
0.0149437
0.0361413
0.0379517
0.000197249
0.0688722
-0.0478629
0.120255
-0.0731241
-0.217336
0.196554
-0.00073995
0.0257947
-0.0015824
0.0504954
-0.00106326
0.0599767
0.00232643
0.056971
0.011246
0.0421955
0.0263249
0.0210624
0.0567176
-0.0301954
0.0966268
-0.0877721
0.163262
-0.139759
-0.308473
0.254399
-0.0006082
0.0264029
-0.000894652
0.0507819
0.000763577
0.0583184
0.00624569
0.0514889
0.0186262
0.029815
0.0396612
2.73525e-05
0.0782389
-0.0687731
0.129603
-0.139136
0.210989
-0.221146
-0.408703
0.311219
-0.000510272
0.0269132
-0.000232021
0.0505036
0.00264775
0.0554387
0.0105227
0.043614
0.0270105
0.0133272
0.0554624
-0.0284246
0.102882
-0.116193
0.167403
-0.203657
0.260955
-0.314698
-0.51028
0.362532
-0.000436972
0.0273502
0.000424224
0.0496424
0.00468715
0.0511757
0.0153519
0.0329492
0.0367388
-0.0080597
0.0740331
-0.0657189
0.130862
-0.173022
0.207922
-0.280717
0.308524
-0.415299
-0.606356
0.4046
-0.000377349
0.0277275
0.00111528
0.0481498
0.00698464
0.0453064
0.0209929
0.0189409
0.048263
-0.0353297
0.0953545
-0.11281
0.161653
-0.23932
0.247953
-0.367017
0.348766
-0.516112
-0.692808
0.435218
-0.000318999
0.0280465
0.00189285
0.0459379
0.00967644
0.0375228
0.0277529
0.000864433
0.0620219
-0.0695987
0.119042
-0.169831
0.193522
-0.3138
0.283967
-0.457462
0.378551
-0.610696
-0.768251
0.453994
-0.000245063
0.0282916
0.00281682
0.042876
0.0129228
0.0274168
0.0359399
-0.0221526
0.0782032
-0.111862
0.144187
-0.235815
0.223904
-0.393517
0.313029
-0.546587
0.397182
-0.69485
-0.833232
0.462164
-0.000135265
0.0284269
0.00395366
0.0387871
0.0169004
0.01447
0.0457919
-0.0510441
0.0964981
-0.162568
0.169257
-0.308573
0.250317
-0.474577
0.333604
-0.629874
0.405727
-0.766972
-0.889843
0.462338
3.17416e-05
0.0283951
0.00537383
0.033445
0.0217896
-0.00194573
0.0573789
-0.0866334
0.11602
-0.221209
0.192386
-0.38494
0.271057
-0.553248
0.345673
-0.70449
0.4072
-0.8285
-0.945741
0.463098
0.000249919
0.0281452
0.00715182
0.0265431
0.0277484
-0.0225423
0.0704927
-0.129378
0.135452
-0.286168
0.211957
-0.461444
0.285404
-0.626695
0.350375
-0.769461
0.405197
-0.883322
-0.994239
0.453695
0.000557291
0.0275879
0.00936529
0.0177351
0.0348611
-0.0480381
0.08459
-0.179107
0.153377
-0.354956
0.226996
-0.535062
0.293541
-0.693241
0.349903
-0.825823
0.397504
-0.930923
-1.03543
0.438698
0.000964176
0.0266237
0.0120915
0.00660779
0.0430713
-0.0790179
0.0988488
-0.234884
0.168628
-0.424735
0.237224
-0.603658
0.296335
-0.752352
0.344938
-0.874425
0.386428
-0.972413
-1.07232
0.423315
0.00148195
0.0251418
0.0153972
-0.00730744
0.052139
-0.11576
0.112333
-0.295078
0.180507
-0.492909
0.242902
-0.666054
0.294676
-0.804126
0.336652
-0.9164
0.373126
-1.00889
-1.10521
0.406013
0.00212456
0.0230172
0.0193122
-0.0244951
0.0616582
-0.158106
0.124197
-0.357617
0.188792
-0.557504
0.244537
-0.721798
0.289512
-0.849101
0.325885
-0.952773
0.358124
-1.04113
-1.13501
0.387928
0.00291355
0.0201037
0.0237982
-0.0453797
0.0711183
-0.205426
0.133845
-0.420344
0.193602
-0.61726
0.242749
-0.770946
0.281639
-0.887991
0.313303
-0.984438
0.342046
-1.06987
-1.16213
0.369162
0.00388181
0.0162219
0.0287359
-0.0702338
0.0799722
-0.256662
0.140993
-0.481365
0.195254
-0.671522
0.23816
-0.813851
0.271722
-0.921554
0.299429
-1.01214
0.325168
-1.09561
-1.18684
0.349882
0.00506954
0.0111523
0.0339406
-0.0991048
0.0877208
-0.310442
0.145613
-0.539257
0.194158
-0.720066
0.231336
-0.851029
0.260286
-0.950505
0.284627
-1.03649
0.307738
-1.11872
-1.20934
0.33024
0.00650797
0.00464435
0.039194
-0.131791
0.0940069
-0.365255
0.14785
-0.593101
0.190744
-0.762961
0.222765
-0.883049
0.247737
-0.975477
0.26917
-1.05792
0.289904
-1.13945
-1.22972
0.310283
0.0081967
-0.00355235
0.0442735
-0.167868
0.0986549
-0.419637
0.14793
-0.642376
0.185424
-0.800455
0.212855
-0.91048
0.234383
-0.997004
0.253248
-1.07678
0.27177
-1.15797
-1.24804
0.290085
0.0100912
-0.0136435
0.0489628
-0.206739
0.101638
-0.472312
0.146119
-0.686856
0.178567
-0.832904
0.201936
-0.933849
0.220452
-1.01552
0.236996
-1.09333
0.253411
-1.17439
-1.26431
0.269681
0.012111
-0.0257545
0.0530589
-0.247687
0.103028
-0.522281
0.142685
-0.726513
0.170494
-0.860713
0.190269
-0.953624
0.206117
-1.03137
0.220513
-1.10772
0.234883
-1.18876
-1.27854
0.249114
0.0141607
-0.0399152
0.0563905
-0.289917
0.10295
-0.56884
0.137885
-0.761448
0.161472
-0.8843
0.178058
-0.97021
0.191501
-1.04481
0.203866
-1.12009
0.216229
-1.20112
-1.29073
0.228417
0.016153
-0.0560682
0.0588397
-0.332604
0.101556
-0.611557
0.131958
-0.791851
0.151724
-0.904065
0.165463
-0.983949
0.176698
-1.05605
0.187106
-1.1305
0.197485
-1.2115
-1.30087
0.207624
0.0180167
-0.0740849
0.0603511
-0.374938
0.099011
-0.650217
0.125117
-0.817957
0.14143
-0.920378
0.152606
-0.995125
0.161777
-1.06522
0.170278
-1.139
0.178684
-1.21991
-1.30895
0.186767
0.0196936
-0.0937785
0.0609253
-0.41617
0.0954763
-0.684768
0.117551
-0.840031
0.130739
-0.933567
0.139579
-1.00396
0.146792
-1.07243
0.153416
-1.14562
0.159854
-1.22634
-1.31497
0.165879
0.0211307
-0.114909
0.060602
-0.455641
0.0911044
-0.71527
0.109421
-0.858348
0.119772
-0.943918
0.126455
-1.01065
0.131786
-1.07776
0.136552
-1.15039
0.141027
-1.23082
-1.31894
0.144992
0.0222779
-0.137187
0.0594393
-0.492802
0.0860335
-0.741864
0.100869
-0.873183
0.108627
-0.951676
0.113291
-1.01531
0.116792
-1.08126
0.119713
-1.15331
0.122229
-1.23334
-1.32085
0.124143
0.0230918
-0.160279
0.057524
-0.527235
0.0803899
-0.76473
0.0920094
-0.884803
0.097381
-0.957048
0.100132
-1.01806
0.101841
-1.08297
0.102925
-1.15439
0.103491
-1.2339
-1.32074
0.103373
0.0235439
-0.183823
0.0550354
-0.558726
0.0742918
-0.783987
0.0829386
-0.893449
0.0860967
-0.960206
0.0870153
-1.01898
0.0869568
-1.08291
0.0862092
-1.15364
0.0848392
-1.23253
-1.31863
0.0827332
0.0236224
-0.207445
0.0520389
-0.587142
0.0678438
-0.799791
0.0737353
-0.899341
0.0748235
-0.961294
0.07397
-1.01813
0.0721644
-1.08111
0.0695904
-1.15107
0.0662962
-1.22924
-1.31452
0.0621906
0.0233327
-0.230778
0.0486063
-0.612416
0.0611362
-0.812321
0.0644659
-0.902671
0.063601
-0.96043
0.0610222
-1.01555
0.0574854
-1.07757
0.0530941
-1.14668
0.0478793
-1.22402
-1.30841
0.041762
0.022696
-0.253474
0.0448112
-0.634531
0.0542486
-0.821759
0.0551848
-0.903607
0.0524615
-0.957706
0.0481941
-1.01128
0.0429395
-1.07232
0.0367461
-1.14049
0.029633
-1.21691
-1.30025
0.0214732
0.0217456
-0.27522
0.0407242
-0.65351
0.0472321
-0.828267
0.0459358
-0.90231
0.0414317
-0.953202
0.0355061
-1.00536
0.0285457
-1.06536
0.0205599
-1.1325
0.0116211
-1.20797
-1.28989
0.00126398
0.0205225
-0.295742
0.0364108
-0.669398
0.0401442
-0.832
0.0367551
-0.898921
0.0305345
-0.946981
0.0229753
-0.997797
0.0143218
-1.0567
0.00451249
-1.12269
-0.00614524
-1.19731
-1.27756
-0.0184794
0.0190699
-0.314812
0.0319314
-0.68226
0.0330377
-0.833106
0.0276737
-0.893557
0.0197879
-0.939096
0.0106116
-0.98862
0.00025145
-1.04634
-0.0111943
-1.11125
-0.0237927
-1.18471
-1.26339
-0.037954
0.0174305
-0.332243
0.0273403
-0.69217
0.0259564
-0.831722
0.018718
-0.886319
0.0091985
-0.929576
-0.00158116
-0.977841
-0.0134841
-1.03444
-0.0266484
-1.09808
-0.0411419
-1.17022
-1.24738
-0.0571611
0.0156443
-0.347887
0.022686
-0.699211
0.0189363
-0.827973
0.00990857
-0.877291
-0.00124501
-0.918423
-0.0134539
-0.965632
-0.0270203
-1.02087
-0.0418719
-1.08323
-0.0581958
-1.1539
-1.22952
-0.0760547
0.0137478
-0.361635
0.0180108
-0.703474
0.0120054
-0.821967
0.0012368
-0.866523
-0.0113118
-0.905874
-0.025139
-0.951805
-0.040309
-1.0057
-0.0568307
-1.06671
-0.074935
-1.13579
-1.20984
-0.0946154
0.0117746
-0.373409
0.0133519
-0.705052
0.00517426
-0.81379
-0.0071504
-0.854198
-0.0212165
-0.891808
-0.0365903
-0.936431
-0.0533333
-0.988959
-0.0715
-1.04854
-0.091344
-1.11595
-1.18837
-0.112814
0.00975476
-0.383164
0.00874426
-0.704041
-0.0015299
-0.803516
-0.0153627
-0.840365
-0.0309037
-0.876267
-0.0477894
-0.919545
-0.066077
-0.970671
-0.0858583
-1.02876
-0.107404
-1.0944
-1.16514
-0.130631
0.00771334
-0.390877
0.00422804
-0.700556
-0.00791891
-0.791369
-0.0233727
-0.824911
-0.0403561
-0.859283
-0.058722
-0.901179
-0.0785248
-0.950869
-0.0998873
-1.0074
-0.123098
-1.07119
-1.14019
-0.148043
0.00566915
-0.396546
-9.75714e-05
-0.694789
-0.0141773
-0.777289
-0.0311657
-0.807923
-0.0495631
-0.840886
-0.0693757
-0.881367
-0.0906621
-0.929582
-0.11357
-0.984489
-0.138409
-1.04635
-1.11357
-0.165029
0.00364037
-0.400187
-0.00465647
-0.686492
-0.0202737
-0.761672
-0.0387273
-0.789469
-0.058513
-0.8211
-0.0797387
-0.860141
-0.102475
-0.906846
-0.126893
-0.960071
-0.153321
-1.01993
-1.08533
-0.181561
0.00166335
-0.40185
-0.00895889
-0.67587
-0.0261898
-0.744441
-0.0460482
-0.769611
-0.0671956
-0.799953
-0.0897997
-0.837537
-0.11395
-0.882696
-0.139841
-0.93418
-0.167815
-0.991953
-1.05553
-0.197615
-0.000226589
-0.401624
-0.0130935
-0.663003
-0.0319158
-0.725619
-0.0531239
-0.748403
-0.0756012
-0.777476
-0.0995479
-0.81359
-0.125075
-0.857169
-0.152404
-0.906851
-0.181875
-0.962482
-1.02421
-0.213194
-0.00235379
-0.39927
-0.0170768
-0.64828
-0.037439
-0.705256
-0.0599484
-0.725894
-0.0837205
-0.753704
-0.108972
-0.788338
-0.135841
-0.8303
-0.164583
-0.878109
-0.195496
-0.931569
-0.991442
-0.228267
-0.00433297
-0.394937
-0.0209073
-0.631706
-0.042748
-0.683416
-0.0665159
-0.702126
-0.0915449
-0.728675
-0.118063
-0.76182
-0.146241
-0.802122
-0.176371
-0.847978
-0.208629
-0.899312
-0.957476
-0.242595
-0.0062256
-0.388711
-0.0245821
-0.613349
-0.0478365
-0.660161
-0.0728209
-0.677141
-0.0990666
-0.702429
-0.126811
-0.734075
-0.156262
-0.772671
-0.187723
-0.816517
-0.221286
-0.865749
-0.922711
-0.25605
-0.00803801
-0.380673
-0.0280979
-0.593289
-0.0526999
-0.635559
-0.078858
-0.650983
-0.106278
-0.675009
-0.135208
-0.705145
-0.165891
-0.741989
-0.198584
-0.783823
-0.232998
-0.831336
-0.885753
-0.269956
-0.00977051
-0.370903
-0.0314515
-0.571608
-0.0573348
-0.609676
-0.0846224
-0.623695
-0.113173
-0.646458
-0.143246
-0.675072
-0.175103
-0.710133
-0.208915
-0.750011
-0.244589
-0.795663
-0.847206
-0.283135
-0.0114217
-0.359481
-0.03464
-0.54839
-0.0617383
-0.582578
-0.0901095
-0.595324
-0.119745
-0.616822
-0.150917
-0.6439
-0.1839
-0.67715
-0.218855
-0.715055
-0.255906
-0.758612
-0.807322
-0.295789
-0.0129896
-0.346491
-0.0376606
-0.523719
-0.0659079
-0.55433
-0.0953149
-0.565917
-0.125988
-0.586149
-0.158209
-0.611679
-0.192258
-0.6431
-0.2283
-0.679014
-0.266571
-0.72034
-0.766174
-0.30772
-0.0144721
-0.332019
-0.0405108
-0.49768
-0.0698415
-0.525
-0.100235
-0.535524
-0.131895
-0.554489
-0.165115
-0.57846
-0.200182
-0.608033
-0.237282
-0.641913
-0.276711
-0.680912
-0.723881
-0.319004
-0.0158669
-0.316152
-0.0431887
-0.470359
-0.073537
-0.494651
-0.104865
-0.504195
-0.137462
-0.521893
-0.171626
-0.544295
-0.207656
-0.572003
-0.245761
-0.603809
-0.286265
-0.640408
-0.680514
-0.329632
-0.0171714
-0.298981
-0.0456922
-0.441838
-0.0769926
-0.463351
-0.109203
-0.471985
-0.142682
-0.488414
-0.177737
-0.50924
-0.214676
-0.535064
-0.25373
-0.564755
-0.29524
-0.598898
-0.636147
-0.339607
-0.0183828
-0.280598
-0.04802
-0.412201
-0.0802066
-0.431164
-0.113245
-0.438947
-0.147551
-0.454108
-0.18344
-0.473351
-0.221231
-0.497273
-0.261175
-0.524812
-0.30362
-0.556452
-0.590845
-0.348922
-0.019497
-0.261101
-0.0501703
-0.381527
-0.0831775
-0.398157
-0.116987
-0.405138
-0.152063
-0.419032
-0.188728
-0.436686
-0.227314
-0.458687
-0.268085
-0.484041
-0.311398
-0.513139
-0.544676
-0.357567
-0.0205074
-0.240594
-0.0521413
-0.349893
-0.0859043
-0.364394
-0.120427
-0.370615
-0.156215
-0.383244
-0.193597
-0.399304
-0.232916
-0.419368
-0.274451
-0.442505
-0.318562
-0.469029
-0.497706
-0.365531
-0.0213995
-0.219194
-0.053932
-0.317361
-0.0883864
-0.32994
-0.123563
-0.335438
-0.160002
-0.346806
-0.198039
-0.361266
-0.238031
-0.379375
-0.280266
-0.400271
-0.325102
-0.424192
-0.450006
-0.372803
-0.0222182
-0.196976
-0.0555444
-0.284035
-0.0906236
-0.294861
-0.126392
-0.29967
-0.16342
-0.309777
-0.202051
-0.322635
-0.242652
-0.338774
-0.28552
-0.357403
-0.331012
-0.378701
-0.401646
-0.379371
-0.0229633
-0.174013
-0.0569795
-0.250019
-0.0926152
-0.259225
-0.128911
-0.263375
-0.166467
-0.27222
-0.205628
-0.283475
-0.246774
-0.297628
-0.290207
-0.31397
-0.336282
-0.332627
-0.352701
-0.385227
-0.0236225
-0.15039
-0.0582366
-0.215404
-0.0943601
-0.223101
-0.13112
-0.226615
-0.16914
-0.2342
-0.208766
-0.243849
-0.250391
-0.256004
-0.294322
-0.270039
-0.340905
-0.286044
-0.303244
-0.390361
-0.0241912
-0.126199
-0.0593154
-0.18028
-0.0958576
-0.186559
-0.133015
-0.189457
-0.171435
-0.19578
-0.211462
-0.203822
-0.253498
-0.213967
-0.297856
-0.225682
-0.344875
-0.239025
-0.253352
-0.394766
-0.0246669
-0.101532
-0.0602151
-0.144732
-0.0971068
-0.149667
-0.134598
-0.151967
-0.173351
-0.157026
-0.213713
-0.16346
-0.256093
-0.171587
-0.300805
-0.18097
-0.348184
-0.191646
-0.203101
-0.398436
-0.0250485
-0.0764837
-0.0609354
-0.108845
-0.098107
-0.112496
-0.135865
-0.114209
-0.174886
-0.118005
-0.215516
-0.12283
-0.258172
-0.128932
-0.303167
-0.135974
-0.350831
-0.143981
-0.152565
-0.401367
-0.0253351
-0.0511485
-0.0614759
-0.0727044
-0.0988576
-0.075114
-0.136816
-0.0762508
-0.176039
-0.0787818
-0.21687
-0.081999
-0.259732
-0.0860693
-0.30494
-0.090767
-0.352816
-0.0961045
-0.101822
-0.40356
-0.0255264
-0.0256221
-0.0618363
-0.0363945
-0.0993583
-0.0375921
-0.13745
-0.0381589
-0.176807
-0.0394245
-0.217773
-0.0410331
-0.260773
-0.0430691
-0.306122
-0.0454187
-0.354139
-0.0480872
-0.0509437
-0.405017
-0.0256221
-5.06014e-09
-0.0620166
-7.06422e-09
-0.0996087
-6.98436e-09
-0.137768
-6.70415e-09
-0.177192
-6.48684e-09
-0.218225
-6.28096e-09
-0.261294
-6.10063e-09
-0.306713
-5.93175e-09
-0.3548
-5.77042e-09
-5.59075e-09
-0.405744
-0.0256221
0.0256221
-0.0620166
0.0363945
-0.0996087
0.037592
-0.137768
0.0381589
-0.177192
0.0394245
-0.218225
0.0410331
-0.261294
0.0430691
-0.306713
0.0454187
-0.3548
0.0480872
0.0509437
-0.405744
-0.0255264
0.0511485
-0.0618363
0.0727044
-0.0993583
0.075114
-0.13745
0.0762508
-0.176807
0.0787818
-0.217773
0.081999
-0.260773
0.0860692
-0.306122
0.090767
-0.354139
0.0961045
0.101822
-0.405017
-0.0253351
0.0764836
-0.0614759
0.108845
-0.0988576
0.112496
-0.136816
0.114209
-0.176039
0.118005
-0.21687
0.12283
-0.259732
0.128932
-0.30494
0.135974
-0.352816
0.143981
0.152565
-0.40356
-0.0250485
0.101532
-0.0609354
0.144732
-0.098107
0.149667
-0.135865
0.151967
-0.174886
0.157026
-0.215516
0.16346
-0.258172
0.171587
-0.303167
0.18097
-0.350831
0.191646
0.203101
-0.401367
-0.0246669
0.126199
-0.0602151
0.18028
-0.0971068
0.186559
-0.134598
0.189457
-0.173351
0.19578
-0.213713
0.203822
-0.256093
0.213967
-0.300805
0.225682
-0.348184
0.239025
0.253352
-0.398436
-0.0241912
0.15039
-0.0593154
0.215404
-0.0958576
0.223101
-0.133015
0.226615
-0.171435
0.2342
-0.211462
0.243848
-0.253498
0.256004
-0.297856
0.270039
-0.344875
0.286044
0.303244
-0.394766
-0.0236225
0.174013
-0.0582366
0.250018
-0.0943601
0.259225
-0.13112
0.263375
-0.16914
0.27222
-0.208766
0.283475
-0.250391
0.297628
-0.294322
0.31397
-0.340905
0.332627
0.352701
-0.390361
-0.0229633
0.196976
-0.0569795
0.284035
-0.0926152
0.29486
-0.128911
0.29967
-0.166467
0.309777
-0.205628
0.322635
-0.246774
0.338774
-0.290207
0.357403
-0.336282
0.378701
0.401646
-0.385227
-0.0222182
0.219194
-0.0555444
0.317361
-0.0906236
0.32994
-0.126392
0.335438
-0.16342
0.346806
-0.202051
0.361266
-0.242652
0.379375
-0.28552
0.400271
-0.331012
0.424192
0.450006
-0.379371
-0.0213995
0.240594
-0.053932
0.349893
-0.0883864
0.364394
-0.123563
0.370615
-0.160002
0.383244
-0.198039
0.399304
-0.238031
0.419368
-0.280266
0.442505
-0.325102
0.469029
0.497706
-0.372803
-0.0205074
0.261101
-0.0521413
0.381527
-0.0859043
0.398157
-0.120427
0.405137
-0.156215
0.419032
-0.193597
0.436686
-0.232916
0.458687
-0.274451
0.484041
-0.318562
0.513139
0.544676
-0.365531
-0.019497
0.280598
-0.0501703
0.412201
-0.0831775
0.431164
-0.116987
0.438947
-0.152063
0.454108
-0.188728
0.473351
-0.227314
0.497273
-0.268085
0.524812
-0.311398
0.556452
0.590845
-0.357567
-0.0183828
0.298981
-0.04802
0.441838
-0.0802066
0.463351
-0.113245
0.471985
-0.147551
0.488414
-0.18344
0.50924
-0.221231
0.535064
-0.261175
0.564755
-0.30362
0.598898
0.636147
-0.348922
-0.0171714
0.316152
-0.0456922
0.470359
-0.0769926
0.494651
-0.109203
0.504195
-0.142682
0.521893
-0.177737
0.544295
-0.214676
0.572003
-0.25373
0.603809
-0.29524
0.640408
0.680514
-0.339607
-0.0158669
0.332019
-0.0431887
0.49768
-0.073537
0.525
-0.104865
0.535524
-0.137462
0.554489
-0.171626
0.57846
-0.207656
0.608033
-0.245761
0.641913
-0.286265
0.680912
0.723881
-0.329632
-0.0144721
0.346491
-0.0405108
0.523719
-0.0698415
0.55433
-0.100235
0.565917
-0.131895
0.586149
-0.165115
0.611679
-0.200182
0.6431
-0.237282
0.679014
-0.276711
0.72034
0.766174
-0.319004
-0.0129896
0.359481
-0.0376606
0.54839
-0.0659079
0.582578
-0.0953149
0.595324
-0.125988
0.616822
-0.158209
0.6439
-0.192258
0.67715
-0.2283
0.715055
-0.266571
0.758612
0.807322
-0.30772
-0.0114217
0.370903
-0.03464
0.571608
-0.0617383
0.609676
-0.0901095
0.623695
-0.119745
0.646458
-0.150917
0.675072
-0.1839
0.710133
-0.218855
0.75001
-0.255906
0.795663
0.847206
-0.295789
-0.00977051
0.380673
-0.0314515
0.593289
-0.0573348
0.635559
-0.0846224
0.650983
-0.113173
0.675009
-0.143246
0.705145
-0.175103
0.741989
-0.208915
0.783823
-0.244589
0.831336
0.885753
-0.283135
-0.00803801
0.388711
-0.0280979
0.613349
-0.0526999
0.660161
-0.078858
0.677141
-0.106278
0.702429
-0.135208
0.734075
-0.165891
0.772671
-0.198584
0.816517
-0.232998
0.865749
0.922711
-0.269956
-0.0062256
0.394937
-0.0245821
0.631706
-0.0478365
0.683416
-0.0728209
0.702126
-0.0990666
0.728675
-0.126811
0.76182
-0.156262
0.802122
-0.187723
0.847978
-0.221286
0.899312
0.957476
-0.25605
-0.00433297
0.39927
-0.0209073
0.64828
-0.042748
0.705256
-0.0665159
0.725894
-0.0915449
0.753704
-0.118063
0.788338
-0.146241
0.8303
-0.176371
0.878109
-0.208629
0.931569
0.991442
-0.242595
-0.00235379
0.401624
-0.0170768
0.663003
-0.037439
0.725619
-0.0599484
0.748403
-0.0837205
0.777476
-0.108972
0.81359
-0.135841
0.857169
-0.164583
0.906851
-0.195496
0.962482
1.02421
-0.228267
-0.000226589
0.40185
-0.0130935
0.67587
-0.0319158
0.744441
-0.0531239
0.769611
-0.0756012
0.799953
-0.0995479
0.837537
-0.125075
0.882696
-0.152404
0.93418
-0.181875
0.991953
1.05553
-0.213194
0.00166335
0.400187
-0.00895889
0.686492
-0.0261898
0.761672
-0.0460482
0.789469
-0.0671956
0.8211
-0.0897997
0.860141
-0.11395
0.906846
-0.139841
0.960071
-0.167815
1.01993
1.08533
-0.197615
0.00364037
0.396546
-0.00465647
0.694789
-0.0202737
0.777289
-0.0387273
0.807923
-0.058513
0.840886
-0.0797387
0.881366
-0.102475
0.929582
-0.126893
0.984489
-0.153321
1.04635
1.11357
-0.181561
0.00566915
0.390877
-9.75717e-05
0.700556
-0.0141773
0.791369
-0.0311657
0.824911
-0.0495631
0.859283
-0.0693757
0.901179
-0.0906621
0.950869
-0.11357
1.0074
-0.138409
1.07119
1.14019
-0.165029
0.00771334
0.383164
0.00422804
0.704041
-0.00791891
0.803516
-0.0233727
0.840365
-0.0403561
0.876267
-0.058722
0.919545
-0.0785248
0.970671
-0.0998873
1.02876
-0.123098
1.0944
1.16514
-0.148043
0.00975476
0.373409
0.00874426
0.705052
-0.0015299
0.81379
-0.0153627
0.854198
-0.0309037
0.891808
-0.0477894
0.936431
-0.066077
0.988959
-0.0858583
1.04854
-0.107404
1.11595
1.18837
-0.130631
0.0117746
0.361635
0.0133519
0.703474
0.00517426
0.821967
-0.0071504
0.866523
-0.0212165
0.905874
-0.0365903
0.951805
-0.0533333
1.0057
-0.0715
1.06671
-0.091344
1.13579
1.20984
-0.112814
0.0137478
0.347887
0.0180108
0.699211
0.0120054
0.827973
0.0012368
0.877291
-0.0113118
0.918423
-0.025139
0.965632
-0.040309
1.02087
-0.0568307
1.08323
-0.074935
1.1539
1.22952
-0.0946154
0.0156443
0.332242
0.022686
0.692169
0.0189363
0.831722
0.00990857
0.886319
-0.00124501
0.929576
-0.0134539
0.977841
-0.0270203
1.03444
-0.0418719
1.09808
-0.0581958
1.17022
1.24738
-0.0760547
0.0174305
0.314812
0.0273403
0.68226
0.0259564
0.833106
0.018718
0.893557
0.0091985
0.939096
-0.00158116
0.98862
-0.0134841
1.04634
-0.0266484
1.11125
-0.0411419
1.18471
1.26339
-0.0571611
0.0190699
0.295742
0.0319314
0.669398
0.0330377
0.832
0.0276737
0.898921
0.0197879
0.946981
0.0106116
0.997797
0.000251451
1.0567
-0.0111943
1.12269
-0.0237927
1.19731
1.27756
-0.037954
0.0205225
0.27522
0.0364108
0.65351
0.0401442
0.828267
0.0367551
0.90231
0.0305345
0.953202
0.0229753
1.00536
0.0143218
1.06536
0.00451249
1.1325
-0.00614524
1.20797
1.28989
-0.0184794
0.0217456
0.253474
0.0407242
0.634531
0.0472321
0.821759
0.0459358
0.903607
0.0414317
0.957706
0.0355061
1.01128
0.0285457
1.07232
0.0205599
1.14049
0.0116211
1.21691
1.30025
0.00126398
0.022696
0.230778
0.0448112
0.612416
0.0542486
0.812321
0.0551848
0.902671
0.0524615
0.960429
0.0481941
1.01555
0.0429395
1.07757
0.0367461
1.14668
0.029633
1.22402
1.30841
0.0214732
0.0233327
0.207445
0.0486063
0.587142
0.0611362
0.799791
0.0644659
0.899341
0.063601
0.961294
0.0610222
1.01813
0.0574854
1.08111
0.0530941
1.15107
0.0478793
1.22924
1.31452
0.041762
0.0236224
0.183823
0.0520389
0.558726
0.0678438
0.783987
0.0737353
0.893449
0.0748235
0.960206
0.07397
1.01898
0.0721644
1.08291
0.0695904
1.15364
0.0662962
1.23253
1.31863
0.0621906
0.0235439
0.160279
0.0550354
0.527235
0.0742918
0.76473
0.0829386
0.884803
0.0860967
0.957048
0.0870153
1.01806
0.0869568
1.08297
0.0862092
1.15439
0.0848392
1.2339
1.32074
0.0827332
0.0230918
0.137187
0.057524
0.492802
0.0803899
0.741864
0.0920094
0.873183
0.097381
0.951676
0.100132
1.01531
0.101841
1.08126
0.102925
1.15331
0.103491
1.23334
1.32085
0.103373
0.0222779
0.114909
0.0594393
0.455641
0.0860335
0.71527
0.100869
0.858348
0.108627
0.943918
0.113291
1.01065
0.116792
1.07776
0.119713
1.15039
0.122229
1.23082
1.31894
0.124143
0.0211307
0.0937785
0.0606019
0.41617
0.0911044
0.684768
0.109421
0.840031
0.119772
0.933567
0.126455
1.00396
0.131786
1.07243
0.136552
1.14562
0.141027
1.22634
1.31497
0.144992
0.0196936
0.0740849
0.0609253
0.374938
0.0954763
0.650217
0.117551
0.817957
0.130739
0.920378
0.139579
0.995125
0.146792
1.06522
0.153416
1.139
0.159854
1.21991
1.30895
0.165879
0.0180167
0.0560682
0.0603511
0.332604
0.099011
0.611557
0.125117
0.791851
0.14143
0.904065
0.152606
0.983949
0.161777
1.05605
0.170278
1.1305
0.178684
1.2115
1.30087
0.186767
0.016153
0.0399152
0.0588397
0.289917
0.101556
0.56884
0.131958
0.761448
0.151724
0.8843
0.165463
0.97021
0.176698
1.04481
0.187106
1.12009
0.197485
1.20112
1.29073
0.207624
0.0141607
0.0257545
0.0563905
0.247687
0.10295
0.522281
0.137885
0.726513
0.161472
0.860713
0.178058
0.953624
0.191501
1.03137
0.203866
1.10772
0.216229
1.18876
1.27854
0.228417
0.012111
0.0136435
0.0530589
0.206739
0.103028
0.472312
0.142685
0.686856
0.170494
0.832904
0.190269
0.933849
0.206117
1.01552
0.220513
1.09333
0.234883
1.17439
1.26431
0.249114
0.0100912
0.00355235
0.0489628
0.167868
0.101638
0.419637
0.146119
0.642376
0.178567
0.800455
0.201936
0.91048
0.220452
0.997004
0.236996
1.07678
0.253411
1.15797
1.24804
0.269681
0.0081967
-0.00464435
0.0442735
0.131791
0.0986549
0.365255
0.14793
0.593101
0.185424
0.762961
0.212855
0.883049
0.234383
0.975477
0.253248
1.05792
0.27177
1.13945
1.22972
0.290085
0.00650797
-0.0111523
0.039194
0.0991048
0.0940069
0.310442
0.14785
0.539257
0.190744
0.720066
0.222765
0.851029
0.247737
0.950505
0.26917
1.03648
0.289904
1.11872
1.20934
0.310283
0.00506954
-0.0162219
0.0339406
0.0702338
0.0877208
0.256662
0.145613
0.481365
0.194158
0.671522
0.231336
0.813851
0.260286
0.921554
0.284627
1.01214
0.307738
1.09561
1.18684
0.33024
0.00388181
-0.0201037
0.0287359
0.0453797
0.0799722
0.205426
0.140993
0.420344
0.195254
0.61726
0.23816
0.770946
0.271722
0.887991
0.299429
0.984438
0.325168
1.06987
1.16213
0.349882
0.00291355
-0.0230172
0.0237982
0.0244951
0.0711183
0.158106
0.133845
0.357617
0.193601
0.557504
0.242749
0.721798
0.281639
0.849101
0.313303
0.952773
0.342046
1.04113
1.13501
0.369162
0.00212456
-0.0251418
0.0193122
0.00730745
0.0616582
0.11576
0.124197
0.295078
0.188792
0.492909
0.244537
0.666054
0.289512
0.804126
0.325885
0.9164
0.358124
1.00889
1.10521
0.387928
0.00148195
-0.0266237
0.0153972
-0.00660779
0.052139
0.0790179
0.112333
0.234884
0.180507
0.424735
0.242902
0.603658
0.294676
0.752352
0.336652
0.874425
0.373126
0.972413
1.07232
0.406013
0.000964177
-0.0275879
0.0120915
-0.0177351
0.0430713
0.0480381
0.0988488
0.179107
0.168628
0.354956
0.237224
0.535062
0.296335
0.693241
0.344938
0.825823
0.386428
0.930922
1.03543
0.423315
0.000557292
-0.0281452
0.00936529
-0.0265431
0.0348611
0.0225423
0.0845899
0.129378
0.153377
0.286168
0.226995
0.461444
0.293541
0.626695
0.349903
0.769461
0.397504
0.883322
0.994239
0.438698
0.000249919
-0.0283951
0.00715182
-0.033445
0.0277484
0.00194574
0.0704927
0.0866335
0.135452
0.221209
0.211957
0.38494
0.285404
0.553248
0.350375
0.70449
0.405197
0.8285
0.945741
0.453694
3.17417e-05
-0.0284269
0.00537383
-0.0387871
0.0217896
-0.01447
0.0573789
0.0510442
0.11602
0.162568
0.192386
0.308573
0.271057
0.474577
0.345673
0.629874
0.4072
0.766972
0.889843
0.463098
-0.000135265
-0.0282916
0.00395366
-0.042876
0.0169004
-0.0274168
0.0457919
0.0221527
0.0964981
0.111862
0.169257
0.235815
0.250317
0.393517
0.333604
0.546587
0.405727
0.69485
0.833232
0.462338
-0.000245064
-0.0280465
0.00281682
-0.0459379
0.0129228
-0.0375228
0.0359399
-0.000864409
0.0782032
0.0695987
0.144187
0.169831
0.223904
0.3138
0.313029
0.457462
0.397182
0.610696
0.768251
0.462164
-0.000319
-0.0277275
0.00189285
-0.0481498
0.00967644
-0.0453063
0.0277529
-0.0189409
0.0620219
0.0353298
0.119042
0.11281
0.193522
0.23932
0.283967
0.367017
0.378551
0.516112
0.692808
0.453994
-0.000377351
-0.0273502
0.00111528
-0.0496424
0.00698463
-0.0511757
0.0209929
-0.0329492
0.0482629
0.00805974
0.0953545
0.0657189
0.161653
0.173022
0.247953
0.280717
0.348766
0.415299
0.606356
0.435218
-0.000436975
-0.0269132
0.000424216
-0.0505036
0.00468713
-0.0554386
0.0153519
-0.0436139
0.0367388
-0.0133271
0.0740331
0.0284246
0.130862
0.116193
0.207922
0.203657
0.308524
0.314698
0.51028
0.404599
-0.000510275
-0.0264029
-0.00023203
-0.0507818
0.00264774
-0.0583184
0.0105226
-0.0514888
0.0270105
-0.029815
0.0554624
-2.72899e-05
0.102882
0.0687732
0.167403
0.139136
0.260955
0.221146
0.408703
0.362532
-0.000608203
-0.0257947
-0.000894662
-0.0504954
0.000763558
-0.0599766
0.00624566
-0.0569709
0.0186261
-0.0421955
0.0396612
-0.0210623
0.0782389
0.0301955
0.129603
0.0877721
0.210989
0.139759
0.308473
0.311219
-0.000739954
-0.0250548
-0.00158241
-0.0496529
-0.00106328
-0.0604957
0.0023264
-0.0603606
0.011246
-0.051115
0.0263249
-0.0361412
0.0567176
-0.000197152
0.0966267
0.047863
0.163262
0.0731241
0.217336
0.254399
-0.000905194
-0.0241496
-0.00230798
-0.0482501
-0.00287182
-0.0599319
-0.00132482
-0.0619076
0.00463425
-0.0570741
0.0149437
-0.0464506
0.0379516
-0.0232051
0.0688721
0.0169425
0.120255
0.0217412
0.141037
0.196554
-0.00110146
-0.0230481
-0.00307153
-0.04628
-0.0046652
-0.0583382
-0.00473171
-0.0618411
-0.0014036
-0.0604022
0.00495885
-0.0528131