/*--------------------------------*- C++ -*----------------------------------*\
  =========                 |
  \\      /  F ield         | OpenFOAM: The Open Source CFD Toolbox
   \\    /   O peration     | Website:  https://openfoam.org
    \\  /    A nd           | Version:  7
     \\/     M anipulation  |
\*---------------------------------------------------------------------------*/
FoamFile
{
    version     2.0;
    format      ascii;
    class       volScalarField;
    location    "0.3";
    object      rho;
}
// * * * * * * * * * * * * * * * * * * * * * * * * * * * * * * * * * * * * * //

dimensions      [1 -3 0 0 0 0 0];

internalField   nonuniform List<scalar> 
6300
(
1.40001
1.40001
1.40001
1.40001
1.40001
1.40001
1.40001
1.40001
1.40001
1.40001
1.40001
1.40001
1.40001
1.40001
1.40001
1.40001
1.40001
1.40001
1.40001
1.40001
2.9263
5.49564
5.64353
5.42565
5.1685
4.85958
4.74461
4.78426
4.91084
5.03589
1.40001
1.40001
1.40001
1.40001
1.40001
1.40001
1.40001
1.40001
1.40001
1.40001
1.40001
1.40001
1.40001
1.40001
1.40001
1.40001
1.40001
1.40001
1.40001
1.40001
2.85822
5.44382
5.62862
5.42689
5.15819
4.85635
4.7444
4.78226
4.89984
5.01708
1.40001
1.40001
1.40001
1.40001
1.40001
1.40001
1.40001
1.40001
1.40001
1.40001
1.40001
1.40001
1.40001
1.40001
1.40001
1.40001
1.40001
1.40001
1.40001
1.40001
2.70196
5.36612
5.62631
5.41611
5.14861
4.85798
4.74776
4.7818
4.88703
4.99459
1.40001
1.40001
1.40001
1.40001
1.40001
1.40001
1.40001
1.40001
1.40001
1.40001
1.40001
1.40001
1.40001
1.40001
1.40001
1.40001
1.40001
1.40001
1.40001
1.40001
2.4878
5.26032
5.63472
5.40989
5.15306
4.87628
4.76156
4.77977
4.86601
4.95718
1.40001
1.40001
1.40001
1.40001
1.40001
1.40001
1.40001
1.40001
1.40001
1.40001
1.40001
1.40001
1.40001
1.40001
1.40001
1.40001
1.40001
1.40001
1.40001
1.40001
2.15815
5.10003
5.66336
5.40964
5.16831
4.90451
4.77528
4.77041
4.83268
4.90514
1.40001
1.40001
1.40001
1.40001
1.40001
1.40001
1.40001
1.40001
1.40001
1.40001
1.40001
1.40001
1.40001
1.40001
1.40001
1.40001
1.40001
1.40001
1.40001
1.40001
1.80084
4.80845
5.66984
5.40915
5.19502
4.95291
4.79466
4.75484
4.78547
4.83109
1.40001
1.40001
1.40001
1.40001
1.40001
1.40001
1.40001
1.40001
1.40001
1.40001
1.40001
1.40001
1.40001
1.40001
1.40001
1.40001
1.40001
1.40001
1.40001
1.40001
1.46895
4.29609
5.62939
5.40597
5.23023
5.00401
4.81178
4.72229
4.72269
4.74671
1.40001
1.40001
1.40001
1.40001
1.40001
1.40001
1.40001
1.40001
1.40001
1.40001
1.40001
1.40001
1.40001
1.40001
1.40001
1.40001
1.40001
1.40001
1.40001
1.40001
1.40098
3.63028
5.50924
5.39092
5.26218
5.05909
4.83193
4.69346
4.65657
4.63247
1.40001
1.40001
1.40001
1.40001
1.40001
1.40001
1.40001
1.40001
1.40001
1.40001
1.40001
1.40001
1.40001
1.40001
1.40001
1.40001
1.40001
1.40001
1.40001
1.40001
1.40001
2.92248
5.33653
5.39815
5.27895
5.10919
4.83402
4.62577
4.52356
4.47941
1.40001
1.40001
1.40001
1.40001
1.40001
1.40001
1.40001
1.40001
1.40001
1.40001
1.40001
1.40001
1.40001
1.40001
1.40001
1.40001
1.40001
1.40001
1.40001
1.40001
1.40001
2.17704
5.06248
5.44412
5.276
5.12189
4.83609
4.56414
4.37963
4.3038
1.40001
1.40001
1.40001
1.40001
1.40001
1.40001
1.40001
1.40001
1.40001
1.40001
1.40001
1.40001
1.40001
1.40001
1.40001
1.40001
1.40001
1.40001
1.40001
1.40001
1.40001
1.54643
4.45494
5.44936
5.25796
5.10668
4.81437
4.46606
4.05078
3.23488
1.40001
1.40001
1.40001
1.40001
1.40001
1.40001
1.40001
1.40001
1.40001
1.40001
1.40001
1.40001
1.40001
1.40001
1.40001
1.40001
1.40001
1.40001
1.40001
1.40001
1.40001
1.40339
3.31758
5.37763
5.23832
5.04796
4.74913
4.36512
3.88054
3.01839
1.40001
1.40001
1.40001
1.40001
1.40001
1.40001
1.40001
1.40001
1.40001
1.40001
1.40001
1.40001
1.40001
1.40001
1.40001
1.40001
1.40001
1.40001
1.40001
1.40001
1.40001
1.40001
2.09488
4.9313
5.18372
4.9845
4.70047
4.30648
3.78864
3.01695
1.40001
1.40001
1.40001
1.40001
1.40001
1.40001
1.40001
1.40001
1.40001
1.40001
1.40001
1.40001
1.40001
1.40001
1.40001
1.40001
1.40001
1.40001
1.40001
1.40001
1.40001
1.40001
1.46278
3.82238
5.08961
4.92055
4.68606
4.29709
3.77754
3.09348
1.40001
1.40001
1.40001
1.40001
1.40001
1.40001
1.40001
1.40001
1.40001
1.40001
1.40001
1.40001
1.40001
1.40001
1.40001
1.40001
1.40001
1.40001
1.40001
1.40001
1.40001
1.40001
1.40056
2.30052
4.86653
4.91785
4.67169
4.31182
3.81436
3.23094
1.40001
1.40001
1.40001
1.40001
1.40001
1.40001
1.40001
1.40001
1.40001
1.40001
1.40001
1.40001
1.40001
1.40001
1.40001
1.40001
1.40001
1.40001
1.40001
1.40001
1.40001
1.40001
1.40001
1.49367
3.66861
4.91607
4.69929
4.34386
3.90834
3.38767
1.40001
1.40001
1.40001
1.40001
1.40001
1.40001
1.40001
1.40001
1.40001
1.40001
1.40001
1.40001
1.40001
1.40001
1.40001
1.40001
1.40001
1.40001
1.40001
1.40001
1.40001
1.40001
1.40001
1.40099
2.00962
4.50645
4.76437
4.41125
4.00995
3.57729
1.40001
1.40001
1.40001
1.40001
1.40001
1.40001
1.40001
1.40001
1.40001
1.40001
1.40001
1.40001
1.40001
1.40001
1.40001
1.40001
1.40001
1.40001
1.40001
1.40001
1.40001
1.40001
1.40001
1.40001
1.43853
2.84123
4.71685
4.56598
4.14657
3.72147
1.40001
1.40001
1.40001
1.40001
1.40001
1.40001
1.40001
1.40001
1.40001
1.40001
1.40001
1.40001
1.40001
1.40001
1.40001
1.40001
1.40001
1.40001
1.40001
1.40001
1.40001
1.40001
1.40001
1.40001
1.40025
1.61459
3.50086
4.57986
4.40851
3.93445
1.40001
1.40001
1.40001
1.40001
1.40001
1.40001
1.40001
1.40001
1.40001
1.40001
1.40001
1.40001
1.40001
1.40001
1.40001
1.40001
1.40001
1.40001
1.40001
1.40001
1.40001
1.40001
1.40001
1.40001
1.40001
1.40444
1.89839
3.80929
4.383
4.19794
1.40001
1.40001
1.40001
1.40001
1.40001
1.40001
1.40001
1.40001
1.40001
1.40001
1.40001
1.40001
1.40001
1.40001
1.40001
1.40001
1.40001
1.40001
1.40001
1.40001
1.40001
1.40001
1.40001
1.40001
1.40001
1.40001
1.42134
2.15729
3.82487
4.1715
1.40001
1.40001
1.40001
1.40001
1.40001
1.40001
1.40001
1.40001
1.40001
1.40001
1.40001
1.40001
1.40001
1.40001
1.40001
1.40001
1.40001
1.40001
1.40001
1.40001
1.40001
1.40001
1.40001
1.40001
1.40001
1.40001
1.40011
1.44963
2.26198
3.64847
1.40001
1.40001
1.40001
1.40001
1.40001
1.40001
1.40001
1.40001
1.40001
1.40001
1.40001
1.40001
1.40001
1.40001
1.40001
1.40001
1.40001
1.40001
1.40001
1.40001
1.40001
1.40001
1.40001
1.40001
1.40001
1.40001
1.40001
1.40037
1.4663
2.17484
1.40001
1.40001
1.40001
1.40001
1.40001
1.40001
1.40001
1.40001
1.40001
1.40001
1.40001
1.40001
1.40001
1.40001
1.40001
1.40001
1.40001
1.40001
1.40001
1.40001
1.40001
1.40001
1.40001
1.40001
1.40001
1.40001
1.40001
1.40001
1.4006
1.45375
1.40001
1.40001
1.40001
1.40001
1.40001
1.40001
1.40001
1.40001
1.40001
1.40001
1.40001
1.40001
1.40001
1.40001
1.40001
1.40001
1.40001
1.40001
1.40001
1.40001
1.40001
1.40001
1.40001
1.40001
1.40001
1.40001
1.40001
1.40001
1.40001
1.40042
1.40001
1.40001
1.40001
1.40001
1.40001
1.40001
1.40001
1.40001
1.40001
1.40001
1.40001
1.40001
1.40001
1.40001
1.40001
1.40001
1.40001
1.40001
1.40001
1.40001
1.40001
1.40001
1.40001
1.40001
1.40001
1.40001
1.40001
1.40001
1.40001
1.40001
1.40001
1.40001
1.40001
1.40001
1.40001
1.40001
1.40001
1.40001
1.40001
1.40001
1.40001
1.40001
1.40001
1.40001
1.40001
1.40001
1.40001
1.40001
1.40001
1.40001
1.40001
1.40001
1.40001
1.40001
1.40001
1.40001
1.40001
1.40001
1.40001
1.40001
1.40001
1.40001
1.40001
1.40001
1.40001
1.40001
1.40001
1.40001
1.40001
1.40001
1.40001
1.40001
1.40001
1.40001
1.40001
1.40001
1.40001
1.40001
1.40001
1.40001
1.40001
1.40001
1.40001
1.40001
1.40001
1.40001
1.40001
1.40001
1.40001
1.40001
1.40001
1.40001
1.40001
1.40001
1.40001
1.40001
1.40001
1.40001
1.40001
1.40001
1.40001
1.40001
1.40001
1.40001
1.40001
1.40001
1.40001
1.40001
1.40001
1.40001
1.40001
1.40001
1.40001
1.40001
1.40001
1.40001
1.40001
1.40001
1.40001
1.40001
1.40001
1.40001
1.40001
1.40001
1.40001
1.40001
1.40001
1.40001
1.40001
1.40001
1.40001
1.40001
1.40001
1.40001
1.40001
1.40001
1.40001
1.40001
1.40001
1.40001
1.40001
1.40001
1.40001
1.40001
1.40001
1.40001
1.40001
1.40001
1.40001
1.40001
1.40001
1.40001
1.40001
1.40001
1.40001
1.40001
1.40001
1.40001
1.40001
1.40001
1.40001
1.40001
1.40001
1.40001
1.40001
1.40001
1.40001
1.40001
1.40001
1.40001
1.40001
1.40001
1.40001
1.40001
1.40001
1.40001
1.40001
1.40001
1.40001
1.40001
1.40001
1.40001
1.40001
1.40001
1.40001
1.40001
1.40001
1.40001
1.40001
1.40001
1.40001
1.40001
1.40001
1.40001
1.40001
1.40001
1.40001
1.40001
1.40001
1.40001
1.40001
1.40001
1.40001
1.40001
1.40001
1.40001
1.40001
1.40001
1.40001
1.40001
1.40001
1.40001
1.40001
1.40001
1.40001
1.40001
1.40001
1.40001
1.40001
1.40001
1.40001
1.40001
1.40001
1.40001
1.40001
1.40001
1.40001
1.40001
1.40001
1.40001
1.40001
1.40001
1.40001
1.40001
1.40001
1.40001
1.40001
1.40001
1.40001
1.40001
1.40001
1.40001
1.40001
1.40001
1.40001
1.40001
1.40001
1.40001
1.40001
1.40001
1.40001
1.40001
1.40001
1.40001
1.40001
1.40001
1.40001
1.40001
1.40001
1.40001
1.40001
1.40001
1.40001
1.40001
1.40001
1.40001
1.40001
1.40001
1.40001
1.40001
1.40001
1.40001
1.40001
1.40001
1.40001
1.40001
1.40001
1.40001
1.40001
1.40001
1.40001
1.40001
1.40001
1.40001
1.40001
1.40001
1.40001
1.40001
1.40001
1.40001
1.40001
1.40001
1.40001
1.40001
1.40001
1.40001
1.40001
1.40001
1.40001
1.40001
1.40001
1.40001
1.40001
1.40001
1.40001
1.40001
1.40001
1.40001
1.40001
1.40001
1.40001
1.40001
1.40001
1.40001
1.40001
1.40001
1.40001
1.40001
1.40001
1.40001
1.40001
1.40001
1.40001
1.40001
1.40001
1.40001
1.40001
1.40001
1.40001
1.40001
1.40001
1.40001
1.40001
1.40001
1.40001
1.40001
1.40001
1.40001
1.40001
1.40001
1.40001
1.40001
1.40001
1.40001
1.40001
1.40001
1.40001
1.40001
1.40001
1.40001
1.40001
1.40001
1.40001
1.40001
1.40001
1.40001
1.40001
1.40001
1.40001
1.40001
1.40001
1.40001
1.40001
1.40001
1.40001
1.40001
1.40001
1.40001
1.40001
1.40001
1.40001
1.40001
1.40001
1.40001
1.40001
1.40001
1.40001
1.40001
1.40001
1.40001
1.40001
1.40001
1.40001
1.40001
1.40001
1.40001
1.40001
1.40001
1.40001
1.40001
1.40001
1.40001
1.40001
1.40001
1.40001
1.40001
1.40001
1.40001
1.40001
1.40001
1.40001
1.40001
1.40001
1.40001
1.40001
1.40001
1.40001
1.40001
1.40001
1.40001
1.40001
1.40001
1.40001
1.40001
1.40001
1.40001
1.40001
1.40001
1.40001
1.40001
1.40001
1.40001
1.40001
1.40001
1.40001
1.40001
1.40001
1.40001
1.40001
1.40001
1.40001
1.40001
1.40001
1.40001
1.40001
1.40001
1.40001
1.40001
1.40001
1.40001
1.40001
1.40001
1.40001
1.40001
1.40001
1.40001
1.40001
1.40001
1.40001
1.40001
1.40001
1.40001
1.40001
1.40001
1.40001
1.40001
1.40001
1.40001
1.40001
1.40001
1.40001
1.40001
1.40001
1.40001
1.40001
1.40001
1.40001
1.40001
1.40001
1.40001
1.40001
1.40001
1.40001
1.40001
1.40001
1.40001
1.40001
1.40001
1.40001
1.40001
1.40001
1.40001
1.40001
1.40001
1.40001
1.40001
1.40001
1.40001
1.40001
1.40001
1.40001
1.40001
1.40001
1.40001
1.40001
1.40001
1.40001
1.40001
1.40001
1.40001
1.40001
1.40001
1.40001
1.40001
1.40001
1.40001
1.40001
1.40001
1.40001
1.40001
1.40001
1.40001
1.40001
1.40001
1.40001
1.40001
1.40001
1.40001
1.40001
1.40001
1.40001
1.40001
1.40001
1.40001
1.40001
1.40001
1.40001
1.40001
1.40001
1.40001
1.40001
1.40001
1.40001
1.40001
1.40001
1.40001
1.40001
1.40001
1.40001
1.40001
1.40001
1.40001
1.40001
1.40001
1.40001
1.40001
1.40001
1.40001
1.40001
1.40001
1.40001
1.40001
1.40001
1.40001
1.40001
1.40001
1.40001
1.40001
1.40001
1.40001
1.40001
1.40001
1.40001
1.40001
1.40001
1.40001
1.40001
1.40001
1.40001
1.40001
1.40001
1.40001
1.40001
1.40001
1.40001
1.40001
1.40001
1.40001
1.40001
1.40001
1.40001
1.40001
1.40001
1.40001
1.40001
1.40001
1.40001
1.40001
1.40001
1.40001
1.40001
1.40001
1.40001
1.40001
1.40001
1.40001
1.40001
1.40001
1.40001
1.40001
1.40001
1.40001
1.40001
1.40001
1.40001
1.40001
1.40001
1.40001
1.40001
1.40001
1.40001
1.40001
1.40001
1.40001
1.40001
1.40001
1.40001
1.40001
1.40001
1.40001
1.40001
1.40001
1.40001
1.40001
1.40001
1.40001
1.40001
1.40001
1.40001
1.40001
1.40001
1.40001
1.40001
1.40001
1.40001
1.40001
1.40001
1.40001
1.40001
1.40001
1.40001
1.40001
1.40001
1.40001
1.40001
1.40001
1.40001
1.40001
1.40001
1.40001
1.40001
1.40001
1.40001
1.40001
1.40001
1.40001
1.40001
1.40001
1.40001
1.40001
1.40001
1.40001
1.40001
1.40001
1.40001
1.40001
1.40001
1.40001
1.40001
1.40001
1.40001
1.40001
1.40001
1.40001
1.40001
1.40001
1.40001
1.40001
1.40001
1.40001
1.40001
1.40001
1.40001
1.40001
1.40001
1.40001
1.40001
1.40001
1.40001
1.40001
1.40001
1.40001
1.40001
1.40001
1.40001
1.40001
1.40001
1.40001
1.40001
1.40001
1.40001
1.40001
1.40001
1.40001
1.40001
1.40001
1.40001
1.40001
1.40001
1.40001
1.40001
1.40001
1.40001
1.40001
1.40001
1.40001
1.40001
1.40001
1.40001
1.40001
1.40001
1.40001
1.40001
1.40001
1.40001
1.40001
1.40001
1.40001
1.40001
1.40001
1.40001
1.40001
1.40001
1.40001
1.40001
1.40001
1.40001
1.40001
1.40001
1.40001
1.40001
1.40001
1.40001
1.40001
1.40001
1.40001
1.40001
1.40001
1.40001
1.40001
1.04156
0.378654
0.148463
0.150802
0.206228
0.257753
0.295211
0.378624
0.495063
0.595231
0.623992
0.613321
0.624823
0.654649
0.688661
0.691011
0.67692
0.651875
0.620857
0.607693
0.606952
0.610343
0.625177
0.661442
0.705043
0.717068
0.716445
0.707737
0.699645
0.703279
0.713769
0.730612
0.75527
0.788916
0.833243
0.886194
0.940363
0.997097
1.07011
1.17985
1.31681
1.38054
1.38314
1.37841
1.37405
1.37219
1.37589
1.39304
1.4203
1.4444
1.45099
1.45092
1.4501
1.44846
1.44547
1.43978
1.42849
1.41114
1.40118
1.40002
1.4
1.4
1.4
1.4
1.4
1.40001
1.40001
1.40001
1.40001
1.40001
1.40001
1.40001
1.40001
1.40001
1.40001
1.40001
1.40001
1.40001
1.40001
1.40001
1.40001
1.40001
1.40001
1.40001
1.40001
1.40001
1.40001
1.40001
1.40001
1.40001
1.40001
1.40001
1.40001
1.40001
1.40001
1.40001
1.40001
1.40001
1.40001
1.40001
1.40001
1.40001
1.40001
1.40001
1.40001
1.40001
1.40001
1.40001
1.40001
1.40001
1.40001
1.40001
1.40001
1.40001
1.40001
1.40001
1.40001
1.40001
1.40001
1.40001
1.57978
0.998641
0.640257
0.483079
0.489228
0.472056
0.430677
0.427015
0.448588
0.504405
0.54963
0.580057
0.613414
0.652712
0.682765
0.682215
0.671859
0.654083
0.637264
0.630331
0.629068
0.633469
0.648407
0.678126
0.71208
0.722719
0.721454
0.714206
0.710354
0.715226
0.72486
0.737848
0.756791
0.786074
0.829371
0.883512
0.942769
1.00625
1.08414
1.19547
1.32007
1.37091
1.37318
1.37107
1.36908
1.36862
1.37415
1.39019
1.4159
1.4427
1.45138
1.45142
1.45072
1.44918
1.44648
1.4411
1.42825
1.40986
1.40085
1.40001
1.4
1.4
1.4
1.4
1.4
1.40001
1.40001
1.40001
1.40001
1.40001
1.40001
1.40001
1.40001
1.40001
1.40001
1.40001
1.40001
1.40001
1.40001
1.40001
1.40001
1.40001
1.40001
1.40001
1.40001
1.40001
1.40001
1.40001
1.40001
1.40001
1.40001
1.40001
1.40001
1.40001
1.40001
1.40001
1.40001
1.40001
1.40001
1.40001
1.40001
1.40001
1.40001
1.40001
1.40001
1.40001
1.40001
1.40001
1.40001
1.40001
1.40001
1.40001
1.40001
1.40001
1.40001
1.40001
1.40001
1.40001
1.40001
1.40001
2.00075
1.46743
1.1272
0.844944
0.721375
0.658168
0.571966
0.506234
0.506531
0.519966
0.545534
0.597409
0.648074
0.681684
0.706533
0.708704
0.702532
0.687317
0.684207
0.683697
0.683781
0.692859
0.71686
0.743359
0.753035
0.751837
0.743601
0.731683
0.730759
0.737649
0.754394
0.778129
0.803646
0.831447
0.864741
0.908397
0.965828
1.03695
1.12829
1.24749
1.34873
1.37369
1.37345
1.37198
1.37178
1.37694
1.38803
1.40067
1.41834
1.44114
1.45126
1.45194
1.452
1.45148
1.44875
1.44133
1.42594
1.40731
1.40043
1.40001
1.4
1.4
1.4
1.4
1.4
1.40001
1.40001
1.40001
1.40001
1.40001
1.40001
1.40001
1.40001
1.40001
1.40001
1.40001
1.40001
1.40001
1.40001
1.40001
1.40001
1.40001
1.40001
1.40001
1.40001
1.40001
1.40001
1.40001
1.40001
1.40001
1.40001
1.40001
1.40001
1.40001
1.40001
1.40001
1.40001
1.40001
1.40001
1.40001
1.40001
1.40001
1.40001
1.40001
1.40001
1.40001
1.40001
1.40001
1.40001
1.40001
1.40001
1.40001
1.40001
1.40001
1.40001
1.40001
1.40001
1.40001
1.40001
1.40001
2.34221
1.85317
1.50241
1.1993
1.01832
0.911971
0.797205
0.676391
0.655108
0.643369
0.607009
0.601363
0.614364
0.637598
0.666444
0.685584
0.696215
0.70748
0.720569
0.733149
0.739012
0.755062
0.782792
0.789358
0.788645
0.78102
0.769827
0.767695
0.771882
0.785455
0.812744
0.848661
0.88324
0.913487
0.943657
0.980301
1.03015
1.10405
1.21327
1.32831
1.36918
1.37257
1.37109
1.36846
1.36843
1.37662
1.3928
1.40696
1.42122
1.44047
1.45229
1.4539
1.45426
1.45412
1.45149
1.44205
1.42228
1.40423
1.40013
1.4
1.4
1.4
1.4
1.4
1.4
1.40001
1.40001
1.40001
1.40001
1.40001
1.40001
1.40001
1.40001
1.40001
1.40001
1.40001
1.40001
1.40001
1.40001
1.40001
1.40001
1.40001
1.40001
1.40001
1.40001
1.40001
1.40001
1.40001
1.40001
1.40001
1.40001
1.40001
1.40001
1.40001
1.40001
1.40001
1.40001
1.40001
1.40001
1.40001
1.40001
1.40001
1.40001
1.40001
1.40001
1.40001
1.40001
1.40001
1.40001
1.40001
1.40001
1.40001
1.40001
1.40001
1.40001
1.40001
1.40001
1.40001
1.40001
1.40001
2.61617
2.17178
1.82931
1.52282
1.29405
1.14513
1.00782
0.867844
0.81123
0.770129
0.704445
0.63422
0.621046
0.629938
0.64365
0.662406
0.687924
0.71155
0.723802
0.733649
0.743522
0.759162
0.782553
0.791641
0.796354
0.798232
0.801063
0.809129
0.827897
0.857138
0.892448
0.928228
0.959823
0.988507
1.02173
1.06732
1.12851
1.21777
1.32619
1.36489
1.37044
1.37028
1.36962
1.37035
1.37278
1.3799
1.39146
1.40606
1.42444
1.4455
1.45648
1.45778
1.45805
1.4576
1.45334
1.43968
1.41597
1.4017
1.40002
1.4
1.4
1.4
1.4
1.4
1.4
1.40001
1.40001
1.40001
1.40001
1.40001
1.40001
1.40001
1.40001
1.40001
1.40001
1.40001
1.40001
1.40001
1.40001
1.40001
1.40001
1.40001
1.40001
1.40001
1.40001
1.40001
1.40001
1.40001
1.40001
1.40001
1.40001
1.40001
1.40001
1.40001
1.40001
1.40001
1.40001
1.40001
1.40001
1.40001
1.40001
1.40001
1.40001
1.40001
1.40001
1.40001
1.40001
1.40001
1.40001
1.40001
1.40001
1.40001
1.40001
1.40001
1.40001
1.40001
1.40001
1.40001
1.40001
1.40001
2.85935
2.45318
2.11502
1.79047
1.55224
1.39331
1.23182
1.04524
0.962978
0.921053
0.860299
0.761183
0.724197
0.721467
0.704856
0.696003
0.702025
0.713084
0.718111
0.72304
0.73273
0.751569
0.773918
0.787404
0.797141
0.804441
0.814216
0.836281
0.873336
0.915051
0.954933
0.996733
1.04064
1.08406
1.13374
1.19075
1.25264
1.31156
1.35214
1.36422
1.36494
1.36271
1.36333
1.3648
1.37162
1.38228
1.39096
1.40283
1.42554
1.45321
1.46323
1.46425
1.46459
1.46344
1.45554
1.4337
1.40827
1.40037
1.40001
1.4
1.4
1.4
1.4
1.4
1.40001
1.40001
1.40001
1.40001
1.40001
1.40001
1.40001
1.40001
1.40001
1.40001
1.40001
1.40001
1.40001
1.40001
1.40001
1.40001
1.40001
1.40001
1.40001
1.40001
1.40001
1.40001
1.40001
1.40001
1.40001
1.40001
1.40001
1.40001
1.40001
1.40001
1.40001
1.40001
1.40001
1.40001
1.40001
1.40001
1.40001
1.40001
1.40001
1.40001
1.40001
1.40001
1.40001
1.40001
1.40001
1.40001
1.40001
1.40001
1.40001
1.40001
1.40001
1.40001
1.40001
1.40001
1.40001
1.40001
3.09161
2.67588
2.37541
2.07431
1.78041
1.59924
1.44155
1.26597
1.13354
1.0687
0.998599
0.897713
0.853272
0.836339
0.801958
0.759499
0.732818
0.729808
0.728332
0.728945
0.736263
0.755517
0.775211
0.788448
0.799153
0.810991
0.826862
0.855662
0.894183
0.928541
0.962224
1.00696
1.06598
1.12792
1.18527
1.23539
1.28213
1.3288
1.34262
1.34456
1.34283
1.34378
1.34611
1.35239
1.36598
1.38347
1.39654
1.40896
1.43386
1.46246
1.47041
1.47143
1.47184
1.46959
1.4537
1.42239
1.40248
1.40003
1.4
1.4
1.4
1.4
1.4
1.40001
1.40001
1.40001
1.40001
1.40001
1.40001
1.40001
1.40001
1.40001
1.40001
1.40001
1.40001
1.40001
1.40001
1.40001
1.40001
1.40001
1.40001
1.40001
1.40001
1.40001
1.40001
1.40001
1.40001
1.40001
1.40001
1.40001
1.40001
1.40001
1.40001
1.40001
1.40001
1.40001
1.40001
1.40001
1.40001
1.40001
1.40001
1.40001
1.40001
1.40001
1.40001
1.40001
1.40001
1.40001
1.40001
1.40001
1.40001
1.40001
1.40001
1.40001
1.40001
1.40001
1.40001
1.40001
1.40001
1.40001
3.30368
2.91598
2.60155
2.30449
2.00743
1.80982
1.64956
1.45706
1.31817
1.24481
1.17426
1.06032
0.992925
0.97009
0.927664
0.866828
0.818914
0.814361
0.809612
0.788999
0.78439
0.789964
0.797904
0.802474
0.806629
0.816614
0.837242
0.869562
0.902983
0.928159
0.95464
1.00008
1.0664
1.13605
1.19527
1.24217
1.28518
1.30216
1.30565
1.30882
1.31252
1.31723
1.3266
1.33922
1.35439
1.37377
1.39658
1.42421
1.45925
1.48005
1.48305
1.48391
1.48344
1.47273
1.44143
1.40854
1.40027
1.40001
1.4
1.4
1.4
1.4
1.4
1.40001
1.40001
1.40001
1.40001
1.40001
1.40001
1.40001
1.40001
1.40001
1.40001
1.40001
1.40001
1.40001
1.40001
1.40001
1.40001
1.40001
1.40001
1.40001
1.40001
1.40001
1.40001
1.40001
1.40001
1.40001
1.40001
1.40001
1.40001
1.40001
1.40001
1.40001
1.40001
1.40001
1.40001
1.40001
1.40001
1.40001
1.40001
1.40001
1.40001
1.40001
1.40001
1.40001
1.40001
1.40001
1.40001
1.40001
1.40001
1.40001
1.40001
1.40001
1.40001
1.40001
1.40001
1.40001
1.40001
1.40001
3.50016
3.10996
2.81462
2.56246
2.25429
1.98517
1.84881
1.69375
1.51617
1.41471
1.34211
1.24446
1.1704
1.12169
1.05879
0.966443
0.905006
0.903157
0.904746
0.882961
0.854551
0.840608
0.834206
0.833147
0.834323
0.843671
0.867147
0.898593
0.927815
0.954676
0.983036
1.01646
1.06039
1.11409
1.16604
1.20684
1.22732
1.23742
1.25066
1.26785
1.28721
1.30804
1.32964
1.34873
1.36002
1.3719
1.39629
1.44158
1.48623
1.49849
1.5003
1.50095
1.49442
1.46336
1.41867
1.40109
1.40001
1.4
1.4
1.4
1.4
1.4
1.40001
1.40001
1.40001
1.40001
1.40001
1.40001
1.40001
1.40001
1.40001
1.40001
1.40001
1.40001
1.40001
1.40001
1.40001
1.40001
1.40001
1.40001
1.40001
1.40001
1.40001
1.40001
1.40001
1.40001
1.40001
1.40001
1.40001
1.40001
1.40001
1.40001
1.40001
1.40001
1.40001
1.40001
1.40001
1.40001
1.40001
1.40001
1.40001
1.40001
1.40001
1.40001
1.40001
1.40001
1.40001
1.40001
1.40001
1.40001
1.40001
1.40001
1.40001
1.40001
1.40001
1.40001
1.40001
1.40001
1.40001
1.40001
3.77885
3.35346
2.98895
2.75759
2.51521
2.24757
2.04336
1.88427
1.74067
1.63421
1.53372
1.40696
1.32744
1.27498
1.2081
1.10527
1.02651
1.02189
1.02336
0.997291
0.953198
0.933008
0.929206
0.934005
0.93629
0.938857
0.949401
0.962928
0.980519
1.00196
1.01811
1.03385
1.05286
1.07958
1.11167
1.14073
1.16392
1.18778
1.21431
1.24097
1.2657
1.28862
1.31175
1.33904
1.37036
1.39947
1.43937
1.49348
1.52104
1.52482
1.52607
1.52046
1.48646
1.43048
1.40244
1.40002
1.4
1.4
1.4
1.4
1.4
1.40001
1.40001
1.40001
1.40001
1.40001
1.40001
1.40001
1.40001
1.40001
1.40001
1.40001
1.40001
1.40001
1.40001
1.40001
1.40001
1.40001
1.40001
1.40001
1.40001
1.40001
1.40001
1.40001
1.40001
1.40001
1.40001
1.40001
1.40001
1.40001
1.40001
1.40001
1.40001
1.40001
1.40001
1.40001
1.40001
1.40001
1.40001
1.40001
1.40001
1.40001
1.40001
1.40001
1.40001
1.40001
1.40001
1.40001
1.40001
1.40001
1.40001
1.40001
1.40001
1.40001
1.40001
1.40001
1.40001
1.40001
1.40001
1.40001
4.02892
3.6859
3.27069
2.97062
2.72602
2.48271
2.2832
2.1028
1.93868
1.83998
1.74494
1.61256
1.49968
1.42703
1.35525
1.2514
1.16859
1.16581
1.16331
1.12684
1.06381
1.03233
1.03062
1.04259
1.05144
1.04419
1.04165
1.04379
1.05282
1.07031
1.08051
1.08265
1.08684
1.09939
1.12158
1.14702
1.17306
1.20004
1.22634
1.24904
1.2685
1.28766
1.30953
1.33628
1.37314
1.43145
1.50495
1.55146
1.55969
1.56163
1.55426
1.51108
1.44032
1.40348
1.40003
1.4
1.4
1.4
1.4
1.4
1.40001
1.40001
1.40001
1.40001
1.40001
1.40001
1.40001
1.40001
1.40001
1.40001
1.40001
1.40001
1.40001
1.40001
1.40001
1.40001
1.40001
1.40001
1.40001
1.40001
1.40001
1.40001
1.40001
1.40001
1.40001
1.40001
1.40001
1.40001
1.40001
1.40001
1.40001
1.40001
1.40001
1.40001
1.40001
1.40001
1.40001
1.40001
1.40001
1.40001
1.40001
1.40001
1.40001
1.40001
1.40001
1.40001
1.40001
1.40001
1.40001
1.40001
1.40001
1.40001
1.40001
1.40001
1.40001
1.40001
1.40001
1.40001
1.40001
1.40001
4.0032
3.87192
3.61204
3.29031
3.00153
2.73271
2.52578
2.34011
2.15108
2.03784
1.94672
1.8149
1.68918
1.60434
1.53128
1.42359
1.32911
1.3193
1.31292
1.27458
1.20088
1.16327
1.16334
1.17891
1.18491
1.17024
1.15312
1.1514
1.15966
1.17665
1.18349
1.178
1.17106
1.17549
1.18829
1.20251
1.21912
1.2405
1.26526
1.28962
1.31228
1.33563
1.36287
1.39892
1.45325
1.5316
1.59392
1.60808
1.60987
1.59385
1.53251
1.44462
1.40349
1.40003
1.4
1.4
1.4
1.4
1.4
1.40001
1.40001
1.40001
1.40001
1.40001
1.40001
1.40001
1.40001
1.40001
1.40001
1.40001
1.40001
1.40001
1.40001
1.40001
1.40001
1.40001
1.40001
1.40001
1.40001
1.40001
1.40001
1.40001
1.40001
1.40001
1.40001
1.40001
1.40001
1.40001
1.40001
1.40001
1.40001
1.40001
1.40001
1.40001
1.40001
1.40001
1.40001
1.40001
1.40001
1.40001
1.40001
1.40001
1.40001
1.40001
1.40001
1.40001
1.40001
1.40001
1.40001
1.40001
1.40001
1.40001
1.40001
1.40001
1.40001
1.40001
1.40001
1.40001
1.40001
1.40001
3.36021
3.83568
3.76421
3.62747
3.37413
3.05501
2.79915
2.60809
2.40686
2.23259
2.12982
2.01379
1.87715
1.78317
1.71944
1.62241
1.51646
1.48816
1.46796
1.4285
1.35127
1.30548
1.30586
1.32499
1.32519
1.29724
1.2675
1.2653
1.27467
1.28388
1.28245
1.26842
1.25371
1.24784
1.24669
1.24843
1.255
1.26842
1.28836
1.31424
1.34589
1.38421
1.43307
1.49872
1.58142
1.64841
1.66731
1.66584
1.63115
1.54616
1.4419
1.40257
1.40002
1.4
1.4
1.4
1.4
1.4
1.40001
1.40001
1.40001
1.40001
1.40001
1.40001
1.40001
1.40001
1.40001
1.40001
1.40001
1.40001
1.40001
1.40001
1.40001
1.40001
1.40001
1.40001
1.40001
1.40001
1.40001
1.40001
1.40001
1.40001
1.40001
1.40001
1.40001
1.40001
1.40001
1.40001
1.40001
1.40001
1.40001
1.40001
1.40001
1.40001
1.40001
1.40001
1.40001
1.40001
1.40001
1.40001
1.40001
1.40001
1.40001
1.40001
1.40001
1.40001
1.40001
1.40001
1.40001
1.40001
1.40001
1.40001
1.40001
1.40001
1.40001
1.40001
1.40001
1.40001
1.40001
1.40001
1.98057
3.06929
3.5707
3.64951
3.56702
3.41581
3.20544
2.97097
2.7255
2.48254
2.31852
2.20763
2.08663
1.97887
1.90098
1.81029
1.71348
1.6573
1.61506
1.57759
1.51274
1.45433
1.45221
1.46699
1.46141
1.41678
1.39236
1.39331
1.40461
1.40666
1.39589
1.38211
1.37665
1.37435
1.37518
1.38091
1.39073
1.40438
1.42217
1.44571
1.47808
1.52375
1.58744
1.66334
1.71646
1.72759
1.71354
1.65751
1.54711
1.43336
1.40143
1.40001
1.4
1.4
1.4
1.4
1.40001
1.40001
1.40001
1.40001
1.40001
1.40001
1.40001
1.40001
1.40001
1.40001
1.40001
1.40001
1.40001
1.40001
1.40001
1.40001
1.40001
1.40001
1.40001
1.40001
1.40001
1.40001
1.40001
1.40001
1.40001
1.40001
1.40001
1.40001
1.40001
1.40001
1.40001
1.40001
1.40001
1.40001
1.40001
1.40001
1.40001
1.40001
1.40001
1.40001
1.40001
1.40001
1.40001
1.40001
1.40001
1.40001
1.40001
1.40001
1.40001
1.40001
1.40001
1.40001
1.40001
1.40001
1.40001
1.40001
1.40001
1.40001
1.40001
1.40001
1.40001
1.40001
1.40001
1.40001
1.43197
1.76996
2.58933
3.31967
3.50294
3.45902
3.4146
3.30561
3.10428
2.85047
2.62668
2.47288
2.34707
2.2253
2.10874
1.98952
1.90211
1.84116
1.77379
1.72365
1.67899
1.62215
1.6029
1.60607
1.59394
1.54561
1.53069
1.53371
1.53792
1.52908
1.50931
1.50009
1.49727
1.49621
1.49858
1.50845
1.52433
1.54576
1.57353
1.60894
1.65446
1.70938
1.75961
1.77937
1.77319
1.73902
1.66509
1.52965
1.42168
1.4006
1.40001
1.4
1.4
1.4
1.4
1.40001
1.40001
1.40001
1.40001
1.40001
1.40001
1.40001
1.40001
1.40001
1.40001
1.40001
1.40001
1.40001
1.40001
1.40001
1.40001
1.40001
1.40001
1.40001
1.40001
1.40001
1.40001
1.40001
1.40001
1.40001
1.40001
1.40001
1.40001
1.40001
1.40001
1.40001
1.40001
1.40001
1.40001
1.40001
1.40001
1.40001
1.40001
1.40001
1.40001
1.40001
1.40001
1.40001
1.40001
1.40001
1.40001
1.40001
1.40001
1.40001
1.40001
1.40001
1.40001
1.40001
1.40001
1.40001
1.40001
1.40001
1.40001
1.40001
1.40001
1.40001
1.40001
1.40001
1.40001
1.40001
1.4002
1.41228
1.57325
2.07716
2.79033
3.27473
3.4075
3.33064
3.22597
3.14869
3.02176
2.86679
2.71294
2.56041
2.40665
2.24639
2.13157
2.06419
1.99091
1.90031
1.86103
1.83134
1.79002
1.76552
1.74136
1.70711
1.69723
1.69531
1.68864
1.67362
1.66351
1.66227
1.66362
1.6682
1.678
1.69444
1.71671
1.7437
1.77426
1.80396
1.82501
1.83026
1.82034
1.79189
1.74621
1.64458
1.49277
1.41039
1.40017
1.40001
1.4
1.4
1.4
1.40001
1.40001
1.40001
1.40001
1.40001
1.40001
1.40001
1.40001
1.40001
1.40001
1.40001
1.40001
1.40001
1.40001
1.40001
1.40001
1.40001
1.40001
1.40001
1.40001
1.40001
1.40001
1.40001
1.40001
1.40001
1.40001
1.40001
1.40001
1.40001
1.40001
1.40001
1.40001
1.40001
1.40001
1.40001
1.40001
1.40001
1.40001
1.40001
1.40001
1.40001
1.40001
1.40001
1.40001
1.40001
1.40001
1.40001
1.40001
1.40001
1.40001
1.40001
1.40001
1.40001
1.40001
1.40001
1.40001
1.40001
1.40001
1.40001
1.40001
1.40001
1.40001
1.40001
1.40001
1.40001
1.40001
1.40001
1.40001
1.40004
1.40307
1.44477
1.69172
2.24027
2.83125
3.11281
3.18859
3.16653
3.14128
3.07067
2.97369
2.87434
2.75956
2.61084
2.4682
2.37713
2.30125
2.18857
2.11711
2.08901
2.04556
1.98752
1.94958
1.92985
1.91915
1.90777
1.89275
1.88217
1.88076
1.88202
1.88481
1.88973
1.89723
1.90572
1.91171
1.91211
1.90498
1.88734
1.86351
1.83633
1.79755
1.71994
1.58227
1.44819
1.40327
1.40003
1.40001
1.40001
1.40001
1.40001
1.40001
1.40001
1.40001
1.40001
1.40001
1.40001
1.40001
1.40001
1.40001
1.40001
1.40001
1.40001
1.40001
1.40001
1.40001
1.40001
1.40001
1.40001
1.40001
1.40001
1.40001
1.40001
1.40001
1.40001
1.40001
1.40001
1.40001
1.40001
1.40001
1.40001
1.40001
1.40001
1.40001
1.40001
1.40001
1.40001
1.40001
1.40001
1.40001
1.40001
1.40001
1.40001
1.40001
1.40001
1.40001
1.40001
1.40001
1.40001
1.40001
1.40001
1.40001
1.40001
1.40001
1.40001
1.40001
1.40001
1.40001
1.40001
1.40001
1.40001
1.40001
1.40001
1.40001
1.40001
1.40001
1.40001
1.40001
1.40001
1.40001
1.40001
1.40001
1.40032
1.40885
1.48138
1.72221
2.1656
2.60994
2.90444
3.08143
3.06858
3.00277
2.9413
2.88271
2.80307
2.72038
2.65713
2.60674
2.53452
2.44676
2.39202
2.3428
2.27949
2.23662
2.21453
2.19458
2.17206
2.1484
2.13014
2.11534
2.09944
2.08024
2.05673
2.02953
2.00101
1.97254
1.94362
1.91392
1.88118
1.83514
1.76022
1.63904
1.49687
1.41556
1.40059
1.40001
1.40001
1.40001
1.40001
1.40001
1.40001
1.40001
1.40001
1.40001
1.40001
1.40001
1.40001
1.40001
1.40001
1.40001
1.40001
1.40001
1.40001
1.40001
1.40001
1.40001
1.40001
1.40001
1.40001
1.40001
1.40001
1.40001
1.40001
1.40001
1.40001
1.40001
1.40001
1.40001
1.40001
1.40001
1.40001
1.40001
1.40001
1.40001
1.40001
1.40001
1.40001
1.40001
1.40001
1.40001
1.40001
1.40001
1.40001
1.40001
1.40001
1.40001
1.40001
1.40001
1.40001
1.40001
1.40001
1.40001
1.40001
1.40001
1.40001
1.40001
1.40001
1.40001
1.40001
1.40001
1.40001
1.40001
1.40001
1.40001
1.40001
1.40001
1.40001
1.40001
1.40001
1.40001
1.40001
1.40001
1.40001
1.40003
1.40083
1.4104
1.47381
1.66741
2.00128
2.36884
2.65917
2.79799
2.86065
2.86217
2.82182
2.76188
2.71194
2.67519
2.63736
2.57826
2.51484
2.47577