/*--------------------------------*- C++ -*----------------------------------*\
  =========                 |
  \\      /  F ield         | OpenFOAM: The Open Source CFD Toolbox
   \\    /   O peration     | Website:  https://openfoam.org
    \\  /    A nd           | Version:  7
     \\/     M anipulation  |
\*---------------------------------------------------------------------------*/
FoamFile
{
    version     2.0;
    format      ascii;
    class       volScalarField;
    location    "0.3";
    object      T;
}
// * * * * * * * * * * * * * * * * * * * * * * * * * * * * * * * * * * * * * //

dimensions      [0 0 0 1 0 0 0];

internalField   nonuniform List<scalar> 
6300
(
1
1
1
1
1
1
1
1
1
1
1
1
1
1
1
1
1
1
1
1
2.04025
2.88002
2.96926
3.04609
3.22564
3.40312
3.50518
3.53559
3.5415
3.55015
1
1
1
1
1
1
1
1
1
1
1
1
1
1
1
1
1
1
1
1
2.01945
2.86885
2.96135
3.0479
3.2278
3.40467
3.50484
3.5335
3.53757
3.54471
1
1
1
1
1
1
1
1
1
1
1
1
1
1
1
1
1
1
1
1
1.95639
2.84239
2.94507
3.03911
3.22365
3.40244
3.50161
3.52908
3.53234
3.53848
1
1
1
1
1
1
1
1
1
1
1
1
1
1
1
1
1
1
1
1
1.85365
2.79212
2.9198
3.02151
3.21065
3.39297
3.4934
3.5202
3.52414
3.52859
1
1
1
1
1
1
1
1
1
1
1
1
1
1
1
1
1
1
1
1
1.65844
2.70045
2.89333
3.00157
3.18812
3.3687
3.47455
3.50582
3.51105
3.51466
1
1
1
1
1
1
1
1
1
1
1
1
1
1
1
1
1
1
1
1
1.36777
2.55746
2.86844
2.98397
3.15714
3.33062
3.44525
3.48606
3.49107
3.49333
1
1
1
1
1
1
1
1
1
1
1
1
1
1
1
1
1
1
1
1
1.06073
2.38867
2.85251
2.96913
3.11622
3.27359
3.39976
3.45466
3.46363
3.46553
1
1
1
1
1
1
1
1
1
1
1
1
1
1
1
1
1
1
1
1
1.00043
2.2232
2.83838
2.9489
3.05932
3.19877
3.33947
3.41577
3.43004
3.42176
1
1
1
1
1
1
1
1
1
1
1
1
1
1
1
1
1
1
1
1
1
2.0016
2.80626
2.91402
2.98458
3.115
3.26346
3.35645
3.37451
3.36824
1
1
1
1
1
1
1
1
1
1
1
1
1
1
1
1
1
1
1
1
1
1.6201
2.69586
2.86066
2.91078
3.03444
3.18025
3.28451
3.32598
3.35453
1
1
1
1
1
1
1
1
1
1
1
1
1
1
1
1
1
1
1
1
1
1.11572
2.46269
2.80612
2.8572
2.96713
3.0905
3.17587
3.17756
3.09046
1
1
1
1
1
1
1
1
1
1
1
1
1
1
1
1
1
1
1
1
1
1.00147
2.09609
2.74218
2.83236
2.90077
2.97799
3.04074
3.03163
2.90472
1
1
1
1
1
1
1
1
1
1
1
1
1
1
1
1
1
1
1
1
1
1
1.50469
2.57893
2.8033
2.82058
2.85953
2.89963
2.88312
2.75714
1
1
1
1
1
1
1
1
1
1
1
1
1
1
1
1
1
1
1
1
1
1
1.03625
2.25745
2.72696
2.75092
2.7689
2.7736
2.7486
2.65359
1
1
1
1
1
1
1
1
1
1
1
1
1
1
1
1
1
1
1
1
1
1
1.0002
1.60402
2.53923
2.70948
2.68812
2.67667
2.64305
2.573
1
1
1
1
1
1
1
1
1
1
1
1
1
1
1
1
1
1
1
1
1
1
1
1.05457
2.137
2.62225
2.63117
2.61026
2.57071
2.50259
1
1
1
1
1
1
1
1
1
1
1
1
1
1
1
1
1
1
1
1
1
1
1
1.00038
1.37873
2.35473
2.59294
2.54811
2.50386
2.44925
1
1
1
1
1
1
1
1
1
1
1
1
1
1
1
1
1
1
1
1
1
1
1
1
1.01975
1.78455
2.4468
2.51675
2.45838
2.39153
1
1
1
1
1
1
1
1
1
1
1
1
1
1
1
1
1
1
1
1
1
1
1
1
1.00008
1.12635
2.00387
2.42884
2.42659
2.36714
1
1
1
1
1
1
1
1
1
1
1
1
1
1
1
1
1
1
1
1
1
1
1
1
1
1.00188
1.29762
2.08133
2.35613
2.33654
1
1
1
1
1
1
1
1
1
1
1
1
1
1
1
1
1
1
1
1
1
1
1
1
1
1
1.01028
1.43161
2.07163
2.25436
1
1
1
1
1
1
1
1
1
1
1
1
1
1
1
1
1
1
1
1
1
1
1
1
1
1
1.00003
1.02549
1.47377
1.98373
1
1
1
1
1
1
1
1
1
1
1
1
1
1
1
1
1
1
1
1
1
1
1
1
1
1
1
1.00013
1.03435
1.41374
1
1
1
1
1
1
1
1
1
1
1
1
1
1
1
1
1
1
1
1
1
1
1
1
1
1
1
1
1.00021
1.02655
1
1
1
1
1
1
1
1
1
1
1
1
1
1
1
1
1
1
1
1
1
1
1
1
1
1
1
1
1
1.00014
1
1
1
1
1
1
1
1
1
1
1
1
1
1
1
1
1
1
1
1
1
1
1
1
1
1
1
1
1
1
1
1
1
1
1
1
1
1
1
1
1
1
1
1
1
1
1
1
1
1
1
1
1
1
1
1
1
1
1
1
1
1
1
1
1
1
1
1
1
1
1
1
1
1
1
1
1
1
1
1
1
1
1
1
1
1
1
1
1
1
1
1
1
1
1
1
1
1
1
1
1
1
1
1
1
1
1
1
1
1
1
1
1
1
1
1
1
1
1
1
1
1
1
1
1
1
1
1
1
1
1
1
1
1
1
1
1
1
1
1
1
1
1
1
1
1
1
1
1
1
1
1
1
1
1
1
1
1
1
1
1
1
1
1
1
1
1
1
1
1
1
1
1
1
1
1
1
1
1
1
1
1
1
1
1
1
1
1
1
1
1
1
1
1
1
1
1
1
1
1
1
1
1
1
1
1
1
1
1
1
1
1
1
1
1
1
1
1
1
1
1
1
1
1
1
1
1
1
1
1
1
1
1
1
1
1
1
1
1
1
1
1
1
1
1
1
1
1
1
1
1
1
1
1
1
1
1
1
1
1
1
1
1
1
1
1
1
1
1
1
1
1
1
1
1
1
1
1
1
1
1
1
1
1
1
1
1
1
1
1
1
1
1
1
1
1
1
1
1
1
1
1
1
1
1
1
1
1
1
1
1
1
1
1
1
1
1
1
1
1
1
1
1
1
1
1
1
1
1
1
1
1
1
1
1
1
1
1
1
1
1
1
1
1
1
1
1
1
1
1
1
1
1
1
1
1
1
1
1
1
1
1
1
1
1
1
1
1
1
1
1
1
1
1
1
1
1
1
1
1
1
1
1
1
1
1
1
1
1
1
1
1
1
1
1
1
1
1
1
1
1
1
1
1
1
1
1
1
1
1
1
1
1
1
1
1
1
1
1
1
1
1
1
1
1
1
1
1
1
1
1
1
1
1
1
1
1
1
1
1
1
1
1
1
1
1
1
1
1
1
1
1
1
1
1
1
1
1
1
1
1
1
1
1
1
1
1
1
1
1
1
1
1
1
1
1
1
1
1
1
1
1
1
1
1
1
1
1
1
1
1
1
1
1
1
1
1
1
1
1
1
1
1
1
1
1
1
1
1
1
1
1
1
1
1
1
1
1
1
1
1
1
1
1
1
1
1
1
1
1
1
1
1
1
1
1
1
1
1
1
1
1
1
1
1
1
1
1
1
1
1
1
1
1
1
1
1
1
1
1
1
1
1
1
1
1
1
1
1
1
1
1
1
1
1
1
1
1
1
1
1
1
1
1
1
1
1
1
1
1
1
1
1
1
1
1
1
1
1
1
1
1
1
1
1
1
1
1
1
1
1
1
1
1
1
1
1
1
1
1
1
1
1
1
1
1
1
1
1
1
1
1
1
1
1
1
1
1
1
1
1
1
1
1
1
1
1
1
1
1
1
1
1
1
1
1
1
1
1
1
1
1
1
1
1
1
1
1
1
1
1
1
1
1
1
1
1
1
1
1
1
1
1
1
1
1
1
1
1
1
1
1
1
1
1
1
1
1
1
1
1
1
1
1
1
1
1
1
1
1
1
1
1
1
1
1
1
1
1
1
1
1
1
1
1
1
1
1
1
1
1
1
1
1
1
1
1
1
1
1
1
1
1
1
1
1
1
1
1
1
2.08729
1.44975
1.12172
1.19087
1.49332
1.64988
1.75824
1.9081
1.96787
1.98365
2.02127
2.04732
2.04848
2.0371
2.03835
2.03257
2.02053
2.01372
1.98711
1.94154
1.89319
1.84121
1.79604
1.77884
1.77422
1.75595
1.73141
1.72057
1.71854
1.72705
1.73197
1.72839
1.71625
1.68776
1.63075
1.54301
1.43934
1.33524
1.23166
1.12975
1.05207
1.01096
0.994347
0.988528
0.986611
0.985689
0.986604
0.992578
1.00317
1.01154
1.01367
1.01379
1.01384
1.01384
1.01349
1.012
1.00845
1.0032
1.00033
1
1
1
1
1
1
1
1
1
1
1
1
1
1
1
1
1
1
1
1
1
1
1
1
1
1
1
1
1
1
1
1
1
1
1
1
1
1
1
1
1
1
1
1
1
1
1
1
1
1
1
1
1
1
1
1
1
1
1
1
1
2.38705
2.08811
1.7651
1.581
1.63759
1.65338
1.65668
1.64339
1.64535
1.67482
1.73323
1.82719
1.90888
1.91635
1.91468
1.90922
1.90673
1.90871
1.90255
1.88213
1.84743
1.80777
1.77034
1.74773
1.73422
1.71192
1.68962
1.68299
1.68321
1.69351
1.6962
1.69144
1.67642
1.64447
1.58697
1.50317
1.40675
1.30905
1.21119
1.1174
1.04506
1.00559
0.990931
0.986455
0.984937
0.984451
0.985822
0.991697
1.00213
1.01136
1.01393
1.01401
1.01404
1.01401
1.01367
1.01228
1.00837
1.00285
1.00024
1
1
1
1
1
1
1
1
1
1
1
1
1
1
1
1
1
1
1
1
1
1
1
1
1
1
1
1
1
1
1
1
1
1
1
1
1
1
1
1
1
1
1
1
1
1
1
1
1
1
1
1
1
1
1
1
1
1
1
1
1
2.45415
2.26067
2.08018
1.88195
1.7843
1.72313
1.64217
1.57049
1.54425
1.54605
1.57037
1.64228
1.73023
1.7526
1.75029
1.75172
1.75566
1.76056
1.76471
1.7614
1.74827
1.73085
1.71299
1.69371
1.66824
1.63389
1.60416
1.59309
1.59372
1.60121
1.60681
1.60567
1.59588
1.56449
1.50368
1.42134
1.33213
1.24464
1.16256
1.09074
1.03556
1.00205
0.989762
0.986451
0.985521
0.985948
0.988761
0.994827
1.00355
1.01151
1.01423
1.01451
1.01463
1.0146
1.01407
1.01212
1.00761
1.00212
1.00012
1
1
1
1
1
1
1
1
1
1
1
1
1
1
1
1
1
1
1
1
1
1
1
1
1
1
1
1
1
1
1
1
1
1
1
1
1
1
1
1
1
1
1
1
1
1
1
1
1
1
1
1
1
1
1
1
1
1
1
1
1
2.46554
2.32284
2.19431
2.04264
1.93117
1.84866
1.75438
1.6533
1.62918
1.60949
1.56235
1.55274
1.5651
1.58311
1.59594
1.60578
1.61659
1.6337
1.65024
1.65516
1.65166
1.64703
1.63712
1.61249
1.58039
1.54553
1.51634
1.50275
1.50208
1.5025
1.5014
1.49664
1.48257
1.45026
1.39728
1.3288
1.25169
1.17614
1.11338
1.06404
1.02195
0.996664
0.987203
0.984211
0.983415
0.984643
0.990012
0.997865
1.0055
1.01208
1.01492
1.01527
1.01538
1.01536
1.01468
1.01206
1.00644
1.00123
1.00004
1
1
1
1
1
1
1
1
1
1
1
1
1
1
1
1
1
1
1
1
1
1
1
1
1
1
1
1
1
1
1
1
1
1
1
1
1
1
1
1
1
1
1
1
1
1
1
1
1
1
1
1
1
1
1
1
1
1
1
1
1
2.44959
2.33645
2.23712
2.12513
2.01848
1.93101
1.84134
1.74827
1.70882
1.67072
1.60387
1.5385
1.51446
1.51902
1.52132
1.52487
1.53916
1.55798
1.55943
1.55871
1.55547
1.54763
1.53466
1.51131
1.48896
1.4698
1.45342
1.44214
1.43591
1.42937
1.41728
1.39597
1.36552
1.32836
1.28692
1.24116
1.1892
1.13562
1.08626
1.03742
1.00366
0.989079
0.98424
0.983151
0.983216
0.985169
0.99113
0.999605
1.00766
1.01385
1.01624
1.01645
1.0165
1.01636
1.01512
1.01125
1.00458
1.00049
1.00001
1
1
1
1
1
1
1
1
1
1
1
1
1
1
1
1
1
1
1
1
1
1
1
1
1
1
1
1
1
1
1
1
1
1
1
1
1
1
1
1
1
1
1
1
1
1
1
1
1
1
1
1
1
1
1
1
1
1
1
1
1
2.41193
2.32806
2.24429
2.14148
2.05489
1.9905
1.91361
1.8054
1.75063
1.71685
1.66741
1.59422
1.55864
1.54622
1.52146
1.49551
1.49336
1.49232
1.48699
1.48077
1.47318
1.46252
1.44704
1.42837
1.41432
1.40187
1.39036
1.38198
1.3745
1.36308
1.34103
1.30977
1.27757
1.24751
1.21901
1.18702
1.14716
1.09891
1.04839
1.00877
0.988463
0.981017
0.979434
0.979328
0.981497
0.987229
0.993842
1.00095
1.0091
1.01607
1.01811
1.0183
1.01837
1.018
1.01569
1.00955
1.00238
1.00011
1
1
1
1
1
1
1
1
1
1
1
1
1
1
1
1
1
1
1
1
1
1
1
1
1
1
1
1
1
1
1
1
1
1
1
1
1
1
1
1
1
1
1
1
1
1
1
1
1
1
1
1
1
1
1
1
1
1
1
1
1
1
2.37087
2.29484
2.23345
2.15683
2.06235
1.9982
1.93706
1.85918
1.78661
1.74269
1.69235
1.62555
1.59298
1.57336
1.53591
1.49266
1.46218
1.44927
1.44128
1.43028
1.417
1.40359
1.38753
1.37151
1.35755
1.34418
1.33012
1.31695
1.30145
1.27776
1.24441
1.21125
1.18657
1.16567
1.14329
1.11584
1.08259
1.04813
1.01371
0.988343
0.975624
0.971916
0.971274
0.972867
0.980108
0.991
0.999095
1.00475
1.01188
1.01848
1.02012
1.02033
1.02041
1.01971
1.01519
1.00641
1.00072
1.00001
1
1
1
1
1
1
1
1
1
1
1
1
1
1
1
1
1
1
1
1
1
1
1
1
1
1
1
1
1
1
1
1
1
1
1
1
1
1
1
1
1
1
1
1
1
1
1
1
1
1
1
1
1
1
1
1
1
1
1
1
1
1
2.3267
2.26122
2.20553
2.14246
2.05994
1.99738
1.94199
1.86415
1.80261
1.76513
1.7271
1.66333
1.61925
1.59514
1.5533
1.50402
1.46917
1.45664
1.44371
1.41713
1.38963
1.36424
1.34109
1.32018
1.30101
1.28363
1.2665
1.24794
1.22439
1.1926
1.15577
1.12621
1.10657
1.08948
1.07044
1.04879
1.02848
1.00734
0.987659
0.973385
0.965448
0.963071
0.963764
0.968589
0.979019
0.991385
1.00133
1.00959
1.01823
1.02301
1.02364
1.02383
1.02366
1.02058
1.01181
1.00248
1.00008
1
1
1
1
1
1
1
1
1
1
1
1
1
1
1
1
1
1
1
1
1
1
1
1
1
1
1
1
1
1
1
1
1
1
1
1
1
1
1
1
1
1
1
1
1
1
1
1
1
1
1
1
1
1
1
1
1
1
1
1
1
1
1
2.28988
2.21543
2.16717
2.12425
2.05222
1.97341
1.93098
1.8788
1.81249
1.76952
1.73565
1.68918
1.64821
1.61145
1.56237
1.50318
1.46296
1.45039
1.44008
1.40871
1.37122
1.33729
1.30527
1.28008
1.25785
1.23592
1.21381
1.18982
1.16285
1.13312
1.10078
1.06873
1.04368
1.02611
1.01005
0.995735
0.983157
0.97234
0.964328
0.959458
0.958165
0.959169
0.964761
0.975047
0.98478
0.992662
1.00141
1.0137
1.02498
1.028
1.02845
1.02859
1.0267
1.01802
1.00543
1.00032
1
1
1
1
1
1
1
1
1
1
1
1
1
1
1
1
1
1
1
1
1
1
1
1
1
1
1
1
1
1
1
1
1
1
1
1
1
1
1
1
1
1
1
1
1
1
1
1
1
1
1
1
1
1
1
1
1
1
1
1
1
1
1
1
2.27634
2.19935
2.12104
2.08274
2.03384
1.96685
1.91042
1.86365
1.81806
1.78177
1.74375
1.68817
1.64685
1.61194
1.56854
1.51447
1.47359
1.4572
1.44287
1.40659
1.36435
1.3305
1.3008
1.27871
1.25406
1.22217
1.18702
1.15141
1.12007
1.09043
1.05727
1.02386
0.995976
0.975074
0.959862
0.951746
0.94968
0.949689
0.950009
0.950148
0.950844
0.954106
0.962624
0.976299
0.990231
1.0007
1.01244
1.02704
1.03425
1.03525
1.03556
1.03396
1.02454
1.00887
1.00073
1.00001
1
1
1
1
1
1
1
1
1
1
1
1
1
1
1
1
1
1
1
1
1
1
1
1
1
1
1
1
1
1
1
1
1
1
1
1
1
1
1
1
1
1
1
1
1
1
1
1
1
1
1
1
1
1
1
1
1
1
1
1
1
1
1
1
2.24772
2.20134
2.12166
2.05325
2.00162
1.94617
1.89715
1.84967
1.80345
1.77426
1.74235
1.69247
1.64281
1.60301
1.56247
1.51514
1.47929
1.46365
1.44461
1.40408
1.3562
1.31767
1.28848
1.26805
1.24363
1.20545
1.16321
1.12462
1.09456
1.06731
1.03705
1.00397
0.975014
0.953829
0.943617
0.942763
0.943789
0.946834
0.950022
0.95191
0.954078
0.958818
0.967515
0.978815
0.991792
1.0093
1.02989
1.04246
1.04474
1.04527
1.04325
1.03147
1.01178
1.00105
1.00001
1
1
1
1
1
1
1
1
1
1
1
1
1
1
1
1
1
1
1
1
1
1
1
1
1
1
1
1
1
1
1
1
1
1
1
1
1
1
1
1
1
1
1
1
1
1
1
1
1
1
1
1
1
1
1
1
1
1
1
1
1
1
1
1
1
2.16278
2.16307
2.12546
2.0577
1.99086
1.93
1.88224
1.83539
1.78409
1.75359
1.72661
1.68107
1.63007
1.58961
1.55606
1.51505
1.47899
1.4605
1.43869
1.39767
1.34846
1.31039
1.28296
1.26197
1.23477
1.19268
1.14867
1.11303
1.08784
1.06389
1.03623
1.00424
0.977166
0.960346
0.951958
0.95092
0.951664
0.954384
0.958592
0.963485
0.969419
0.977204
0.986856
0.998566
1.01467
1.03676
1.05371
1.05761
1.05815
1.05393
1.03751
1.01317
1.00107
1.00001
1
1
1
1
1
1
1
1
1
1
1
1
1
1
1
1
1
1
1
1
1
1
1
1
1
1
1
1
1
1
1
1
1
1
1
1
1
1
1
1
1
1
1
1
1
1
1
1
1
1
1
1
1
1
1
1
1
1
1
1
1
1
1
1
1
1
1.85598
2.05021
2.08124
2.05452
1.99905
1.93161
1.87337
1.82616
1.77431
1.72715
1.69661
1.65729
1.60618
1.56718
1.54291
1.51146
1.4748
1.45045
1.42223
1.38302
1.33595
1.29959
1.27373
1.25361
1.22372
1.17967
1.13737
1.10666
1.0844
1.06137
1.03454
1.00726
0.987044
0.973479
0.964982
0.962853
0.962934
0.963969
0.967202
0.973495
0.982753
0.994455
1.00889
1.02748
1.05025
1.06803
1.07303
1.07271
1.06383
1.04149
1.01258
1.0008
1
1
1
1
1
1
1
1
1
1
1
1
1
1
1
1
1
1
1
1
1
1
1
1
1
1
1
1
1
1
1
1
1
1
1
1
1
1
1
1
1
1
1
1
1
1
1
1
1
1
1
1
1
1
1
1
1
1
1
1
1
1
1
1
1
1
1
1
1.30883
1.72621
1.90871
1.96862
1.95827
1.93237
1.88859
1.83376
1.77717
1.71911
1.67025
1.63129
1.58783
1.54838
1.52183
1.49402
1.4612
1.43063
1.39647
1.3617
1.32173
1.28739
1.26223
1.24159
1.21076
1.16812
1.13261
1.1077
1.08832
1.06709
1.04338
1.02511
1.01336
1.00557
1.00215
1.00195
1.00217
1.00351
1.00716
1.01363
1.0229
1.03553
1.05262
1.07242
1.08571
1.08845
1.08494
1.07076
1.04216
1.01026
1.00045
1
1
1
1
1
1
1
1
1
1
1
1
1
1
1
1
1
1
1
1
1
1
1
1
1
1
1
1
1
1
1
1
1
1
1
1
1
1
1
1
1
1
1
1
1
1
1
1
1
1
1
1
1
1
1
1
1
1
1
1
1
1
1
1
1
1
1
1
1
1.01465
1.19375
1.533
1.75483
1.83373
1.86919
1.85874
1.82892
1.7851
1.73086
1.67373
1.62539
1.5829
1.5445
1.50931
1.47329
1.44304
1.41369
1.37619
1.34107
1.31024
1.27931
1.25378
1.23081
1.20091
1.16367
1.13528
1.1157
1.09908
1.07991
1.06251
1.05059
1.04294
1.03909
1.03831
1.03851
1.04004
1.04425
1.05122
1.06045
1.07207
1.08557
1.09739
1.10179
1.10005
1.09142
1.073
1.03793
1.00684
1.00019
1
1
1
1
1
1
1
1
1
1
1
1
1
1
1
1
1
1
1
1
1
1
1
1
1
1
1
1
1
1
1
1
1
1
1
1
1
1
1
1
1
1
1
1
1
1
1
1
1
1
1
1
1
1
1
1
1
1
1
1
1
1
1
1
1
1
1
1
1
1
1.00006
1.00526
1.08672
1.31293
1.5577
1.70916
1.75082
1.75581
1.74513
1.72317
1.68641
1.64189
1.59776
1.55621
1.51688
1.47524
1.43887
1.40846
1.37387
1.3329
1.30536
1.28209
1.25537
1.22919
1.20113
1.17206
1.15181
1.13656
1.12164
1.10744
1.09727
1.09015
1.08618
1.08565
1.08609
1.08798
1.09192
1.09772
1.10452
1.11073
1.11469
1.11527
1.11199
1.10481
1.09361
1.0683
1.02801
1.00336
1.00006
1
1
1
1
1
1
1
1
1
1
1
1
1
1
1
1
1
1
1
1
1
1
1
1
1
1
1
1
1
1
1
1
1
1
1
1
1
1
1
1
1
1
1
1
1
1
1
1
1
1
1
1
1
1
1
1
1
1
1
1
1
1
1
1
1
1
1
1
1
1
1
1
1.00001
1.00117
1.01961
1.13853
1.35787
1.52408
1.6055
1.64592
1.65449
1.6456
1.62274
1.5941
1.56555
1.53601
1.49887
1.45849
1.42412
1.39193
1.35181
1.32123
1.30159
1.27793
1.24867
1.22321
1.20451
1.18998
1.17634
1.16361
1.15427
1.14854
1.14458
1.14198
1.14073
1.14036
1.14037
1.1401
1.13851
1.13524
1.12988
1.12338
1.11635
1.10662
1.08744
1.05261
1.01512
1.00107
1.00001
1
1
1
1
1
1
1
1
1
1
1
1
1
1
1
1
1
1
1
1
1
1
1
1
1
1
1
1
1
1
1
1
1
1
1
1
1
1
1
1
1
1
1
1
1
1
1
1
1
1
1
1
1
1
1
1
1
1
1
1
1
1
1
1
1
1
1
1
1
1
1
1
1
1
1
1.0001
1.00351
1.03623
1.14379
1.30528
1.43621
1.51381
1.55374
1.55458
1.54261
1.53088
1.51586
1.49251
1.46434
1.43824
1.41537
1.3893
1.3608
1.33872
1.31712
1.29164
1.27069
1.25547
1.24173
1.22867
1.21711
1.20809
1.20063
1.19347
1.18609
1.17824
1.16997
1.16161
1.15336
1.14513
1.13692
1.12817
1.11642
1.09779
1.06756
1.02947
1.005
1.00019
1
1
1
1
1
1
1
1
1
1
1
1
1
1
1
1
1
1
1
1
1
1
1
1
1
1
1
1
1
1
1
1
1
1
1
1
1
1
1
1
1
1
1
1
1
1
1
1
1
1
1
1
1
1
1
1
1
1
1
1
1
1
1
1
1
1
1
1
1
1
1
1
1
1
1
1
1
1
1.00001
1.00029
1.00405
1.03086
1.11364
1.2376
1.34219
1.41008
1.44086
1.45833
1.45836
1.44905
1.4328
1.41592
1.4009
1.38426
1.36283
1.34138
1.32368
1.30733
1.29162
1.27675
1.26289
1.25003
1.23811
1.22678
1.21564
1.20451
1.19338
1.18239
1.17175
1.16127
1.15025
1.13784
1.12217
1.10062
1.07112
1.03611
1.00954
1.00086
1.00002
1
1
1
1
1
1
1
1
1
1
1
1
1
1
1
1
1
1
1
1
1
1
1
1
1
1
1
1
1
1
1
1
1
1
1
1
1
1
1
1
1
1
1
1
1
1
1
1
1
1
1
1
1
1
1
1
1
1
1
1
1
1
1
1
1
1
1
1
1
1
1
1
1
1
1
1
1
1
1
1
1
1.00001
1.00027
1.00321
1.01867
1.0622
1.13695
1.22095
1.28786
1.33399
1.35523
1.36185
1.36478
1.36155
1.35392
1.34327
1.32617
1.31026
1.29822
1.28621
1.27371
1.26121
1.24888
1.23654
1.22414
1.21158
1.19866
1.1851
1.17057
1.15457
1.13649
1.11547
1.09032
1.06105
1.03145
1.00992
1.00142
1.00006
1
1
1
1
1
1
1
1
1
1
1
1
1
1
1
1
1
1
1
1
1
1
1
1
1
1
1
1
1
1
1
1
1
1
1
1
1
1
1
1
1
1
1
1
1
1
1
1
1
1
1
1
1
1
1
1
1
1
1
1
1
1
1
1
1
1
1
1
1
1
1
1
1
1
1
1
1
1
1
1
1
1
1
1
1
1.00001
1.00011
1.001
1.00558
1.02135
1.05493
1.10495
1.1546
1.1981
1.23219
1.25653
1.26799
1.27082
1.26656
1.25875
1.254
1.24819
1.2398
1.22902
1.21617
1.20156
1.18558
1.16841
1.14982
1.12953
1.10749
1.08402
1.05988
1.03671
1.01762
1.00575
1.00104
1.00008
1
1
1
1
1
1
1
1
1
1
1
1
1
1
1
1
1
1
1
1
1
1
1
1
1
1
1
1
1
1
1
1
1
1
1
1
1
1
1
1
1
1
1
1
1
1
1
1
1
1
1
1
1
1
1
1
1
1
1
1
1
1
1
1
1
1
1
1
1
1
1
1
1
1
1
1
1
1
1
1
1
1
1
1
1
1
1
1
1
1
1.00002
1.00017
1.001
1.00397
1.01111
1.02474
1.04482
1.06938
1.09121
1.1076
1.11846
1.12538
1.12937
1.12898
1.12551
1.11791
1.10662
1.09287
1.07783
1.0623
1.04698
1.03275
1.02055
1.01113
1.00487
1.00155
1.00031
1.00003
1
1
1
1
1
1
1
1
1
1
1
1
1
1
1
1
1
1
1
1
1
1
1
1
1
1
1
1
1
1
1
1
1
1
1
1
1
1
1
1
1
1
1
1
1
1
1
1
1
1
1
1
1
1
1
1
1
1
1
1
1
1
1
1
1
1
1
1
1
1
1
1
1
1
1
1
1
1
1
1
1
1
1
1
1
1
1
1
1
1
1
1
1
1
1
1.00001
1.00006
1.00027
1.00085
1.00212
1.00408
1.00653
1.00935
1.01222
1.01426
1.01464
1.01431
1.01304
1.01089
1.00836
1.00588
1.00376
1.00214
1.00106
1.00043
1.00013
1.00003
1
1
1
1
1
1
1
1
1
1
1
1
1
1
1
1
1
1
1
1
1
1
1
1
1
1
1
1
1
1
1
1
1
1
1
1
1
1
1
1
1
1
1
1
1
1
1
1
1
1
1
1
1
1
1
1
1
1
1
1
1
1
1
1
1
1
1
1
1
1
1
1
1
1
1
1
1
1
1
1
1
1
1
1
1
1
1
1
1
1
1
1
1
1
1
1
1
1
1
1
1
1
1
1.00001
1.00003
1.00006
1.0001
1.00014
1.00015
1.00014
1.00013
1.0001
1.00006
1.00004
1.00002
1.00001
1
1
1
1
1
1
1
1
1
1
1
1
1
1
1
1
1
1
1
1
1
1
1
1
1
1
1
1
1
1
1
1
1
1
1
1
1
1
1
1
1
1
1
1
1
1
1
1
1
1
1
1
1
1
1
1
1
1
1
1
1
1
1
1
1
1
1
1
1
1
1
1
1
1
1
1
1
1
1
1
1
1
1
1
1
1
1
1
1
1
1
1
1
1
1
1
1
1
1
1
1
1
1
1
1
1
1
1
1
1
1
1
1
1
1
1
1
1
1
1
1
1
1
1
1
1
1
1
1
1
1
1
1
1
1
1
1
1
1
1
1
1
1
1
1
1
1
1
1
1
1
1
1
1
1
1
1
1
1
1
1
1
1
1
1
1
1
1
1
1
1
1
1
1
1
1
1
1
1
1
1
1
1
1
1
1
1
1
1
1
1
1
1
1
1
1
1
1
1
1
1
1
1
1
1
1
1
1
1
1
1
1
1
1
1
1
1
1
1
1
1
1
1
1
1
1
1
1
1
1
1
1
1
1
1
1
1
1
1
1
1
1
1
1
1
1
1
1
1
1
1
1
1
1
1
1
1
1
1
1
1
1
1
1
1
1
1
1
1
1
1
1
1
1
1
1
1
1
1
1
1
1
1
1
1
1
1
1
1
1
1
1
1
1
1
1
1
1
1
1
1
1
1
1
1
1
1
1
1
1
1
1
1
1
1
1
1
1
1
1
1
1
1
1
1
1
1
1
1
1
1
1
1
1
1
1
1
1
1
1
1
1
1
1
1
1
1
1
1
1
1
1
1
1
1
1
1
1
1
1
1
1
1
1
1
1
1
1
1
1
1
1
1
1
1
1
1
1
1
1
1
1
1
1
1
1
1
1
1
1
1
1
1
1
1
1
1
1
1
1
1
1
1
1
1
1
1
1
1
1
1
1
1
1
1
1
1
1
1
1
1
1
1
1
1
1
1
1
1
1
1
1
1
1
1
1
1
1
1
1
1
1
1
1
1
1
1
1
1
1
1
1
1
1
1
1
1
1
1
1
1
1
1
1
1
1
1
1
1
1
1
1
1
1
1
1
1
1
1
1
1
1
1
1
1
1
1
1
1
1
1
1
1
1
1
1
1
1
1
1
1
1
1
1
1
1
1
1
1
1
1
1
1
1
1
1
1
1
1
1
1
1
1
1
1
1
1
1
1
1
1
1
1
1
1
1
1
1
1
1
1
1
1
1
1
1
1
1
1
1
1
1
1
1
1
1
1
1
1
1
1
1
1
1
1
1
1
1
1
1
1
1
1
1
1
1
1
1
1
1
1
1
1
1
1
1
1
1
1
1
1
1
1
1
1
1
1
1
1
1
1
1
1
1
1
1
1
1
1
1
1
1
1
1
1
1
1
1
1
1
1
1
1
1
1
1
1
1
1
1
1
1
1
1
1
1
1
1
1
1
1
1
1
1
1
1
1
1
1
1
1
1
1
1
1
1
1
1
1
1
1
1
1
1
1
1
1
1
1
1
1
1
1
1
1
1
1
1
1
1
1
1
1
1
1
1
1
1
1
1
1
1
1
1
1
1
1
1
1
1
1
1
1
1
1
1
1
1
1
1
1
1
1
1
1
1
1
1
1
1
1
1
1
1
1
1
1
1
1
1
1
1
1
1
1
1
1
1
1
1
1
1
1
1
1
1
1
1
1
1
1
1
1
1
1
1
1
1
1
1
1
1
1
1
1
1
1
1
1
1
1
1
1
1
1
1
1
1
1
1
1
1
1
1
1
1
1
1
1
1
1
1
1
1
1
1
1
1
1
1
1
1
1
1
1
1
1
1
1
1
1
1
1
1
1
1
1
1
1
1
1
1
1
1
1
1
1
1
1
1
1
1
1
1
1
1
1
1
1
1
1
1
1
1
1
1
1
1
1
1
1
1
1
1
1
1
1
1
1
1
1
1
1
1
1
1
1
1
1
1
1
1
1
1
1
1
1
1
1
1
1
1
1
1
1
1
1
1
1
1
1
1
1
1
1
1
1
1
1
1
1
1
1
1
1
1
1
1
1
1
1
1
1
1
1
1
1
1
1
1
1
1
1
1
1
1
1
1
1
1
1
1
1
1
1
1
1
1
1
1
1
1
1
1
1
1
1
1
1
1
1
1
1
1
1
1
1
1
1
1
1
1
1
1
1
1
1
1
1
1
1
1
1
1
1
1
1
1
1
1
1
1
1
1
1
1
1
1
1
1
1
1
1
1
1
1
1
1
1
1
1
1
1
1
1
1
1
1
1
1
1
1
1
1
1
1
1
1
1
1
1
1
1
1
1
1
1
1
1
1
1
1
1
1
1
1
1
1
1
1
1
1
1
1
1
1
1
1
1
1
1
1
1
1
1
1
1
1
1
1
1
1
1
1
1
1
1
1
1
1
1
1
1
1
1
1
1
1
1
1
1
1
1
1
1
1
1
1
1
1
1
1
1
1
1
1
1
1
1
1
1
1
1
1
1
1
1
1
1
1
1
1
1
1
1
1
1
1
1
1
1
1
1
1
1
1
1
1
1
1
1
1
1
1
1
1
1
1
1
1
1
1
1
1
1
1
1
1
1
1
1
1
1
1
1
1
1
1
1
1
1
1
1
1
1
1
1
1
1
1
1
1
1
1
1
1
1
1
1
1
1
1
1
1
1
1
1
1
1
1
1
1
1
1
1
1
1
1
1
1
1
1
1
1
1
1
1
1
1
1
1
1
1
1
1
1
1
1
1
1
1
1
1
1
1
1
1
1
1
1
1
1
1
1
1
1
1
1
1
1
1
1
1
1
1
1
1
1
1
1
1
1
1
1
1
1
1
1
1
1
1
1
1
1
1
1
1
1
1
1
1
1
1
1
1
1
1
1
1
1
1
1
1
1
1
1
1
1
1
1
1
1
1
1
1
1
1
1
1
1
1
1
1
1
1
1
1
1
1
1
1
1
1
1
1
1
1
1
1
1
1
1
1
1
1
1
1
1
1
1
1
1
1
1
1
1
1
1
1
1
1
1
1
1
1
1
1
1
1
1
1
1
1
1
1
1
1
1
1
1
1
1
1
1
1
1
1
1
1
1
1
1
1
1
1
1
1
1
1
1
1
1
1
1
1
1
1
1
1
1
1
1
1
1
1
1
1
1
1
1
1
1
1
1
1
1
1
1
1
1
1
1
1
1
1
1
1
1
1
1
1
1
1
1
1
1
1
1
1
1
1
1
1
1
1
1
1
1
1
1
1
1
1
1
1
1
1
1
1
1
1
1
1
1
1
1
1
1
1
1
1
1
1
1
1
1
1
1
1
1
1
1
1
1
1
1
1
1
1
1
1
1
1
1
1
1
1
1
1
1
1
1
1
1
1
1
1
1
1
1
1
1
1
1
1
1
1
1
1
1
1
1
1
1
1
1
1
1
1
1
1
1
1
1
1
1
1
1
1
1
1
1
1
1
1
1
1
1
1
1
1
1
1
1
1
1
1
1
1
1
1
1
1
1
1
1
1
1
1
1
1
1
1
1
1
1
1
1
1
1
1
1
1
1
1
1
1
1
1
1
1
1
1
1
1
1
1
1
1
1
1
1
1
1
1
1
1
1
1
1
1
1
1
1
1
1
1
1
1
1
1
1
1
1
1
1
1
1
1
1
1
1
1
1
1
1
1
1
1
1
1
1
1
1
1
1
1
1
1
1
1
1
1
1
1
1
1
1
1
1
1
1
1
1
1
1
1
1
1
1
1
1
1
1
1
1
1
1
1
1
1
1
1
1
1
1
1
1
1
1
1
1
1
1
1
1
1
1
1
1
1
1
1
1
1
1
1
1
1
1
1
1
1
1
1
1
1
1
1
1
1
1
1
1
1
1
1
1
1
1
1
1
1
1
1
1
1
1
1
1
1
1
1
1
1
1
1
1
1
1
1
1
1
1
1
1
1
1
1
1
1
1
1
1
1
1
1
1
1
1
1
1
1
1
1
1
1
1
1
1
1
1
1
1
1
1
1
1
1
1
1
1
1
1
1
1
1
1
1
1
1
1
1
1
1
1
1
1
1
1
1
1
1
1
1
1
1
1
1
1
1
1
1
1
1
1
1
1
1
1
1
1
1
1
1
1
1
1
1
1
1
1
1
1
1
1
1
1
1
1
1
1
1
1
1
1
1
1
1
1
1
1
1
1
1
1
1
1
1
1
1
1
1
1
1
1
1
1
1
1
1
1
1
1
1
1
1
1
1
1
1
1
1
1
1
1
1
1
1
1
1
1
1
1
1
1
1
1
1
1
1
1
1
1
1
1
1
1
1
1
1
1
1
1
1
1
1
1
1
1
1
1
1
1
1
1
1
1
1
1
1
1
1
1
1
1
1
1
1
1
1
1
1
1
1
1
1
1
1
1
1
1
1
1
1
1
1
1
1
1
1
1
1
1
1
1
1
1
1
1
1
1
1
1
1
1
1
1
1
1
1
1
1
1
1
1
1
1
1
1
1
1
1
1
1
1
1
1
1
1
1
1
1
1
1
1
1
1
)
;

boundaryField
{
    inlet
    {
        type            fixedValue;
        value           uniform 1;
    }
    outlet
    {
        type            inletOutlet;
        inletValue      uniform 1;
        value           uniform 1;
    }
    bottom
    {
        type            symmetryPlane;
    }
    top
    {
        type            symmetryPlane;
    }
    obstacle
    {
        type            zeroGradient;
    }
    defaultFaces
    {
        type            empty;
    }
}


// ************************************************************************* //
