3.23944e-17 	0.529041 	-3.33067e-16 	-0.454014
3.36076e-17 	0.548854 	-3.33067e-16 	-0.447081
3.48451e-17 	0.569063 	-1.11022e-16 	-0.436379
3.61073e-17 	0.589677 	0 	-0.425053
3.73948e-17 	0.610703 	3.33067e-16 	-0.411451
3.8708e-17 	0.632149 	9.99201e-16 	-0.396115
4.00475e-17 	0.654025 	1.33227e-15 	-0.379195
4.14137e-17 	0.676338 	1.33227e-15 	-0.361244
4.28073e-17 	0.699097 	1.55431e-15 	-0.342798
4.42288e-17 	0.722312 	1.77636e-15 	-0.324374
4.56787e-17 	0.74599 	1.77636e-15 	-0.306376
4.71577e-17 	0.770143 	1.9984e-15 	-0.289088
4.86661e-17 	0.794778 	2.10942e-15 	-0.27268
5.02048e-17 	0.819907 	1.9984e-15 	-0.257231
5.17742e-17 	0.845538 	1.66533e-15 	-0.242757
5.33751e-17 	0.871681 	1.66533e-15 	-0.229236
5.50079e-17 	0.898348 	1.77636e-15 	-0.216619
5.66734e-17 	0.925548 	1.33227e-15 	-0.204851
5.83723e-17 	0.953291 	9.99201e-16 	-0.193872
6.01051e-17 	0.98159 	8.88178e-16 	-0.183623
6.18725e-17 	1.01046 	1.11022e-15 	-0.174048
6.36753e-17 	1.0399 	1.55431e-15 	-0.165094
6.55142e-17 	1.06993 	1.9984e-15 	-0.156714
6.73899e-17 	1.10056 	2.22045e-15 	-0.148865
6.9303e-17 	1.1318 	1.9984e-15 	-0.141504
7.12545e-17 	1.16367 	1.9984e-15 	-0.134596
7.32449e-17 	1.19618 	2.44249e-15 	-0.128107
7.52752e-17 	1.22934 	2.66454e-15 	-0.122004
7.73461e-17 	1.26316 	2.66454e-15 	-0.116259
7.94584e-17 	1.29765 	2.88658e-15 	-0.110847
8.1613e-17 	1.33284 	3.10862e-15 	-0.105742
8.38106e-17 	1.36873 	3.10862e-15 	-0.100925
8.60522e-17 	1.40534 	3.10862e-15 	-0.0963663
8.83387e-17 	1.44268 	3.10862e-15 	-0.0920751
9.06709e-17 	1.48077 	3.33067e-15 	-0.0879825
9.18485e-17 	1.5 	3.55271e-15 	-0.0851021
9.24371e-17 	1.50961 	3.33067e-15 	-0.0826706
9.36221e-17 	1.52896 	2.88658e-15 	-0.0808662
9.48225e-17 	1.54857 	2.77556e-15 	-0.0791029
9.60385e-17 	1.56843 	3.10862e-15 	-0.0773764
9.72704e-17 	1.58855 	3.21965e-15 	-0.07569
9.85184e-17 	1.60893 	2.77556e-15 	-0.0740423
9.97826e-17 	1.62957 	2.33147e-15 	-0.0724317
1.01063e-16 	1.65049 	1.9984e-15 	-0.0708569
1.02361e-16 	1.67168 	1.77636e-15 	-0.0693168
1.03675e-16 	1.69314 	1.77636e-15 	-0.06781
1.05007e-16 	1.71489 	1.77636e-15 	-0.0663356
1.06355e-16 	1.73692 	1.9984e-15 	-0.0648924
1.07722e-16 	1.75923 	2.22045e-15 	-0.0634796
1.09106e-16 	1.78184 	2.22045e-15 	-0.0620962
1.10508e-16 	1.80474 	1.9984e-15 	-0.0607413
1.11929e-16 	1.82794 	1.55431e-15 	-0.059414
1.13368e-16 	1.85144 	1.33227e-15 	-0.0581135
1.14826e-16 	1.87525 	1.33227e-15 	-0.0568391
1.16303e-16 	1.89937 	1.55431e-15 	-0.05559
1.17799e-16 	1.92381 	1.55431e-15 	-0.0543654
1.19315e-16 	1.94856 	1.55431e-15 	-0.0531646
1.2085e-16 	1.97363 	1.77636e-15 	-0.0519869
1.22406e-16 	1.99904 	1.9984e-15 	-0.0508317
1.23981e-16 	2.02477 	2.22045e-15 	-0.0496983
1.25578e-16 	2.05084 	1.9984e-15 	-0.0485862
1.27195e-16 	2.07725 	1.55431e-15 	-0.0474946
1.28833e-16 	2.104 	1.33227e-15 	-0.0464231
1.30493e-16 	2.13111 	1.33227e-15 	-0.0453711
1.32174e-16 	2.15856 	1.33227e-15 	-0.044338
1.33877e-16 	2.18638 	1.33227e-15 	-0.0433232
1.35602e-16 	2.21455 	1.33227e-15 	-0.0423264
1.37122e-16 	2.23937 	1.16573e-15 	-0.0413471
1.38001e-16 	2.25373 	1.16573e-15 	-0.0425989
1.39121e-16 	2.27201 	1.33227e-15 	-0.0416075
1.40914e-16 	2.30131 	1.55431e-15 	-0.0406331
1.42731e-16 	2.33098 	1.9984e-15 	-0.0396754
1.44572e-16 	2.36104 	2.22045e-15 	-0.038734
1.46437e-16 	2.3915 	1.9984e-15 	-0.0378084
1.48326e-16 	2.42235 	1.88738e-15 	-0.0368983
1.5024e-16 	2.4536 	1.9984e-15 	-0.0360034
1.52179e-16 	2.48527 	2.10942e-15 	-0.0351234
1.54143e-16 	2.51734 	2.22045e-15 	-0.034258
1.56132e-16 	2.54983 	2.22045e-15 	-0.0334067
1.58148e-16 	2.58275 	2.55351e-15 	-0.0325695
1.6019e-16 	2.61609 	2.77556e-15 	-0.0317459
1.62258e-16 	2.64988 	2.77556e-15 	-0.0309357
1.64353e-16 	2.6841 	3.21965e-15 	-0.0301387
1.66476e-16 	2.71876 	3.55271e-15 	-0.0293546
1.68627e-16 	2.75388 	3.66374e-15 	-0.0285833
1.70805e-16 	2.78946 	3.88578e-15 	-0.0278246
1.73012e-16 	2.8255 	4.44089e-15 	-0.0270783
1.75248e-16 	2.86201 	4.66294e-15 	-0.0263443
1.77513e-16 	2.899 	4.66294e-15 	-0.0256223
1.79807e-16 	2.93647 	5.10703e-15 	-0.0249122
1.82131e-16 	2.97443 	5.44009e-15 	-0.0242138
1.84486e-16 	3.01288 	5.10703e-15 	-0.0235272
1.86871e-16 	3.05183 	4.66294e-15 	-0.022852
1.89287e-16 	3.0913 	5.10703e-15 	-0.0221882
1.91735e-16 	3.13127 	5.55112e-15 	-0.0215358
1.94215e-16 	3.17177 	5.44009e-15 	-0.0208947
1.96727e-16 	3.2128 	5.32907e-15 	-0.0202648
1.99272e-16 	3.25436 	5.66214e-15 	-0.0196461
2.0185e-16 	3.29646 	6.32827e-15 	-0.0190384
2.04462e-16 	3.33912 	6.32827e-15 	-0.0184418
2.07108e-16 	3.38233 	5.88418e-15 	-0.0178562
2.09788e-16 	3.4261 	6.10623e-15 	-0.0172815
2.12503e-16 	3.47044 	6.66134e-15 	-0.0167177
