-0.360353 	0.360353 	3.33067e-16 	-0.0659316
-0.374088 	0.374088 	6.66134e-16 	-0.0653198
-0.388098 	0.388098 	1.11022e-15 	-0.0537669
-0.402388 	0.402388 	1.55431e-15 	-0.0359911
-0.416965 	0.416965 	1.55431e-15 	-0.0139629
-0.431832 	0.431832 	1.66533e-15 	0.00881875
-0.446997 	0.446997 	1.66533e-15 	0.030574
-0.462465 	0.462465 	1.55431e-15 	0.0501938
-0.478243 	0.478243 	1.44329e-15 	0.0673551
-0.494336 	0.494336 	1.33227e-15 	0.0820736
-0.510751 	0.510751 	1.22125e-15 	0.0945555
-0.527495 	0.527495 	1.11022e-15 	0.105056
-0.544573 	0.544573 	8.88178e-16 	0.113833
-0.561993 	0.561993 	5.55112e-16 	0.121117
-0.579762 	0.579762 	5.55112e-16 	0.127113
-0.597885 	0.597885 	3.33067e-16 	0.131995
-0.616372 	0.616372 	0 	0.135914
-0.635228 	0.635228 	-1.11022e-16 	0.139001
-0.654461 	0.654461 	1.11022e-16 	0.141367
-0.674079 	0.674079 	4.44089e-16 	0.143109
-0.694089 	0.694089 	2.22045e-16 	0.144309
-0.7145 	0.7145 	1.11022e-16 	0.145042
-0.735318 	0.735318 	4.44089e-16 	0.14537
-0.756554 	0.756554 	9.99201e-16 	0.145348
-0.778214 	0.778214 	1.55431e-15 	0.145023
-0.800307 	0.800307 	1.77636e-15 	0.144438
-0.822842 	0.822842 	2.22045e-15 	0.143628
-0.845827 	0.845827 	2.33147e-15 	0.142626
-0.869273 	0.869273 	1.77636e-15 	0.14146
-0.893187 	0.893187 	1.9984e-15 	0.140152
-0.91758 	0.91758 	2.88658e-15 	0.138725
-0.942461 	0.942461 	3.33067e-15 	0.137193
-0.967839 	0.967839 	3.44169e-15 	0.135548
-0.993725 	0.993725 	3.33067e-15 	0.133882
-1.02013 	1.02013 	2.66454e-15 	0.132196
-1.04706 	1.04706 	2.55351e-15 	0.12945
-1.06066 	1.06066 	2.77556e-15 	0.126645
-1.07121 	1.07121 	2.66454e-15 	0.128778
-1.08375 	1.08375 	2.66454e-15 	0.125575
-1.09444 	1.09444 	2.72005e-15 	0.128578
-1.10731 	1.10731 	2.83107e-15 	0.125469
-1.11814 	1.11814 	3.03403e-15 	0.127926
-1.13135 	1.13135 	3.14505e-15 	0.12467
-1.14232 	1.14232 	3.10862e-15 	0.127029
-1.15589 	1.15589 	3.33067e-15 	0.123812
-1.167 	1.167 	3.55271e-15 	0.126006
-1.18022 	1.18022 	3.55271e-15 	0.122887
-1.19218 	1.19218 	3.55271e-15 	0.119837
-1.20359 	1.20359 	3.60822e-15 	0.121935
-1.21788 	1.21788 	3.71925e-15 	0.118961
-1.22943 	1.22943 	3.55271e-15 	0.120951
-1.2441 	1.2441 	3.21965e-15 	0.118055
-1.25581 	1.25581 	3.10862e-15 	0.119946
-1.27087 	1.27087 	3.21965e-15 	0.117127
-1.28272 	1.28272 	3.33067e-15 	0.118926
-1.29653 	1.29653 	3.44169e-15 	0.116182
-1.31019 	1.31019 	3.55271e-15 	0.113482
-1.32236 	1.32236 	3.38618e-15 	0.115224
-1.33823 	1.33823 	3.21965e-15 	0.112595
-1.35055 	1.35055 	3.16414e-15 	0.114257
-1.36684 	1.36684 	3.10862e-15 	0.111698
-1.37933 	1.37933 	3.10862e-15 	0.113284
-1.39515 	1.39515 	3.33067e-15 	0.110792
-1.4087 	1.4087 	3.66374e-15 	0.108337
-1.42152 	1.42152 	3.77476e-15 	0.109881
-1.43868 	1.43868 	3.88578e-15 	0.10749
-1.45166 	1.45166 	3.9968e-15 	0.108966
-1.46928 	1.46928 	3.88578e-15 	0.106638
-1.48243 	1.48243 	3.77476e-15 	0.108049
-1.49902 	1.49902 	3.77476e-15 	0.105782
-1.51384 	1.51384 	3.88578e-15 	0.103546
-1.52734 	1.52734 	3.88578e-15 	0.104926
-1.5459 	1.5459 	3.77476e-15 	0.102747
-1.55957 	1.55957 	4.10783e-15 	0.104069
-1.57863 	1.57863 	4.44089e-15 	0.101947
-1.59248 	1.59248 	4.55191e-15 	0.103214
-1.60842 	1.60842 	4.88498e-15 	0.101147
-1.62607 	1.62607 	5.27356e-15 	0.0991052
-1.64029 	1.64029 	5.41234e-15 	0.100349
-1.66037 	1.66037 	5.35683e-15 	0.0983591
-1.67477 	1.67477 	5.21805e-15 	0.0995532
-1.69427 	1.69427 	5.21805e-15 	0.0976143
-1.70997 	1.70997 	5.21805e-15 	0.0956974
-1.72475 	1.72475 	5.10703e-15 	0.0968717
-1.7459 	1.7459 	4.996e-15 	0.095003
-1.76087 	1.76087 	4.88498e-15 	0.0961321
-1.78259 	1.78259 	4.88498e-15 	0.0943104
-1.79776 	1.79776 	4.88498e-15 	0.0953964
-1.81405 	1.81405 	4.88498e-15 	0.0936205
-1.83542 	1.83542 	4.77396e-15 	0.0918626
-1.85098 	1.85098 	4.55191e-15 	0.0929338
-1.87387 	1.87387 	4.66294e-15 	0.0912191
-1.88963 	1.88963 	4.88498e-15 	0.0922511
-1.90805 	1.90805 	5.10703e-15 	0.0905784
-1.9291 	1.9291 	5.27356e-15 	0.0889216
-1.94528 	1.94528 	5.05151e-15 	0.0899408
-1.96939 	1.96939 	4.77396e-15 	0.0883235
-1.98579 	1.98579 	4.55191e-15 	0.0893068
-2.00577 	2.00577 	4.77396e-15 	0.0877279
-2.02715 	2.02715 	4.996e-15 	0.086163
-2.04397 	2.04397 	4.88498e-15 	0.087135
-2.06938 	2.06938 	4.88498e-15 	0.0856062
-2.08642 	2.08642 	4.88498e-15 	0.0865448
-2.10737 	2.10737 	4.77396e-15 	0.085051
-2.12977 	2.12977 	4.4964e-15 	0.0835695
-2.14725 	2.14725 	4.82947e-15 	0.0844976
-2.17403 	2.17403 	5.10703e-15 	0.0830488
-2.19175 	2.19175 	4.77396e-15 	0.0839459
-2.21299 	2.21299 	4.996e-15 	0.0825287
-2.23718 	2.23718 	5.32907e-15 	0.0811224
-2.25536 	2.25536 	5.32907e-15 	0.082009
-2.28357 	2.28357 	5.32907e-15 	0.0806322
-2.30199 	2.30199 	5.44009e-15 	0.0814894
-2.3228 	2.3228 	5.4956e-15 	0.0801411
-2.34961 	2.34961 	5.27356e-15 	0.0788023
-2.36851 	2.36851 	4.996e-15 	0.0796484
-2.39824 	2.39824 	4.88498e-15 	0.0783361
-2.41739 	2.41739 	4.996e-15 	0.0791537
-2.43696 	2.43696 	5.16254e-15 	0.0778668
