0.509616 	0 	1.11022e-16 	-0.27966
0.529041 	0 	1.11022e-16 	-0.281352
0.548854 	0 	0 	-0.281922
0.569063 	0 	2.22045e-16 	-0.282697
0.589677 	0 	5.55112e-16 	-0.283219
0.610703 	0 	6.66134e-16 	-0.283707
0.632149 	0 	7.77156e-16 	-0.284121
0.654025 	0 	8.88178e-16 	-0.284501
0.676338 	0 	8.88178e-16 	-0.284854
0.699097 	0 	9.99201e-16 	-0.285189
0.722312 	0 	1.11022e-15 	-0.28551
0.74599 	0 	1.22125e-15 	-0.285818
0.770143 	0 	1.33227e-15 	-0.286114
0.794778 	0 	1.33227e-15 	-0.286395
0.819907 	0 	1.33227e-15 	-0.286659
0.845538 	0 	1.33227e-15 	-0.286902
0.871681 	0 	1.33227e-15 	-0.287122
0.898348 	0 	1.33227e-15 	-0.287316
0.925548 	0 	1.33227e-15 	-0.287479
0.953291 	0 	1.44329e-15 	-0.287608
0.98159 	0 	1.55431e-15 	-0.287701
1.01046 	0 	1.66533e-15 	-0.287755
1.0399 	0 	1.88738e-15 	-0.287768
1.06993 	0 	1.88738e-15 	-0.287738
1.10056 	0 	1.77636e-15 	-0.287666
1.1318 	0 	1.77636e-15 	-0.287551
1.16367 	0 	1.77636e-15 	-0.287395
1.19618 	0 	1.77636e-15 	-0.287202
1.22934 	0 	1.55431e-15 	-0.286978
1.26316 	0 	1.33227e-15 	-0.286728
1.29765 	0 	1.44329e-15 	-0.286464
1.33284 	0 	1.55431e-15 	-0.286198
1.36873 	0 	1.55431e-15 	-0.285943
1.40534 	0 	1.55431e-15 	-0.285716
1.44268 	0 	1.55431e-15 	-0.28554
1.48077 	0 	1.55431e-15 	-0.285398
1.52101 	0 	1.55431e-15 	-0.285449
1.56329 	0 	1.55431e-15 	-0.28542
1.60613 	0 	1.66533e-15 	-0.285546
1.64953 	0 	1.77636e-15 	-0.28573
1.69349 	0 	1.77636e-15 	-0.286038
1.73803 	0 	1.77636e-15 	-0.28646
1.78314 	0 	1.77636e-15 	-0.28702
1.82885 	0 	1.77636e-15 	-0.287723
1.87515 	0 	1.77636e-15 	-0.288578
1.92205 	0 	1.77636e-15 	-0.289589
1.96957 	0 	1.77636e-15 	-0.290754
2.01771 	0 	1.77636e-15 	-0.292065
2.06647 	0 	1.77636e-15 	-0.293507
2.11587 	0 	1.77636e-15 	-0.295055
2.16591 	0 	1.77636e-15 	-0.296674
2.21661 	0 	1.77636e-15 	-0.298316
2.26797 	0 	1.77636e-15 	-0.299921
2.32 	0 	1.77636e-15 	-0.301416
2.3727 	0 	1.88738e-15 	-0.302713
2.42609 	0 	1.9984e-15 	-0.303712
2.48018 	0 	1.9984e-15 	-0.304308
2.53498 	0 	1.9984e-15 	-0.304382
2.59049 	0 	1.9984e-15 	-0.303811
2.64672 	0 	1.9984e-15 	-0.302487
2.70369 	0 	1.9984e-15 	-0.300293
2.7614 	0 	1.9984e-15 	-0.297137
2.81986 	0 	1.9984e-15 	-0.292958
2.87908 	0 	1.9984e-15 	-0.287717
2.93908 	0 	1.9984e-15 	-0.28144
2.99986 	0 	1.9984e-15 	-0.274173
3.06143 	0 	1.9984e-15 	-0.266037
3.1238 	0 	1.9984e-15 	-0.257182
3.18699 	0 	1.9984e-15 	-0.247845
3.251 	0 	1.9984e-15 	-0.238275
3.31585 	0 	1.9984e-15 	-0.228766
3.38154 	0 	1.9984e-15 	-0.21964
3.44809 	0 	1.9984e-15 	-0.211266
3.51551 	0 	1.9984e-15 	-0.203996
3.5838 	0 	1.9984e-15 	-0.198167
3.65299 	0 	1.9984e-15 	-0.194091
3.72308 	0 	1.88738e-15 	-0.191997
3.79408 	0 	1.77636e-15 	-0.192052
3.86601 	0 	1.77636e-15 	-0.194261
3.93887 	0 	1.77636e-15 	-0.198458
4.01269 	0 	1.77636e-15 	-0.204276
4.08747 	0 	1.77636e-15 	-0.211238
4.16322 	0 	1.77636e-15 	-0.218673
4.23997 	0 	1.77636e-15 	-0.22578
4.31771 	0 	1.88738e-15 	-0.231773
4.39646 	0 	1.9984e-15 	-0.235903
4.47625 	0 	1.9984e-15 	-0.237506
4.55707 	0 	1.9984e-15 	-0.236078
4.63895 	0 	2.10942e-15 	-0.231331
4.7219 	0 	2.22045e-15 	-0.223242
4.80592 	0 	2.22045e-15 	-0.212096
4.89105 	0 	2.10942e-15 	-0.198496
4.97728 	0 	1.9984e-15 	-0.183304
5.06464 	0 	1.9984e-15 	-0.167509
5.15313 	0 	1.9984e-15 	-0.15207
5.24278 	0 	1.9984e-15 	-0.137791
5.3336 	0 	1.9984e-15 	-0.125249
5.42561 	0 	1.9984e-15 	-0.114799
5.51881 	0 	1.9984e-15 	-0.106613
5.61323 	0 	1.9984e-15 	-0.100743
5.70888 	0 	2.10942e-15 	-0.0971843
5.80578 	0 	2.22045e-15 	-0.0959424
5.90394 	0 	2.22045e-15 	-0.0971254
6.00338 	0 	2.33147e-15 	-0.100995
6.10412 	0 	2.44249e-15 	-0.107869
6.20617 	0 	2.44249e-15 	-0.117829
6.30956 	0 	2.44249e-15 	-0.130357
6.41429 	0 	2.44249e-15 	-0.144226
6.52038 	0 	2.44249e-15 	-0.157659
6.62786 	0 	2.44249e-15 	-0.16871
6.73675 	0 	2.44249e-15 	-0.175626
6.84705 	0 	2.44249e-15 	-0.177175
6.95879 	0 	2.44249e-15 	-0.172904
7.07198 	0 	2.44249e-15 	-0.163332
7.18666 	0 	2.44249e-15 	-0.14981
7.30283 	0 	2.44249e-15 	-0.134168
7.42051 	0 	2.44249e-15 	-0.118189
7.53973 	0 	2.44249e-15 	-0.103301
7.6605 	0 	2.44249e-15 	-0.0904043
7.78285 	0 	2.44249e-15 	-0.0799298
7.90679 	0 	2.44249e-15 	-0.0719543
8.03235 	0 	2.55351e-15 	-0.0664586
8.15955 	0 	2.77556e-15 	-0.0633467
8.2884 	0 	2.77556e-15 	-0.0624995
8.41894 	0 	2.66454e-15 	-0.0638777
8.55118 	0 	2.66454e-15 	-0.0678442
8.68514 	0 	2.55351e-15 	-0.0749007
8.82085 	0 	2.66454e-15 	-0.0851041
8.95833 	0 	2.88658e-15 	-0.0972014
9.0976 	0 	2.88658e-15 	-0.109203
9.23869 	0 	2.88658e-15 	-0.118101
9.38161 	0 	2.88658e-15 	-0.122289
9.52641 	0 	2.88658e-15 	-0.119668
9.67309 	0 	2.88658e-15 	-0.11195
9.82168 	0 	2.88658e-15 	-0.0985918
9.97221 	0 	2.88658e-15 	-0.0845244
10.1247 	0 	2.88658e-15 	-0.0676611
10.2792 	0 	2.88658e-15 	-0.0547076
10.4357 	0 	2.88658e-15 	-0.0387501
10.5942 	0 	2.88658e-15 	-0.0303889
10.7548 	0 	2.88658e-15 	-0.0164766
10.9175 	0 	2.9976e-15 	-0.0144083
11.0823 	0 	2.9976e-15 	-0.00131876
11.2493 	0 	2.88658e-15 	-0.00660332
