/*--------------------------------*- C++ -*----------------------------------*\
  =========                 |
  \\      /  F ield         | OpenFOAM: The Open Source CFD Toolbox
   \\    /   O peration     | Website:  https://openfoam.org
    \\  /    A nd           | Version:  9
     \\/     M anipulation  |
\*---------------------------------------------------------------------------*/
FoamFile
{
    format      ascii;
    class       volScalarField;
    location    "0.4";
    object      p;
}
// * * * * * * * * * * * * * * * * * * * * * * * * * * * * * * * * * * * * * //

dimensions      [0 2 -2 0 0 0 0];

internalField   nonuniform List<scalar> 
6400
(
-5.10279e-08
-3.23288e-06
-0.000139514
-0.000406582
-0.000773002
-0.00120986
-0.00169144
-0.00219532
-0.00270254
-0.00319744
-0.00366711
-0.00410104
-0.00449074
-0.00482939
-0.00511163
-0.00533329
-0.00549124
-0.00558322
-0.00560773
-0.00556387
-0.00545132
-0.00527021
-0.0050211
-0.00470492
-0.0043229
-0.00387659
-0.00336785
-0.00279876
-0.0021717
-0.0014893
-0.000754431
2.97632e-05
0.000859876
0.00173224
0.00264292
0.00358767
0.00456201
0.00556118
0.00658014
0.00761363
0.00865617
0.00970202
0.0107453
0.0117799
0.0127997
0.0137985
0.01477
0.0157079
0.0166061
0.0174585
0.0182593
0.0190029
0.0196842
0.0202983
0.0208409
0.0213083
0.0216973
0.0220055
0.0222311
0.0223734
0.0224322
0.0224085
0.0223042
0.0221224
0.021867
0.0215432
0.0211573
0.020717
0.0202312
0.0197102
0.0191659
0.0186117
0.0180629
0.0175368
0.0170526
0.0166318
0.0162967
0.0160701
0.0159734
0.0159962
3.13989e-06
1.38198e-07
-0.000120674
-0.000347644
-0.000654734
-0.00102119
-0.0014275
-0.0018555
-0.00228915
-0.00271466
-0.00312034
-0.00349641
-0.00383478
-0.00412881
-0.00437319
-0.00456368
-0.004697
-0.00477072
-0.00478311
-0.00473306
-0.00462002
-0.00444388
-0.00420497
-0.003904
-0.00354198
-0.00312027
-0.00264049
-0.00210456
-0.00151463
-0.000873142
-0.00018278
0.000553528
0.00133259
0.00215094
0.00300489
0.00389048
0.00480345
0.00573934
0.00669343
0.00766078
0.00863624
0.00961448
0.01059
0.0115571
0.0125101
0.0134433
0.0143508
0.0152268
0.0160656
0.0168618
0.01761
0.018305
0.0189423
0.0195174
0.0200264
0.0204661
0.0208337
0.021127
0.0213446
0.021486
0.0215512
0.0215415
0.0214587
0.0213058
0.0210868
0.0208065
0.0204712
0.020088
0.0196653
0.0192126
0.0187408
0.0182622
0.0177903
0.01734
0.0169275
0.0165698
0.0162838
0.0160857
0.0159958
0.0160189
0.000139505
0.000121151
-1.17471e-08
-0.000209433
-0.000485026
-0.000810324
-0.00116967
-0.00154802
-0.00193172
-0.00230872
-0.00266861
-0.00300245
-0.00330276
-0.00356327
-0.00377888
-0.00394544
-0.00405972
-0.00411922
-0.00412215
-0.00406729
-0.00395395
-0.00378189
-0.00355127
-0.00326264
-0.00291686
-0.00251512
-0.00205889
-0.0015499
-0.000990163
-0.000381932
0.000272288
0.000969743
0.00170743
0.00248209
0.00329021
0.00412807
0.00499164
0.0058767
0.00677879
0.00769324
0.00861518
0.00953959
0.0104613
0.0113749
0.0122752
0.0131565
0.0140136
0.014841
0.0156334
0.0163856
0.0170927
0.0177499
0.0183529
0.0188977
0.0193807
0.0197989
0.0201497
0.0204314
0.0206426
0.020783
0.0208529
0.0208533
0.0207863
0.0206548
0.0204625
0.0202143
0.0199159
0.0195741
0.0191967
0.0187927
0.0183719
0.0179455
0.0175254
0.0171247
0.0167573
0.0164374
0.0161788
0.0159946
0.0159053
0.015923
0.000407626
0.000348968
0.000208783
-1.90294e-06
-0.00026695
-0.000572568
-0.000905617
-0.00125351
-0.00160464
-0.00194859
-0.00227616
-0.0025794
-0.00285149
-0.00308671
-0.00328029
-0.00342834
-0.00352776
-0.00357614
-0.0035717
-0.00351321
-0.00339991
-0.00323149
-0.00300803
-0.00272996
-0.00239803
-0.00201328
-0.00157706
-0.00109096
-0.000556841
2.31929e-05
0.000646801
0.0013114
0.00201415
0.00275199
0.0035216
0.00431942
0.00514165
0.00598429
0.00684309
0.00771362
0.00859128
0.00947127
0.0103487
0.0112184
0.0120755
0.0129147
0.0137308
0.0145188
0.0152736
0.0159903
0.0166643
0.0172911
0.0178666
0.0183871
0.0188492
0.0192501
0.0195875
0.0198597
0.0200656
0.0202048
0.0202777
0.0202855
0.0202301
0.0201143
0.0199418
0.019717
0.0194454
0.0191335
0.0187884
0.0184185
0.0180327
0.0176411
0.0172545
0.0168842
0.0165425
0.0162415
0.0159931
0.0158091
0.0157069
0.0156984
0.000777764
0.000658815
0.000484789
0.00026002
-7.30123e-06
-0.000305782
-0.000624385
-0.000952728
-0.00128114
-0.00160074
-0.00190362
-0.00218279
-0.00243222
-0.00264677
-0.00282213
-0.00295472
-0.00304168
-0.00308076
-0.00307025
-0.00300896
-0.00289614
-0.00273143
-0.00251487
-0.00224679
-0.00192786
-0.00155901
-0.00114145
-0.00067667
-0.000166357
0.000387523
0.000982771
0.00161698
0.00228749
0.00299139
0.00372557
0.00448666
0.00527104
0.00607493
0.00689431
0.00772495
0.00856247
0.00940232
0.0102398
0.0110702
0.0118885
0.01269
0.0134696
0.0142225
0.014944
0.0156293
0.0162741
0.0168741
0.0174254
0.0179245
0.0183683
0.018754
0.0190794
0.0193431
0.019544
0.0196818
0.0197569
0.0197704
0.0197241
0.0196209
0.019464
0.0192579
0.0190075
0.0187189
0.0183988
0.0180547
0.0176948
0.0173283
0.0169645
0.0166137
0.0162862
0.0159927
0.0157433
0.0155484
0.01542
0.0153657
0.00122311
0.00103143
0.00081268
0.000563595
0.000283529
-1.8219e-05
-0.000332409
-0.000650656
-0.000965036
-0.00126815
-0.00155329
-0.0018145
-0.00204653
-0.00224489
-0.00240576
-0.00252597
-0.00260292
-0.00263458
-0.00261939
-0.00255624
-0.00244441
-0.00228357
-0.0020737
-0.0018151
-0.00150835
-0.00115431
-0.00075408
-0.000309009
0.00017933
0.000709125
0.00127832
0.00188467
0.00252568
0.00319861
0.00390053
0.00462825
0.00537836
0.00614726
0.00693112
0.00772594
0.00852753
0.00933156
0.0101336
0.0109289
0.0117131
0.0124813
0.0132288
0.013951
0.0146434
0.0153014
0.0159208
0.0164975
0.0170279
0.0175085
0.0179364
0.0183089
0.018624
0.0188802
0.0190765
0.0192127
0.0192891
0.0193067
0.0192674
0.0191737
0.0190288
0.0188367
0.0186023
0.0183309
0.0180289
0.0177031
0.0173609
0.0170104
0.0166602
0.016319
0.0159959
0.0156997
0.0154396
0.0152244
0.0150593
0.0149461
0.00172003
0.00144873
0.00117784
0.000896521
0.000595236
0.000281538
-3.68001e-05
-0.000353191
-0.000661281
-0.000955021
-0.00122887
-0.00147783
-0.00169747
-0.00188396
-0.00203401
-0.00214488
-0.00221429
-0.00224047
-0.00222204
-0.00215802
-0.00204776
-0.00189097
-0.00168763
-0.00143801
-0.00114265
-0.000802314
-0.000418015
8.99764e-06
0.000477271
0.000985131
0.00153067
0.0021118
0.00272617
0.00337123
0.00404419
0.00474204
0.00546157
0.00619935
0.00695175
0.00771493
0.00848492
0.00925756
0.0100286
0.0107936
0.0115481
0.0122876
0.0130075
0.0137035
0.014371
0.0150058
0.0156037
0.0161608
0.0166736
0.0171387
0.0175532
0.0179147
0.018221
0.0184708
0.018663
0.0187974
0.0188743
0.0188947
0.0188602
0.0187732
0.0186368
0.0184545
0.018231
0.0179712
0.0176809
0.0173662
0.0170341
0.0166917
0.0163464
0.0160061
0.0156784
0.0153711
0.0150919
0.0148486
0.0146392
0.0144591
0.00224795
0.00189383
0.00156613
0.00124684
0.000917923
0.00058549
0.000256119
-6.51718e-05
-0.000373441
-0.000663865
-0.000931978
-0.00117371
-0.00138541
-0.00156391
-0.00170649
-0.00181082
-0.00187501
-0.00189754
-0.00187727
-0.00181336
-0.00170527
-0.00155276
-0.00135585
-0.00111479
-0.000830089
-0.000502454
-0.000132814
0.000277675
0.000727674
0.00121563
0.00173979
0.00229819
0.00288864
0.00350873
0.00415586
0.00482719
0.00551965
0.00623
0.00695477
0.00769031
0.00843279
0.00917825
0.00992255
0.0106615
0.0113907
0.0121058
0.0128025
0.0134764
0.0141232
0.0147386
0.0153187
0.0158597
0.0163581
0.0168105
0.0172141
0.0175666
0.0178657
0.0181101
0.0182989
0.0184316
0.0185085
0.0185304
0.0184989
0.0184162
0.018285
0.0181089
0.0178918
0.0176385
0.0173543
0.0170447
0.016716
0.0163745
0.0160269
0.0156801
0.0153405
0.0150148
0.0147099
0.0144325
0.0141735
0.0139221
0.00278935
0.00235158
0.00196442
0.00160327
0.001242
0.000885645
0.000539831
0.000208205
-0.000105548
-0.000397725
-0.000664828
-0.000903654
-0.00111133
-0.00128531
-0.0014234
-0.00152375
-0.00158484
-0.00160545
-0.00158465
-0.00152179
-0.00141646
-0.00126849
-0.00107794
-0.000845087
-0.000570394
-0.000254539
0.000101616
0.000497013
0.00093042
0.0014004
0.0019053
0.00244332
0.00301242
0.00361033
0.00423461
0.00488256
0.00555129
0.00623771
0.0069385
0.00765017
0.00836905
0.00909132
0.00981299
0.0105299
0.011238
0.0119329
0.0126104
0.0132662
0.0138961
0.014496
0.0150619
0.0155901
0.016077
0.0165195
0.0169147
0.0172601
0.0175537
0.017794
0.0179799
0.0181111
0.0181876
0.0182101
0.0181801
0.0180996
0.0179711
0.0177977
0.0175833
0.0173322
0.0170491
0.0167393
0.0164082
0.0160617
0.0157056
0.0153459
0.0149884
0.0146385
0.0143026
0.0139866
0.0136746
0.01335
0.00332948
0.00280866
0.00236084
0.00195528
0.00155833
0.00117417
0.000807697
0.000461386
0.000137811
-0.000160316
-0.0004304
-0.000670039
-0.000877058
-0.00104955
-0.00118583
-0.00128451
-0.00134443
-0.00136469
-0.00134459
-0.00128366
-0.00118166
-0.00103848
-0.000854257
-0.000629272
-0.000364
-5.90726e-05
0.000284718
0.000666382
0.00108477
0.00153857
0.00202627
0.00254617
0.00309637
0.00367475
0.00427902
0.00490662
0.00555482
0.00622065
0.00690096
0.0075924
0.00829143
0.00899434
0.00969726
0.0103962
0.0110871
0.0117657
0.012428
0.0130696
0.0136863
0.0142743
0.0148294
0.0153481
0.0158266
0.0162619
0.0166511
0.0169916
0.0172813
0.0175187
0.0177026
0.0178326
0.0179085
0.0179311
0.0179014
0.0178213
0.0176932
0.0175199
0.0173048
0.0170521
0.016766
0.0164512
0.0161129
0.0157561
0.0153863
0.0150086
0.014628
0.0142492
0.0138782
0.0135203
0.0131532
0.0127551
0.00385583
0.00325339
0.00274466
0.0022932
0.00185827
0.00144347
0.00105313
0.000688725
0.000351842
4.43158e-05
-0.000232069
-0.000475655
-0.000684931
-0.000858552
-0.000995376
-0.00109443
-0.00115491
-0.00117623
-0.00115795
-0.00109978
-0.00100161
-0.000863466
-0.000685538
-0.000468134
-0.000211716
8.31038e-05
0.000415571
0.000784773
0.00118967
0.00162903
0.00210146
0.00260538
0.00313903
0.00370043
0.00428741
0.00489757
0.00552829
0.00617676
0.00683996
0.00751466
0.00819742
0.00888466
0.0095726
0.0102573
0.0109349
0.0116011
0.0122519
0.012883
0.0134904
0.01407
0.0146178
0.01513
0.0156032
0.0160341
0.0164196
0.0167573
0.017045
0.0172809
0.0174639
0.0175932
0.0176687
0.0176908
0.0176606
0.0175796
0.01745
0.0172744
0.0170559
0.0167983
0.0165055
0.0161819
0.0158321
0.0154607
0.0150726
0.0146725
0.0142647
0.0138533
0.0134439
0.0130417
0.0126184
0.0121472
0.00435762
0.00367547
0.00310621
0.00260808
0.00213375
0.00168631
0.00126971
0.000884576
0.000531631
0.000211917
-7.35098e-05
-0.000323652
-0.000537642
-0.000714664
-0.000854043
-0.000955234
-0.00101781
-0.00104146
-0.00102599
-0.000971307
-0.000877454
-0.000744561
-0.00057288
-0.000362759
-0.000114674
0.000170787
0.000492926
0.000850894
0.00124373
0.00167029
0.0021293
0.00261931
0.00313866
0.00368551
0.00425782
0.00485331
0.00546951
0.00610372
0.00675305
0.00741437
0.00808434
0.00875946
0.00943608
0.0101103
0.0107783
0.0114358
0.0120789
0.0127032
0.0133048
0.0138795
0.0144233
0.0149324
0.0154032
0.0158324
0.0162169
0.0165541
0.0168415
0.0170775
0.0172606
0.0173901
0.0174655
0.0174871
0.0174558
0.0173729
0.0172404
0.0170606
0.0168364
0.0165712
0.0162687
0.0159329
0.015568
0.0151784
0.0147683
0.0143421
0.0139036
0.0134564
0.0130063
0.012558
0.0120779
0.0115344
0.00482549
0.00406571
0.00343674
0.00289174
0.00237714
0.00189574
0.00145118
0.00104332
0.00067217
0.000338068
4.13846e-05
-0.000217491
-0.000438221
-0.000620535
-0.000764214
-0.000869092
-0.000935077
-0.000962152
-0.000950365
-0.00089982
-0.000810691
-0.000683218
-0.000517731
-0.00031462
-7.43639e-05
0.000202475
0.000515236
0.000863127
0.00124526
0.0016606
0.00210797
0.00258603
0.00309324
0.00362788
0.00418802
0.00477153
0.00537604
0.00599899
0.00663756
0.00728874
0.00794928
0.00861577
0.0092846
0.00995196
0.0106139
0.0112665
0.0119054
0.0125267
0.013126
0.0136993
0.0142425
0.0147517
0.0152232
0.0156536
0.0160396
0.0163786
0.0166679
0.0169056
0.0170903
0.0172208
0.0172968
0.0173181
0.0172855
0.0172001
0.0170636
0.0168781
0.0166463
0.0163713
0.0160566
0.0157058
0.0153229
0.0149117
0.0144765
0.0140211
0.0135492
0.0130638
0.0125708
0.0120751
0.0115378
0.0109231
0.00525118
0.00441592
0.00372827
0.00313658
0.00258134
0.00206514
0.00159143
0.00115943
0.000768441
0.000418206
0.000108524
-0.000160812
-0.000389986
-0.000579186
-0.000728603
-0.000838458
-0.000908987
-0.000940441
-0.00093309
-0.000887222
-0.00080316
-0.000681251
-0.000521892
-0.000325505
-9.25773e-05
0.000176339
0.00048062
0.000819535
0.00119228
0.00159791
0.00203533
0.00250332
0.00300045
0.0035251
0.0040755
0.00464961
0.00524519
0.00585974
0.00649058
0.00713477
0.00778916
0.00845039
0.00911488
0.00977886
0.0104384
0.0110896
0.0117281
0.0123498
0.0129504
0.0135258
0.0140718
0.0145843
0.0150597
0.0154942
0.0158845
0.0162277
0.0165211
0.0167626
0.0169504
0.0170833
0.0171606
0.0171822
0.0171483
0.0170601
0.0169189
0.0167267
0.0164859
0.0161994
0.0158703
0.0155022
0.0150986
0.0146635
0.0142004
0.0137133
0.0132055
0.0126798
0.0121423
0.0115983
0.0110036
0.0103186
0.00562728
0.00471866
0.0039735
0.00333553
0.00273962
0.00218821
0.00168459
0.00122742
0.00081542
0.000447755
0.000123683
-0.000157503
-0.000396469
-0.000593838
-0.000750197
-0.000866119
-0.00094214
-0.000978761
-0.000976474
-0.000935743
-0.000857032
-0.000740781
-0.00058745
-0.000397499
-0.000171423
9.02376e-05
0.000386903
0.000717904
0.00108251
0.00147986
0.00190895
0.00236866
0.00285768
0.00337453
0.00391751
0.0044847
0.00507395
0.00568291
0.00630895
0.00694923
0.00760064
0.00825989
0.00892342
0.00958749
0.0102482
0.0109015
0.0115431
0.0121689
0.0127744
0.0133554
0.0139076
0.0144269
0.0149093
0.015351
0.0157485
0.0160986
0.0163985
0.0166458
0.0168386
0.0169754
0.0170552
0.0170778
0.0170432
0.0169522
0.016806
0.0166064
0.0163556
0.0160561
0.0157111
0.0153237
0.0148975
0.0144361
0.013943
0.013422
0.0128762
0.0123085
0.0117252
0.0111318
0.0104797
0.00972487
0.00594708
0.00496711
0.00416568
0.00348208
0.00284569
0.00225892
0.00172497
0.00124197
0.000808108
0.000422051
8.25528e-05
-0.000211553
-0.00046138
-0.000667953
-0.000832233
-0.000955106
-0.00103739
-0.00107983
-0.00108313
-0.00104792
-0.000974765
-0.000864218
-0.000716794
-0.00053299
-0.000313304
-5.82495e-05
0.000231633
0.000555731
0.00091338
0.00130381
0.00172611
0.00217927
0.00266209
0.00317318
0.00371097
0.00427363
0.00485913
0.00546518
0.00608927
0.00672861
0.00738016
0.00804063
0.00870653
0.00937412
0.0100395
0.0106985
0.0113468
0.0119802
0.0125942
0.0131844
0.0137464
0.0142759
0.0147686
0.0152207
0.0156284
0.0159883
0.0162973
0.0165528
0.0167527
0.0168951
0.016979
0.0170037
0.0169691
0.0168758
0.0167247
0.0165173
0.0162558
0.0159425
0.0155802
0.0151721
0.0147216
0.014232
0.0137071
0.0131503
0.0125648
0.0119535
0.0113231
0.0106795
0.0099695
0.00914535
0.00620435
0.00515497
0.0042985
0.00356997
0.00289352
0.00227149
0.00170704
0.00119783
0.000741558
0.000336433
-1.92425e-05
-0.000327081
-0.000588594
-0.000805185
-0.00097815
-0.00110868
-0.00119785
-0.00124664
-0.00125594
-0.00122652
-0.00115909
-0.00105425
-0.0009126
-0.000734645
-0.000520886
-0.000271812
1.20783e-05
0.00033023
0.000682051
0.00106685
0.00148384
0.0019321
0.00241052
0.00291784
0.00345257
0.004013
0.0045972
0.00520298
0.00582788
0.00646918
0.00712388
0.00778876
0.00846031
0.00913479
0.00980823
0.0104765
0.0111352
0.0117799
0.012406
0.013009
0.0135844
0.0141276
0.0146342
0.0151001
0.0155212
0.0158939
0.0162149
0.0164813
0.0166905
0.0168407
0.0169304
0.0169587
0.0169253
0.0168303
0.0166747
0.0164597
0.0161872
0.0158594
0.015479
0.0150491
0.0145728
0.0140537
0.0134953
0.0129012
0.0122744
0.0116181
0.0109393
0.0102446
0.00947627
0.0085827
0.0063933
0.0052763
0.00436603
0.00359337
0.00287737
0.00222034
0.00162543
0.00108985
0.000610862
0.000186234
-0.000186145
-0.000508297
-0.000782104
-0.00100932
-0.00119156
-0.00133029
-0.00142684
-0.0014824
-0.00149801
-0.0014746
-0.00141298
-0.00131383
-0.00117779
-0.00100538
-0.000797098
-0.000553405
-0.000274759
3.83513e-05
0.000385417
0.000765837
0.00117891
0.00162382
0.00209957
0.002605
0.00313872
0.00369915
0.00428443
0.00489245
0.00552084
0.00616693
0.00682778
0.00750017
0.00818061
0.00886534
0.00955033
0.0102314
0.010904
0.0115637
0.0122057
0.0128253
0.0134178
0.0139785
0.0145026
0.0149858
0.0154238
0.0158126
0.0161487
0.0164288
0.0166501
0.0168105
0.0169081
0.0169418
0.0169109
0.0168155
0.0166562
0.016434
0.0161505
0.015808
0.015409
0.0149564
0.0144534
0.0139035
0.0133103
0.0126773
0.0120079
0.0113052
0.0105769
0.00983012
0.00900261
0.00803914
0.00650848
0.0053255
0.00436264
0.00354667
0.00279173
0.0021001
0.00147491
0.00091299
0.000411163
-3.32058e-05
-0.000422619
-0.000759469
-0.001046
-0.00128429
-0.00147624
-0.00162358
-0.00172788
-0.0017905
-0.00181266
-0.00179541
-0.00173965
-0.00164614
-0.00151553
-0.00134836
-0.00114512
-0.000906241
-0.000632125
-0.000323194
2.01248e-05
0.000397328
0.000807806
0.00125084
0.00172556
0.00223089
0.00276558
0.00332813
0.00391677
0.00452948
0.00516396
0.00581761
0.00648751
0.00717048
0.00786302
0.00856132
0.00926131
0.0099587
0.010649
0.0113274
0.0119891
0.0126292
0.0132427
0.0138246
0.01437
0.0148743
0.0153329
0.0157414
0.016096
0.016393
0.0166295
0.0168027
0.0169107
0.0169519
0.0169255
0.0168312
0.0166692
0.0164406
0.0161467
0.0157895
0.0153716
0.0148959
0.0143654
0.0137837
0.0131545
0.0124815
0.0117681
0.0110177
0.0102387
0.00943857
0.00855089
0.00751656
0.00654462
0.00529724
0.00428294
0.00342451
0.00263128
0.00190554
0.00125039
0.00066229
0.000137652
-0.000326534
-0.000733146
-0.00108492
-0.00138445
-0.00163411
-0.00183607
-0.00199232
-0.00210462
-0.00217453
-0.00220341
-0.00219241
-0.00214252
-0.00205455
-0.00192918
-0.00176696
-0.00156835
-0.00133375
-0.0010635
-0.000757939
-0.000417418
-4.23521e-05
0.000366765
0.000809324
0.00128455
0.0017915
0.00232903
0.00289572
0.00348991
0.00410968
0.00475278
0.00541668
0.0060985
0.00679506
0.00750286
0.00821805
0.00893653
0.00965388
0.0103655
0.0110664
0.0117517
0.0124162
0.0130547
0.013662
0.0142328
0.0147622
0.0152453
0.0156773
0.016054
0.0163716
0.0166264
0.0168157
0.0169369
0.0169882
0.0169684
0.016877
0.016714
0.0164801
0.0161765
0.0158052
0.0153686
0.0148694
0.0143109
0.0136967
0.0130305
0.0123163
0.0115578
0.0107583
0.00992713
0.00907244
0.00812326
0.00701667
0.00649667
0.00518635
0.00412172
0.00322169
0.00239088
0.00163157
0.000946875
0.000332861
-0.000214433
-0.000698385
-0.00112222
-0.00148903
-0.0018017
-0.0020629
-0.00227507
-0.00244041
-0.00256089
-0.00263823
-0.00267392
-0.00266921
-0.00262517
-0.00254264
-0.00242233
-0.00226478
-0.00207042
-0.00183959
-0.00157258
-0.00126965
-0.000931056
-0.00055711
-0.000148203
0.000295176
0.000772374
0.00128256
0.00182468
0.00239744
0.0029993
0.0036284
0.00428257
0.00495935
0.00565588
0.00636901
0.00709521
0.00783061
0.00857103
0.00931197
0.0100487
0.0107761
0.011489
0.012182
0.0128497
0.0134866
0.0140871
0.0146458
0.0151575
0.0156172
0.0160201
0.016362
0.016639
0.0168477
0.0169854
0.0170497
0.0170392
0.016953
0.0167908
0.0165531
0.0162411
0.0158565
0.0154015
0.014879
0.0142923
0.013645
0.012941
0.0121846
0.0113796
0.0105297
0.00964494
0.00873415
0.0077218
0.00654107
0.00635971
0.00498781
0.00387394
0.00293316
0.0020655
0.00127323
0.000559458
-8.01115e-05
-0.000649811
-0.00115337
-0.00159435
-0.00197617
-0.00230202
-0.00257484
-0.00279731
-0.00297185
-0.00310061
-0.00318546
-0.00322801
-0.0032296
-0.00319136
-0.00311417
-0.00299873
-0.00284557
-0.0026551
-0.0024276
-0.00216327
-0.00186229
-0.00152483
-0.00115108
-0.000741307
-0.000295899
0.000184618
0.000699536
0.00124793
0.00182861
0.00244013
0.00308074
0.00374836
0.00444056
0.00515454
0.00588716
0.00663487
0.00739378
0.00815963
0.00892783
0.00969344
0.0104513
0.0111959
0.0119218
0.012623
0.0132939
0.0139285
0.0145211
0.015066
0.0155578
0.0159913
0.0163619
0.0166651
0.0168971
0.0170548
0.0171355
0.0171373
0.017059
0.0169
0.0166606
0.0163417
0.0159448
0.0154722
0.0149268
0.0143118
0.0136311
0.0128887
0.012089
0.0112363
0.0103347
0.0093947
0.00842609
0.00734862
0.00609137
0.00612893
0.00469676
0.00353467
0.00255399
0.00165023
0.000825634
8.33113e-05
-0.000581386
-0.00117316
-0.00169608
-0.00215405
-0.00255077
-0.00288975
-0.00317417
-0.00340696
-0.00359074
-0.00372782
-0.0038202
-0.00386962
-0.00387749
-0.00384499
-0.00377302
-0.00366228
-0.00351329
-0.00332638
-0.00310178
-0.00283963
-0.00254
-0.00220295
-0.00182855
-0.00141696
-0.000968416
-0.000483328
3.77263e-05
0.000593944
0.00118427
0.00180737
0.00246158
0.00314491
0.003855
0.0045891
0.00534407
0.00611638
0.00690209
0.00769686
0.00849599
0.00929443
0.0100868
0.0108674
0.0116305
0.0123698
0.0130794
0.0137529
0.0143841
0.0149671
0.0154958
0.0159646
0.0163684
0.0167023
0.0169621
0.0171439
0.0172448
0.0172624
0.0171951
0.0170421
0.0168033
0.0164794
0.0160718
0.0155828
0.0150151
0.0143721
0.0136577
0.0128763
0.0120326
0.011131
0.010176
0.00917914
0.0081508
0.00700589
0.0056693
0.00579961
0.00430839
0.00309909
0.00207934
0.00114023
0.000283979
-0.000486325
-0.00117567
-0.00178914
-0.00233111
-0.00280581
-0.00321727
-0.00356924
-0.0038652
-0.00410826
-0.00430124
-0.00444662
-0.00454653
-0.00460279
-0.0046169
-0.00459006
-0.0045232
-0.00441701
-0.00427196
-0.00408834
-0.0038663
-0.00360589
-0.00330707
-0.00296979
-0.002594
-0.00217972
-0.00172705
-0.00123625
-0.000707778
-0.000142288
0.000459295
0.00109576
0.00176555
0.00246676
0.00319711
0.00395392
0.00473406
0.00553401
0.00634977
0.00717696
0.00801075
0.00884596
0.00967699
0.010498
0.0113028
0.012085
0.0128381
0.0135555
0.0142305
0.0148566
0.0154274
0.0159368
0.0163789
0.0167485
0.0170406
0.0172512
0.0173766
0.017414
0.0173614
0.0172176
0.0169823
0.0166557
0.0162394
0.0157353
0.0151462
0.0144757
0.0137277
0.012907
0.0120184
0.0110667
0.0100569
0.0090012
0.00791098
0.006696
0.00527675
0.00536708
0.003818
0.00256245
0.00150448
0.000530773
-0.000356464
-0.00115415
-0.00186763
-0.00250234
-0.003063
-0.00355414
-0.00398009
-0.00434489
-0.00465222
-0.00490545
-0.00510756
-0.00526118
-0.00536857
-0.00543163
-0.00545192
-0.00543067
-0.00536882
-0.00526704
-0.00512574
-0.00494518
-0.0047254
-0.00446636
-0.0041679
-0.00382985
-0.00345202
-0.00303429
-0.00257661
-0.0020791
-0.00154204
-0.000965962
-0.000351635
0.000299852
0.000987074
0.00170824
0.00246114
0.00324315
0.00405121
0.00488176
0.00573082
0.00659391
0.00746612
0.00834209
0.00921606
0.0100819
0.0109332
0.0117632
0.012565
0.0133316
0.0140558
0.0147306
0.015349
0.0159044
0.0163904
0.0168011
0.0171309
0.0173753
0.01753
0.0175917
0.017558
0.0174271
0.0171985
0.0168722
0.0164494
0.0159321
0.015323
0.0146257
0.0138444
0.012984
0.0120498
0.0110468
0.00998055
0.00886406
0.00770959
0.00642157
0.0049159
0.00482672
0.00322093
0.0019201
0.000824701
-0.000182835
-0.00110036
-0.00192481
-0.00266189
-0.00331736
-0.0038963
-0.00440353
-0.00484369
-0.00522106
-0.00553959
-0.00580283
-0.00601395
-0.00617572
-0.0062905
-0.00636029
-0.00638669
-0.00637097
-0.00631404
-0.00621655
-0.00607887
-0.00590117
-0.00568342
-0.00542544
-0.00512698
-0.00478771
-0.0044073
-0.00398548
-0.00352203
-0.00301691
-0.00247025
-0.0018824
-0.00125398
-0.00058594
0.000120445
0.000863494
0.00164111
0.00245074
0.00328936
0.00415345
0.00503899
0.00594147
0.00685585
0.00777664
0.00869788
0.0096132
0.0105159
0.0113988
0.0122547
0.013076
0.0138551
0.0145844
0.0152565
0.0158639
0.0163998
0.0168574
0.0172309
0.0175146
0.017704
0.0177951
0.0177849
0.0176713
0.0174532
0.0171305
0.0167041
0.0161757
0.0155482
0.0148252
0.0140111
0.013111
0.0121305
0.0110751
0.00995067
0.00877122
0.00754993
0.0061856
0.00458926
0.00417399
0.00251259
0.00116741
3.53958e-05
-0.00100521
-0.00195233
-0.00280292
-0.00356301
-0.00423875
-0.00483551
-0.00535846
-0.00581248
-0.00620215
-0.00653164
-0.0068047
-0.00702467
-0.00719445
-0.00731653
-0.00739296
-0.0074254
-0.00741512
-0.00736303
-0.00726975
-0.00713558
-0.00696061
-0.0067447
-0.00648758
-0.00618883
-0.00584799
-0.00546457
-0.00503813
-0.00456829
-0.00405482
-0.00349767
-0.00289701
-0.00225331
-0.00156732
-0.000840188
-7.34473e-05
0.000730918
0.00157045
0.0024422
0.00334267
0.00426784
0.00521314
0.00617346
0.00714315
0.00811606
0.00908557
0.0100446
0.0109858
0.0119013
0.0127832
0.0136234
0.0144135
0.0151456
0.0158115
0.0164037
0.0169149
0.0173382
0.0176675
0.0178976
0.0180237
0.0180424
0.0179509
0.0177478
0.0174325
0.0170057
0.016469
0.0158251
0.0150778
0.0142316
0.0132919
0.0122646
0.0111556
0.00997129
0.00872661
0.00743572
0.00599147
0.00429976
0.00340434
0.00168845
0.000299824
-0.000868008
-0.00194094
-0.00291695
-0.00379302
-0.00457555
-0.00527103
-0.00588514
-0.00642336
-0.00689089
-0.00729253
-0.00763269
-0.00791534
-0.00814396
-0.0083216
-0.00845084
-0.00853381
-0.0085722
-0.0085673
-0.00851999
-0.00843085
-0.00830012
-0.00812779
-0.00791362
-0.00765719
-0.00735796
-0.00701531
-0.00662857
-0.00619711
-0.00572038
-0.00519796
-0.00462958
-0.00401524
-0.0033552
-0.00265005
-0.00190073
-0.00110865
-0.000275632
0.000595975
0.0015033
0.00244289
0.00341075
0.00440228
0.00541227
0.00643496
0.007464
0.00849252
0.00951316
0.0105181
0.0114991
0.0124477
0.0133553
0.0142129
0.0150117
0.0157432
0.0163988
0.0169704
0.0174506
0.0178324
0.0181096
0.0182771
0.0183306
0.0182667
0.0180836
0.0177801
0.0173567
0.0168149
0.0161572
0.0153873
0.0145101
0.013531
0.0124566
0.011293
0.0100469
0.00873463
0.00737116
0.00584307
0.00405085
0.00251332
0.000743998
-0.000687168
-0.00189003
-0.00299455
-0.00399875
-0.00489966
-0.00570402
-0.00641867
-0.00704963
-0.00760267
-0.00808328
-0.00849653
-0.00884705
-0.009139
-0.00937604
-0.00956135
-0.0096976
-0.00978698
-0.00983123
-0.00983162
-0.00978904
-0.009704
-0.00957667
-0.00940694
-0.00919445
-0.00893865
-0.00863884
-0.00829422
-0.00790396
-0.00746722
-0.00698325
-0.00645141
-0.00587124
-0.0052425
-0.00456525
-0.00383986
-0.00306711
-0.00224819
-0.00138478
-0.000479085
0.00046612
0.00144747
0.002461
0.00350208
0.00456546
0.00564525
0.00673491
0.00782733
0.00891482
0.00998919
0.0110418
0.0120636
0.0130452
0.0139773
0.0148503
0.0156547
0.0163812
0.0170209
0.0175656
0.0180073
0.0183391
0.0185549
0.0186498
0.0186197
0.0184622
0.0181757
0.0177601
0.0172168
0.0165482
0.015758
0.014851
0.0138333
0.0127114
0.0114921
0.0101826
0.00880021
0.007361
0.00574486
0.00384655
0.0014965
-0.000325208
-0.00179804
-0.00303517
-0.00417054
-0.00520222
-0.00612731
-0.00695289
-0.00768613
-0.00833341
-0.00890078
-0.00939401
-0.00981846
-0.010179
-0.0104799
-0.0107251
-0.0109178
-0.0110609
-0.0111565
-0.0112065
-0.0112121
-0.0111742
-0.0110932
-0.0109693
-0.0108022
-0.0105914
-0.0103362
-0.0100358
-0.00968917
-0.0092953
-0.00885314
-0.00836171
-0.00782015
-0.00722777
-0.00658409
-0.00588892
-0.00514243
-0.00434515
-0.00349808
-0.00260272
-0.00166109
-0.000675845
0.000349763
0.00141181
0.00250569
0.0036261
0.00476705
0.00592183
0.00708311
0.00824287
0.00939251
0.0105229
0.0116246
0.0126875
0.0137014
0.0146562
0.0155415
0.0163471
0.0170632
0.0176805
0.0181903
0.0185846
0.0188565
0.0190002
0.0190109
0.0188854
0.0186216
0.0182189
0.0176784
0.0170024
0.0161945
0.0152596
0.014204
0.0130347
0.0117588
0.0103841
0.00892894
0.00741067
0.00570197
0.00369152
0.000349503
-0.00152357
-0.00303722
-0.00430786
-0.00547336
-0.00653185
-0.00748045
-0.00832661
-0.00907786
-0.00974087
-0.010322
-0.0108274
-0.0112626
-0.0116327
-0.0119422
-0.0121952
-0.0123951
-0.0125447
-0.0126464
-0.012702
-0.0127127
-0.0126794
-0.0126025
-0.0124819
-0.0123174
-0.0121084
-0.0118539
-0.011553
-0.0112044
-0.0108069
-0.0103593
-0.00986039
-0.00930897
-0.00870412
-0.00804512
-0.00733153
-0.00656325
-0.00574055
-0.00486422
-0.00393553
-0.00295631
-0.00192904
-0.000856841
0.00025644
0.00140624
0.00258724
0.00379337
0.00501777
0.00625288
0.00749037
0.00872128
0.00993601
0.0111244
0.0122759
0.0133796
0.0144243
0.0153989
0.0162923
0.0170937
0.0177926
0.0183793
0.018845
0.0191816
0.0193822
0.0194415
0.0193551
0.0191205
0.0187366
0.0182038
0.0175244
0.0167019
0.0157414
0.0146491
0.0134325
0.0120993
0.0106576
0.00912713
0.0075263
0.00572025
0.00359121
-0.000931984
-0.00285545
-0.0044091
-0.00571253
-0.00690746
-0.00799206
-0.00896352
-0.00982962
-0.0105982
-0.0112764
-0.0118708
-0.0123877
-0.0128331
-0.0132123
-0.01353
-0.0137903
-0.013997
-0.0141529
-0.0142604
-0.0143214
-0.0143371
-0.0143083
-0.0142354
-0.0141182
-0.0139564
-0.0137492
-0.0134956
-0.0131942
-0.0128438
-0.012443
-0.01199
-0.0114836
-0.0109223
-0.0103049
-0.00963045
-0.00889811
-0.00810753
-0.00725875
-0.00635226
-0.00538907
-0.00437079
-0.00329971
-0.00217878
-0.00101172
0.000196976
0.00144201
0.00271724
0.00401571
0.00532962
0.00665039
0.00796864
0.0092743
0.0105567
0.0118045
0.013006
0.0141493
0.0152222
0.0162127
0.0171088
0.017899
0.0185724
0.0191189
0.0195295
0.0197962
0.0199125
0.0198734
0.0196754
0.0193167
0.0187975
0.0181195
0.0172861
0.0163025
0.0151751
0.0139119
0.0125207
0.0110104
0.00940187
0.00771486
0.00580639
0.00355187
-0.00235223
-0.00432515
-0.00591803
-0.00725358
-0.00847724
-0.00958729
-0.0105809
-0.0114663
-0.0122517
-0.0129443
-0.0135512
-0.0140791
-0.0145341
-0.0149218
-0.0152471
-0.0155144
-0.0157274
-0.0158892
-0.0160022
-0.0160683
-0.0160887
-0.0160644
-0.0159954
-0.0158816
-0.0157226
-0.0155173
-0.0152646
-0.0149631
-0.0146111
-0.014207
-0.013749
-0.0132353
-0.0126644
-0.0120345
-0.0113445
-0.0105933
-0.00978015
-0.00890482
-0.00796747
-0.00696885
-0.0059103
-0.00479384
-0.00362225
-0.00239906
-0.00112867
0.00018368
0.00153183
0.00290872
0.00430639
0.00571597
0.00712772
0.00853108
0.00991477
0.0112668
0.0125748
0.0138257
0.0150064
0.0161039
0.0171048
0.0179967
0.0187672
0.0194051
0.0198999
0.0202427
0.0204256
0.0204427
0.0202894
0.0199635
0.0194643
0.0187931
0.0179533
0.0169499
0.0157895
0.0144804
0.0130309
0.0114504
0.00976116
0.00798422
0.00596801
0.00358068
-0.00391544
-0.00593696
-0.00756836
-0.00893537
-0.0101871
-0.011322
-0.0123371
-0.0132411
-0.0140425
-0.0147489
-0.0153677
-0.0159058
-0.0163697
-0.0167652
-0.0170975
-0.0173711
-0.0175899
-0.017757
-0.0178751
-0.017946
-0.0179709
-0.0179507
-0.0178856
-0.0177752
-0.0176189
-0.0174157
-0.0171642
-0.0168627
-0.0165094
-0.0161024
-0.0156396
-0.015119
-0.0145386
-0.0138966
-0.0131912
-0.0124212
-0.0115855
-0.0106833
-0.00971471
-0.00867996
-0.00758013
-0.00641699
-0.00519303
-0.0039116
-0.00257692
-0.00119416
0.00023056
0.00169012
0.00317641
0.00468032
0.00619174