/*--------------------------------*- C++ -*----------------------------------*\
  =========                 |
  \\      /  F ield         | OpenFOAM: The Open Source CFD Toolbox
   \\    /   O peration     | Website:  https://openfoam.org
    \\  /    A nd           | Version:  9
     \\/     M anipulation  |
\*---------------------------------------------------------------------------*/
FoamFile
{
    format      ascii;
    class       surfaceScalarField;
    location    "0.4";
    object      phi;
}
// * * * * * * * * * * * * * * * * * * * * * * * * * * * * * * * * * * * * * //

dimensions      [0 3 -1 0 0 0 0];

internalField   nonuniform List<scalar> 
12640
(
1.965e-10
-1.96389e-10
5.551e-10
-3.58621e-10
8.58328e-10
-3.03227e-10
9.83567e-10
-1.25264e-10
8.72944e-10
1.10607e-10
5.0392e-10
3.69026e-10
-1.26053e-10
6.29988e-10
-1.00806e-09
8.82012e-10
-2.12668e-09
1.11862e-09
-3.46288e-09
1.3362e-09
-4.99576e-09
1.53287e-09
-6.70357e-09
1.70781e-09
-8.56446e-09
1.86089e-09
-1.05568e-08
1.99236e-09
-1.26596e-08
2.10276e-09
-1.48524e-08
2.19281e-09
-1.71157e-08
2.26332e-09
-1.94308e-08
2.31513e-09
-2.17799e-08
2.34908e-09
-2.41459e-08
2.36603e-09
-2.65127e-08
2.36678e-09
-2.88648e-08
2.35211e-09
-3.11875e-08
2.32275e-09
-3.34669e-08
2.27938e-09
-3.56896e-08
2.22264e-09
-3.78427e-08
2.15313e-09
-3.99141e-08
2.07143e-09
-4.18922e-08
1.97807e-09
-4.37658e-08
1.87357e-09
-4.55242e-08
1.75846e-09
-4.71575e-08
1.63324e-09
-4.86559e-08
1.49844e-09
-5.00105e-08
1.3546e-09
-5.12129e-08
1.20232e-09
-5.2255e-08
1.04219e-09
-5.31299e-08
8.74844e-10
-5.38309e-08
7.01021e-10
-5.43524e-08
5.21484e-10
-5.46894e-08
3.37062e-10
-5.48382e-08
1.48682e-10
-5.47955e-08
-4.26799e-11
-5.45595e-08
-2.36e-10
-5.41293e-08
-4.30145e-10
-5.35054e-08
-6.23908e-10
-5.26893e-08
-8.16052e-10
-5.16841e-08
-1.00526e-09
-5.0494e-08
-1.19015e-09
-4.91246e-08
-1.3693e-09
-4.75833e-08
-1.54129e-09
-4.58787e-08
-1.70463e-09
-4.40209e-08
-1.85785e-09
-4.20214e-08
-1.99948e-09
-3.98933e-08
-2.1281e-09
-3.7651e-08
-2.24228e-09
-3.53103e-08
-2.34066e-09
-3.28883e-08
-2.422e-09
-3.04032e-08
-2.4851e-09
-2.78743e-08
-2.52888e-09
-2.53219e-08
-2.55238e-09
-2.27671e-08
-2.55479e-09
-2.02317e-08
-2.53546e-09
-1.77378e-08
-2.4939e-09
-1.5308e-08
-2.42977e-09
-1.2965e-08
-2.34298e-09
-1.07314e-08
-2.23363e-09
-8.62934e-09
-2.10205e-09
-6.68055e-09
-1.9488e-09
-4.90581e-09
-1.77473e-09
-3.32474e-09
-1.58105e-09
-1.95539e-09
-1.36935e-09
-8.13623e-10
-1.14178e-09
8.75539e-11
-9.0119e-10
7.39131e-10
-6.51571e-10
1.13769e-09
-3.98549e-10
1.28826e-09
-1.50577e-10
1.20888e-09
7.93638e-11
9.38155e-10
2.70709e-10
5.48475e-10
3.89684e-10
1.69881e-10
3.78607e-10
1.69876e-10
3.59608e-10
-5.55993e-10
8.43322e-10
-8.42319e-10
1.1036e-09
-5.63461e-10
9.22461e-10
5.59152e-11
1.70684e-10
8.62388e-10
-1.21587e-09
1.75558e-09
-3.25673e-09
2.67084e-09
-5.94189e-09
3.56716e-09
-9.24212e-09
4.41887e-09
-1.3116e-08
5.21012e-09
-1.75147e-08
5.93154e-09
-2.23849e-08
6.57798e-09
-2.76712e-08
7.14716e-09
-3.33176e-08
7.6387e-09
-3.92683e-08
8.05347e-09
-4.54686e-08
8.39319e-09
-5.18655e-08
8.66017e-09
-5.84074e-08
8.85699e-09
-6.50447e-08
8.98642e-09
-7.173e-08
9.05127e-09
-7.84175e-08
9.05434e-09
-8.50638e-08
8.99835e-09
-9.16269e-08
8.88593e-09
-9.80671e-08
8.71958e-09
-1.04346e-07
8.50168e-09
-1.10428e-07
8.23454e-09
-1.16276e-07
7.92032e-09
-1.2186e-07
7.56114e-09
-1.27145e-07
7.15906e-09
-1.32103e-07
6.71614e-09
-1.36704e-07
6.23442e-09
-1.40921e-07
5.71602e-09
-1.4473e-07
5.16312e-09
-1.48106e-07
4.57802e-09
-1.51027e-07
3.96319e-09
-1.53473e-07
3.32123e-09
-1.55427e-07
2.65493e-09
-1.56873e-07
1.96734e-09
-1.57798e-07
1.26173e-09
-1.5819e-07
5.416e-10
-1.58044e-07
-1.89253e-10
-1.57353e-07
-9.26788e-10
-1.56117e-07
-1.66674e-09
-1.54336e-07
-2.40456e-09
-1.52016e-07
-3.13545e-09
-1.49167e-07
-3.85445e-09
-1.45801e-07
-4.55641e-09
-1.41934e-07
-5.23599e-09
-1.37588e-07
-5.88776e-09
-1.32786e-07
-6.50625e-09
-1.27558e-07
-7.08599e-09
-1.21936e-07
-7.6215e-09
-1.15957e-07
-8.10742e-09
-1.0966e-07
-8.53857e-09
-1.03091e-07
-8.90998e-09
-9.62962e-08
-9.21694e-09
-8.93262e-08
-9.45514e-09
-8.22344e-08
-9.62065e-09
-7.50767e-08
-9.71004e-09
-6.79111e-08
-9.7204e-09
-6.07971e-08
-9.64943e-09
-5.37956e-08
-9.49546e-09
-4.69677e-08
-9.25758e-09
-4.03751e-08
-8.93562e-09
-3.40784e-08
-8.53028e-09
-2.81374e-08
-8.04315e-09
-2.26093e-08
-7.47689e-09
-1.75487e-08
-6.83532e-09
-1.3006e-08
-6.12368e-09
-9.02652e-09
-5.34888e-09
-5.64821e-09
-4.52008e-09
-2.90004e-09
-3.64936e-09
-7.98701e-10
-2.75291e-09
6.55624e-10
-1.85289e-09
1.48534e-09
-9.80307e-10
1.74412e-09
-1.7942e-10
1.52928e-09
4.85579e-10
9.97098e-10
9.21889e-10
3.7803e-10
9.97663e-10
5.47904e-10
3.074e-10
-8.63396e-10
5.723e-10
-1.10726e-09
4.027e-10
-3.93878e-10
-4.54158e-10
9.12779e-10
-2.15768e-09
2.56592e-09
-4.79404e-09
4.39194e-09
-8.39442e-09
6.27121e-09
-1.29504e-08
8.12314e-09
-1.84257e-08
9.89417e-09
-2.47649e-08
1.15493e-08
-3.18996e-08
1.30663e-08
-3.97536e-08
1.44319e-08
-4.82456e-08
1.56392e-08
-5.72922e-08
1.66853e-08
-6.68095e-08
1.75707e-08
-7.67139e-08
1.82976e-08
-8.69236e-08
1.88699e-08
-9.73587e-08
1.92921e-08
-1.07942e-07
1.95696e-08
-1.18598e-07
1.97077e-08
-1.29256e-07
1.97121e-08
-1.39846e-07
1.95883e-08
-1.50302e-07
1.93417e-08
-1.6056e-07
1.89775e-08
-1.70559e-07
1.85008e-08
-1.80241e-07
1.79165e-08
-1.8955e-07
1.72294e-08
-1.98433e-07
1.64441e-08
-2.06839e-07
1.55651e-08
-2.1472e-07
1.45971e-08
-2.2203e-07
1.35445e-08
-2.28726e-07
1.24122e-08
-2.34768e-07
1.1205e-08
-2.40118e-07
9.92817e-09
-2.44742e-07
8.58706e-09
-2.48608e-07
7.18756e-09
-2.51689e-07
5.73591e-09
-2.53961e-07
4.23882e-09
-2.55403e-07
2.70349e-09
-2.55999e-07
1.13765e-09
-2.55738e-07
-4.50445e-10
-2.54612e-07
-2.05199e-09
-2.52621e-07
-3.65764e-09
-2.49768e-07
-5.25757e-09
-2.46062e-07
-6.84149e-09
-2.41518e-07
-8.39863e-09
-2.36157e-07
-9.91787e-09
-2.30005e-07
-1.13878e-08
-2.23096e-07
-1.27969e-08
-2.15468e-07
-1.41334e-08
-2.07169e-07
-1.53856e-08
-1.98248e-07
-1.65418e-08
-1.88765e-07
-1.75908e-08
-1.78782e-07
-1.85214e-08
-1.68369e-07
-1.93232e-08
-1.576e-07
-1.99863e-08
-1.46553e-07
-2.05015e-08
-1.35313e-07
-2.08607e-08
-1.23967e-07
-2.10567e-08
-1.12603e-07
-2.10835e-08
-1.01316e-07
-2.09365e-08
-9.01995e-08
-2.06124e-08
-7.93475e-08
-2.01095e-08
-6.88551e-08
-1.9428e-08
-5.88155e-08
-1.85699e-08
-4.93196e-08
-1.75391e-08
-4.04544e-08
-1.6342e-08
-3.2302e-08
-1.49877e-08
-2.49373e-08
-1.34884e-08
-1.84262e-08
-1.186e-08
-1.28231e-08
-1.01232e-08
-8.16727e-09
-8.30519e-09
-4.47905e-09
-6.44114e-09
-1.75403e-09
-4.57792e-09
4.40523e-11
-2.7784e-09
9.92826e-10
-1.12819e-09
1.22272e-09
2.5569e-10
9.30245e-10
1.21437e-09
3.91475e-10
1.53643e-09
9.39378e-10
1.33872e-10
-9.97243e-10
-3.7688e-11
-9.35703e-10
-8.91369e-10
4.59786e-10
-2.67859e-09
2.70002e-09
-5.5617e-09
5.44902e-09
-9.63108e-09
8.46133e-09
-1.49203e-08
1.15604e-08
-2.14193e-08
1.46222e-08
-2.90856e-08
1.75605e-08
-3.78531e-08
2.03167e-08
-4.76389e-08
2.28521e-08
-5.8349e-08
2.5142e-08
-6.98819e-08
2.71722e-08
-8.21323e-08
2.89357e-08
-9.49927e-08
3.04311e-08
-1.08356e-07
3.16607e-08
-1.22115e-07
3.26293e-08
-1.36167e-07
3.33436e-08
-1.50408e-07
3.38113e-08
-1.64742e-07
3.4041e-08
-1.79071e-07
3.40416e-08
-1.93305e-07
3.38218e-08
-2.07354e-07
3.33906e-08
-2.21133e-07
3.27567e-08
-2.34561e-07
3.19286e-08
-2.47559e-07
3.09147e-08
-2.60052e-07
2.9723e-08
-2.7197e-07
2.83616e-08
-2.83243e-07
2.68384e-08
-2.93808e-07
2.51614e-08
-3.03602e-07
2.33388e-08
-3.12568e-07
2.13787e-08
-3.20653e-07
1.92899e-08
-3.27807e-07
1.70816e-08
-3.33983e-07
1.47632e-08
-3.3914e-07
1.23451e-08
-3.43243e-07
9.83814e-09
-3.46258e-07
7.25416e-09
-3.4816e-07
4.60564e-09
-3.48928e-07
1.906e-09
-3.48548e-07
-8.30434e-10
-3.47012e-07
-3.58849e-09
-3.44317e-07
-6.35212e-09
-3.40471e-07
-9.10443e-09
-3.35484e-07
-1.18277e-08
-3.29379e-07
-1.45037e-08
-3.22184e-07
-1.71133e-08
-3.13935e-07
-1.96372e-08
-3.04676e-07
-2.20557e-08
-2.9446e-07
-2.43489e-08
-2.83349e-07
-2.64969e-08
-2.71411e-07
-2.84801e-08
-2.58722e-07
-3.02793e-08
-2.45368e-07
-3.18759e-08
-2.31439e-07
-3.32522e-08
-2.17033e-07
-3.43917e-08
-2.02256e-07
-3.5279e-08
-1.87216e-07
-3.59005e-08
-1.72028e-07
-3.62443e-08
-1.56811e-07
-3.63006e-08
-1.41686e-07
-3.60619e-08
-1.26775e-07
-3.55231e-08
-1.12203e-07
-3.46818e-08
-9.80917e-08
-3.35389e-08
-8.45632e-08
-3.20984e-08
-7.17344e-08
-3.03678e-08
-5.97174e-08
-2.8359e-08
-4.86167e-08
-2.60884e-08
-3.85272e-08
-2.35778e-08
-2.95317e-08
-2.08555e-08
-2.16973e-08
-1.79577e-08
-1.50715e-08
-1.4931e-08
-9.67788e-09
-1.18347e-08
-5.50997e-09
-8.74582e-09
-2.52419e-09
-5.76418e-09
-6.31481e-10
-3.02091e-09
3.12828e-10
-6.88618e-10
5.19811e-10
1.00739e-09
2.80226e-10
1.77602e-09
1.2196e-09
-9.85951e-11
-8.98648e-10
-8.40746e-10
-1.93555e-10
-2.54752e-09
2.16653e-09
-5.44185e-09
5.59435e-09
-9.66951e-09
9.67666e-09
-1.53111e-08
1.41029e-08
-2.23933e-08
1.86426e-08
-3.08995e-08
2.31283e-08
-4.07792e-08
2.74402e-08
-5.19563e-08
3.14938e-08
-6.43355e-08
3.52313e-08
-7.7808e-08
3.86145e-08
-9.22558e-08
4.162e-08
-1.07555e-07
4.42353e-08
-1.2358e-07
4.64557e-08
-1.40202e-07
4.82826e-08
-1.57294e-07
4.97214e-08
-1.74731e-07
5.07804e-08
-1.92389e-07
5.147e-08
-2.1015e-07
5.18017e-08
-2.27897e-07
5.1788e-08
-2.45516e-07
5.14415e-08
-2.62901e-07
5.0775e-08
-2.79945e-07
4.98013e-08
-2.9655e-07
4.85329e-08
-3.12617e-07
4.69823e-08
-3.28056e-07
4.51617e-08
-3.42778e-07
4.30832e-08
-3.56698e-07
4.0759e-08
-3.69738e-07
3.82013e-08
-3.81822e-07
3.54225e-08
-3.92879e-07
3.24356e-08
-4.02843e-07
2.9254e-08
-4.11653e-07
2.58916e-08
-4.19253e-07
2.23634e-08
-4.25593e-07
1.8685e-08
-4.30628e-07
1.48734e-08
-4.34321e-07
1.09466e-08
-4.36639e-07
6.92361e-09
-4.37558e-07
2.82502e-09
-4.37061e-07
-1.32745e-09
-4.35138e-07
-5.51073e-09
-4.3179e-07
-9.70051e-09
-4.27023e-07
-1.38713e-08
-4.20854e-07
-1.79964e-08
-4.1331e-07
-2.20481e-08
-4.04425e-07
-2.59982e-08
-3.94245e-07
-2.98173e-08
-3.82825e-07
-3.3476e-08
-3.70229e-07
-3.69446e-08
-3.56533e-07
-4.01934e-08
-3.4182e-07
-4.3193e-08
-3.26184e-07
-4.59149e-08
-3.09728e-07
-4.83315e-08
-2.92564e-07
-5.04165e-08
-2.7481e-07
-5.21454e-08
-2.56594e-07
-5.34955e-08
-2.38048e-07
-5.44468e-08
-2.1931e-07
-5.49818e-08
-2.00525e-07
-5.50863e-08
-1.81837e-07
-5.47494e-08
-1.63396e-07
-5.39642e-08
-1.4535e-07
-5.27279e-08
-1.27847e-07
-5.10422e-08
-1.11031e-07
-4.8914e-08
-9.50429e-08
-4.63558e-08
-8.00157e-08
-4.33862e-08
-6.60733e-08
-4.00309e-08
-5.33275e-08
-3.63235e-08
-4.18754e-08
-3.23076e-08
-3.17952e-08
-2.80379e-08
-2.31426e-08
-2.35836e-08
-1.59458e-08
-1.90315e-08
-1.02001e-08
-1.44916e-08
-5.86119e-09
-1.01031e-08
-2.83874e-09
-6.04337e-09
-9.87879e-10
-2.53948e-09
-1.01023e-10
1.20535e-10
1.02579e-10
1.57243e-09
1.32218e-09
-3.57127e-10
-5.41528e-10
-1.74488e-09
1.1942e-09
-4.40914e-09
4.83079e-09
-8.52667e-09
9.71189e-09
-1.42125e-08
1.53625e-08
-2.15264e-08
2.14168e-08
-3.048e-08
2.75962e-08
-4.10448e-08
3.36931e-08
-5.31592e-08
3.95547e-08
-6.6736e-08
4.50706e-08
-8.16678e-08
5.01631e-08
-9.78328e-08
5.47794e-08
-1.15098e-07
5.88856e-08
-1.33325e-07
6.24622e-08
-1.5237e-07
6.55008e-08
-1.72088e-07
6.80007e-08
-1.92335e-07
6.99675e-08
-2.12965e-07
7.14107e-08
-2.33838e-07
7.23431e-08
-2.54816e-07
7.27794e-08
-2.75763e-07
7.27356e-08
-2.9655e-07
7.22283e-08
-3.1705e-07
7.12746e-08
-3.3714e-07
6.98918e-08
-3.56704e-07
6.80969e-08
-3.75629e-07
6.59071e-08
-3.93806e-07
6.33392e-08
-4.11133e-07
6.04103e-08
-4.27512e-07
5.71374e-08
-4.42848e-07
5.35377e-08
-4.57055e-07
4.96289e-08
-4.70048e-07
4.54292e-08
-4.81752e-07
4.09577e-08
-4.92095e-07
3.62343e-08
-5.01011e-07
3.12801e-08
-5.08444e-07
2.61173e-08
-5.1434e-07
2.07699e-08
-5.18657e-07
1.52631e-08
-5.21357e-07
9.6241e-09
-5.22414e-07
3.88151e-09
-5.21807e-07
-1.93414e-09
-5.19527e-07
-7.79058e-09
-5.15574e-07
-1.36539e-08
-5.09957e-07
-1.94884e-08
-5.02696e-07
-2.52572e-08
-4.93822e-07
-3.09218e-08
-4.83378e-07
-3.64427e-08
-4.71415e-07
-4.17797e-08
-4.57999e-07
-4.68919e-08
-4.43206e-07
-5.17382e-08
-4.27121e-07
-5.62777e-08
-4.09844e-07
-6.047e-08
-3.91483e-07
-6.42758e-08
-3.72158e-07
-6.76571e-08
-3.51997e-07
-7.05778e-08
-3.31138e-07
-7.30044e-08
-3.09727e-07
-7.49058e-08
-2.87919e-07
-7.62548e-08
-2.65873e-07
-7.70278e-08
-2.43754e-07
-7.72054e-08
-2.2173e-07
-7.67732e-08
-1.99972e-07
-7.57224e-08
-1.7865e-07
-7.40497e-08
-1.57934e-07
-7.17584e-08
-1.37989e-07
-6.88589e-08
-1.18976e-07
-6.53694e-08
-1.01045e-07
-6.13167e-08
-8.43387e-08
-5.67373e-08
-6.89834e-08
-5.16788e-08
-5.50894e-08
-4.62016e-08
-4.2746e-08
-4.03813e-08
-3.20178e-08
-3.43118e-08
-2.294e-08
-2.81093e-08
-1.55136e-08
-2.1918e-08
-9.70015e-09
-1.59165e-08
-5.41601e-09
-1.03275e-08
-2.52687e-09
-5.42862e-09
-8.42002e-10
-1.56434e-09
-1.08315e-10
8.38745e-10
1.21386e-09
-6.24072e-10
8.25293e-11
-2.69345e-09
3.26358e-09
-6.373e-09
8.51034e-09
-1.17836e-08
1.51224e-08
-1.9e-08
2.2579e-08
-2.8053e-08
3.04697e-08
-3.89323e-08
3.84755e-08
-5.15923e-08
4.63531e-08
-6.59573e-08
5.39196e-08
-8.19266e-08
6.104e-08
-9.93805e-08
6.7617e-08
-1.18184e-07
7.35828e-08
-1.38191e-07
7.88926e-08
-1.59248e-07
8.35197e-08
-1.81198e-07
8.74506e-08
-2.0388e-07
9.06827e-08
-2.27133e-07
9.32207e-08
-2.50798e-07
9.50755e-08
-2.74717e-07
9.62619e-08
-2.98735e-07
9.67975e-08
-3.22702e-07
9.6702e-08
-3.4647e-07
9.59963e-08
-3.69897e-07
9.4702e-08
-3.92846e-07
9.2841e-08
-4.15185e-07
9.04354e-08
-4.36785e-07
8.75075e-08
-4.57525e-07
8.40794e-08
-4.77288e-07
8.01734e-08
-4.95963e-07
7.58121e-08
-5.13444e-07
7.10186e-08
-5.29632e-07
6.58164e-08
-5.44432e-07
6.02298e-08
-5.57759e-07
5.42842e-08
-5.69531e-07
4.80065e-08
-5.79676e-07
4.14248e-08
-5.88127e-07
3.45689e-08
-5.94828e-07
2.74706e-08
-5.99729e-07
2.01638e-08
-6.02789e-07
1.26843e-08
-6.03978e-07
5.07029e-09
-6.03274e-07
-2.63782e-09
-6.00667e-07
-1.03974e-08
-5.96157e-07
-1.81636e-08
-5.89756e-07
-2.58895e-08
-5.81487e-07
-3.35265e-08
-5.71385e-07
-4.1024e-08
-5.59497e-07
-4.83302e-08
-5.45884e-07
-5.53924e-08
-5.30619e-07
-6.2157e-08
-5.13787e-07
-6.85703e-08
-4.95486e-07
-7.45788e-08
-4.75827e-07
-8.01298e-08
-4.5493e-07
-8.5172e-08
-4.32932e-07
-8.9656e-08
-4.09975e-07
-9.35348e-08
-3.86214e-07
-9.67646e-08
-3.61815e-07
-9.93057e-08
-3.36947e-07
-1.01122e-07
-3.11791e-07
-1.02184e-07
-2.86529e-07
-1.02467e-07
-2.61351e-07
-1.01951e-07
-2.36447e-07
-1.00627e-07
-2.12006e-07
-9.84908e-08
-1.88217e-07
-9.55474e-08
-1.65264e-07
-9.18115e-08
-1.43326e-07
-8.73076e-08
-1.22571e-07
-8.20719e-08
-1.03155e-07
-7.61528e-08
-8.5221e-08
-6.9613e-08
-6.88912e-08
-6.25314e-08
-5.42667e-08
-5.50058e-08
-4.14225e-08
-4.7156e-08
-3.04037e-08
-3.91281e-08
-2.12211e-08
-3.11006e-08
-1.3847e-08
-2.32906e-08
-8.21163e-09
-1.59629e-08
-4.19897e-09
-9.44128e-09
-1.64451e-09
-4.11881e-09
-3.33422e-10
-4.7234e-10
8.80443e-10
-8.9e-10
9.72516e-10
-3.65268e-09
6.02626e-09
-8.37333e-09
1.3231e-08
-1.51129e-08
2.1862e-08
-2.39005e-08
3.13666e-08
-3.47319e-08
4.13011e-08
-4.75699e-08
5.13135e-08
-6.23474e-08
6.11306e-08
-7.89711e-08
7.05432e-08
-9.73249e-08
7.93938e-08
-1.17275e-07
8.75671e-08
-1.38673e-07
9.49809e-08
-1.6136e-07
1.0158e-07
-1.8517e-07
1.07329e-07
-2.0993e-07
1.12211e-07
-2.35468e-07
1.1622e-07
-2.61607e-07
1.1936e-07
-2.88175e-07
1.21643e-07
-3.14999e-07
1.23086e-07
-3.41909e-07
1.23708e-07
-3.68742e-07
1.23534e-07
-3.95334e-07
1.22589e-07
-4.21531e-07
1.20899e-07
-4.47181e-07
1.18491e-07
-4.72137e-07
1.15392e-07
-4.9626e-07
1.1163e-07
-5.19413e-07
1.07233e-07
-5.41469e-07
1.02229e-07
-5.62304e-07
9.6647e-08
-5.81801e-07
9.05161e-08
-5.99851e-07
8.38664e-08
-6.1635e-07
7.67291e-08
-6.31203e-07
6.91369e-08
-6.44321e-07
6.11239e-08
-6.55622e-07
5.27263e-08
-6.65036e-07
4.39824e-08
-6.72498e-07
3.49326e-08
-6.77954e-07
2.56203e-08
-6.81361e-07
1.60911e-08
-6.82684e-07
6.39368e-09
-6.81901e-07
-3.42068e-09
-6.79001e-07
-1.32979e-08
-6.73983e-07
-2.31811e-08
-6.66862e-07
-3.3011e-08
-6.57662e-07
-4.2726e-08
-6.46424e-07
-5.22624e-08
-6.33199e-07
-6.15551e-08
-6.18054e-07
-7.05373e-08
-6.0107e-07
-7.91418e-08
-5.82339e-07
-8.7301e-08
-5.6197e-07
-9.49477e-08
-5.40084e-07
-1.02016e-07
-5.16815e-07
-1.08441e-07
-4.92309e-07
-1.14161e-07
-4.66726e-07
-1.19118e-07
-4.40234e-07
-1.23256e-07
-4.13014e-07
-1.26526e-07
-3.85253e-07
-1.28883e-07
-3.57148e-07
-1.3029e-07
-3.28898e-07
-1.30716e-07
-3.00711e-07
-1.30138e-07
-2.72794e-07
-1.28544e-07
-2.45355e-07
-1.2593e-07
-2.186e-07
-1.22302e-07
-1.92731e-07
-1.17681e-07
-1.67942e-07
-1.12096e-07
-1.44418e-07
-1.05596e-07
-1.22331e-07
-9.82399e-08
-1.01837e-07
-9.01076e-08
-8.30711e-08
-8.1297e-08
-6.61483e-08
-7.19285e-08
-5.11559e-08
-6.21484e-08
-3.81512e-08
-5.21328e-08
-2.71585e-08
-4.20933e-08
-1.81657e-08
-3.22834e-08
-1.11217e-08
-2.3007e-08
-5.93455e-09
-1.46284e-08
-2.47178e-09
-7.58157e-09
-5.61869e-10
-2.38225e-09
3.18578e-10
-1.15016e-09
2.12267e-09
-4.60307e-09
9.47917e-09
-1.03694e-08
1.89973e-08
-1.84497e-08
2.99423e-08
-2.88251e-08
4.1742e-08
-4.14526e-08
5.39286e-08
-5.62645e-08
6.61254e-08
-7.31686e-08
7.80348e-08
-9.2051e-08
8.94255e-08
-1.12778e-07
1.00121e-07
-1.35201e-07
1.0999e-07
-1.59156e-07
1.18936e-07
-1.84472e-07
1.26896e-07
-2.10969e-07
1.33826e-07
-2.38463e-07
1.39705e-07
-2.66766e-07
1.44524e-07
-2.95692e-07
1.48286e-07
-3.25053e-07
1.51004e-07
-3.54665e-07
1.52697e-07
-3.84344e-07
1.53388e-07
-4.13914e-07
1.53104e-07
-4.43201e-07
1.51875e-07
-4.72034e-07
1.49732e-07
-5.00251e-07
1.46708e-07
-5.27693e-07
1.42834e-07
-5.54208e-07
1.38145e-07
-5.79649e-07
1.32674e-07
-6.03877e-07
1.26457e-07
-6.26758e-07
1.19528e-07
-6.48166e-07
1.11924e-07
-6.67981e-07
1.03681e-07
-6.86091e-07
9.4839e-08
-7.02392e-07
8.54377e-08
-7.16787e-07
7.55195e-08
-7.2919e-07
6.51294e-08
-7.39522e-07
5.43146e-08
-7.47715e-07
4.31254e-08
-7.5371e-07
3.16152e-08
-7.5746e-07
1.98405e-08
-7.58927e-07
7.86099e-09
-7.58088e-07
-4.25998e-09
-7.54929e-07
-1.64559e-08
-7.49453e-07
-2.86572e-08
-7.41673e-07
-4.07909e-08
-7.31618e-07
-5.27817e-08
-7.19328e-07
-6.45517e-08
-7.04863e-07
-7.60209e-08
-6.88292e-07
-8.71082e-08
-6.69702e-07
-9.77311e-08
-6.49196e-07
-1.07807e-07
-6.26888e-07
-1.17255e-07
-6.0291e-07
-1.25994e-07
-5.77407e-07
-1.33945e-07
-5.50536e-07
-1.41032e-07
-5.22468e-07
-1.47186e-07
-4.93387e-07
-1.52338e-07
-4.63485e-07
-1.56428e-07
-4.32965e-07
-1.59403e-07
-4.02039e-07
-1.61216e-07
-3.70924e-07
-1.61831e-07
-3.39841e-07
-1.61221e-07
-3.09015e-07
-1.5937e-07
-2.7867e-07
-1.56275e-07
-2.49029e-07
-1.51943e-07
-2.2031e-07
-1.464e-07
-1.92722e-07
-1.39684e-07
-1.66467e-07
-1.31851e-07
-1.41731e-07
-1.22976e-07
-1.18685e-07
-1.13154e-07
-9.74795e-08
-1.02503e-07
-7.82425e-08
-9.11656e-08
-6.10758e-08
-7.93151e-08
-4.60523e-08
-6.71563e-08
-3.32128e-08
-5.49328e-08
-2.25641e-08
-4.29321e-08
-1.40775e-08
-3.14935e-08
-7.68931e-09
-2.10166e-08
-3.30172e-09
-1.19692e-08
-7.8773e-10
-4.89623e-09
-4.69151e-10
-1.40229e-09
3.52495e-09
-5.53382e-09
1.36107e-08
-1.23366e-08
2.58001e-08
-2.17531e-08
3.93588e-08
-3.37154e-08
5.37043e-08
-4.81403e-08
6.83536e-08
-6.49267e-08
8.29118e-08
-8.39551e-08
9.70632e-08
-1.05088e-07
1.10559e-07
-1.28174e-07
1.23206e-07
-1.53045e-07
1.34861e-07
-1.79524e-07
1.45415e-07
-2.07425e-07
1.54796e-07
-2.36554e-07
1.62956e-07
-2.66716e-07
1.69867e-07
-2.97711e-07
1.75519e-07
-3.2934e-07
1.79915e-07
-3.61403e-07
1.83068e-07
-3.93705e-07
1.84999e-07
-4.26051e-07
1.85734e-07
-4.58251e-07
1.85305e-07
-4.90121e-07
1.83745e-07
-5.2148e-07
1.81091e-07
-5.52153e-07
1.7738e-07
-5.8197e-07
1.72651e-07
-6.1077e-07
1.66944e-07
-6.38395e-07
1.603e-07
-6.64696e-07
1.52758e-07
-6.8953e-07
1.44362e-07
-7.12761e-07
1.35155e-07
-7.34262e-07
1.25182e-07
-7.53911e-07
1.14489e-07
-7.71599e-07
1.03125e-07
-7.87221e-07
9.11418e-08
-8.00685e-07
7.85929e-08
-8.11905e-07
6.55355e-08
-8.2081e-07
5.20302e-08
-8.27336e-07
3.81413e-08
-8.31433e-07
2.39367e-08
-8.3306e-07
9.48824e-09
-8.32192e-07
-5.12813e-09
-8.28815e-07
-1.98327e-08
-8.2293e-07
-3.45419e-08
-8.14552e-07
-4.91688e-08
-8.03711e-07
-6.36231e-08
-7.90451e-07
-7.78117e-08
-7.74833e-07
-9.16393e-08
-7.56932e-07
-1.05009e-07
-7.36841e-07
-1.17822e-07
-7.14667e-07
-1.29981e-07
-6.90534e-07
-1.41388e-07
-6.64581e-07
-1.51947e-07
-6.36962e-07
-1.61564e-07
-6.07844e-07
-1.7015e-07
-5.7741e-07
-1.77619e-07
-5.45855e-07
-1.83893e-07
-5.13385e-07
-1.88898e-07
-4.80215e-07
-1.92572e-07
-4.46571e-07
-1.9486e-07
-4.12685e-07
-1.95717e-07
-3.78793e-07
-1.95113e-07
-3.45136e-07
-1.93028e-07
-3.11953e-07
-1.89458e-07
-2.79482e-07
-1.84414e-07
-2.47957e-07
-1.77925e-07
-2.17605e-07
-1.70036e-07
-1.88641e-07
-1.60815e-07
-1.61267e-07
-1.50349e-07
-1.3567e-07
-1.38751e-07
-1.12016e-07
-1.26157e-07
-9.0449e-08
-1.12733e-07
-7.10871e-08
-9.86769e-08
-5.40207e-08
-8.42228e-08
-3.93096e-08
-6.96439e-08
-2.69826e-08
-5.52592e-08
-1.70363e-08
-4.14398e-08
-9.43664e-09
-2.86163e-08
-4.12183e-09
-1.7284e-08
-1.00806e-09
-8.01e-09
-1.47721e-09
-1.64556e-09
5.17052e-09
-6.43945e-09
1.84045e-08
-1.42614e-08
3.3622e-08
-2.49983e-08
5.00957e-08
-3.85345e-08
6.72405e-08
-5.47458e-08
8.45648e-08
-7.34963e-08
1.01662e-07
-9.46374e-08
1.18204e-07
-1.18007e-07
1.33929e-07
-1.43432e-07
1.48631e-07
-1.70726e-07
1.62155e-07
-1.99697e-07
1.74386e-07
-2.30142e-07
1.85242e-07
-2.61857e-07
1.94671e-07
-2.94632e-07
2.02642e-07
-3.28256e-07
2.09142e-07
-3.62517e-07
2.14176e-07
-3.97207e-07
2.17757e-07
-4.32117e-07
2.19909e-07
-4.67043e-07
2.2066e-07
-5.01785e-07
2.20047e-07
-5.36147e-07
2.18107e-07
-5.69938e-07
2.14882e-07
-6.02974e-07
2.10416e-07
-6.35076e-07
2.04753e-07
-6.66072e-07
1.9794e-07
-6.95795e-07
1.90023e-07
-7.24088e-07
1.81051e-07
-7.50798e-07
1.71073e-07
-7.75783e-07
1.6014e-07
-7.98907e-07
1.48305e-07
-8.20042e-07
1.35624e-07
-8.3907e-07
1.22153e-07
-8.55881e-07
1.07953e-07
-8.70377e-07
9.30888e-08
-8.82468e-07
7.76268e-08
-8.92077e-07
6.16388e-08
-8.99136e-07
4.52005e-08
-9.03592e-07
2.8392e-08
-9.05401e-07
1.12978e-08
-9.04537e-07
-5.99271e-09
-9.00983e-07
-2.3386e-08
-8.94741e-07
-4.07839e-08
-8.85826e-07
-5.80845e-08
-8.74267e-07
-7.51817e-08
-8.60112e-07
-9.19667e-08
-8.43424e-07
-1.08328e-07
-8.24281e-07
-1.24151e-07
-8.02782e-07
-1.39322e-07
-7.79038e-07
-1.53725e-07
-7.53179e-07
-1.67247e-07
-7.25352e-07
-1.79774e-07
-6.95718e-07
-1.91198e-07
-6.64454e-07
-2.01413e-07
-6.31753e-07
-2.1032e-07
-5.9782e-07
-2.17826e-07
-5.62872e-07
-2.23846e-07
-5.27138e-07
-2.28306e-07
-4.90856e-07
-2.31142e-07
-4.54272e-07
-2.32302e-07
-4.17636e-07
-2.31749e-07
-3.81202e-07
-2.29461e-07
-3.45227e-07
-2.25433e-07
-3.09964e-07
-2.19678e-07
-2.75661e-07
-2.12227e-07
-2.42562e-07
-2.03135e-07
-2.10898e-07
-1.92479e-07
-1.80888e-07
-1.8036e-07
-1.52734e-07
-1.66905e-07
-1.2662e-07
-1.52271e-07
-1.02707e-07
-1.36646e-07
-8.11313e-08
-1.20252e-07
-6.20033e-08
-1.03351e-07
-4.54042e-08
-8.62429e-08
-3.13865e-08
-6.92769e-08
-1.99735e-08
-5.28527e-08
-1.11622e-08
-3.74277e-08
-4.92597e-09
-2.35202e-08
-1.22168e-09
-1.17143e-08
-2.6989e-09
-1.87991e-09
7.05043e-09
-7.31774e-09
2.38424e-08
-1.61366e-08
4.24408e-08
-2.81716e-08
6.21307e-08
-4.32604e-08
8.23293e-08
-6.12383e-08
1.02543e-07
-8.19342e-08
1.22358e-07
-1.05169e-07
1.41439e-07
-1.30755e-07
1.59515e-07
-1.58496e-07
1.76372e-07
-1.88187e-07
1.91846e-07
-2.19617e-07
2.05816e-07
-2.52571e-07
2.18196e-07
-2.86829e-07
2.28928e-07
-3.22168e-07
2.37981e-07
-3.58367e-07
2.45341e-07
-3.95202e-07
2.51011e-07
-4.32453e-07
2.55009e-07
-4.69903e-07
2.57359e-07
-5.07338e-07
2.58094e-07
-5.44546e-07
2.57255e-07
-5.81324e-07
2.54885e-07
-6.17471e-07
2.5103e-07
-6.52794e-07
2.45739e-07
-6.87106e-07
2.39065e-07
-7.20224e-07
2.31059e-07
-7.51977e-07
2.21775e-07
-7.82196e-07
2.1127e-07
-8.10724e-07
1.996e-07
-8.37408e-07
1.86824e-07
-8.62107e-07
1.73004e-07
-8.84686e-07
1.58203e-07
-9.05021e-07
1.42488e-07
-9.22997e-07
1.25929e-07
-9.38509e-07
1.08601e-07
-9.51464e-07
9.05811e-08
-9.61777e-07
7.19528e-08
-9.6938e-07
5.28035e-08
-9.74214e-07
3.3226e-08
-9.76235e-07
1.33182e-08
-9.75411e-07
-6.8167e-09
-9.71726e-07
-2.70706e-08
-9.6518e-07
-4.73301e-08
-9.55787e-07
-6.74775e-08
-9.43578e-07
-8.73907e-08
-9.28601e-07
-1.06944e-07
-9.1092e-07
-1.26008e-07
-8.90619e-07
-1.44453e-07
-8.67796e-07
-1.62145e-07
-8.42569e-07
-1.78952e-07
-8.15073e-07
-1.94743e-07
-7.8546e-07
-2.09387e-07
-7.53899e-07
-2.22759e-07
-7.20575e-07
-2.34737e-07
-6.85689e-07
-2.45206e-07
-6.49456e-07
-2.54059e-07
-6.12104e-07
-2.61198e-07
-5.73874e-07
-2.66537e-07
-5.35014e-07
-2.70001e-07
-4.95785e-07
-2.71531e-07
-4.5645e-07
-2.71084e-07
-4.17278e-07
-2.68633e-07
-3.7854e-07
-2.64171e-07
-3.40504e-07
-2.57713e-07
-3.03437e-07
-2.49295e-07
-2.67596e-07
-2.38976e-07
-2.3323e-07
-2.26845e-07
-2.00575e-07
-2.13014e-07
-1.69852e-07
-1.97628e-07
-1.41262e-07
-1.80861e-07
-1.14985e-07
-1.62923e-07
-9.11786e-08
-1.44059e-07
-6.99734e-08
-1.24556e-07
-5.14742e-08
-1.04742e-07
-3.57587e-08
-8.49925e-08
-2.28781e-08
-6.57333e-08
-1.28601e-08
-4.74457e-08
-5.71211e-09
-3.06681e-08
-1.4285e-09
-1.59979e-08
-4.12741e-09
-2.10566e-09
9.15609e-09
-8.1684e-09
2.99051e-08
-1.79598e-08
5.22323e-08
-3.12664e-08
7.54372e-08
-4.78814e-08
9.89444e-08
-6.76003e-08
1.22262e-07
-9.02168e-08
1.44975e-07
-1.15521e-07
1.66744e-07
-1.43299e-07
1.87292e-07
-1.7333e-07
2.06402e-07
-2.05389e-07
2.23906e-07
-2.39248e-07
2.39676e-07
-2.74676e-07
2.53623e-07
-3.11437e-07
2.6569e-07
-3.49298e-07
2.75842e-07
-3.88023e-07
2.84066e-07
-4.27381e-07
2.90369e-07
-4.67139e-07
2.94767e-07
-5.07071e-07
2.97291e-07
-5.46953e-07
2.97976e-07
-5.86566e-07
2.96868e-07
-6.25697e-07
2.94015e-07
-6.64137e-07
2.8947e-07
-7.01684e-07
2.83287e-07
-7.38144e-07
2.75525e-07
-7.73327e-07
2.66242e-07
-8.07053e-07
2.55501e-07
-8.39148e-07
2.43365e-07
-8.69445e-07
2.29898e-07
-8.97788e-07
2.15167e-07
-9.24027e-07
1.99243e-07
-9.48023e-07
1.82198e-07
-9.69644e-07
1.64109e-07
-9.88771e-07
1.45056e-07
-1.00529e-06
1.25123e-07
-1.01911e-06
1.04401e-07
-1.03014e-06
8.29824e-08
-1.03831e-06
6.09686e-08
-1.04355e-06
3.84652e-08
-1.04581e-06
1.55837e-08
-1.04507e-06
-7.55834e-09
-1.0413e-06
-3.08376e-08
-1.03451e-06
-5.41251e-08
-1.0247e-06
-7.72867e-08
-1.01191e-06
-1.00183e-07
-9.96179e-07
-1.22672e-07
-9.77581e-07
-1.44606e-07
-9.56197e-07
-1.65836e-07
-9.3213e-07
-1.86212e-07
-9.055e-07
-2.05582e-07
-8.76446e-07
-2.23796e-07
-8.45127e-07
-2.40707e-07
-8.11715e-07
-2.56171e-07
-7.76404e-07
-2.70048e-07
-7.39403e-07
-2.82208e-07
-7.00934e-07
-2.92528e-07
-6.61237e-07
-3.00896e-07
-6.20561e-07
-3.07212e-07
-5.79169e-07
-3.11393e-07
-5.37332e-07
-3.13368e-07
-4.95329e-07
-3.13088e-07
-4.53441e-07
-3.10521e-07
-4.11954e-07
-3.05658e-07
-3.71154e-07
-2.98513e-07
-3.31321e-07
-2.89127e-07
-2.92732e-07
-2.77566e-07
-2.55653e-07
-2.63924e-07
-2.20338e-07
-2.48329e-07
-1.87026e-07
-2.3094e-07
-1.55939e-07
-2.11948e-07
-1.27278e-07
-1.91583e-07
-1.01222e-07
-1.70116e-07
-7.79239e-08
-1.47854e-07
-5.75139e-08
-1.25152e-07
-4.00955e-08
-1.02411e-07
-2.57484e-08
-8.00805e-08
-1.45302e-08
-5.86639e-08
-6.48099e-09
-3.87173e-08
-1.62909e-09
-2.08498e-08
-5.75649e-09
-2.32338e-09
1.14795e-08
-8.99222e-09
3.6574e-08
-1.9731e-08
6.2971e-08
-3.42807e-08
8.9987e-08
-5.23925e-08
1.17056e-07
-7.38231e-08
1.43692e-07
-9.83315e-08
1.69483e-07
-1.25677e-07
1.94089e-07
-1.55618e-07
2.17233e-07
-1.8791e-07
2.38695e-07
-2.22308e-07
2.58304e-07
-2.58565e-07
2.75932e-07
-2.96431e-07
2.9149e-07
-3.3566e-07
3.04918e-07
-3.76003e-07
3.16184e-07
-4.17213e-07
3.25277e-07
-4.59048e-07
3.32204e-07
-5.01266e-07
3.36985e-07
-5.4363e-07
3.39655e-07
-5.85909e-07
3.40255e-07
-6.27874e-07
3.38834e-07
-6.69305e-07
3.35446e-07
-7.09985e-07
3.3015e-07
-7.49706e-07
3.23007e-07
-7.88264e-07
3.14083e-07
-8.25465e-07
3.03444e-07
-8.61121e-07
2.91157e-07
-8.95052e-07
2.77295e-07
-9.27085e-07
2.61931e-07
-9.57056e-07
2.45139e-07
-9.84812e-07
2.26999e-07
-1.01021e-06
2.07593e-07
-1.0331e-06
1.87006e-07
-1.05338e-06
1.6533e-07
-1.07091e-06
1.4266e-07
-1.08561e-06
1.19096e-07
-1.09737e-06
9.47461e-08
-1.10613e-06
6.97217e-08
-1.1118e-06
4.41425e-08
-1.11435e-06
1.8134e-08
-1.11374e-06
-8.17123e-09
-1.10994e-06
-3.46346e-08
-1.10296e-06
-6.11108e-08
-1.0928e-06
-8.74491e-08
-1.07949e-06
-1.13493e-07
-1.06308e-06
-1.39081e-07
-1.04364e-06
-1.64049e-07
-1.02124e-06
-1.88228e-07
-9.96008e-07
-2.11448e-07
-9.6805e-07
-2.3354e-07
-9.37512e-07
-2.54334e-07
-9.04556e-07
-2.73663e-07
-8.69362e-07
-2.91364e-07
-8.32128e-07
-3.07282e-07
-7.9307e-07
-3.21266e-07
-7.52419e-07
-3.33179e-07
-7.10423e-07
-3.42892e-07
-6.67342e-07
-3.50293e-07
-6.2345e-07
-3.55285e-07
-5.79031e-07
-3.57788e-07
-5.34375e-07
-3.57744e-07
-4.8978e-07
-3.55115e-07
-4.45547e-07
-3.49891e-07
-4.01977e-07
-3.42084e-07
-3.59369e-07
-3.31736e-07
-3.18015e-07
-3.18919e-07
-2.78202e-07
-3.03738e-07
-2.40202e-07
-2.86329e-07
-2.04277e-07
-2.66865e-07
-1.70668e-07
-2.45557e-07
-1.39598e-07
-2.22653e-07
-1.1127e-07
-1.98443e-07
-8.58627e-08
-1.73261e-07
-6.35299e-08
-1.47485e-07
-4.44028e-08
-1.21538e-07
-2.85892e-08
-9.58941e-08
-1.61764e-08
-7.10767e-08
-7.23513e-09
-4.76586e-08
-1.82443e-09
-2.62605e-08
-7.58092e-09
-2.53368e-09
1.40131e-08
-9.79066e-09
4.3831e-08
-2.14518e-08
7.46322e-08
-3.72159e-08
1.05751e-07
-5.67936e-08
1.36634e-07
-7.99043e-08
1.66803e-07
-1.06273e-07
1.95852e-07
-1.35629e-07
2.23445e-07
-1.67702e-07
2.49306e-07
-2.02225e-07
2.73218e-07
-2.3893e-07
2.95009e-07
-2.77552e-07
3.14554e-07
-3.17825e-07
3.31763e-07
-3.59486e-07
3.46579e-07
-4.02274e-07
3.58972e-07
-4.45931e-07
3.68934e-07
-4.90203e-07
3.76475e-07
-5.34838e-07
3.81621e-07
-5.79592e-07
3.84409e-07
-6.24223e-07
3.84886e-07
-6.68496e-07
3.83107e-07
-7.12183e-07
3.79132e-07
-7.5506e-07
3.73027e-07
-7.96912e-07
3.64859e-07
-8.3753e-07
3.54701e-07
-8.76712e-07
3.42626e-07
-9.14264e-07
3.2871e-07
-9.50001e-07
3.13032e-07
-9.83745e-07
2.95674e-07
-1.01533e-06
2.7672e-07
-1.04458e-06
2.56257e-07
-1.07137e-06
2.34378e-07
-1.09554e-06
2.11177e-07
-1.11697e-06
1.86757e-07
-1.13553e-06
1.61223e-07
-1.15112e-06
1.34687e-07
-1.16364e-06
1.0727e-07
-1.17302e-06
7.90953e-08
-1.17917e-06
5.02969e-08
-1.18205e-06
2.10145e-08
-1.18162e-06
-8.60436e-09
-1.17785e-06
-3.84052e-08
-1.17073e-06
-6.82264e-08
-1.16028e-06
-9.78997e-08
-1.14652e-06
-1.27251e-07
-1.1295e-06
-1.561e-07
-1.10929e-06
-1.84264e-07
-1.08596e-06
-2.11554e-07
-1.05963e-06
-2.37781e-07
-1.03042e-06
-2.62755e-07