/*--------------------------------*- C++ -*----------------------------------*\
  =========                 |
  \\      /  F ield         | OpenFOAM: The Open Source CFD Toolbox
   \\    /   O peration     | Website:  https://openfoam.org
    \\  /    A nd           | Version:  9
     \\/     M anipulation  |
\*---------------------------------------------------------------------------*/
FoamFile
{
    format      ascii;
    class       volVectorField;
    location    "0.4";
    object      U;
}
// * * * * * * * * * * * * * * * * * * * * * * * * * * * * * * * * * * * * * //

dimensions      [0 1 -1 0 0 0 0];

internalField   nonuniform List<vector> 
6400
(
(7.57903e-06 -7.56367e-06 0)
(3.0214e-05 -1.43953e-05 0)
(5.84863e-05 -1.36038e-05 0)
(7.72761e-05 -8.73572e-06 0)
(7.86504e-05 -2.14585e-06 0)
(5.97361e-05 4.96339e-06 0)
(1.97713e-05 1.19909e-05 0)
(-4.08833e-05 1.86382e-05 0)
(-0.000121189 2.47646e-05 0)
(-0.000219724 3.03083e-05 0)
(-0.000334863 3.52504e-05 0)
(-0.000464883 3.95942e-05 0)
(-0.000608029 4.33555e-05 0)
(-0.000762552 4.6556e-05 0)
(-0.000926743 4.92215e-05 0)
(-0.00109894 5.13799e-05 0)
(-0.00127755 5.30584e-05 0)
(-0.00146104 5.42845e-05 0)
(-0.00164794 5.5083e-05 0)
(-0.00183686 5.54775e-05 0)
(-0.00202648 5.54908e-05 0)
(-0.00221552 5.51436e-05 0)
(-0.0024028 5.44549e-05 0)
(-0.00258715 5.34417e-05 0)
(-0.00276748 5.21196e-05 0)
(-0.00294276 5.05032e-05 0)
(-0.00311197 4.86054e-05 0)
(-0.00327417 4.64384e-05 0)
(-0.00342845 4.4014e-05 0)
(-0.00357393 4.1343e-05 0)
(-0.00370979 3.84368e-05 0)
(-0.00383524 3.53068e-05 0)
(-0.00394953 3.1964e-05 0)
(-0.00405196 2.84215e-05 0)
(-0.00414189 2.46923e-05 0)
(-0.0042187 2.07899e-05 0)
(-0.00428185 1.67305e-05 0)
(-0.00433085 1.25309e-05 0)
(-0.00436527 8.20987e-06 0)
(-0.00438477 3.78888e-06 0)
(-0.00438905 -7.09422e-07 0)
(-0.00437793 -5.26188e-06 0)
(-0.00435128 -9.84198e-06 0)
(-0.0043091 -1.44209e-05 0)
(-0.00425145 -1.89693e-05 0)
(-0.00417853 -2.34561e-05 0)
(-0.00409061 -2.78477e-05 0)
(-0.00398811 -3.21097e-05 0)
(-0.00387153 -3.62077e-05 0)
(-0.00374151 -4.01055e-05 0)
(-0.0035988 -4.37668e-05 0)
(-0.00344427 -4.71558e-05 0)
(-0.00327891 -5.02374e-05 0)
(-0.0031038 -5.29761e-05 0)
(-0.00292017 -5.53379e-05 0)
(-0.00272932 -5.72913e-05 0)
(-0.00253268 -5.88067e-05 0)
(-0.00233175 -5.98563e-05 0)
(-0.0021281 -6.0415e-05 0)
(-0.00192341 -6.04621e-05 0)
(-0.00171938 -5.99801e-05 0)
(-0.00151778 -5.89546e-05 0)
(-0.00132041 -5.73749e-05 0)
(-0.00112908 -5.52355e-05 0)
(-0.000945589 -5.25359e-05 0)
(-0.000771751 -4.92799e-05 0)
(-0.000609324 -4.54754e-05 0)
(-0.00046001 -4.11362e-05 0)
(-0.000325436 -3.6283e-05 0)
(-0.000207116 -3.09442e-05 0)
(-0.00010642 -2.51586e-05 0)
(-2.45214e-05 -1.8981e-05 0)
(3.76723e-05 -1.24933e-05 0)
(7.96238e-05 -5.82046e-06 0)
(0.000101342 8.27684e-07 0)
(0.000103657 7.08973e-06 0)
(8.86265e-05 1.23243e-05 0)
(6.04058e-05 1.53515e-05 0)
(2.78773e-05 1.4059e-05 0)
(6.03299e-06 6.03505e-06 0)
(1.44485e-05 -3.02146e-05 0)
(5.01208e-05 -4.99875e-05 0)
(8.40828e-05 -4.01878e-05 0)
(9.08677e-05 -1.32052e-05 0)
(5.54305e-05 2.25958e-05 0)
(-2.93345e-05 6.21249e-05 0)
(-0.000166339 0.000102326 0)
(-0.000355741 0.000141379 0)
(-0.000595822 0.000178213 0)
(-0.000883648 0.000212208 0)
(-0.00121553 0.000243027 0)
(-0.00158733 0.000270508 0)
(-0.00199467 0.000294602 0)
(-0.00243306 0.000315332 0)
(-0.00289802 0.000332769 0)
(-0.00338511 0.000347013 0)
(-0.00389002 0.000358181 0)
(-0.00440856 0.0003664 0)
(-0.00493669 0.000371799 0)
(-0.00547051 0.000374508 0)
(-0.0060063 0.000374651 0)
(-0.00654049 0.000372349 0)
(-0.00706967 0.000367715 0)
(-0.00759058 0.000360856 0)
(-0.00810008 0.000351874 0)
(-0.00859521 0.000340864 0)
(-0.00907309 0.000327917 0)
(-0.00953101 0.000313117 0)
(-0.00996637 0.000296551 0)
(-0.0103767 0.000278299 0)
(-0.0107596 0.000258445 0)
(-0.0111128 0.000237073 0)
(-0.0114344 0.00021427 0)
(-0.0117222 0.00019013 0)
(-0.0119745 0.00016475 0)
(-0.0121895 0.000138234 0)
(-0.0123659 0.000110697 0)
(-0.0125022 8.22625e-05 0)
(-0.0125972 5.30627e-05 0)
(-0.0126501 2.32422e-05 0)
(-0.0126601 -7.04308e-06 0)
(-0.0126266 -3.76273e-05 0)
(-0.0125495 -6.83332e-05 0)
(-0.0124288 -9.89716e-05 0)
(-0.0122646 -0.000129344 0)
(-0.0120577 -0.000159242 0)
(-0.0118087 -0.000188451 0)
(-0.0115191 -0.000216746 0)
(-0.0111901 -0.0002439 0)
(-0.0108236 -0.000269682 0)
(-0.0104218 -0.000293861 0)
(-0.00998716 -0.000316205 0)
(-0.00952234 -0.000336489 0)
(-0.00903049 -0.000354491 0)
(-0.00851497 -0.000370001 0)
(-0.00797944 -0.000382817 0)
(-0.00742782 -0.000392757 0)
(-0.00686428 -0.000399649 0)
(-0.00629318 -0.000403347 0)
(-0.0057191 -0.000403723 0)
(-0.00514674 -0.000400677 0)
(-0.00458093 -0.000394131 0)
(-0.00402655 -0.000384041 0)
(-0.00348854 -0.000370391 0)
(-0.00297179 -0.0003532 0)
(-0.00248114 -0.000332526 0)
(-0.00202128 -0.000308463 0)
(-0.00159672 -0.000281156 0)
(-0.00121167 -0.000250803 0)
(-0.00086998 -0.000217669 0)
(-0.000575025 -0.000182109 0)
(-0.000329535 -0.0001446 0)
(-0.000135403 -0.000105796 0)
(6.59965e-06 -6.66167e-05 0)
(9.72346e-05 -2.84079e-05 0)
(0.00013937 6.81587e-06 0)
(0.000138675 3.597e-05 0)
(0.000104739 5.4282e-05 0)
(5.44978e-05 5.45019e-05 0)
(1.40217e-05 2.78327e-05 0)
(1.37809e-05 -5.86732e-05 0)
(4.07629e-05 -8.41061e-05 0)
(4.98967e-05 -4.9111e-05 0)
(1.31583e-05 2.27687e-05 0)
(-8.6851e-05 0.000115578 0)
(-0.000259357 0.000218474 0)
(-0.000508629 0.000324237 0)
(-0.000835331 0.000428157 0)
(-0.00123749 0.000527207 0)
(-0.00171128 0.000619473 0)
(-0.00225166 0.000703786 0)
(-0.00285275 0.000779485 0)
(-0.00350821 0.000846246 0)
(-0.00421141 0.000903982 0)
(-0.00495561 0.000952762 0)
(-0.00573411 0.00099276 0)
(-0.00654027 0.00102422 0)
(-0.00736762 0.00104743 0)
(-0.00820985 0.00106271 0)
(-0.00906089 0.00107036 0)
(-0.00991486 0.00107072 0)
(-0.0107661 0.00106409 0)
(-0.0116092 0.00105079 0)
(-0.012439 0.0010311 0)
(-0.0132505 0.0010053 0)
(-0.0140388 0.000973672 0)
(-0.0147996 0.000936462 0)
(-0.0155283 0.000893926 0)
(-0.0162208 0.000846309 0)
(-0.0168732 0.000793855 0)
(-0.0174818 0.000736811 0)
(-0.0180428 0.000675428 0)
(-0.0185531 0.00060997 0)
(-0.0190095 0.00054071 0)
(-0.0194091 0.000467941 0)
(-0.0197493 0.000391976 0)
(-0.0200277 0.00031315 0)
(-0.0202423 0.000231823 0)
(-0.0203912 0.000148384 0)
(-0.020473 6.32502e-05 0)
(-0.0204865 -2.31304e-05 0)
(-0.0204312 -0.000110279 0)
(-0.0203065 -0.00019769 0)
(-0.0201126 -0.000284826 0)
(-0.01985 -0.000371124 0)
(-0.0195196 -0.000455997 0)
(-0.0191229 -0.000538836 0)
(-0.0186618 -0.000619016 0)
(-0.0181386 -0.0006959 0)
(-0.0175563 -0.000768842 0)
(-0.0169183 -0.000837199 0)
(-0.0162284 -0.00090033 0)
(-0.0154911 -0.000957608 0)
(-0.0147111 -0.00100842 0)
(-0.0138939 -0.00105219 0)
(-0.013045 -0.00108837 0)
(-0.0121708 -0.00111645 0)
(-0.0112777 -0.00113597 0)
(-0.0103724 -0.00114654 0)
(-0.00946223 -0.00114781 0)
(-0.00855438 -0.00113953 0)
(-0.00765636 -0.0011215 0)
(-0.00677574 -0.00109361 0)
(-0.00592011 -0.00105587 0)
(-0.00509701 -0.00100836 0)
(-0.00431383 -0.000951286 0)
(-0.00357772 -0.00088497 0)
(-0.00289548 -0.000809883 0)
(-0.00227341 -0.000726662 0)
(-0.00171719 -0.000636151 0)
(-0.0012317 -0.000539456 0)
(-0.00082075 -0.000438034 0)
(-0.000486827 -0.000333821 0)
(-0.000230687 -0.000229431 0)
(-5.08489e-05 -0.000128465 0)
(5.70527e-05 -3.59544e-05 0)
(0.000100969 4.10019e-05 0)
(9.33987e-05 9.24643e-05 0)
(5.46795e-05 0.000104823 0)
(1.53661e-05 6.03404e-05 0)
(9.10348e-06 -7.7985e-05 0)
(1.43663e-05 -9.15094e-05 0)
(-2.10757e-05 -1.26054e-05 0)
(-0.000122552 0.000124208 0)
(-0.000306885 0.000295394 0)
(-0.000583809 0.000484102 0)
(-0.000957951 0.000678472 0)
(-0.00143002 0.000870342 0)
(-0.00199772 0.00105419 0)
(-0.00265655 0.00122632 0)
(-0.00340044 0.00138436 0)
(-0.00422221 0.00152685 0)
(-0.00511398 0.00165298 0)
(-0.00606742 0.0017624 0)
(-0.00707398 0.00185509 0)
(-0.00812505 0.00193125 0)
(-0.00921204 0.00199124 0)
(-0.0103265 0.00203551 0)
(-0.0114602 0.00206458 0)
(-0.0126052 0.00207901 0)
(-0.0137535 0.00207936 0)
(-0.0148979 0.0020662 0)
(-0.0160309 0.0020401 0)
(-0.0171457 0.0020016 0)
(-0.0182355 0.00195122 0)
(-0.0192941 0.00188949 0)
(-0.0203152 0.0018169 0)
(-0.0212931 0.00173394 0)
(-0.022222 0.00164109 0)
(-0.0230968 0.00153884 0)
(-0.0239123 0.00142769 0)
(-0.0246638 0.00130812 0)
(-0.0253469 0.00118067 0)
(-0.0259574 0.00104588 0)
(-0.0264915 0.000904331 0)
(-0.0269456 0.000756651 0)
(-0.0273166 0.000603498 0)
(-0.0276019 0.000445586 0)
(-0.0277991 0.000283676 0)
(-0.0279062 0.000118585 0)
(-0.027922 -4.88122e-05 0)
(-0.0278454 -0.000217589 0)
(-0.0276762 -0.000386761 0)
(-0.0274143 -0.000555292 0)
(-0.0270607 -0.000722098 0)
(-0.0266165 -0.00088605 0)
(-0.0260839 -0.00104598 0)
(-0.0254653 -0.0012007 0)
(-0.024764 -0.00134898 0)
(-0.0239839 -0.0014896 0)
(-0.0231295 -0.00162133 0)
(-0.0222061 -0.00174296 0)
(-0.0212194 -0.0018533 0)
(-0.0201759 -0.00195119 0)
(-0.0190827 -0.00203553 0)
(-0.0179473 -0.00210531 0)
(-0.0167779 -0.00215956 0)
(-0.015583 -0.00219743 0)
(-0.0143716 -0.00221819 0)
(-0.013153 -0.0022212 0)
(-0.0119369 -0.00220599 0)
(-0.010733 -0.00217224 0)
(-0.0095512 -0.00211978 0)
(-0.00840145 -0.00204864 0)
(-0.00729351 -0.00195904 0)
(-0.00623694 -0.00185142 0)
(-0.00524096 -0.00172648 0)
(-0.00431427 -0.0015852 0)
(-0.00346491 -0.00142888 0)
(-0.00270002 -0.00125924 0)
(-0.00202568 -0.00107849 0)
(-0.00144656 -0.00088949 0)
(-0.000965599 -0.000695948 0)
(-0.000583615 -0.00050273 0)
(-0.000298748 -0.00031628 0)
(-0.000105861 -0.000145217 0)
(4.09009e-06 -1.11506e-06 0)
(4.48691e-05 0.000100623 0)
(3.75651e-05 0.000139784 0)
(1.25585e-05 8.89205e-05 0)
(2.70282e-06 -8.02344e-05 0)
(-2.1042e-05 -5.70001e-05 0)
(-0.000113748 8.71274e-05 0)
(-0.000294367 0.000308592 0)
(-0.000577041 0.000577099 0)
(-0.000970771 0.000870226 0)
(-0.00147965 0.0011716 0)
(-0.00210388 0.00146951 0)
(-0.00284059 0.00175573 0)
(-0.00368458 0.00202455 0)
(-0.00462886 0.00227213 0)
(-0.00566519 0.00249599 0)
(-0.00678441 0.00269467 0)
(-0.0079768 0.0028674 0)
(-0.00923229 0.00301397 0)
(-0.0105407 0.00313455 0)
(-0.0118918 0.00322954 0)
(-0.0132754 0.00329956 0)
(-0.0146816 0.00334533 0)
(-0.0161007 0.00336766 0)
(-0.0175233 0.0033674 0)
(-0.0189402 0.0033454 0)
(-0.0203424 0.00330251 0)
(-0.0217216 0.0032396 0)
(-0.0230696 0.00315748 0)
(-0.0243783 0.00305699 0)
(-0.0256404 0.00293891 0)
(-0.0268485 0.00280405 0)
(-0.0279958 0.00265318 0)
(-0.0290758 0.00248711 0)
(-0.0300822 0.00230663 0)
(-0.0310091 0.00211259 0)
(-0.0318512 0.00190583 0)
(-0.0326034 0.00168728 0)
(-0.0332608 0.00145788 0)
(-0.0338194 0.00121866 0)
(-0.0342752 0.000970696 0)
(-0.034625 0.000715166 0)
(-0.034866 0.00045331 0)
(-0.0349959 0.000186456 0)
(-0.035013 -8.39799e-05 0)
(-0.0349164 -0.000356496 0)
(-0.0347055 -0.000629506 0)
(-0.0343806 -0.000901343 0)
(-0.0339428 -0.00117027 0)
(-0.0333936 -0.00143446 0)
(-0.0327357 -0.00169207 0)
(-0.0319721 -0.00194119 0)
(-0.0311068 -0.00217986 0)
(-0.0301448 -0.00240615 0)
(-0.0290916 -0.0026181 0)
(-0.0279534 -0.00281378 0)
(-0.0267375 -0.00299131 0)
(-0.0254517 -0.00314888 0)
(-0.0241046 -0.00328474 0)
(-0.0227055 -0.00339727 0)
(-0.0212641 -0.00348499 0)
(-0.0197909 -0.00354656 0)
(-0.0182967 -0.00358082 0)
(-0.0167929 -0.00358682 0)
(-0.0152911 -0.00356384 0)
(-0.013803 -0.00351138 0)
(-0.0123405 -0.00342925 0)
(-0.0109157 -0.00331754 0)
(-0.00954007 -0.00317667 0)
(-0.0082252 -0.00300741 0)
(-0.00698204 -0.00281097 0)
(-0.0058209 -0.00258898 0)
(-0.00475129 -0.00234363 0)
(-0.00378163 -0.00207774 0)
(-0.00291899 -0.0017949 0)
(-0.00216884 -0.00149968 0)
(-0.00153461 -0.0011979 0)
(-0.00101737 -0.00089697 0)
(-0.000615295 -0.000606446 0)
(-0.000323139 -0.000338682 0)
(-0.0001317 -0.00010971 0)
(-2.71185e-05 5.98198e-05 0)
(1.04886e-05 0.000143465 0)
(7.735e-06 0.000105168 0)
(-4.29142e-06 -6.23688e-05 0)
(-6.07455e-05 2.71558e-05 0)
(-0.00021823 0.000260431 0)
(-0.000487193 0.000587273 0)
(-0.000877656 0.000971812 0)
(-0.00139693 0.00138677 0)
(-0.00204782 0.00181166 0)
(-0.00282948 0.00223139 0)
(-0.00373815 0.00263502 0)
(-0.00476775 0.00301473 0)
(-0.00591039 0.00336511 0)
(-0.0071568 0.00368254 0)
(-0.00849673 0.00396473 0)
(-0.00991925 0.00421042 0)
(-0.011413 0.00441911 0)
(-0.0129664 0.00459085 0)
(-0.0145679 0.00472606 0)
(-0.0162058 0.00482549 0)
(-0.0178687 0.00489005 0)
(-0.0195454 0.0049208 0)
(-0.0212251 0.00491887 0)
(-0.022897 0.00488544 0)
(-0.024551 0.00482169 0)
(-0.0261769 0.00472881 0)
(-0.0277654 0.00460798 0)
(-0.0293072 0.00446038 0)
(-0.0307934 0.00428715 0)
(-0.0322155 0.00408946 0)
(-0.0335657 0.00386844 0)
(-0.0348361 0.00362527 0)
(-0.0360195 0.00336114 0)
(-0.0371091 0.00307728 0)
(-0.0380985 0.00277496 0)
(-0.0389817 0.00245553 0)
(-0.0397533 0.0021204 0)
(-0.0404083 0.00177108 0)
(-0.0409424 0.00140918 0)
(-0.0413518 0.0010364 0)
(-0.0416331 0.000654578 0)
(-0.0417838 0.00026565 0)
(-0.0418021 -0.000128316 0)
(-0.0416867 -0.000525133 0)
(-0.0414373 -0.000922495 0)
(-0.0410542 -0.00131798 0)
(-0.0405386 -0.00170908 0)
(-0.0398925 -0.00209318 0)
(-0.0391188 -0.00246757 0)
(-0.0382213 -0.00282953 0)
(-0.0372048 -0.00317625 0)
(-0.0360748 -0.00350494 0)
(-0.0348379 -0.0038128 0)
(-0.0335013 -0.00409706 0)
(-0.0320735 -0.00435504 0)
(-0.0305636 -0.00458414 0)
(-0.0289815 -0.00478188 0)
(-0.0273378 -0.00494597 0)
(-0.0256441 -0.00507427 0)
(-0.0239122 -0.00516491 0)
(-0.0221548 -0.00521625 0)
(-0.0203849 -0.00522698 0)
(-0.0186158 -0.00519607 0)
(-0.0168611 -0.0051229 0)
(-0.0151346 -0.00500723 0)
(-0.0134497 -0.00484924 0)
(-0.01182 -0.00464962 0)
(-0.0102586 -0.00440958 0)
(-0.00877788 -0.00413091 0)
(-0.00738973 -0.00381606 0)
(-0.00610489 -0.00346827 0)
(-0.00493292 -0.00309164 0)
(-0.00388188 -0.00269137 0)
(-0.00295801 -0.00227394 0)
(-0.00216539 -0.00184745 0)
(-0.00150557 -0.00142206 0)
(-0.000977167 -0.00101048 0)
(-0.000575418 -0.00062878 0)
(-0.000291696 -0.000297218 0)
(-0.00011294 -4.12497e-05 0)
(-2.18767e-05 0.000107228 0)
(2.06133e-06 0.000105401 0)
(-1.13422e-05 -2.3248e-05 0)
(-0.000102046 0.000164972 0)
(-0.000328227 0.000513381 0)
(-0.000690859 0.000967377 0)
(-0.00119498 0.00148681 0)
(-0.00184551 0.00204041 0)
(-0.00264338 0.00260413 0)
(-0.00358619 0.0031598 0)
(-0.00466896 0.00369395 0)
(-0.00588455 0.00419672 0)
(-0.00722403 0.00466109 0)
(-0.00867712 0.00508223 0)
(-0.0102325 0.00545699 0)
(-0.0118782 0.00578353 0)
(-0.0136017 0.00606098 0)
(-0.0153902 0.00628923 0)
(-0.0172308 0.00646868 0)
(-0.0191107 0.00660017 0)
(-0.0210171 0.00668479 0)
(-0.0229376 0.00672385 0)
(-0.02486 0.00671876 0)
(-0.0267723 0.00667103 0)
(-0.0286629 0.0065822 0)
(-0.0305206 0.00645383 0)
(-0.0323347 0.00628748 0)
(-0.0340948 0.00608472 0)
(-0.0357908 0.00584709 0)
(-0.0374132 0.00557617 0)
(-0.0389529 0.00527353 0)
(-0.0404011 0.00494075 0)
(-0.0417498 0.00457948 0)
(-0.0429911 0.00419141 0)
(-0.0441179 0.0037783 0)
(-0.0451233 0.00334199 0)
(-0.0460014 0.00288445 0)
(-0.0467465 0.00240774 0)
(-0.0473536 0.00191407 0)
(-0.0478186 0.00140578 0)
(-0.0481377 0.000885367 0)
(-0.0483082 0.000355494 0)
(-0.0483279 -0.00018103 0)
(-0.0481956 -0.000721229 0)
(-0.0479108 -0.00126198 0)
(-0.0474741 -0.0018 0)
(-0.0468867 -0.00233189 0)
(-0.046151 -0.00285412 0)
(-0.0452703 -0.00336306 0)
(-0.044249 -0.00385501 0)
(-0.0430923 -0.00432622 0)
(-0.0418066 -0.00477293 0)
(-0.0403992 -0.00519138 0)
(-0.0388784 -0.00557788 0)
(-0.0372536 -0.00592881 0)
(-0.0355351 -0.00624071 0)
(-0.0337338 -0.00651028 0)
(-0.031862 -0.00673444 0)
(-0.0299322 -0.00691037 0)
(-0.027958 -0.00703558 0)
(-0.0259535 -0.0071079 0)
(-0.0239331 -0.0071256 0)
(-0.0219117 -0.00708738 0)
(-0.0199046 -0.00699243 0)
(-0.017927 -0.00684049 0)
(-0.0159941 -0.00663189 0)
(-0.0141208 -0.00636762 0)
(-0.0123217 -0.00604937 0)
(-0.0106107 -0.00567965 0)
(-0.00900092 -0.00526184 0)
(-0.00750429 -0.00480032 0)
(-0.00613149 -0.00430065 0)
(-0.00489155 -0.00376973 0)
(-0.00379159 -0.00321611 0)
(-0.0028365 -0.00265028 0)
(-0.00202858 -0.00208514 0)
(-0.00136727 -0.00153657 0)
(-0.000848756 -0.00102413 0)
(-0.00046558 -0.000571968 0)
(-0.000206142 -0.000209761 0)
(-5.66811e-05 2.61051e-05 0)
(-3.86086e-06 8.79418e-05 0)
(-1.82059e-05 3.73232e-05 0)
(-0.00014344 0.000358147 0)
(-0.000439863 0.000849091 0)
(-0.000898741 0.00145292 0)
(-0.0015197 0.00212643 0)
(-0.00230479 0.00283524 0)
(-0.00325262 0.00355236 0)
(-0.00435887 0.00425702 0)
(-0.00561702 0.00493343 0)
(-0.00701863 0.00556987 0)
(-0.00855362 0.00615776 0)
(-0.0102106 0.00669111 0)
(-0.0119773 0.00716589 0)
(-0.0138405 0.00757965 0)
(-0.0157868 0.00793113 0)
(-0.0178022 0.00821999 0)
(-0.0198727 0.00844662 0)
(-0.0219845 0.00861189 0)
(-0.0241235 0.00871708 0)
(-0.0262763 0.00876373 0)
(-0.0284292 0.00875354 0)
(-0.0305694 0.00868836 0)
(-0.0326841 0.0085701 0)
(-0.0347609 0.00840071 0)
(-0.036788 0.00818217 0)
(-0.0387539 0.00791647 0)
(-0.0406476 0.0076056 0)
(-0.0424584 0.00725157 0)
(-0.0441765 0.00685643 0)
(-0.045792 0.00642224 0)
(-0.047296 0.00595116 0)
(-0.04868 0.00544538 0)
(-0.0499359 0.00490722 0)
(-0.0510564 0.0043391 0)
(-0.0520347 0.00374358 0)
(-0.0528647 0.00312336 0)
(-0.0535408 0.00248132 0)
(-0.0540586 0.00182053 0)
(-0.0544139 0.00114423 0)
(-0.0546036 0.000455871 0)
(-0.0546256 -0.000240891 0)
(-0.0544784 -0.000942209 0)
(-0.0541615 -0.00164404 0)
(-0.0536756 -0.00234216 0)
(-0.0530221 -0.00303216 0)
(-0.0522036 -0.00370952 0)
(-0.0512239 -0.00436957 0)
(-0.0500877 -0.00500755 0)
(-0.0488008 -0.00561866 0)
(-0.0473701 -0.00619807 0)
(-0.0458039 -0.00674097 0)
(-0.0441111 -0.00724263 0)
(-0.0423021 -0.00769844 0)
(-0.0403881 -0.00810397 0)
(-0.0383812 -0.008455 0)
(-0.0362948 -0.00874763 0)
(-0.0341426 -0.00897826 0)
(-0.0319396 -0.00914372 0)
(-0.0297009 -0.0092413 0)
(-0.0274427 -0.00926879 0)
(-0.0251811 -0.00922458 0)
(-0.0229328 -0.00910769 0)
(-0.0207144 -0.00891784 0)
(-0.0185426 -0.00865552 0)
(-0.0164337 -0.00832206 0)
(-0.0144036 -0.00791972 0)
(-0.0124675 -0.00745176 0)
(-0.0106398 -0.00692256 0)
(-0.00893358 -0.00633776 0)
(-0.00736066 -0.00570443 0)
(-0.00593111 -0.00503131 0)
(-0.00465304 -0.00432901 0)
(-0.00353232 -0.00361046 0)
(-0.00257228 -0.00289127 0)
(-0.00177348 -0.00219031 0)
(-0.00113348 -0.00153042 0)
(-0.000646399 -0.000939202 0)
(-0.000302569 -0.000449908 0)
(-9.2235e-05 -0.000102454 0)
(-9.72595e-06 5.21885e-05 0)
(-2.4787e-05 0.000119016 0)
(-0.000184123 0.000606887 0)
(-0.000550829 0.00126861 0)
(-0.00110664 0.00204565 0)
(-0.00184563 0.0028928 0)
(-0.00276674 0.00377343 0)
(-0.00386591 0.00465822 0)
(-0.00513663 0.00552423 0)
(-0.00657058 0.00635376 0)
(-0.00815779 0.00713338 0)
(-0.00988691 0.00785316 0)
(-0.0117454 0.00850597 0)
(-0.0137198 0.00908698 0)
(-0.0157959 0.00959311 0)
(-0.0179593 0.0100227 0)
(-0.0201949 0.0103753 0)
(-0.0224878 0.0106511 0)
(-0.024823 0.010851 0)
(-0.0271856 0.0109766 0)
(-0.0295608 0.0110296 0)
(-0.0319343 0.011012 0)
(-0.034292 0.0109259 0)
(-0.0366201 0.0107738 0)
(-0.0389053 0.0105578 0)
(-0.0411348 0.0102805 0)
(-0.043296 0.00994433 0)
(-0.0453771 0.00955169 0)
(-0.0473667 0.00910511 0)
(-0.0492536 0.00860714 0)
(-0.0510276 0.00806038 0)
(-0.0526788 0.00746752 0)
(-0.054198 0.00683135 0)
(-0.0555764 0.00615476 0)
(-0.0568061 0.00544081 0)
(-0.0578797 0.00469273 0)
(-0.0587906 0.00391392 0)
(-0.0595328 0.00310801 0)
(-0.0601014 0.00227883 0)
(-0.060492 0.00143047 0)
(-0.0607013 0.00056725 0)
(-0.0607268 -0.000306275 0)
(-0.060567 -0.00118529 0)
(-0.0602215 -0.00206477 0)
(-0.0596908 -0.00293943 0)
(-0.0589767 -0.00380381 0)
(-0.0580819 -0.00465228 0)
(-0.0570104 -0.00547904 0)
(-0.0557673 -0.0062782 0)
(-0.0543591 -0.0070438 0)
(-0.0527931 -0.00776986 0)
(-0.051078 -0.00845044 0)
(-0.0492239 -0.00907969 0)
(-0.0472416 -0.0096519 0)
(-0.0451433 -0.0101616 0)
(-0.0429423 -0.0106036 0)
(-0.0406525 -0.0109731 0)
(-0.0382892 -0.0112657 0)
(-0.0358683 -0.0114774 0)
(-0.0334062 -0.0116049 0)
(-0.0309201 -0.0116455 0)
(-0.0284278 -0.0115974 0)
(-0.0259469 -0.0114592 0)
(-0.0234956 -0.0112308 0)
(-0.0210918 -0.0109127 0)
(-0.0187531 -0.0105067 0)
(-0.0164967 -0.0100156 0)
(-0.0143391 -0.00944351 0)
(-0.0122959 -0.00879582 0)
(-0.0103814 -0.00807949 0)
(-0.00860855 -0.00730316 0)
(-0.00698854 -0.00647739 0)
(-0.00553063 -0.00561492 0)
(-0.00424188 -0.00473103 0)
(-0.00312686 -0.00384396 0)
(-0.00218753 -0.00297539 0)
(-0.00142312 -0.00215114 0)
(-0.000829649 -0.00140185 0)
(-0.000399654 -0.000763729 0)
(-0.00012758 -0.000279374 0)
(-1.53908e-05 -1.82611e-06 0)
(-3.10575e-05 0.000221238 0)
(-0.000223692 0.00091051 0)
(-0.000659797 0.00177162 0)
(-0.00131196 0.00274572 0)
(-0.00216879 0.00378646 0)
(-0.00322598 0.00485563 0)
(-0.00447663 0.00592226 0)
(-0.00591181 0.00696169 0)
(-0.00752119 0.00795462 0)
(-0.00929314 0.00888624 0)
(-0.0112148 0.0097454 0)
(-0.0132725 0.010524 0)
(-0.0154515 0.0112165 0)
(-0.0177366 0.0118192 0)
(-0.0201122 0.0123301 0)
(-0.0225625 0.0127486 0)
(-0.0250714 0.0130748 0)
(-0.027623 0.0133097 0)
(-0.0302015 0.0134549 0)
(-0.0327913 0.0135125 0)
(-0.0353769 0.0134848 0)
(-0.0379433 0.0133742 0)
(-0.040476 0.0131835 0)
(-0.0429607 0.0129154 0)
(-0.0453836 0.0125729 0)
(-0.0477315 0.0121589 0)
(-0.0499916 0.0116763 0)
(-0.0521516 0.0111281 0)
(-0.0541997 0.0105174 0)
(-0.056125 0.0098475 0)
(-0.0579167 0.00912155 0)
(-0.059565 0.00834299 0)
(-0.0610607 0.00751536 0)
(-0.062395 0.00664241 0)
(-0.0635602 0.00572808 0)
(-0.0645492 0.00477653 0)
(-0.0653555 0.00379218 0)
(-0.0659739 0.00277973 0)
(-0.0663997 0.00174414 0)
(-0.0666293 0.000690654 0)
(-0.0666601 -0.000375167 0)
(-0.0664904 -0.00144749 0)
(-0.0661198 -0.00252021 0)
(-0.0655488 -0.00358694 0)
(-0.0647793 -0.00464108 0)
(-0.0638142 -0.0056758 0)
(-0.0626577 -0.00668411 0)
(-0.0613153 -0.00765889 0)
(-0.0597936 -0.00859297 0)
(-0.0581007 -0.00947911 0)
(-0.0562458 -0.0103102 0)
(-0.0542395 -0.0110791 0)
(-0.0520933 -0.011779 0)
(-0.0498204 -0.0124033 0)
(-0.0474346 -0.0129458 0)
(-0.044951 -0.0134007 0)
(-0.0423858 -0.0137626 0)
(-0.0397557 -0.0140268 0)
(-0.0370786 -0.0141895 0)
(-0.0343728 -0.0142473 0)
(-0.0316569 -0.0141979 0)
(-0.0289501 -0.0140399 0)
(-0.0262717 -0.013773 0)
(-0.0236408 -0.0133981 0)
(-0.0210764 -0.0129172 0)
(-0.0185969 -0.0123337 0)
(-0.0162201 -0.0116526 0)
(-0.0139627 -0.0108803 0)
(-0.0118403 -0.0100252 0)
(-0.00986718 -0.00909735 0)
(-0.00805571 -0.00810924 0)
(-0.00641646 -0.00707567 0)
(-0.00495781 -0.00601421 0)
(-0.0036858 -0.00494558 0)
(-0.00260403 -0.00389409 0)
(-0.00171357 -0.00288822 0)
(-0.00101257 -0.00196126 0)
(-0.000495907 -0.00115185 0)
(-0.000162213 -0.00050459 0)
(-2.08004e-05 -7.3735e-05 0)
(-3.70235e-05 0.000343293 0)
(-0.000261973 0.00126784 0)
(-0.000766062 0.00235699 0)
(-0.00151322 0.00355224 0)
(-0.00248674 0.00480674 0)
(-0.00367906 0.00608139 0)
(-0.00508036 0.00734403 0)
(-0.00667915 0.00856878 0)
(-0.00846295 0.00973511 0)
(-0.0104183 0.0108271 0)
(-0.0125309 0.0118325 0)
(-0.0147854 0.0127426 0)
(-0.0171661 0.0135511 0)
(-0.0196567 0.0142539 0)
(-0.0222405 0.0148487 0)
(-0.0249007 0.0153345 0)
(-0.0276203 0.0157117 0)
(-0.0303825 0.0159812 0)
(-0.0331706 0.0161449 0)
(-0.0359681 0.016205 0)
(-0.0387588 0.0161641 0)
(-0.0415268 0.0160251 0)
(-0.0442567 0.0157912 0)
(-0.0469334 0.0154655 0)
(-0.0495424 0.0150514 0)
(-0.0520697 0.0145523 0)
(-0.0545017 0.0139717 0)
(-0.0568254 0.0133133 0)
(-0.0590285 0.0125806 0)
(-0.0610991 0.0117774 0)
(-0.0630261 0.0109076 0)
(-0.0647989 0.00997533 0)
(-0.0664077 0.00898477 0)
(-0.0678433 0.00794039 0)
(-0.0690975 0.0068469 0)
(-0.0701627 0.00570928 0)
(-0.0710321 0.00453279 0)
(-0.0717 0.00332302 0)
(-0.0721616 0.00208588 0)
(-0.0724129 0.000827625 0)
(-0.0724511 -0.000445164 0)
(-0.0722745 -0.00172556 0)
(-0.0718826 -0.00300632 0)
(-0.0712758 -0.00427988 0)
(-0.070456 -0.00553842 0)
(-0.0694264 -0.00677387 0)
(-0.0681912 -0.00797797 0)
(-0.0667563 -0.0091423 0)
(-0.0651285 -0.0102584 0)
(-0.0633163 -0.0113176 0)
(-0.0613295 -0.0123117 0)
(-0.059179 -0.0132322 0)
(-0.0568771 -0.014071 0)
(-0.0544375 -0.0148204 0)
(-0.051875 -0.015473 0)
(-0.0492054 -0.016022 0)
(-0.0464457 -0.016461 0)
(-0.0436138 -0.0167845 0)
(-0.0407283 -0.0169879 0)
(-0.0378087 -0.0170673 0)
(-0.0348748 -0.0170201 0)
(-0.0319469 -0.0168444 0)
(-0.0290455 -0.0165401 0)
(-0.0261909 -0.0161081 0)
(-0.0234034 -0.0155507 0)
(-0.0207026 -0.014872 0)
(-0.0181076 -0.0140778 0)
(-0.0156364 -0.0131756 0)
(-0.0133059 -0.012175 0)
(-0.0111318 -0.0110878 0)
(-0.0091277 -0.00992812 0)
(-0.00730568 -0.00871282 0)
(-0.00567562 -0.00746166 0)
(-0.00424518 -0.0061977 0)
(-0.00301975 -0.00494769 0)
(-0.00200245 -0.00374251 0)
(-0.00119363 -0.00261775 0)
(-0.000590559 -0.00161403 0)
(-0.000195914 -0.000777486 0)
(-2.59461e-05 -0.000163021 0)
(-4.27058e-05 0.000484458 0)
(-0.000298924 0.00167746 0)
(-0.000869305 0.00302307 0)
(-0.0017096 0.00446359 0)
(-0.00279805 0.00595221 0)
(-0.00412387 0.00744941 0)
(-0.0056743 0.00892233 0)
(-0.00743522 0.0103443 0)
(-0.00939191 0.0116938 0)
(-0.011529 0.0129542 0)
(-0.0138304 0.0141125 0)
(-0.0162796 0.0151593 0)
(-0.0188593 0.0160878 0)
(-0.0215522 0.0168936 0)
(-0.0243405 0.0175741 0)
(-0.0272065 0.0181284 0)
(-0.0301322 0.0185567 0)
(-0.0331001 0.0188601 0)
(-0.0360925 0.0190406 0)
(-0.0390921 0.0191007 0)
(-0.0420819 0.0190435 0)
(-0.0450454 0.0188721 0)
(-0.0479664 0.0185901 0)
(-0.050829 0.0182012 0)
(-0.0536181 0.0177093 0)
(-0.0563188 0.0171182 0)
(-0.0589171 0.016432 0)
(-0.0613992 0.0156549 0)
(-0.0637521 0.0147912 0)
(-0.0659636 0.0138451 0)
(-0.0680216 0.0128213 0)
(-0.0699153 0.0117246 0)
(-0.0716343 0.0105598 0)
(-0.0731689 0.00933228 0)
(-0.0745105 0.00804745 0)
(-0.0756509 0.00671116 0)
(-0.0765831 0.00532958 0)
(-0.0773011 0.00390922 0)
(-0.0777996 0.002457 0)
(-0.0780745 0.000980203 0)
(-0.0781228 -0.000513489 0)
(-0.0779427 -0.00201601 0)
(-0.0775333 -0.00351892 0)
(-0.0768953 -0.00501344 0)
(-0.0760304 -0.00649045 0)
(-0.0749418 -0.00794059 0)
(-0.0736341 -0.00935424 0)
(-0.072113 -0.0107216 0)
(-0.0703858 -0.0120329 0)
(-0.0684613 -0.0132781 0)
(-0.0663495 -0.0144476 0)
(-0.0640619 -0.0155315 0)
(-0.0616114 -0.0165205 0)
(-0.0590122 -0.0174055 0)
(-0.0562797 -0.018178 0)
(-0.0534305 -0.01883 0)
(-0.0504824 -0.0193543 0)
(-0.0474542 -0.0197443 0)
(-0.0443655 -0.0199946 0)
(-0.0412367 -0.0201008 0)
(-0.0380888 -0.0200596 0)
(-0.0349432 -0.0198692 0)
(-0.0318214 -0.0195291 0)
(-0.0287451 -0.0190403 0)
(-0.0257358 -0.0184056 0)
(-0.0228143 -0.0176296 0)
(-0.0200012 -0.0167189 0)
(-0.0173158 -0.015682 0)
(-0.0147765 -0.0145298 0)
(-0.0124001 -0.0132756 0)
(-0.0102021 -0.0119353 0)
(-0.00819584 -0.0105277 0)
(-0.006393 -0.00907468 0)
(-0.00480298 -0.00760141 0)
(-0.00343311 -0.0061369 0)
(-0.00228864 -0.00471425 0)
(-0.00137217 -0.00337103 0)
(-0.000683329 -0.00214958 0)
(-0.00022864 -0.0010972 0)
(-3.08444e-05 -0.000269126 0)
(-4.81301e-05 0.000644024 0)
(-0.000334575 0.00213784 0)
(-0.000969442 0.00376796 0)
(-0.00190078 0.00547779 0)
(-0.00310201 0.00722092 0)
(-0.00455924 0.00895783 0)
(-0.00625679 0.0106554 0)
(-0.00817789 0.0122864 0)
(-0.0103055 0.0138289 0)
(-0.0126223 0.0152656 0)
(-0.0151104 0.0165831 0)
(-0.0177518 0.0177715 0)
(-0.0205279 0.0188238 0)
(-0.0234202 0.0197351 0)
(-0.0264098 0.020503 0)
(-0.0294779 0.0211263 0)
(-0.0326058 0.0216053 0)
(-0.0357751 0.0219415 0)
(-0.0389672 0.0221369 0)
(-0.0421642 0.0221945 0)
(-0.0453483 0.0221175 0)
(-0.0485023 0.0219096 0)
(-0.0516092 0.0215747 0)
(-0.0546526 0.0211172 0)
(-0.0576168 0.0205412 0)
(-0.0604862 0.0198513 0)
(-0.0632461 0.0190522 0)
(-0.0658823 0.0181484 0)
(-0.0683813 0.017145 0)
(-0.0707299 0.0160469 0)
(-0.0729161 0.0148594 0)
(-0.0749282 0.013588 0)
(-0.0767553 0.0122384 0)
(-0.0783876 0.0108166 0)
(-0.0798156 0.00932886 0)
(-0.0810312 0.00778199 0)
(-0.0820267 0.00618303 0)
(-0.0827959 0.00453951 0)
(-0.0833331 0.00285934 0)
(-0.0836341 0.0011509 0)
(-0.0836956 -0.000576989 0)
(-0.0835155 -0.00231508 0)
(-0.0830929 -0.00405369 0)
(-0.0824283 -0.00578276 0)
(-0.0815234 -0.00749185 0)
(-0.0803814 -0.00917021 0)
(-0.0790069 -0.0108068 0)
(-0.0774058 -0.0123906 0)
(-0.0755855 -0.01391 0)
(-0.073555 -0.015354 0)
(-0.0713247 -0.0167111 0)
(-0.0689065 -0.0179703 0)
(-0.0663136 -0.0191208 0)
(-0.0635607 -0.0201522 0)
(-0.0606639 -0.0210548 0)
(-0.0576404 -0.0218192 0)
(-0.0545089 -0.0224373 0)
(-0.0512889 -0.0229014 0)
(-0.0480009 -0.0232054 0)
(-0.0446662 -0.0233441 0)
(-0.041307 -0.0233137 0)
(-0.0379456 -0.0231119 0)
(-0.034605 -0.0227382 0)
(-0.0313078 -0.0221937 0)
(-0.0280769 -0.0214815 0)
(-0.0249346 -0.0206066 0)
(-0.0219027 -0.0195764 0)
(-0.019002 -0.0184004 0)
(-0.0162523 -0.0170907 0)
(-0.0136721 -0.0156622 0)
(-0.0112784 -0.0141324 0)
(-0.00908636 -0.0125219 0)
(-0.00710935 -0.0108545 0)
(-0.00535869 -0.00915755 0)
(-0.00384373 -0.00746215 0)
(-0.00257192 -0.00580336 0)
(-0.00154813 -0.00422059 0)
(-0.000774261 -0.00275764 0)
(-0.000260459 -0.0014628 0)
(-3.55252e-05 -0.000391517 0)
(-5.33226e-05 0.000821321 0)
(-0.000368997 0.00264745 0)
(-0.00106653 0.00458965 0)
(-0.00208671 0.0065926 0)
(-0.00339837 0.00861059 0)
(-0.00498465 0.0106044 0)
(-0.006827 0.012541 0)
(-0.008906 0.014393 0)
(-0.0112023 0.0161382 0)
(-0.0136965 0.0177591 0)
(-0.0163691 0.019242 0)
(-0.0192002 0.0205768 0)
(-0.0221701 0.0217562 0)
(-0.0252589 0.0227754 0)
(-0.0284467 0.0236319 0)
(-0.0317137 0.0243245 0)
(-0.0350404 0.0248539 0)
(-0.0384073 0.0252214 0)
(-0.0417953 0.0254297 0)
(-0.0451856 0.0254819 0)
(-0.0485598 0.0253816 0)
(-0.0519 0.025133 0)
(-0.0551887 0.0247405 0)
(-0.0584089 0.0242088 0)
(-0.061544 0.0235428 0)
(-0.0645782 0.0227476 0)
(-0.0674962 0.0218282 0)
(-0.0702832 0.0207901 0)
(-0.0729251 0.0196388 0)
(-0.0754084 0.01838 0)
(-0.0777205 0.0170196 0)
(-0.0798493 0.0155639 0)
(-0.0817836 0.0140193 0)
(-0.0835128 0.0123926 0)
(-0.0850274 0.0106911 0)
(-0.0863187 0.0089223 0)
(-0.0873787 0.00709433 0)
(-0.0882009 0.00521566 0)
(-0.0887792 0.00329529 0)
(-0.0891092 0.00134269 0)
(-0.0891873 -0.000632137 0)
(-0.0890111 -0.00261872 0)
(-0.0885797 -0.0046061 0)
(-0.0878934 -0.00658289 0)
(-0.0869538 -0.00853728 0)
(-0.0857639 -0.0104571 0)
(-0.0843283 -0.0123299 0)
(-0.0826531 -0.014143 0)
(-0.0807457 -0.0158836 0)
(-0.0786153 -0.0175389 0)
(-0.0762724 -0.0190961 0)
(-0.0737293 -0.0205427 0)
(-0.0709995 -0.0218663 0)