/*--------------------------------*- C++ -*----------------------------------*\
  =========                 |
  \\      /  F ield         | OpenFOAM: The Open Source CFD Toolbox
   \\    /   O peration     | Website:  https://openfoam.org
    \\  /    A nd           | Version:  7
     \\/     M anipulation  |
\*---------------------------------------------------------------------------*/
FoamFile
{
    version     2.0;
    format      ascii;
    class       surfaceScalarField;
    location    "5.1";
    object      phi;
}
// * * * * * * * * * * * * * * * * * * * * * * * * * * * * * * * * * * * * * //

dimensions      [0 3 -1 0 0 0 0];

internalField   nonuniform List<scalar> 
21785
(
-1.5085e-13
1.51428e-13
-4.36705e-13
3.99244e-13
-7.87889e-13
4.53395e-13
-1.06544e-12
3.74064e-13
-1.19534e-12
2.23818e-13
-1.14673e-12
4.21719e-14
-9.13085e-13
-1.43703e-13
-2.67928e-13
-3.24995e-13
5.44298e-13
-5.5949e-13
1.43844e-12
-8.02449e-13
2.55963e-12
-1.02912e-12
3.87356e-12
-1.23281e-12
5.35785e-12
-1.41149e-12
6.9876e-12
-1.56377e-12
8.74255e-12
-1.68787e-12
1.07737e-11
-1.79183e-12
1.30138e-11
-1.928e-12
1.52035e-11
-2.10837e-12
1.74663e-11
-2.24238e-12
1.97786e-11
-2.31081e-12
2.21651e-11
-2.33961e-12
2.4632e-11
-2.36254e-12
2.71514e-11
-2.38817e-12
2.96753e-11
-2.40253e-12
3.23919e-11
-2.39377e-12
3.4986e-11
-2.42484e-12
3.7482e-11
-2.42828e-12
3.99784e-11
-2.41255e-12
4.24502e-11
-2.38017e-12
4.48751e-11
-2.33306e-12
4.72327e-11
-2.2686e-12
4.9498e-11
-2.17977e-12
5.18783e-11
-2.06823e-12
5.4095e-11
-2.00516e-12
5.61044e-11
-1.93213e-12
5.80363e-11
-1.84202e-12
5.98659e-11
-1.7362e-12
6.1577e-11
-1.61708e-12
6.31541e-11
-1.48362e-12
6.45768e-11
-1.33029e-12
6.60596e-11
-1.15969e-12
6.73339e-11
-1.04398e-12
6.8339e-11
-9.24114e-13
6.92201e-11
-7.90839e-13
-6.44514e-13
6.99562e-11
-3.04073e-13
5.68633e-13
-8.03613e-13
1.10303e-12
-1.30094e-12
1.14012e-12
-1.57111e-12
8.3047e-13
-1.462e-12
3.00798e-13
-8.79223e-13
-3.57276e-13
2.36369e-13
-1.08166e-12
2.10534e-12
-1.842e-12
4.52138e-12
-2.61667e-12
7.31182e-12
-3.41145e-12
1.06571e-11
-4.17876e-12
1.45178e-11
-4.90112e-12
1.88573e-11
-5.57125e-12
2.36353e-11
-6.18596e-12
2.88256e-11
-6.74276e-12
3.45336e-11
-7.25766e-12
4.06545e-11
-7.64324e-12
4.69342e-11
-8.1331e-12
5.34676e-11
-8.563e-12
6.01729e-11
-8.88649e-12
6.7041e-11
-9.11048e-12
7.40721e-11
-9.27222e-12
8.12359e-11
-9.39072e-12
8.84836e-11
-9.46744e-12
9.59489e-11
-9.50577e-12
1.03345e-10
-9.53228e-12
1.10551e-10
-9.49622e-12
1.17697e-10
-9.41169e-12
1.24747e-10
-9.2763e-12
1.31667e-10
-9.09259e-12
1.38424e-10
-8.86065e-12
1.44991e-10
-8.58075e-12
1.51531e-10
-8.26715e-12
1.57795e-10
-7.94565e-12
1.63618e-10
-7.59859e-12
1.6916e-10
-7.21657e-12
1.74392e-10
-6.79667e-12
1.79289e-10
-6.34116e-12
1.83832e-10
-5.8513e-12
1.88006e-10
-5.3292e-12
1.91988e-10
-4.79122e-12
1.9555e-10
-4.25983e-12
1.98513e-10
-3.72394e-12
2.01063e-10
-3.16962e-12
-2.59225e-12
2.03182e-10
-3.03019e-13
9.7357e-13
-7.32512e-13
1.71924e-12
-1.02741e-12
1.60725e-12
-9.22267e-13
8.94264e-13
-2.27259e-13
-2.24958e-13
1.188e-12
-1.60293e-12
3.40592e-12
-3.13217e-12
6.67549e-12
-4.74086e-12
1.07444e-11
-6.3575e-12
1.54836e-11
-7.98761e-12
2.10545e-11
-9.57212e-12
2.74128e-11
-1.1089e-11
3.45112e-11
-1.2524e-11
4.2306e-11
-1.38657e-11
5.07509e-11
-1.50964e-11
6.00201e-11
-1.62112e-11
6.9642e-11
-1.69975e-11
7.97297e-11
-1.7939e-11
9.0267e-11
-1.88045e-11
1.01105e-10
-1.95253e-11
1.12174e-10
-2.007e-11
1.23466e-10
-2.04722e-11
1.34949e-10
-2.07557e-11
1.46569e-10
-2.09372e-11
1.58421e-10
-2.10272e-11
1.70256e-10
-2.10471e-11
1.81846e-10
-2.09509e-11
1.93322e-10
-2.07535e-11
2.04635e-10
-2.0453e-11
2.1574e-10
-2.00536e-11
2.26589e-10
-1.95598e-11
2.37142e-10
-1.89781e-11
2.47533e-10
-1.83213e-11
2.57519e-10
-1.76085e-11
2.66891e-10
-1.68252e-11
2.75797e-10
-1.59704e-11
2.842e-10
-1.50446e-11
2.92068e-10
-1.40521e-11
2.99374e-10
-1.29976e-11
3.06094e-10
-1.18885e-11
3.1239e-10
-1.07394e-11
3.18036e-10
-9.56344e-12
3.22826e-10
-8.36104e-12
3.26941e-10
-7.12439e-12
-5.85293e-12
3.30361e-10
-1.97166e-13
1.26864e-12
-3.52233e-13
2.05629e-12
-1.99403e-13
1.62099e-12
5.39892e-13
3.1627e-13
2.07036e-12
-1.59501e-12
4.53981e-12
-3.90799e-12
8.04258e-12
-6.46688e-12
1.28611e-11
-9.15608e-12
1.86681e-11
-1.18671e-11
2.54043e-11
-1.45756e-11
3.32055e-11
-1.72132e-11
4.20231e-11
-1.97569e-11
5.18023e-11
-2.21849e-11
6.25096e-11
-2.44724e-11
7.40787e-11
-2.65772e-11
8.68688e-11
-2.84613e-11
9.96796e-11
-2.98229e-11
1.1332e-10
-3.13303e-11
1.2761e-10
-3.27345e-11
1.42346e-10
-3.39651e-11
1.57374e-10
-3.49248e-11
1.72671e-10
-3.56561e-11
1.88198e-10
-3.61777e-11
2.03894e-10
-3.65086e-11
2.1983e-10
-3.66645e-11
2.35796e-10
-3.66586e-11
2.51471e-10
-3.64826e-11
2.66989e-10
-3.61346e-11
2.82282e-10
-3.56144e-11
2.97289e-10
-3.49271e-11
3.11952e-10
-3.40812e-11
3.26211e-10
-3.30889e-11
3.40183e-10
-3.19637e-11
3.53628e-10
-3.07227e-11
3.66303e-10
-2.93556e-11
3.78345e-10
-2.78642e-11
3.89705e-10
-2.62567e-11
4.00344e-10
-2.4541e-11
4.10223e-10
-2.2725e-11
4.1931e-10
-2.08201e-11
4.2776e-10
-1.88408e-11
4.35335e-10
-1.67975e-11
4.41825e-10
-1.46995e-11
4.474e-10
-1.25418e-11
-1.03332e-11
4.52038e-10
-2.64216e-14
1.39305e-12
2.32578e-13
1.97974e-12
1.00646e-12
1.01288e-12
2.56678e-12
-1.0858e-12
5.1173e-12
-3.98994e-12
8.80976e-12
-7.43754e-12
1.37424e-11
-1.1226e-11
2.02233e-11
-1.51993e-11
2.78583e-11
-1.92281e-11
3.66407e-11
-2.32311e-11
4.66789e-11
-2.71227e-11
5.79241e-11
-3.08774e-11
7.03217e-11
-3.44633e-11
8.38624e-11
-3.78432e-11
9.84624e-11
-4.09627e-11
1.14742e-10
-4.37649e-11
1.30513e-10
-4.60508e-11
1.47489e-10
-4.82442e-11
1.65281e-10
-5.02539e-11
1.83717e-10
-5.20469e-11
2.02487e-10
-5.34595e-11
2.21568e-10
-5.45739e-11
2.40906e-10
-5.53907e-11
2.60435e-10
-5.59156e-11
2.80209e-10
-5.61589e-11
3.00017e-10
-5.61016e-11
3.19512e-10
-5.58248e-11
3.38814e-10
-5.52859e-11
3.57833e-10
-5.44922e-11
3.76494e-10
-5.34505e-11
3.9472e-10
-5.21705e-11
4.12439e-10
-5.06677e-11
4.29751e-10
-4.89582e-11
4.46424e-10
-4.70561e-11
4.62183e-10
-4.49667e-11
4.77154e-10
-4.2684e-11
4.91278e-10
-4.02299e-11
5.04504e-10
-3.7617e-11
5.16785e-10
-3.48558e-11
5.28079e-10
-3.1961e-11
5.38536e-10
-2.89485e-11
5.47909e-10
-2.58299e-11
5.55984e-10
-2.26242e-11
5.62923e-10
-1.93219e-11
-1.59481e-11
5.68697e-10
1.79065e-13
1.31212e-12
9.50641e-13
1.39157e-12
2.45855e-12
-3.28547e-13
4.96924e-12
-3.4382e-12
8.67408e-12
-7.54077e-12
1.37165e-11
-1.23188e-11
2.01908e-11
-1.75265e-11
2.84128e-11
-2.2971e-11
3.79484e-11
-2.84957e-11
4.88354e-11
-3.40046e-11
6.11257e-11
-3.9314e-11
7.47831e-11
-4.44374e-11
8.97588e-11
-4.93185e-11
1.06068e-10
-5.39064e-11
1.23612e-10
-5.81531e-11
1.43186e-10
-6.20688e-11
1.61911e-10
-6.5464e-11
1.82062e-10
-6.85259e-11
2.03138e-10
-7.1209e-11
2.25117e-10
-7.36451e-11
2.47402e-10
-7.54063e-11
2.70056e-10
-7.69134e-11
2.93001e-10
-7.80546e-11
3.16154e-10
-7.87997e-11
3.39591e-10
-7.91651e-11
3.62959e-10
-7.91151e-11
3.8605e-10
-7.87638e-11
4.08906e-10
-7.79803e-11
4.31426e-10
-7.68547e-11
4.53516e-10
-7.53917e-11
4.75085e-10
-7.35988e-11
4.9605e-10
-7.14944e-11
5.16497e-10
-6.90963e-11
5.36177e-10
-6.6396e-11
5.54834e-10
-6.34766e-11
5.72549e-10
-6.02433e-11
5.89259e-10
-5.67845e-11
6.04907e-10
-5.31102e-11
6.19437e-10
-4.9231e-11
6.32797e-10
-4.51665e-11
6.45136e-10
-4.09354e-11
6.56174e-10
-3.65333e-11
6.65744e-10
-3.20457e-11
6.73956e-10
-2.73766e-11
-2.2622e-11
6.80791e-10
3.96601e-13
1.01383e-12
1.76902e-12
4.76683e-13
4.06115e-12
-2.26324e-12
7.60395e-12
-6.62404e-12
1.2556e-11
-1.21298e-11
1.90387e-11
-1.84196e-11
2.71324e-11
-2.52205e-11
3.71561e-11
-3.23486e-11
4.86302e-11
-3.96761e-11
6.17124e-11
-4.6775e-11
7.62607e-11
-5.36323e-11
9.2332e-11
-6.01543e-11
1.09875e-10
-6.62213e-11
1.289e-10
-7.18228e-11
1.49231e-10
-7.71094e-11
1.7188e-10
-8.21215e-11
1.93619e-10
-8.85755e-11
2.16912e-10
-9.24933e-11
2.41047e-10
-9.56444e-11
2.66573e-10
-9.80693e-11
2.92055e-10
-1.00604e-10
3.18064e-10
-1.02596e-10
3.44424e-10
-1.04065e-10
3.70997e-10
-1.0501e-10
3.97902e-10
-1.05467e-10
4.24619e-10
-1.05554e-10
4.51176e-10
-1.04905e-10
4.77372e-10
-1.03792e-10
5.03188e-10
-1.02276e-10
5.28509e-10
-1.00338e-10
5.53224e-10
-9.79761e-11
5.77238e-10
-9.51959e-11
6.00661e-10
-9.20386e-11
6.23128e-10
-8.85305e-11
6.4456e-10
-8.44985e-11
6.64834e-10
-8.01585e-11
6.83968e-10
-7.55488e-11
7.01887e-10
-7.06578e-11
7.18524e-10
-6.55005e-11
7.33818e-10
-6.01014e-11
7.47941e-10
-5.45111e-11
7.60507e-10
-4.87674e-11
7.71531e-10
-4.26605e-11
7.80919e-10
-3.64133e-11
-3.00782e-11
7.8874e-10
7.52719e-13
8.56206e-13
2.62324e-12
-8.55912e-13
5.73295e-12
-5.01848e-12
1.03688e-11
-1.09062e-11
1.66356e-11
-1.80575e-11
2.46145e-11
-2.60844e-11
3.43477e-11
-3.46633e-11
4.61083e-11
-4.35252e-11
5.97606e-11
-5.25286e-11
7.50566e-11
-6.13808e-11
9.1973e-11
-7.014e-11
1.10588e-10
-7.85404e-11
1.30764e-10
-8.64877e-11
1.52322e-10
-9.38984e-11
1.75251e-10
-1.00726e-10
1.98826e-10
-1.06996e-10
2.2557e-10
-1.12716e-10
2.52123e-10
-1.17832e-10
2.7958e-10
-1.22243e-10
3.07616e-10
-1.26061e-10
3.36317e-10
-1.29206e-10
3.65552e-10
-1.31695e-10
3.95172e-10
-1.33516e-10
4.25002e-10
-1.34672e-10
4.55036e-10
-1.35163e-10
4.85247e-10
-1.34972e-10
5.15e-10
-1.34191e-10
5.44323e-10
-1.32862e-10
5.73232e-10
-1.30913e-10
6.01593e-10
-1.28392e-10
6.29285e-10
-1.25328e-10
6.56176e-10
-1.21735e-10
6.82358e-10
-1.17621e-10
7.07671e-10
-1.1302e-10
7.31628e-10
-1.07965e-10
7.54291e-10
-1.02531e-10
7.75698e-10
-9.66581e-11
7.95748e-10
-9.03978e-11
8.14361e-10
-8.3789e-11
8.31453e-10
-7.68589e-11
8.47182e-10
-6.96256e-11
8.61416e-10
-6.21473e-11
8.73724e-10
-5.4416e-11
8.84196e-10
-4.6554e-11
-3.84891e-11
8.92934e-10
9.43675e-13
1.51349e-13
3.34918e-12
-3.10355e-12
7.37532e-12
-8.88157e-12
1.31568e-11
-1.65243e-11
2.07883e-11
-2.55303e-11
3.03262e-11
-3.54794e-11
4.18039e-11
-4.60158e-11
5.53913e-11
-5.68392e-11
7.11496e-11
-6.76575e-11
8.84823e-11
-7.85127e-11
1.07724e-10
-8.91117e-11
1.28787e-10
-9.93248e-11
1.51552e-10
-1.0903e-10
1.75789e-10
-1.18108e-10
2.01404e-10
-1.26464e-10
2.27706e-10
-1.3406e-10
2.57316e-10
-1.40855e-10
2.86886e-10
-1.47056e-10
3.17275e-10
-1.52503e-10
3.48356e-10
-1.57134e-10
3.80133e-10
-1.6094e-10
4.1249e-10
-1.63918e-10
4.45249e-10
-1.66085e-10
4.78224e-10
-1.67447e-10
5.11418e-10
-1.68004e-10
5.447e-10
-1.6777e-10
5.77458e-10
-1.66836e-10
6.09834e-10
-1.65136e-10
6.41709e-10
-1.62683e-10
6.72968e-10
-1.59522e-10
7.03487e-10
-1.55689e-10
7.33136e-10
-1.51212e-10
7.61962e-10
-1.461e-10
7.89817e-10
-1.40374e-10
8.16141e-10
-1.34161e-10
8.4114e-10
-1.27396e-10
8.64721e-10
-1.20107e-10
8.868e-10
-1.12339e-10
9.07294e-10
-1.04136e-10
9.26125e-10
-9.55358e-11
9.434e-10
-8.65639e-11
9.59062e-10
-7.72469e-11
9.72528e-10
-6.77399e-11
9.8409e-10
-5.79699e-11
-4.79704e-11
9.9371e-10
1.06472e-12
-8.30256e-13
4.07199e-12
-5.93475e-12
9.00267e-12
-1.36448e-11
1.59434e-11
-2.32966e-11
2.49571e-11
-3.43739e-11
3.60803e-11
-4.64381e-11
4.93259e-11
-5.91113e-11
6.49015e-11
-7.20724e-11
8.25464e-11
-8.4999e-11
1.02039e-10
-9.78455e-11
1.23553e-10
-1.10385e-10
1.47023e-10
-1.22472e-10
1.72332e-10
-1.33989e-10
1.99237e-10
-1.44805e-10
2.27575e-10
-1.5479e-10
2.56702e-10
-1.6387e-10
2.88931e-10
-1.71817e-10
3.21348e-10
-1.79206e-10
3.54667e-10
-1.85698e-10
3.8873e-10
-1.91201e-10
4.23504e-10
-1.95676e-10
4.58863e-10
-1.9916e-10
4.94632e-10
-2.01693e-10
5.30625e-10
-2.03258e-10
5.66827e-10
-2.03885e-10
6.03004e-10
-2.03585e-10
6.3872e-10
-2.02387e-10
6.7401e-10
-2.00298e-10
7.08727e-10
-1.97309e-10
7.42752e-10
-1.93454e-10
7.75963e-10
-1.88779e-10
8.08231e-10
-1.83329e-10
8.39597e-10
-1.77133e-10
8.69783e-10
-1.70225e-10
8.98433e-10
-1.62656e-10
9.25638e-10
-1.5445e-10
9.51291e-10
-1.45622e-10
9.75301e-10
-1.36218e-10
9.97582e-10
-1.26284e-10
1.01806e-09
-1.15869e-10
1.03684e-09
-1.0502e-10
1.05373e-09
-9.37688e-11
1.06838e-09
-8.22186e-11
1.08095e-09
-7.03803e-11
-5.82771e-11
1.09141e-09
1.24086e-12
-1.97634e-12
4.81481e-12
-9.33184e-12
1.06288e-11
-1.92974e-11
1.87155e-11
-3.12249e-11
2.91021e-11
-4.45987e-11
4.18058e-11
-5.89707e-11
5.68173e-11
-7.39495e-11
7.4386e-11
-8.91974e-11
9.39962e-11
-1.04383e-10
1.15636e-10
-1.19393e-10
1.39399e-10
-1.33997e-10
1.65226e-10
-1.48051e-10
1.93018e-10
-1.61442e-10
2.22546e-10
-1.74043e-10
2.53591e-10
-1.85705e-10
2.85672e-10
-1.96321e-10
3.20304e-10
-2.05624e-10
3.55488e-10
-2.14213e-10
3.91687e-10
-2.21739e-10
4.28687e-10
-2.28117e-10
4.66377e-10
-2.33304e-10
5.04626e-10
-2.37345e-10
5.43312e-10
-2.40273e-10
5.82198e-10
-2.4202e-10
6.21277e-10
-2.42675e-10
6.60298e-10
-2.42191e-10
6.98832e-10
-2.40709e-10
7.36923e-10
-2.3821e-10
7.74381e-10
-2.34657e-10
8.11066e-10
-2.3007e-10
8.4685e-10
-2.24495e-10
8.81608e-10
-2.17986e-10
9.15379e-10
-2.10597e-10
9.47855e-10
-2.0235e-10
9.78704e-10
-1.93339e-10
1.00801e-09
-1.83584e-10
1.03564e-09
-1.73104e-10
1.06149e-09
-1.61945e-10
1.08547e-09
-1.50154e-10
1.10751e-09
-1.37785e-10
1.12771e-09
-1.24899e-10
1.14582e-09
-1.11517e-10
1.16156e-09
-9.77905e-11
1.17509e-09
-8.37281e-11
-6.93598e-11
1.18634e-09
1.43738e-12
-3.31466e-12
5.56424e-12
-1.32803e-11
1.22439e-11
-2.58192e-11
2.14594e-11
-4.02919e-11
3.32032e-11
-5.61936e-11
4.74719e-11
-7.30708e-11
6.42358e-11
-9.05236e-11
8.37723e-11
-1.08205e-10
1.05383e-10
-1.25808e-10
1.29177e-10
-1.4312e-10
1.55182e-10
-1.59927e-10
1.83333e-10
-1.76049e-10
2.13553e-10
-1.91388e-10
2.45653e-10
-2.05826e-10
2.79376e-10
-2.1921e-10
3.14398e-10
-2.31397e-10
3.51392e-10
-2.42196e-10
3.89288e-10
-2.5198e-10
4.283e-10
-2.60536e-10
4.68168e-10
-2.67798e-10
5.0869e-10
-2.73728e-10
5.4974e-10
-2.78336e-10
5.91315e-10
-2.8182e-10
6.32994e-10
-2.8373e-10
6.7491e-10
-2.8435e-10
7.16617e-10
-2.83481e-10
7.57837e-10
-2.81712e-10
7.98628e-10
-2.78761e-10
8.38744e-10
-2.74586e-10
8.78011e-10
-2.69217e-10
9.16284e-10
-2.6269e-10
9.53436e-10
-2.55059e-10
9.8953e-10
-2.46387e-10
1.02419e-09
-2.36693e-10
1.05714e-09
-2.26134e-10
1.08844e-09
-2.14716e-10
1.11797e-09
-2.02455e-10
1.14559e-09
-1.89412e-10
1.17121e-09
-1.75638e-10
1.19473e-09
-1.61186e-10
1.21632e-09
-1.46121e-10
1.23557e-09
-1.30468e-10
1.25235e-09
-1.14414e-10
1.26678e-09
-9.79755e-11
-8.1176e-11
1.27878e-09
1.63389e-12
-4.84793e-12
6.29485e-12
-1.77601e-11
1.38359e-11
-3.32003e-11
2.41623e-11
-5.04708e-11
3.72464e-11
-6.91348e-11
5.30622e-11
-8.87242e-11
7.15592e-11
-1.0883e-10
9.3006e-11
-1.291e-10
1.16633e-10
-1.49238e-10
1.42568e-10
-1.68988e-10
1.70833e-10
-1.88136e-10
2.01293e-10
-2.06411e-10
2.33901e-10
-2.23762e-10
2.68518e-10
-2.40081e-10
3.04885e-10
-2.55228e-10
3.4274e-10
-2.69043e-10
3.82185e-10
-2.81164e-10
4.22749e-10
-2.91998e-10
4.64496e-10
-3.01504e-10
5.07144e-10
-3.0977e-10
5.50436e-10
-3.16672e-10
5.9406e-10
-3.21999e-10
6.38657e-10
-3.25418e-10
6.83071e-10
-3.2763e-10
7.27925e-10
-3.28335e-10
7.71964e-10
-3.27562e-10
8.15784e-10
-3.25425e-10
8.59201e-10
-3.21944e-10
9.01897e-10
-3.1703e-10
9.43677e-10
-3.10787e-10
9.84377e-10
-3.03238e-10
1.02386e-09
-2.94424e-10
1.06222e-09
-2.84401e-10
1.09894e-09
-2.73192e-10
1.1339e-09
-2.60986e-10
1.16714e-09
-2.47803e-10
1.19848e-09
-2.33611e-10
1.2278e-09
-2.18542e-10
1.255e-09
-2.0265e-10
1.27997e-09
-1.85987e-10
1.3029e-09
-1.68618e-10
1.32322e-09
-1.50575e-10
1.34098e-09
-1.32058e-10
1.35628e-09
-1.13111e-10
-9.37013e-11
1.36899e-09
1.82494e-12
-6.57348e-12
6.98309e-12
-2.27345e-11
1.54169e-11
-4.11943e-11
2.68146e-11
-6.15104e-11
4.12165e-11
-8.3159e-11
5.85569e-11
-1.05644e-10
7.87583e-11
-1.28574e-10
1.02067e-10
-1.51639e-10
1.27693e-10
-1.74626e-10
1.55743e-10
-1.96929e-10
1.86322e-10
-2.18406e-10
2.1908e-10
-2.38722e-10
2.54052e-10
-2.57883e-10
2.91131e-10
-2.75866e-10
3.30076e-10
-2.92738e-10
3.70871e-10
-3.08427e-10
4.12836e-10
-3.23108e-10
4.55963e-10
-3.35296e-10
5.00161e-10
-3.45859e-10
5.45384e-10
-3.54839e-10
5.91451e-10
-3.62245e-10
6.38189e-10
-3.68012e-10
6.85191e-10
-3.72145e-10
7.32312e-10
-3.74539e-10
7.79832e-10
-3.75248e-10
8.26423e-10
-3.74352e-10
8.72768e-10
-3.71786e-10
9.18791e-10
-3.67483e-10
9.63959e-10
-3.61512e-10
1.00817e-09
-3.54247e-10
1.05123e-09
-3.45648e-10
1.09297e-09
-3.35676e-10
1.13356e-09
-3.24349e-10
1.17227e-09
-3.11747e-10
1.20915e-09
-2.97804e-10
1.24431e-09
-2.82614e-10
1.27739e-09
-2.66211e-10
1.30834e-09
-2.48891e-10
1.33705e-09
-2.30724e-10
1.36341e-09
-2.11769e-10
1.38764e-09
-1.9208e-10
1.409e-09
-1.7176e-10
1.42768e-09
-1.50652e-10
1.44386e-09
-1.28942e-10
-1.06682e-10
1.45723e-09
2.01951e-12
-8.24984e-12
7.7902e-12
-2.78647e-11
1.69891e-11
-4.98316e-11
2.94257e-11
-7.36047e-11
4.51242e-11
-9.85456e-11
6.39456e-11
-1.24202e-10
8.57722e-11
-1.50169e-10
1.10765e-10
-1.76089e-10
1.38553e-10
-2.01792e-10
1.68795e-10
-2.26747e-10
2.01819e-10
-2.50689e-10
2.36946e-10
-2.73717e-10
2.74252e-10
-2.95397e-10
3.13543e-10
-3.15603e-10
3.54733e-10
-3.34271e-10
3.97567e-10
-3.5138e-10
4.43045e-10
-3.67448e-10
4.88803e-10
-3.81175e-10
5.35574e-10
-3.92901e-10
5.83337e-10
-4.02723e-10
6.32016e-10
-4.10735e-10
6.81354e-10
-4.16965e-10
7.31048e-10
-4.21383e-10
7.80803e-10
-4.23948e-10
8.30879e-10
-4.24587e-10
8.80092e-10
-4.23864e-10
9.29112e-10
-4.20677e-10
9.77728e-10
-4.1553e-10
1.0251e-09
-4.08941e-10
1.07153e-09
-4.00663e-10
1.11683e-09
-3.90792e-10
1.16078e-09
-3.79364e-10
1.20346e-09
-3.66412e-10
1.24431e-09
-3.52236e-10
1.28319e-09
-3.36428e-10
1.32029e-09
-3.1915e-10
1.35497e-09
-3.00809e-10
1.3874e-09
-2.81283e-10
1.4175e-09
-2.6071e-10
1.44514e-09
-2.39195e-10
1.4705e-09
-2.16811e-10
1.49309e-09
-1.93882e-10
1.51277e-09
-1.69981e-10
1.52984e-09
-1.45327e-10
-1.20361e-10
1.54377e-09
2.22375e-12
-1.02362e-11
8.49355e-12
-3.37658e-11
1.83939e-11
-5.95703e-11
3.19062e-11
-8.69453e-11
4.88922e-11
-1.15373e-10
6.92013e-11
-1.44388e-10
9.26976e-11
-1.73571e-10
1.19367e-10
-2.02548e-10
1.4922e-10
-2.30922e-10
1.8168e-10
-2.58657e-10
2.1673e-10
-2.85455e-10
2.54237e-10
-3.10996e-10
2.93985e-10
-3.35044e-10
3.35717e-10
-3.574e-10
3.79324e-10
-3.77975e-10
4.24012e-10
-3.96784e-10
4.72637e-10
-4.14307e-10
5.21169e-10
-4.29552e-10
5.70606e-10
-4.42585e-10
6.20914e-10
-4.53359e-10
6.72109e-10
-4.61971e-10
7.23988e-10
-4.68548e-10
7.76258e-10
-4.73169e-10
8.28654e-10
-4.75844e-10
8.80799e-10
-4.76521e-10
9.3317e-10
-4.75326e-10
9.84842e-10
-4.71844e-10
1.03559e-09
-4.66344e-10
1.08533e-09
-4.58812e-10
1.13401e-09
-4.49379e-10
1.18151e-09
-4.38171e-10
1.22763e-09
-4.25269e-10
1.27215e-09
-4.10717e-10
1.31521e-09
-3.94509e-10
1.35612e-09
-3.76829e-10
1.39483e-09
-3.57724e-10
1.43121e-09
-3.37179e-10
1.46517e-09
-3.15286e-10
1.49666e-09
-2.92181e-10
1.52558e-09
-2.68014e-10
1.55186e-09
-2.42899e-10
1.57576e-09
-2.1692e-10
1.59648e-09
-1.90189e-10
1.61412e-09
-1.62836e-10
-1.34866e-10
1.6287e-09
2.36552e-12
-1.25209e-11
9.05784e-12
-4.02847e-11
1.97472e-11
-7.00858e-11
3.42951e-11
-1.01314e-10
5.25446e-11
-1.33446e-10
7.433e-11
-1.66024e-10
9.94888e-11
-1.98618e-10
1.28053e-10
-2.30842e-10
1.59692e-10
-2.62214e-10
1.94111e-10
-2.92829e-10
2.31336e-10
-3.22332e-10
2.71169e-10
-3.5048e-10
3.13378e-10
-3.77013e-10
3.57593e-10
-4.01685e-10
4.03622e-10
-4.24323e-10
4.50198e-10
-4.449e-10
5.01665e-10
-4.63556e-10
5.52938e-10
-4.80262e-10
6.0515e-10
-4.9465e-10
6.58117e-10
-5.06537e-10
7.11843e-10
-5.15923e-10
7.66178e-10
-5.22936e-10
8.2088e-10
-5.27729e-10
8.75758e-10
-5.3042e-10
9.30242e-10
-5.31041e-10
9.8535e-10
-5.29445e-10
1.03948e-09
-5.25531e-10
1.0927e-09
-5.19429e-10
1.14478e-09
-5.11065e-10
1.19568e-09
-5.00507e-10
1.24531e-09
-4.87919e-10
1.29351e-09
-4.73436e-10
1.34009e-09
-4.57149e-10
1.38502e-09
-4.38869e-10
1.42772e-09
-4.19155e-10
1.46823e-09
-3.97909e-10
1.5063e-09
-3.75132e-10
1.54181e-09
-3.50843e-10
1.57466e-09
-3.25148e-10
1.60481e-09
-2.98216e-10
1.63221e-09
-2.70221e-10
1.65709e-09
-2.41192e-10
1.67862e-09
-2.11453e-10
1.69704e-09
-1.81022e-10
-1.49946e-10
1.71226e-09
2.51109e-12
-1.49377e-11
9.64891e-12
-4.7249e-11
2.10814e-11
-8.13601e-11
3.66217e-11
-1.16696e-10
5.60893e-11
-1.52753e-10
7.9314e-11
-1.89084e-10
1.0611e-10
-2.25261e-10
1.36632e-10
-2.60891e-10
1.69984e-10
-2.95448e-10
2.06344e-10
-3.29052e-10
2.45646e-10
-3.61365e-10
2.87719e-10
-3.92185e-10
3.32335e-10
-4.21285e-10
3.79067e-10
-4.48409e-10
4.27593e-10
-4.7327e-10
4.76449e-10
-4.95655e-10
5.30211e-10
-5.15372e-10
5.84096e-10
-5.33395e-10
6.39085e-10
-5.49043e-10
6.94812e-10
-5.6208e-10
7.51158e-10
-5.72402e-10
8.07955e-10
-5.80046e-10
8.64995e-10
-5.85119e-10
9.22198e-10
-5.87774e-10
9.79113e-10
-5.88112e-10
1.03677e-09
-5.85768e-10
1.09327e-09
-5.81231e-10
1.14897e-09
-5.74543e-10
1.20346e-09
-5.65449e-10
1.2566e-09
-5.53879e-10
1.30834e-09
-5.39971e-10
1.35856e-09
-5.23861e-10
1.40735e-09
-5.05694e-10
1.4539e-09
-4.85114e-10
1.49831e-09
-4.63188e-10
1.54054e-09
-4.39668e-10
1.5803e-09
-4.1456e-10
1.61738e-09
-3.87849e-10
1.65163e-09
-3.59545e-10
1.68299e-09
-3.29778e-10
1.71157e-09
-2.98761e-10
1.73726e-09
-2.66499e-10
1.75959e-09
-2.33547e-10
1.77875e-09
-1.99878e-10
-1.65544e-10
1.79459e-09
2.66828e-12
-1.7503e-11
1.02509e-11
-5.46609e-11
2.23991e-11
-9.3367e-11
3.88998e-11
-1.33067e-10
5.95459e-11
-1.73261e-10
8.41699e-11
-2.13523e-10
1.12571e-10
-2.53441e-10
1.45058e-10
-2.92625e-10
1.80115e-10
-3.30614e-10
2.18395e-10
-3.67341e-10
2.59695e-10
-4.02559e-10
3.0389e-10
-4.36086e-10
3.5079e-10
-4.67713e-10
4.00024e-10
-4.97262e-10
4.51205e-10
-5.24395e-10
5.02876e-10
-5.48847e-10
5.5844e-10
-5.68603e-10
6.14769e-10
-5.87322e-10
6.72408e-10
-6.04153e-10
7.30873e-10
-6.19028e-10
7.89893e-10
-6.31478e-10
8.4923e-10
-6.41073e-10
9.08668e-10
-6.47483e-10
9.68193e-10
-6.504e-10
1.02778e-09
-6.49839e-10
1.08759e-09
-6.44199e-10
1.1462e-09
-6.39062e-10
1.20431e-09
-6.3163e-10
1.26126e-09
-6.21763e-10
1.31672e-09
-6.0915e-10
1.37064e-09
-5.93932e-10
1.42291e-09
-5.76204e-10
1.47412e-09
-5.56121e-10
1.52202e-09
-5.33381e-10
1.56805e-09
-5.0909e-10
1.61188e-09
-4.83133e-10
1.65327e-09
-4.55452e-10
1.69194e-09
-4.26125e-10
1.72766e-09
-3.95116e-10
1.76028e-09
-3.62472e-10
1.79012e-09
-3.28399e-10
1.81651e-09
-2.92894e-10
1.83957e-09
-2.56563e-10
1.8594e-09
-2.19444e-10
-1.81661e-10
1.87584e-09
2.826e-12
-2.02206e-11
1.08411e-11
-6.25019e-11
2.36831e-11
-1.0607e-10
4.11397e-11
-1.50407e-10
6.29426e-11
-1.94942e-10
8.89311e-11
-2.3932e-10
1.18896e-10
-2.83138e-10
1.53247e-10
-3.26025e-10
1.90081e-10
-3.67653e-10
2.3027e-10
-4.07677e-10
2.73529e-10
-4.45912e-10
3.1979e-10
-4.82201e-10
3.6884e-10
-5.16269e-10
4.20511e-10
-5.48063e-10
4.74278e-10
-5.77335e-10
5.30559e-10
-6.03739e-10
5.86986e-10
-6.27089e-10
6.45075e-10
-6.47556e-10
7.04456e-10
-6.65059e-10
7.65123e-10
-6.7976e-10
8.26743e-10
-6.91653e-10
8.8897e-10
-7.00686e-10
9.51627e-10
-7.06841e-10
1.01432e-09
-7.10025e-10
1.07873e-09
-7.10102e-10
1.13776e-09
-7.06251e-10
1.19845e-09
-7.00032e-10
1.25873e-09
-6.9139e-10
1.3182e-09
-6.80272e-10
1.37603e-09
-6.66312e-10
1.43222e-09
-6.49614e-10
1.48661e-09
-6.3022e-10
1.54029e-09
-6.08249e-10
1.58953e-09
-5.83717e-10
1.63708e-09
-5.57115e-10
1.68247e-09
-5.28488e-10
1.72537e-09
-4.97977e-10
1.76558e-09
-4.65736e-10
1.80279e-09
-4.31782e-10
1.83672e-09
-3.9613e-10
1.86789e-09
-3.58891e-10
1.89501e-09
-3.20809e-10
1.91877e-09
-2.80613e-10
1.93919e-09
-2.39846e-10
-1.9839e-10
1.95617e-09
2.98284e-12
-2.30973e-11
1.14068e-11
-7.07421e-11
2.49109e-11
-1.19421e-10
4.33668e-11
-1.68411e-10
6.63009e-11
-2.17404e-10
9.36237e-11
-2.65994e-10
1.251e-10
-3.13844e-10
1.61128e-10
-3.60693e-10
1.99833e-10
-4.06472e-10
2.41947e-10
-4.49921e-10
2.8718e-10
-4.91316e-10
3.35601e-10
-5.29907e-10
3.86767e-10
-5.65466e-10
4.40718e-10
-5.98635e-10
4.97003e-10
-6.29761e-10
5.5598e-10
-6.58811e-10
6.14901e-10
-6.87217e-10
6.7554e-10
-7.09185e-10
7.37241e-10
-7.27761e-10
8.00219e-10
-7.43094e-10
8.6419e-10
-7.55324e-10
9.28756e-10
-7.64473e-10
9.93843e-10
-7.70591e-10
1.05908e-09
-7.73694e-10
1.12695e-09
-7.73811e-10
1.18778e-09
-7.70858e-10
1.25041e-09
-7.63885e-10
1.31269e-09
-7.53887e-10
1.37458e-09
-7.40941e-10
1.43467e-09
-7.24006e-10
1.49311e-09
-7.05021e-10
1.54964e-09
-6.83946e-10
1.60549e-09
-6.60771e-10
1.65639e-09
-6.36034e-10
1.70559e-09
-6.06942e-10
1.75258e-09
-5.76659e-10
1.79691e-09
-5.41798e-10
1.83854e-09
-5.05332e-10
1.87714e-09
-4.67833e-10
1.91241e-09
-4.29275e-10
1.9442e-09
-3.89317e-10
1.97325e-09
-3.4782e-10
1.99737e-09
-3.05277e-10
2.01835e-09
-2.60935e-10
-2.15736e-10
2.03575e-09
3.15693e-12
-2.59001e-11
1.19541e-11
-7.91647e-11
2.63055e-11
-1.33095e-10
4.56774e-11
-1.8729e-10
6.97286e-11
-2.41296e-10
9.82922e-11
-2.94564e-10
1.31097e-10
-3.4673e-10
1.68338e-10
-3.97479e-10
2.09383e-10
-4.47035e-10
2.5342e-10
-4.94351e-10
3.01221e-10
-5.38897e-10
3.52331e-10
-5.80812e-10
4.05493e-10
-6.20236e-10
4.6098e-10
-6.5651e-10
5.1878e-10
-6.89692e-10
5.7772e-10
-7.199e-10
6.42433e-10
-7.48642e-10
7.05747e-10
-7.72675e-10
7.69976e-10
-7.92801e-10
8.35263e-10
-8.0915e-10
9.01545e-10
-8.2187e-10
9.68384e-10
-8.31056e-10
1.03571e-09
-8.36901e-10
1.10314e-09
-8.39661e-10
1.17326e-09
-8.39283e-10
1.23737e-09
-8.3982e-10
1.3023e-09
-8.32714e-10
1.3668e-09
-8.20579e-10
1.43194e-09
-8.04586e-10
1.4934e-09
-7.87265e-10
1.55329e-09
-7.66838e-10
1.61134e-09
-7.4356e-10
1.66811e-09
-7.1758e-10
1.72278e-09
-6.90464e-10
1.77257e-09
-6.60317e-10
1.82366e-09
-6.24788e-10
1.86911e-09
-5.88275e-10
1.91135e-09
-5.49322e-10
1.9506e-09
-5.08584e-10
1.98689e-09
-4.66279e-10
2.01987e-09
-4.2242e-10
2.04966e-09
-3.76999e-10
2.07531e-09
-3.30919e-10
2.09691e-09
-2.82896e-10
-2.33675e-10
2.11476e-09
3.28217e-12
-2.89615e-11
1.25689e-11
-8.80865e-11
2.75339e-11
-1.4769e-10
4.77375e-11
-2.07289e-10
7.29531e-11
-2.66352e-10
1.02833e-10
-3.24427e-10
1.37112e-10
-3.81101e-10
1.75427e-10
-4.36033e-10
2.18441e-10
-4.88723e-10
2.64814e-10
-5.39545e-10
3.14732e-10
-5.87914e-10
3.67727e-10
-6.33502e-10
4.23368e-10
-6.75942e-10
4.81157e-10
-7.14915e-10
5.41077e-10
-7.50354e-10
6.00545e-10
-7.82444e-10
6.69048e-10
-8.12335e-10
7.35291e-10
-8.38163e-10
8.0227e-10
-8.60003e-10
8.70103e-10
-8.77558e-10
9.38872e-10
-8.91158e-10
1.00807e-09
-9.00773e-10
1.07743e-09
-9.06666e-10
1.14705e-09
-9.09217e-10
1.21522e-09
-9.08727e-10
1.28595e-09
-9.05254e-10
1.3548e-09
-8.97448e-10
1.42221e-09
-8.85891e-10
1.48772e-09
-8.70626e-10
1.55138e-09
-8.51855e-10
1.61321e-09
-8.29823e-10
1.67324e-09
-8.04627e-10
1.73037e-09
-7.76451e-10
1.78724e-09
-7.43762e-10
1.84155e-09
-7.10805e-10
1.89296e-09
-6.75164e-10
1.94026e-09
-6.36285e-10
1.98368e-09
-5.94342e-10
2.02394e-09
-5.49963e-10
2.06127e-09
-5.03759e-10
2.09538e-09
-4.56036e-10
2.12541e-09
-4.06876e-10
2.15265e-09
-3.56571e-10
2.17512e-09
-3.04639e-10
-2.51629e-10
2.19352e-09
3.40311e-12
-3.22899e-11
1.3088e-11
-9.75928e-11
2.86282e-11
-1.63034e-10
4.97087e-11
-2.28135e-10
7.6032e-11
-2.92453e-10
1.07245e-10
-3.55541e-10
1.43027e-10
-4.16947e-10
1.83179e-10
-4.76271e-10
2.27491e-10
-5.32601e-10
2.75615e-10
-5.8708e-10
3.27486e-10
-6.3897e-10
3.82714e-10
-6.87958e-10
4.40844e-10
-7.33676e-10
5.01114e-10
-7.75689e-10
5.63262e-10
-8.13725e-10
6.23738e-10
-8.47848e-10
6.95053e-10
-8.78224e-10
7.64016e-10
-9.05668e-10
8.33936e-10
-9.29055e-10
9.04427e-10
-9.48089e-10
9.75845e-10
-9.62765e-10
1.04748e-09
-9.73174e-10
1.1189e-09
-9.79414e-10
1.19032e-09
-9.81794e-10
1.26013e-09
-9.80597e-10
1.33399e-09
-9.75281e-10
1.4053e-09
-9.66582e-10
1.47518e-09
-9.54529e-10
1.54295e-09
-9.38566e-10
1.60869e-09
-9.18795e-10
1.67261e-09
-8.95433e-10
1.7347e-09
-8.68498e-10
1.79536e-09
-8.37962e-10
1.85146e-09
-7.99505e-10
1.90744e-09
-7.63569e-10
1.96117e-09
-7.25647e-10
2.01078e-09
-6.84786e-10
2.05589e-09
-6.40356e-10
2.09729e-09
-5.92763e-10
2.13549e-09
-5.42776e-10
2.17045e-09
-4.91037e-10
2.20112e-09
-4.37853e-10
2.22954e-09
-3.83412e-10
2.2527e-09
-3.27512e-10
-2.70479e-10
2.27159e-09
3.545e-12
-3.57404e-11
1.36105e-11
-1.07506e-10
2.97404e-11
-1.79035e-10
5.16249e-11
-2.49875e-10
7.8967e-11
-3.19622e-10
1.11471e-10
-3.87866e-10
1.48776e-10
-4.54153e-10
1.91219e-10
-5.18035e-10
2.3651e-10
-5.78368e-10
2.8621e-10
-6.36551e-10
3.39859e-10
-6.91902e-10
3.97154e-10
-7.44275e-10
4.5769e-10
-7.93366e-10
5.20581e-10
-8.38688e-10
5.85221e-10
-8.79669e-10
6.47915e-10
-9.15904e-10
7.20665e-10
-9.46796e-10
7.92156e-10
-9.75584e-10
8.64895e-10
-1.00045e-09
9.38072e-10
-1.01897e-09
1.01213e-09
-1.03769e-09
1.0863e-09
-1.05202e-09
1.16e-09
-1.06116e-09
1.2335e-09
-1.06412e-09
1.30594e-09
-1.06086e-09
1.38158e-09
-1.04686e-09
1.45468e-09
-1.03753e-09
1.52703e-09
-1.02469e-09
1.59722e-09
-1.00811e-09
1.66508e-09
-9.87535e-10
1.73125e-09
-9.63135e-10
1.79575e-09
-9.34654e-10
1.86316e-09
-9.01631e-10
1.91556e-09
-8.57734e-10
1.97229e-09
-8.17805e-10
2.02791e-09
-7.76627e-10
2.08018e-09
-7.33195e-10
2.12755e-09
-6.86412e-10
2.17048e-09
-6.36103e-10
2.20964e-09
-5.82782e-10
2.24534e-09
-5.27225e-10
2.27665e-09
-4.69942e-10
2.30599e-09
-4.11007e-10
2.32981e-09
-3.50973e-10
-2.89769e-10
2.34922e-09
3.69695e-12
-3.93132e-11
1.41506e-11
-1.1782e-10
3.08727e-11
-1.95705e-10
5.35222e-11
-2.72521e-10
8.18135e-11
-3.47847e-10
1.15544e-10
-4.21321e-10
1.54352e-10
-4.92543e-10
1.99305e-10
-5.61099e-10
2.45562e-10
-6.2605e-10
2.96787e-10
-6.88057e-10
3.5199e-10
-7.46855e-10
4.11052e-10
-8.02516e-10
4.73723e-10
-8.54784e-10
5.39257e-10
-9.03223e-10
6.06845e-10
-9.47202e-10
6.73099e-10
-9.86122e-10
7.46191e-10
-1.01622e-09
8.19759e-10
-1.04442e-09
8.97012e-10
-1.06948e-09
9.6813e-10
-1.09398e-09
1.0447e-09
-1.11056e-09
1.12205e-09
-1.12298e-09
1.20006e-09
-1.13103e-09
1.27786e-09
-1.13453e-09
1.35929e-09
-1.13315e-09
1.42843e-09
-1.12372e-09
1.50335e-09
-1.11229e-09
1.5777e-09
-1.09763e-09
1.6503e-09
-1.07955e-09
1.7203e-09
-1.05753e-09
1.78897e-09
-1.0314e-09
1.85636e-09
-1.00084e-09
1.93315e-09
-9.65197e-10
1.98029e-09
-9.20491e-10
2.03711e-09
-8.76399e-10
2.09374e-09
-8.30609e-10
2.14828e-09
-7.83122e-10
2.19811e-09
-7.33055e-10
2.24303e-09
-6.79802e-10
2.28349e-09
-6.23325e-10
2.32007e-09
-5.642e-10
2.35229e-09
-5.02907e-10
2.38209e-09
-4.39466e-10
2.40652e-09
-3.75092e-10
-3.09511e-10
2.42649e-09
3.83365e-12
-4.30054e-11
1.46727e-11
-1.28493e-10
3.19953e-11
-2.1298e-10
5.54314e-11
-2.95989e-10
8.46776e-11
-3.77127e-10
1.19581e-10
-4.55928e-10
1.59801e-10
-5.3213e-10
2.06984e-10
-6.05432e-10
2.54638e-10
-6.75545e-10
3.07451e-10
-7.4173e-10
3.64064e-10
-8.04144e-10
4.24652e-10
-8.62897e-10
4.89187e-10
-9.17995e-10
5.57207e-10