0.05 	0.0003125 	0.005 	-0.00216811 	1.47979e-07 	0
0.05 	0.0009375 	0.005 	-0.00644106 	6.19565e-07 	0
0.05 	0.0015625 	0.005 	-0.0105912 	1.45662e-06 	0
0.05 	0.0021875 	0.005 	-0.0146257 	2.62113e-06 	0
0.05 	0.0028125 	0.005 	-0.0185511 	4.02794e-06 	0
0.05 	0.0034375 	0.005 	-0.0223737 	5.62058e-06 	0
0.05 	0.0040625 	0.005 	-0.0260994 	7.35568e-06 	0
0.05 	0.0046875 	0.005 	-0.0297342 	9.19806e-06 	0
0.05 	0.0053125 	0.005 	-0.0332834 	1.11216e-05 	0
0.05 	0.0059375 	0.005 	-0.0367522 	1.31094e-05 	0
0.05 	0.0065625 	0.005 	-0.0401456 	1.51529e-05 	0
0.05 	0.0071875 	0.005 	-0.0434685 	1.72526e-05 	0
0.05 	0.0078125 	0.005 	-0.0467252 	1.94166e-05 	0
0.05 	0.0084375 	0.005 	-0.04992 	2.1661e-05 	0
0.05 	0.0090625 	0.005 	-0.0530572 	2.40095e-05 	0
0.05 	0.0096875 	0.005 	-0.0561406 	2.64936e-05 	0
0.05 	0.0103125 	0.005 	-0.0591738 	2.91521e-05 	0
0.05 	0.0109375 	0.005 	-0.0621604 	3.2031e-05 	0
0.05 	0.0115625 	0.005 	-0.0651036 	3.51835e-05 	0
0.05 	0.0121875 	0.005 	-0.0680067 	3.86699e-05 	0
0.05 	0.0128125 	0.005 	-0.0708726 	4.25574e-05 	0
0.05 	0.0134375 	0.005 	-0.0737041 	4.692e-05 	0
0.05 	0.0140625 	0.005 	-0.076504 	5.18383e-05 	0
0.05 	0.0146875 	0.005 	-0.0792747 	5.73994e-05 	0
0.05 	0.0153125 	0.005 	-0.0820185 	6.36973e-05 	0
0.05 	0.0159375 	0.005 	-0.0847378 	7.08323e-05 	0
0.05 	0.0165625 	0.005 	-0.0874345 	7.89114e-05 	0
0.05 	0.0171875 	0.005 	-0.0901107 	8.80479e-05 	0
0.05 	0.0178125 	0.005 	-0.0927681 	9.83613e-05 	0
0.05 	0.0184375 	0.005 	-0.0954084 	0.000109977 	0
0.05 	0.0190625 	0.005 	-0.0980332 	0.000123029 	0
0.05 	0.0196875 	0.005 	-0.100644 	0.000137653 	0
0.05 	0.0203125 	0.005 	-0.103242 	0.000153994 	0
0.05 	0.0209375 	0.005 	-0.105828 	0.000172202 	0
0.05 	0.0215625 	0.005 	-0.108403 	0.000192432 	0
0.05 	0.0221875 	0.005 	-0.110969 	0.000214845 	0
0.05 	0.0228125 	0.005 	-0.113526 	0.000239608 	0
0.05 	0.0234375 	0.005 	-0.116075 	0.000266891 	0
0.05 	0.0240625 	0.005 	-0.118616 	0.000296874 	0
0.05 	0.0246875 	0.005 	-0.121149 	0.000329738 	0
0.05 	0.0253125 	0.005 	-0.123676 	0.000365669 	0
0.05 	0.0259375 	0.005 	-0.126197 	0.000404858 	0
0.05 	0.0265625 	0.005 	-0.12871 	0.000447497 	0
0.05 	0.0271875 	0.005 	-0.131217 	0.000493788 	0
0.05 	0.0278125 	0.005 	-0.133717 	0.000543934 	0
0.05 	0.0284375 	0.005 	-0.13621 	0.000598142 	0
0.05 	0.0290625 	0.005 	-0.138695 	0.000656621 	0
0.05 	0.0296875 	0.005 	-0.141172 	0.00071958 	0
0.05 	0.0303125 	0.005 	-0.14364 	0.000787232 	0
0.05 	0.0309375 	0.005 	-0.146099 	0.000859794 	0
0.05 	0.0315625 	0.005 	-0.148546 	0.000937482 	0
0.05 	0.0321875 	0.005 	-0.150982 	0.00102051 	0
0.05 	0.0328125 	0.005 	-0.153404 	0.0011091 	0
0.05 	0.0334375 	0.005 	-0.155812 	0.00120346 	0
0.05 	0.0340625 	0.005 	-0.158204 	0.0013038 	0
0.05 	0.0346875 	0.005 	-0.160577 	0.00141035 	0
0.05 	0.0353125 	0.005 	-0.162931 	0.0015233 	0
0.05 	0.0359375 	0.005 	-0.165264 	0.00164285 	0
0.05 	0.0365625 	0.005 	-0.167572 	0.00176921 	0
0.05 	0.0371875 	0.005 	-0.169854 	0.00190257 	0
0.05 	0.0378125 	0.005 	-0.172107 	0.00204312 	0
0.05 	0.0384375 	0.005 	-0.174328 	0.00219103 	0
0.05 	0.0390625 	0.005 	-0.176515 	0.00234646 	0
0.05 	0.0396875 	0.005 	-0.178664 	0.00250959 	0
0.05 	0.0403125 	0.005 	-0.180772 	0.00268055 	0
0.05 	0.0409375 	0.005 	-0.182835 	0.00285947 	0
0.05 	0.0415625 	0.005 	-0.184851 	0.00304648 	0
0.05 	0.0421875 	0.005 	-0.186814 	0.00324167 	0
0.05 	0.0428125 	0.005 	-0.188721 	0.00344513 	0
0.05 	0.0434375 	0.005 	-0.190569 	0.00365693 	0
0.05 	0.0440625 	0.005 	-0.192351 	0.00387711 	0
0.05 	0.0446875 	0.005 	-0.194063 	0.00410569 	0
0.05 	0.0453125 	0.005 	-0.1957 	0.00434267 	0
0.05 	0.0459375 	0.005 	-0.197258 	0.00458802 	0
0.05 	0.0465625 	0.005 	-0.198731 	0.00484169 	0
0.05 	0.0471875 	0.005 	-0.200113 	0.00510359 	0
0.05 	0.0478125 	0.005 	-0.201397 	0.00537361 	0
0.05 	0.0484375 	0.005 	-0.202579 	0.0056516 	0
0.05 	0.0490625 	0.005 	-0.203652 	0.00593738 	0
0.05 	0.0496875 	0.005 	-0.204608 	0.00623072 	0
0.05 	0.0503125 	0.005 	-0.205441 	0.00653137 	0
0.05 	0.0509375 	0.005 	-0.206144 	0.00683903 	0
0.05 	0.0515625 	0.005 	-0.206709 	0.00715335 	0
0.05 	0.0521875 	0.005 	-0.207129 	0.00747395 	0
0.05 	0.0528125 	0.005 	-0.207396 	0.00780041 	0
0.05 	0.0534375 	0.005 	-0.2075 	0.00813223 	0
0.05 	0.0540625 	0.005 	-0.207434 	0.00846891 	0
0.05 	0.0546875 	0.005 	-0.20719 	0.00880986 	0
0.05 	0.0553125 	0.005 	-0.206757 	0.00915445 	0
0.05 	0.0559375 	0.005 	-0.206126 	0.00950199 	0
0.05 	0.0565625 	0.005 	-0.205287 	0.00985177 	0
0.05 	0.0571875 	0.005 	-0.204232 	0.010203 	0
0.05 	0.0578125 	0.005 	-0.202949 	0.0105548 	0
0.05 	0.0584375 	0.005 	-0.201428 	0.0109063 	0
0.05 	0.0590625 	0.005 	-0.199658 	0.0112566 	0
0.05 	0.0596875 	0.005 	-0.197629 	0.0116047 	0
0.05 	0.0603125 	0.005 	-0.195328 	0.0119494 	0
0.05 	0.0609375 	0.005 	-0.192744 	0.0122898 	0
0.05 	0.0615625 	0.005 	-0.189865 	0.0126246 	0
0.05 	0.0621875 	0.005 	-0.18668 	0.0129526 	0
0.05 	0.0628125 	0.005 	-0.183175 	0.0132727 	0
0.05 	0.0634375 	0.005 	-0.179339 	0.0135834 	0
0.05 	0.0640625 	0.005 	-0.175159 	0.0138836 	0
0.05 	0.0646875 	0.005 	-0.170621 	0.0141717 	0
0.05 	0.0653125 	0.005 	-0.165713 	0.0144465 	0
0.05 	0.0659375 	0.005 	-0.160421 	0.0147065 	0
0.05 	0.0665625 	0.005 	-0.154731 	0.0149503 	0
0.05 	0.0671875 	0.005 	-0.14863 	0.0151765 	0
0.05 	0.0678125 	0.005 	-0.142105 	0.0153836 	0
0.05 	0.0684375 	0.005 	-0.13514 	0.0155701 	0
0.05 	0.0690625 	0.005 	-0.127723 	0.0157347 	0
0.05 	0.0696875 	0.005 	-0.119839 	0.0158759 	0
0.05 	0.0703125 	0.005 	-0.111475 	0.0159925 	0
0.05 	0.0709375 	0.005 	-0.102616 	0.016083 	0
0.05 	0.0715625 	0.005 	-0.0932478 	0.0161461 	0
0.05 	0.0721875 	0.005 	-0.0833575 	0.0161808 	0
0.05 	0.0728125 	0.005 	-0.0729307 	0.0161858 	0
0.05 	0.0734375 	0.005 	-0.0619539 	0.0161602 	0
0.05 	0.0740625 	0.005 	-0.0504136 	0.0161031 	0
0.05 	0.0746875 	0.005 	-0.0382966 	0.0160136 	0
0.05 	0.0753125 	0.005 	-0.0255899 	0.015891 	0
0.05 	0.0759375 	0.005 	-0.012281 	0.0157349 	0
0.05 	0.0765625 	0.005 	0.00164252 	0.0155449 	0
0.05 	0.0771875 	0.005 	0.0161924 	0.0153209 	0
0.05 	0.0778125 	0.005 	0.0313799 	0.0150628 	0
0.05 	0.0784375 	0.005 	0.0472159 	0.0147708 	0
0.05 	0.0790625 	0.005 	0.0637107 	0.0144455 	0
0.05 	0.0796875 	0.005 	0.0808736 	0.0140873 	0
0.05 	0.0803125 	0.005 	0.0987137 	0.0136973 	0
0.05 	0.0809375 	0.005 	0.117239 	0.0132766 	0
0.05 	0.0815625 	0.005 	0.136456 	0.0128265 	0
0.05 	0.0821875 	0.005 	0.156372 	0.0123488 	0
0.05 	0.0828125 	0.005 	0.176992 	0.0118451 	0
0.05 	0.0834375 	0.005 	0.198319 	0.0113179 	0
0.05 	0.0840625 	0.005 	0.220358 	0.0107694 	0
0.05 	0.0846875 	0.005 	0.24311 	0.0102024 	0
0.05 	0.0853125 	0.005 	0.266575 	0.00961961 	0
0.05 	0.0859375 	0.005 	0.290754 	0.00902434 	0
0.05 	0.0865625 	0.005 	0.315644 	0.00841988 	0
0.05 	0.0871875 	0.005 	0.341241 	0.00780979 	0
0.05 	0.0878125 	0.005 	0.36754 	0.00719777 	0
0.05 	0.0884375 	0.005 	0.394535 	0.00658768 	0
0.05 	0.0890625 	0.005 	0.422217 	0.00598349 	0
0.05 	0.0896875 	0.005 	0.450578 	0.00538924 	0
0.05 	0.0903125 	0.005 	0.479604 	0.00480901 	0
0.05 	0.0909375 	0.005 	0.509283 	0.00424686 	0
0.05 	0.0915625 	0.005 	0.5396 	0.00370676 	0
0.05 	0.0921875 	0.005 	0.570538 	0.0031926 	0
0.05 	0.0928125 	0.005 	0.602078 	0.00270808 	0
0.05 	0.0934375 	0.005 	0.634199 	0.00225664 	0
0.05 	0.0940625 	0.005 	0.66688 	0.00184142 	0
0.05 	0.0946875 	0.005 	0.700097 	0.00146521 	0
0.05 	0.0953125 	0.005 	0.733824 	0.0011303 	0
0.05 	0.0959375 	0.005 	0.768033 	0.000838509 	0
0.05 	0.0965625 	0.005 	0.802696 	0.000591024 	0
0.05 	0.0971875 	0.005 	0.837783 	0.000388357 	0
0.05 	0.0978125 	0.005 	0.873261 	0.000230177 	0
0.05 	0.0984375 	0.005 	0.909098 	0.000115497 	0
0.05 	0.0990625 	0.005 	0.945259 	4.35853e-05 	0
0.05 	0.0996875 	0.005 	0.981708 	9.14322e-06 	0
