/*--------------------------------*- C++ -*----------------------------------*\
  =========                 |
  \\      /  F ield         | OpenFOAM: The Open Source CFD Toolbox
   \\    /   O peration     | Website:  https://openfoam.org
    \\  /    A nd           | Version:  7
     \\/     M anipulation  |
\*---------------------------------------------------------------------------*/
FoamFile
{
    version     2.0;
    format      ascii;
    class       volScalarField;
    location    "2.7";
    object      rho;
}
// * * * * * * * * * * * * * * * * * * * * * * * * * * * * * * * * * * * * * //

dimensions      [1 -3 0 0 0 0 0];

internalField   nonuniform List<scalar> 
1575
(
1.40001
1.40001
1.40001
1.40001
1.40001
1.40001
1.40001
2.78298
5.24916
5.5164
5.61807
5.72561
5.79674
5.84323
5.88543
1.40001
1.40001
1.40001
1.40001
1.40001
1.40001
1.40001
2.68947
5.17608
5.49177
5.59017
5.68673
5.74843
5.78201
5.82476
1.40001
1.40001
1.40001
1.40001
1.40001
1.40001
1.40001
2.49033
5.07094
5.4633
5.55617
5.64582
5.70342
5.73029
5.74478
1.40001
1.40001
1.40001
1.40001
1.40001
1.40001
1.40001
2.20438
4.91183
5.45072
5.50957
5.56573
5.584
5.5676
5.57707
1.40001
1.40001
1.40001
1.40001
1.40001
1.40001
1.40001
1.83936
4.66822
5.4279
5.44684
5.48631
5.4888
5.41953
5.40631
1.40001
1.40001
1.40001
1.40001
1.40001
1.40001
1.40001
1.46701
4.22904
5.41172
5.36015
5.36023
5.28951
4.97516
4.14427
1.40001
1.40001
1.40001
1.40001
1.40001
1.40001
1.40001
1.40074
3.52538
5.16062
5.20974
5.18806
5.03923
4.7094
3.91027
1.40001
1.40001
1.40001
1.40001
1.40001
1.40001
1.40001
1.39999
2.66104
4.91494
5.13133
5.06361
4.85539
4.526
3.76307
1.40001
1.40001
1.40001
1.40001
1.40001
1.40001
1.40001
1.4
1.80976
4.60663
5.14558
4.9555
4.72586
4.36756
3.74963
1.40001
1.40001
1.40001
1.40001
1.40001
1.40001
1.40001
1.4
1.43314
3.74832
4.94465
4.77219
4.59753
4.24562
3.76619
1.40001
1.40001
1.40001
1.40001
1.40001
1.40001
1.40001
1.40001
1.3999
2.5294
4.69275
4.75006
4.55262
4.23157
3.81687
1.40001
1.40001
1.40001
1.40001
1.40001
1.40001
1.40001
1.40001
1.39998
1.60757
3.99537
4.76432
4.52927
4.22587
3.8607
1.40001
1.40001
1.40001
1.40001
1.40001
1.40001
1.40001
1.40001
1.4
1.40492
2.72163
4.56574
4.51031
4.21676
3.89485
1.40001
1.40001
1.40001
1.40001
1.40001
1.40001
1.40001
1.40001
1.4
1.40001
1.66355
3.85012
4.5795
4.26483
3.97701
1.40001
1.40001
1.40001
1.40001
1.40001
1.40001
1.40001
1.40001
1.40001
1.40001
1.4085
2.4376
4.32433
4.31323
4.05118
1.40001
1.40001
1.40001
1.40001
1.40001
1.40001
1.40001
1.40001
1.40001
1.40001
1.40005
1.55399
3.3696
4.38814
4.1655
1.40001
1.40001
1.40001
1.40001
1.40001
1.40001
1.40001
1.40001
1.40001
1.40001
1.40001
1.4034
1.99757
3.89124
4.23646
1.40001
1.40001
1.40001
1.40001
1.40001
1.40001
1.40001
1.40001
1.40001
1.40001
1.40001
1.40002
1.44647
2.59276
4.03771
1.40001
1.40001
1.40001
1.40001
1.40001
1.40001
1.40001
1.40001
1.40001
1.40001
1.40001
1.40001
1.40067
1.59762
3.11081
1.40001
1.40001
1.40001
1.40001
1.40001
1.40001
1.40001
1.40001
1.40001
1.40001
1.40001
1.40001
1.40001
1.40643
1.85744
1.40001
1.40001
1.40001
1.40001
1.40001
1.40001
1.40001
1.40001
1.40001
1.40001
1.40001
1.40001
1.40001
1.40005
1.42969
1.40001
1.40001
1.40001
1.40001
1.40001
1.40001
1.40001
1.40001
1.40001
1.40001
1.40001
1.40001
1.40001
1.40001
1.40043
1.40001
1.40001
1.40001
1.40001
1.40001
1.40001
1.40001
1.40001
1.40001
1.40001
1.40001
1.40001
1.40001
1.40001
1.40001
1.40001
1.40001
1.40001
1.40001
1.40001
1.40001
1.40001
1.40001
1.40001
1.40001
1.40001
1.40001
1.40001
1.40001
1.40001
1.40001
1.40001
1.40001
1.40001
1.40001
1.40001
1.40001
1.40001
1.40001
1.40001
1.40001
1.40001
1.40001
1.40001
1.40001
1.49509
0.650515
0.428604
0.408794
0.41801
0.478063
0.602688
0.754219
0.859716
0.926475
0.974949
1.00961
1.03743
1.05892
1.08223
1.0855
1.0843
1.08481
1.07818
1.07739
1.09783
1.36023
2.7268
3.37055
3.32644
3.28098
3.22445
3.1333
3.06027
2.99738
2.93111
2.86553
2.80145
2.74085
2.68973
2.64889
2.60682
2.55988
2.51147
2.45925
2.40331
2.34679
2.29273
2.24277
2.19806
2.16011
2.12917
2.10012
2.07056
2.03862
2.00021
1.94931
1.88806
1.83085
1.78648
1.75213
1.72521
1.7011
1.68263
1.64349
2.24474
1.44407
1.07294
0.928038
0.801843
0.764279
0.76438
0.752335
0.776859
0.823972
0.871762
0.928209
0.982866
1.03081
1.06719
1.07792
1.08196
1.08194
1.07732
1.09591
1.27119
1.6904
2.47454
3.2269
3.29144
3.25853
3.20198
3.12158
3.05993
3.0196
2.96603
2.90246
2.82993
2.75309
2.69161
2.64817
2.60945
2.5698
2.5277
2.48059
2.42972
2.37421
2.31596
2.26016
2.20991
2.16537
2.12877
2.09751
2.06734
2.03589
2.00122
1.95684
1.90188
1.84819
1.80381
1.76723
1.73627
1.70798
1.68494
1.64015
2.70115
2.06259
1.61973
1.33039
1.12723
0.983444
0.9197
0.84589
0.817939
0.846154
0.892931
0.944093
0.989143
1.0346
1.06936
1.09716
1.11871
1.12419
1.14813
1.30741
1.76944
2.10879
2.24772
2.72879
3.2158
3.39441
3.3435
3.26958
3.19279
3.1227
3.05212
2.98159
2.90289
2.81319
2.73664
2.68541
2.6404
2.59712
2.55605
2.51213
2.46652
2.41884
2.36547
2.30625
2.24717
2.19518
2.15273
2.11641
2.08132
2.04396
2.00234
1.95678
1.91186
1.87016
1.83324
1.799
1.76572
1.73272
1.7033
1.65016
3.03302
2.46274
2.05241
1.73261
1.48848
1.2951
1.1808
1.08778
0.994608
0.96594
0.941185
0.927033
0.940249
0.970163
1.00873
1.04895
1.08176
1.12188
1.28559
1.73761
2.12354
2.3008
2.28088
2.32672
2.64551
3.07834
3.26238
3.35192
3.30886
3.22273
3.13411
3.04518
2.97323
2.892
2.8182
2.75894
2.70626
2.65595
2.60801
2.5627
2.51836
2.47249
2.422
2.3648
2.30331
2.24582
2.19734
2.15594
2.11689
2.07591
2.03236
1.98803
1.94359
1.90114
1.86397
1.83097
1.79911
1.76583
1.7339
1.67313
3.24213
2.75375
2.3712
2.06229
1.78235
1.57918
1.43211
1.30923
1.19291
1.10864
1.04088
0.973055
0.947735
0.952809
0.961536
0.982059
1.01457
1.14814
1.60486
2.03075
2.15338
2.24327
2.24523
2.22196
2.26786
2.50496
2.87866
3.18765
3.27617
3.29534
3.23537
3.14548
3.05933
2.9691
2.8924
2.82061
2.76231
2.71111
2.66277
2.61722
2.57168
2.52444
2.47488
2.42105
2.36172
2.30039
2.24407
2.19615
2.15398
2.11331
2.07262
2.03111
1.98806
1.94568
1.90624
1.86968
1.8337
1.79599
1.76109
1.69987
3.3883
2.97966
2.6115
2.31372
2.05361
1.82891
1.66309
1.51448
1.38727
1.28904
1.20847
1.13262
1.06596
1.0279
0.998916
1.0065
1.09564
1.45769
1.92514
2.01129
2.05165
2.08473
2.12371
2.13964
2.15032
2.18788
2.33467
2.66332
3.01336
3.18201
3.23055
3.21519
3.1329
3.03914
2.95205
2.87001
2.80628
2.7516
2.70131
2.6523
2.60333
2.55488
2.50724
2.45835
2.40474
2.34589
2.28797
2.23761
2.19424
2.15312
2.11171
2.06997
2.02746
1.98521
1.94443
1.90521
1.86596
1.82493
1.78835
1.73051
3.48412
3.129
2.81171
2.52185
2.26434
2.04861
1.86689
1.71482
1.57287
1.46014
1.35978
1.27144
1.191
1.12442
1.06755
1.12389
1.45306
1.92341
2.03734
2.01433
1.98423
1.9748
1.99249
2.01006
2.02094
2.03188
2.05028
2.12945
2.38689
2.73637
3.04228
3.13685
3.14752
3.10653
3.01702
2.94288
2.86059
2.78528
2.72515
2.66861
2.61836
2.57358
2.53033
2.48502
2.43358
2.37496
2.3163
2.2652
2.22256
2.18344
2.14398
2.1038
2.06183
2.01883
1.97529
1.93128
1.88776
1.8438
1.81032
1.76188
3.56611
3.26315
2.97702
2.69702
2.45135
2.25044
2.05776
1.88018
1.74036
1.62358
1.51534
1.42433
1.3216
1.2371
1.28996
1.60443
2.06862
2.19314
2.13361
2.04912
1.98972
1.96206
1.95196
1.94625
1.93758
1.92236
1.89937
1.88771
1.91763
2.07334
2.4186
2.76618
3.01242
3.03108
3.02927
3.00005
2.9218
2.82349
2.74073
2.6754
2.62756
2.5866
2.54579
2.50063
2.44966
2.39289
2.33618
2.28308
2.236
2.19515
2.15769
2.1216
2.08385
2.04566
2.00603
1.96097
1.91063
1.85868
1.82467
1.78251
3.67405
3.39102
3.1194
2.84862
2.62052
2.41166
2.2205
2.03821
1.90126
1.7741
1.65642
1.54514
1.44032
1.49072
1.82084
2.30296
2.42662
2.3429
2.24023
2.15534
2.09872
2.04392
1.99633
1.95782
1.92128
1.89963
1.88441
1.84927
1.8013
1.79396
1.85297
2.06214
2.4281
2.72014
2.90842
2.94929
2.9251
2.86151
2.76424
2.70574
2.65638
2.60376
2.55738
2.5093
2.45589
2.40311
2.3535
2.30225
2.2486
2.20137
2.16282
2.12614
2.0905
2.05888
2.0277
1.98979
1.93931
1.87914
1.8387
1.79561
3.76948
3.50046
3.23437
2.98252
2.76713
2.56442
2.36195
2.19192
2.04341
1.91381
1.78495
1.65269
1.69524
2.07824
2.58741
2.70703
2.61342
2.49491
2.39859
2.3151
2.23115
2.1525
2.08472
2.02491
1.97421
1.92599
1.87571
1.83351
1.79816
1.76976
1.72772
1.72198
1.79485
2.02712
2.35917
2.67051
2.8068
2.8003
2.78201
2.7478
2.69417
2.62593
2.55911
2.49841
2.44434
2.4033
2.36785
2.32751
2.27596
2.21247
2.15271
2.11378
2.08378
2.05719
2.03129
2.00353
1.9655
1.90586
1.85233
1.80289
3.88763
3.62352
3.35779
3.11976
2.90614
2.7027
2.50096
2.33325
2.19038
2.0424
1.89202
1.94323
2.37104
2.9262
3.01954
2.90776
2.76959
2.65486
2.55556
2.45859
2.36435
2.27877
2.20071
2.12904
2.06501
2.00181
1.93803
1.88204
1.83209
1.78213
1.72237
1.69436
1.66932
1.6619
1.73266
1.95868
2.27664
2.54938
2.68182
2.72649
2.71107
2.66064
2.56338
2.4904
2.43651
2.39721
2.37121
2.34383
2.29797
2.2308
2.15628
2.10973
2.08354
2.06398
2.04881
2.02828
1.99298
1.9328
1.87247
1.8099
4.00767
3.73809
3.47301
3.25057
3.03556
2.82708
2.63275
2.47476
2.31676
2.15166
2.21289
2.71391
3.2776
3.36135
3.22991
3.07749
2.94035
2.8236
2.71239
2.60707
2.50922
2.41646
2.32778
2.24544
2.16932
2.09716
2.02851
1.96151
1.89372
1.82273
1.75919
1.70997
1.65938
1.63239
1.60967
1.60573
1.67625
1.88517
2.18698
2.45351
2.61836
2.61357
2.56164
2.51691
2.46232
2.40906
2.36041
2.32039
2.28262
2.23526
2.17498
2.1269
2.09389
2.06465
2.03246
1.99712
1.96203
1.92383
1.88522
1.82356
4.09766
3.87958
3.60634
3.37991
3.17426
2.9622
2.77422
2.61008
2.43945
2.53292
3.11122
3.71771
3.72277
3.56114
3.38924
3.2454
3.11574
2.98835
2.86807
2.75504
2.64634
2.54005
2.43819
2.34593
2.26273
2.18507
2.11245
2.04101
1.96912
1.89384
1.82462
1.7591
1.69992
1.64924
1.59993
1.57464
1.55106
1.54255
1.61569
1.79906
2.11227
2.31687
2.45393
2.49023
2.48647
2.44903
2.37601
2.31552
2.27149
2.22413
2.17711
2.1452
2.11784
2.07745
2.029
1.98507
1.94976
1.9219
1.89573
1.83649
4.0467
4.00137
3.76512
3.52332
3.30777
3.0916
2.91464
2.74413
2.8982
3.581
4.19191
4.15869
3.94196
3.74072
3.57478
3.42587
3.28454
3.1505
3.02323
2.89994
2.7782
2.65917
2.54793
2.44888
2.36021
2.27825
2.20034
2.12222
2.04395
1.96611
1.89225
1.81981
1.75924
1.70116
1.64621
1.59742
1.54735
1.51974
1.49436
1.48214
1.54563
1.72345
1.98534
2.21168
2.35925
2.39035
2.35905
2.33606
2.3035
2.25843
2.21086
2.16237
2.10535
2.04869
2.00863
1.98299
1.96557
1.94647
1.9234
1.85602
3.41708
3.99231
3.90941
3.69217
3.43701
3.22709
3.06629
3.32794
4.13715
4.74137
4.6633
4.38897
4.14873
3.95009
3.77163
3.60231
3.44327
3.29578
3.15633
3.02031
2.88614
2.75698
2.63845
2.53325
2.43912
2.35288
2.27117
2.19078
2.11041
2.02985
1.9503
1.87247
1.80386
1.74189
1.68807
1.63715
1.58378
1.53838
1.4883
1.45665
1.43644
1.43099
1.48583
1.65706
1.89185
2.11853
2.19385
2.25533
2.26772
2.25757
2.2338
2.18603
2.10829
2.04938
2.01638
1.98278
1.94547
1.91705
1.90088
1.86738
2.12583
3.57001
3.94461
3.84278
3.58881
3.39963
3.83608
4.80898
5.29826
5.17725
4.89582
4.61948
4.37622
4.15417
3.94749
3.7561
3.57983
3.41624
3.26175
3.11281
2.96876
2.83311
2.71045
2.60175
2.50425
2.41439
2.32868
2.24598
2.16526
2.08633
2.00899
1.93398
1.86281
1.79606
1.73501
1.67338
1.61122
1.55717
1.51048
1.47091
1.42434
1.39384
1.37019
1.36966
1.41658
1.56097
1.77205
2.00302
2.11641
2.1497
2.14382
2.12243
2.10376
2.0808
2.04689
2.0002
1.95177
1.92086
1.89445
1.83914
1.4728
2.34892
3.70178
3.82442
3.81941
4.41717
5.58504
5.86884
5.71917
5.36987
5.08538
4.81621
4.55622
4.31125
4.08605
3.88045
3.69071
3.51322
3.3457
3.18666
3.0364
2.89732
2.77185
2.65952
2.558
2.4643
2.3751
2.28877
2.20357
2.11992
2.03947
1.96554
1.89615
1.83024
1.77024
1.7136
1.6584
1.60075
1.54424
1.49146
1.44003
1.39938
1.355
1.33258
1.31637
1.30805
1.35534
1.48456
1.68826
1.89948
2.02489
2.02293
2.03417
2.03806
2.024
2.00548
1.97227
1.93137
1.89621
1.84183
1.40144
1.53239
2.61712
3.39303
4.83995
6.29526
6.46766
6.23364
5.8632
5.5422
5.24447
4.95396
4.67488
4.41572
4.17887
3.96231
3.76215
3.5744
3.39699
3.22994
3.07484
2.93432
2.80963
2.69836
2.59653
2.50073
2.40903
2.32131
2.23658
2.15406
2.07324
1.99616
1.92127
1.85068
1.78643
1.72486
1.67233
1.62574
1.57199
1.51229
1.46147
1.41644
1.37221
1.33355
1.2991
1.28118
1.26525
1.26048
1.30478
1.40846
1.58268
1.74309
1.8704
1.96661
1.98625
1.97251
1.92503
1.89973
1.89647
1.92908
1.40001
1.40437
1.60191
2.77958
6.34188
6.96963
6.47679
6.18386
5.89378
5.60156
5.28994
4.99656
4.71829
4.45884
4.21961
3.99972
3.79683
3.60706
3.42708
3.25696
3.09984
2.95908
2.83485
2.724
2.62246
2.52619
2.43243
2.34073
2.25334
2.17362
2.10066
2.02767
1.95061
1.8735
1.80432
1.74779
1.69084
1.6231
1.58484
1.55831
1.52271
1.47935
1.43321
1.38419
1.34054
1.30797
1.27739
1.25219
1.21922
1.20368
1.23169
1.33169
1.48566
1.65981
1.81192
1.92079
1.98682
2.04641
2.11033
2.29764
1.40001
1.40004
1.40716
3.05292
6.61668
6.90172
6.52895
6.29768
6.02617
5.69718
5.34631
5.03009
4.74881
4.48956
4.24785
4.02353
3.81668
3.62493
3.44438
3.27375
3.11572
2.97398
2.84822
2.73461
2.62975
2.53201
2.44062
2.35352
2.26816
2.18095
2.09273
2.00867
1.93543
1.87205
1.81138
1.74857
1.68792
1.63536
1.58733
1.53508
1.48748
1.44016
1.39509
1.34909
1.30658
1.27293
1.2433
1.2116
1.17464
1.13912
1.10055
1.1026
1.14195
1.26382
1.49847
1.83488
2.14933
2.40961
2.63344
2.90253
)
;

boundaryField
{
    inlet
    {
        type            calculated;
        value           uniform 1.40001;
    }
    outlet
    {
        type            calculated;
        value           nonuniform List<scalar> 
20
(
1.64257
1.63968
1.65023
1.67384
1.70042
1.73035
1.76091
1.78118
1.79439
1.80195
1.8097
1.82394
1.83739
1.85732
1.86745
1.84037
1.84331
1.93011
2.30038
2.90638
)
;
    }
    bottom
    {
        type            symmetryPlane;
    }
    top
    {
        type            symmetryPlane;
    }
    obstacle
    {
        type            calculated;
        value           nonuniform List<scalar> 
65
(
5.88543
5.82476
5.74478
5.57707
5.40631
1.49509
0.650515
0.428604
0.408794
0.41801
0.478063
0.602688
0.754219
0.859716
0.926475
0.974949
1.00961
1.03743
1.05892
1.08223
1.0855
1.0843
1.08481
1.07818
1.07739
1.09783
1.36023
2.7268
3.37055
3.32644
3.28098
3.22445
3.1333
3.06027
2.99738
2.93111
2.86553
2.80145
2.74085
2.68973
2.64889
2.60682
2.55988
2.51147
2.45925
2.40331
2.34679
2.29273
2.24277
2.19806
2.16011
2.12917
2.10012
2.07056
2.03862
2.00021
1.94931
1.88806
1.83085
1.78648
1.75213
1.72521
1.7011
1.68263
1.64349
)
;
    }
    defaultFaces
    {
        type            empty;
    }
}


// ************************************************************************* //
