/*--------------------------------*- C++ -*----------------------------------*\
  =========                 |
  \\      /  F ield         | OpenFOAM: The Open Source CFD Toolbox
   \\    /   O peration     | Website:  https://openfoam.org
    \\  /    A nd           | Version:  7
     \\/     M anipulation  |
\*---------------------------------------------------------------------------*/
FoamFile
{
    version     2.0;
    format      ascii;
    class       volScalarField;
    location    "3.2";
    object      p;
}
// * * * * * * * * * * * * * * * * * * * * * * * * * * * * * * * * * * * * * //

dimensions      [0 2 -2 0 0 0 0];

internalField   nonuniform List<scalar> 
306000
(
-0.347936
-0.354092
-0.356202
-0.359245
-0.361466
-0.363767
-0.365995
-0.368351
-0.370869
-0.373611
-0.376604
-0.379869
-0.38341
-0.387228
-0.391312
-0.395651
-0.400225
-0.405014
-0.409994
-0.415136
-0.420411
-0.425786
-0.431224
-0.436688
-0.442137
-0.447526
-0.452809
-0.457937
-0.462859
-0.467522
-0.471869
-0.475845
-0.479389
-0.482443
-0.484945
-0.486835
-0.488051
-0.488534
-0.488224
-0.487065
-0.485001
-0.481982
-0.47796
-0.472895
-0.466751
-0.459499
-0.45112
-0.441604
-0.430952
-0.419175
-0.4063
-0.392364
-0.37742
-0.361534
-0.344781
-0.327251
-0.309035
-0.290235
-0.270953
-0.251231
-0.348006
-0.354153
-0.356261
-0.3593
-0.361519
-0.36382
-0.366046
-0.368402
-0.370918
-0.37366
-0.376653
-0.379918
-0.383459
-0.387277
-0.391362
-0.395701
-0.400276
-0.405067
-0.410047
-0.415191
-0.420468
-0.425844
-0.431285
-0.436751
-0.442202
-0.447593
-0.452879
-0.458011
-0.462937
-0.467603
-0.471955
-0.475935
-0.479485
-0.482544
-0.485051
-0.486947
-0.48817
-0.488659
-0.488356
-0.487204
-0.485148
-0.482137
-0.478124
-0.473067
-0.466932
-0.459689
-0.451319
-0.441811
-0.431167
-0.419399
-0.40653
-0.392601
-0.377663
-0.36178
-0.345031
-0.327503
-0.309289
-0.290491
-0.271211
-0.251483
-0.348145
-0.354275
-0.356378
-0.359412
-0.361627
-0.363924
-0.366149
-0.368502
-0.371018
-0.373758
-0.376751
-0.380016
-0.383558
-0.387376
-0.391462
-0.395802
-0.400379
-0.405171
-0.410154
-0.4153
-0.42058
-0.42596
-0.431405
-0.436875
-0.442331
-0.447728
-0.45302
-0.458159
-0.463092
-0.467766
-0.472126
-0.476115
-0.479675
-0.482744
-0.485263
-0.487171
-0.488406
-0.488909
-0.48862
-0.487483
-0.485442
-0.482447
-0.478451
-0.473411
-0.467293
-0.460068
-0.451715
-0.442225
-0.431597
-0.419844
-0.406991
-0.393074
-0.378147
-0.362273
-0.345531
-0.328007
-0.309797
-0.291001
-0.271726
-0.251984
-0.348353
-0.354458
-0.356554
-0.359578
-0.361788
-0.36408
-0.366301
-0.368653
-0.371166
-0.373906
-0.376898
-0.380162
-0.383704
-0.387523
-0.391611
-0.395953
-0.400532
-0.405327
-0.410313
-0.415464
-0.420748
-0.426134
-0.431584
-0.437062
-0.442525
-0.44793
-0.453231
-0.458379
-0.463323
-0.468009
-0.472382
-0.476385
-0.479959
-0.483044
-0.48558
-0.487505
-0.488759
-0.489282
-0.489014
-0.487899
-0.485881
-0.48291
-0.478939
-0.473925
-0.467832
-0.460633
-0.452307
-0.442842
-0.432239
-0.42051
-0.407678
-0.393781
-0.37887
-0.363009
-0.346277
-0.328761
-0.310555
-0.291764
-0.272497
-0.252734
-0.348629
-0.354701
-0.356788
-0.359799
-0.362002
-0.364288
-0.366505
-0.368852
-0.371364
-0.374102
-0.377093
-0.380357
-0.3839
-0.38772
-0.391809
-0.396153
-0.400735
-0.405534
-0.410525
-0.415681
-0.420972
-0.426364
-0.431822
-0.437309
-0.442782
-0.448198
-0.453511
-0.458672
-0.46363
-0.468332
-0.472722
-0.476742
-0.480336
-0.483441
-0.485999
-0.487948
-0.489227
-0.489777
-0.489537
-0.488451
-0.486464
-0.483524
-0.479586
-0.474605
-0.468547
-0.461383
-0.453091
-0.443661
-0.433091
-0.421393
-0.40859
-0.394718
-0.379829
-0.363986
-0.347267
-0.32976
-0.311561
-0.292776
-0.273518
-0.253729
-0.348974
-0.355004
-0.35708
-0.360074
-0.362268
-0.364546
-0.366758
-0.369101
-0.37161
-0.374346
-0.377336
-0.380599
-0.384143
-0.387964
-0.392055
-0.396402
-0.400989
-0.405792
-0.410789
-0.415951
-0.421249
-0.42665
-0.432119
-0.437616
-0.443101
-0.448531
-0.453859
-0.459036
-0.464012
-0.468733
-0.473143
-0.477186
-0.480803
-0.483935
-0.48652
-0.488498
-0.489808
-0.49039
-0.490185
-0.489135
-0.487186
-0.484286
-0.480388
-0.475449
-0.469434
-0.462313
-0.454064
-0.444676
-0.434148
-0.422488
-0.409721
-0.395881
-0.381019
-0.365198
-0.348496
-0.331002
-0.312811
-0.294033
-0.274788
-0.254963
-0.349385
-0.355365
-0.357428
-0.360403
-0.362586
-0.364855
-0.36706
-0.369399
-0.371903
-0.374637
-0.377626
-0.380889
-0.384433
-0.388256
-0.392349
-0.3967
-0.40129
-0.406099
-0.411103
-0.416273
-0.42158
-0.426991
-0.432471
-0.437982
-0.443482
-0.448927
-0.454273
-0.459469
-0.464466
-0.46921
-0.473645
-0.477714
-0.48136
-0.484522
-0.48714
-0.489152
-0.490499
-0.49112
-0.490955
-0.489948
-0.488044
-0.485191
-0.481341
-0.476453
-0.470488
-0.463418
-0.455221
-0.445883
-0.435404
-0.423791
-0.411066
-0.397264
-0.382435
-0.366641
-0.34996
-0.33248
-0.314299
-0.295529
-0.276299
-0.256433
-0.349863
-0.355785
-0.357833
-0.360785
-0.362956
-0.365213
-0.367411
-0.369743
-0.372244
-0.374975
-0.377962
-0.381225
-0.384769
-0.388593
-0.39269
-0.397045
-0.40164
-0.406456
-0.411466
-0.416646
-0.421963
-0.427386
-0.43288
-0.438405
-0.443921
-0.449386
-0.454751
-0.45997
-0.464991
-0.469761
-0.474224
-0.478324
-0.482003
-0.4852
-0.487855
-0.489907
-0.491296
-0.491962
-0.491845
-0.490887
-0.489035
-0.486236
-0.482442
-0.47761
-0.471704
-0.464693
-0.456555
-0.447276
-0.436853
-0.425293
-0.412619
-0.398862
-0.384071
-0.368308
-0.351651
-0.334189
-0.316019
-0.297259
-0.278046
-0.258131
-0.350406
-0.356262
-0.358292
-0.361219
-0.363375
-0.365621
-0.367809
-0.370135
-0.372631
-0.375358
-0.378343
-0.381605
-0.38515
-0.388977
-0.393076
-0.397435
-0.402037
-0.406859
-0.411878
-0.417068
-0.422397
-0.427833
-0.433342
-0.438884
-0.444419
-0.449904
-0.455293
-0.460536
-0.465584
-0.470383
-0.474879
-0.479013
-0.482728
-0.485965
-0.488662
-0.49076
-0.492197
-0.492912
-0.492848
-0.491947
-0.490152
-0.487414
-0.483683
-0.478916
-0.473076
-0.466132
-0.45806
-0.448847
-0.438488
-0.42699
-0.414371
-0.400665
-0.385919
-0.370192
-0.353563
-0.336121
-0.317964
-0.299214
-0.280021
-0.260049
-0.351013
-0.356795
-0.358806
-0.361704
-0.363844
-0.366075
-0.368254
-0.370572
-0.373063
-0.375786
-0.378769
-0.38203
-0.385576
-0.389404
-0.393507
-0.397871
-0.402478
-0.407309
-0.412337
-0.417538
-0.42288
-0.428331
-0.433856
-0.439417
-0.444972
-0.45048
-0.455894
-0.461165
-0.466243
-0.471075
-0.475606
-0.479778
-0.483534
-0.486814
-0.489559
-0.491706
-0.493195
-0.493967
-0.493961
-0.493121
-0.491392
-0.48872
-0.485059
-0.480364
-0.474597
-0.467727
-0.459729
-0.450589
-0.440301
-0.428871
-0.416316
-0.402667
-0.38797
-0.372285
-0.355687
-0.338268
-0.320127
-0.301386
-0.282217
-0.262181
-0.351683
-0.357384
-0.359372
-0.362238
-0.364361
-0.366577
-0.368745
-0.371054
-0.373538
-0.376258
-0.379238
-0.382498
-0.386044
-0.389875
-0.393981
-0.39835
-0.402964
-0.407803
-0.412842
-0.418054
-0.42341
-0.428877
-0.43442
-0.440001
-0.445579
-0.451112
-0.456553
-0.461855
-0.466965
-0.471833
-0.476402
-0.480616
-0.484416
-0.487744
-0.490539
-0.49274
-0.494287
-0.49512
-0.495178
-0.494406
-0.492746
-0.490148
-0.486563
-0.481946
-0.476259
-0.469469
-0.461553
-0.452493
-0.442283
-0.430928
-0.418443
-0.404857
-0.390215
-0.374576
-0.358014
-0.340621
-0.322497
-0.303767
-0.284625
-0.264515
-0.352413
-0.358025
-0.35999
-0.362821
-0.364925
-0.367123
-0.369279
-0.371579
-0.374057
-0.376771
-0.379749
-0.383008
-0.386554
-0.390386
-0.394496
-0.398871
-0.403492
-0.40834
-0.41339
-0.418615
-0.423986
-0.42947
-0.435032
-0.440635
-0.446238
-0.451797
-0.457268
-0.462602
-0.467748
-0.472653
-0.477263
-0.481522
-0.48537
-0.48875
-0.491599
-0.493859
-0.495468
-0.496366
-0.496493
-0.495793
-0.49421
-0.491691
-0.488187
-0.483654
-0.478053
-0.471351
-0.463523
-0.45455
-0.444425
-0.433151
-0.420742
-0.407226
-0.392645
-0.377056
-0.360534
-0.34317
-0.325066
-0.306347
-0.287236
-0.267043
-0.353203
-0.358719
-0.360658
-0.363452
-0.365534
-0.367714
-0.369857
-0.372147
-0.374617
-0.377326
-0.3803
-0.383557
-0.387104
-0.390938
-0.395052
-0.399432
-0.404061
-0.408918
-0.413979
-0.419218
-0.424605
-0.430107
-0.43569
-0.441316
-0.446944
-0.452532
-0.458034
-0.463403
-0.468586
-0.473532
-0.478187
-0.482493
-0.486392
-0.489826
-0.492735
-0.495056
-0.496731
-0.497699
-0.4979
-0.497277
-0.495775
-0.49334
-0.489924
-0.485481
-0.479972
-0.473363
-0.465629
-0.456749
-0.446715
-0.435529
-0.423202
-0.409762
-0.395247
-0.379715
-0.363237
-0.345905
-0.327823
-0.309116
-0.290039
-0.269752
-0.354051
-0.359464
-0.361375
-0.364128
-0.366187
-0.368347
-0.370476
-0.372755
-0.375216
-0.37792
-0.38089
-0.384146
-0.387692
-0.391529
-0.395646
-0.400032
-0.404669
-0.409536
-0.414609
-0.419862
-0.425265
-0.430786
-0.436391
-0.442041
-0.447697
-0.453315
-0.45885
-0.464254
-0.469478
-0.474467
-0.479168
-0.483524
-0.487478
-0.490969
-0.493939
-0.496327
-0.498071
-0.499113
-0.499392
-0.498851
-0.497434
-0.495088
-0.491764
-0.487417
-0.482005
-0.475496
-0.467861
-0.45908
-0.449143
-0.438051
-0.425813
-0.412453
-0.398011
-0.382539
-0.36611
-0.348815
-0.330757
-0.312061
-0.293024
-0.272632
-0.354955
-0.360258
-0.362139
-0.364849
-0.366884
-0.369022
-0.371135
-0.373402
-0.375854
-0.378551
-0.381517
-0.384771
-0.388317
-0.392156
-0.396277
-0.400669
-0.405313
-0.41019
-0.415276
-0.420544
-0.425964
-0.431505
-0.437132
-0.442808
-0.448492
-0.454141
-0.459711
-0.465154
-0.470418
-0.475453
-0.480202
-0.484611
-0.488621
-0.492173
-0.495208
-0.497664
-0.499482
-0.500601
-0.500962
-0.500506
-0.499179
-0.496927
-0.4937
-0.489453
-0.484144
-0.477738
-0.470208
-0.461532
-0.451698
-0.440704
-0.42856
-0.415288
-0.400922
-0.385517
-0.369141
-0.351886
-0.333856
-0.315171
-0.29618
-0.275669
-0.355913
-0.361099
-0.362949
-0.365612
-0.367621
-0.369736
-0.371833
-0.374086
-0.376529
-0.379219
-0.38218
-0.385431
-0.388978
-0.392817
-0.396942
-0.40134
-0.405993
-0.41088
-0.415978
-0.421261
-0.426699
-0.432261
-0.437911
-0.443613
-0.449327
-0.455009
-0.460615
-0.466096
-0.471404
-0.476485
-0.481286
-0.485749
-0.489818
-0.493433
-0.496535
-0.499063
-0.500957
-0.502156
-0.502602
-0.502236
-0.501002
-0.498847
-0.495721
-0.491578
-0.486376
-0.48008
-0.472659
-0.464092
-0.454366
-0.443477
-0.431432
-0.418252
-0.40397
-0.388636
-0.372318
-0.355107
-0.337107
-0.318433
-0.299495
-0.27885
-0.356922
-0.361986
-0.363802
-0.366416
-0.368397
-0.370488
-0.372567
-0.374807
-0.377239
-0.379921
-0.382877
-0.386125
-0.389671
-0.393512
-0.397641
-0.402044
-0.406705
-0.411602
-0.416714
-0.422012
-0.427468
-0.433051
-0.438725
-0.444454
-0.450198
-0.455913
-0.461556
-0.467079
-0.472431
-0.47756
-0.482413
-0.486933
-0.491062
-0.494742
-0.497914
-0.500516
-0.502488
-0.503771
-0.504304
-0.504031
-0.502894
-0.50084
-0.497819
-0.493784
-0.488693
-0.482509
-0.475202
-0.466749
-0.457136
-0.446356
-0.434416
-0.421333
-0.407139
-0.391881
-0.375627
-0.358463
-0.340499
-0.321833
-0.302958
-0.28216
-0.357981
-0.362916
-0.364697
-0.36726
-0.369211
-0.371276
-0.373336
-0.375561
-0.377982
-0.380656
-0.383606
-0.386851
-0.390395
-0.394237
-0.398369
-0.402778
-0.407447
-0.412355
-0.417479
-0.422793
-0.428268
-0.433872
-0.439571
-0.445327
-0.451101
-0.456851
-0.462532
-0.468096
-0.473494
-0.478673
-0.483579
-0.488157
-0.492349
-0.496096
-0.499338
-0.502017
-0.50407
-0.505438
-0.506062
-0.505883
-0.504846
-0.502896
-0.499983
-0.496059
-0.491082
-0.485015
-0.477826
-0.469491
-0.459994
-0.449328
-0.437497
-0.424516
-0.410415
-0.395239
-0.379053
-0.361941
-0.344016
-0.325359
-0.306557
-0.285585
-0.359088
-0.363888
-0.365631
-0.36814
-0.370061
-0.372098
-0.374139
-0.376347
-0.378757
-0.381421
-0.384365
-0.387606
-0.391149
-0.394992
-0.399127
-0.403541
-0.408217
-0.413136
-0.418273
-0.423603
-0.429096
-0.434721
-0.440445
-0.446229
-0.452035
-0.457819
-0.463539
-0.469145
-0.474589
-0.479818
-0.484779
-0.489416
-0.493672
-0.497487
-0.500802
-0.503558
-0.505694
-0.50715
-0.507866
-0.507784
-0.506849
-0.505005
-0.502202
-0.498393
-0.493533
-0.487586
-0.480518
-0.472304
-0.462928
-0.45238
-0.440662
-0.427788
-0.413785
-0.398695
-0.382581
-0.365526
-0.347645
-0.328995
-0.310279
-0.289109
-0.360239
-0.3649
-0.366604
-0.369056
-0.370944
-0.372953
-0.374972
-0.377164
-0.379561
-0.382215
-0.385152
-0.388388
-0.391929
-0.395772
-0.39991
-0.404329
-0.409013
-0.413942
-0.419092
-0.424437
-0.429949
-0.435596
-0.441344
-0.447156
-0.452993
-0.458813
-0.464572
-0.470221
-0.475711
-0.480992
-0.486008
-0.490705
-0.495025
-0.498909
-0.502299
-0.505134
-0.507354
-0.508898
-0.509708
-0.509726
-0.508894
-0.507158
-0.504468
-0.500775
-0.496035
-0.49021
-0.483266
-0.475177
-0.465924
-0.455497
-0.443896
-0.431133
-0.417232
-0.402234
-0.386198
-0.369204
-0.351372
-0.332727
-0.314112
-0.292713
-0.361433
-0.365948
-0.367612
-0.370006
-0.37186
-0.373838
-0.375835
-0.37801
-0.380392
-0.383036
-0.385966
-0.389196
-0.392734
-0.396577
-0.400717
-0.405141
-0.409832
-0.414771
-0.419933
-0.425294
-0.430824
-0.436492
-0.442265
-0.448105
-0.453974
-0.459829
-0.465627
-0.471319
-0.476857
-0.482189
-0.487261
-0.492018
-0.496403
-0.500357
-0.503822
-0.506736
-0.509041
-0.510676
-0.511581
-0.511698
-0.510971
-0.509346
-0.506769
-0.503194
-0.498576
-0.492875
-0.486057
-0.478095
-0.468969
-0.458666
-0.447186
-0.434538
-0.420743
-0.405841
-0.389887
-0.372959
-0.355181
-0.336539
-0.318044
-0.296381
-0.362668
-0.367033
-0.368654
-0.370987
-0.372805
-0.374751
-0.376726
-0.378881
-0.381249
-0.383882
-0.386803
-0.390028
-0.393562
-0.397404
-0.401546
-0.405974
-0.410672
-0.415619
-0.420794
-0.42617
-0.431718
-0.437407
-0.443204
-0.449073
-0.454973
-0.460863
-0.466699
-0.472435
-0.47802
-0.483403
-0.488531
-0.493349
-0.4978
-0.501824
-0.505364
-0.508359
-0.510749
-0.512474
-0.513475
-0.513693
-0.513072
-0.511557
-0.509096
-0.50564
-0.501145
-0.49557
-0.48888
-0.481047
-0.472049
-0.461874
-0.450517
-0.437986
-0.424302
-0.4095
-0.393633
-0.376775
-0.359057
-0.340415
-0.322062
-0.300093
-0.36394
-0.36815
-0.369727
-0.371997
-0.373778
-0.375692
-0.377642
-0.379777
-0.38213
-0.38475
-0.387661
-0.39088
-0.39441
-0.398251
-0.402393
-0.406825
-0.411529
-0.416486
-0.421672
-0.427062
-0.432627
-0.438338
-0.444159
-0.450054
-0.455985
-0.461911
-0.467786
-0.473564
-0.479196
-0.48463
-0.489815
-0.494693
-0.499208
-0.503303
-0.506918
-0.509993
-0.512469
-0.514284
-0.515381
-0.515701
-0.515186
-0.513782
-0.511437
-0.508102
-0.50373
-0.498282
-0.491721
-0.484018
-0.475151
-0.465105
-0.453874
-0.441465
-0.427894
-0.413196
-0.397421
-0.380637
-0.362986
-0.34434
-0.326148
-0.303825
-0.365246
-0.369298
-0.37083
-0.373034
-0.374778
-0.376656
-0.378581
-0.380695
-0.383031
-0.385639
-0.38854
-0.391751
-0.395277
-0.399115
-0.403258
-0.407692
-0.412401
-0.417366
-0.422563
-0.427967
-0.43355
-0.43928
-0.445124
-0.451047
-0.457008
-0.462968
-0.468881
-0.474701
-0.48038
-0.485865
-0.491105
-0.496043
-0.500623
-0.504788
-0.508478
-0.511633
-0.514194
-0.5161
-0.517293
-0.517713
-0.517305
-0.516012
-0.513783
-0.510568
-0.506321
-0.501
-0.494569
-0.486998
-0.478263
-0.468347
-0.457244
-0.444958
-0.431505
-0.416914
-0.401234
-0.38453
-0.366951
-0.3483
-0.330289
-0.30752
-0.366586
-0.370474
-0.37196
-0.374097
-0.3758
-0.377643
-0.379541
-0.381634
-0.383952
-0.386545
-0.389436
-0.392639
-0.396159
-0.399994
-0.404136
-0.408572
-0.413286
-0.418258
-0.423465
-0.428882
-0.434481
-0.44023
-0.446097
-0.452046
-0.458037
-0.46403
-0.469981
-0.475842
-0.481567
-0.487102
-0.492396
-0.497394
-0.502039
-0.506272
-0.510036
-0.513271
-0.515916
-0.517912
-0.5192
-0.519721
-0.519419
-0.518237
-0.516124
-0.513029
-0.508906
-0.503713
-0.497412
-0.489973
-0.48137
-0.471587
-0.460613
-0.448453
-0.435119
-0.420639
-0.405058
-0.388438
-0.370938
-0.352283
-0.334494
-0.311155
-0.367955
-0.371676
-0.373114
-0.375182
-0.376844
-0.37865
-0.380521
-0.38259
-0.38489
-0.387468
-0.390347
-0.39354
-0.397054
-0.400885
-0.405026
-0.409463
-0.414181
-0.419159
-0.424376
-0.429805
-0.435418
-0.441186
-0.447075
-0.453048
-0.459068
-0.465094
-0.47108
-0.476983
-0.482752
-0.488336
-0.493684
-0.49874
-0.503448
-0.507749
-0.511586
-0.514899
-0.517628
-0.519713
-0.521096
-0.521717
-0.521519
-0.520447
-0.518449
-0.515474
-0.511474
-0.506409
-0.500238
-0.492931
-0.484461
-0.47481
-0.463968
-0.451934
-0.438722
-0.424355
-0.408878
-0.392345
-0.374928
-0.356272
-0.338753
-0.315116
-0.369351
-0.372903
-0.374291
-0.376288
-0.377908
-0.379676
-0.381517
-0.383562
-0.385843
-0.388405
-0.391271
-0.394454
-0.39796
-0.401786
-0.405924
-0.410362
-0.415082
-0.420066
-0.425291
-0.430731
-0.436358
-0.442143
-0.448053
-0.45405
-0.460098
-0.466154
-0.472176
-0.478117
-0.48393
-0.489562
-0.494962
-0.500075
-0.504845
-0.509213
-0.513122
-0.516512
-0.519323
-0.521496
-0.522971
-0.52369
-0.523596
-0.522634
-0.520749
-0.517892
-0.514016
-0.509077
-0.503036
-0.495861
-0.487524
-0.478006
-0.467294
-0.455389
-0.4423
-0.42805
-0.412679
-0.396237
-0.378908
-0.360248
-0.342806
-0.319276
-0.370771
-0.37415
-0.375488
-0.377412
-0.378989
-0.380717
-0.382529
-0.384549
-0.386809
-0.389354
-0.392205
-0.395377
-0.398875
-0.402695
-0.406829
-0.411266
-0.415988
-0.420976
-0.426207
-0.431657
-0.437298
-0.443099
-0.449027
-0.455047
-0.461121
-0.467207
-0.473263
-0.479242
-0.485096
-0.490775
-0.496226
-0.501394
-0.506223
-0.510657
-0.514636
-0.518101
-0.520993
-0.523251
-0.524818
-0.525634
-0.525642
-0.524787
-0.523015
-0.520275
-0.51652
-0.511707
-0.505795
-0.49875
-0.490546
-0.48116
-0.470581
-0.458805
-0.44584
-0.431707
-0.416446
-0.400099
-0.382865
-0.364272
-0.346774
-0.323392
-0.372212
-0.375417
-0.376703
-0.378553
-0.380085
-0.381773
-0.383553
-0.385546
-0.387785
-0.390312
-0.393148
-0.396308
-0.399796
-0.403609
-0.407738
-0.412173
-0.416895
-0.421886
-0.427123
-0.432581
-0.438233
-0.444049
-0.449995
-0.456036
-0.462134
-0.468249
-0.474336
-0.480352
-0.486246
-0.491969
-0.497469
-0.50269
-0.507578
-0.512075
-0.516122
-0.51966
-0.52263
-0.524973
-0.526629
-0.52754
-0.527648
-0.526898
-0.525237
-0.522613
-0.518978
-0.514288
-0.508503
-0.501589
-0.493516
-0.484263
-0.473815
-0.462168
-0.449328
-0.435315
-0.420165
-0.403916
-0.386762
-0.368279
-0.350738
-0.327441
-0.373673
-0.3767
-0.377934
-0.379709
-0.381194
-0.38284
-0.384588
-0.386554
-0.388769
-0.391277
-0.394097
-0.397244
-0.40072
-0.404525
-0.408649
-0.413079
-0.417801
-0.422793
-0.428035
-0.4335
-0.439162
-0.44499
-0.450952
-0.457013
-0.463134
-0.469275
-0.475393
-0.481442
-0.487374
-0.49314
-0.498686
-0.503959
-0.508903
-0.513461
-0.517574
-0.521183
-0.524229
-0.526654
-0.528397
-0.5294
-0.529606
-0.52896
-0.527407
-0.524896
-0.521379
-0.516811
-0.511152
-0.504366
-0.496424
-0.487302
-0.476985
-0.465467
-0.452753
-0.438861
-0.423824
-0.407678
-0.390604
-0.372221
-0.35468
-0.331429
-0.37515
-0.377998
-0.379178
-0.380876
-0.382314
-0.383917
-0.385631
-0.387569
-0.38976
-0.392247
-0.39505
-0.398182
-0.401646
-0.405441
-0.409558
-0.413984
-0.418702
-0.423695
-0.428939
-0.43441
-0.44008
-0.445919
-0.451896
-0.457974
-0.464116
-0.470281
-0.476427
-0.482508
-0.488477
-0.494283
-0.499873
-0.505195
-0.510193
-0.514809
-0.518985
-0.522663
-0.525783
-0.528286
-0.530114
-0.531207
-0.531508
-0.530962
-0.529515
-0.527116
-0.523715
-0.519267
-0.513732
-0.507072
-0.499259
-0.490267
-0.48008
-0.468691
-0.456103
-0.442333
-0.427408
-0.411369
-0.394384
-0.376089
-0.358576
-0.335348
-0.37664
-0.379308
-0.380433
-0.382053
-0.383443
-0.385001
-0.386681
-0.388589
-0.390755
-0.393221
-0.396005
-0.399121
-0.402572
-0.406355
-0.410463
-0.414882
-0.419597
-0.424588
-0.429833
-0.435308
-0.440984
-0.446833
-0.452822
-0.458915
-0.465076
-0.471264
-0.477435
-0.483546
-0.489548
-0.495392
-0.501025
-0.506393
-0.511442
-0.516113
-0.52035
-0.524094
-0.527285
-0.529864
-0.531773
-0.532953
-0.533347
-0.532899
-0.531556
-0.529264
-0.525976
-0.521646
-0.516232
-0.509698
-0.502011
-0.493148
-0.483089
-0.471828
-0.459366
-0.445717
-0.430909
-0.414976
-0.398086
-0.379874
-0.36241
-0.339186
-0.378141
-0.380627
-0.381697
-0.383238
-0.384578
-0.386091
-0.387735
-0.389613
-0.391753
-0.394195
-0.396959
-0.400058
-0.403494
-0.407265
-0.411362
-0.415774
-0.420483
-0.425471
-0.430715
-0.436191
-0.441872
-0.447728
-0.453727
-0.459834
-0.466011
-0.472218
-0.478414
-0.484552
-0.490585
-0.496464
-0.502136
-0.507548
-0.512644
-0.517369
-0.521663
-0.52547
-0.528729
-0.531381
-0.533369
-0.534633
-0.535116
-0.534763
-0.53352
-0.531334
-0.528156
-0.523941
-0.518646
-0.512234
-0.504672
-0.495935
-0.486005
-0.47487
-0.462533
-0.449005
-0.434315
-0.418488
-0.401698
-0.383567
-0.36617
-0.342933
-0.379649
-0.381954
-0.382967
-0.384428
-0.385719
-0.387185
-0.388793
-0.390638
-0.39275
-0.395168
-0.397911
-0.400991
-0.404411
-0.408167
-0.412253
-0.416655
-0.421356
-0.426339
-0.431581
-0.437057
-0.44274
-0.448601
-0.454608
-0.460726
-0.466917
-0.473142
-0.479358
-0.485521
-0.491582
-0.497493
-0.503201
-0.508654
-0.513796
-0.51857
-0.522919
-0.526785
-0.530108
-0.532831
-0.534894
-0.536238
-0.536808
-0.536547
-0.5354
-0.533317
-0.530247
-0.526144
-0.520965
-0.514673
-0.507234
-0.498621
-0.488816
-0.477807
-0.465594
-0.452186
-0.437614
-0.421896
-0.405208
-0.387156
-0.369841
-0.346581
-0.381164
-0.383285
-0.384242
-0.385622
-0.386862
-0.388281
-0.38985
-0.391662
-0.393746
-0.396138
-0.398859
-0.401918
-0.40532
-0.409061
-0.413133
-0.417523
-0.422215
-0.427191
-0.432428
-0.437901
-0.443585
-0.449449
-0.455462
-0.461588
-0.467791
-0.47403
-0.480265
-0.486449
-0.492536
-0.498476
-0.504218
-0.509708
-0.514891
-0.519712
-0.524112
-0.528034
-0.531419
-0.534208
-0.536342
-0.537764
-0.538417
-0.538244
-0.537191
-0.535207
-0.532241
-0.528247
-0.523182
-0.517006
-0.509688
-0.501198
-0.491516
-0.480631
-0.468541
-0.455253
-0.440798
-0.425188
-0.408606
-0.390633
-0.373412
-0.350121
-0.382681
-0.38462
-0.385519
-0.386818
-0.388005
-0.389376
-0.390906
-0.392684
-0.394738
-0.397103
-0.399799
-0.402837
-0.406219
-0.409943
-0.413999
-0.418376
-0.423057
-0.428024
-0.433254
-0.438723
-0.444405
-0.450269
-0.456285
-0.462417
-0.468628
-0.47488
-0.48113
-0.487333
-0.493442
-0.499408
-0.50518
-0.510704
-0.515926
-0.52079
-0.525238
-0.529212
-0.532655
-0.535507
-0.537709
-0.539205
-0.539937
-0.539849
-0.538886
-0.536998
-0.534133
-0.530244
-0.525289
-0.519229
-0.512027
-0.503657
-0.494097
-0.483334
-0.471365
-0.458196
-0.443858
-0.428356
-0.411883
-0.393987
-0.376872
-0.353546
-0.384198
-0.385955
-0.386797
-0.388013
-0.389148
-0.390469
-0.39196
-0.393701
-0.395724
-0.398061
-0.400731
-0.403746
-0.407107
-0.410811
-0.41485
-0.419212
-0.42388
-0.428835
-0.434056
-0.439518
-0.445195
-0.451058
-0.457074
-0.463209
-0.469427
-0.475688
-0.48195
-0.488168
-0.494297
-0.500286
-0.506084
-0.511639
-0.516896
-0.5218
-0.526292
-0.530315
-0.533812
-0.536722
-0.53899
-0.540555
-0.541363
-0.541355
-0.54048
-0.538683
-0.535916
-0.53213
-0.527283
-0.521333
-0.514246
-0.505993
-0.496552
-0.485909
-0.474059
-0.461009
-0.446786
-0.431393
-0.415029
-0.397212
-0.380209
-0.356848
-0.385714
-0.387289
-0.388073
-0.389206
-0.390287
-0.391558
-0.393008
-0.394713
-0.396703
-0.39901
-0.401653
-0.404642
-0.40798
-0.411663
-0.415683
-0.420028
-0.42468
-0.429622
-0.434832
-0.440285
-0.445955
-0.451813
-0.457827
-0.463963
-0.470184
-0.476451
-0.482722
-0.488953
-0.495097
-0.501105
-0.506927
-0.512509
-0.517798
-0.522737
-0.527269
-0.531338
-0.534884
-0.537851
-0.540179
-0.54181
-0.542689
-0.54276
-0.541967
-0.540259
-0.537586
-0.533899
-0.529155
-0.523314
-0.516339
-0.508201
-0.498876
-0.48835
-0.476619
-0.463684
-0.449576
-0.434291
-0.418038
-0.400299
-0.383416
-0.360019
-0.387225
-0.388619
-0.389344
-0.390395
-0.391422
-0.392642
-0.394049
-0.395716
-0.397672
-0.399949
-0.402563
-0.405525
-0.408838
-0.412498
-0.416497
-0.420822
-0.425457
-0.430383
-0.435579
-0.441021
-0.446681
-0.452531
-0.45854
-0.464673
-0.470895
-0.477165
-0.483442
-0.489682
-0.495838
-0.501863
-0.507704
-0.51331
-0.518626
-0.523597
-0.528166
-0.532276
-0.535869
-0.538887
-0.541272
-0.542966
-0.543913
-0.544057
-0.543344
-0.541721
-0.539138
-0.535547
-0.530903
-0.525167
-0.5183
-0.510274
-0.501063
-0.490653
-0.479036
-0.466216
-0.452222
-0.437044
-0.420903
-0.403241
-0.386484
-0.363053
-0.388729
-0.389944
-0.390611
-0.391579
-0.39255
-0.393718
-0.395083
-0.39671
-0.398631
-0.400875
-0.403459
-0.406392
-0.409679
-0.413314
-0.417289
-0.421593
-0.426208
-0.431116
-0.436295
-0.441722
-0.447371
-0.453211
-0.459212
-0.465339
-0.471558
-0.477827
-0.484107
-0.490353
-0.496518
-0.502555
-0.508413
-0.514039
-0.519379
-0.524378
-0.52898
-0.533127
-0.536763
-0.539828
-0.542266
-0.544018
-0.545029
-0.545243
-0.544605
-0.543064
-0.540568
-0.537069
-0.532522
-0.526887
-0.520127
-0.512209
-0.503109
-0.492811
-0.481308
-0.468601
-0.454719
-0.439646
-0.423617
-0.406033
-0.389406
-0.365945
-0.390224
-0.391261
-0.391869
-0.392754
-0.39367
-0.394786
-0.396106
-0.397693
-0.399577
-0.401787
-0.404339
-0.407242
-0.4105
-0.414108
-0.418058
-0.422337
-0.42693
-0.431818
-0.436978
-0.442388
-0.448021
-0.453849
-0.459839
-0.465958
-0.47217
-0.478436
-0.484715
-0.490963
-0.497134
-0.50318
-0.50905
-0.514692
-0.520052
-0.525076
-0.529706
-0.533887
-0.537561
-0.54067
-0.543157
-0.544964
-0.546035
-0.546315
-0.545749
-0.544285
-0.541872
-0.538462
-0.534009
-0.528472
-0.521814
-0.514002
-0.505011
-0.494822
-0.48343
-0.470833
-0.457062
-0.442093
-0.426177
-0.40867
-0.392176
-0.368688
-0.391707
-0.392569
-0.393119
-0.393921
-0.394781
-0.395843
-0.397118
-0.398664
-0.40051
-0.402683
-0.405201
-0.408073
-0.4113
-0.414879
-0.418801
-0.423054
-0.427623
-0.432487
-0.437626
-0.443017
-0.448632
-0.454443
-0.460419
-0.466526
-0.472729
-0.478989
-0.485263
-0.49151
-0.497683
-0.503734
-0.509612
-0.515266
-0.520643
-0.525687
-0.530343
-0.534554
-0.538262
-0.541411
-0.543942
-0.5458
-0.546928
-0.54727
-0.546772
-0.545382
-0.543048
-0.539723
-0.535361
-0.529919
-0.523359
-0.51565
-0.506764
-0.496683
-0.485399
-0.47291
-0.459247
-0.444382
-0.428576
-0.411147
-0.394789
-0.371279
-0.393178
-0.393866
-0.394357
-0.395076
-0.39588
-0.396888
-0.398117
-0.39962
-0.401427
-0.403563
-0.406046
-0.408883
-0.412078
-0.415625
-0.419518
-0.423742
-0.428283
-0.433122
-0.438237
-0.443605
-0.449199
-0.454991
-0.46095
-0.467043
-0.473233
-0.479482
-0.485749
-0.491991
-0.498162
-0.504214
-0.510097
-0.51576
-0.521149
-0.52621
-0.530887
-0.535123
-0.538863
-0.542047
-0.54462
-0.546525
-0.547705
-0.548105
-0.547672
-0.546352
-0.544094
-0.540851
-0.536575
-0.531225
-0.524761
-0.517151
-0.508367
-0.49839
-0.487212
-0.474828
-0.461272
-0.446508
-0.430813
-0.413461
-0.39724
-0.373712
-0.394632
-0.39515
-0.395583
-0.39622
-0.396967
-0.39792
-0.399102
-0.400562
-0.402327
-0.404425
-0.40687
-0.409672
-0.412831
-0.416345
-0.420205
-0.424399
-0.42891
-0.43372
-0.438808
-0.444151
-0.449721
-0.455491
-0.46143
-0.467505
-0.473679
-0.479914
-0.48617
-0.492404
-0.498569
-0.504619
-0.510504
-0.516171
-0.521569
-0.526642
-0.531337
-0.535595
-0.539361
-0.542577
-0.545188
-0.547135
-0.548364
-0.54882
-0.548447
-0.547193
-0.545008
-0.541843
-0.53765
-0.532388
-0.526017
-0.518503
-0.509818
-0.499942
-0.488867
-0.476586
-0.463135
-0.448469
-0.432885
-0.415608
-0.399526
-0.375986
-0.39607
-0.39642
-0.396795
-0.397349
-0.398039
-0.398938
-0.400072
-0.401486
-0.40321
-0.405267
-0.407673
-0.410437
-0.41356
-0.417038
-0.420863
-0.425023
-0.429502
-0.434281
-0.439339
-0.444653
-0.450197
-0.455942
-0.461857
-0.46791
-0.474065
-0.480284
-0.486525
-0.492747
-0.498903
-0.504947
-0.510829
-0.516497
-0.5219
-0.526982
-0.53169
-0.535966
-0.539755
-0.543
-0.545644
-0.547631
-0.548905
-0.549411
-0.549096
-0.547905
-0.545789
-0.542698
-0.538586
-0.533408
-0.527126
-0.519705
-0.511116
-0.501339
-0.490363
-0.478182
-0.464833
-0.450264
-0.434788
-0.417587
-0.401643
-0.378097
-0.397489
-0.397673
-0.397991
-0.398464
-0.399097
-0.399939
-0.401025
-0.402393
-0.404073
-0.406088
-0.408454
-0.411177
-0.414261
-0.417702
-0.42149
-0.425614
-0.430057
-0.434803
-0.439828
-0.445111
-0.450625
-0.456341
-0.46223
-0.468258
-0.47439
-0.480588
-0.486812
-0.493018
-0.499161
-0.505196
-0.511071
-0.516737
-0.52214
-0.527228
-0.531945
-0.536236
-0.540044
-0.543313
-0.545987
-0.54801
-0.549326
-0.54988
-0.549618
-0.548487
-0.546437
-0.543417
-0.539381
-0.534285
-0.528088
-0.520757
-0.512261
-0.502578
-0.491699
-0.479615
-0.466365
-0.451891
-0.436523
-0.419396
-0.403591
-0.380043
-0.398886
-0.39891
-0.39917
-0.399562
-0.400138
-0.400924
-0.401961
-0.403282
-0.404917
-0.406888
-0.409211
-0.411893
-0.414935
-0.418335
-0.422084
-0.426169
-0.430575
-0.435283
-0.440273
-0.445522
-0.451003
-0.456688
-0.462547
-0.468547
-0.474653
-0.480827
-0.487028
-0.493215
-0.499343
-0.505364
-0.511229
-0.516889
-0.52229
-0.527379
-0.532102
-0.536403
-0.540227
-0.543517
-0.546218
-0.548273
-0.549627
-0.550225
-0.550013
-0.548939
-0.54695
-0.543998
-0.540036
-0.535018
-0.528904
-0.521658
-0.513251
-0.50366
-0.492875
-0.480885
-0.467732
-0.45335
-0.438087
-0.421034
-0.405366
-0.381823
-0.400261
-0.400127
-0.400331
-0.400643
-0.401161
-0.401892
-0.402878
-0.40415
-0.405739
-0.407665
-0.409943
-0.412581
-0.415581
-0.418938
-0.422644
-0.426688
-0.431053
-0.435722
-0.440674
-0.445885
-0.45133
-0.45698
-0.462806
-0.468775
-0.474851
-0.480998
-0.487175
-0.493339
-0.499446
-0.50545
-0.511302
-0.516952
-0.522346
-0.527434
-0.532159
-0.536467
-0.540303
-0.543611
-0.546335
-0.548419
-0.549807
-0.550446
-0.550281
-0.54926
-0.547331
-0.544443
-0.540551
-0.535607
-0.529572
-0.52241
-0.514089
-0.504586
-0.493891
-0.481992
-0.468933
-0.45464
-0.43948
-0.4225
-0.406969
-0.383436
-0.401611
-0.401324
-0.401472
-0.401705
-0.402166
-0.40284
-0.403775
-0.404999
-0.40654
-0.408419
-0.410651
-0.413243
-0.416197
-0.419508
-0.42317
-0.42717
-0.431492
-0.436119
-0.441029
-0.446199
-0.451605
-0.457218
-0.463007
-0.468941
-0.474985
-0.481101
-0.487249
-0.493387
-0.499471
-0.505455
-0.511289
-0.516925
-0.52231
-0.527392
-0.532116
-0.536428
-0.540273
-0.543595
-0.546339
-0.548448
-0.549868
-0.550545
-0.550424
-0.549453
-0.547579
-0.544753
-0.540927
-0.536055
-0.530096
-0.523012
-0.514774
-0.505356
-0.494748
-0.482937
-0.469968
-0.455762
-0.440704
-0.423796
-0.4084
-0.384882
-0.402936
-0.4025
-0.402592
-0.402748
-0.403152
-0.403769
-0.404652
-0.405826
-0.407318
-0.409149
-0.411332
-0.413876
-0.416782
-0.420046
-0.423661
-0.427614
-0.43189
-0.436471
-0.441337
-0.446464
-0.451827
-0.457399