/*--------------------------------*- C++ -*----------------------------------*\
  =========                 |
  \\      /  F ield         | OpenFOAM: The Open Source CFD Toolbox
   \\    /   O peration     | Website:  https://openfoam.org
    \\  /    A nd           | Version:  7
     \\/     M anipulation  |
\*---------------------------------------------------------------------------*/
FoamFile
{
    version     2.0;
    format      ascii;
    class       volScalarField;
    location    "2.1";
    object      p;
}
// * * * * * * * * * * * * * * * * * * * * * * * * * * * * * * * * * * * * * //

dimensions      [0 2 -2 0 0 0 0];

internalField   nonuniform List<scalar> 
306000
(
-0.350571
-0.358947
-0.361694
-0.365718
-0.36864
-0.371724
-0.374754
-0.377995
-0.381461
-0.385203
-0.389216
-0.393477
-0.397945
-0.402568
-0.407279
-0.412008
-0.416675
-0.421199
-0.42549
-0.429459
-0.433013
-0.436057
-0.438497
-0.440239
-0.441188
-0.441257
-0.440358
-0.438412
-0.435344
-0.431091
-0.425598
-0.418819
-0.410725
-0.401299
-0.390539
-0.37846
-0.365093
-0.350487
-0.334707
-0.317836
-0.299974
-0.281235
-0.261747
-0.24165
-0.221093
-0.200233
-0.17923
-0.158247
-0.137444
-0.116977
-0.0969941
-0.0776351
-0.059027
-0.041284
-0.0245056
-0.00877482
0.00583808
0.0192905
0.0315175
0.042612
-0.350676
-0.359041
-0.361785
-0.365805
-0.368725
-0.371807
-0.374836
-0.378076
-0.381542
-0.385284
-0.389297
-0.393559
-0.398029
-0.402653
-0.407366
-0.412098
-0.416768
-0.421295
-0.42559
-0.429563
-0.433122
-0.436171
-0.438617
-0.440364
-0.441321
-0.441396
-0.440504
-0.438566
-0.435506
-0.431261
-0.425775
-0.419005
-0.41092
-0.401502
-0.39075
-0.378678
-0.365318
-0.350718
-0.334944
-0.318078
-0.300221
-0.281485
-0.262
-0.241905
-0.221349
-0.200489
-0.179485
-0.1585
-0.137695
-0.117224
-0.0972375
-0.0778741
-0.0592611
-0.0415128
-0.0247286
-0.00899166
0.00562779
0.0190877
0.0313205
0.0424284
-0.350885
-0.359228
-0.361966
-0.365978
-0.368894
-0.371972
-0.375
-0.378238
-0.381703
-0.385446
-0.38946
-0.393724
-0.398196
-0.402823
-0.407541
-0.412277
-0.416953
-0.421486
-0.425789
-0.429771
-0.433339
-0.436399
-0.438856
-0.440615
-0.441584
-0.441673
-0.440796
-0.438873
-0.435829
-0.4316
-0.426131
-0.419377
-0.411308
-0.401906
-0.391169
-0.379113
-0.365767
-0.35118
-0.335418
-0.318563
-0.300714
-0.281985
-0.262505
-0.242414
-0.221859
-0.200999
-0.179994
-0.159005
-0.138195
-0.117718
-0.0977236
-0.0783514
-0.0597287
-0.0419697
-0.0251741
-0.00942472
0.0052078
0.0186825
0.0309271
0.0420617
-0.351199
-0.359508
-0.362238
-0.366238
-0.369147
-0.37222
-0.375244
-0.37848
-0.381945
-0.385688
-0.389703
-0.39397
-0.398446
-0.403078
-0.407801
-0.412545
-0.41723
-0.421773
-0.426087
-0.430082
-0.433664
-0.436739
-0.439213
-0.44099
-0.441979
-0.442089
-0.441233
-0.439332
-0.436312
-0.432107
-0.426662
-0.419933
-0.411888
-0.40251
-0.391797
-0.379763
-0.366439
-0.351871
-0.336127
-0.319287
-0.301452
-0.282734
-0.263262
-0.243175
-0.222624
-0.201763
-0.180755
-0.159762
-0.138943
-0.118457
-0.0984509
-0.0790656
-0.0604283
-0.0426535
-0.0258405
-0.0100727
0.00457928
0.0180761
0.0303383
0.0415126
-0.351616
-0.35988
-0.362599
-0.366583
-0.369484
-0.372549
-0.375569
-0.378802
-0.382266
-0.38601
-0.390027
-0.394297
-0.398777
-0.403416
-0.408148
-0.412901
-0.417598
-0.422154
-0.426483
-0.430494
-0.434095
-0.437191
-0.439687
-0.441489
-0.442503
-0.44264
-0.441814
-0.439943
-0.436954
-0.432781
-0.427368
-0.420672
-0.412659
-0.403314
-0.392632
-0.380628
-0.367331
-0.35279
-0.337069
-0.32025
-0.302432
-0.283728
-0.264267
-0.244187
-0.223639
-0.202779
-0.181767
-0.160766
-0.139938
-0.119438
-0.0994174
-0.0800146
-0.0613579
-0.043562
-0.0267262
-0.0109339
0.00374393
0.01727
0.0295554
0.0407824
-0.352135
-0.360343
-0.363049
-0.367012
-0.369903
-0.37296
-0.375974
-0.379204
-0.382666
-0.38641
-0.39043
-0.394704
-0.399191
-0.403837
-0.408579
-0.413344
-0.418055
-0.422628
-0.426976
-0.431008
-0.434632
-0.437754
-0.440278
-0.442109
-0.443156
-0.443327
-0.442536
-0.440702
-0.437752
-0.433619
-0.428247
-0.421591
-0.413619
-0.404313
-0.39367
-0.381703
-0.368441
-0.353932
-0.338241
-0.321448
-0.303651
-0.284966
-0.265518
-0.245447
-0.224903
-0.204042
-0.183026
-0.162016
-0.141175
-0.12066
-0.10062
-0.0811956
-0.0625149
-0.0446927
-0.0278286
-0.0120058
0.00270406
0.0162664
0.0285805
0.0398727
-0.352756
-0.360897
-0.363587
-0.367525
-0.370404
-0.37345
-0.376457
-0.379683
-0.383144
-0.386888
-0.390911
-0.39519
-0.399684
-0.40434
-0.409094
-0.413874
-0.418601
-0.423194
-0.427564
-0.431621
-0.435273
-0.438425
-0.440982
-0.44285
-0.443934
-0.444146
-0.443398
-0.441609
-0.438704
-0.434619
-0.429295
-0.422687
-0.414764
-0.405506
-0.394909
-0.382986
-0.369766
-0.355296
-0.339639
-0.322877
-0.305107
-0.286442
-0.26701
-0.24695
-0.226411
-0.20555
-0.184528
-0.163508
-0.142653
-0.122118
-0.102056
-0.0826052
-0.0638958
-0.0460423
-0.0291445
-0.0132854
0.00146249
0.015068
0.0274161
0.0387856
-0.353477
-0.36154
-0.364211
-0.368121
-0.370985
-0.374018
-0.377018
-0.380239
-0.383698
-0.387443
-0.391469
-0.395753
-0.400256
-0.404923
-0.409691
-0.414487
-0.419235
-0.42385
-0.428246
-0.432332
-0.436016
-0.439203
-0.441798
-0.443707
-0.444836
-0.445095
-0.444396
-0.442659
-0.439808
-0.435777
-0.430509
-0.423958
-0.416091
-0.406888
-0.396344
-0.384473
-0.371302
-0.356876
-0.34126
-0.324534
-0.306794
-0.288154
-0.268741
-0.248693
-0.228159
-0.207298
-0.18627
-0.165238
-0.144365
-0.123809
-0.10372
-0.0842394
-0.0654966
-0.047607
-0.0306702
-0.0147693
2.25734e-05
0.0136778
0.0260649
0.0375233
-0.354296
-0.362271
-0.36492
-0.368798
-0.371645
-0.374664
-0.377656
-0.380871
-0.384327
-0.388073
-0.392102
-0.396393
-0.400905
-0.405585
-0.410368
-0.415184
-0.419953
-0.424594
-0.429019
-0.433138
-0.436858
-0.440085
-0.442724
-0.44468
-0.445859
-0.446171
-0.445529
-0.44385
-0.44106
-0.437091
-0.431886
-0.425399
-0.417595
-0.408455
-0.397972
-0.386159
-0.373043
-0.358669
-0.343099
-0.326413
-0.308708
-0.290096
-0.270703
-0.250669
-0.230143
-0.209281
-0.188246
-0.1672
-0.146308
-0.125727
-0.105608
-0.0860934
-0.067313
-0.0493823
-0.0324014
-0.0164531
-0.00161184
0.0120995
0.0245303
0.0360887
-0.355211
-0.363088
-0.365712
-0.369554
-0.372382
-0.375386
-0.378367
-0.381576
-0.38503
-0.388776
-0.392809
-0.397107
-0.40163
-0.406323
-0.411124
-0.41596
-0.420755
-0.425424
-0.429882
-0.434037
-0.437798
-0.441069
-0.443757
-0.445765
-0.447
-0.447371
-0.446791
-0.445177
-0.442455
-0.438556
-0.433422
-0.427006
-0.419273
-0.410202
-0.399788
-0.38804
-0.374985
-0.360668
-0.345149
-0.328509
-0.310842
-0.292261
-0.272892
-0.252874
-0.232355
-0.211493
-0.19045
-0.16939
-0.148475
-0.127866
-0.107714
-0.0881621
-0.0693397
-0.0513633
-0.0343333
-0.0183325
-0.00343641
0.0103371
0.0228161
0.0344851
-0.356221
-0.363989
-0.366587
-0.370388
-0.373196
-0.376182
-0.379152
-0.382354
-0.385804
-0.389551
-0.393588
-0.397894
-0.402428
-0.407137
-0.411956
-0.416816
-0.421637
-0.426338
-0.430831
-0.435027
-0.438832
-0.442152
-0.444892
-0.446958
-0.448254
-0.448691
-0.44818
-0.446638
-0.44399
-0.440167
-0.435111
-0.428773
-0.421118
-0.412125
-0.401785
-0.390109
-0.377122
-0.362867
-0.347406
-0.330815
-0.313191
-0.294645
-0.275302
-0.255301
-0.23479
-0.213928
-0.192876
-0.171799
-0.150861
-0.130222
-0.110034
-0.0904396
-0.0715711
-0.0535444
-0.0364607
-0.0204024
-0.00544635
0.00839507
0.0209265
0.0327159
-0.357323
-0.364972
-0.36754
-0.371298
-0.374083
-0.377049
-0.380008
-0.383201
-0.386649
-0.390396
-0.394437
-0.398751
-0.403297
-0.408022
-0.412863
-0.417747
-0.422598
-0.427332
-0.431864
-0.436103
-0.439957
-0.44333
-0.446128
-0.448256
-0.449619
-0.450127
-0.44969
-0.448227
-0.44566
-0.44192
-0.436948
-0.430696
-0.423126
-0.414216
-0.403958
-0.392361
-0.379447
-0.365261
-0.349861
-0.333325
-0.315748
-0.297239
-0.277925
-0.257942
-0.237441
-0.216579
-0.195518
-0.174423
-0.153459
-0.132787
-0.112559
-0.0929195
-0.0740011
-0.0559198
-0.0387777
-0.0226571
-0.00763643
0.00627832
0.018866
0.030785
-0.358515
-0.366035
-0.368571
-0.372282
-0.375042
-0.377987
-0.380932
-0.384117
-0.38756
-0.391308
-0.395354
-0.399677
-0.404236
-0.408978
-0.41384
-0.418751
-0.423634
-0.428405
-0.432978
-0.437264
-0.441169
-0.4446
-0.44746
-0.449655
-0.45109
-0.451674
-0.451318
-0.449939
-0.447459
-0.443809
-0.438929
-0.432768
-0.42529
-0.416471
-0.406301
-0.394788
-0.381954
-0.367842
-0.352509
-0.336032
-0.318505
-0.300037
-0.280753
-0.260791
-0.240301
-0.219438
-0.198367
-0.177253
-0.156262
-0.135553
-0.115283
-0.0955952
-0.0766229
-0.058483
-0.0412782
-0.0250908
-0.010001
0.00399213
0.0166397
0.0286967
-0.359794
-0.367176
-0.369678
-0.373337
-0.37607
-0.378992
-0.381923
-0.385099
-0.388537
-0.392285
-0.396336
-0.400668
-0.40524
-0.410001
-0.414887
-0.419826
-0.424742
-0.429552
-0.43417
-0.438506
-0.442466
-0.445957
-0.448884
-0.451151
-0.452663
-0.453328
-0.453059
-0.451769
-0.449383
-0.445829
-0.441046
-0.434984
-0.427604
-0.418881
-0.408806
-0.397383
-0.384635
-0.370601
-0.35534
-0.338927
-0.321454
-0.30303
-0.283779
-0.263839
-0.24336
-0.222498
-0.201416
-0.180282
-0.159261
-0.138515
-0.118199
-0.0984593
-0.0794294
-0.061227
-0.0439556
-0.0276972
-0.0125341
0.00154215
0.0142528
0.0264556
-0.361157
-0.368391
-0.370857
-0.374461
-0.377165
-0.380063
-0.382978
-0.386143
-0.389577
-0.393325
-0.39738
-0.401722
-0.406309
-0.411089
-0.415999
-0.420969
-0.42592
-0.430771
-0.435436
-0.439824
-0.443843
-0.447399
-0.450396
-0.452738
-0.454332
-0.455084
-0.454906
-0.453712
-0.451425
-0.447972
-0.443293
-0.437336
-0.43006
-0.42144
-0.411465
-0.400138
-0.387481
-0.373532
-0.358347
-0.342002
-0.324586
-0.306209
-0.286994
-0.267078
-0.24661
-0.225749
-0.204656
-0.183501
-0.162448
-0.141662
-0.121298
-0.101504
-0.0824132
-0.0641447
-0.0468028
-0.0304695
-0.0152294
-0.00106564
0.0117111
0.0240665
-0.362601
-0.36968
-0.372106
-0.375652
-0.378325
-0.381197
-0.384095
-0.387249
-0.390678
-0.394425
-0.398485
-0.402836
-0.407438
-0.412239
-0.417174
-0.422175
-0.427164
-0.432058
-0.436772
-0.441215
-0.445296
-0.44892
-0.451991
-0.454413
-0.456093
-0.456936
-0.456854
-0.455761
-0.453578
-0.450233
-0.445664
-0.439817
-0.432651
-0.42414
-0.414271
-0.403046
-0.390485
-0.376625
-0.361522
-0.345247
-0.327893
-0.309565
-0.290388
-0.270498
-0.250043
-0.229182
-0.208079
-0.186901
-0.165816
-0.144987
-0.124573
-0.104721
-0.0855663
-0.0672284
-0.0498126
-0.0334008
-0.0180802
-0.00382494
0.00902035
0.0215348
-0.364124
-0.371037
-0.373422
-0.376906
-0.379547
-0.382391
-0.385271
-0.388413
-0.391835
-0.395582
-0.399646
-0.404008
-0.408625
-0.413446
-0.418409
-0.423442
-0.42847
-0.433409
-0.438174
-0.442676
-0.446821
-0.450516
-0.453664
-0.456171
-0.45794
-0.458879
-0.458898
-0.457911
-0.455837
-0.452605
-0.44815
-0.442419
-0.43537
-0.426973
-0.417215
-0.406097
-0.393637
-0.379872
-0.364853
-0.348654
-0.331364
-0.313089
-0.293952
-0.274089
-0.253648
-0.232788
-0.211674
-0.190473
-0.169354
-0.148481
-0.128015
-0.108102
-0.0888805
-0.0704701
-0.0529773
-0.0364836
-0.0210794
-0.00672915
0.00618698
0.0188659
-0.365721
-0.372462
-0.374802
-0.378222
-0.380828
-0.383642
-0.386503
-0.389632
-0.393048
-0.396793
-0.400862
-0.405233
-0.409867
-0.41471
-0.4197
-0.424767
-0.429834
-0.43482
-0.439639
-0.4442
-0.448413
-0.452181
-0.455411
-0.458004
-0.459868
-0.460907
-0.461031
-0.460154
-0.458195
-0.45508
-0.450746
-0.445136
-0.438207
-0.42993
-0.420289
-0.409283
-0.396929
-0.383262
-0.368333
-0.352213
-0.334991
-0.316771
-0.297676
-0.277842
-0.257416
-0.236558
-0.215432
-0.194207
-0.173053
-0.152135
-0.131614
-0.111639
-0.0923473
-0.0738616
-0.0562889
-0.0397105
-0.0242199
-0.00977142
0.00321747
0.0160656
-0.36739
-0.37395
-0.376244
-0.379595
-0.382165
-0.384948
-0.387788
-0.390903
-0.394312
-0.398056
-0.402129
-0.40651
-0.411159
-0.416024
-0.421043
-0.426145
-0.431253
-0.436288
-0.441161
-0.445785
-0.450067
-0.453912
-0.457225
-0.45991
-0.46187
-0.463012
-0.463246
-0.462483
-0.460643
-0.457651
-0.453442
-0.447958
-0.441155
-0.433003
-0.423483
-0.412594
-0.400351
-0.386786
-0.371951
-0.355914
-0.338762
-0.320601
-0.30155
-0.281746
-0.261336
-0.24048
-0.219342
-0.198093
-0.176903
-0.155938
-0.13536
-0.115321
-0.0959577
-0.0773944
-0.0597393
-0.0430734
-0.0274941
-0.0129446
0.000118615
0.01314
-0.369127
-0.375498
-0.377744
-0.381024
-0.383556
-0.386305
-0.389124
-0.392224
-0.395624
-0.399366
-0.403443
-0.407835
-0.4125
-0.417387
-0.422435
-0.427572
-0.432723
-0.437807
-0.442737
-0.447425
-0.451779
-0.455703
-0.459102
-0.46188
-0.463941
-0.46519
-0.465537
-0.464893
-0.463176
-0.460311
-0.45623
-0.450877
-0.444205
-0.436182
-0.426788
-0.41602
-0.403892
-0.390434
-0.375696
-0.359745
-0.342668
-0.324567
-0.305563
-0.28579
-0.265398
-0.244544
-0.223395
-0.202121
-0.180894
-0.159882
-0.139246
-0.119139
-0.0997027
-0.0810597
-0.0633199
-0.0465644
-0.0308943
-0.0162415
-0.00310259
0.0100954
-0.370928
-0.377104
-0.3793
-0.382505
-0.384996
-0.387711
-0.390507
-0.393591
-0.396982
-0.400722
-0.404802
-0.409203
-0.413885
-0.418795
-0.423871
-0.429045
-0.43424
-0.439374
-0.444362
-0.449116
-0.453543
-0.457548
-0.461036
-0.46391
-0.466074
-0.467434
-0.467897
-0.467374
-0.465784
-0.46305
-0.459103
-0.453884
-0.447347
-0.439457
-0.430194
-0.419551
-0.407542
-0.394195
-0.379558
-0.363697
-0.346696
-0.328658
-0.309702
-0.289964
-0.26959
-0.248739
-0.227579
-0.20628
-0.185016
-0.163954
-0.143259
-0.123085
-0.103573
-0.0848484
-0.0670221
-0.050175
-0.0344126
-0.0196544
-0.00643895
0.00693819
-0.37279
-0.378763
-0.380907
-0.384034
-0.386484
-0.389162
-0.391934
-0.395001
-0.398383
-0.402119
-0.406203
-0.410613
-0.415311
-0.420243
-0.425349
-0.43056
-0.435798
-0.440984
-0.446032
-0.450852
-0.455354
-0.459442
-0.463021
-0.465993
-0.468263
-0.469736
-0.470318
-0.469921
-0.468461
-0.465861
-0.462051
-0.456971
-0.450573
-0.44282
-0.433691
-0.423178
-0.411291
-0.398058
-0.383526
-0.367757
-0.350836
-0.332864
-0.313959
-0.294255
-0.2739
-0.253054
-0.231883
-0.210559
-0.189258
-0.168146
-0.147391
-0.127148
-0.107559
-0.0887513
-0.0708371
-0.0538969
-0.0380409
-0.0231758
-0.00988308
0.00367513
-0.374708
-0.380473
-0.382562
-0.385609
-0.388015
-0.390655
-0.393402
-0.396451
-0.399822
-0.403554
-0.40764
-0.41206
-0.416773
-0.421728
-0.426864
-0.432111
-0.437394
-0.442632
-0.44774
-0.452629
-0.457207
-0.461379
-0.46505
-0.468123
-0.470501
-0.472089
-0.472794
-0.472525
-0.471198
-0.468735
-0.465066
-0.460128
-0.453872
-0.44626
-0.437269
-0.426889
-0.415128
-0.402013
-0.387588
-0.371915
-0.355076
-0.337172
-0.318319
-0.298652
-0.278318
-0.257477
-0.236295
-0.214947
-0.193609
-0.172447
-0.151631
-0.131317
-0.111651
-0.092759
-0.0747558
-0.0577214
-0.0417709
-0.0267977
-0.0134275
0.000313046
-0.376679
-0.38223
-0.384262
-0.387227
-0.389587
-0.392188
-0.394908
-0.397937
-0.401296
-0.405024
-0.409112
-0.41354
-0.418269
-0.423246
-0.428412
-0.433696
-0.439024
-0.444314
-0.449483
-0.454441
-0.459096
-0.463354
-0.467119
-0.470294
-0.472782
-0.474487
-0.475316
-0.475178
-0.473987
-0.471664
-0.468138
-0.463346
-0.457236
-0.449768
-0.440917
-0.430674
-0.419043
-0.406048
-0.391733
-0.376159
-0.359405
-0.34157
-0.322772
-0.303144
-0.282832
-0.261997
-0.240805
-0.219433
-0.198056
-0.176845
-0.155967
-0.135583
-0.115839
-0.096862
-0.0787691
-0.0616398
-0.0455943
-0.0305123
-0.0170644
-0.00314107
-0.378699
-0.38403
-0.386004
-0.388883
-0.391196
-0.393755
-0.396447
-0.399456
-0.402803
-0.406524
-0.410614
-0.41505
-0.419793
-0.424793
-0.429988
-0.435309
-0.440682
-0.446026
-0.451255
-0.456283
-0.461016
-0.465361
-0.469221
-0.472499
-0.475099
-0.476923
-0.477878
-0.477872
-0.476819
-0.474639
-0.471259
-0.466615
-0.460653
-0.453332
-0.444626
-0.434521
-0.423023
-0.410152
-0.39595
-0.380476
-0.36381
-0.346048
-0.327306
-0.307718
-0.28743
-0.266601
-0.245401
-0.224005
-0.20259
-0.181329
-0.16039
-0.139936
-0.120112
-0.101051
-0.0828678
-0.0656431
-0.0495026
-0.0343114
-0.0207863
-0.00668013
-0.380763
-0.38587
-0.387784
-0.390575
-0.392839
-0.395355
-0.398018
-0.401005
-0.404338
-0.408053
-0.412142
-0.416586
-0.421344
-0.426365
-0.431589
-0.436947
-0.442364
-0.447761
-0.453052
-0.458149
-0.462961
-0.467393
-0.471349
-0.474731
-0.477444
-0.479388
-0.480471
-0.480599
-0.479687
-0.477652
-0.47442
-0.469926
-0.464115
-0.456945
-0.448384
-0.438421
-0.427058
-0.414313
-0.400227
-0.384856
-0.368279
-0.350591
-0.331908
-0.312362
-0.292098
-0.271279
-0.250072
-0.228651
-0.207199
-0.185888
-0.164889
-0.144364
-0.124462
-0.105315
-0.0870425
-0.0697226
-0.0534873
-0.038187
-0.0245852
-0.0102969
-0.382868
-0.387745
-0.389598
-0.392299
-0.394512
-0.396984
-0.399616
-0.40258
-0.405898
-0.409605
-0.413694
-0.418144
-0.422915
-0.427957
-0.43321
-0.438604
-0.444066
-0.449515
-0.454867
-0.460035
-0.464925
-0.469445
-0.473497
-0.476985
-0.47981
-0.481876
-0.483088
-0.483352
-0.482581
-0.480693
-0.477611
-0.473269
-0.467611
-0.460592
-0.452181
-0.442362
-0.431136
-0.41852
-0.404552
-0.389287
-0.372801
-0.35519
-0.336567
-0.317064
-0.296827
-0.276017
-0.254802
-0.233361
-0.211872
-0.190511
-0.169452
-0.148857
-0.128878
-0.109646
-0.0912839
-0.0738692
-0.0575398
-0.0421309
-0.0284532
-0.0139842
-0.385009
-0.389654
-0.391443
-0.394051
-0.396212
-0.398638
-0.401238
-0.404177
-0.40748
-0.411178
-0.415265
-0.41972
-0.424504
-0.429566
-0.434847
-0.440277
-0.445782
-0.451284
-0.456697
-0.461934
-0.466903
-0.47151
-0.475659
-0.479252
-0.482192
-0.48438
-0.485721
-0.486122
-0.485494
-0.483753
-0.480822
-0.476634
-0.471131
-0.464266
-0.456006
-0.446333
-0.435246
-0.422761
-0.408913
-0.393755
-0.377363
-0.35983
-0.34127
-0.321811
-0.301602
-0.280803
-0.259583
-0.238121
-0.216596
-0.195188
-0.174069
-0.153406
-0.133349
-0.114034
-0.0955826
-0.078074
-0.0616516
-0.0461349
-0.0323826
-0.0177347
-0.387183
-0.391591
-0.393315
-0.395829
-0.397936
-0.400314
-0.40288
-0.405794
-0.409079
-0.412767
-0.416852
-0.421311
-0.426107
-0.431188
-0.436495
-0.44196
-0.447508
-0.453061
-0.458535
-0.463841
-0.468889
-0.473583
-0.477828
-0.481527
-0.484581
-0.486891
-0.488362
-0.488901
-0.488416
-0.486823
-0.484046
-0.480013
-0.474665
-0.467955
-0.459848
-0.450323
-0.439377
-0.427025
-0.413298
-0.39825
-0.381954
-0.364501
-0.346004
-0.326593
-0.306413
-0.285626
-0.264402
-0.242921
-0.221362
-0.199906
-0.17873
-0.157998
-0.137865
-0.118468
-0.0999294
-0.082328
-0.065814
-0.0501909
-0.0363653
-0.0215412
-0.389385
-0.393553
-0.395211
-0.397628
-0.39968
-0.402009
-0.40454
-0.407427
-0.410693
-0.41437
-0.41845
-0.422913
-0.427718
-0.432818
-0.43815
-0.443649
-0.44924
-0.454843
-0.460377
-0.465751
-0.470876
-0.475658
-0.479999
-0.483803
-0.48697
-0.489403
-0.491004
-0.49168
-0.491339
-0.489896
-0.487271
-0.483394
-0.478204
-0.47165
-0.463696
-0.454321
-0.443518
-0.431299
-0.417696
-0.40276
-0.38656
-0.369189
-0.350758
-0.331395
-0.311246
-0.290473
-0.269248
-0.247748
-0.226156
-0.204655
-0.183422
-0.162624
-0.142418
-0.122939
-0.104315
-0.0866224
-0.0700186
-0.0542907
-0.0403937
-0.0253963
-0.391611
-0.395537
-0.397126
-0.399445
-0.40144
-0.403719
-0.406213
-0.409072
-0.412318
-0.415982
-0.420057
-0.424521
-0.429336
-0.434451
-0.439809
-0.44534
-0.450971
-0.456625
-0.462216
-0.467659
-0.47286
-0.477728
-0.482164
-0.486072
-0.489353
-0.491908
-0.493639
-0.494452
-0.494255
-0.492961
-0.49049
-0.486769
-0.481736
-0.47534
-0.467541
-0.458315
-0.447656
-0.435573
-0.422095
-0.407272
-0.391171
-0.373884
-0.355519
-0.336208
-0.316089
-0.295333
-0.274107
-0.252591
-0.230969
-0.209424
-0.188136
-0.167274
-0.146995
-0.127437
-0.10873
-0.0909482
-0.0742568
-0.0584263
-0.0444598
-0.0292928
-0.393857
-0.397538
-0.399059
-0.401278
-0.403214
-0.405441
-0.407897
-0.410726
-0.413951
-0.4176
-0.421668
-0.426132
-0.430954
-0.436085
-0.441465
-0.447028
-0.452699
-0.458401
-0.464049
-0.469558
-0.474835
-0.479787
-0.484318
-0.488329
-0.491722
-0.494398
-0.496259
-0.497209
-0.497155
-0.49601
-0.493692
-0.490128
-0.485253
-0.479014
-0.471371
-0.462296
-0.451782
-0.439836
-0.426484
-0.411774
-0.395774
-0.378572
-0.360276
-0.341015
-0.320933
-0.300194
-0.278969
-0.257438
-0.235788
-0.214202
-0.192861
-0.171937
-0.151588
-0.131954
-0.113165
-0.0952969
-0.0785205
-0.0625898
-0.0485561
-0.0332235
-0.396119
-0.399554
-0.401004
-0.403122
-0.404999
-0.407171
-0.409588
-0.412386
-0.415587
-0.419221
-0.42328
-0.427742
-0.432571
-0.437715
-0.443117
-0.448708
-0.454418
-0.460166
-0.46587
-0.471443
-0.476795
-0.48183
-0.486454
-0.490567
-0.494072
-0.496868
-0.498856
-0.499942
-0.500031
-0.499034
-0.49687
-0.493462
-0.488745
-0.482663
-0.475176
-0.466253
-0.455884
-0.444075
-0.430851
-0.416257
-0.400358
-0.383242
-0.365016
-0.345809
-0.325764
-0.305044
-0.283822
-0.262279
-0.240602
-0.218977
-0.197587
-0.176603
-0.156187
-0.136479
-0.117612
-0.0996598
-0.0828013
-0.0667732
-0.0526748
-0.0371814
-0.398392
-0.40158
-0.40296
-0.404974
-0.40679
-0.408907
-0.411283
-0.414047
-0.417224
-0.42084
-0.424889
-0.429348
-0.434181
-0.439337
-0.444758
-0.450377
-0.456123
-0.461916
-0.467674
-0.47331
-0.478734
-0.483851
-0.488566
-0.49278
-0.496394
-0.499308
-0.501424
-0.502644
-0.502875
-0.502026
-0.500014
-0.496761
-0.492202
-0.486278
-0.478946
-0.470175
-0.459952
-0.448281
-0.435185
-0.420707
-0.404911
-0.387883
-0.369729
-0.350577
-0.33057
-0.309872
-0.288655
-0.267102
-0.245401
-0.22374
-0.202302
-0.181262
-0.160781
-0.141003
-0.122061
-0.104028
-0.0870912
-0.070969
-0.0568087
-0.0411596
-0.400674
-0.403614
-0.404921
-0.406831
-0.408584
-0.410645
-0.412979
-0.415708
-0.418859
-0.422456
-0.426492
-0.430946
-0.435781
-0.440947
-0.446385
-0.45203
-0.45781
-0.463646
-0.469456
-0.475153
-0.480646
-0.485843
-0.490647
-0.49496
-0.498682
-0.501713
-0.503955
-0.505308
-0.505679
-0.504976
-0.503115
-0.500017
-0.495614
-0.489848
-0.482671
-0.474052
-0.463975
-0.452443
-0.439475
-0.425114
-0.409422
-0.392483
-0.374402
-0.355307
-0.335341
-0.314666
-0.293457
-0.271897
-0.250175
-0.22848
-0.206998
-0.185905
-0.165363
-0.145517
-0.126504
-0.108395
-0.0913822
-0.0751696
-0.0609503
-0.0451511
-0.40296
-0.405651
-0.406885
-0.408691
-0.41038
-0.412382
-0.414672
-0.417365
-0.420488
-0.424063
-0.428085
-0.432532
-0.437367
-0.44254
-0.447994
-0.453663
-0.459475
-0.465351
-0.47121
-0.476966
-0.482528
-0.487802
-0.492693
-0.497102
-0.50093
-0.504076
-0.506441
-0.507925
-0.508435
-0.507877
-0.506165
-0.503221
-0.498974
-0.493363
-0.486341
-0.477874
-0.467944
-0.45655
-0.443711
-0.429468
-0.41388
-0.397032
-0.379026
-0.359989
-0.340065
-0.319416
-0.298217
-0.276652
-0.254912
-0.233187
-0.211664
-0.190521
-0.169923
-0.150014
-0.130933
-0.11275
-0.0956667
-0.0793675
-0.0650926
-0.0491493
-0.405245
-0.407689
-0.408849
-0.410548
-0.412173
-0.414116
-0.41636
-0.419015
-0.422107
-0.42566
-0.429665
-0.434103
-0.438936
-0.444115
-0.449582
-0.455272
-0.461112
-0.467027
-0.472933
-0.478745
-0.484372
-0.489722
-0.494697
-0.499201
-0.503132
-0.50639
-0.508876
-0.51049
-0.511135
-0.51072
-0.509157
-0.506365
-0.502272
-0.496816
-0.489948
-0.481632
-0.471847
-0.460592
-0.447883
-0.433758
-0.418276
-0.401518
-0.383589
-0.364612
-0.344732
-0.324111
-0.302924
-0.281358
-0.259603
-0.237851
-0.216291
-0.195102
-0.174451
-0.154483
-0.135339
-0.117088
-0.0999372
-0.0835558
-0.0692286
-0.0531477
-0.407527
-0.409723
-0.410809
-0.412402
-0.41396
-0.415842
-0.418039
-0.420655
-0.423715
-0.427242
-0.43123
-0.435656
-0.440484
-0.445666
-0.451143
-0.456852
-0.462719
-0.468669
-0.47462
-0.480485
-0.486175
-0.491597
-0.496654
-0.501249
-0.505281
-0.508649
-0.511253
-0.512993
-0.513773
-0.513499
-0.512081
-0.509439
-0.505499
-0.500198
-0.493482
-0.485316
-0.475677
-0.46456
-0.45198
-0.437973
-0.422597
-0.405932
-0.38808
-0.369165
-0.349332
-0.328741
-0.30757
-0.286004
-0.264238
-0.242463
-0.22087
-0.19964
-0.17894
-0.158917
-0.139715
-0.1214
-0.104186
-0.0877276
-0.0733517
-0.0571401
-0.409802
-0.411752
-0.412763
-0.414248
-0.415739
-0.417559
-0.419708
-0.422281
-0.425308
-0.428807
-0.432774
-0.437187
-0.442008
-0.44719
-0.452675
-0.458399
-0.464291
-0.470273
-0.476265
-0.482181
-0.487931
-0.493422
-0.498558
-0.503241
-0.507371
-0.510846
-0.513566
-0.51543
-0.516341
-0.516205
-0.514931
-0.512438
-0.508649
-0.503499
-0.496935
-0.488918
-0.479423
-0.468444
-0.455993
-0.442105
-0.426836
-0.410264
-0.392491
-0.37364
-0.353854
-0.333296
-0.312143
-0.290582
-0.268807
-0.247014
-0.225392
-0.204124
-0.183381
-0.163309
-0.144052
-0.125678
-0.108408
-0.0918761
-0.0774555
-0.0611203
-0.412066
-0.413772
-0.414707
-0.416084
-0.417507
-0.419264
-0.421362
-0.423892
-0.426883
-0.430353
-0.434297
-0.438692
-0.443504
-0.448683
-0.454174
-0.459911
-0.465823
-0.471836
-0.477866
-0.483829
-0.489636
-0.495193
-0.500404
-0.505172
-0.509396
-0.512975
-0.515808
-0.517793
-0.518833
-0.518832
-0.5177
-0.515352
-0.511712
-0.506712
-0.500298
-0.492429
-0.483077
-0.472235
-0.459914
-0.446145
-0.430983
-0.414505
-0.396812
-0.378025
-0.35829
-0.337767
-0.316635
-0.295082
-0.273303
-0.251494
-0.229848
-0.208548
-0.187766
-0.167649
-0.148345
-0.129917
-0.112594
-0.095995
-0.0815337
-0.0650825
-0.414316
-0.415779
-0.416639
-0.417908
-0.419261
-0.420953
-0.422999
-0.425485
-0.428437
-0.431875
-0.435794
-0.44017
-0.444969
-0.450143
-0.455636
-0.461383
-0.467313
-0.473352
-0.479417
-0.485424
-0.491284
-0.496904
-0.502187
-0.507037
-0.511352
-0.515031
-0.517973
-0.520076
-0.521242
-0.521374
-0.52038
-0.518175
-0.514681
-0.50983
-0.503564
-0.495841
-0.486631
-0.475926
-0.463733
-0.450083
-0.435028
-0.418645
-0.401033
-0.382313
-0.36263
-0.342145
-0.321037
-0.299496
-0.277716
-0.255897
-0.234231
-0.212904
-0.192088
-0.171933
-0.152585
-0.134109
-0.116739
-0.100078
-0.0855805
-0.069021
-0.416548
-0.417771
-0.418555
-0.419715
-0.420998
-0.422625
-0.424618
-0.427056
-0.429968
-0.433372
-0.437262
-0.441617
-0.446401
-0.451567
-0.457058
-0.462811
-0.468756
-0.474818
-0.480915
-0.486962
-0.492872
-0.49855
-0.503903
-0.50883
-0.513233
-0.517009
-0.520057
-0.522274
-0.523562
-0.523823
-0.522965
-0.5209
-0.51755
-0.512845
-0.506725
-0.499146
-0.490078
-0.479508
-0.467443
-0.453911
-0.438965
-0.422677
-0.405147
-0.386495
-0.366866
-0.346422
-0.325341
-0.303814
-0.282039
-0.260213
-0.238533
-0.217184
-0.19634
-0.176151
-0.156767
-0.138248
-0.120837
-0.10412
-0.0895902
-0.0729306
-0.418759
-0.419745
-0.420453
-0.421505
-0.422717
-0.424277
-0.426215
-0.428604
-0.431474
-0.434841
-0.438701
-0.443031
-0.447796
-0.45295
-0.458437
-0.464194
-0.47015
-0.47623
-0.482355
-0.488439
-0.494395
-0.500129
-0.505546
-0.510547
-0.515034
-0.518903
-0.522053
-0.524381
-0.525787
-0.526174
-0.525448
-0.523521
-0.520313
-0.515751
-0.509775
-0.502339
-0.49341
-0.482974
-0.471036
-0.457623
-0.442784
-0.426592
-0.409145
-0.390564
-0.370991
-0.35059
-0.329539
-0.308031
-0.286263
-0.264436
-0.242746
-0.221381
-0.200515
-0.180299
-0.160884
-0.142329
-0.124882
-0.108115
-0.0935575
-0.076806
-0.420947
-0.421699
-0.422331
-0.423275
-0.424415
-0.425907
-0.427788
-0.430126
-0.432952
-0.43628
-0.440106
-0.444408
-0.449152
-0.454291
-0.45977
-0.465526
-0.47149
-0.477586
-0.483735
-0.489852
-0.495849
-0.501634
-0.507112
-0.512184
-0.51675
-0.520708
-0.523956
-0.526391
-0.527913
-0.528422
-0.527825
-0.526032
-0.522962
-0.518541
-0.512707
-0.505411
-0.49662
-0.486317
-0.474505
-0.46121
-0.446479
-0.430383
-0.41302
-0.39451
-0.374996
-0.35464
-0.333623
-0.312137
-0.290382
-0.268558
-0.246865
-0.225489
-0.204607
-0.18437
-0.16493
-0.146345
-0.128868
-0.112057
-0.0974773
-0.0806425
-0.423107
-0.42363
-0.424186
-0.425022
-0.42609
-0.427512
-0.429335
-0.431621
-0.4344
-0.437686
-0.441475
-0.445747
-0.450466
-0.455587
-0.461055
-0.466806
-0.472774
-0.478881
-0.48505
-0.491196
-0.497231
-0.503063
-0.508598
-0.513736
-0.518377
-0.522421
-0.525763
-0.528301
-0.529934
-0.530562
-0.53009
-0.528428
-0.525493
-0.52121
-0.515515
-0.508358
-0.499702
-0.489531
-0.477844
-0.464666
-0.450042
-0.434044
-0.416766
-0.398329
-0.378875
-0.358568
-0.337588
-0.316128
-0.294389
-0.272574
-0.250882
-0.229501
-0.20861
-0.188358
-0.1689
-0.150291
-0.132791
-0.115943
-0.101345
-0.0844356
-0.425239
-0.425535
-0.426016
-0.426745
-0.427739
-0.429092
-0.430855
-0.433086
-0.435815
-0.439057
-0.442807
-0.447045
-0.451736
-0.456835
-0.462288
-0.468031
-0.473998
-0.480113
-0.486298
-0.492469
-0.498538
-0.504413
-0.509999
-0.515199
-0.519912
-0.524036
-0.527468
-0.530105
-0.531845
-0.532588
-0.532238
-0.530704
-0.5279
-0.523752
-0.518194
-0.511173
-0.502651
-0.492609
-0.481047
-0.467985
-0.453469
-0.437568
-0.420376
-0.402013
-0.382621
-0.362365
-0.341425
-0.319996
-0.298279
-0.276478
-0.254792
-0.233413
-0.212518
-0.192258
-0.172789
-0.154163
-0.136646
-0.119768
-0.105156
-0.0881809
-0.427338
-0.427412
-0.427818
-0.42844
-0.429362
-0.430643
-0.432345
-0.434519
-0.437197
-0.440392
-0.4441
-0.4483
-0.45296
-0.458033
-0.463467
-0.469199
-0.475161
-0.48128
-0.487476
-0.493667
-0.499765
-0.505679
-0.511313
-0.51657
-0.52135
-0.52555
-0.529068
-0.5318
-0.533643
-0.534497
-0.534265
-0.532854
-0.53018
-0.526163
-0.520739
-0.513851
-0.505462
-0.495548
-0.484108
-0.471162
-0.456753
-0.440949
-0.423844
-0.405556
-0.386229
-0.366027
-0.345131
-0.323736
-0.302045
-0.280263
-0.258591
-0.237219
-0.216327
-0.196066
-0.176592
-0.157956
-0.140429
-0.123526
-0.108907
-0.0918745
-0.429402
-0.42926
-0.429591
-0.430108
-0.430955
-0.432164
-0.433803
-0.435919
-0.438543
-0.441689
-0.445351
-0.449511
-0.454135
-0.459179
-0.46459
-0.470306
-0.47626
-0.482378
-0.488582
-0.494788
-0.500911
-0.506859
-0.512536
-0.517846
-0.522688
-0.52696
-0.530559
-0.533381
-0.535323
-0.536284
-0.536167
-0.534876
-0.532327
-0.52844
-0.523146
-0.516389
-0.508129
-0.498342
-0.487024
-0.474192
-0.45989
-0.444183
-0.427165
-0.408954
-0.389694
-0.369548
-0.348699
-0.327343
-0.305683
-0.283925
-0.262272
-0.240914
-0.220032
-0.199777
-0.180305
-0.161666
-0.144135
-0.127216
-0.112593
-0.0955128
-0.431429
-0.431076
-0.431333
-0.431744
-0.432518
-0.433654
-0.435229
-0.437285
-0.439852
-0.442945
-0.446559
-0.450675
-0.45526
-0.460272
-0.465655
-0.471351
-0.477292
-0.483405
-0.489612
-0.49583
-0.501973
-0.50795
-0.513666
-0.519024
-0.523924
-0.528263
-0.531939
-0.534847
-0.536884
-0.537948
-0.53794
-0.536766
-0.534339
-0.530577
-0.525411
-0.518783
-0.51065
-0.500987
-0.489789
-0.477071
-0.462874
-0.447265
-0.430335
-0.412202
-0.39301
-0.372924
-0.352125
-0.330811
-0.309187
-0.28746
-0.265832
-0.244495
-0.22363
-0.203387
-0.183925
-0.16529
-0.147762