/*--------------------------------*- C++ -*----------------------------------*\
  =========                 |
  \\      /  F ield         | OpenFOAM: The Open Source CFD Toolbox
   \\    /   O peration     | Website:  https://openfoam.org
    \\  /    A nd           | Version:  7
     \\/     M anipulation  |
\*---------------------------------------------------------------------------*/
FoamFile
{
    version     2.0;
    format      ascii;
    class       volScalarField;
    location    "2.5";
    object      rho;
}
// * * * * * * * * * * * * * * * * * * * * * * * * * * * * * * * * * * * * * //

dimensions      [1 -3 0 0 0 0 0];

internalField   nonuniform List<scalar> 
1575
(
1.40001
1.40001
1.40001
1.40001
1.40001
1.40001
1.40001
2.71754
5.25008
5.52369
5.6087
5.69856
5.76228
5.81628
5.86735
1.40001
1.40001
1.40001
1.40001
1.40001
1.40001
1.40001
2.62566
5.17498
5.50089
5.58065
5.65907
5.71393
5.75575
5.80729
1.40001
1.40001
1.40001
1.40001
1.40001
1.40001
1.40001
2.42964
5.06503
5.47715
5.54599
5.61604
5.66835
5.70593
5.72868
1.40001
1.40001
1.40001
1.40001
1.40001
1.40001
1.40001
2.14576
4.89745
5.46996
5.50004
5.53578
5.54978
5.54545
5.56063
1.40001
1.40001
1.40001
1.40001
1.40001
1.40001
1.40001
1.78962
4.64345
5.45598
5.44297
5.46137
5.45589
5.39585
5.3887
1.40001
1.40001
1.40001
1.40001
1.40001
1.40001
1.40001
1.45265
4.15519
5.41413
5.35842
5.33804
5.26189
4.95136
4.13142
1.40001
1.40001
1.40001
1.40001
1.40001
1.40001
1.40001
1.40039
3.44763
5.17153
5.22106
5.18115
5.02656
4.69032
3.89453
1.40001
1.40001
1.40001
1.40001
1.40001
1.40001
1.40001
1.4
2.5851
4.913
5.14027
5.06847
4.85719
4.51386
3.75042
1.40001
1.40001
1.40001
1.40001
1.40001
1.40001
1.40001
1.4
1.74267
4.57061
5.16224
4.96413
4.72433
4.35825
3.73826
1.40001
1.40001
1.40001
1.40001
1.40001
1.40001
1.40001
1.4
1.42186
3.70274
4.9445
4.77018
4.5867
4.23776
3.75765
1.40001
1.40001
1.40001
1.40001
1.40001
1.40001
1.40001
1.40001
1.39986
2.48608
4.68718
4.73932
4.54254
4.22914
3.81328
1.40001
1.40001
1.40001
1.40001
1.40001
1.40001
1.40001
1.40001
1.39997
1.59306
3.95807
4.75235
4.51598
4.21972
3.85658
1.40001
1.40001
1.40001
1.40001
1.40001
1.40001
1.40001
1.40001
1.4
1.40417
2.67454
4.54911
4.49675
4.2099
3.89156
1.40001
1.40001
1.40001
1.40001
1.40001
1.40001
1.40001
1.40001
1.4
1.40001
1.64682
3.81305
4.56478
4.26007
3.97429
1.40001
1.40001
1.40001
1.40001
1.40001
1.40001
1.40001
1.40001
1.40001
1.40001
1.40744
2.40013
4.28797
4.30917
4.05006
1.40001
1.40001
1.40001
1.40001
1.40001
1.40001
1.40001
1.40001
1.40001
1.40001
1.40004
1.54314
3.31858
4.37686
4.16466
1.40001
1.40001
1.40001
1.40001
1.40001
1.40001
1.40001
1.40001
1.40001
1.40001
1.40001
1.40303
1.96734
3.86175
4.23724
1.40001
1.40001
1.40001
1.40001
1.40001
1.40001
1.40001
1.40001
1.40001
1.40001
1.40001
1.40002
1.44204
2.55327
4.0212
1.40001
1.40001
1.40001
1.40001
1.40001
1.40001
1.40001
1.40001
1.40001
1.40001
1.40001
1.40001
1.40059
1.58384
3.07102
1.40001
1.40001
1.40001
1.40001
1.40001
1.40001
1.40001
1.40001
1.40001
1.40001
1.40001
1.40001
1.40001
1.40572
1.8332
1.40001
1.40001
1.40001
1.40001
1.40001
1.40001
1.40001
1.40001
1.40001
1.40001
1.40001
1.40001
1.40001
1.40005
1.42681
1.40001
1.40001
1.40001
1.40001
1.40001
1.40001
1.40001
1.40001
1.40001
1.40001
1.40001
1.40001
1.40001
1.40001
1.40037
1.40001
1.40001
1.40001
1.40001
1.40001
1.40001
1.40001
1.40001
1.40001
1.40001
1.40001
1.40001
1.40001
1.40001
1.40001
1.40001
1.40001
1.40001
1.40001
1.40001
1.40001
1.40001
1.40001
1.40001
1.40001
1.40001
1.40001
1.40001
1.40001
1.40001
1.40001
1.40001
1.40001
1.40001
1.40001
1.40001
1.40001
1.40001
1.40001
1.40001
1.40001
1.40001
1.40001
1.40001
1.40001
1.49815
0.648802
0.423248
0.419666
0.430254
0.484096
0.60966
0.764513
0.868479
0.933971
0.981216
1.01935
1.03616
1.05677
1.0824
1.09255
1.08816
1.08363
1.0846
1.07992
1.08006
1.11396
1.39069
2.49527
3.38869
3.39832
3.29638
3.23659
3.14483
3.04416
2.96572
2.91013
2.84157
2.77347
2.7015
2.64452
2.59941
2.56096
2.51891
2.4715
2.41972
2.36045
2.29513
2.23183
2.18128
2.14331
2.1098
2.07748
2.0448
2.00917
1.9673
1.915
1.8531
1.79742
1.76182
1.73754
1.71635
1.69684
1.67929
1.63834
2.23901
1.44767
1.06892
0.930215
0.811663
0.763497
0.768258
0.759309
0.78316
0.829906
0.879189
0.936543
0.989161
1.02772
1.06082
1.08306
1.08601
1.08735
1.08404
1.08371
1.11781
1.34723
1.76154
2.22329
2.99092
3.275
3.23587
3.20885
3.1286
3.04061
2.97665
2.92636
2.86553
2.8023
2.73084
2.66151
2.60894
2.56448
2.52324
2.47888
2.43125
2.37754
2.31584
2.24985
2.19061
2.14536
2.10923
2.07583
2.04281
2.00862
1.97037
1.92397
1.86845
1.8144
1.77409
1.74335
1.71761
1.69499
1.67684
1.63741
2.69073
2.05624
1.61776
1.32602
1.12737
0.981765
0.91581
0.849996
0.821003
0.848931
0.899236
0.95092
0.994972
1.03201
1.06391
1.09248
1.11882
1.13102
1.13479
1.17656
1.40091
1.85225
2.17499
2.18268
2.40833
2.95553
3.24878
3.3102
3.22933
3.15906
3.10213
3.02494
2.9504
2.87259
2.78883
2.71412
2.65258
2.59996
2.55292
2.50813
2.46184
2.41245
2.35845
2.29849
2.23489
2.17753
2.13298
2.09558
2.05968
2.02244
1.98165
1.93718
1.89015
1.84425
1.80568
1.77311
1.74344
1.71442
1.68786
1.63883
3.01934
2.4498
2.0395
1.72466
1.48128
1.29327
1.17416
1.08726
0.996136
0.964628
0.943546
0.92983
0.941987
0.969387
1.00575
1.04335
1.0798
1.10704
1.1556
1.38788
1.86873
2.19097
2.30034
2.24879
2.22907
2.37853
2.79405
3.09136
3.19754
3.23509
3.19377
3.12319
3.03218
2.93557
2.85565
2.78505
2.72605
2.67249
2.61808
2.56561
2.51544
2.46484
2.41311
2.3589
2.29904
2.23652
2.18186
2.13811
2.09968
2.06164
2.02092
1.97627
1.92717
1.87757
1.83798
1.80806
1.78029
1.74969
1.7166
1.65772
3.23055
2.74422
2.3565
2.05266
1.77417
1.5709
1.42582
1.30295
1.1914
1.10953
1.0367
0.973926
0.943614
0.951204
0.958316
0.976566
1.00748
1.0639
1.25993
1.75601
2.10304
2.2183
2.25287
2.24094
2.21309
2.18615
2.28953
2.58087
2.92887
3.12503
3.16956
3.1969
3.13596
3.03262
2.93776
2.85763
2.79309
2.73443
2.67631
2.61728
2.56409
2.51477
2.46501
2.41287
2.35508
2.29096
2.22899
2.1779
2.13696
2.1009
2.06417
2.02339
1.97639
1.92491
1.8764
1.83909
1.80906
1.77862
1.74926
1.6965
3.38157
2.97343
2.60326
2.30421
2.04646
1.82303
1.65662
1.5049
1.37792
1.28763
1.20061
1.12871
1.05378
1.02786
0.992737
0.992126
1.01474
1.17358
1.60535
1.97758
2.06552
2.11127
2.12244
2.15857
2.16053
2.13925
2.14311
2.19328
2.37414
2.69583
2.95779
3.09992
3.13354
3.08782
3.00405
2.93211
2.86085
2.78343
2.72044
2.6554
2.59835
2.55185
2.50677
2.45814
2.40247
2.3385
2.27476
2.22146
2.17816
2.14131
2.10481
2.06543
2.02222
1.97436
1.92264
1.87632
1.83926
1.80501
1.77908
1.73382
3.48183
3.1225
2.8079
2.5186
2.25688
2.04012
1.86221
1.70534
1.56086
1.45097
1.35441
1.25707
1.18623
1.1199
1.0609
1.04353
1.16366
1.59739
1.92837
2.03029
2.01109
1.98035
1.98754
2.01076
2.0505
2.05565
2.05173
2.05525
2.06711
2.16242
2.42606
2.73565
2.9828
3.01231
3.00762
2.99097
2.93161
2.8449
2.76182
2.68788
2.62968
2.5836
2.54096
2.49239
2.43511
2.37106
2.309
2.25671
2.21207
2.17303
2.13557
2.09628
2.05409
2.00862
1.96024
1.91189
1.86772
1.8285
1.80592
1.76616
3.5663
3.25915
2.97453
2.69489
2.44262
2.24324
2.05345
1.87062
1.72688
1.61664
1.50701
1.4099
1.31702
1.24004
1.20189
1.3147
1.715
2.09194
2.13286
2.08457
2.00805
1.95994
1.95064
1.9459
1.93806
1.91718
1.90569
1.91184
1.90203
1.90217
1.9702
2.15142
2.46391
2.72535
2.88116
2.93797
2.93383
2.88615
2.78295
2.71566
2.66567
2.61455
2.57134
2.52111
2.45786
2.39118
2.33303
2.28465
2.23988
2.19641
2.15417
2.1125
2.0716
2.03147
1.99283
1.95084
1.90219
1.84859
1.82009
1.78387
3.67312
3.38724
3.11507
2.84773
2.61019
2.40601
2.21816
2.03054
1.88718
1.76382
1.65166
1.53848
1.44447
1.38933
1.5061
1.92063
2.32673
2.34023
2.25357
2.15583
2.0833
2.03776
1.99699
1.95854
1.92035
1.88927
1.86726
1.84343
1.80666
1.78247
1.78525
1.80865
1.88748
2.10154
2.39912
2.65093
2.81755
2.81477
2.77452
2.75044
2.70891
2.65295
2.601
2.54289
2.47657
2.41419
2.35942
2.31027
2.26189
2.21282
2.16493
2.11963
2.08046
2.04659
2.01613
1.98256
1.94125
1.88574
1.83495
1.78585
3.76604
3.49748
3.23449
2.97541
2.75849
2.5583
2.3641
2.18103
2.03664
1.90062
1.77866
1.66639
1.58821
1.72372
2.20435
2.6229
2.6197
2.51079
2.39052
2.30059
2.22559
2.15498
2.08738
2.02469
1.96555
1.9091
1.86116
1.81709
1.77815
1.75893
1.7424
1.7071
1.67485
1.69138
1.78861
2.00508
2.32782
2.54209
2.65036
2.7053
2.70236
2.68016
2.62146
2.55133
2.49319
2.44422
2.38856
2.33458
2.27977
2.22285
2.16932
2.12354
2.08733
2.05604
2.02581
1.99396
1.95989
1.91647
1.86615
1.80034
3.88355
3.62212
3.35814
3.10882
2.89903
2.69982
2.50049
2.32591
2.17975
2.0366
1.90179
1.81484
1.98697
2.52731
2.95641
2.92589
2.78501
2.65138
2.54562
2.45356
2.36311
2.27789
2.19763
2.12279
2.05176
1.98487
1.9243
1.86716
1.81202
1.77191
1.73047
1.68709
1.65669
1.63757
1.60593
1.61509
1.70136
1.91715
2.18287
2.43897
2.53399
2.58587
2.58497
2.57394
2.54297
2.48816
2.42501
2.36145
2.29035
2.22377
2.1752
2.13649
2.1024
2.07039
2.03643
2.00063
1.9628
1.92471
1.8886
1.82339
4.00114
3.735
3.47549
3.23713
3.0287
2.82351
2.62324
2.46661
2.30598
2.16293
2.06763
2.27766
2.89014
3.30778
3.26372
3.1089
2.95178
2.82358
2.71292
2.60468
2.50202
2.40786
2.321
2.23903
2.15952
2.08425
2.01251
1.94325
1.87929
1.82131
1.75985
1.70569
1.66124
1.62511
1.58664
1.57308
1.55176
1.5496
1.61586
1.79513
2.0455
2.26682
2.40855
2.49116
2.49285
2.47671
2.446
2.38281
2.3026
2.23264
2.19145
2.15788
2.12317
2.08943
2.0504
1.99744
1.94362
1.90779
1.88824
1.84033
4.09633
3.87555
3.60373
3.37327
3.1657
2.95835
2.76426
2.58776
2.43859
2.35337
2.62865
3.33565
3.68939
3.60089
3.41145
3.24752
3.11635
2.99425
2.87222
2.75272
2.6391
2.53282
2.43336
2.33995
2.25261
2.17205
2.09669
2.02596
1.96077
1.89427
1.8255
1.75968
1.69802
1.6453
1.60031
1.57158
1.53699
1.51681
1.49372
1.47615
1.52292
1.65764
1.89112
2.1505
2.34401
2.39753
2.39463
2.37166
2.32788
2.27027
2.22302
2.18552
2.1462
2.1064
2.06003
2.00036
1.9479
1.91073
1.88577
1.84712
4.03728
4.00023
3.75977
3.51534
3.29792
3.09148
2.88895
2.7205
2.65615
3.0113
3.80986
4.18888
4.04493
3.8012
3.58081
3.41469
3.27616
3.14495
3.01649
2.89134
2.77068
2.65539
2.54642
2.44482
2.35124
2.26513
2.18515
2.11109
2.04129
1.97041
1.90027
1.83163
1.76415
1.69999
1.6447
1.59746
1.55085
1.51008
1.46826
1.44631
1.42181
1.40356
1.44264
1.56417
1.80364
2.01711
2.20828
2.29695
2.28159
2.24228
2.21302
2.17524
2.14354
2.1114
2.06713
2.00811
1.95852
1.92942
1.9065
1.85933
3.38919
3.98635
3.91071
3.67732
3.44333
3.21529
3.00962
2.98818
3.48125
4.34297
4.65321
4.46824
4.20022
3.9824
3.7842
3.60298
3.43914
3.28964
3.15018
3.01795
2.89071
2.76731
2.64899
2.53804
2.43638
2.34384
2.25881
2.1801
2.10521
2.03135
1.96036
1.89128
1.82345
1.75758
1.69746
1.6398
1.58539
1.53465
1.48701
1.44721
1.4087
1.38481
1.36639
1.34494
1.37051
1.46274
1.65381
1.89079
2.0742
2.16713
2.17865
2.16773
2.13402
2.07906
2.02121
1.98184
1.97358
1.96058
1.94236
1.88149
2.09805
3.55242
3.92262
3.83018
3.60614
3.32602
3.33922
4.03626
4.93778
5.23244
5.02555
4.68133
4.37808
4.14906
3.95129
3.76595
3.59216
3.43082
3.28051
3.13849
3.00237
2.87123
2.74587
2.62721
2.51662
2.41564
2.32453
2.24171
2.16423
2.08977
2.01814
1.94913
1.88194
1.81494
1.74962
1.68499
1.62682
1.57788
1.53506
1.48768
1.44059
1.39447
1.35053
1.32268
1.29673
1.27592
1.29096
1.3858
1.55752
1.76087
1.91179
2.04665
2.08062
2.06953
2.03394
1.98935
1.94108
1.90461
1.89653
1.8783
1.46774
2.32263
3.64025
3.8548
3.71006
3.71055
4.63427
5.67214
5.71157
5.47962
5.19205
4.87957
4.57468
4.30914
4.0869
3.89392
3.71719
3.55054
3.39102
3.23761
3.09088
2.95186
2.82096
2.69714
2.58062
2.47308
2.37596
2.28767
2.20546
2.12764
2.05255
1.97847
1.90852
1.84051
1.77121
1.70505
1.6493
1.5983
1.54697
1.49837
1.4552
1.41121
1.36582
1.32267
1.28982
1.26518
1.25195
1.23105
1.23414
1.29264
1.41906
1.6166
1.78201
1.91068
1.97845
1.98045
1.9604
1.91459
1.86451
1.82066
1.40133
1.52269
2.54724
3.52656
3.88666
5.15273
6.34447
6.33499
6.03249
5.63509
5.31405
5.01136
4.71241
4.43375
4.19355
3.98839
3.80522
3.6334
3.46764
3.30737
3.15424
3.00982
2.87437
2.74704
2.62812
2.5186
2.41994
2.3299
2.24335
2.15652
2.07634
2.0016
1.93245
1.86911
1.80602
1.74185
1.68186
1.62396
1.56766
1.51629
1.46926
1.43189
1.3914
1.34496
1.30746
1.27641
1.24767
1.21504
1.1936
1.16908
1.17171
1.20947
1.31929
1.48682
1.66943
1.80815
1.88799
1.88919
1.85716
1.80177
1.40001
1.40391
1.59049
2.49723
4.8193
6.91239
6.82841
6.43128
6.09304
5.70367
5.36011
5.06008
4.78368
4.52354
4.28419
4.06799
3.87075
3.68634
3.51151
3.34656
3.19214
3.04815
2.91339
2.78648
2.66695
2.55477
2.45058
2.355
2.27104
2.2015
2.12755
2.05097
1.97494
1.89528
1.82875
1.78868
1.74342
1.68636
1.62654
1.57
1.51494
1.4399
1.39414
1.38135
1.359
1.32916
1.29123
1.24855
1.20695
1.17155
1.14088
1.11637
1.12117
1.15624
1.26662
1.43205
1.58812
1.72839
1.76442
1.84072
1.40001
1.40004
1.40521
1.76074
5.95879
7.64055
7.11535
6.63481
6.2558
5.80553
5.40848
5.08739
4.81516
4.56816
4.33679
4.11834
3.91192
3.71764
3.53609
3.3677
3.21065
3.06265
2.923
2.7931
2.67449
2.56649
2.46707
2.37237
2.27708
2.17741
2.0844
2.00354
1.93538
1.88209
1.83543
1.78062
1.71575
1.65032
1.5871
1.52476
1.46567
1.42426
1.39829
1.36659
1.32951
1.29174
1.25141
1.20886
1.168
1.13271
1.10037
1.0717
1.05886
1.04584
1.05
1.08711
1.19886
1.38074
1.62026
2.00509
)
;

boundaryField
{
    inlet
    {
        type            calculated;
        value           uniform 1.40001;
    }
    outlet
    {
        type            calculated;
        value           nonuniform List<scalar> 
20
(
1.6381
1.63679
1.63912
1.65853
1.69651
1.73303
1.76512
1.78264
1.78526
1.80111
1.8244
1.84055
1.84577
1.85951
1.88329
1.87706
1.81963
1.80396
1.84477
2.01112
)
;
    }
    bottom
    {
        type            symmetryPlane;
    }
    top
    {
        type            symmetryPlane;
    }
    obstacle
    {
        type            calculated;
        value           nonuniform List<scalar> 
65
(
5.86735
5.80729
5.72868
5.56063
5.3887
1.49815
0.648802
0.423248
0.419666
0.430254
0.484096
0.60966
0.764513
0.868479
0.933971
0.981216
1.01935
1.03616
1.05677
1.0824
1.09255
1.08816
1.08363
1.0846
1.07992
1.08006
1.11396
1.39069
2.49527
3.38869
3.39832
3.29638
3.23659
3.14483
3.04416
2.96572
2.91013
2.84157
2.77347
2.7015
2.64452
2.59941
2.56096
2.51891
2.4715
2.41972
2.36045
2.29513
2.23183
2.18128
2.14331
2.1098
2.07748
2.0448
2.00917
1.9673
1.915
1.8531
1.79742
1.76182
1.73754
1.71635
1.69684
1.67929
1.63834
)
;
    }
    defaultFaces
    {
        type            empty;
    }
}


// ************************************************************************* //
