/*--------------------------------*- C++ -*----------------------------------*\
  =========                 |
  \\      /  F ield         | OpenFOAM: The Open Source CFD Toolbox
   \\    /   O peration     | Website:  https://openfoam.org
    \\  /    A nd           | Version:  7
     \\/     M anipulation  |
\*---------------------------------------------------------------------------*/
FoamFile
{
    version     2.0;
    format      ascii;
    class       volScalarField;
    location    "2.6";
    object      T;
}
// * * * * * * * * * * * * * * * * * * * * * * * * * * * * * * * * * * * * * //

dimensions      [0 0 0 1 0 0 0];

internalField   nonuniform List<scalar> 
6300
(
1
1
1
1
1
1
1
1
1
1
1
1
1
1
1
2.15212
2.69851
2.71948
2.73305
2.74704
2.75912
2.769
2.77678
2.78374
2.79154
2.80122
2.81221
2.82225
2.82945
2.83336
1
1
1
1
1
1
1
1
1
1
1
1
1
1
1
2.13522
2.69531
2.71864
2.73207
2.74607
2.75804
2.76776
2.77532
2.78204
2.78961
2.79905
2.8098
2.81961
2.82662
2.83047
1
1
1
1
1
1
1
1
1
1
1
1
1
1
1
2.09493
2.69036
2.71648
2.72984
2.74394
2.7559
2.76554
2.77297
2.77954
2.78695
2.79615
2.80653
2.81591
2.82251
2.82624
1
1
1
1
1
1
1
1
1
1
1
1
1
1
1
2.03166
2.67955
2.71252
2.72628
2.74075
2.75276
2.76231
2.76954
2.77585
2.78298
2.79185
2.80172
2.81041
2.81621
2.81944
1
1
1
1
1
1
1
1
1
1
1
1
1
1
1
1.94261
2.65979
2.70551
2.72053
2.73577
2.74806
2.75761
2.76458
2.77042
2.77694
2.78513
2.79439
2.80271
2.80816
2.81144
1
1
1
1
1
1
1
1
1
1
1
1
1
1
1
1.82485
2.62815
2.69396
2.71115
2.72772
2.74065
2.75045
2.7573
2.76277
2.7688
2.77655
2.78537
2.79309
2.79761
2.79972
1
1
1
1
1
1
1
1
1
1
1
1
1
1
1
1.68064
2.58351
2.6799
2.69946
2.71746
2.73113
2.74127
2.74797
2.75279
2.75774
2.76409
2.7714
2.77779
2.78141
2.7846
1
1
1
1
1
1
1
1
1
1
1
1
1
1
1
1.48093
2.5045
2.66247
2.68417
2.70374
2.7183
2.72925
2.73619
2.74058
2.7446
2.74998
2.75628
2.76113
2.76122
2.75724
1
1
1
1
1
1
1
1
1
1
1
1
1
1
1
1.21128
2.39407
2.65474
2.6654
2.68466
2.70102
2.71345
2.72127
2.7259
2.72913
2.73186
2.73338
2.73162
2.72579
2.71959
1
1
1
1
1
1
1
1
1
1
1
1
1
1
1
1.01373
2.29001
2.65216
2.65519
2.66813
2.68093
2.69271
2.70147
2.70667
2.7079
2.7075
2.70502
2.70084
2.69721
2.7056
1
1
1
1
1
1
1
1
1
1
1
1
1
1
1
1.00004
2.12431
2.63366
2.64033
2.65005
2.66013
2.67029
2.67895
2.68299
2.6825
2.67953
2.67087
2.65304
2.60359
2.49968
1
1
1
1
1
1
1
1
1
1
1
1
1
1
1
1
1.8824
2.58815
2.62725
2.63883
2.64728
2.65367
2.65774
2.65885
2.6559
2.64827
2.63176
2.59752
2.54042
2.37268
1
1
1
1
1
1
1
1
1
1
1
1
1
1
1
1
1.52238
2.46939
2.60542
2.6227
2.63254
2.63721
2.63809
2.63581
2.62923
2.61588
2.59283
2.54967
2.48015
2.29888
1
1
1
1
1
1
1
1
1
1
1
1
1
1
1
1
1.07968
2.31089
2.60789
2.60484
2.61021
2.6161
2.61613
2.61224
2.60299
2.58536
2.55637
2.51088
2.42812
2.26791
1
1
1
1
1
1
1
1
1
1
1
1
1
1
1
1
1.00162
2.13591
2.56392
2.57163
2.58285
2.59006
2.59127
2.58742
2.57709
2.55772
2.5252
2.47705
2.39269
2.27068
1
1
1
1
1
1
1
1
1
1
1
1
1
1
1
1
0.999986
1.7708
2.48518
2.54716
2.56014
2.56761
2.56805
2.56386
2.55263
2.53242
2.49976
2.44996
2.37159
2.27327
1
1
1
1
1
1
1
1
1
1
1
1
1
1
1
1
0.999996
1.24768
2.34102
2.54432
2.53756
2.54029
2.54035
2.53636
2.5258
2.50695
2.47634
2.42821
2.35927
2.27778
1
1
1
1
1
1
1
1
1
1
1
1
1
1
1
1
0.999999
1.01535
2.16289
2.50243
2.50703
2.51099
2.51093
2.50747
2.49781
2.48174
2.45262
2.40939
2.35086
2.28149
1
1
1
1
1
1
1
1
1
1
1
1
1
1
1
1
1
1.00001
1.72608
2.41277
2.48704
2.49148
2.48942
2.4832
2.47205
2.45527
2.42838
2.3912
2.34196
2.28371
1
1
1
1
1
1
1
1
1
1
1
1
1
1
1
1
1
0.999996
1.14631
2.25262
2.48031
2.47199
2.46675
2.45752
2.4444
2.42723
2.40341
2.37185
2.33047
2.28173
1
1
1
1
1
1
1
1
1
1
1
1
1
1
1
1
1
0.999999
1.00491
1.99277
2.42182
2.44827
2.4428
2.43307
2.41976
2.40214
2.37955
2.35142
2.31589
2.27564
1
1
1
1
1
1
1
1
1
1
1
1
1
1
1
1
1
1
0.999989
1.40058
2.28401
2.43346
2.4199
2.41051
2.39803
2.38085
2.35899
2.33223
2.30025
2.26581
1
1
1
1
1
1
1
1
1
1
1
1
1
1
1
1
1
1
0.999997
1.03844
2.09017
2.40087
2.38723
2.3835
2.37398
2.3591
2.33908
2.31387
2.28471
2.2538
1
1
1
1
1
1
1
1
1
1
1
1
1
1
1
1
1
1
0.999999
1.00025
1.56592
2.27896
2.37189
2.36363
2.35352
2.3396
2.32149
2.299
2.27262
2.24353
1
1
1
1
1
1
1
1
1
1
1
1
1
1
1
1
1
1
1
1
1.08312
2.0781
2.35293
2.34368
2.33341
2.31899
2.30181
2.28152
2.25808
2.23131
1
1
1
1
1
1
1
1
1
1
1
1
1
1
1
1
1
1
1
1
1.00135
1.55576
2.22263
2.32412
2.31102
2.29749
2.28201
2.26403
2.24313
2.21893
1
1
1
1
1
1
1
1
1
1
1
1
1
1
1
1
1
1
1
1
1
1.08464
2.01971
2.30569
2.29111
2.2794
2.26487
2.24775
2.22794
2.20575
1
1
1
1
1
1
1
1
1
1
1
1
1
1
1
1
1
1
1
1
1
1.00148
1.46915
2.15337
2.27082
2.25776
2.24508
2.22957
2.21183
2.19207
1
1
1
1
1
1
1
1
1
1
1
1
1
1
1
1
1
1
1
1
1
1
1.05768
1.90341
2.2489
2.24101
2.22842
2.21286
2.19683
2.17916
1
1
1
1
1
1
1
1
1
1
1
1
1
1
1
1
1
1
1
1
1
1
1.00078
1.33687
2.07241
2.22285
2.20493
2.19308
2.17962
2.16425
1
1
1
1
1
1
1
1
1
1
1
1
1
1
1
1
1
1
1
1
1
1
1
1.02677
1.70177
2.14526
2.19353
2.18051
2.16748
2.1528
1
1
1
1
1
1
1
1
1
1
1
1
1
1
1
1
1
1
1
1
1
1
1
1.00027
1.17228
1.92599
2.17342
2.16251
2.15135
2.13832
1
1
1
1
1
1
1
1
1
1
1
1
1
1
1
1
1
1
1
1
1
1
1
1
1.00664
1.4335
2.02613
2.14473
2.13015
2.11902
1
1
1
1
1
1
1
1
1
1
1
1
1
1
1
1
1
1
1
1
1
1
1
1
1.00004
1.05193
1.7018
2.06856
2.12299
2.10939
1
1
1
1
1
1
1
1
1
1
1
1
1
1
1
1
1
1
1
1
1
1
1
1
1
1.00086
1.19068
1.84949
2.09463
2.09358
1
1
1
1
1
1
1
1
1
1
1
1
1
1
1
1
1
1
1
1
1
1
1
1
1
1
1.00857
1.37865
1.93835
2.07312
1
1
1
1
1
1
1
1
1
1
1
1
1
1
1
1
1
1
1
1
1
1
1
1
1
1
1.00007
1.04029
1.56691
1.97879
1
1
1
1
1
1
1
1
1
1
1
1
1
1
1
1
1
1
1
1
1
1
1
1
1
1
1
1.00064
1.11585
1.71666
1
1
1
1
1
1
1
1
1
1
1
1
1
1
1
1
1
1
1
1
1
1
1
1
1
1
1
1
1.00368
1.23672
1
1
1
1
1
1
1
1
1
1
1
1
1
1
1
1
1
1
1
1
1
1
1
1
1
1
1
1
1.00003
1.01454
1
1
1
1
1
1
1
1
1
1
1
1
1
1
1
1
1
1
1
1
1
1
1
1
1
1
1
1
1
1.00016
1
1
1
1
1
1
1
1
1
1
1
1
1
1
1
1
1
1
1
1
1
1
1
1
1
1
1
1
1
1
1
1
1
1
1
1
1
1
1
1
1
1
1
1
1
1
1
1
1
1
1
1
1
1
1
1
1
1
1
1
1
1
1
1
1
1
1
1
1
1
1
1
1
1
1
1
1
1
1
1
1
1
1
1
1
1
1
1
1
1
1
1
1
1
1
1
1
1
1
1
1
1
1
1
1
1
1
1
1
1
1
1
1
1
1
1
1
1
1
1
1
1
1
1
1
1
1
1
1
1
1
1
1
1
1
1
1
1
1
1
1
1
1
1
1
1
1
1
1
1
1
1
1
1
1
1
1
1
1
1
1
1
1
1
1
1
1
1
1
1
1
1
1
1
1
1
1
1
1
1
1
1
1
1
1
1
1
1
1
1
1
1
1
1
1
1
1
1
1
1
1
1
1
1
1
1
1
1
1
1
1
1
1
1
1
1
1
1
1
1
1
1
1
1
1
1
1
1
1
1
1
1
1
1
1
1
1
1
1
1
1
1
1
1
1
1
1
1
1
1
1
1
1
1
1
1
1
1
1
1
1
1
1
1
1
1
1
1
1
1
1.66196
1.14545
0.875943
0.856717
0.996676
1.18911
1.30606
1.42086
1.49558
1.53221
1.53681
1.55139
1.61515
1.70302
1.73543
1.73093
1.71357
1.70664
1.70995
1.72179
1.72083
1.69952
1.68779
1.69085
1.69563
1.70027
1.70244
1.70326
1.70422
1.70318
1.69896
1.69134
1.68665
1.68717
1.69168
1.69677
1.69917
1.69882
1.69624
1.69199
1.68846
1.6871
1.68761
1.69061
1.71979
2.3679
2.86579
2.82178
2.77495
2.73651
2.70573
2.68844
2.6686
2.64302
2.60962
2.57828
2.55755
2.54523
2.53718
2.53156
2.52479
2.50816
2.48581
2.46386
2.44276
2.42687
2.41522
2.40596
2.40082
2.39517
2.38406
2.37183
2.35561
2.33545
2.31954
2.30823
2.29843
2.29203
2.28846
2.28352
2.27601
2.26619
2.25119
2.23107
2.21538
2.20475
2.1959
2.18874
2.18217
2.17565
2.16864
2.15973
2.14772
2.1353
2.12762
2.12331
2.12033
2.11756
2.11337
2.10663
2.0948
2.07798
2.06321
2.05437
2.04922
2.04524
2.04158
2.03644
2.02935
2.01881
2.00561
1.99283
1.98181
1.97309
1.96721
1.96274
1.95876
1.95402
1.94869
1.9362
1.88887
1.60899
1.47217
1.25557
1.19579
1.21914
1.22893
1.24391
1.2393
1.24925
1.28316
1.32588
1.38936
1.46243
1.51605
1.5465
1.56481
1.58314
1.60505
1.62622
1.64184
1.64296
1.64218
1.64741
1.64934
1.65132
1.65604
1.66009
1.66525
1.66696
1.66601
1.66309
1.66055
1.66121
1.66342
1.66645
1.67001
1.67183
1.67151
1.6691
1.66581
1.66369
1.66487
1.68991
1.82037
2.18736
2.68428
2.71906
2.68963
2.66162
2.64543
2.63579
2.62079
2.60038
2.57634
2.55644
2.54101
2.52869
2.5177
2.50676
2.49469
2.48208
2.46696
2.45109
2.43649
2.4211
2.4063
2.39404
2.3836
2.37518
2.36679
2.35722
2.34635
2.33422
2.32005
2.3054
2.29371
2.28522
2.27774
2.26992
2.26207
2.25379
2.24273
2.22853
2.21359
2.2002
2.19002
2.18254
2.1765
2.17078
2.16448
2.15684
2.14706
2.13563
2.12511
2.1175
2.1125
2.10818
2.10359
2.09801
2.08996
2.07888
2.06652
2.05513
2.04627
2.03987
2.03467
2.02922
2.02293
2.01516
2.00526
1.99451
1.9842
1.97504
1.96682
1.95953
1.95371
1.94818
1.94344
1.93306
2.00949
1.79469
1.66288
1.52208
1.40571
1.35398
1.30134
1.24442
1.21924
1.18433
1.18643
1.2212
1.26324
1.29231
1.32191
1.35738
1.39361
1.42964
1.46432
1.49547
1.52305
1.5512
1.57075
1.58092
1.58166
1.58326
1.58556
1.58811
1.59302
1.59752
1.59672
1.59754
1.60067
1.60492
1.60841
1.61026
1.61075
1.61172
1.61298
1.61278
1.61271
1.61762
1.64155
1.76543
1.97295
2.04219
2.28337
2.50126
2.54877
2.57322
2.57136
2.55637
2.53661
2.51574
2.50035
2.49302
2.48865
2.48268
2.47289
2.45994
2.44297
2.42824
2.41686
2.40757
2.39956
2.39056
2.38089
2.36822
2.35141
2.33671
2.32672
2.31864
2.31293
2.30843
2.30131
2.29212
2.28088
2.26647
2.2521
2.24156
2.2325
2.22295
2.21467
2.20662
2.1968
2.18594
2.17351
2.16253
2.1562
2.15146
2.14672
2.14144
2.13536
2.12709
2.11513
2.10184
2.09291
2.08746
2.08236
2.07631
2.07054
2.06571
2.06015
2.05133
2.03774
2.02556
2.01814
2.01216
2.00561
1.99902
1.99342
1.98761
1.9813
1.9728
1.96121
1.94996
1.94204
1.93542
1.92947
1.91873
2.07047
1.91736
1.7815
1.65977
1.5704
1.49897
1.42979
1.36365
1.33226
1.2992
1.26032
1.2516
1.23794
1.23706
1.24176
1.25326
1.2694
1.30214
1.34735
1.38436
1.41032
1.43985
1.47271
1.48903
1.49927
1.51368
1.5256
1.53045
1.53637
1.54162
1.54089
1.54227
1.54694
1.54968
1.55033
1.5499
1.54845
1.54759
1.54774
1.5482
1.55444
1.58386
1.69423
1.90165
2.03606
2.01178
2.02719
2.18178
2.34809
2.44347
2.49419
2.48393
2.45879
2.43224
2.42276
2.42201
2.42131
2.41809
2.40886
2.39765
2.38435
2.36923
2.35985
2.35326
2.34716
2.34131
2.33419
2.32592
2.31338
2.29664
2.28461
2.27764
2.27212
2.26872
2.26594
2.26013
2.25131
2.23823
2.21973
2.20404
2.19378
2.18576
2.17919
2.17423
2.16773
2.1597
2.15
2.13704
2.1256
2.12021
2.11646
2.11297
2.10856
2.10248
2.09389
2.08129
2.06619
2.05526
2.04905
2.04482
2.0421
2.04047
2.03767
2.03252
2.02272
2.00662
1.9922
1.98441
1.97959
1.97579
1.97312
1.97073
1.96652
1.96074
1.95129
1.93699
1.92374
1.91438
1.9086
1.8993
2.12255
1.99655
1.88128
1.76441
1.68456
1.61283
1.53362
1.47346
1.42957
1.39013
1.35475
1.33045
1.30349
1.26865
1.25761
1.25212
1.25314
1.25833
1.27057
1.28947
1.31284
1.3444
1.38667
1.42007
1.4394
1.45814
1.47541
1.48192
1.48699
1.49651
1.50375
1.50898
1.51575
1.52059
1.52089
1.51943
1.51637
1.51228
1.51105
1.51472
1.53885
1.67547
1.86546
1.99586
2.00868
1.99722
1.99141
2.00402
2.11263
2.29103
2.39639
2.43932
2.42811
2.39886
2.38343
2.37819
2.37566
2.37461
2.36919
2.35967
2.3483
2.33328
2.31954
2.31206
2.30578
2.29966
2.29286
2.28596
2.27663
2.26208
2.24868
2.24221
2.23721
2.23377
2.23109
2.22502
2.21702
2.2057
2.18701
2.16686
2.15674
2.1506
2.1455
2.14226
2.13805
2.13111
2.12362
2.11332
2.09866
2.08729
2.08246
2.07858
2.07411
2.06843
2.06117
2.05145
2.0378
2.02226
2.01371
2.01092
2.00916
2.00789
2.00527
2.00112
1.99361
1.98107
1.96629
1.95572
1.95094
1.94808
1.9461
1.94409
1.94089
1.93665
1.92931
1.91685
1.90242
1.89139
1.88653
1.87878
2.15972
2.05357
1.95057
1.85469
1.77284
1.70047
1.62594
1.56684
1.52377
1.47456
1.4341
1.40862
1.38398
1.35097
1.32687
1.30752
1.28612
1.27484
1.27519
1.27126
1.27168
1.27868
1.29779
1.32677
1.35686
1.38487
1.41697
1.44141
1.45383
1.46599
1.47814
1.48445
1.49201
1.49877
1.49956
1.49953
1.49841
1.49754
1.49954
1.52024
1.6447
1.86446
1.98091
2.00679
2.0019
1.99396
1.98837
1.98448
1.99326
2.08121
2.24305
2.3718
2.40067
2.3884
2.37384
2.36273
2.35326
2.34776
2.34262
2.33609
2.32705
2.31531
2.30003
2.28589
2.27739
2.27052
2.26413
2.25845
2.25227
2.24317
2.22984
2.21833
2.2118
2.20653
2.20227
2.19647
2.1889
2.17958
2.16615
2.14779
2.13272
2.12538
2.11978
2.11527
2.11219
2.10675
2.09925
2.09042
2.07779
2.06207
2.05133
2.04654
2.04208
2.03636
2.02942
2.02145
2.01244
2.00132
1.98883
1.98117
1.97791
1.97482
1.97113
1.96603
1.95953
1.95231
1.94446
1.93503
1.92539
1.91967
1.91655
1.91395
1.91111
1.90665
1.89944
1.89041
1.88113
1.87158
1.86476
1.85692
2.18921
2.09996
2.00527
1.92356
1.848
1.77555
1.70434
1.64733
1.59864
1.55479
1.51146
1.47887
1.44709
1.41158
1.3812
1.35634
1.3359
1.319
1.30536
1.29167
1.28317
1.28238
1.28111
1.28235
1.28847
1.30203
1.32512
1.36182
1.39764
1.42354
1.4519
1.4649
1.47472
1.48369
1.48582
1.48842
1.48818
1.49012
1.52072
1.63555
1.85633
1.97423
2.00532
2.00437
2.00066
1.99457
1.99005
1.98425
1.97677
1.97949
2.03306
2.18481
2.31907
2.37428
2.37836
2.36189
2.34241
2.32885
2.32156
2.31696
2.312
2.30346
2.292
2.27525
2.25864
2.24924
2.24359
2.23993
2.23565
2.2303
2.22124
2.20746
2.19476
2.18671
2.18019
2.17475
2.16803
2.16005
2.15101
2.13927
2.12377
2.11053
2.10345
2.09823
2.09337
2.08784
2.08028
2.07161
2.06219
2.0494
2.03302
2.02111
2.01537
2.01088
2.00597
2.00024
1.9944
1.98824
1.97896
1.96482
1.9531
1.94679
1.94111
1.93545
1.93096
1.9276
1.92418
1.91892
1.91012
1.89932
1.89218
1.88794
1.88289
1.87658
1.8706
1.86612
1.86213
1.8568
1.84988
1.83934
2.20774
2.12891
2.04841
1.97755
1.9061
1.83184
1.77116
1.71719
1.66533
1.61585
1.57852
1.54179
1.507
1.47592
1.4489
1.41747
1.38777
1.37348
1.35957
1.34048
1.32529
1.31626
1.30244
1.28976
1.28684
1.28398
1.28515
1.29249
1.31277
1.34283
1.38104
1.41623
1.4407
1.45532
1.4672
1.47516
1.47658
1.50771
1.67396
1.85176
1.98751
2.00761
2.00021
1.99524
1.99255
1.99439
1.99197
1.98589
1.974
1.95943
1.95232
1.98451
2.11292
2.26649
2.34911
2.35834
2.34326
2.3204
2.30735
2.29776
2.29488
2.2912
2.28234
2.26934
2.25056
2.2346
2.22715
2.22286
2.22067
2.21724
2.21144
2.20206
2.18787
2.17338
2.1636
2.15637
2.15082
2.14489
2.13819
2.1312
2.12187
2.10747
2.09072
2.07822
2.07016
2.06412
2.06048
2.05601
2.04915
2.04033
2.02798
2.01175
1.99978
1.99433
1.9909
1.99056
1.98861
1.98169
1.97218
1.95788
1.93888
1.92464
1.91729
1.91298
1.91019
1.90914
1.9076
1.90403
1.89849
1.88758
1.87174
1.86039
1.85477
1.85093
1.84848
1.84691
1.84527
1.84277
1.83853
1.82734
2.22101
2.15071
2.08248
2.01753
1.94945
1.88189
1.82837
1.77403
1.72126
1.67268
1.63688
1.6
1.55944
1.52539
1.50099
1.4769
1.44652
1.42298
1.40663
1.38886
1.36485
1.3474
1.33222
1.31294
1.30335
1.29846
1.29031
1.29029
1.29424
1.3004
1.311
1.3301
1.35474
1.38321
1.41621
1.44151
1.47193
1.65467
1.87285
1.97383
2.01553
2.01382
2.00038
1.99275
1.9918
1.99477
1.99288
1.98221
1.96331
1.94222
1.93078
1.92439
1.94458
2.04665
2.20072
2.29976
2.32704
2.31275
2.29019
2.27857
2.27233
2.27211
2.2667
2.25718
2.24453
2.22736
2.21293
2.20662
2.20266
2.19994
2.1971
2.1911
2.182
2.16748
2.15058
2.13889
2.13133
2.12602
2.12377
2.11968
2.11373
2.10444
2.08724
2.06689
2.05439
2.04664
2.04029
2.03574
2.03254
2.02815
2.02219
2.01244
1.9978
1.98631
1.98087
1.9764
1.97234
1.96796
1.96112
1.94987
1.93236
1.91381
1.90464
1.90067
1.89837
1.8997
1.89983
1.89612
1.89012
1.87848
1.85838
1.84228
1.83696
1.8353
1.83423
1.83406
1.83364
1.83211
1.82921
1.81593
2.22769
2.16655
2.10752
2.04811
1.98374
1.92551
1.87352
1.8227
1.77
1.72627
1.68576
1.64811
1.61291
1.5772
1.54627
1.51994
1.49501
1.47162
1.45058
1.43454
1.4176
1.39768
1.37757
1.3545
1.34072
1.33403
1.32181
1.30796
1.30575
1.30308
1.29824
1.29679
1.29931
1.3092
1.33212
1.37165
1.54538
1.82515
1.93556
1.97917
1.99069
1.97723
1.97127
1.97472
1.98116
1.98532
1.9815
1.96953
1.94943
1.92603
1.91335
1.90638
1.90411
1.91464
1.97736
2.1094
2.23384
2.27519
2.26888
2.25851
2.24889
2.24734
2.24455
2.2383
2.23114
2.22159
2.20558
2.18977
2.18266
2.17836
2.17651
2.17452
2.16858
2.15884
2.14164
2.1213
2.11018
2.10443
2.1024
2.10234
2.09857
2.0929
2.08315
2.06515
2.04394
2.03112
2.02402
2.0187
2.01546
2.01445
2.01143
2.00648
1.99861
1.98512
1.97162
1.9639
1.95834
1.95216
1.94494
1.93664
1.92609
1.9137
1.90195
1.89505
1.89129
1.88814
1.88457
1.88005
1.87414
1.86463
1.85057
1.83666
1.82892
1.82612
1.82516
1.82548
1.8264
1.82459
1.81832
1.7986
2.22764
2.17628
2.1257
2.07081
2.01253
1.96278
1.91268
1.86167
1.81212
1.77307
1.73165
1.69263
1.65471
1.62428
1.59209
1.56341
1.53879
1.51822
1.4932
1.46675
1.45282
1.43966
1.42295
1.39724
1.37639
1.36704
1.35658
1.33768
1.32279
1.31532
1.30809
1.29945
1.29804
1.2996
1.31597
1.4494
1.71482
1.84602
1.89029
1.90493
1.90365
1.91259
1.92278
1.9382
1.95204
1.95231
1.95148
1.94296
1.92807
1.91261
1.90258
1.89581
1.88832
1.88316
1.87899
1.90876
2.01397
2.14166
2.21619
2.22987
2.22543
2.22109
2.21728
2.2146
2.2118
2.20681
2.19727
2.17869
2.16167
2.15475
2.15151
2.15144
2.14896
2.14185
2.13034
2.11062
2.09004
2.08036
2.0759
2.07431
2.0753
2.07348
2.06888
2.05985
2.04332
2.02189
2.00865
2.00278
1.99896
1.99776
1.99775
1.99478
1.98998
1.98142
1.96657
1.95185
1.94219
1.93477
1.92756
1.92082
1.91517
1.90921
1.90278
1.89431
1.88408
1.87498
1.86787
1.86086
1.85346
1.84598
1.83985
1.8351
1.82919
1.82218
1.8184
1.81689
1.8138
1.80778
1.79914
1.7829
2.22441
2.18028
2.1359
2.08536
2.03601
1.99069
1.94344
1.89167
1.85078
1.81094
1.77077
1.72915
1.69604
1.66469
1.63274
1.60221
1.57857
1.55759
1.53497
1.51129
1.48643
1.4699
1.45644
1.43711
1.41204
1.40053
1.39306
1.37858
1.35752
1.34741
1.33868
1.32348
1.31464
1.32604
1.43292
1.64827
1.80826
1.81956
1.81488
1.81185
1.80953
1.81926
1.83846
1.86063
1.88293
1.88941
1.89357
1.89789
1.89799
1.89548
1.89302
1.88554
1.87259
1.86147
1.85551
1.84874
1.85996
1.92612
2.04518
2.1495
2.18587
2.18744
2.18597
2.18628
2.18808
2.18483
2.17891
2.16787
2.14878
2.13261
2.1262
2.12336
2.12253
2.11801
2.11031
2.09828
2.07909
2.05944
2.05
2.04654
2.04521
2.04635
2.04574
2.04198
2.03398
2.02069
2.00218
1.98819
1.98205
1.9784
1.97584
1.97623
1.9746
1.96926
1.95963
1.94366
1.92775
1.91867
1.91269
1.90756
1.90429
1.90141
1.89609
1.88881
1.87657
1.86018
1.84783
1.84059
1.83463
1.83098
1.82969
1.82866
1.8257
1.82029
1.81168
1.80225
1.79456
1.78677
1.77946
1.76967
2.21755
2.17923
2.14001
2.09557
2.05294
2.01131
1.96547
1.91949
1.88231
1.84303
1.80288
1.76296
1.73332
1.7005
1.66965
1.63895
1.61749
1.59279
1.56649
1.54552
1.52626
1.50251
1.48368
1.47043
1.45052
1.42723
1.41694
1.40847
1.39352
1.37765
1.36411
1.34836
1.35266
1.44414
1.6686
1.80504
1.82683
1.81514
1.79928
1.79086
1.79159
1.78457
1.77248
1.76136
1.76552
1.77454
1.78852
1.81144
1.83542
1.85759
1.86306
1.86021
1.84832
1.83612
1.83075
1.82334
1.82299
1.82712
1.85871
1.95449
2.06154
2.13193
2.14502
2.15046
2.15735
2.16072
2.1548
2.14825
2.13764
2.12118
2.10426
2.09533
2.0906
2.08804
2.08373
2.07679
2.06625
2.0502
2.03173
2.02079
2.01714
2.01537
2.01533
2.01542
2.01272
2.00706
1.99752
1.98212
1.96636
1.95779
1.95372
1.95023
1.94819
1.94694
1.94314
1.93416
1.92118
1.90862
1.90139
1.89674
1.89552
1.89474
1.88854
1.88052
1.86737
1.8473
1.83076
1.82259
1.81967
1.819
1.81996
1.81898
1.8171
1.81302
1.80177
1.78518
1.77387
1.76737
1.76233
1.75818
2.21043
2.17618
2.13971
2.10062
2.06279
2.02448
1.98124
1.94193
1.90603
1.86933
1.82811
1.79467
1.76463
1.73366
1.70093
1.67217
1.65012
1.62521
1.59884
1.57387
1.55672
1.53495
1.50826
1.49549
1.48419
1.46366
1.44226
1.43315
1.42356
1.40698
1.39042
1.39635
1.48152
1.70602
1.84605
1.85474
1.83911
1.81922
1.80573
1.79625
1.78687
1.77675
1.766
1.75156
1.7339
1.72221
1.71929
1.724
1.73664
1.75541
1.77795
1.78649
1.7931
1.79297
1.79171
1.78847
1.78786
1.79309
1.7983
1.81263
1.86547
1.95936
2.05374
2.08909
2.10718
2.11887
2.12912
2.12594
2.11883
2.10959
2.09411
2.07398
2.06011
2.05455
2.05194
2.05003
2.04471
2.03621
2.02336
2.00628
1.99304
1.98784
1.98569
1.98532
1.98601
1.9842
1.98006
1.97265
1.95985
1.94314
1.93138
1.92536
1.92145
1.91825
1.91539
1.91254
1.90849
1.90295
1.89462
1.88598
1.87969
1.87382
1.86849
1.86192
1.8519
1.83706
1.82182
1.81227
1.80804
1.80651
1.80738
1.80774
1.80633
1.8019
1.78941
1.76955
1.75565
1.75047
1.74928
1.74694
2.20133
2.17032
2.13671
2.10171
2.06812
2.0323
1.99326
1.95913
1.92537
1.8896
1.85146
1.82257
1.79199
1.76188
1.72799
1.7037
1.67874
1.65362
1.62612
1.60191
1.58295
1.5633
1.53928
1.51804
1.50727
1.49298
1.47256
1.45675
1.44462
1.43019
1.43347
1.51499
1.73575
1.89695
1.89616
1.87762
1.8544
1.83698
1.82407
1.81215
1.79854
1.78546
1.77235
1.75492
1.73096
1.71655
1.71032
1.70348
1.69785
1.69522
1.69527
1.69371
1.69753
1.70501
1.71183
1.72555
1.73777
1.74883
1.75042
1.75346
1.76493
1.79087
1.85933
1.95505
2.02923
2.05842
2.07746
2.09307
2.09813
2.09098
2.08059
2.06462
2.04258
2.02649
2.02107
2.01843
2.01785
2.01434
2.0074
1.99714
1.98221
1.96741
1.95969
1.95651
1.9542
1.95379
1.95361
1.9513
1.94551
1.9348
1.91841
1.90415
1.89656
1.89232
1.89006
1.88942
1.88984
1.88813
1.88375
1.87541
1.86345
1.85362
1.84601
1.83818
1.82902
1.82078
1.81434
1.80783
1.80035
1.79412
1.79053
1.78797
1.78548
1.7811
1.77122
1.75617
1.7436
1.73899
1.7374
1.73476
2.19196
2.16339
2.13244
2.10117
2.07039
2.03679
2.00271
1.97202
1.9403
1.90473
1.87262
1.84481
1.81531
1.78377
1.75296
1.72974
1.70318
1.67765
1.65011
1.62867
1.60657
1.58538
1.56437
1.54532
1.53017
1.51559
1.49986
1.47993
1.46286
1.46706
1.54394
1.75878
1.92712
1.93699
1.92002
1.89926
1.87655
1.85372
1.83719
1.82227
1.80814
1.79534
1.78327
1.77033
1.7528
1.72921
1.70894
1.69791
1.69102
1.68477
1.67706
1.67241
1.66289
1.65146
1.63777
1.63678
1.64464
1.65728
1.67319
1.68622
1.6938
1.70536
1.7258
1.77001
1.85128
1.94814
1.99989
2.03112
2.05226
2.0646
2.06201
2.05107
2.03637
2.01568
1.99858
1.99123
1.98811
1.98736
1.98508
1.97963
1.97157
1.95846
1.94215
1.93217
1.92823
1.92563
1.92314
1.92164
1.92042
1.91685
1.90796
1.89284
1.87878
1.87223
1.86964
1.86844
1.86861
1.8675
1.8644
1.85939
1.84968
1.83529
1.82352
1.8151
1.80922
1.80511
1.80176
1.79664
1.79025
1.78211
1.77326
1.76587
1.75955
1.75322
1.7466
1.74116
1.7384
1.7337
1.72877
1.72298
2.18141
2.15479
2.12678
2.09922
2.07014
2.03877
2.00978
1.98127
1.95089
1.91739
1.8903
1.86221
1.83376
1.80107
1.77581
1.75093
1.72508
1.69726
1.67168
1.65184
1.62939
1.60794
1.58675
1.57088
1.55325
1.53568
1.51886
1.50076
1.5024
1.57692
1.78374
1.95165
1.96667
1.95029
1.93182
1.91558
1.89536
1.87008
1.84876
1.83377
1.82062
1.80769
1.79492
1.78165
1.76658
1.74647
1.72286
1.70553
1.69375
1.68296
1.67182
1.66113
1.651
1.64207
1.63331
1.61562
1.59762
1.58782
1.58931
1.59729
1.60829
1.61984
1.63321
1.65089
1.67826
1.74258
1.83992
1.92868
1.9752
2.00622
2.02546
2.02993
2.02461
2.01215
1.9952
1.97705
1.96576
1.96066
1.95834
1.95708
1.95293
1.94531
1.93397
1.91936
1.90784
1.90191
1.89803
1.89519
1.89339
1.89189
1.88827
1.87958
1.86798
1.85832
1.85309
1.85024
1.84769
1.84547
1.84338
1.84009
1.83147
1.81665
1.8037
1.79803
1.79455
1.7914
1.78785
1.78221
1.77602
1.76791
1.75585
1.74375
1.7356
1.72934
1.72632
1.7266
1.72693
1.72552
1.7222
1.71266
2.17008
2.14585
2.12091
2.0957
2.0685
2.04021
2.01421
1.9872
1.95725
1.92833
1.90308
1.87581
1.84666
1.81686
1.79395
1.76782
1.743
1.71436
1.69295
1.67158
1.65013
1.62761
1.60775
1.59233
1.57565
1.55533
1.53527
1.53909
1.61791
1.82647
1.97669
1.99342
1.97695
1.95682
1.94253
1.92775
1.90954
1.88659
1.86214
1.84319
1.82845
1.81496
1.80177
1.78892
1.77641
1.76244
1.74318
1.71847
1.69921
1.68666
1.67441
1.66101
1.6488
1.63816
1.62708
1.61334
1.59536
1.57964
1.56695
1.55764
1.5527
1.55292
1.55568
1.56152
1.56984
1.58447
1.62263
1.70459
1.81836
1.89948
1.95289
1.98239
1.99966
2.00074
1.99299
1.97883
1.96017
1.94468
1.93822
1.93358
1.92938
1.92574
1.91995
1.90882
1.89542
1.88621
1.88093
1.8771
1.87357
1.86965
1.86496
1.85972
1.85344
1.84582
1.83881
1.83386
1.82963
1.82513
1.81923
1.81084
1.80203
1.79442
1.79004
1.78613
1.78195
1.77804
1.77329
1.76801
1.76246
1.75393
1.73926
1.72314
1.71356
1.71127
1.71121
1.71204
1.71213
1.71136
1.70909
1.69991
2.15897
2.13699
2.11466
2.09102
2.0652
2.04012
2.01545
1.98949
1.96087
1.93664
1.91161
1.88555
1.85539
1.83126
1.80777
1.78287
1.7566
1.73112
1.71186
1.68947
1.66901
1.64612
1.62864
1.61097
1.59165
1.57194
1.57669
1.66602
1.88472
2.02564
2.02419
2.00523
1.98218
1.96553
1.95101
1.93494
1.91757
1.89878
1.87782
1.85567
1.83625
1.82052
1.80673
1.79355
1.78102
1.76888
1.75528
1.73684
1.71274
1.69182
1.67719
1.66336
1.64946
1.63717
1.626
1.61527
1.60194
1.58287
1.56204
1.54879
1.54077
1.53274
1.52719
1.52568
1.52424
1.52
1.5133
1.52038
1.56262
1.6606
1.78663
1.87051
1.9327
1.96657
1.97547
1.9733
1.96095
1.94326
1.92967
1.92284
1.91728
1.91121
1.90334
1.89477
1.88487
1.8731
1.86582
1.86212
1.8586
1.85429
1.84907
1.84354
1.83748
1.8301
1.82239
1.81677
1.81232
1.80699
1.79912
1.78824
1.7783
1.77534
1.77392
1.77185
1.76882
1.76482
1.75948
1.75268
1.74377
1.73205
1.71849
1.70559
1.69922
1.698
1.69761
1.69725
1.6965
1.69525
1.69343
1.68533
2.14648
2.12714
2.10653
2.0842
2.06074
2.0382
2.01449
1.98892
1.96378
1.94117
1.91683
1.89078
1.86362
1.8425
1.81839
1.79509
1.76781
1.74772
1.72732
1.70579
1.68481
1.66373
1.64673
1.6269
1.6065
1.61335
1.71126
1.92841
2.0743
2.07067
2.04333
2.01391
1.98915
1.972
1.956
1.93989
1.92432
1.90863
1.89137
1.86986
1.84544
1.82531
1.81003
1.79633
1.78323
1.77112
1.75964
1.74602
1.72539
1.7006
1.68211
1.66719
1.65369
1.64185
1.63045
1.61904
1.60648
1.58931
1.5669
1.54833
1.53445
1.52421
1.51733
1.51181
1.50597
1.50227
1.49952
1.48822
1.46888
1.4718
1.51616
1.62701
1.75779
1.85958
1.91161
1.94158
1.94348
1.94005
1.93153
1.9204
1.91203
1.90463
1.89654
1.88598
1.87034
1.85736
1.85311
1.84983
1.84595
1.84172
1.83851
1.83393
1.82723
1.81722
1.80622
1.79945
1.79427
1.78871
1.78173
1.77374
1.76854
1.76384
1.75875
1.75601
1.75442
1.75176
1.74599
1.7369
1.72514
1.71209
1.69922
1.6916
1.68834
1.68664
1.68541
1.6838
1.68168
1.67941
1.67684
1.66769
2.13638
2.11844
2.09862
2.07709
2.05612
2.03473
2.01211
1.9874
1.96572
1.94308
1.91985
1.89341
1.87176
1.85043
1.82763
1.80322
1.77926
1.76137
1.73981
1.72029
1.6976
1.67952
1.66063
1.64041
1.64909
1.75725
1.95982
2.09824
2.10248
2.08352
2.05736
2.02917
1.99938
1.97515
1.95892
1.94454
1.92999
1.91501
1.899
1.87974
1.85489
1.8296
1.81166
1.79808
1.7856
1.77375
1.7622
1.74973
1.73315
1.70815
1.68374
1.66801
1.65535
1.644
1.63328
1.62235
1.61072
1.59735
1.57832
1.55184
1.53292
1.5235
1.51512
1.50595
1.49694
1.48925
1.48309
1.47629
1.46451
1.44783
1.43562
1.44128
1.48466
1.60301
1.73496
1.83404
1.88222
1.9026
1.9087
1.91092
1.90933
1.90256
1.89401
1.88125
1.86364
1.847
1.83402
1.82845
1.82649
1.82958
1.82807
1.82374
1.81854
1.80877
1.79157
1.77469
1.76739
1.76334
1.76032
1.75891
1.75804
1.7555
1.75107
1.74387
1.73501
1.72763
1.72139
1.71436
1.70584
1.69634
1.68993
1.68436
1.67815
1.67324
1.67086
1.66903
1.66665
1.66357
1.65933
1.64836
2.12357
2.10716
2.08866
2.0692
2.04981
2.02956
2.00764
1.98609
1.96558
1.94364
1.9204
1.89689
1.87774
1.85567
1.83438
1.80928
1.79064
1.77121
1.75115
1.73083
1.70936
1.69184
1.67414
1.69255
1.82343
2.01461
2.11373
2.12101
2.10368
2.08556
2.06673
2.04381
2.01473
1.98252
1.96169
1.94698
1.93299
1.91817
1.90266
1.8854
1.86308
1.83522
1.81277
1.79828
1.78602
1.77423
1.76241
1.75004
1.73602
1.71761
1.69238
1.66974
1.65451
1.64185
1.63017
1.61941
1.60957
1.59966
1.58685
1.56845
1.54637
1.5283
1.51569
1.50459
1.49401
1.48373
1.47372
1.46473
1.45446
1.43883
1.42519
1.42002
1.41429
1.42028
1.46244
1.5661
1.7006
1.79878
1.83827
1.86515
1.87862
1.88634
1.88487
1.87566
1.86257
1.84437
1.82441
1.81463
1.81085
1.80837
1.81036
1.81257
1.80752
1.7984
1.78144
1.76054
1.75065
1.74796
1.74717
1.74985
1.74961
1.74659
1.74183
1.73231
1.71873
1.70701
1.69951
1.6932
1.68731
1.68388
1.68071
1.67615
1.66884
1.66196
1.65924
1.65631
1.65287
1.6484
1.64185
1.62985
2.10745
2.09347
2.07764
2.06112
2.04311
2.02356
2.00296
1.98428
1.96403
1.94307
1.91952
1.90028
1.88017
1.85939
1.83694
1.81555
1.79883
1.77864
1.76004
1.73746
1.71969
1.70393
1.73247
1.89755
2.09964
2.15941
2.14842
2.11973
2.09944
2.08637
2.07141
2.05209
2.02913
1.99733
1.96534
1.94689
1.93265
1.91817
1.90283
1.88692
1.86879
1.84479
1.81733
1.7978
1.78386
1.77132
1.75913
1.74691
1.7342
1.71956
1.70083
1.67826
1.65789
1.64273
1.62949
1.61668
1.60447
1.59314
1.58206
1.56927
1.5526
1.53477
1.52079
1.50897
1.49696
1.48454
1.4718
1.45946
1.44643
1.43243
1.41885
1.40871
1.40132
1.39748
1.39391
1.39845
1.43405
1.52953
1.64719
1.74435
1.80251
1.82976
1.84681
1.85574
1.85352
1.84196
1.82622
1.80793
1.79663
1.7933
1.79064
1.7888
1.7858
1.78061
1.77203
1.75621
1.74203
1.73779
1.73604
1.73387
1.73162
1.72905
1.72537
1.71894
1.70495
1.69027
1.68275
1.67841
1.67558
1.67334
1.66975
1.66554
1.65931
1.64969
1.64073
1.63569
1.63178
1.62773
1.6233
1.615
2.09579
2.08219
2.06808
2.0531
2.03665
2.01797
1.99942
1.98082
1.96145
1.94056
1.91996
1.90139
1.88086
1.86137
1.83883
1.82249
1.80404
1.78551
1.76448
1.74477
1.73227
1.77088
1.94403
2.15701
2.21127
2.18744
2.14944
2.11756
2.097
2.08369
2.0718
2.05438
2.03475
2.00878
1.97407
1.94852
1.93215
1.91749
1.90228
1.88651
1.86979
1.84999
1.82506
1.80064
1.78274
1.76814
1.75466
1.74166
1.72878
1.71563
1.70093
1.68251
1.6617
1.64325
1.62842
1.61494
1.60199
1.59005
1.57913
1.56782
1.55403
1.5371
1.5207
1.50758
1.49613
1.48495
1.47334
1.46099
1.44812
1.43435
1.41794
1.40271
1.39319
1.38635
1.38007
1.37705
1.37346
1.37407
1.39855
1.47763
1.59747
1.7033
1.76171
1.80659
1.81905
1.82167
1.81776
1.80368
1.7891
1.77987
1.77639
1.77386
1.76876
1.76192
1.75517
1.74801
1.73828
1.7294
1.72415
1.72133
1.71879
1.71527
1.70976
1.70119
1.68825
1.67598
1.67177
1.66942
1.66721
1.66424
1.66034
1.65546
1.64768
1.63567
1.62521
1.61938
1.61565
1.61184
1.60912
1.60442
2.08193
2.06929
2.05661
2.04262
2.02672
2.01006
1.99373
1.97578
1.957
1.93667
1.91955
1.90051
1.88177
1.86096
1.84275
1.82646
1.80765
1.78857
1.76802
1.75909
1.81134
1.99758
2.17192
2.23436
2.22037
2.18893
2.15441
2.12003
2.09689
2.08068
2.06863
2.05279
2.03424
2.01176
1.98157
1.9511
1.93188
1.91629
1.90083
1.88496
1.8684
1.85006
1.82855
1.80496
1.78382
1.7668
1.75181
1.73758
1.72362
1.7099
1.69604
1.68068
1.66248
1.64349
1.62687
1.61232
1.59867
1.5857
1.57375
1.56247
1.55058
1.53672
1.52111
1.50595
1.49196
1.47866
1.46683
1.45716
1.44835
1.43733
1.42439
1.41079
1.39574
1.38346
1.37463
1.36695
1.35903
1.3567
1.3513
1.34817
1.36662
1.4429
1.55192
1.67474
1.73348
1.76806
1.78155
1.78118
1.77856
1.77185
1.76489
1.75987
1.75435
1.74819
1.7414
1.73338
1.72702
1.72088
1.71465
1.71072
1.70795
1.704
1.69711
1.68671
1.67499
1.66646
1.66304
1.66073
1.65827
1.65499
1.65111
1.6459
1.63722
1.62461
1.61371
1.60748
1.60404
1.60133
1.59968
1.59508
2.0652
2.05303