/*--------------------------------*- C++ -*----------------------------------*\
  =========                 |
  \\      /  F ield         | OpenFOAM: The Open Source CFD Toolbox
   \\    /   O peration     | Website:  https://openfoam.org
    \\  /    A nd           | Version:  7
     \\/     M anipulation  |
\*---------------------------------------------------------------------------*/
FoamFile
{
    version     2.0;
    format      ascii;
    class       volScalarField;
    location    "1.9";
    object      T;
}
// * * * * * * * * * * * * * * * * * * * * * * * * * * * * * * * * * * * * * //

dimensions      [0 0 0 1 0 0 0];

internalField   nonuniform List<scalar> 
6300
(
1
1
1
1
1
1
1
1
1
1
1
1
1
1
1
1.85241
2.68397
2.72804
2.73635
2.74999
2.76557
2.78316
2.79947
2.80993
2.81339
2.8135
2.81779
2.83121
2.84832
2.85852
1
1
1
1
1
1
1
1
1
1
1
1
1
1
1
1.83387
2.67695
2.72699
2.73531
2.74886
2.76439
2.78193
2.7981
2.80834
2.81158
2.81149
2.81569
2.82893
2.84562
2.85568
1
1
1
1
1
1
1
1
1
1
1
1
1
1
1
1.78271
2.66208
2.72389
2.73216
2.74591
2.76163
2.77933
2.79559
2.80577
2.80881
2.80858
2.81283
2.82587
2.84184
2.85161
1
1
1
1
1
1
1
1
1
1
1
1
1
1
1
1.69745
2.63222
2.71761
2.7262
2.74018
2.75606
2.77413
2.79091
2.80157
2.80471
2.80431
2.80853
2.82112
2.83612
2.8455
1
1
1
1
1
1
1
1
1
1
1
1
1
1
1
1.58736
2.5923
2.70928
2.71762
2.7318
2.74779
2.76612
2.78352
2.79507
2.79865
2.79807
2.80189
2.81392
2.8284
2.83797
1
1
1
1
1
1
1
1
1
1
1
1
1
1
1
1.44177
2.53274
2.70172
2.70831
2.72196
2.73727
2.75509
2.77286
2.78591
2.79086
2.79065
2.79407
2.80495
2.81834
2.82717
1
1
1
1
1
1
1
1
1
1
1
1
1
1
1
1.25893
2.44704
2.69357
2.69733
2.71042
2.7244
2.74098
2.75854
2.77309
2.7799
2.7801
2.78208
2.79084
2.80288
2.8126
1
1
1
1
1
1
1
1
1
1
1
1
1
1
1
1.05553
2.34822
2.69401
2.69302
2.70139
2.7107
2.7236
2.73969
2.75521
2.7643
2.76621
2.76808
2.77499
2.78314
2.78527
1
1
1
1
1
1
1
1
1
1
1
1
1
1
1
1.00112
2.22607
2.67832
2.67947
2.68592
2.69418
2.70455
2.71818
2.73318
2.74384
2.7468
2.74579
2.74507
2.74741
2.74815
1
1
1
1
1
1
1
1
1
1
1
1
1
1
1
1
2.05058
2.6577
2.67336
2.67719
2.6821
2.68863
2.6986
2.70994
2.71941
2.72123
2.71762
2.71438
2.71797
2.73607
1
1
1
1
1
1
1
1
1
1
1
1
1
1
1
1
1.80623
2.59277
2.65697
2.66451
2.6698
2.67522
2.68155
2.68885
2.69469
2.69384
2.68508
2.66612
2.6181
2.51888
1
1
1
1
1
1
1
1
1
1
1
1
1
1
1
1
1.45131
2.46076
2.636
2.64711
2.65422
2.65903
2.66306
2.66728
2.66889
2.6642
2.64811
2.61063
2.5502
2.38499
1
1
1
1
1
1
1
1
1
1
1
1
1
1
1
1
1.0584
2.30992
2.62798
2.62285
2.62876
2.63563
2.64015
2.64335
2.64195
2.63338
2.61241
2.56586
2.49299
2.30673
1
1
1
1
1
1
1
1
1
1
1
1
1
1
1
1
1.00078
2.12447
2.58598
2.59893
2.60603
2.60904
2.61239
2.6151
2.6127
2.60242
2.57848
2.53145
2.44672
2.28072
1
1
1
1
1
1
1
1
1
1
1
1
1
1
1
1
0.999994
1.77784
2.51013
2.5827
2.58451
2.58752
2.5878
2.58661
2.58196
2.57018
2.54553
2.50088
2.417
2.28609
1
1
1
1
1
1
1
1
1
1
1
1
1
1
1
1
0.999999
1.28848
2.368
2.57221
2.56532
2.56531
2.56231
2.55678
2.54895
2.53609
2.51317
2.47174
2.39619
2.29399
1
1
1
1
1
1
1
1
1
1
1
1
1
1
1
1
1
1.021
2.19272
2.52894
2.53559
2.54194
2.53767
2.52915
2.51791
2.50241
2.48153
2.44179
2.37976
2.29892
1
1
1
1
1
1
1
1
1
1
1
1
1
1
1
1
1
1.00005
1.78434
2.44871
2.51241
2.52229
2.51856
2.50793
2.49292
2.47419
2.45044
2.41363
2.36306
2.29763
1
1
1
1
1
1
1
1
1
1
1
1
1
1
1
1
1
1
1.17504
2.29015
2.50659
2.50077
2.49506
2.48424
2.46835
2.44785
2.42281
2.38933
2.34729
2.29345
1
1
1
1
1
1
1
1
1
1
1
1
1
1
1
1
1
1
1.00732
2.06873
2.45185
2.47168
2.46657
2.45822
2.44453
2.42492
2.39972
2.36848
2.33109
2.28534
1
1
1
1
1
1
1
1
1
1
1
1
1
1
1
1
1
1
0.999986
1.52889
2.33248
2.45381
2.44211
2.43461
2.42303
2.40553
2.38193
2.35231
2.31715
2.27615
1
1
1
1
1
1
1
1
1
1
1
1
1
1
1
1
1
1
0.999995
1.06855
2.14017
2.42304
2.40953
2.40754
2.39892
2.38429
2.36358
2.33655
2.30384
2.2671
1
1
1
1
1
1
1
1
1
1
1
1
1
1
1
1
1
1
0.999999
1.00086
1.68048
2.31283
2.39201
2.38507
2.37593
2.36256
2.34406
2.32051
2.29169
2.25906
1
1
1
1
1
1
1
1
1
1
1
1
1
1
1
1
1
1
1
1
1.1279
2.12572
2.37349
2.36476
2.35526
2.3411
2.32325
2.30198
2.27675
2.24761
1
1
1
1
1
1
1
1
1
1
1
1
1
1
1
1
1
1
1
1
1.00324
1.69853
2.27121
2.34448
2.33212
2.31816
2.30151
2.2824
2.26016
2.23407
1
1
1
1
1
1
1
1
1
1
1
1
1
1
1
1
1
1
1
1
1.00001
1.14504
2.07567
2.3238
2.3105
2.29884
2.28324
2.26488
2.24373
2.21961
1
1
1
1
1
1
1
1
1
1
1
1
1
1
1
1
1
1
1
1
1
1.00427
1.59579
2.19797
2.28978
2.27537
2.26146
2.24499
2.22583
2.20411
1
1
1
1
1
1
1
1
1
1
1
1
1
1
1
1
1
1
1
1
1
1.00001
1.10339
1.98476
2.27136
2.2556
2.24288
2.22712
2.20947
2.18979
1
1
1
1
1
1
1
1
1
1
1
1
1
1
1
1
1
1
1
1
1
1
1.00225
1.44543
2.11124
2.23509
2.21997
2.2067
2.19165
2.17439
1
1
1
1
1
1
1
1
1
1
1
1
1
1
1
1
1
1
1
1
1
1
1.00001
1.05106
1.80456
2.19551
2.20074
2.1913
2.17877
2.16291
1
1
1
1
1
1
1
1
1
1
1
1
1
1
1
1
1
1
1
1
1
1
1
1.0007
1.25303
1.99539
2.18381
2.16978
2.159
2.1457
1
1
1
1
1
1
1
1
1
1
1
1
1
1
1
1
1
1
1
1
1
1
1
1
1.01444
1.54165
2.06303
2.15488
2.13888
2.12618
1
1
1
1
1
1
1
1
1
1
1
1
1
1
1
1
1
1
1
1
1
1
1
1
1.00012
1.08845
1.7869
2.10536
2.12633
2.11413
1
1
1
1
1
1
1
1
1
1
1
1
1
1
1
1
1
1
1
1
1
1
1
1
1
1.00199
1.26509
1.90902
2.10348
2.09767
1
1
1
1
1
1
1
1
1
1
1
1
1
1
1
1
1
1
1
1
1
1
1
1
1
1.00001
1.01661
1.46206
1.97336
2.08095
1
1
1
1
1
1
1
1
1
1
1
1
1
1
1
1
1
1
1
1
1
1
1
1
1
1
1.00017
1.06395
1.64048
1.99827
1
1
1
1
1
1
1
1
1
1
1
1
1
1
1
1
1
1
1
1
1
1
1
1
1
1
1
1.00128
1.15943
1.76275
1
1
1
1
1
1
1
1
1
1
1
1
1
1
1
1
1
1
1
1
1
1
1
1
1
1
1
1.00001
1.00635
1.28729
1
1
1
1
1
1
1
1
1
1
1
1
1
1
1
1
1
1
1
1
1
1
1
1
1
1
1
1
1.00005
1.02155
1
1
1
1
1
1
1
1
1
1
1
1
1
1
1
1
1
1
1
1
1
1
1
1
1
1
1
1
1
1.00027
1
1
1
1
1
1
1
1
1
1
1
1
1
1
1
1
1
1
1
1
1
1
1
1
1
1
1
1
1
1
1
1
1
1
1
1
1
1
1
1
1
1
1
1
1
1
1
1
1
1
1
1
1
1
1
1
1
1
1
1
1
1
1
1
1
1
1
1
1
1
1
1
1
1
1
1
1
1
1
1
1
1
1
1
1
1
1
1
1
1
1
1
1
1
1
1
1
1
1
1
1
1
1
1
1
1
1
1
1
1
1
1
1
1
1
1
1
1
1
1
1
1
1
1
1
1
1
1
1
1
1
1
1
1
1
1
1
1
1
1
1
1
1
1
1
1
1
1
1
1
1
1
1
1
1
1
1
1
1
1
1
1
1
1
1
1
1
1
1
1
1
1
1
1
1
1
1
1
1
1
1
1
1
1
1
1
1
1
1
1
1
1
1
1
1
1
1
1
1
1
1
1
1
1
1
1
1
1
1
1
1
1
1
1
1
1
1
1
1
1
1
1
1
1
1
1
1
1
1
1
1
1
1
1
1
1
1
1
1
1
1
1
1
1
1
1
1
1
1
1
1
1
1
1
1
1
1
1
1
1
1
1
1
1
1
1
1
1
1
1
1
1
1
1
1
1
1
1
1
1
1
1
1
1
1
1
1
1
1
1
1
1
1
1
1
1
1
1
1
1
1.6697
1.11385
0.803692
0.919215
1.05475
1.1359
1.23235
1.39128
1.56471
1.58975
1.58073
1.56756
1.56677
1.61033
1.70286
1.76444
1.76795
1.76001
1.73339
1.71243
1.7113
1.71503
1.72543
1.72652
1.71874
1.71337
1.71346
1.72105
1.73764
1.74685
1.74492
1.73301
1.71753
1.70947
1.70884
1.71103
1.71672
1.72072
1.71949
1.71264
1.70487
1.7002
1.69944
1.70007
1.70151
1.70188
1.69875
1.69208
1.68649
1.68294
1.67983
1.67603
1.68149
1.74419
1.94331
2.23135
2.47008
2.64886
2.68099
2.65924
2.60803
2.57013
2.54914
2.53136
2.5121
2.49888
2.49008
2.48537
2.48136
2.47441
2.4647
2.45224
2.43753
2.42029
2.40351
2.3922
2.38273
2.37393
2.36692
2.36079
2.35237
2.34203
2.32984
2.31366
2.29354
2.27329
2.25505
2.23867
2.2233
2.20789
2.19171
2.1757
2.16245
2.15329
2.14787
2.14532
2.14525
2.14561
2.14597
2.14538
2.13999
2.12267
2.10045
2.0902
2.08612
2.08362
2.08271
2.08352
2.08406
2.08163
2.07539
2.06279
2.03856
2.01586
2.00585
1.99944
1.99339
1.98811
1.98821
1.97974
1.90363
1.63977
1.41549
1.2928
1.24088
1.19866
1.19936
1.22871
1.27245
1.28682
1.29729
1.3216
1.36331
1.42204
1.49432
1.54939
1.58597
1.61043
1.62052
1.62375
1.63259
1.64517
1.66284
1.67379
1.67367
1.67506
1.6768
1.68057
1.68955
1.69451
1.69623
1.69619
1.69491
1.69345
1.68995
1.68718
1.68592
1.68571
1.68673
1.68888
1.68947
1.68817
1.68306
1.67791
1.67637
1.67617
1.67709
1.67794
1.67541
1.66909
1.66228
1.67428
1.7447
1.9032
2.02301
2.09365
2.22008
2.35243
2.44691
2.50186
2.52788
2.52249
2.51162
2.49892
2.48308
2.46925
2.45903
2.45241
2.44788
2.44297
2.43694
2.42898
2.41891
2.40558
2.38969
2.37623
2.3659
2.35602
2.34676
2.33807
2.3287
2.31874
2.30708
2.29278
2.2763
2.2598
2.24455
2.2305
2.21712
2.20347
2.18882
2.17326
2.15822
2.14619
2.13888
2.13548
2.13434
2.13434
2.13474
2.13458
2.13102
2.11947
2.10154
2.08696
2.08047
2.07747
2.07581
2.0754
2.07458
2.07145
2.06508
2.05414
2.03647
2.01548
2.00173
1.99489
1.98957
1.98467
1.98245
1.972
2.00693
1.80239
1.65106
1.52925
1.44467
1.35483
1.25004
1.2193
1.22252
1.21857
1.20963
1.22492
1.26572
1.28808
1.30889
1.34081
1.38082
1.42616
1.47167
1.50341
1.52728
1.55043
1.56799
1.57961
1.5932
1.60901
1.61855
1.62327
1.62127
1.61493
1.61295
1.61595
1.62569
1.63571
1.64019
1.63987
1.63357
1.62577
1.62445
1.62775
1.63512
1.6398
1.64071
1.63832
1.6311
1.62681
1.6269
1.62975
1.63099
1.63444
1.65503
1.76035
1.90317
2.0167
2.02553
2.009
2.00525
2.0466
2.15884
2.29142
2.39216
2.4411
2.44243
2.43687
2.4256
2.41038
2.39704
2.38689
2.38123
2.37723
2.37472
2.37203
2.36676
2.35843
2.34737
2.33507
2.32342
2.31288
2.30232
2.2915
2.28144
2.27142
2.26004
2.24628
2.23082
2.21725
2.20536
2.19419
2.18399
2.17455
2.1651
2.15481
2.14297
2.12949
2.11714
2.1106
2.10851
2.10764
2.10666
2.10409
2.09918
2.09352
2.08591
2.07555
2.06422
2.05722
2.05389
2.05112
2.0479
2.04309
2.03547
2.02524
2.01451
2.00256
1.9891
1.97882
1.97332
1.96842
1.96474
1.95415
2.08274
1.92568
1.77357
1.65421
1.58295
1.52153
1.4387
1.33602
1.31249
1.30844
1.2923
1.27453
1.25814
1.24019
1.23058
1.23474
1.24841
1.28577
1.34623
1.39253
1.41927
1.43843
1.45731
1.47554
1.49628
1.52208
1.54783
1.55948
1.5598
1.55407
1.54974
1.55273
1.56183
1.57124
1.57498
1.57504
1.57176
1.56724
1.56545
1.56626
1.57147
1.5772
1.57966
1.5798
1.5771
1.5732
1.57107
1.57159
1.57948
1.60752
1.72375
1.91622
1.9781
1.99284
1.98603
1.97041
1.95806
1.94396
1.95956
2.03333
2.16885
2.28212
2.33026
2.35334
2.36702
2.35981
2.3476
2.3351
2.32311
2.3139
2.30767
2.30394
2.29971
2.29366
2.28647
2.2773
2.26653
2.25573
2.245
2.23459
2.2252
2.21622
2.20629
2.19459
2.18173
2.16913
2.15742
2.14681
2.13766
2.12994
2.123
2.11618
2.10878
2.09971
2.0878
2.07546
2.06874
2.06622
2.06379
2.0595
2.05534
2.05318
2.0503
2.04508
2.0365
2.025
2.01577
2.01014
2.00473
1.99776
1.98927
1.98212
1.97697
1.97181
1.96452
1.95337
1.94326
1.93781
1.93344
1.92381
2.13525
2.00354
1.88504
1.77799
1.6725
1.60648
1.56177
1.50325
1.41853
1.37722
1.36053
1.34197
1.32165
1.29395
1.25493
1.23216
1.23384
1.24648
1.27054
1.30041
1.32586
1.34313
1.3637
1.39403
1.42169
1.45141
1.48446
1.50157
1.50764
1.50831
1.5068
1.50934
1.51928
1.52891
1.53263
1.5321
1.52959
1.52946
1.52941
1.52798
1.52672
1.52623
1.52664
1.52873
1.53006
1.53166
1.53522
1.54311
1.58213
1.69908
1.89287
1.96878
1.98123
1.97802
1.96965
1.95506
1.94246
1.93077
1.92127
1.91928
1.95252
2.05072
2.1696
2.25065
2.30036
2.3044
2.31064
2.30497
2.29371
2.28205
2.26754
2.25645
2.24863
2.24159
2.23636
2.22996
2.22132
2.21038
2.19905
2.18832
2.17803
2.16784
2.15762
2.14746
2.13724
2.12625
2.11445
2.10326
2.09443
2.08777
2.08212
2.07708
2.07253
2.06753
2.06026
2.04823
2.03295
2.02206
2.01663
2.01391
2.01291
2.01213
2.01068
2.00695
2.00093
1.99046
1.97487
1.96167
1.95262
1.94511
1.94005
1.93696
1.93473
1.93202
1.92841
1.9224
1.91193
1.90038
1.89406
1.88512
2.18169
2.06934
1.9554
1.86962
1.78825
1.68862
1.62507
1.58982
1.53581
1.47047
1.43106
1.41015
1.39144
1.36945
1.33742
1.29656
1.26911
1.26391
1.26628
1.27137
1.2735
1.27813
1.28588
1.3051
1.33643
1.36714
1.40195
1.43667
1.46467
1.47782
1.48505
1.48894
1.49252
1.49821
1.50219
1.50618
1.51095
1.51404
1.51362
1.51071
1.50297
1.49753
1.49738
1.49949
1.50511
1.51287
1.52522
1.59034
1.73512
1.87113
1.97533
1.97832
1.97524
1.96732
1.95717
1.94437
1.93309
1.92428
1.91788
1.91215
1.9039
1.91109
1.96192
2.06108
2.17609
2.23142
2.26782
2.27404
2.27165
2.26401
2.24923
2.23527
2.22417
2.21511
2.20812
2.20047
2.19139
2.18049
2.16879
2.15764
2.14712
2.13692
2.12746
2.11903
2.11069
2.1013
2.08995
2.07699
2.06677
2.06007
2.05412
2.04909
2.04524
2.0416
2.03676
2.02806
2.01169
1.99296
1.98434
1.9811
1.97862
1.97722
1.97594
1.97206
1.9661
1.95648
1.93904
1.91961
1.90888
1.90338
1.89973
1.89799
1.89778
1.8965
1.89424
1.89097
1.88411
1.87093
1.8592
1.84694
2.2078
2.11856
2.01969
1.92917
1.85923
1.77871
1.70299
1.6509
1.60574
1.55517
1.51012
1.47204
1.43882
1.41815
1.39896
1.37371
1.34379
1.31616
1.29029
1.27438
1.27219
1.27794
1.28782
1.29087
1.29083
1.2926
1.30568
1.33712
1.37824
1.41845
1.45763
1.47696
1.47971
1.4762
1.47698
1.48178
1.49252
1.5007
1.50189
1.50056
1.49526
1.48679
1.48443
1.48576
1.49329
1.51155
1.58878
1.78767
1.90873
1.96602
1.98208
1.98008
1.96978
1.95637
1.9476
1.94041
1.93359
1.9274
1.92105
1.91337
1.90145
1.88873
1.8845
1.89979
1.96022
2.05825
2.15918
2.21143
2.23958
2.23887
2.22899
2.22046
2.21219
2.20385
2.19578
2.18544
2.17586
2.16488
2.15045
2.1348
2.12396
2.11616
2.10942
2.10299
2.09632
2.08924
2.08061
2.06787
2.05134
2.03934
2.03347
2.0289
2.02509
2.02182
2.01819
2.01195
1.9992
1.97978
1.96774
1.96206
1.95699
1.9523
1.94795
1.94259
1.9357
1.92583
1.90955
1.89025
1.88074
1.87667
1.8734
1.8717
1.87194
1.87247
1.87183
1.8697
1.86449
1.84977
1.82893
1.81239
2.22505
2.15011
2.06539
1.98779
1.91744
1.84135
1.7739
1.71672
1.66377
1.6208
1.5851
1.54655
1.49985
1.46329
1.44478
1.43024
1.41182
1.39067
1.36183
1.32367
1.30414
1.30221
1.30054
1.29672
1.29176
1.28771
1.28029
1.28269
1.2945
1.32255
1.36484
1.40756
1.4464
1.46228
1.4628
1.46452
1.47235
1.48408
1.49193
1.49209
1.48971
1.48453
1.47977
1.48146
1.50749
1.59443
1.79216
1.93882
1.97967
1.98808
1.98359
1.97127
1.95986
1.94796
1.93992
1.93501
1.93226
1.92501
1.91667
1.90794
1.89586
1.88137
1.87287
1.86768
1.86255
1.88107
1.94135
2.04146
2.12892
2.17771
2.18635
2.19214
2.18936
2.19148
2.18615
2.17609
2.16676
2.15485
2.13943
2.12069
2.10663
2.09914
2.0935
2.08977
2.08536
2.07997
2.07336
2.062
2.04333
2.02805
2.02087
2.01567
2.01092
2.00665
2.00269
1.99806
1.99
1.974
1.9575
1.94902
1.94265
1.93618
1.92914
1.92123
1.91203
1.90126
1.8885
1.87398
1.86382
1.8604
1.85933
1.86024
1.86103
1.85958
1.85741
1.85402
1.84749
1.83331
1.81162
1.79299
2.23256
2.1694
2.09877
2.02815
1.96249
1.89509
1.83532
1.78347
1.72185
1.67035
1.63933
1.60895
1.57398
1.5377
1.49258
1.45738
1.44692
1.43815
1.42225
1.39863
1.36507
1.33707
1.32014
1.30791
1.30409
1.30248
1.29946
1.29563
1.28848
1.28427
1.28841
1.30573
1.34267
1.38375
1.42372
1.44782
1.4551
1.46035
1.46564
1.47356
1.47893
1.47713
1.47992
1.51668
1.66599
1.81024
1.94896
1.98779
1.99532
1.99125
1.982
1.96678
1.95315
1.94093
1.93225
1.9273
1.92251
1.91474
1.90549
1.89619
1.88553
1.87186
1.86015
1.85309
1.8461
1.83927
1.83257
1.85216
1.90778
1.99577
2.07083
2.12965
2.14324
2.15343
2.15909
2.16103
2.15416
2.14301
2.12733
2.10882
2.09132
2.08203
2.07723
2.07369
2.07043
2.06673
2.06223
2.05386
2.03774
2.01951
2.01033
2.00543
2.00109
1.99682
1.99237
1.98709
1.97912
1.96435
1.94518
1.9348
1.92796
1.92107
1.91309
1.90448
1.89515
1.88543
1.87603
1.86634
1.85623
1.85019
1.84883
1.84649
1.84309
1.84011
1.83716
1.8337
1.82888
1.8204
1.80701
1.78697
2.23366
2.17871
2.11797
2.05896
2.00081
1.93696
1.88001
1.83271
1.78076
1.73308
1.69053
1.64578
1.6149
1.59053
1.55855
1.5248
1.48731
1.46232
1.45327
1.443
1.42433
1.39819
1.36917
1.34405
1.33267
1.32972
1.32308
1.31358
1.30386
1.28983
1.28237
1.28307
1.28838
1.3023
1.33102
1.36437
1.39739
1.41934
1.42953
1.43838
1.45118
1.46277
1.50352
1.68204
1.86895
1.95539
1.99195
1.99202
1.98773
1.98047
1.96961
1.9615
1.94982
1.93649
1.92342
1.91328
1.90576
1.89789
1.89066
1.88283
1.87274
1.85955
1.84423
1.83417
1.82707
1.81975
1.81248
1.80453
1.79587
1.81163
1.85894
1.93864
2.02026
2.07244
2.11065
2.11733
2.12365
2.12283
2.11285
2.09682
2.07603
2.06202
2.05653
2.05245
2.04948
2.04694
2.04391
2.03842
2.02794
2.01217
1.99969
1.9946
1.99078
1.98678
1.98205
1.97622
1.96802
1.95382
1.93287
1.91715
1.908
1.90046
1.89401
1.88661
1.87955
1.87351
1.86813
1.86204
1.85266
1.83921
1.8285
1.82577
1.82398
1.82173
1.81868
1.81477
1.81005
1.80482
1.79979
1.78745
2.23157
2.18246
2.13
2.07923
2.02595
1.96915
1.9199
1.87082
1.8192
1.77659
1.73913
1.69883
1.65635
1.61683
1.59293
1.57287
1.54682
1.51731
1.48113
1.4593
1.45199
1.4399
1.42212
1.39947
1.37374
1.35586
1.34379
1.33233
1.32563
1.31842
1.3092
1.29626
1.28926
1.28972
1.29089
1.29589
1.31023
1.33375
1.36436
1.38733
1.41447
1.46922
1.6489
1.87535
1.94524
1.98407
1.99129
1.98576
1.97925
1.97087
1.96496
1.95929
1.9459
1.92801
1.90903
1.89547
1.88697
1.87937
1.87314
1.86772
1.85746
1.84327
1.82609
1.81134
1.80223
1.79565
1.79133
1.78563
1.77759
1.76848
1.7582
1.76813
1.81018
1.88035
1.96316
2.01896
2.06062
2.0764
2.07949
2.07603
2.06208
2.04625
2.0334
2.0252
2.02262
2.02007
2.01716
2.01412
2.00927
2.00081
1.98892
1.97947
1.97493
1.9705
1.96529
1.95901
1.95128
1.93991
1.92209
1.9017
1.88806
1.87873
1.87037
1.86469
1.86179
1.85915
1.85619
1.85284
1.84607
1.83035
1.81275
1.80572
1.80354
1.8017
1.79936
1.7961
1.79284
1.79085
1.78905
1.78225
2.22737
2.18372
2.13922
2.09304
2.04335
1.99526
1.94918
1.90269
1.85549
1.81392
1.77312
1.73558
1.70128
1.66776
1.62883
1.59535
1.57981
1.56184
1.53478
1.50238
1.47327
1.46066
1.45259
1.44056
1.42474
1.40268
1.37769
1.35906
1.35185
1.34703
1.3373
1.32433
1.31241
1.29917
1.28827
1.2878
1.28927
1.29322
1.30368
1.32019
1.38989
1.58466
1.81978
1.92082
1.92671
1.94225
1.94302
1.93587
1.94049
1.95082
1.95096
1.94509
1.93126
1.91485
1.89531
1.87771
1.86738
1.8607
1.85637
1.85063
1.84003
1.82641
1.81008
1.79204
1.77867
1.77073
1.76565
1.76442
1.76144
1.75254
1.74462
1.73211
1.71389
1.71851
1.75419
1.82371
1.90277
1.96342
2.00821
2.02818
2.02786
2.02459
2.01481
2.00401
1.99842
1.99356
1.9879
1.98474
1.98207
1.97781
1.97143
1.9622
1.95441
1.94904
1.94289
1.93579
1.92805
1.91915
1.90719
1.8897
1.86989
1.85676
1.84858
1.84255
1.84116
1.84069
1.83863
1.83637
1.83216
1.82192
1.80215
1.78718
1.78316
1.7809
1.77858
1.77706
1.77682
1.77692
1.77603
1.77112
2.22249
2.18304
2.14358
2.10059
2.05591
2.01458
1.97159
1.92603
1.88387
1.84587
1.80786
1.76688
1.73191
1.70428
1.67222
1.63831
1.60548
1.58241
1.56646
1.54763
1.52436
1.49409
1.46616
1.45904
1.45439
1.44152
1.42396
1.40058
1.37854
1.36611
1.35563
1.34675
1.33855
1.32919
1.31665
1.30004
1.28942
1.29022
1.29535
1.35331
1.55629
1.73476
1.84441
1.85996
1.85227
1.85077
1.85453
1.86523
1.88012
1.89599
1.90654
1.90573
1.90204
1.89187
1.87775
1.862
1.84915
1.84232
1.83947
1.83199
1.82153
1.80955
1.79574
1.77863
1.76033
1.74809
1.74209
1.73886
1.74018
1.73681
1.72833
1.71792
1.70448
1.68342
1.66817
1.67426
1.70378
1.76692
1.84227
1.91502
1.95487
1.97538
1.98087
1.97762
1.97315
1.96987
1.96398
1.95909
1.95501
1.9504
1.9453
1.9375
1.92817
1.92159
1.91598
1.90989
1.90341
1.89651
1.88819
1.87573
1.856
1.83615
1.82627
1.82043
1.81626
1.81424
1.81342
1.81231
1.81049
1.80588
1.79478
1.77546
1.76248
1.75959
1.75829
1.75735
1.75783
1.75881
1.75857
1.75418
2.21487
2.1803
2.14326
2.10417
2.06648
2.02781
1.98697
1.94546
1.90878
1.87041
1.83314
1.79733
1.76619
1.73199
1.69903
1.67211
1.64595
1.6171
1.58669
1.571
1.55814
1.53573
1.50822
1.48348
1.46794
1.45897
1.45124
1.43927
1.42231
1.40167
1.37895
1.3667
1.36136
1.35421
1.34361
1.32738
1.30805
1.30885
1.35797
1.55442
1.74328
1.80895
1.81899
1.80981
1.79195
1.7782
1.77149
1.7724
1.77876
1.79142
1.81514
1.83418
1.84551
1.84872
1.84488
1.83511
1.82516
1.81953
1.81786
1.81116
1.80171
1.79306
1.78149
1.76581
1.74695
1.72964
1.72046
1.71632
1.71547
1.71667
1.71
1.70018
1.68967
1.67436
1.65307
1.63993
1.63256
1.63712
1.65979
1.7165
1.79118
1.86012
1.89977
1.92063
1.92879
1.93275
1.93431
1.93332
1.93121
1.92824
1.92265
1.91235
1.89789
1.88793
1.88344
1.88024
1.87718
1.87314
1.8677
1.85921
1.84454
1.82249
1.80329
1.79448
1.79025
1.78817
1.78601
1.78402
1.78283
1.78157
1.7778
1.76802
1.75129
1.74017
1.73765
1.73617
1.73549
1.73562
1.73568
1.73119
2.20513
2.1749
2.14094
2.10562
2.07194
2.0358
1.9967
1.96193
1.9269
1.89149
1.85379
1.82314
1.79266
1.76136
1.72774
1.69879
1.67521
1.65035
1.62366
1.59797
1.57616
1.55725
1.54033
1.52241
1.5039
1.48109
1.46032
1.45538
1.44939
1.43615
1.41715
1.39596
1.38199
1.37173
1.35996
1.34496
1.3467
1.40346
1.58407
1.77367
1.82977
1.82902
1.82085
1.80142
1.78161
1.76684
1.75199
1.73749
1.72484
1.71591
1.7176
1.72592
1.73802
1.75556
1.76519
1.77367
1.78157
1.77973
1.77501
1.77353
1.77534
1.77069
1.7612
1.74731
1.73123
1.71575
1.70388
1.6967
1.69288
1.69203
1.68725
1.67984
1.67146
1.66054
1.64327
1.62225
1.61271
1.60791
1.60364
1.6062
1.6228
1.66574
1.73234
1.78976
1.83509
1.85959
1.88024
1.88725
1.8947
1.90144
1.89938
1.89108
1.87726
1.86202
1.85338
1.8489
1.84673
1.84613
1.84285
1.83761
1.82892
1.81289
1.78998
1.77205
1.76406
1.76046
1.75914
1.75734
1.75547
1.75484
1.75432
1.7522
1.74482
1.72945
1.71676
1.71262
1.71059
1.71053
1.71119
1.70656
2.19352
2.16576
2.13531
2.10467
2.07289
2.03849
2.00492
1.97452
1.94177
1.9065
1.87361
1.84518
1.81406
1.78309
1.75321
1.72842
1.70048
1.67276
1.6492
1.62866
1.60565
1.58063
1.55725
1.54583
1.533
1.51306
1.48911
1.47253
1.46406
1.45359
1.44125
1.42719
1.41205
1.39423
1.377
1.38107
1.45105
1.64904
1.80377
1.85919
1.85184
1.83557
1.81945
1.80434
1.78784
1.76842
1.74857
1.72959
1.71548
1.70519
1.69502
1.68524
1.67977
1.67796
1.67564
1.67892
1.68543
1.69338
1.70334
1.71387
1.72232
1.72366
1.7238
1.71793
1.70903
1.69781
1.68873
1.67964
1.6714
1.66683
1.66312
1.65894
1.65273
1.64231
1.62828
1.60983
1.59595
1.58927
1.58443
1.5803
1.57589
1.573
1.58384
1.60873
1.65418
1.71415
1.76896
1.80185
1.8287
1.85071
1.85672
1.85816
1.85573
1.8461
1.83256
1.8237
1.8193
1.81614
1.81337
1.81011
1.80476
1.79505
1.78085
1.76228
1.74493
1.73628
1.73286
1.73158
1.73002
1.72986
1.73026
1.73055
1.72888
1.7208
1.70576
1.69142
1.68393
1.67947
1.67686
1.6729
2.18046
2.15463
2.12759
2.10109
2.07214
2.03989
2.01094
1.98245
1.95213
1.91816
1.89036
1.86132
1.83221
1.80003
1.77534
1.75059
1.7241
1.69652
1.67124
1.65084
1.62893
1.60813
1.58613
1.56826
1.54995
1.53275
1.51694
1.5028
1.48846
1.47216
1.45307
1.44147
1.43171
1.41528
1.419
1.49191
1.72093
1.86681
1.88935
1.87759
1.86043
1.84324
1.83053
1.81644
1.79881
1.77861
1.75725
1.73515
1.7167
1.7021
1.68731
1.6767
1.6701
1.66286
1.65668
1.64616
1.63003
1.61415
1.61364
1.61888
1.62783
1.63903
1.65424
1.66142
1.66252
1.66162
1.6592
1.65443
1.64424
1.63798
1.63641
1.6365
1.63114
1.62164
1.61106
1.59773
1.58199
1.56977
1.56447
1.56021
1.5569
1.55261
1.54693
1.53939
1.53463
1.54796
1.58456
1.64636
1.70412
1.75537
1.78158
1.80436
1.81197
1.81174
1.80942
1.80269
1.79481
1.7903
1.78656
1.78265
1.77706
1.77101
1.76301
1.75169
1.73682
1.72065
1.71157
1.70765
1.70592
1.70621
1.70624
1.70649
1.70625
1.70277
1.69315
1.67836
1.66327
1.6523
1.64704
1.64231
2.16794
2.14396
2.11964
2.09536
2.06889
2.0405
2.01381
1.98655
1.95685
1.9284
1.9028
1.875
1.84471
1.8155
1.79377
1.76811
1.74263
1.7149
1.69465
1.67275
1.64978
1.62653
1.60962
1.59377
1.57437
1.55322
1.53472
1.52447
1.5105
1.4946
1.47515
1.4572
1.44301
1.45063
1.5367
1.74851
1.92486
1.9321
1.91636
1.8883
1.86597
1.85058
1.83737
1.82267
1.8064
1.78902
1.76958
1.74653
1.72279
1.70459
1.69162
1.68051
1.66977
1.65905
1.64769
1.63592
1.62316
1.60548
1.58585
1.57362
1.56597
1.56581
1.56913
1.57802
1.58489
1.58824
1.58924
1.59247
1.59864
1.59972
1.59852
1.5983
1.60058
1.59904
1.59235
1.58264
1.56604
1.55023
1.54423
1.54127
1.53935
1.5368
1.53061
1.52361
1.51615
1.50296
1.49375
1.50279
1.53119
1.58349
1.6426
1.69764
1.72979
1.74834
1.7655
1.76581
1.76356
1.76184
1.76218
1.76014
1.75631
1.75071
1.74352
1.73531
1.72467
1.71113
1.69579
1.68817
1.68591
1.68423
1.6827
1.68151
1.68005
1.6774
1.67184
1.66179
1.64986
1.63741
1.6268
1.61797
2.15474
2.13316
2.11077
2.08765
2.06322
2.03895
2.01377
1.98758
1.95933
1.9352
1.91051
1.88476
1.85398
1.82949
1.80695
1.78271
1.75683
1.73213
1.71346
1.69124
1.66986
1.64557
1.62936
1.61227
1.59425
1.57487
1.55726
1.54323
1.52525
1.50879
1.4933
1.47539
1.48512
1.58744
1.79023
1.95308
1.96813
1.95483
1.92636
1.8908
1.87004
1.85575
1.84167
1.82692
1.81194
1.79702
1.77994
1.75891
1.73631
1.71576
1.69882
1.68465
1.67173
1.65946
1.64737
1.63505
1.62102
1.60206
1.57861
1.56374
1.55507
1.54798
1.54057
1.53495
1.52812
1.52126
1.51474
1.51081
1.51478
1.52442
1.53494
1.54526
1.55584
1.55896
1.559
1.55591
1.54442
1.53328
1.52732
1.52368
1.52131
1.51816
1.51369
1.50973
1.50396
1.49417
1.48005
1.46484
1.45862
1.46378
1.48384
1.52044
1.57619
1.62416
1.66867
1.68994
1.70583
1.7193
1.72594
1.73249
1.73509
1.73213
1.72423
1.71665
1.70927
1.69858
1.68488
1.67281
1.66722
1.66413
1.66187
1.66005
1.65724
1.6521
1.64472
1.63799
1.63141
1.62366
1.61561
1.60375
2.14434
2.12448
2.10317
2.08004
2.05701
2.03555
2.0125
1.98683
1.96144
1.93867
1.91474
1.88958
1.86241
1.84108
1.81775
1.79468
1.76758
1.74815
1.72907
1.70775
1.68496
1.66287
1.64852
1.6303
1.61176
1.59035
1.57626
1.56114
1.54312
1.5244
1.50637
1.51933
1.64588
1.84949
1.98702
1.9963
1.98014
1.95337
1.92302
1.8982
1.87929
1.86327
1.84704
1.83065
1.81476
1.7988
1.78165
1.76304
1.74323
1.72316
1.70572
1.69124
1.67779
1.66453
1.65101
1.63647
1.6204
1.60174
1.58018
1.56203
1.54996
1.53827
1.52787
1.51927
1.5125
1.50716
1.49718
1.47712
1.46082
1.45716
1.45899
1.46472
1.4739
1.48544
1.50037
1.50716
1.50888
1.50764
1.49956
1.49152
1.48964
1.48953
1.49291
1.49374
1.49022
1.48251
1.47122
1.45648
1.44335
1.4377
1.43381
1.43213
1.44137
1.46428
1.50089
1.54921
1.59149
1.62332
1.64895
1.6775
1.69701
1.70096
1.69845
1.6902
1.68471
1.67954
1.67133
1.65905
1.65026
1.64517
1.64226
1.64035
1.63753
1.63277
1.62483
1.61459
1.60803
1.60459
1.60122
1.59277
2.12972
2.11209
2.09285
2.07155
2.0505
2.02988
2.00901
1.98549
1.96333
1.94026
1.91735
1.89231
1.87067
1.84915
1.82691
1.804
1.77854
1.76157
1.74141
1.72148
1.69738
1.6791
1.66409
1.64555
1.6267
1.60619
1.59173
1.57362
1.55746
1.54167
1.56068
1.69775
1.91209
2.01969
2.01758
1.99998
1.97607
1.95399
1.93372
1.91187
1.88761
1.8662
1.84778
1.83017
1.81317
1.79708
1.78206
1.76722
1.75066
1.73123
1.71081
1.69356
1.67948
1.66648
1.65373
1.64053
1.62557
1.60769
1.58592
1.56458
1.54874
1.53577
1.52417
1.51476
1.50573
1.49625
1.48626
1.47195
1.45286
1.43917
1.43014
1.42373
1.42068
1.42123
1.42347
1.4303
1.44109
1.44623
1.4481
1.4491
1.45125
1.45336
1.45589
1.45824
1.46004
1.46019
1.45673
1.44764
1.43562
1.42487
1.41824
1.41456
1.41144
1.40856
1.40522
1.41339
1.43411
1.47269
1.51882
1.562
1.60009
1.63731
1.65797
1.65726
1.65378
1.64852
1.64472
1.64027
1.63419
1.62932
1.62566
1.62235
1.61934
1.61592
1.61055
1.60184
1.59138
1.5838
1.5814
1.57637
2.11321
2.09812
2.08134
2.06354
2.04441
2.02424
2.0035
1.98358
1.96308
1.94113
1.91748
1.89499
1.87581
1.85359
1.83378
1.81045
1.78891
1.77087
1.75142
1.73173
1.70763
1.69352
1.67669
1.6585
1.63768
1.62019
1.60349
1.58704
1.57365
1.60683
1.76995
1.96707
2.04309
2.04048
2.02553
2.00473
1.98412
1.96426
1.94203
1.91617
1.89011
1.8677
1.84805
1.82976
1.81263
1.79668
1.7822
1.768
1.75215
1.73358
1.71364
1.69486
1.6788
1.66435
1.65046
1.63711
1.62374
1.60856
1.59066
1.5725
1.55718
1.54362
1.53069
1.51748
1.50405
1.49137
1.48007
1.4679
1.45014
1.4296
1.41665
1.40942
1.40388
1.39868
1.3939
1.38984
1.38666
1.38327
1.38267
1.38338
1.38678
1.39494
1.40426
1.41572
1.42022
1.42226
1.42403
1.42298
1.41725
1.40968
1.40576
1.40373
1.4
1.39317
1.38678
1.38067
1.37443
1.37376
1.38233
1.40834
1.44799
1.49645
1.54085
1.57946
1.60431
1.60793
1.60963
1.61246
1.61137
1.61096
1.60737
1.60101
1.59915
1.59878
1.59598
1.5898
1.58112
1.57134
1.56409
1.55674
2.10108
2.08688
2.07141
2.05522
2.03792
2.01898
1.99933
1.98032
1.96029
1.9399
1.91705
1.89763
1.87718
1.85716
1.83681
1.81711
1.79669
1.77693
1.76111
1.73917
1.71822
1.70471
1.687
1.66958
1.64828
1.63045
1.61428
1.60642
1.65347
1.8565
2.03346
2.08371
2.06814
2.04535
2.0262
2.01032
1.99059
1.96688
1.93994
1.91242
1.88823
1.86788
1.84905
1.83106
1.81404
1.79773
1.78126
1.76475
1.74836
1.73172
1.71453
1.69753
1.68118
1.66576
1.65058
1.63511
1.61933
1.603
1.58603
1.56855
1.55295
1.54148
1.53142
1.52055
1.50872
1.4965
1.48434
1.47141
1.45531
1.43247
1.41335
1.40321
1.39458
1.3859
1.3786
1.37161
1.3649
1.36221
1.36026
1.35114
1.33836
1.33662
1.33928
1.34774
1.35899
1.36467
1.37121
1.37642
1.37737
1.37961
1.38153
1.38097
1.37813
1.37382
1.36932
1.36527
1.36035
1.35379
1.34465
1.33771
1.34044
1.35358
1.38314
1.42403
1.4712
1.51135
1.54116
1.55533
1.5669
1.58043
1.58327
1.57995
1.57358
1.57177
1.57266
1.57227
1.56859
1.56051
1.55178
1.54155
2.08513
2.07247
2.05894
2.04421
2.02807
2.0105
1.99299
1.97449
1.9557
1.93518
1.91596
1.89688
1.87742
1.85822
1.83882
1.8222
1.80179
1.7821
1.76726
1.7457
1.72726
1.71246
1.69652
1.678
1.65616
1.63938
1.63588
1.70201
1.91624
2.10691
2.12417
2.1017
2.06637
2.04153
2.02122
2.00495
1.98555
1.96272
1.93831
1.91422
1.89157
1.87075
1.85149
1.83281
1.8142
1.79557
1.77688
1.75859
1.74173
1.72686
1.71273
1.69777
1.6816
1.66483
1.64825
1.63216
1.61662
1.60181
1.58709
1.57072
1.55241
1.53585
1.52312
1.51309
1.50412
1.49538
1.48606
1.47554
1.46205
1.44334
1.42263
1.40677
1.39444
1.38335
1.3744
1.36591
1.35727
1.34948
1.34328
1.3381
1.32993
1.3198
1.31271
1.30805
1.30551
1.30565
1.30562
1.30955
1.31972
1.32695
1.33716
1.34759
1.34974
1.34907
1.34328
1.33892
1.33714
1.3339
1.32878
1.32247
1.3176
1.31361
1.31458
1.31995
1.33419
1.36064
1.39614
1.43828
1.47256
1.49987
1.52824
1.54779
1.54754
1.54019
1.53883
1.54142
1.54197
1.54081
1.53733
1.52906
2.06933
2.05568
2.04393
2.031
2.01681
2.00206
1.98538
1.96759
1.94908
1.93121
1.91368
1.89491
1.87714
1.858
1.84168
1.82338
1.80523
1.78639
1.77175
1.75227
1.73351
1.7183
1.70541
1.6843
1.66368
1.66773
1.75457
1.97655
2.15544
2.15446
2.12889
2.09199
2.0628
2.03893
2.01928
2.00012
1.98017
1.95971
1.93891
1.91768
1.89502
1.87162
1.84934
1.82896
1.81022
1.79234
1.77452
1.75648
1.73879
1.7223
1.70717
1.69239
1.67701
1.66089
1.64448
1.62836
1.61299
1.59862
1.58474
1.5696
1.55226
1.53534
1.52175
1.5105
1.50024
1.49022
1.47974
1.46876
1.45666
1.44153
1.42294
1.40808
1.39804
1.38878
1.37925
1.36962
1.35891
1.34728
1.33666
1.3278
1.31964
1.31041
1.30145
1.29537
1.29113
1.28516
1.27478
1.26532
1.26509
1.26769
1.27397
1.28512
1.30077
1.30824
1.30756
1.30528
1.3042
1.30212
1.30047
1.29887
1.29848
1.29874
1.29935
1.29876
1.29401
1.28674
1.28872
1.29822
1.32222
1.35994
1.4029
1.44539
1.48196
1.49512
1.49634
1.50147
1.50688
1.50704
1.50957
1.50998
2.06018
2.04432
2.02936
2.01708
2.0049
1.99178
1.97677
1.95988
1.94279
1.92677
1.9093
1.8925
1.87417
1.85827
1.84131
1.82398
1.80612