/*--------------------------------*- C++ -*----------------------------------*\
  =========                 |
  \\      /  F ield         | OpenFOAM: The Open Source CFD Toolbox
   \\    /   O peration     | Website:  https://openfoam.org
    \\  /    A nd           | Version:  9
     \\/     M anipulation  |
\*---------------------------------------------------------------------------*/
FoamFile
{
    format      ascii;
    class       surfaceScalarField;
    location    "27.6";
    object      phi;
}
// * * * * * * * * * * * * * * * * * * * * * * * * * * * * * * * * * * * * * //

dimensions      [0 3 -1 0 0 0 0];

internalField   nonuniform List<scalar> 
16735
(
-0.0029988
0.00299879
1.41756e-08
-0.00900474
0.00600591
2.64459e-08
-0.0168956
0.00789088
3.22042e-08
-0.0259473
0.00905159
3.51387e-08
-0.0360543
0.010107
3.75732e-08
-0.0466393
0.010585
3.87572e-08
-0.0588015
0.0121621
3.8025e-08
-0.0698482
0.0110466
3.14744e-08
-0.0847186
0.0148704
1.68871e-08
0.0112511
-1.10518e-08
-0.0959697
-0.00294718
0.00594596
-0.00885698
0.0119157
-0.0166103
0.0156442
-0.0254737
0.017915
-0.0353285
0.0199618
-0.0455649
0.0208214
-0.0572758
0.023873
-0.0676678
0.0214386
-0.0818073
0.0290099
0.0212246
-0.0917809
-0.00284614
0.00879211
-0.0085666
0.0176362
-0.0160478
0.0231254
-0.0245382
0.0264054
-0.0338898
0.0293134
-0.0434358
0.0303674
-0.0542358
0.034673
-0.0633316
0.0305344
-0.0760237
0.041702
0.0286975
-0.0834966
-0.00270005
0.0114922
-0.00814369
0.0230798
-0.0152244
0.0302061
-0.0231635
0.0343446
-0.0317638
0.0379137
-0.0402902
0.0388937
-0.0497027
0.0440855
-0.0568791
0.0377109
-0.067422
0.0522448
0.0325465
-0.071271
-0.00251518
0.0140073
-0.00760289
0.0281675
-0.0141637
0.0367669
-0.0213828
0.0415637
-0.0289881
0.0455189
-0.0361837
0.0460894
-0.043704
0.0516058
-0.0483513
0.0423582
-0.0560252
0.0599187
0.0317761
-0.0552548
-0.00229946
0.0163068
-0.0069627
0.0328308
-0.0128942
0.0426984
-0.0192379
0.0479074
-0.0256102
0.0518912
-0.0311869
0.0516661
-0.0362709
0.0566899
-0.0377828
0.0438701
-0.0417552
0.0638911
0.02551
-0.0354891
-0.00206215
0.018369
-0.00624474
0.0370133
-0.0114496
0.0479033
-0.016777
0.0532348
-0.0216848
0.056799
-0.0253802
0.0553614
-0.0274335
0.0587432
-0.0252139
0.0416504
-0.0243499
0.0630272
0.012988
-0.0118279
-0.00181334
0.0201823
-0.00547264
0.0406726
-0.00986714
0.0522978
-0.0140509
0.0574186
-0.0172673
0.0600154
-0.0188432
0.0569374
-0.0172052
0.0571052
-0.0107487
0.0351939
-0.00318684
0.0554653
-0.00711993
0.0169211
-0.00156348
0.0217458
-0.00467069
0.0437799
-0.00818461
0.0558117
-0.0111078
0.0603418
-0.0124048
0.0613124
-0.011637
0.0561696
-0.00551134
0.0509796
0.0057284
0.0239542
0.0210168
0.040177
-0.0379152
0.051812
-0.00132271
0.0230685
-0.00386226
0.0463194
-0.00643774
0.0583872
-0.00798719
0.0618912
-0.00712067
0.0604459
-0.00379798
0.0528469
0.00736082
0.0398208
0.0246239
0.00669108
0.0495577
0.0152432
-0.0818364
0.093479
-0.00110028
0.0241688
-0.00306793
0.0482871
-0.00465664
0.0599759
-0.00471413
0.0619487
-0.00136796
0.0570997
0.00501923
0.0464597
0.0216845
0.0231555
0.045438
-0.0170625
0.0826512
-0.02197
-0.141435
0.14225
-0.000903745
0.0250725
-0.00230336
0.0496867
-0.00286102
0.0605335
-0.0013035
0.0603912
0.00467495
0.0511213
0.0150147
0.0361199
0.0380715
9.86925e-05
0.0690571
-0.048048
0.120554
-0.0734667
-0.217882
0.197001
-0.00073838
0.0258109
-0.00157714
0.0505254
-0.00105079
0.0600072
0.00235164
0.0569888
0.0112929
0.04218
0.0264076
0.0210053
0.0568545
-0.0303482
0.0968436
-0.0880372
0.163597
-0.14022
-0.309145
0.254859
-0.000606641
0.0264175
-0.000889058
0.0508078
0.000776858
0.0583413
0.00627329
0.0514923
0.0186786
0.0297747
0.0397568
-7.29518e-05
0.0783937
-0.0689851
0.129855
-0.139498
0.211352
-0.221717
-0.409456
0.311663
-0.000508851
0.0269264
-0.000226314
0.0505253
0.00266189
0.0554531
0.0105526
0.0436016
0.0270686
0.0132587
0.0555727
-0.0285771
0.103057
-0.11647
0.167683
-0.204124
0.261324
-0.315358
-0.511062
0.362931
-0.000435702
0.0273621
0.000429795
0.0496598
0.00470201
0.0511809
0.0153847
0.0329189
0.0368042
-0.00816073
0.0741587
-0.0659316
0.131059
-0.17337
0.208212
-0.281277
0.308864
-0.41601
-0.60713
0.404931
-0.000376284
0.0277384
0.00112079
0.0481627
0.00700044
0.0453012
0.0210297
0.0188896
0.0483382
-0.0354692
0.0954953
-0.113089
0.161866
-0.23974
0.248232
-0.367644
0.349051
-0.516828
-0.693552
0.435473
-0.000318134
0.0280565
0.00189838
0.0459462
0.00969369
0.0375059
0.0277953
0.000787993
0.0621096
-0.0697834
0.119196
-0.170175
0.193739
-0.314283
0.284213
-0.458117
0.378767
-0.611383
-0.76896
0.454175
-0.000244346
0.0283008
0.00282259
0.0428793
0.0129423
0.0273862
0.0359897
-0.0222594
0.0783043
-0.112098
0.144348
-0.236219
0.224108
-0.394042
0.313226
-0.547236
0.397332
-0.695489
-0.833909
0.462281
-0.000134599
0.0284354
0.00395999
0.0387847
0.0169231
0.0144231
0.0458506
-0.0511869
0.0966107
-0.162858
0.169416
-0.309025
0.250494
-0.47512
0.333748
-0.630491
0.40582
-0.767561
-0.890492
0.462403
3.23561e-05
0.0284031
0.00538113
0.0334359
0.0218167
-0.0020125
0.057447
-0.0868172
0.116138
-0.221549
0.192533
-0.385419
0.271198
-0.553785
0.345768
-0.705061
0.407253
-0.829046
-0.946325
0.463086
0.000250722
0.0281524
0.00716057
0.0265261
0.0277809
-0.0226329
0.070569
-0.129605
0.13557
-0.28655
0.212083
-0.461932
0.285508
-0.627211
0.350431
-0.769984
0.405209
-0.883824
-0.994765
0.453649
0.00055836
0.027594
0.00937602
0.0177084
0.0348998
-0.0481567
0.0846716
-0.179377
0.153486
-0.355365
0.227096
-0.535542
0.293611
-0.693725
0.349927
-0.8263
0.397486
-0.931383
-1.03591
0.438635
0.000965607
0.0266284
0.0121048
0.00656924
0.043116
-0.0791679
0.0989313
-0.235192
0.168723
-0.425157
0.237299
-0.604118
0.296376
-0.752802
0.344937
-0.874861
0.38639
-0.972836
-1.07276
0.423237
0.00148383
0.0251446
0.0154135
-0.00736041
0.0521885
-0.115943
0.112412
-0.295416
0.180585
-0.49333
0.242954
-0.666487
0.294693
-0.804541
0.336631
-0.916799
0.373072
-1.00928
-1.10561
0.405925
0.00212699
0.0230176
0.0193318
-0.0245652
0.0617106
-0.158322
0.124268
-0.357973
0.188852
-0.557914
0.244567
-0.722203
0.289509
-0.849483
0.32585
-0.95314
0.35806
-1.04149
-1.13539
0.387833
0.00291668
0.0201009
0.0238209
-0.0454694
0.0711709
-0.205672
0.133906
-0.420708
0.193644
-0.617652
0.242762
-0.771321
0.281622
-0.888343
0.313258
-0.984776
0.341974
-1.0702
-1.16247
0.369061
0.00388585
0.016215
0.0287612
-0.0703447
0.0800224
-0.256933
0.141041
-0.481727
0.195281
-0.671892
0.238159
-0.814198
0.271694
-0.921878
0.299375
-1.01246
0.32509
-1.09592
-1.18716
0.349778
0.00507473
0.0111403
0.0339676
-0.0992376
0.0877662
-0.310732
0.14565
-0.539611
0.194172
-0.720414
0.231323
-0.851349
0.260249
-0.950804
0.284568
-1.03678
0.307657
-1.11901
-1.20964
0.330134
0.00651447
0.00462585
0.0392218
-0.131945
0.0940461
-0.365556
0.147876
-0.593441
0.190747
-0.763285
0.222744
-0.883345
0.247694
-0.975754
0.269107
-1.05819
0.28982
-1.13972
-1.22999
0.310176
0.00820451
-0.00357866
0.0443011
-0.168041
0.098687
-0.419942
0.147947
-0.642701
0.185418
-0.800756
0.212827
-0.910754
0.234335
-0.997262
0.253182
-1.07704
0.271684
-1.15822
-1.24829
0.289977
0.0101001
-0.0136788
0.0489892
-0.206931
0.101663
-0.472616
0.146126
-0.687164
0.178554
-0.833184
0.201902
-0.934103
0.220401
-1.01576
0.236928
-1.09356
0.253325
-1.17462
-1.26454
0.269574
0.0121207
-0.0257994
0.0530832
-0.247893
0.103046
-0.522579
0.142685
-0.726803
0.170474
-0.860973
0.190231
-0.95386
0.206064
-1.03159
0.220444
-1.10794
0.234796
-1.18897
-1.27875
0.249008
0.0141707
-0.0399702
0.0564119
-0.290134
0.102962
-0.569129
0.13788
-0.761721
0.161448
-0.884542
0.178018
-0.97043
0.191446
-1.04502
0.203796
-1.12029
0.216143
-1.20132
-1.29092
0.228312
0.016163
-0.0561332
0.0588576
-0.332829
0.101562
-0.611834
0.131947
-0.792106
0.151696
-0.90429
0.165421
-0.984155
0.176642
-1.05624
0.187037
-1.13069
0.1974
-1.21168
-1.30104
0.207521
0.0180265
-0.0741597
0.0603654
-0.375168
0.0990125
-0.650481
0.125102
-0.818196
0.1414
-0.920588
0.152562
-0.995317
0.161721
-1.0654
0.170208
-1.13917
0.178599
-1.22007
-1.30911
0.186666
0.019703
-0.0938627
0.0609358
-0.4164
0.0954736
-0.685019
0.117532
-0.840254
0.130707
-0.933763
0.139534
-1.00414
0.146736
-1.0726
0.153347
-1.14578
0.159772
-1.2265
-1.31511
0.165781
0.0211394
-0.115002
0.060609
-0.45587
0.0910981
-0.715508
0.1094
-0.858556
0.119739
-0.944101
0.12641
-1.01082
0.13173
-1.07792
0.136484
-1.15054
0.140946
-1.23096
-1.31907
0.144898
0.0222856
-0.137288
0.0594429
-0.493027
0.0860241
-0.742089
0.100846
-0.873378
0.108592
-0.951848
0.113246
-1.01547
0.116737
-1.08141
0.119647
-1.15345
0.122151
-1.23346
-1.32097
0.124051
0.0230985
-0.160386
0.0575248
-0.527454
0.080378
-0.764942
0.091985
-0.884985
0.097346
-0.957209
0.100088
-1.01821
0.101786
-1.08311
0.102859
-1.15452
0.103414
-1.23402
-1.32084
0.103284
0.0235493
-0.183936
0.0550338
-0.558938
0.074278
-0.784186
0.0829131
-0.89362
0.0860614
-0.960357
0.0869709
-1.01912
0.0869031
-1.08304
0.0861455
-1.15377
0.0847651
-1.23264
-1.31872
0.082648
0.0236265
-0.207562
0.0520353
-0.587347
0.0678284
-0.79998
0.0737092
-0.899501
0.0747882
-0.961436
0.0739262
-1.01826
0.0721118
-1.08123
0.0695285
-1.15118
0.0662245
-1.22934
-1.3146
0.0621087
0.0233355
-0.230898
0.0486008
-0.612612
0.0611196
-0.812498
0.0644393
-0.902821
0.063566
-0.960563
0.0609791
-1.01567
0.057434
-1.07768
0.053034
-1.14678
0.0478102
-1.22411
-1.30848
0.0416832
0.0226975
-0.253595
0.0448043
-0.634719
0.0542311
-0.821925
0.0551581
-0.903748
0.0524269
-0.957832
0.0481519
-1.0114
0.0428894
-1.07242
0.0366878
-1.14058
0.0295665
-1.21699
-1.30031
0.0213976
0.021746
-0.275341
0.040716
-0.653689
0.0472139
-0.828423
0.0459091
-0.902443
0.0413976
-0.95332
0.0354647
-1.00546
0.0284969
-1.06545
0.0205035
-1.13259
0.0115575
-1.20804
-1.28994
0.00118989
0.0205218
-0.295863
0.0364016
-0.669569
0.0401255
-0.832147
0.0367286
-0.899046
0.0305009
-0.947092
0.0229349
-0.997898
0.0142746
-1.05679
0.00445762
-1.12277
-0.0062071
-1.19738
-1.2776
-0.0185462
0.0190683
-0.314931
0.0319214
-0.682422
0.0330188
-0.833244
0.0276475
-0.893674
0.0197551
-0.9392
0.0105722
-0.988715
0.000204574
-1.04643
-0.0112463
-1.11132
-0.0238516
-1.18477
-1.26344
-0.038018
0.0174282
-0.332359
0.0273298
-0.692323
0.0259374
-0.831852
0.0186922
-0.886429
0.00916631
-0.929674
-0.00161885
-0.97793
-0.013528
-1.03452
-0.0266985
-1.09815
-0.0411983
-1.17027
-1.24741
-0.0572222
0.0156413
-0.348001
0.0226751
-0.699357
0.0189175
-0.828095
0.00988327
-0.877395
-0.00127554
-0.918515
-0.0134907
-0.965715
-0.0270627
-1.02094
-0.0419201
-1.08329
-0.0582495
-1.15394
-1.22955
-0.0761129
0.0137444
-0.361745
0.0179996
-0.703612
0.0119866
-0.822082
0.0012117
-0.86662
-0.011342
-0.905962
-0.0251746
-0.951882
-0.0403499
-1.00577
-0.056877
-1.06676
-0.0749862
-1.13584
-1.20986
-0.0946708
0.0117708
-0.373516
0.0133406
-0.705182
0.00515568
-0.813897
-0.00717436
-0.85429
-0.0212458
-0.89189
-0.0366248
-0.936503
-0.0533727
-0.989022
-0.0715443
-1.04859
-0.0913928
-1.11599
-1.18839
-0.112867
0.00975072
-0.383267
0.00873303
-0.704164
-0.00154747
-0.803616
-0.015386
-0.840452
-0.030932
-0.876344
-0.0478226
-0.919613
-0.0661149
-0.970729
-0.0859007
-1.02881
-0.10745
-1.09444
-1.16516
-0.130681
0.0077091
-0.390976
0.00421704
-0.700672
-0.00793633
-0.791463
-0.0233954
-0.824992
-0.0403836
-0.859356
-0.058754
-0.901242
-0.0785613
-0.950922
-0.0999278
-1.00744
-0.123142
-1.07122
-1.14021
-0.14809
0.00566477
-0.39664
-0.000110954
-0.694897
-0.0141944
-0.777379
-0.0311876
-0.807999
-0.0495896
-0.840954
-0.0694065
-0.881425
-0.0906971
-0.929632
-0.113609
-0.984528
-0.138451
-1.04638
-1.11359
-0.165074
0.003636
-0.400276
-0.00466753
-0.686593
-0.0202903
-0.761757
-0.0387485
-0.789541
-0.0585386
-0.821164
-0.0797683
-0.860195
-0.102508
-0.906892
-0.12693
-0.960106
-0.153361
-1.01995
-1.08534
-0.181604
0.00165913
-0.401936
-0.00896964
-0.675964
-0.0262059
-0.74452
-0.0460687
-0.769678
-0.0672202
-0.800012
-0.0898282
-0.837587
-0.113982
-0.882738
-0.139876
-0.934212
-0.167853
-0.991975
-1.05554
-0.197655
-0.000231881
-0.401704
-0.013104
-0.663092
-0.0319314
-0.725693
-0.0531437
-0.748466
-0.0756248
-0.777531
-0.0995752
-0.813637
-0.125106
-0.857207
-0.152438
-0.90688
-0.181912
-0.962501
-1.02422
-0.213232
-0.00235839
-0.399345
-0.017087
-0.648364
-0.0374541
-0.705326
-0.0599674
-0.725953
-0.0837432
-0.753755
-0.108999
-0.788382
-0.135871
-0.830335
-0.164615
-0.878135
-0.19553
-0.931586
-0.991448
-0.228303
-0.00433745
-0.395008
-0.0209172
-0.631784
-0.0427625
-0.683481
-0.0665343
-0.702181
-0.0915668
-0.728723
-0.118088
-0.76186
-0.146269
-0.802155
-0.176402
-0.848002
-0.208662
-0.899326
-0.957481
-0.24263
-0.00622999
-0.388778
-0.0245917
-0.613422
-0.0478505
-0.660222
-0.0728385
-0.677193
-0.0990876
-0.702474
-0.126835
-0.734113
-0.156289
-0.772701
-0.187753
-0.816538
-0.221317
-0.865762
-0.922715
-0.256082
-0.00804229
-0.380736
-0.0281072
-0.593357
-0.0527134
-0.635616
-0.078875
-0.651031
-0.106298
-0.67505
-0.135231
-0.70518
-0.165916
-0.742016
-0.198612
-0.783842
-0.233027
-0.831347
-0.885756
-0.269987
-0.00977468
-0.370961
-0.0314605
-0.571672
-0.0573478
-0.609728
-0.0846387
-0.62374
-0.113193
-0.646497
-0.143269
-0.675104
-0.175127
-0.710157
-0.208942
-0.750028
-0.244616
-0.795672
-0.847208
-0.283164
-0.0114258
-0.359535
-0.0346486
-0.548449
-0.0617507
-0.582626
-0.0901252
-0.595366
-0.119764
-0.616858
-0.150938
-0.643929
-0.183923
-0.677172
-0.21888
-0.715071
-0.255932
-0.758621
-0.807324
-0.295816
-0.0129936
-0.346542
-0.0376689
-0.523773
-0.0659199
-0.554375
-0.09533
-0.565956
-0.126006
-0.586182
-0.158229
-0.611706
-0.19228
-0.643121
-0.228324
-0.679028
-0.266596
-0.720348
-0.766175
-0.307745
-0.0144759
-0.332066
-0.0405189
-0.49773
-0.069853
-0.525041
-0.100249
-0.535559
-0.131913
-0.554519
-0.165134
-0.578484
-0.200203
-0.608052
-0.237305
-0.641926
-0.276735
-0.680919
-0.723881
-0.319029
-0.0158706
-0.316195
-0.0431964
-0.470405
-0.0735481
-0.494689
-0.104879
-0.504228
-0.137478
-0.52192
-0.171645
-0.544318
-0.207677
-0.57202
-0.245783
-0.60382
-0.286288
-0.640413
-0.680514
-0.329655
-0.017175
-0.29902
-0.0456997
-0.44188
-0.0770034
-0.463386
-0.109217
-0.472015
-0.142698
-0.488439
-0.177755
-0.509261
-0.214696
-0.535079
-0.253751
-0.564765
-0.295262
-0.598903
-0.636146
-0.339629
-0.0183863
-0.280634
-0.0480272
-0.412239
-0.080217
-0.431196
-0.113258
-0.438974
-0.147566
-0.454131
-0.183457
-0.473369
-0.22125
-0.497286
-0.261195
-0.52482
-0.303641
-0.556456
-0.590844
-0.348943
-0.0195004
-0.261133
-0.0501773
-0.381562
-0.0831876
-0.398186
-0.117
-0.405162
-0.152078
-0.419053
-0.188745
-0.436702
-0.227332
-0.458699
-0.268104
-0.484048
-0.311418
-0.513143
-0.544675
-0.357587
-0.0205107
-0.240623
-0.0521481
-0.349925
-0.085914
-0.36442
-0.120439
-0.370637
-0.156229
-0.383263
-0.193613
-0.399318
-0.232934
-0.419378
-0.27447
-0.442512
-0.318581
-0.469032
-0.497705
-0.36555
-0.0214027
-0.21922
-0.0539386
-0.317389
-0.0883958
-0.329963
-0.123575
-0.335458
-0.160016
-0.346822
-0.198055
-0.361279
-0.238048
-0.379385
-0.280284
-0.400277
-0.325121
-0.424195
-0.450005
-0.372821
-0.0222213
-0.196999
-0.0555509
-0.284059
-0.0906328
-0.294881
-0.126403
-0.299688
-0.163434
-0.309791
-0.202066
-0.322647
-0.242669
-0.338782
-0.285537
-0.357408
-0.331029
-0.378703
-0.401645
-0.379389
-0.0229663
-0.174032
-0.0569857
-0.25004
-0.0926241
-0.259242
-0.128922
-0.263389
-0.166481
-0.272233
-0.205643
-0.283485
-0.24679
-0.297635
-0.290224
-0.313974
-0.336299
-0.332628
-0.352699
-0.385244
-0.0236255
-0.150407
-0.0582427
-0.215422
-0.0943688
-0.223116
-0.13113
-0.226628
-0.169153
-0.23421
-0.208781
-0.243857
-0.250406
-0.25601
-0.294338
-0.270042
-0.340921
-0.286045
-0.303242
-0.390378
-0.0241941
-0.126213
-0.0593213
-0.180295
-0.0958662
-0.186571
-0.133026
-0.189468
-0.171448
-0.195789
-0.211476
-0.203829
-0.253514
-0.213972
-0.297871
-0.225685
-0.344891
-0.239026
-0.253351
-0.394782
-0.0246697
-0.101543
-0.0602209
-0.144744
-0.0971152
-0.149677
-0.134608
-0.151975
-0.173364
-0.157033
-0.213727
-0.163466
-0.256108
-0.171591
-0.30082
-0.180972
-0.3482
-0.191647
-0.2031
-0.398451
-0.0250513
-0.0764919
-0.0609411
-0.108854
-0.0981153
-0.112503
-0.135875
-0.114215
-0.174898
-0.11801
-0.21553
-0.122834
-0.258186
-0.128934
-0.303182
-0.135976
-0.350847
-0.143982
-0.152564
-0.401382
-0.0253379
-0.051154
-0.0614816
-0.0727103
-0.0988658
-0.0751188
-0.136826
-0.0762549
-0.176051
-0.0787853
-0.216883
-0.0820016
-0.259747
-0.0860712
-0.304954
-0.0907682
-0.352831
-0.0961048
-0.101821
-0.403575
-0.0255292
-0.0256248
-0.061842
-0.0363974
-0.0993664
-0.0375945
-0.13746
-0.0381609
-0.176819
-0.0394262
-0.217787
-0.0410345
-0.260788
-0.04307
-0.306137
-0.0454193
-0.354154
-0.0480873
-0.0509434
-0.405032
-0.0256248
2.62464e-09
-0.0620223
3.57966e-09
-0.0996168
3.49396e-09
-0.137778
3.31257e-09
-0.177204
3.15892e-09
-0.218238
3.01235e-09
-0.261308
2.88018e-09
-0.306728
2.75813e-09
-0.354815
2.64461e-09
2.5287e-09
-0.405759
-0.0256248
0.0256249
-0.0620223
0.0363974
-0.0996168
0.0375945
-0.137778
0.0381609
-0.177204
0.0394263
-0.218238
0.0410345
-0.261308
0.04307
-0.306728
0.0454193
-0.354815
0.0480874
0.0509434
-0.405759
-0.0255292
0.051154
-0.061842
0.0727103
-0.0993664
0.0751188
-0.13746
0.0762549
-0.176819
0.0787853
-0.217787
0.0820017
-0.260788
0.0860712
-0.306137
0.0907682
-0.354154
0.0961048
0.101821
-0.405032
-0.0253379
0.0764919
-0.0614816
0.108854
-0.0988658
0.112503
-0.136826
0.114215
-0.176051
0.11801
-0.216883
0.122834
-0.259747
0.128934
-0.304954
0.135976
-0.352831
0.143982
0.152564
-0.403575
-0.0250513
0.101543
-0.0609411
0.144744
-0.0981153
0.149677
-0.135875
0.151975
-0.174898
0.157033
-0.21553
0.163466
-0.258186
0.171591
-0.303182
0.180972
-0.350847
0.191647
0.2031
-0.401382
-0.0246697
0.126213
-0.0602209
0.180295
-0.0971152
0.186571
-0.134608
0.189468
-0.173364
0.195789
-0.213727
0.203829
-0.256108
0.213972
-0.30082
0.225685
-0.3482
0.239026
0.253351
-0.398451
-0.0241941
0.150407
-0.0593213
0.215422
-0.0958662
0.223116
-0.133026
0.226628
-0.171448
0.23421
-0.211476
0.243857
-0.253514
0.25601
-0.297871
0.270042
-0.344891
0.286045
0.303242
-0.394782
-0.0236255
0.174032
-0.0582427
0.25004
-0.0943688
0.259242
-0.13113
0.263389
-0.169153
0.272233
-0.208781
0.283485
-0.250406
0.297635
-0.294338
0.313974
-0.340921
0.332628
0.352699
-0.390378
-0.0229663
0.196999
-0.0569857
0.284059
-0.0926241
0.294881
-0.128922
0.299688
-0.166481
0.309791
-0.205643
0.322647
-0.24679
0.338782
-0.290224
0.357408
-0.336299
0.378703
0.401645
-0.385244
-0.0222213
0.21922
-0.0555509
0.317389
-0.0906328
0.329963
-0.126403
0.335458
-0.163434
0.346822
-0.202066
0.361279
-0.242669
0.379385
-0.285537
0.400277
-0.331029
0.424195
0.450005
-0.379389
-0.0214027
0.240623
-0.0539386
0.349925
-0.0883958
0.36442
-0.123575
0.370637
-0.160016
0.383263
-0.198055
0.399318
-0.238048
0.419378
-0.280284
0.442512
-0.325121
0.469032
0.497705
-0.372821
-0.0205107
0.261133
-0.0521481
0.381562
-0.085914
0.398186
-0.120439
0.405162
-0.156229
0.419053
-0.193613
0.436702
-0.232934
0.458699
-0.27447
0.484048
-0.318581
0.513143
0.544675
-0.36555
-0.0195004
0.280634
-0.0501773
0.412239
-0.0831876
0.431196
-0.117
0.438974
-0.152078
0.454131
-0.188745
0.473369
-0.227332
0.497286
-0.268104
0.52482
-0.311418
0.556456
0.590844
-0.357587
-0.0183863
0.29902
-0.0480272
0.44188
-0.080217
0.463386
-0.113258
0.472015
-0.147566
0.488439
-0.183457
0.509261
-0.22125
0.535079
-0.261195
0.564765
-0.303641
0.598903
0.636146
-0.348943
-0.017175
0.316195
-0.0456997
0.470405
-0.0770034
0.494689
-0.109217
0.504228
-0.142698
0.52192
-0.177755
0.544318
-0.214696
0.57202
-0.253751
0.60382
-0.295262
0.640413
0.680514
-0.339629
-0.0158706
0.332066
-0.0431964
0.49773
-0.0735481
0.525041
-0.104879
0.535559
-0.137478
0.554519
-0.171645
0.578484
-0.207677
0.608052
-0.245783
0.641926
-0.286288
0.680919
0.723881
-0.329655
-0.0144759
0.346542
-0.0405189
0.523773
-0.069853
0.554375
-0.100249
0.565956
-0.131913
0.586182
-0.165134
0.611706
-0.200203
0.643121
-0.237305
0.679028
-0.276735
0.720348
0.766175
-0.319029
-0.0129936
0.359535
-0.0376689
0.548449
-0.0659199
0.582626
-0.09533
0.595366
-0.126006
0.616858
-0.158229
0.643929
-0.19228
0.677172
-0.228324
0.715071
-0.266596
0.758621
0.807324
-0.307745
-0.0114258
0.370961
-0.0346486
0.571672
-0.0617507
0.609728
-0.0901252
0.62374
-0.119764
0.646497
-0.150938
0.675104
-0.183923
0.710157
-0.21888
0.750028
-0.255932
0.795672
0.847208
-0.295816
-0.00977468
0.380736
-0.0314605
0.593357
-0.0573478
0.635616
-0.0846387
0.651031
-0.113193
0.67505
-0.143269
0.70518
-0.175127
0.742016
-0.208942
0.783842
-0.244616
0.831347
0.885756
-0.283164
-0.00804229
0.388778
-0.0281072
0.613422
-0.0527134
0.660222
-0.078875
0.677193
-0.106298
0.702474
-0.135231
0.734113
-0.165916
0.772701
-0.198612
0.816538
-0.233027
0.865762
0.922715
-0.269987
-0.00622999
0.395008
-0.0245917
0.631784
-0.0478505
0.683481
-0.0728385
0.702181
-0.0990876
0.728723
-0.126835
0.76186
-0.156289
0.802155
-0.187753
0.848002
-0.221317
0.899326
0.957481
-0.256082
-0.00433745
0.399345
-0.0209172
0.648364
-0.0427625
0.705326
-0.0665343
0.725953
-0.0915668
0.753755
-0.118088
0.788382
-0.146269
0.830335
-0.176402
0.878135
-0.208662
0.931586
0.991448
-0.24263
-0.00235839
0.401704
-0.017087
0.663092
-0.0374541
0.725693
-0.0599674
0.748466
-0.0837432
0.777531
-0.108999
0.813637
-0.135871
0.857207
-0.164615
0.90688
-0.19553
0.962501
1.02422
-0.228303
-0.000231881
0.401936
-0.013104
0.675964
-0.0319314
0.74452
-0.0531437
0.769678
-0.0756248
0.800012
-0.0995752
0.837587
-0.125106
0.882738
-0.152438
0.934212
-0.181912
0.991975
1.05554
-0.213232
0.00165913
0.400276
-0.00896964
0.686593
-0.0262059
0.761757
-0.0460687
0.789541
-0.0672202
0.821164
-0.0898282
0.860195
-0.113982
0.906892
-0.139876
0.960106
-0.167853
1.01995
1.08534
-0.197655
0.003636
0.39664
-0.00466753
0.694897
-0.0202903
0.777379
-0.0387485
0.807999
-0.0585386
0.840954
-0.0797683
0.881425
-0.102508
0.929632
-0.12693
0.984528
-0.153361
1.04638
1.11359
-0.181604
0.00566477
0.390976
-0.000110954
0.700672
-0.0141944
0.791463
-0.0311876
0.824992
-0.0495896
0.859356
-0.0694065
0.901242
-0.0906971
0.950922
-0.113609
1.00744
-0.138451
1.07122
1.14021
-0.165074
0.0077091
0.383267
0.00421704
0.704164
-0.00793633
0.803616
-0.0233954
0.840452
-0.0403836
0.876344
-0.058754
0.919613
-0.0785613
0.970729
-0.0999278
1.02881
-0.123142
1.09444
1.16516
-0.14809
0.00975072
0.373516
0.00873303
0.705182
-0.00154747
0.813897
-0.015386
0.85429
-0.030932
0.89189
-0.0478226
0.936503
-0.0661149
0.989022
-0.0859007
1.04859
-0.10745
1.11599
1.18839
-0.130681
0.0117708
0.361745
0.0133406
0.703612
0.00515568
0.822082
-0.00717436
0.86662
-0.0212458
0.905962
-0.0366248
0.951882
-0.0533727
1.00577
-0.0715443
1.06676
-0.0913928
1.13584
1.20986
-0.112867
0.0137444
0.348001
0.0179996
0.699357
0.0119866
0.828095
0.0012117
0.877395
-0.011342
0.918515
-0.0251746
0.965715
-0.0403499
1.02094
-0.056877
1.08329
-0.0749862
1.15394
1.22955
-0.0946708
0.0156413
0.332359
0.0226751
0.692323
0.0189175
0.831852
0.00988327
0.886429
-0.00127554
0.929674
-0.0134907
0.97793
-0.0270627
1.03452
-0.0419201
1.09815
-0.0582495
1.17027
1.24741
-0.0761129
0.0174282
0.314931
0.0273298
0.682422
0.0259374
0.833245
0.0186922
0.893674
0.00916631
0.9392
-0.00161885
0.988715
-0.013528
1.04643
-0.0266985
1.11132
-0.0411983
1.18477
1.26344
-0.0572222
0.0190683
0.295863
0.0319214
0.669569
0.0330188
0.832147
0.0276475
0.899046
0.0197551
0.947092
0.0105722
0.997898
0.000204573
1.05679
-0.0112463
1.12277
-0.0238517
1.19738
1.2776
-0.038018
0.0205218
0.275341
0.0364016
0.653689
0.0401255
0.828423
0.0367286
0.902443
0.0305009
0.95332
0.0229349
1.00546
0.0142746
1.06545
0.00445762
1.13259
-0.0062071
1.20804
1.28994
-0.0185462
0.021746
0.253595
0.040716
0.634719
0.0472139
0.821925
0.0459091
0.903748
0.0413976
0.957832
0.0354647
1.0114
0.0284969
1.07242
0.0205035
1.14058
0.0115575
1.21699
1.30031
0.00118989
0.0226975
0.230898
0.0448043
0.612612
0.0542311
0.812498
0.0551581
0.902821
0.0524269
0.960563
0.0481519
1.01567
0.0428894
1.07768
0.0366878
1.14678
0.0295665
1.22411
1.30848
0.0213976
0.0233355
0.207562
0.0486008
0.587347
0.0611196
0.79998
0.0644393
0.899501
0.063566
0.961436
0.0609791
1.01826
0.057434
1.08123
0.053034
1.15118
0.0478102
1.22934
1.3146
0.0416832
0.0236265
0.183936
0.0520353
0.558938
0.0678284
0.784186
0.0737092
0.89362
0.0747882
0.960357
0.0739262
1.01912
0.0721118
1.08304
0.0695284
1.15377
0.0662245
1.23264
1.31872
0.0621087
0.0235493
0.160386
0.0550338
0.527454
0.074278
0.764942
0.0829131
0.884985
0.0860614
0.957209
0.0869709
1.01821
0.0869031
1.08311
0.0861455
1.15452
0.0847651
1.23402
1.32084
0.082648
0.0230985
0.137288
0.0575248
0.493027
0.080378
0.742089
0.091985
0.873378
0.097346
0.951848
0.100088
1.01547
0.101786
1.08141
0.102859
1.15345
0.103414
1.23346
1.32097
0.103284
0.0222856
0.115002
0.0594429
0.45587
0.0860241
0.715508
0.100846
0.858556
0.108592
0.944101
0.113246
1.01082
0.116737
1.07792
0.119647
1.15054
0.122151
1.23096
1.31907
0.124051
0.0211394
0.0938627
0.060609
0.4164
0.0910981
0.685019
0.1094
0.840254
0.119739
0.933763
0.12641
1.00414
0.13173
1.0726
0.136484
1.14578
0.140946
1.2265
1.31511
0.144898
0.019703
0.0741597
0.0609358
0.375168
0.0954736
0.650481
0.117532
0.818196
0.130707
0.920588
0.139534
0.995317
0.146736
1.0654
0.153347
1.13917
0.159772
1.22007
1.30911
0.165781
0.0180265
0.0561332
0.0603654
0.332829
0.0990125
0.611834
0.125102
0.792106
0.1414
0.90429
0.152562
0.984155
0.161721
1.05624
0.170208
1.13069
0.178599
1.21168
1.30104
0.186666
0.016163
0.0399702
0.0588576
0.290134
0.101562
0.569129
0.131947
0.761721
0.151696
0.884542
0.165421
0.97043
0.176642
1.04502
0.187037
1.12029
0.1974
1.20132
1.29092
0.207521
0.0141707
0.0257994
0.0564119
0.247893
0.102962
0.522579
0.13788
0.726803
0.161448
0.860973
0.178018
0.95386
0.191446
1.03159
0.203796
1.10794
0.216143
1.18897
1.27875
0.228312
0.0121207
0.0136788
0.0530832
0.206931
0.103046
0.472616
0.142685
0.687164
0.170474
0.833184
0.190231
0.934103
0.206064
1.01576
0.220444
1.09356
0.234796
1.17462
1.26454
0.249008
0.0101001
0.00357866
0.0489892
0.168041
0.101663
0.419942
0.146126
0.642701
0.178554
0.800756
0.201902
0.910754
0.220401
0.997262
0.236928
1.07704
0.253325
1.15822
1.24829
0.269574
0.00820451
-0.00462585
0.0443011
0.131945
0.098687
0.365556
0.147947
0.593441
0.185418
0.763285
0.212827
0.883346
0.234335
0.975754
0.253182
1.05819
0.271684
1.13972
1.22999
0.289977
0.00651447
-0.0111403
0.0392218
0.0992376
0.0940461
0.310732
0.147876
0.539611
0.190747
0.720414
0.222744
0.851349
0.247694
0.950804
0.269107
1.03678
0.28982
1.11901
1.20964
0.310176
0.00507473
-0.016215
0.0339676
0.0703447
0.0877662
0.256933
0.14565
0.481727
0.194172
0.671892
0.231323
0.814198
0.260249
0.921878
0.284568
1.01246
0.307657
1.09592
1.18716
0.330134
0.00388585
-0.0201009
0.0287612
0.0454694
0.0800224
0.205672
0.141041
0.420708
0.195281
0.617652
0.238159
0.771321
0.271694
0.888343
0.299375
0.984776
0.32509
1.0702
1.16247
0.349778
0.00291668
-0.0230176
0.0238209
0.0245652
0.0711709
0.158322
0.133906
0.357973
0.193644
0.557914
0.242762
0.722203
0.281622
0.849483
0.313258
0.95314
0.341974
1.04149
1.13539
0.369061
0.00212699
-0.0251446
0.0193318
0.0073604
0.0617106
0.115943
0.124268
0.295416
0.188852
0.49333
0.244567
0.666487
0.289509
0.804541
0.32585
0.916799
0.35806
1.00928
1.10561
0.387833
0.00148383
-0.0266284
0.0154135
-0.00656924
0.0521885
0.0791679
0.112412
0.235192
0.180585
0.425157
0.242954
0.604118
0.294693
0.752802
0.336631
0.874861
0.373072
0.972836
1.07276
0.405925
0.000965607
-0.027594
0.0121048
-0.0177084
0.043116
0.0481567
0.0989313
0.179377
0.168723
0.355365
0.237299
0.535542
0.296376
0.693725
0.344937
0.8263
0.38639
0.931383
1.03591
0.423237
0.00055836
-0.0281524
0.00937602
-0.0265261
0.0348998
0.0226329
0.0846716
0.129605
0.153486
0.28655
0.227096
0.461932
0.293611
0.627211
0.349927
0.769984
0.397486
0.883824
0.994765
0.438635
0.000250722
-0.0284031
0.00716057
-0.0334359
0.0277809
0.0020125
0.070569
0.0868172
0.13557
0.221549
0.212083
0.385419
0.285508
0.553785
0.350431
0.705061
0.405209
0.829046
0.946325
0.453649
3.23563e-05
-0.0284354
0.00538113
-0.0387847
0.0218167
-0.0144231
0.057447
0.0511869
0.116138
0.162858
0.192533
0.309025
0.271198
0.47512
0.345768
0.630491
0.407253
0.767561
0.890492
0.463086
-0.000134598
-0.0283009
0.00395999
-0.0428793
0.0169231
-0.0273862
0.0458506
0.0222594
0.0966107
0.112098
0.169416
0.236219
0.250494
0.394042
0.333748
0.547236
0.40582
0.695489
0.833909
0.462403
-0.000244345
-0.0280565
0.00282259
-0.0459462
0.0129423
-0.0375059
0.0359897
-0.000788002
0.0783043
0.0697834
0.144348
0.170175
0.224108
0.314283
0.313226
0.458118
0.397332
0.611383
0.76896
0.462281
-0.000318133
-0.0277384
0.00189838
-0.0481627
0.0096937
-0.0453012
0.0277953
-0.0188896
0.0621096
0.0354692
0.119196
0.113089
0.193739
0.23974
0.284213
0.367644
0.378767
0.516828
0.693553
0.454175
-0.000376283
-0.0273621
0.00112079
-0.0496598
0.00700045
-0.0511809
0.0210297
-0.0329189
0.0483382
0.00816072
0.0954953
0.0659316
0.161866
0.17337
0.248232
0.281277
0.349051
0.41601
0.60713
0.435474
-0.0004357
-0.0269264
0.000429799
-0.0505253
0.00470201
-0.0554531
0.0153847
-0.0436016
0.0368042
-0.0132587
0.0741587
0.0285771
0.131059
0.11647
0.208212
0.204124
0.308864
0.315358
0.511062
0.404931
-0.000508849
-0.0264175
-0.000226309
-0.0508079
0.0026619
-0.0583413
0.0105526
-0.0514923
0.0270686
-0.0297747
0.0555727
7.29307e-05
0.103057
0.0689851
0.167683
0.139498
0.261324
0.221717
0.409456
0.362931
-0.000606639
-0.0258109
-0.000889053
-0.0505254
0.000776868
-0.0600072
0.00627331
-0.0569888
0.0186786
-0.04218
0.0397569
-0.0210053
0.0783938
0.0303482
0.129855
0.0880372
0.211352
0.14022
0.309145
0.311663
-0.000738378
-0.0250725
-0.00157713
-0.0496867
-0.00105078
-0.0605336
0.00235165
-0.0603912
0.0112929
-0.0511213
0.0264076
-0.03612
0.0568545
-9.8723e-05
0.0968436
0.048048
0.163597
0.0734668
0.217882
0.254859
-0.000903743
-0.0241688
-0.00230335
-0.0482871
-0.00286101
-0.0599759
-0.00130348
-0.0619488
0.00467497
-0.0570997
0.0150147
-0.0464597
0.0380716
-0.0231556
0.0690571
0.0170625
0.120554
0.02197
0.141435
0.197001
-0.00110028
-0.0230685
-0.00306792
-0.0463194
-0.00465663
-0.0583872
-0.00471412
-0.0618913