/*--------------------------------*- C++ -*----------------------------------*\
  =========                 |
  \\      /  F ield         | OpenFOAM: The Open Source CFD Toolbox
   \\    /   O peration     | Website:  https://openfoam.org
    \\  /    A nd           | Version:  9
     \\/     M anipulation  |
\*---------------------------------------------------------------------------*/
FoamFile
{
    format      ascii;
    class       volVectorField;
    location    "27.6";
    object      U;
}
// * * * * * * * * * * * * * * * * * * * * * * * * * * * * * * * * * * * * * //

dimensions      [0 1 -1 0 0 0 0];

internalField   nonuniform List<vector> 
8500
(
(-0.00650517 0.00259962 0)
(-0.0292045 0.00448167 -6.79348e-23)
(-0.0613292 0.00494518 -3.73515e-24)
(-0.0892192 0.00478179 7.07497e-37)
(-0.116724 0.00446688 -1.04053e-23)
(-0.137244 0.00386643 8.66395e-24)
(-0.161282 0.00381824 -5.86233e-23)
(-0.17227 0.00251178 -9.08458e-23)
(-0.192735 0.00355027 -8.30136e-23)
(-0.200032 0.00127485 -4.31119e-24)
(-0.00679913 0.00774654 1.96253e-22)
(-0.0294606 0.0133704 6.34715e-23)
(-0.0612038 0.0147604 2.54708e-22)
(-0.0885335 0.014275 0)
(-0.115451 0.0133317 0)
(-0.134984 0.0115392 1.74448e-23)
(-0.158446 0.0113875 4.40577e-23)
(-0.167694 0.00747465 9.69633e-23)
(-0.187628 0.0106138 6.24842e-23)
(-0.192667 0.00368599 1.72536e-23)
(-0.0073788 0.0127385 -1.74402e-22)
(-0.0299693 0.0220368 0)
(-0.0609577 0.0243505 -2.39697e-22)
(-0.087171 0.0235567 0)
(-0.112919 0.0219877 -4.16793e-23)
(-0.130474 0.0190327 3.47044e-23)
(-0.152783 0.0187477 0)
(-0.158508 0.0122641 0)
(-0.177422 0.0175717 0)
(-0.177975 0.00569878 0)
(-0.00822829 0.017479 3.50554e-22)
(-0.030723 0.0303382 -2.54854e-22)
(-0.0605997 0.0335679 -6.01019e-23)
(-0.0851493 0.0324865 -3.7468e-22)
(-0.109149 0.03029 -3.76035e-22)
(-0.123732 0.0262326 3.49893e-23)
(-0.144303 0.0257357 -2.92142e-23)
(-0.144634 0.016791 3.37976e-22)
(-0.162109 0.0243691 1.38468e-26)
(-0.155954 0.00710817 3.40745e-22)
(-0.00932518 0.0218816 -3.50554e-22)
(-0.031711 0.0381404 -3.29332e-22)
(-0.0601414 0.0422689 9.04088e-23)
(-0.0824936 0.040925 5.00016e-22)
(-0.104168 0.0380864 -4.24984e-23)
(-0.114788 0.0330303 5.56388e-22)
(-0.133009 0.032152 0)
(-0.125941 0.0209955 -3.87057e-22)
(-0.141603 0.030967 -8.24743e-23)
(-0.126415 0.0078244 -4.73693e-22)
(-0.0106421 0.025873 8.8349e-23)
(-0.032919 0.0453205 5.47745e-22)
(-0.0595953 0.0503142 -4.23291e-22)
(-0.0792343 0.0487348 -2.98327e-25)
(-0.0979968 0.0452177 -3.7905e-22)
(-0.103683 0.0393247 1.40527e-22)
(-0.118874 0.0377496 -5.86888e-23)
(-0.102237 0.0248449 4.84091e-22)
(-0.115706 0.03731 -8.26361e-23)
(-0.0887216 0.00799468 2.71265e-22)
(-0.0121489 0.0293959 4.42591e-23)
(-0.0343298 0.0517698 0)
(-0.058971 0.0575702 -1.57091e-24)
(-0.0754029 0.0557827 0)
(-0.0906393 0.0515203 6.72328e-22)
(-0.090457 0.0450247 -5.56882e-22)
(-0.10181 0.0422265 0)
(-0.0732763 0.0283416 -1.13212e-24)
(-0.0840857 0.0431763 0)
(-0.0414968 0.00823547 0)
(-0.0138143 0.0324105 -7.13535e-22)
(-0.0359228 0.0573954 -7.36965e-23)
(-0.0582706 0.0639123 5.4607e-22)
(-0.0710245 0.0619396 1.01201e-22)
(-0.0820618 0.0568321 -6.76199e-22)
(-0.075136 0.0500541 -4.17116e-22)
(-0.0816058 0.0452208 -5.89791e-23)
(-0.0387796 0.0315752 4.80599e-22)
(-0.046294 0.0478275 -8.29451e-23)
(0.0176722 0.00960093 6.86607e-23)
(-0.0156085 0.0348955 8.03264e-22)
(-0.0376735 0.0621226 -5.92365e-22)
(-0.057483 0.0692275 -1.82996e-22)
(-0.066106 0.0670808 1.00955e-22)
(-0.0721689 0.0610005 6.76128e-22)
(-0.0576985 0.0543672 6.2855e-22)
(-0.0577925 0.0463206 -5.91108e-23)
(0.00162436 0.034723 9.61892e-23)
(-0.00214158 0.0504661 -1.66267e-22)
(0.0927944 0.012593 6.99477e-23)
(-0.0175049 0.036848 7.21542e-22)
(-0.0395518 0.0658958 5.92686e-22)
(-0.0565767 0.0734188 -8.58622e-22)
(-0.0606199 0.0710867 -1.01265e-22)
(-0.0607642 0.0638839 0)
(-0.0380341 0.057967 0)
(-0.0295844 0.0453259 0)
(0.0489864 0.0378092 -1.52391e-21)
(0.0480957 0.0502137 -6.95071e-22)
(0.187561 0.017766 5.33101e-22)
(-0.0194813 0.0382821 -1.44737e-21)
(-0.0415194 0.0686787 0)
(-0.0554912 0.0764086 1.96558e-21)
(-0.0544861 0.0738464 8.13074e-22)
(-0.0475057 0.0653562 8.46123e-23)
(-0.0157465 0.0607875 0)
(0.00401777 0.042453 -9.65754e-22)
(0.104646 0.0411856 7.60574e-22)
(0.106121 0.0457343 6.95061e-22)
(0.303565 0.0256015 -5.3308e-22)
(-0.0215208 0.0392266 8.16938e-22)
(-0.0435256 0.0704547 -7.47895e-23)
(-0.0541249 0.0781437 -9.84533e-22)
(-0.0475478 0.0752654 -9.15181e-22)
(-0.0319592 0.0654162 0)
(0.0100506 0.0625695 1.11964e-21)
(0.0447328 0.0381991 5.43391e-25)
(0.169412 0.0456525 6.56616e-22)
(0.177273 0.0372948 7.80139e-22)
(0.439172 0.0352042 -5.2882e-22)
(-0.0236116 0.0397217 4.48997e-26)
(-0.045502 0.0712257 1.28171e-21)
(-0.0523193 0.0785968 -1.23845e-22)
(-0.0394841 0.0752522 7.14397e-22)
(-0.0136017 0.064159 4.26787e-22)
(0.0405719 0.0630915 2.84273e-22)
(0.0953566 0.0334219 9.63407e-22)
(0.243706 0.0510494 -8.53434e-22)
(0.269856 0.0288765 -5.30981e-22)
(0.588236 0.0453578 3.8922e-22)
(-0.0257456 0.0398155 0)
(-0.0473557 0.07101 -1.05566e-21)
(-0.0498591 0.0777744 -1.24342e-22)
(-0.0297801 0.0737432 1.62545e-24)
(0.00839725 0.0616667 6.80929e-22)
(0.0773394 0.0622626 -9.78863e-22)
(0.159045 0.0297321 9.57942e-22)
(0.328124 0.0558791 -9.76345e-23)
(0.390301 0.0264045 0)
(0.740391 0.0560544 0)
(-0.0279173 0.0395601 9.275e-23)
(-0.0489591 0.0698414 -1.21812e-21)
(-0.0464515 0.0757252 0)
(-0.0177392 0.070781 -1.00941e-22)
(0.0352477 0.0580884 8.50166e-23)
(0.122484 0.0599605 0)
(0.238164 0.0291636 -9.5982e-22)
(0.424177 0.0590308 -7.55348e-22)
(0.536228 0.0331997 1.64428e-22)
(0.883452 0.0680419 -1.38182e-22)
(-0.0301176 0.0390028 -9.31932e-23)
(-0.0501445 0.0677723 1.29462e-21)
(-0.0416841 0.0725201 0)
(-0.00245546 0.0665263 -9.22214e-22)
(0.0685131 0.0537537 8.50591e-23)
(0.178687 0.0565166 -1.12136e-21)
(0.33322 0.0330448 -1.16157e-22)
(0.533745 0.0618464 8.52552e-22)
(0.69458 0.0479152 0)
(1.0069 0.0810764 1.05196e-21)
(-0.0323259 0.0381815 -1.41695e-21)
(-0.0507008 0.0648673 -7.69714e-23)
(-0.0350027 0.0682527 -1.24794e-22)
(0.0172426 0.0612426 1.03223e-22)
(0.110161 0.0492524 -1.35804e-21)
(0.24879 0.0531968 1.12135e-21)
(0.442399 0.0413801 9.43833e-22)
(0.655635 0.0673784 7.55226e-22)
(0.847507 0.0667888 1.30488e-21)
(1.10463 0.0937755 -9.20364e-22)
(-0.0345064 0.0371244 1.51072e-21)
(-0.0503605 0.0611933 0)
(-0.0257136 0.0630578 1.13334e-21)
(0.0428054 0.0552826 -1.03501e-22)
(0.162443 0.045408 2.71522e-21)
(0.334795 0.0520223 0)
(0.561792 0.0534573 -9.43813e-22)
(0.782744 0.0772257 -1.88284e-24)
(0.980386 0.0865453 -1.46271e-21)
(1.17554 0.1047 1.32665e-22)
(-0.036604 0.0358475 0)
(-0.0487941 0.0568177 1.24502e-21)
(-0.0129783 0.0571105 -1.00821e-21)
(0.075926 0.0491158 0)
(0.227516 0.043283 -1.35717e-21)
(0.436266 0.0550197 0)
(0.685459 0.0685313 9.28657e-22)
(0.904316 0.090432 -7.53313e-22)
(1.08586 0.105251 -1.24905e-21)
(1.22256 0.112865 -1.00712e-21)
(-0.0385381 0.034352 -1.9162e-22)
(-0.0456106 0.0518118 -1.08773e-21)
(0.00419154 0.0506266 0)
(0.118455 0.0433996 0)
(0.30672 0.0441233 0)
(0.549309 0.0631561 -1.38715e-22)
(0.805988 0.0856208 -9.3075e-22)
(1.0111 0.10516 -9.51679e-23)
(1.16327 0.121756 1.24905e-21)
(1.25108 0.117544 1.13293e-21)
(-0.0401992 0.0326288 0)
(-0.0403564 0.0462496 -1.26253e-21)
(0.0269363 0.0438754 0)
(0.172194 0.039081 0)
(0.399586 0.0490641 0)
(0.667097 0.0759375 1.37817e-22)
(0.916338 0.103374 -1.13724e-21)
(1.09826 0.120055 8.83755e-23)
(1.21632 0.134849 8.91637e-22)
(1.26802 0.118115 9.73663e-22)
(-0.0414638 0.0306735 0)
(-0.0325017 0.0401924 1.26252e-21)
(0.0565425 0.0372238 -1.02923e-21)
(0.238459 0.0374127 0)
(0.503085 0.058598 -1.3548e-21)
(0.781907 0.0918719 0)
(1.01176 0.120602 9.09569e-22)
(1.16508 0.134055 -7.26262e-22)
(1.2507 0.143443 -1.19314e-21)
(1.29256 0.128701 -9.68734e-22)
(-0.0421908 0.028472 1.60599e-21)
(-0.0214485 0.0336917 0)
(0.0943958 0.0312332 9.01656e-22)
(0.317408 0.0396978 1.05512e-22)
(0.611894 0.0722387 2.70951e-21)
(0.887402 0.109286 0)
(1.09034 0.136597 -8.87932e-22)
(1.21366 0.146126 -1.44083e-21)
(1.2752 0.151624 -1.00026e-21)
(1.30169 0.134773 -5.33105e-24)
(-0.0422074 0.0259967 -1.70575e-21)
(-0.0065235 0.0268132 8.18911e-23)
(0.141814 0.0267705 1.28254e-22)
(0.407395 0.046752 -1.06081e-22)
(0.719816 0.0887719 -1.35471e-21)
(0.979763 0.12688 1.09186e-21)
(1.15242 0.150955 8.87928e-22)
(1.24813 0.156753 7.14571e-22)
(1.28935 0.158055 1.14195e-21)
(1.30484 0.140558 -1.00864e-21)
(-0.0413228 0.0232198 1.01093e-22)
(0.0130514 0.0196662 1.23084e-21)
(0.199711 0.0250166 0)
(0.504884 0.0584576 -7.37673e-22)
(0.821495 0.106856 -8.59305e-23)
(1.05756 0.143829 -1.09185e-21)
(1.19984 0.163729 1.06417e-22)
(1.27114 0.165891 5.98853e-22)
(1.29701 0.163751 0)
(1.30478 0.145584 8.97717e-22)
(-0.0393295 0.0201131 -1.04287e-22)
(0.03816 0.0124859 -1.31381e-21)
(0.268143 0.0272074 0)
(0.60519 0.0738614 9.90483e-23)
(0.913377 0.125441 -8.61549e-23)
(1.12108 0.159733 0)
(1.2348 0.175042 -8.5042e-22)
(1.28567 0.173901 -6.87927e-22)
(1.29989 0.168752 -1.3146e-22)
(1.30152 0.150134 -1.10583e-22)
(-0.0359897 0.0166483 0)
(0.0697264 0.00576155 -1.51415e-21)
(0.34595 0.034146 1.35767e-22)
(0.703642 0.091725 -5.21566e-24)
(0.993719 0.143863 -6.75664e-22)
(1.17152 0.174451 -1.19526e-21)
(1.25963 0.185113 9.59188e-22)
(1.29385 0.181009 0)
(1.29944 0.173335 0)
(1.29717 0.154466 0)
(-0.0310088 0.0128052 2.29342e-24)
(0.108562 0.000340005 1.26954e-21)
(0.430764 0.0458326 1.37459e-22)
(0.796533 0.111003 9.55463e-22)
(1.06213 0.161756 5.89064e-22)
(1.21052 0.188 -1.16718e-22)
(1.27641 0.194166 8.2804e-22)
(1.29742 0.187469 -5.58886e-22)
(1.29681 0.177647 -6.2792e-22)
(1.29163 0.158651 5.04387e-22)
(-0.024009 0.00859541 7.88307e-22)
(0.155136 -0.00260549 8.86744e-23)
(0.519435 0.0615406 -1.09827e-21)
(0.881466 0.130981 -8.60876e-22)
(1.11907 0.178943 0)
(1.23983 0.200478 1.05321e-21)
(1.28692 0.202424 -1.58551e-23)
(1.2977 0.193476 7.19933e-22)
(1.29266 0.181809 4.39095e-22)
(1.2856 0.162779 -3.99758e-22)
(-0.014524 0.00409829 -1.81441e-21)
(0.209345 -0.00181815 0)
(0.608654 0.0802476 2.21279e-21)
(0.957227 0.151221 7.56321e-22)
(1.16544 0.19536 8.6781e-23)
(1.26109 0.212027 0)
(1.29264 0.210089 -8.05502e-22)
(1.29563 0.19919 6.10503e-22)
(1.28751 0.185903 4.74338e-22)
(1.27913 0.166893 -3.73968e-22)
(-0.00202686 -0.000495417 9.18068e-22)
(0.270398 0.00366063 7.15919e-22)
(0.695492 0.101043 -1.25044e-21)
(1.02346 0.171484 1.12423e-22)
(1.20239 0.211016 0)
(1.27579 0.222802 0)
(1.29473 0.217334 0)
(1.29188 0.204726 -1.20382e-21)
(1.28164 0.189984 -4.74342e-22)
(1.27239 0.171012 3.73951e-22)
(0.014001 -0.00484076 8.50108e-22)
(0.336899 0.0141945 -7.10179e-22)
(0.777663 0.123279 7.2881e-23)
(1.08033 0.191656 0)
(1.23109 0.22596 6.56309e-22)
(1.28518 0.232957 4.35708e-22)
(1.29408 0.224302 5.00454e-23)
(1.28691 0.210167 -5.24556e-23)
(1.27527 0.194084 1.13609e-22)
(1.2654 0.175145 -4.59265e-23)
(0.0339417 -0.00841054 -9.64876e-22)
(0.407067 0.0295262 8.98376e-23)
(0.853577 0.146527 5.7728e-22)
(1.12834 0.211673 -1.6099e-22)
(1.2527 0.240262 -4.92299e-22)
(1.29032 0.242631 -6.19135e-22)
(1.29135 0.2311 4.89581e-23)
(1.28105 0.215565 2.9703e-22)
(1.26848 0.19822 0)
(1.25819 0.179286 -4.09096e-23)
(0.0579628 -0.0105448 -6.252e-23)
(0.479009 0.0489945 0)
(0.922271 0.170485 6.15334e-24)
(1.1681 0.231482 0)
(1.26825 0.254001 6.39902e-22)
(1.29206 0.251946 -4.75039e-22)
(1.28703 0.237806 0)
(1.27449 0.220951 9.70889e-24)
(1.26134 0.202395 0)
(1.25075 0.183425 0)
(0.0860033 -0.0105529 -1.24963e-22)
(0.550916 0.0718347 8.16106e-22)
(0.983294 0.194937 -6.58108e-22)
(1.20031 0.251026 1.08891e-22)
(1.27869 0.267256 -2.92425e-22)
(1.29108 0.261 -5.07915e-23)
(1.28146 0.244468 0)
(1.26736 0.226337 2.05631e-22)
(1.25388 0.206604 5.29183e-23)
(1.24308 0.187544 1.51573e-22)
(0.117765 -0.00783496 -5.2632e-22)
(0.621171 0.0973718 -3.29426e-22)
(1.03657 0.219719 -1.08404e-22)
(1.22568 0.270245 4.34911e-22)
(1.28481 0.280099 3.59154e-23)
(1.28789 0.269867 4.63243e-22)
(1.27489 0.251114 0)
(1.25972 0.231722 -2.47953e-22)
(1.24611 0.210833 4.60982e-23)
(1.23516 0.191623 -3.34142e-22)
(0.152751 -0.00199146 -5.26319e-22)
(0.688393 0.125071 3.42536e-22)
(1.08229 0.24471 -4.11556e-24)
(1.24491 0.289082 -5.06267e-22)
(1.28729 0.292592 -2.67363e-22)
(1.28292 0.278601 -2.61589e-23)
(1.26746 0.257751 2.18416e-23)
(1.25163 0.237094 2.76829e-22)
(1.23803 0.215065 -2.32964e-24)
(1.22698 0.195638 1.08692e-22)
(0.190316 0.00712614 -2.71122e-22)
(0.751434 0.154502 0)
(1.12081 0.269801 -2.95856e-22)
(1.25864 0.307487 0)
(1.28668 0.304779 -3.36689e-22)
(1.27645 0.287233 2.90422e-23)
(1.2593 0.264371 0)
(1.24309 0.242432 0)
(1.22962 0.219277 0)
(1.21853 0.199562 0)
(0.229722 0.0194388 2.37799e-22)
(0.809384 0.185284 1.14952e-22)
(1.15258 0.294887 2.95857e-22)
(1.26749 0.325425 0)
(1.28344 0.31669 0)
(1.2687 0.295772 -1.20986e-23)
(1.25045 0.270952 4.6539e-23)
(1.23411 0.247709 5.32488e-23)
(1.22089 0.223442 4.93266e-23)
(1.20982 0.203364 -8.17546e-24)
(0.270181 0.0347175 -4.30153e-24)
(0.861599 0.217054 -1.07577e-22)
(1.17805 0.319849 4.92885e-24)
(1.27201 0.342878 5.8273e-24)
(1.27792 0.328339 -8.90597e-24)
(1.25983 0.304211 3.38799e-24)
(1.24097 0.277466 -4.06029e-23)
(1.22469 0.252894 -4.9763e-23)
(1.21181 0.227527 -3.733e-23)
(1.20085 0.20701 1.50647e-24)
(0.310897 0.0526654 0)
(0.907743 0.249465 -1.08472e-22)
(1.1976 0.344567 -3.34915e-24)
(1.27267 0.35983 6.83243e-24)
(1.27041 0.339724 1.22288e-37)
(1.24995 0.312526 -8.59102e-38)
(1.23087 0.283872 -3.64316e-23)
(1.21482 0.257953 -4.34342e-23)
(1.20239 0.231489 -3.42628e-23)
(1.19167 0.210466 0)
(0.351087 0.0729669 3.11658e-22)
(0.947718 0.282227 8.89369e-23)
(1.21163 0.368929 2.94991e-22)
(1.26989 0.376256 -1.3335e-23)
(1.26113 0.350827 0)
(1.23913 0.320679 1.03526e-23)
(1.22017 0.290129 2.38672e-23)
(1.2045 0.262846 4.67164e-23)
(1.19261 0.235282 2.65223e-23)
(1.18224 0.213709 6.50595e-24)
(0.39001 0.0953219 -2.77755e-22)
(0.981524 0.315078 0)
(1.22053 0.39281 -2.78872e-22)
(1.26403 0.392118 0)
(1.25027 0.361613 -2.81772e-23)
(1.22742 0.328622 2.3462e-23)
(1.20886 0.296186 0)
(1.19372 0.267534 0)
(1.18248 0.238863 0)
(1.17254 0.21672 0)
(0.426982 0.119452 5.5065e-22)
(1.00924 0.347779 -3.53465e-22)
(1.22465 0.416087 -6.78632e-23)
(1.25539 0.407373 -2.78155e-22)
(1.23797 0.372034 -2.5809e-22)
(1.21486 0.336299 1.79846e-23)
(1.19696 0.301995 -1.50164e-23)
(1.18247 0.27197 1.25512e-22)
(1.17204 0.242204 2.12417e-24)
(1.1625 0.219473 9.27102e-23)
(0.461387 0.145092 -5.50651e-22)
(1.03102 0.380104 -4.26821e-22)
(1.22436 0.438636 9.45532e-23)
(1.24424 0.42197 3.32554e-22)
(1.22434 0.382031 -1.57261e-23)
(1.20148 0.343646 2.77021e-22)
(1.18444 0.307499 0)
(1.17075 0.276096 -1.4308e-22)
(1.16133 0.245295 -2.22124e-23)
(1.15207 0.221984 -1.1693e-22)
(0.492694 0.171968 1.31096e-22)
(1.04704 0.411835 7.2937e-22)
(1.21997 0.460327 -4.25327e-22)
(1.23081 0.435851 -8.05809e-23)
(1.20946 0.391537 -1.92704e-22)
(1.18729 0.350597 4.13059e-23)
(1.17133 0.312643 -2.49427e-23)
(1.1586 0.279848 1.38409e-22)
(1.15033 0.248119 -2.30684e-23)
(1.14134 0.224283 6.27101e-23)
(0.520465 0.199791 6.63791e-23)
(1.0575 0.442759 0)
(1.21176 0.481027 2.66435e-23)
(1.2153 0.448948 0)
(1.19339 0.400476 3.86183e-22)
(1.17233 0.35708 -2.50701e-22)
(1.15765 0.317366 0)
(1.14607 0.283185 -1.68403e-23)
(1.13899 0.250616 0)
(1.13042 0.226196 0)
(0.544351 0.22825 -1.01958e-21)
(1.06262 0.472658 -7.88694e-23)
(1.20003 0.500604 5.18652e-22)
(1.19787 0.461183 5.92923e-23)
(1.17619 0.408762 -3.98805e-22)
(1.15665 0.363022 -1.40297e-22)
(1.14345 0.321607 -1.93326e-23)
(1.13317 0.286079 7.8757e-23)
(1.12725 0.252745 -1.62459e-23)
(1.11932 0.22775 8.71513e-24)
(0.564098 0.257008 1.13492e-21)
(1.06262 0.501312 -6.83189e-22)
(1.18503 0.518919 -1.50197e-22)
(1.17866 0.472473 7.35697e-23)
(1.15795 0.416305 3.12861e-22)
(1.14032 0.368344 2.13618e-22)
(1.12873 0.325308 -1.63497e-23)
(1.1199 0.288498 -2.05315e-23)
(1.11518 0.25446 -2.20496e-23)
(1.10805 0.228887 7.87147e-24)
(0.57954 0.285715 9.40344e-22)
(1.05777 0.528497 6.62879e-22)
(1.16698 0.535825 -6.31269e-22)
(1.15785 0.482725 -6.67128e-23)
(1.13882 0.423032 0)
(1.12332 0.37296 0)
(1.1135 0.328413 0)
(1.10628 0.290401 -1.99056e-22)
(1.1028 0.25573 -4.50176e-23)
(1.09662 0.229586 1.82136e-23)
(0.590594 0.314011 -1.83033e-21)
(1.0483 0.553993 0)
(1.14609 0.551155 1.34693e-21)
(1.13563 0.491842 3.5159e-22)
(1.11884 0.428865 0)
(1.10563 0.376799 0)
(1.0978 0.330857 -9.78476e-23)
(1.09232 0.291746 8.12437e-23)
(1.09015 0.256518 4.5018e-23)
(1.08506 0.229811 -1.82129e-23)
(0.597256 0.341531 9.86422e-22)
(1.03451 0.577601 -7.91537e-23)
(1.1226 0.56474 -6.35008e-22)
(1.11215 0.499708 -3.84614e-22)
(1.09801 0.43372 2.74097e-23)
(1.08734 0.379794 1.3062e-22)
(1.08168 0.332582 5.09007e-23)
(1.07806 0.292493 3.89223e-24)
(1.07726 0.256792 -1.18396e-23)
(1.07341 0.229535 2.65381e-23)
(0.599598 0.367909 -1.16995e-23)
(1.01674 0.599132 9.60195e-22)
(1.09679 0.576463 -8.39462e-23)
(1.08743 0.506157 2.01143e-22)
(1.0764 0.437523 9.39358e-23)
(1.06849 0.381877 -4.33762e-23)
(1.06519 0.333532 4.08391e-23)
(1.06353 0.292603 -6.00563e-24)
(1.06417 0.256516 -2.23276e-23)
(1.06169 0.22873 -1.89586e-23)
(0.59776 0.39278 0)
(0.995263 0.61836 -8.43182e-22)
(1.06891 0.58623 -7.23178e-23)
(1.06157 0.511061 -6.67695e-23)
(1.0541 0.440168 -9.52278e-23)
(1.04915 0.382985 -6.11891e-23)
(1.04837 0.333655 -6.34025e-23)
(1.04878 0.292039 0)
(1.05091 0.255657 0)
(1.04994 0.227359 0)
(0.591942 0.415816 8.21957e-23)
(0.970173 0.63494 -6.78843e-22)
(1.03931 0.593995 0)
(1.03473 0.514344 -7.90565e-23)
(1.03119 0.441565 8.19808e-24)
(1.0294 0.383058 0)
(1.03129 0.332906 5.80759e-23)
(1.03384 0.290767 1.12422e-22)
(1.0375 0.254179 -2.32956e-23)
(1.0382 0.225379 1.95669e-23)
(0.582367 0.436802 -6.00006e-23)
(0.941695 0.648574 7.28097e-22)
(1.00827 0.599613 0)
(1.00705 0.515966 -9.24407e-23)
(1.00777 0.441632 1.35993e-24)
(1.0093 0.38204 1.58786e-22)
(1.01401 0.331242 1.85034e-23)
(1.01876 0.288756 -1.2791e-22)
(1.02399 0.252046 0)
(1.02652 0.222748 -2.32406e-22)
(0.569251 0.455516 -8.30421e-22)
(0.910308 0.659146 -4.02766e-23)
(0.97593 0.602876 -7.47183e-24)
(0.978676 0.515859 6.18051e-24)
(0.983922 0.440294 2.13272e-22)
(0.988935 0.379876 -1.58788e-22)
(0.996586 0.328628 -2.20946e-22)
(1.00358 0.285974 -1.93045e-22)
(1.01041 0.249231 -3.28811e-22)
(1.01502 0.219462 2.03433e-22)
(0.552712 0.471604 8.79491e-22)
(0.876576 0.666642 0)
(0.942528 0.603653 -2.99364e-23)
(0.949757 0.513957 3.80025e-24)
(0.95976 0.437491 -5.32098e-22)
(0.968397 0.376522 0)
(0.979084 0.325032 2.20948e-22)
(0.988329 0.282383 -4.05924e-23)
(0.99687 0.245708 3.73317e-22)
(1.00399 0.215557 -3.73758e-23)
(0.532966 0.484646 0)
(0.84088 0.67091 9.54232e-23)
(0.908262 0.601882 2.53423e-23)
(0.920446 0.51019 0)
(0.935393 0.433171 3.18827e-22)
(0.947773 0.371938 0)
(0.96156 0.320428 -3.30898e-22)
(0.973057 0.277944 2.3364e-22)
(0.983541 0.241435 4.48009e-22)
(0.993728 0.211102 3.53016e-22)
(0.510499 0.494475 -2.61934e-23)
(0.803566 0.67181 -7.3923e-23)
(0.873364 0.597503 0)
(0.890901 0.504499 0)
(0.91094 0.427294 0)
(0.927154 0.366095 5.33199e-23)
(0.944075 0.314796 2.41977e-22)
(0.957858 0.272631 3.71661e-23)
(0.970615 0.236355 -4.48011e-22)
(0.984117 0.206044 -3.9642e-22)
(0.485727 0.500919 0)
(0.764978 0.66923 2.16792e-22)
(0.838071 0.590473 0)
(0.861283 0.496832 0)
(0.886522 0.41983 0)
(0.906632 0.35897 -6.2187e-23)
(0.926703 0.308122 5.42749e-22)
(0.942854 0.266448 -1.24168e-22)
(0.95817 0.230479 -4.28309e-22)
(0.974497 0.198888 -4.32654e-22)
(0.459061 0.503847 0)
(0.725476 0.663089 -2.16793e-22)
(0.802627 0.580764 4.58601e-22)
(0.831757 0.487155 0)
(0.862265 0.410756 7.441e-22)
(0.886304 0.350548 0)
(0.909532 0.300392 -4.40007e-22)
(0.928157 0.259408 3.92445e-22)
(0.94596 0.224265 5.60825e-22)
(0.963593 0.193715 4.31294e-22)
(0.430912 0.503164 -4.00371e-22)
(0.685423 0.653341 0)
(0.767275 0.568367 -3.91432e-22)
(0.802492 0.475444 -5.55633e-23)
(0.838296 0.400063 -1.59246e-21)
(0.866267 0.34082 0)
(0.892655 0.291592 5.46103e-22)
(0.913835 0.251436 3.76669e-23)
(0.934102 0.216995 5.92232e-22)
(0.953117 0.187093 2.43241e-24)
(0.40169 0.498817 4.39267e-22)
(0.645184 0.639968 -3.19274e-23)
(0.732259 0.55329 -7.96062e-23)
(0.773661 0.461694 -6.58485e-23)
(0.814744 0.387754 8.48365e-22)
(0.846623 0.329791 -7.57831e-22)
(0.876154 0.281739 -5.46106e-22)
(0.89989 0.24263 -4.30116e-22)
(0.922437 0.20915 -6.69284e-22)
(0.942624 0.180248 6.20751e-22)
(0.371799 0.490794 -5.1948e-23)
(0.605121 0.622983 -8.00736e-22)
(0.697817 0.535559 0)
(0.745433 0.445916 5.73385e-22)
(0.791738 0.37384 6.31756e-23)
(0.827476 0.31747 7.57835e-22)
(0.86012 0.270833 -7.52581e-23)
(0.886395 0.232938 -4.39121e-22)
(0.911112 0.200523 0)
(0.932432 0.172709 -5.53781e-22)
(0.341636 0.479119 6.01781e-23)
(0.565591 0.60243 8.43381e-22)
(0.664186 0.515219 0)
(0.71798 0.428134 -1.45068e-23)
(0.769408 0.358346 6.99614e-23)
(0.808928 0.303879 0)
(0.844629 0.258902 6.94846e-22)
(0.873383 0.222416 5.02114e-22)
(0.900145 0.191247 9.56345e-23)
(0.922591 0.164633 -8.03303e-23)
(0.311588 0.463853 0)
(0.526941 0.578381 1.27735e-21)
(0.631596 0.492333 -1.13113e-22)
(0.691468 0.40839 6.72379e-23)
(0.747882 0.341307 6.19842e-22)
(0.791082 0.289048 1.07223e-21)
(0.82976 0.245968 -7.88395e-22)
(0.860917 0.211069 0)
(0.889608 0.181298 0)
(0.913184 0.155979 0)
(0.282028 0.445095 2.41881e-24)
(0.489509 0.550936 -1.05986e-21)
(0.600269 0.466982 1.2664e-22)
(0.666062 0.386742 -8.86275e-22)
(0.727285 0.322771 -5.37039e-22)
(0.774036 0.273016 1.81088e-22)
(0.81559 0.232067 -7.92247e-22)
(0.84905 0.198936 5.22964e-22)
(0.879552 0.170719 5.63802e-22)
(0.904266 0.14678 -4.39448e-22)
(0.253315 0.422981 -7.46069e-22)
(0.453612 0.520217 -8.30725e-23)
(0.57042 0.439265 1.16584e-21)
(0.641921 0.363261 9.11658e-22)
(0.707741 0.302796 0)
(0.757886 0.255833 -1.02191e-21)
(0.802191 0.217238 -4.0967e-23)
(0.837839 0.186048 -6.73072e-22)
(0.870031 0.159528 -3.95322e-22)
(0.895883 0.137057 3.49693e-22)
(0.225789 0.397694 1.7883e-21)
(0.41955 0.486365 0)
(0.542254 0.409295 -2.41613e-21)
(0.619195 0.338033 -7.9792e-22)
(0.689366 0.281451 -9.44142e-23)
(0.742726 0.237554 0)
(0.789634 0.20153 8.2511e-22)
(0.827338 0.172447 -6.55794e-22)
(0.861098 0.147758 -4.97757e-22)
(0.888074 0.126841 3.79977e-22)
(0.199764 0.369453 -9.41032e-22)
(0.387598 0.449536 -8.2855e-22)
(0.515971 0.377199 1.40657e-21)
(0.598031 0.31116 -1.29272e-22)
(0.672273 0.258817 0)
(0.728641 0.218246 0)
(0.777986 0.184994 0)
(0.8176 0.158176 1.3366e-21)
(0.8528 0.135441 4.97759e-22)
(0.880874 0.116166 -3.79976e-22)
(0.17551 0.33848 -9.76572e-22)
(0.358026 0.409942 8.25472e-22)
(0.491763 0.34312 8.6893e-23)
(0.578565 0.282755 0)
(0.656568 0.234983 -8.1441e-22)
(0.715715 0.197982 -5.43105e-22)
(0.767309 0.16769 -6.03155e-23)
(0.808676 0.143284 1.05393e-22)
(0.845183 0.122617 -1.32003e-22)
(0.874313 0.105068 5.26631e-23)
(0.153266 0.304978 1.1088e-21)
(0.331085 0.367837 -1.11288e-22)
(0.469805 0.307222 -9.10483e-22)
(0.560924 0.252947 2.02551e-22)
(0.642347 0.21005 6.06387e-22)
(0.704022 0.176842 7.72669e-22)
(0.757663 0.149684 -6.24151e-23)
(0.800611 0.127823 -3.41585e-22)
(0.838292 0.109328 0)
(0.868418 0.0935909 4.94648e-23)
(0.133256 0.269176 7.59866e-23)
(0.307004 0.323484 0)
(0.450249 0.269687 -2.84673e-23)
(0.545225 0.221872 0)
(0.629702 0.184124 -8.70275e-22)
(0.693632 0.154914 6.53992e-22)
(0.749099 0.131046 0)
(0.793449 0.111848 8.96761e-24)
(0.832166 0.0956202 0)
(0.863214 0.081777 0)
(0.115692 0.231332 1.57543e-22)
(0.285983 0.277153 -1.07403e-21)
(0.433231 0.230705 8.53753e-22)
(0.53157 0.189681 -1.46734e-22)
(0.61871 0.157321 3.7682e-22)
(0.684607 0.13229 1.0307e-22)
(0.741665 0.111851 0)
(0.78723 0.0954215 -2.81606e-22)
(0.82684 0.0815434 -7.49569e-23)
(0.858718 0.0696729 -2.1678e-22)
(0.10076 0.191729 6.7361e-22)
(0.268195 0.229123 -1.59287e-21)
(0.418868 0.190484 1.46791e-22)
(0.52005 0.156529 -6.13105e-22)
(0.609441 0.129766 -6.87768e-23)
(0.677001 0.109068 -6.69486e-22)
(0.735404 0.092178 0)
(0.78199 0.0786077 3.84989e-22)
(0.822349 0.0671506 -6.87715e-23)
(0.854949 0.0573253 4.94611e-22)
(0.0886185 0.150664 -6.7361e-22)
(0.253786 0.179687 5.84256e-22)
(0.407258 0.149234 -1.01414e-22)
(0.510741 0.122582 7.19273e-22)
(0.601954 0.101586 3.9497e-22)
(0.67086 0.0853514 4.09412e-23)
(0.730351 0.0721093 -3.41837e-23)
(0.777759 0.0614742 -4.31158e-22)
(0.818719 0.0524979 3.86244e-24)
(0.851918 0.0447809 -1.64312e-22)
(0.0793979 0.108447 3.52386e-22)
(0.242875 0.129145 0)
(0.39848 0.107177 4.16493e-22)
(0.503705 0.0880095 0)
(0.596296 0.072915 5.54416e-23)
(0.666221 0.0612456 -4.61637e-23)
(0.726534 0.0517301 0)
(0.774562 0.0440902 0)
(0.815975 0.0376429 0)
(0.849636 0.0320875 0)
(0.073196 0.0654022 -3.087e-22)
(0.235551 0.077807 -1.18862e-22)
(0.392595 0.0645398 -4.16493e-22)
(0.498988 0.0529867 0)
(0.592505 0.043891 0)
(0.663113 0.0368599 2.08868e-23)
(0.723978 0.0311277 -8.33462e-23)
(0.77242 0.0265264 -9.89231e-23)
(0.814135 0.0226434 -9.22917e-23)
(0.84811 0.0192917 1.48944e-23)
(0.0700785 0.0218565 -5.58816e-24)
(0.231874 0.0259891 1.2822e-22)
(0.389642 0.0215523 -5.74047e-24)
(0.496622 0.0176925 1.97958e-23)
(0.590603 0.0146541 -7.80125e-24)
(0.661554 0.0123054 0)
(0.722696 0.0103909 6.59069e-23)
(0.771345 0.00885417 9.89231e-23)
(0.813211 0.00755741 7.01105e-23)
(0.847346 0.00643694 1.04737e-23)
(0.0700785 -0.0218565 -5.58816e-24)
(0.231874 -0.0259891 1.2822e-22)
(0.389642 -0.0215523 -5.74047e-24)
(0.496622 -0.0176925 1.97958e-23)
(0.590603 -0.0146541 -7.80125e-24)
(0.661554 -0.0123054 0)
(0.722696 -0.0103909 5.8056e-23)
(0.771345 -0.00885418 1.05494e-22)
(0.813211 -0.00755742 7.45588e-23)
(0.847346 -0.00643694 0)
(0.073196 -0.0654022 -3.96073e-22)
(0.235551 -0.077807 -1.54156e-22)
(0.392595 -0.0645398 -4.41502e-22)
(0.498988 -0.0529867 2.06867e-23)
(0.592505 -0.043891 0)
(0.663113 -0.0368599 -2.08868e-23)
(0.723978 -0.0311277 -4.84674e-23)
(0.77242 -0.0265264 -9.89231e-23)
(0.814135 -0.0226434 -5.68259e-23)
(0.84811 -0.0192917 -1.48944e-23)
(0.0793979 -0.108447 3.52386e-22)
(0.242875 -0.129145 0)
(0.39848 -0.107177 4.16493e-22)
(0.503705 -0.0880095 0)
(0.596296 -0.072915 5.54416e-23)
(0.666221 -0.0612456 -4.61637e-23)
(0.726534 -0.0517301 0)
(0.774562 -0.0440903 0)
(0.815975 -0.0376429 0)
(0.849636 -0.0320875 0)
(0.0886185 -0.150664 -6.7361e-22)
(0.253786 -0.179687 4.56329e-22)
(0.407258 -0.149234 1.01414e-22)
(0.510741 -0.122582 4.92534e-22)
(0.601954 -0.101586 5.16284e-22)
(0.67086 -0.0853514 -4.09412e-23)
(0.730351 -0.0721093 3.41837e-23)
(0.777759 -0.0614742 -3.38822e-22)
(0.818719 -0.0524979 -3.86244e-24)
(0.851918 -0.0447809 -2.75824e-22)
(0.10076 -0.191729 6.7361e-22)
(0.268195 -0.229123 5.52283e-22)
(0.418868 -0.190484 -1.46791e-22)
(0.52005 -0.156529 -5.987e-22)
(0.609441 -0.129766 5.02268e-23)
(0.677001 -0.109068 -6.69486e-22)
(0.735404 -0.092178 0)
(0.78199 -0.0786078 3.84989e-22)
(0.822349 -0.0671506 6.87715e-23)
(0.854949 -0.0573253 3.79084e-22)
(0.115692 -0.231332 -1.57543e-22)
(0.285983 -0.277153 1.07403e-21)
(0.433231 -0.230705 6.68125e-22)
(0.53157 -0.189681 1.46734e-22)
(0.61871 -0.157321 4.71034e-22)
(0.684607 -0.13229 -1.51014e-22)
(0.741665 -0.111851 6.59003e-23)
(0.78723 -0.0954215 -4.60325e-22)
(0.82684 -0.0815434 7.49569e-23)
(0.858718 -0.0696729 -2.1678e-22)
(0.133256 -0.269176 -7.59866e-23)
(0.307004 -0.323484 0)
(0.450249 -0.269687 -2.84673e-23)
(0.545225 -0.221872 0)
(0.629702 -0.184124 -8.70275e-22)
(0.693632 -0.154914 6.53992e-22)
(0.749099 -0.131046 0)
(0.793449 -0.111848 8.96761e-24)
(0.832166 -0.0956202 0)
(0.863214 -0.081777 0)
(0.153266 -0.304978 1.1088e-21)
(0.331085 -0.367837 1.11288e-22)
(0.469805 -0.307223 -6.40777e-22)
(0.560924 -0.252947 -1.31146e-22)
(0.642347 -0.21005 1.02244e-21)
(0.704022 -0.176842 4.58023e-22)
(0.757663 -0.149684 6.24151e-23)
(0.800611 -0.127823 -4.2674e-22)
(0.838292 -0.109328 7.14298e-23)
(0.868418 -0.0935909 -4.94648e-23)
(0.17551 -0.33848 -1.24103e-21)
(0.358026 -0.409942 8.31633e-22)
(0.491763 -0.34312 7.7967e-23)
(0.578565 -0.282755 -1.36369e-22)
(0.656568 -0.234983 -8.1441e-22)
(0.715715 -0.197982 -6.87583e-22)
(0.767309 -0.16769 6.03155e-23)
(0.808676 -0.143284 -5.98487e-23)
(0.845183 -0.122617 1.32003e-22)
(0.874313 -0.105068 -5.26631e-23)
(0.199764 -0.369453 -9.41032e-22)
(0.387598 -0.449536 -8.2855e-22)
(0.515971 -0.377199 1.09401e-21)
(0.598031 -0.31116 1.29272e-22)
(0.672273 -0.258817 0)
(0.728641 -0.218246 0)
(0.777986 -0.184994 0)
(0.8176 -0.158176 1.3366e-21)
(0.8528 -0.135441 4.97759e-22)
(0.880874 -0.116166 -3.79976e-22)
(0.225789 -0.397694 1.7883e-21)
(0.41955 -0.486365 0)
(0.542254 -0.409295 -2.41613e-21)
(0.619195 -0.338033 -9.11662e-22)
(0.689366 -0.281451 0)
(0.742726 -0.237554 0)
(0.789634 -0.20153 8.25109e-22)
(0.827338 -0.172447 -6.55794e-22)
(0.861098 -0.147758 -4.97757e-22)
(0.888074 -0.126841 3.79977e-22)
(0.253315 -0.422981 -9.48472e-22)
(0.453612 -0.520217 8.30725e-23)
(0.57042 -0.439265 1.16584e-21)
(0.641921 -0.363261 1.01862e-21)
(0.707741 -0.302796 -8.87841e-23)
(0.757886 -0.255833 -1.02191e-21)
(0.802191 -0.217238 -4.0967e-23)
(0.837839 -0.186048 -5.26137e-22)
(0.870031 -0.159528 -5.18575e-22)
(0.895883 -0.137057 3.49693e-22)
(0.282028 -0.445095 -2.41881e-24)
(0.489509 -0.550936 -1.22027e-21)
(0.600269 -0.466982 -1.2664e-22)
(0.666062 -0.386742 -6.86761e-22)
(0.727285 -0.322771 -5.47551e-22)
(0.774036 -0.273016 -1.86814e-22)
(0.81559 -0.232067 -7.76024e-22)
(0.84905 -0.198936 6.7624e-22)
(0.879552 -0.170719 3.50091e-22)
(0.904266 -0.14678 -2.59939e-22)
(0.311588 -0.463853 0)
(0.526941 -0.578381 1.00277e-21)
(0.631596 -0.492333 1.13113e-22)
(0.691468 -0.40839 6.72379e-23)
(0.747882 -0.341307 6.19842e-22)
(0.791082 -0.289048 8.48153e-22)
(0.82976 -0.245968 -6.87678e-22)
(0.860917 -0.211069 7.2295e-23)
(0.889608 -0.181298 0)
(0.913184 -0.155979 0)
(0.341636 -0.479119 -6.01781e-23)
(0.565591 -0.60243 8.43381e-22)
(0.664186 -0.515219 0)
(0.71798 -0.428134 1.54059e-22)
(0.769408 -0.358346 -6.99614e-23)
(0.808928 -0.303879 0)
(0.844629 -0.258902 6.94846e-22)
(0.873383 -0.222416 5.02114e-22)
(0.900145 -0.191247 -9.56345e-23)
(0.922591 -0.164633 8.03303e-23)
(0.371799 -0.490794 5.1948e-23)
(0.605121 -0.622983 -8.86019e-22)