/*--------------------------------*- C++ -*----------------------------------*\
  =========                 |
  \\      /  F ield         | OpenFOAM: The Open Source CFD Toolbox
   \\    /   O peration     | Website:  https://openfoam.org
    \\  /    A nd           | Version:  7
     \\/     M anipulation  |
\*---------------------------------------------------------------------------*/
FoamFile
{
    version     2.0;
    format      ascii;
    class       volScalarField;
    location    "2";
    object      p;
}
// * * * * * * * * * * * * * * * * * * * * * * * * * * * * * * * * * * * * * //

dimensions      [1 -1 -2 0 0 0 0];

internalField   nonuniform List<scalar> 
64512
(
1
1
1
1
1
1
1
1
1
1
1
1
1
1
1
1
1
1
1
1
1
1
1
1
1
1
1
1
1
1
1
1
1
1
1
1
1
1
1
1
1
1
1
1
1
1
1
1
1
1
6.1722
10.417
10.5197
10.5723
10.6307
10.6844
10.7419
10.8043
10.8724
10.9405
11.0019
11.0536
11.0974
11.1356
11.1762
11.2256
11.2836
11.3425
11.3951
11.439
11.473
11.5037
11.5384
11.5775
11.6199
11.6642
11.7077
11.7472
11.7795
11.8041
11.8238
11.8438
11.8675
11.8941
11.9198
11.9398
11.9533
11.9616
11.9736
11.9928
12.0211
12.0515
12.0759
12.0954
12.1093
12.1147
1
1
1
1
1
1
1
1
1
1
1
1
1
1
1
1
1
1
1
1
1
1
1
1
1
1
1
1
1
1
1
1
1
1
1
1
1
1
1
1
1
1
1
1
1
1
1
1
1
1
6.13481
10.4117
10.5168
10.5688
10.628
10.6818
10.7388
10.8009
10.8687
10.9367
10.9977
11.0487
11.0922
11.1313
11.1728
11.2232
11.2822
11.3416
11.394
11.4369
11.4708
11.502
11.5371
11.5763
11.6184
11.6623
11.7056
11.7448
11.7772
11.8021
11.8224
11.8426
11.8658
11.8914
11.9162
11.936
11.9498
11.9596
11.9726
11.9919
12.019
12.0475
12.0713
12.0906
12.1047
12.1108
1
1
1
1
1
1
1
1
1
1
1
1
1
1
1
1
1
1
1
1
1
1
1
1
1
1
1
1
1
1
1
1
1
1
1
1
1
1
1
1
1
1
1
1
1
1
1
1
1
1
6.05242
10.4082
10.5097
10.5612
10.6226
10.6771
10.7338
10.7953
10.8625
10.9302
10.9909
11.0418
11.0856
11.1252
11.1675
11.2186
11.2785
11.3384
11.3912
11.4335
11.4672
11.4986
11.5341
11.5734
11.6154
11.659
11.7018
11.7406
11.7728
11.7983
11.8196
11.8406
11.8636
11.8879
11.9113
11.93
11.9438
11.955
11.9695
11.9898
12.016
12.0426
12.0656
12.0837
12.0969
12.1033
1
1
1
1
1
1
1
1
1
1
1
1
1
1
1
1
1
1
1
1
1
1
1
1
1
1
1
1
1
1
1
1
1
1
1
1
1
1
1
1
1
1
1
1
1
1
1
1
1
1
5.92409
10.4038
10.5023
10.5544
10.617
10.6718
10.7277
10.788
10.8541
10.921
10.9813
11.0324
11.0769
11.1173
11.1604
11.2121
11.2726
11.3327
11.386
11.4281
11.462
11.4938
11.5295
11.5686
11.6104
11.6537
11.6959
11.734
11.7659
11.7921
11.8146
11.8365
11.8593
11.8825
11.9046
11.9226
11.9364
11.9487
11.9642
11.9853
12.0105
12.035
12.057
12.0738
12.0859
12.0923
1
1
1
1
1
1
1
1
1
1
1
1
1
1
1
1
1
1
1
1
1
1
1
1
1
1
1
1
1
1
1
1
1
1
1
1
1
1
1
1
1
1
1
1
1
1
1
1
1
1
5.75033
10.3899
10.4936
10.548
10.6115
10.6664
10.7216
10.7803
10.8448
10.9104
10.9701
11.0217
11.0674
11.1089
11.1525
11.2042
11.2644
11.324
11.378
11.4206
11.4556
11.4879
11.5237
11.5624
11.6041
11.647
11.6886
11.7259
11.7573
11.7837
11.807
11.8297
11.8526
11.8751
11.8968
11.9145
11.9284
11.9411
11.957
11.9781
12.0022
12.025
12.0462
12.0617
12.0722
12.0783
1
1
1
1
1
1
1
1
1
1
1
1
1
1
1
1
1
1
1
1
1
1
1
1
1
1
1
1
1
1
1
1
1
1
1
1
1
1
1
1
1
1
1
1
1
1
1
1
1
1
5.52943
10.3614
10.4835
10.5418
10.6069
10.6623
10.7163
10.7734
10.8358
10.8996
10.9582
11.01
11.0569
11.0996
11.1434
11.1946
11.2538
11.3128
11.3675
11.4114
11.4478
11.4808
11.5163
11.5544
11.5952
11.6375
11.6782
11.7147
11.7456
11.7721
11.7958
11.8191
11.8423
11.8648
11.8867
11.9052
11.9195
11.9324
11.9476
11.968
11.9908
12.0125
12.0331
12.0477
12.0568
12.0623
1
1
1
1
1
1
1
1
1
1
1
1
1
1
1
1
1
1
1
1
1
1
1
1
1
1
1
1
1
1
1
1
1
1
1
1
1
1
1
1
1
1
1
1
1
1
1
1
1
1
5.2625
10.3167
10.4715
10.5343
10.602
10.659
10.7129
10.7677
10.8272
10.889
10.9462
10.9978
11.0458
11.0895
11.1333
11.1839
11.2415
11.2995
11.3542
11.3992
11.4371
11.4711
11.5068
11.5442
11.5842
11.6256
11.6655
11.7014
11.7322
11.7586
11.7825
11.806
11.8291
11.8518
11.8746
11.8947
11.9101
11.9231
11.9368
11.9553
11.9764
11.997
12.0168
12.0309
12.0391
12.0441
1
1
1
1
1
1
1
1
1
1
1
1
1
1
1
1
1
1
1
1
1
1
1
1
1
1
1
1
1
1
1
1
1
1
1
1
1
1
1
1
1
1
1
1
1
1
1
1
1
1
4.95223
10.2556
10.4596
10.5251
10.5945
10.6541
10.7092
10.7628
10.8195
10.8787
10.9341
10.9851
11.0337
11.0782
11.122
11.1719
11.2275
11.284
11.3382
11.3839
11.4234
11.4587
11.495
11.5321
11.5713
11.6118
11.6507
11.6862
11.717
11.7435
11.7671
11.7898
11.8122
11.8349
11.8589
11.8811
11.8982
11.9117
11.9243
11.9406
11.9595
11.9786
11.9975
12.0114
12.0199
12.025
1
1
1
1
1
1
1
1
1
1
1
1
1
1
1
1
1
1
1
1
1
1
1
1
1
1
1
1
1
1
1
1
1
1
1
1
1
1
1
1
1
1
1
1
1
1
1
1
1
1
4.60222
10.1755
10.4489
10.5142
10.5848
10.6463
10.7027
10.7564
10.8116
10.8687
10.9225
10.9723
11.0209
11.0656
11.109
11.1579
11.2115
11.2664
11.3199
11.3662
11.4073
11.4441
11.4811
11.5179
11.5561
11.5952
11.633
11.6681
11.6993
11.7262
11.7495
11.7708
11.7923
11.8154
11.8404
11.8645
11.8837
11.8985
11.9106
11.9249
11.9411
11.9578
11.9747
11.9884
11.9978
12.0035
1
1
1
1
1
1
1
1
1
1
1
1
1
1
1
1
1
1
1
1
1
1
1
1
1
1
1
1
1
1
1
1
1
1
1
1
1
1
1
1
1
1
1
1
1
1
1
1
1
1
4.21941
10.0709
10.4424
10.5034
10.5725
10.6352
10.6928
10.7467
10.8009
10.8571
10.9097
10.9589
11.0078
11.0532
11.0969
11.1449
11.1963
11.2489
11.3006
11.3464
11.3882
11.4262
11.4638
11.5003
11.5376
11.5757
11.6127
11.6479
11.6798
11.7071
11.7299
11.7502
11.7708
11.7939
11.8195
11.8448
11.8657
11.8821
11.8944
11.9073
11.9211
11.9345
11.9489
11.9619
11.9725
11.9788
1
1
1
1
1
1
1
1
1
1
1
1
1
1
1
1
1
1
1
1
1
1
1
1
1
1
1
1
1
1
1
1
1
1
1
1
1
1
1
1
1
1
1
1
1
1
1
1
1
1
3.81456
9.9273
10.4382
10.4957
10.5617
10.6233
10.6814
10.7355
10.7896
10.8454
10.8972
10.9452
10.993
11.0382
11.0814
11.1285
11.178
11.2286
11.2786
11.324
11.3667
11.4058
11.4442
11.4806
11.5174
11.5548
11.5911
11.6259
11.6575
11.6845
11.7068
11.7266
11.7472
11.7703
11.7963
11.8224
11.8446
11.8622
11.8752
11.8877
11.8994
11.9095
11.921
11.9329
11.9442
11.951
1
1
1
1
1
1
1
1
1
1
1
1
1
1
1
1
1
1
1
1
1
1
1
1
1
1
1
1
1
1
1
1
1
1
1
1
1
1
1
1
1
1
1
1
1
1
1
1
1
1
3.39996
9.73706
10.4348
10.4892
10.5525
10.6112
10.6681
10.7213
10.7742
10.8296
10.8814
10.9293
10.977
11.0226
11.0658
11.1119
11.1594
11.2079
11.2565
11.3019
11.3453
11.385
11.4233
11.4587
11.4944
11.5311
11.5667
11.6006
11.6315
11.658
11.6803
11.7006
11.722
11.7458
11.7718
11.798
11.8204
11.8385
11.8521
11.8647
11.8751
11.8824
11.8911
11.9014
11.9124
11.9193
1
1
1
1
1
1
1
1
1
1
1
1
1
1
1
1
1
1
1
1
1
1
1
1
1
1
1
1
1
1
1
1
1
1
1
1
1
1
1
1
1
1
1
1
1
1
1
1
1
1
2.97872
9.49882
10.4328
10.4805
10.5398
10.5961
10.6521
10.7047
10.7575
10.8123
10.8642
10.9123
10.9605
11.0068
11.0501
11.0953
11.1409
11.1873
11.2343
11.2792
11.3225
11.362
11.3998
11.4343
11.4694
11.506
11.5411
11.5739
11.603
11.6284
11.6507
11.6719
11.6946
11.7194
11.7455
11.7711
11.7931
11.811
11.8248
11.8374
11.847
11.8529
11.8596
11.8679
11.8774
11.8838
1
1
1
1
1
1
1
1
1
1
1
1
1
1
1
1
1
1
1
1
1
1
1
1
1
1
1
1
1
1
1
1
1
1
1
1
1
1
1
1
1
1
1
1
1
1
1
1
1
1
2.55671
9.19852
10.4367
10.4726
10.5269
10.5796
10.6342
10.6862
10.7386
10.7933
10.8459
10.8948
10.9437
10.9907
11.0342
11.0781
11.1216
11.1655
11.2108
11.2553
11.2985
11.3379
11.3751
11.4089
11.4437
11.4801
11.5143
11.5452
11.5722
11.5963
11.6187
11.6411
11.6653
11.6912
11.7174
11.7422
11.7632
11.7803
11.7936
11.8056
11.8149
11.8203
11.8256
11.8319
11.8389
11.8443
1
1
1
1
1
1
1
1
1
1
1
1
1
1
1
1
1
1
1
1
1
1
1
1
1
1
1
1
1
1
1
1
1
1
1
1
1
1
1
1
1
1
1
1
1
1
1
1
1
1
2.14885
8.8257
10.4415
10.4616
10.512
10.5619
10.6156
10.6675
10.7193
10.7731
10.8259
10.8755
10.9249
10.9727
11.0166
11.0594
11.1007
11.142
11.1855
11.2293
11.2727
11.3124
11.3496
11.3831
11.4175
11.4531
11.4858
11.515
11.5399
11.5628
11.5851
11.6082
11.6334
11.6599
11.686
11.7099
11.7301
11.7463
11.7587
11.7697
11.7784
11.7835
11.7883
11.793
11.7974
11.8017
1
1
1
1
1
1
1
1
1
1
1
1
1
1
1
1
1
1
1
1
1
1
1
1
1
1
1
1
1
1
1
1
1
1
1
1
1
1
1
1
1
1
1
1
1
1
1
1
1
1
1.77225
8.37229
10.4503
10.4451
10.4976
10.5447
10.5975
10.6488
10.6997
10.752
10.8044
10.8547
10.9051
10.9535
10.9979
11.0398
11.0791
11.1176
11.1586
11.2011
11.2444
11.2846
11.322
11.3555
11.3891
11.4232
11.4544
11.482
11.5055
11.5275
11.5497
11.5732
11.5989
11.6256
11.6514
11.6742
11.6934
11.7082
11.7191
11.7286
11.7364
11.7413
11.7461
11.7501
11.7524
11.756
1
1
1
1
1
1
1
1
1
1
1
1
1
1
1
1
1
1
1
1
1
1
1
1
1
1
1
1
1
1
1
1
1
1
1
1
1
1
1
1
1
1
1
1
1
1
1
1
1
1
1.45036
7.83733
10.4402
10.4186
10.4738
10.5212
10.5749
10.6265
10.6772
10.7288
10.7806
10.8305
10.8808
10.9298
10.9751
11.0167
11.0547
11.0906
11.1285
11.1686
11.211
11.2517
11.29
11.3242
11.3573
11.39
11.4199
11.4465
11.4696
11.4913
11.5132
11.5361
11.561
11.5867
11.6113
11.6327
11.6508
11.6646
11.6745
11.6828
11.6897
11.6941
11.6991
11.703
11.7043
11.7078
1
1
1
1
1
1
1
1
1
1
1
1
1
1
1
1
1
1
1
1
1
1
1
1
1
1
1
1
1
1
1
1
1
1
1
1
1
1
1
1
1
1
1
1
1
1
1
1
1
1
1.17589
7.22907
10.3788
10.3931
10.4498
10.5015
10.5572
10.6087
10.6578
10.7074
10.7576
10.8066
10.856
10.9043
10.9494
10.9907
11.0283
11.0624
11.0971
11.1338
11.1738
11.2141
11.253
11.2881
11.3211
11.3529
11.3821
11.4085
11.432
11.454
11.4753
11.497
11.5202
11.544
11.5667
11.5864
11.6034
11.6167
11.626
11.6334
11.639
11.642
11.6464
11.6498
11.6507
11.6541
1
1
1
1
1
1
1
1
1
1
1
1
1
1
1
1
1
1
1
1
1
1
1
1
1
1
1
1
1
1
1
1
1
1
1
1
1
1
1
1
1
1
1
1
1
1
1
1
1
1
1.00841
6.50855
10.2929
10.3576
10.4151
10.4741
10.5308
10.5821
10.6296
10.6777
10.7271
10.7761
10.8258
10.8749
10.9211
10.9636
11.0019
11.0354
11.0675
11.1002
11.1363
11.1747
11.2131
11.249
11.2825
11.3143
11.3432
11.3692
11.3924
11.4137
11.4339
11.4537
11.4748
11.4966
11.5171
11.535
11.5508
11.5636
11.5727
11.5793
11.5834
11.5845
11.5875
11.5905
11.5918
11.5955
1
1
1
1
1
1
1
1
1
1
1
1
1
1
1
1
1
1
1
1
1
1
1
1
1
1
1
1
1
1
1
1
1
1
1
1
1
1
1
1
1
1
1
1
1
1
1
1
1
1
1.00005
5.69716
10.1349
10.308
10.3821
10.452
10.5113
10.5629
10.6091
10.6556
10.704
10.752
10.8005
10.8487
10.894
10.9357
10.9738
11.0068
11.037
11.0662
11.0977
11.1326
11.1692
11.205
11.239
11.2715
11.3008
11.3265
11.349
11.3693
11.3881
11.4064
11.4256
11.4453
11.4635
11.4792
11.4934
11.5054
11.5141
11.52
11.5226
11.5215
11.5224
11.5242
11.5257
11.5293
1
1
1
1
1
1
1
1
1
1
1
1
1
1
1
1
1
1
1
1
1
1
1
1
1
1
1
1
1
1
1
1
1
1
1
1
1
1
1
1
1
1
1
1
1
1
1
1
1
1
1
4.8075
9.94897
10.2814
10.354
10.4256
10.484
10.5342
10.5788
10.6242
10.6731
10.7218
10.7697
10.8174
10.8627
10.9045
10.9434
10.9771
11.0064
11.0332
11.0603
11.0909
11.1243
11.159
11.1931
11.2267
11.2564
11.2813
11.3019
11.32
11.3368
11.3538
11.3717
11.3897
11.4055
11.4186
11.4302
11.4406
11.4486
11.4538
11.455
11.4518
11.4504
11.4507
11.4523
11.4554
1
1
1
1
1
1
1
1
1
1
1
1
1
1
1
1
1
1
1
1
1
1
1
1
1
1
1
1
1
1
1
1
1
1
1
1
1
1
1
1
1
1
1
1
1
1
1
1
1
1
1
3.90121
9.67608
10.2543
10.3409
10.4113
10.4654
10.5131
10.5573
10.602
10.6491
10.696
10.7418
10.7871
10.8306
10.8706
10.9088
10.9426
10.9711
10.9961
11.0197
11.0466
11.0774
11.111
11.1448
11.1787
11.2084
11.2319
11.2499
11.2652
11.2798
11.2956
11.3123
11.3288
11.3423
11.3526
11.3613
11.3696
11.3763
11.3806
11.3803
11.375
11.3708
11.3686
11.369
11.3706
1
1
1
1
1
1
1
1
1
1
1
1
1
1
1
1
1
1
1
1
1
1
1
1
1
1
1
1
1
1
1
1
1
1
1
1
1
1
1
1
1
1
1
1
1
1
1
1
1
1
1
3.06278
9.26246
10.2659
10.3248
10.3887
10.4381
10.4841
10.529
10.5756
10.6236
10.6709
10.7159
10.7588
10.8004
10.8386
10.8748
10.9073
10.9347
10.9587
10.98
11.0036
11.0318
11.0637
11.0964
11.1294
11.158
11.1795
11.1944
11.2063
11.2176
11.2314
11.2468
11.262
11.2733
11.2805
11.2858
11.2913
11.2955
11.2978
11.2956
11.2884
11.2814
11.2766
11.2757
11.2757
1
1
1
1
1
1
1
1
1
1
1
1
1
1
1
1
1
1
1
1
1
1
1
1
1
1
1
1
1
1
1
1
1
1
1
1
1
1
1
1
1
1
1
1
1
1
1
1
1
1
1
2.24088
8.64962
10.3163
10.3324
10.387
10.4314
10.4719
10.5121
10.5552
10.5998
10.6445
10.6881
10.729
10.7686
10.8052
10.8399
10.8711
10.8973
10.9205
10.9406
10.9617
10.9874
11.0173
11.0482
11.079
11.1055
11.1245
11.1362
11.1443
11.1517
11.1624
11.1755
11.1888
11.1977
11.2017
11.2036
11.2053
11.2067
11.2066
11.2019
11.1919
11.1809
11.172
11.1682
11.1653
1
1
1
1
1
1
1
1
1
1
1
1
1
1
1
1
1
1
1
1
1
1
1
1
1
1
1
1
1
1
1
1
1
1
1
1
1
1
1
1
1
1
1
1
1
1
1
1
1
1
1
1.51086
7.98977
10.4125
10.3017
10.3458
10.3899
10.4351
10.4797
10.5255
10.5712
10.6157
10.6584
10.6979
10.7355
10.771
10.8038
10.8335
10.8583
10.8807
10.9004
10.9195
10.9428
10.9702
10.9986
11.0264
11.0501
11.0662
11.0754
11.0796
11.0831
11.0896
11.0992
11.1093
11.1152
11.1158
11.1135
11.111
11.1076
11.1031
11.094
11.0802
11.0651
11.0526
11.0463
11.0416
1
1
1
1
1
1
1
1
1
1
1
1
1
1
1
1
1
1
1
1
1
1
1
1
1
1
1
1
1
1
1
1
1
1
1
1
1
1
1
1
1
1
1
1
1
1
1
1
1
1
1
1.05487
7.14085
10.3471
10.2607
10.3128
10.3623
10.408
10.4482
10.4894
10.5336
10.5805
10.6256
10.6647
10.6998
10.7338
10.7653
10.794
10.818
10.8391
10.8585
10.8762
10.8969
10.9211
10.9464
10.9705
10.991
11.0047
11.012
11.0123
11.0119
11.0141
11.0189
11.0242
11.0259
11.0218
11.0148
11.0074
10.9987
10.9888
10.9749
10.9559
10.9342
10.9145
10.9023
10.8929
1
1
1
1
1
1
1
1
1
1
1
1
1
1
1
1
1
1
1
1
1
1
1
1
1
1
1
1
1
1
1
1
1
1
1
1
1
1
1
1
1
1
1
1
1
1
1
1
1
1
1
1.00056
6.02132
10.0835
10.1748
10.2524
10.3154
10.3717
10.4202
10.4619
10.5026
10.5437
10.5846
10.6242
10.6603
10.6937
10.7239
10.7516
10.7752
10.7953
10.8142
10.8306
10.8489
10.8692
10.8909
10.911
10.928
10.9396
10.9449
10.9417
10.9378
10.9354
10.9347
10.9338
10.9296
10.9196
10.9069
10.8935
10.878
10.8598
10.8367
10.8079
10.7778
10.7512
10.7344
10.7239
1
1
1
1
1
1
1
1
1
1
1
1
1
1
1
1
1
1
1
1
1
1
1
1
1
1
1
1
1
1
1
1
1
1
1
1
1
1
1
1
1
1
1
1
1
1
1
1
1
1
1
1
4.90037
9.89579
10.1054
10.2097
10.2872
10.3389
10.3832
10.4215
10.4606
10.5025
10.5451
10.5825
10.615
10.6469
10.6769
10.7046
10.7289
10.7484
10.7663
10.7815
10.7975
10.8141
10.8321
10.8483
10.862
10.8715
10.8737
10.868
10.8605
10.8535
10.8468
10.8389
10.8273
10.81
10.7897
10.768
10.7439
10.7158
10.6825
10.6433
10.602
10.5608
10.5289
10.506
1
1
1
1
1
1
1
1
1
1
1
1
1
1
1
1
1
1
1
1
1
1
1
1
1
1
1
1
1
1
1
1
1
1
1
1
1
1
1
1
1
1
1
1
1
1
1
1
1
1
1
1
3.76837
9.45048
10.0966
10.1931
10.2622
10.3171
10.3583
10.3916
10.4255
10.4609
10.4979
10.5342
10.5676
10.599
10.627
10.653
10.6773
10.6973
10.7138
10.7278
10.7415
10.7549
10.7696
10.7827
10.7934
10.7999
10.7985
10.7903
10.779
10.7673
10.7541
10.7388
10.7189
10.6928
10.6628
10.6311
10.5961
10.5549
10.5043
10.4443
10.3791
10.3178
10.2707
10.2484
1
1
1
1
1
1
1
1
1
1
1
1
1
1
1
1
1
1
1
1
1
1
1
1
1
1
1
1
1
1
1
1
1
1
1
1
1
1
1
1
1
1
1
1
1
1
1
1
1
1
1
1
2.66279
8.8011
10.1485
10.188
10.2367
10.2858
10.3269
10.3619
10.392
10.4228
10.4567
10.4906
10.5209
10.5484
10.5744
10.5984
10.6223
10.6418
10.6564
10.6691
10.6801
10.6914
10.7027
10.7134
10.7216
10.7249
10.72
10.7086
10.6936
10.6769
10.6573
10.6343
10.6053
10.569
10.5273
10.4827
10.4328
10.3734
10.3017
10.219
10.129
10.0402
9.94803
9.86933
1
1
1
1
1
1
1
1
1
1
1
1
1
1
1
1
1
1
1
1
1
1
1
1
1
1
1
1
1
1
1
1
1
1
1
1
1
1
1
1
1
1
1
1
1
1
1
1
1
1
1
1
1.65606
8.11036
10.2576
10.1721
10.2091
10.2537
10.2934
10.3243
10.3526
10.3822
10.414
10.4464
10.4763
10.503
10.5267
10.5477
10.5662
10.5843
10.597
10.6075
10.615
10.6241
10.6326
10.6406
10.6459
10.6459
10.6382
10.6232
10.6038
10.5812
10.555
10.5241
10.4856
10.4384
10.3834
10.3229
10.2545
10.1738
10.0755
9.95553
9.8086
9.63609
9.46756
9.3454
1
1
1
1
1
1
1
1
1
1
1
1
1
1
1
1
1
1
1
1
1
1
1
1
1
1
1
1
1
1
1
1
1
1
1
1
1
1
1
1
1
1
1
1
1
1
1
1
1
1
1
1
1.05354
7.0543
10.2497
10.1666
10.1792
10.2075
10.2464
10.2818
10.3128
10.3418
10.3712
10.401
10.4295
10.4557
10.4792
10.4991
10.5144
10.5277
10.5379
10.5451
10.5479
10.5534
10.5591
10.5636
10.5653
10.5622
10.5519
10.5336
10.5096
10.4809
10.4477
10.4087
10.3608
10.3021
10.2325
10.1536
10.0631
9.95477
9.81919
9.64812
9.43804
9.18651
8.91684
8.74253
1
1
1
1
1
1
1
1
1
1
1
1
1
1
1
1
1
1
1
1
1
1
1
1
1
1
1
1
1
1
1
1
1
1
1
1
1
1
1
1
1
1
1
1
1
1
1
1
1
1
1
1
1.00025
5.67964
9.89384
10.0112
10.0966
10.1508
10.1942
10.2327
10.2677
10.2978
10.3261
10.3541
10.3813
10.4072
10.4304
10.4495
10.463
10.4731
10.4811
10.4846
10.4823
10.4822
10.4841
10.4844
10.4818
10.4749
10.4615
10.4397
10.4107
10.3757
10.3353
10.2878
10.2303
10.16
10.0751
9.97609
9.85998
9.72016
9.54415
9.31892
9.01827
8.57288
7.72999
5.77137
1
1
1
1
1
1
1
1
1
1
1
1
1
1
1
1
1
1
1
1
1
1
1
1
1
1
1
1
1
1
1
1
1
1
1
1
1
1
1
1
1
1
1
1
1
1
1
1
1
1
1
1
0.999998
4.3204
9.55337
9.99629
10.0715
10.1274
10.1616
10.1884
10.22
10.2495
10.2777
10.305
10.3313
10.3565
10.3791
10.3974
10.4098
10.4171
10.423
10.4239
10.4175
10.4118
10.4079
10.4038
10.3965
10.3849
10.3676
10.3415
10.3072
10.266
10.2181
10.1621
10.095
10.0129
9.9126
9.79283
9.64976
9.47577
9.25504
8.9602
8.54671
7.90239
6.93086
4.72427
1
1
1
1
1
1
1
1
1
1
1
1
1
1
1
1
1
1
1
1
1
1
1
1
1
1
1
1
1
1
1
1
1
1
1
1
1
1
1
1
1
1
1
1
1
1
1
1
1
1
1
1
1
2.97768
8.91143
10.0187
10.0579
10.0986
10.1306
10.1604
10.186
10.2092
10.2331
10.2574
10.2816
10.3049
10.326
10.3432
10.3548
10.3608
10.365
10.3622
10.3529
10.3423
10.3326
10.3233
10.3117
10.295
10.2724
10.2407
10.2003
10.1523
10.0968
10.0322
9.95536
9.86172
9.74629
9.60626
9.43655
9.22897
8.96386
8.61435
8.11329
7.45288
6.17307
4.34863
1
1
1
1
1
1
1
1
1
1
1
1
1
1
1
1
1
1
1
1
1
1
1
1
1
1
1
1
1
1
1
1
1
1
1
1
1
1
1
1
1
1
1
1
1
1
1
1
1
1
1
1
1
1.77781
8.18068
10.1034
10.028
10.0512
10.0923
10.1258
10.1508
10.1712
10.1905
10.2103
10.231
10.2516
10.2703
10.2859
10.2969
10.302
10.3036
10.2974
10.2856
10.2708
10.2561
10.242
10.2266
10.2052
10.1764
10.1383
10.0911
10.0358
9.97244
9.89937
9.81276
9.70772
9.57785
9.41918
9.22494
8.98815
8.68586
8.29669
7.75255
6.9923
5.75881
4.27034
1
1
1
1
1
1
1
1
1
1
1
1
1
1
1
1
1
1
1
1
1
1
1
1
1
1
1
1
1
1
1
1
1
1
1
1
1
1
1
1
1
1
1
1
1
1
1
1
1
1
1
1
1
1.07061
6.9358
10.0985
10.0107
10.0157
10.049
10.0833
10.1092
10.1295
10.1468
10.1633
10.1805
10.198
10.214
10.2278
10.2371
10.2412
10.2402
10.2314
10.2166
10.1982
10.1791
10.1606
10.1414
10.116
10.0815
10.0367
9.98203
9.91891
9.84718
9.76529
9.66882
9.55287
9.40984
9.23512
9.02028
8.75888
8.43001
8.0072
7.44931
6.65858
5.57152
4.36809
1
1
1
1
1
1
1
1
1
1
1
1
1
1
1
1
1
1
1
1
1
1
1
1
1
1
1
1
1
1
1
1
1
1
1
1
1
1
1
1
1
1
1
1
1
1
1
1
1
1
1
1
1
1.00041
5.34706
9.65805
9.86498
9.94239
9.99539
10.0317
10.0604
10.0829
10.1003
10.1152
10.1297
10.1443
10.1574
10.1684
10.1752
10.1777
10.1744
10.1634
10.146
10.1245
10.1015
10.0786
10.055
10.0258
9.98655
9.93569
9.87373
9.80284
9.72279
9.63208
9.52562
9.3992
9.24429
9.05619
8.82573
8.54561
8.19929
7.75883
7.20109
6.43955
5.51843
4.51698
1
1
1
1
1
1
1
1
1
1
1
1
1
1
1
1
1
1
1
1
1
1
1
1
1
1
1
1
1
1
1
1
1
1
1
1
1
1
1
1
1
1
1
1
1
1
1
1
1
1
1
1
1
0.999997
3.76586
9.25153
9.86999
9.92402
9.97112
9.9965
10.019
10.0392
10.0551
10.0682
10.0799
10.0914
10.1014
10.1092
10.1135
10.1139
10.1085
10.0954
10.0757
10.0512
10.0243
9.9966
9.96796
9.93466
9.89158
9.83611
9.76799
9.68974
9.60142
9.50193
9.38542
9.24898
9.08398
8.88562
8.64451
8.35233
7.99647
7.55429
7.00031
6.31045
5.52905
4.6599
1
1
1
1
1
1
1
1
1
1
1
1
1
1
1
1
1
1
1
1
1
1
1
1
1
1
1
1
1
1
1
1
1
1
1
1
1
1
1
1
1
1
1
1
1
1
1
1
1
1
1
1
1
0.999999
2.26169
8.4751
9.93396
9.90208
9.92719
9.95254
9.97875
9.99899
10.0133
10.0238
10.0322
10.0401
10.0464
10.0506
10.0518
10.0495
10.0421
10.0276
10.0064
9.97955
9.94893
9.91619
9.88184
9.84361
9.79662
9.73744
9.66465
9.58008
9.48385
9.37572
9.2501
9.10418
8.93045
8.72424
8.47689
8.17919
7.82181
7.38681
6.84986
6.23466
5.55146
4.79242
1
1
1
1
1
1
1
1
1
1
1
1
1
1
1
1
1
1
1
1
1
1
1
1
1
1
1
1
1
1
1
1
1
1
1
1
1
1
1
1
1
1
1
1
1
1
1
1
1
1
1
1
1
1
1.16254
7.31935
10.0178
9.90117
9.88181
9.9067
9.9329
9.95244
9.96647
9.97622
9.98243
9.98717
9.99024
9.99129
9.9899
9.98554
9.9768
9.96163
9.93945
9.91022
9.87536
9.83699
9.7963
9.75239
9.70106
9.63856
9.56249
9.47336
9.37065
9.25422
9.1205
8.96638
8.78598
8.57423
8.32362
8.02512
7.67299
7.24918
6.74604
6.19202
5.5796
4.91386
1
1
1
1
1
1
1
1
1
1
1
1
1
1
1
1
1
1
1
1
1
1
1
1
1
1
1
1
1
1
1
1
1
1
1
1
1
1
1
1
1
1
1
1
1
1
1
1
1
1
1
1
1
1
1.00246
5.70883
9.58062
9.7393
9.80198
9.84343
9.8763
9.89878
9.91457
9.92547
9.93082
9.93338
9.93346
9.9315
9.92749
9.92145
9.91168
9.89609
9.87317
9.84199
9.80354
9.76016
9.71343
9.66353
9.60718
9.54098
9.46204
9.36948
9.26161
9.13799
8.99717
8.83625
8.65111
8.43646
8.18551
7.88878
7.54623
7.13779
6.67321
6.17148
5.61136
5.03058
1
1
1
1
1
1
1
1
1
1
1
1
1
1
1
1
1
1
1
1
1
1
1
1
1
1
1
1
1
1
1
1
1
1
1
1
1
1
1
1
1
1
1
1
1
1
1
1
1
1
1
1
1
1
0.999974
3.896
9.15324
9.72947
9.77953
9.8158
9.83893
9.85575
9.86858
9.87762
9.88126
9.88152
9.87875
9.87368
9.86679
9.85881
9.84784
9.83133
9.80714
9.77396
9.73236
9.68446
9.63199
9.5759
9.5139
9.44358
9.36187
9.26675
9.15529
9.02648
8.88025
8.71456
8.52652
8.31113
8.06219
7.76943
7.4406
7.04758
6.61832
6.16369
5.64791
5.13885
1
1
1
1
1
1
1
1
1
1
1
1
1
1
1
1
1
1
1
1
1
1
1
1
1
1
1
1
1
1
1
1
1
1
1
1
1
1
1
1
1
1
1
1
1
1
1
1
1
1
1
1
1
1
0.999994
2.20798
8.44633
9.78547
9.75787
9.77075
9.79938
9.81379
9.82304
9.82877
9.83136
9.83009
9.82502
9.81696
9.80693
9.79633
9.78351
9.76528
9.73939
9.70465
9.66111
9.61026
9.55323
9.49137
9.42364
9.34889
9.26411
9.1665
9.05217
8.91955
8.76916
8.60024
8.41092
8.19678
7.95168
7.66694
7.35001
6.97265
6.58058
6.16287
5.68626
5.23049
1
1
1
1
1
1
1
1
1
1
1
1
1
1
1
1
1
1
1
1
1
1
1
1
1
1
1
1
1
1
1
1
1
1
1
1
1
1
1
1
1
1
1
1
1
1
1
1
1
1
1
1
1
1
0.999999
1.13912
7.05972
9.83724
9.74889
9.73944
9.75403
9.76695
9.7743
9.77919
9.78192
9.78038
9.77398
9.76337
9.74999
9.7357
9.71959
9.69841
9.67024
9.63403
9.58927
9.5365
9.47581
9.40855
9.3352
9.25584
9.16762
9.06751
8.95107
8.81634
8.66348
8.49265
8.30317
8.09148
7.8519
7.57924
7.27069
6.91274
6.55686
6.16099
5.72168
5.30646
1
1
1
1
1
1
1
1
1
1
1
1
1
1
1
1
1
1
1
1
1
1
1
1
1
1
1
1
1
1
1
1
1
1
1
1
1
1
1
1
1
1
1
1
1
1
1
1
1
1
1
1
1
1
1
1.0016
5.21558
9.35002
9.59677
9.68322
9.71582
9.72128
9.7236
9.72676
9.72928
9.7283
9.72171
9.70939
9.69304
9.67474
9.65477
9.63049
9.6002
9.56278
9.51725
9.46343
9.40034
9.32899
9.25069
9.1668
9.07478
8.97183
8.85355
8.71786
8.56398
8.39205
8.20271
7.99349
7.76088
7.50015
7.20003
6.86971
6.53926
6.15534
5.75964
5.37836
1
1
1
1
1
1
1
1
1
1
1
1
1
1
1
1
1
1
1
1
1
1
1
1
1
1
1
1
1
1
1
1
1
1
1
1
1
1
1
1
1
1
1
1
1
1
1
1
1
1
1
1
1
1
1
0.999987
3.16918
8.83974
9.66325
9.67124
9.68155
9.6844
9.6834
9.68207
9.68107
9.67838
9.67082
9.65683
9.63778
9.61528
9.59072
9.56261
9.52975
9.49089
9.44453
9.38987
9.32522
9.25129
9.16928
9.08085
8.98465
8.87852
8.75853
8.62304
8.47014
8.29865
8.11005
7.90269
7.67651
7.42356
7.13995
6.8398
6.51916
6.15228
5.80527
5.44324
1
1
1
1
1
1
1
1
1
1
1
1
1
1
1
1
1
1
1
1
1
1
1
1
1
1
1
1
1
1
1
1
1
1
1
1
1
1
1
1
1
1
1
1
1
1
1
1
1
1
1
1
1
1
1
0.999997
1.52083
7.86615
9.78165
9.65609
9.62924
9.63441
9.6333
9.62998
9.62667
9.62289
9.61537
9.60116
9.5809
9.5554
9.52704
9.49559
9.46048
9.42013
9.3726
9.31694
9.25135
9.17627
9.09211
8.99985
8.89939
8.78989
8.66822
8.53325
8.38266
8.21326
8.02684
7.82039
7.5986
7.3536
7.08958
6.80553
6.49572
6.16463
5.84775
5.49692
1
1
1
1
1
1
1
1
1
1
1
1
1
1
1
1
1
1
1
1
1
1
1
1
1
1
1
1
1
1
1
1
1
1
1
1
1
1
1
1
1
1
1
1
1
1
1
1
1
1
1
1
1
1
1
1
1.02617
6.19163
9.41719
9.52579
9.57199
9.58125
9.58032
9.57555
9.57048
9.56558
9.55807
9.54454
9.52413
9.49684
9.46533
9.43054
9.39269
9.35014
9.30068
9.24357
9.1772
9.10179
9.01675
8.92207
8.81793
8.70485
8.58152
8.44706
8.29951
8.13391
7.95231
7.74636
7.5301
7.29087
7.03605
6.77115
6.48315
6.1822
5.87662
5.54083
1
1
1
1
1
1
1
1
1
1
1
1
1
1
1
1
1
1
1
1
1
1
1
1
1
1
1
1
1
1
1
1
1
1
1
1
1
1
1
1
1
1
1
1
1
1
1
1
1
1
1
1
1
1
1
1
0.99996
3.98993
8.98968
9.48871
9.52685
9.544
9.53983
9.53107
9.52174
9.51337
9.50363
9.48987
9.46908
9.44057
9.40671
9.36876
9.32773
9.28229
9.23022
9.17127
9.10411
9.0287
8.94358
8.84794
8.74165
8.62585
8.50092
8.36657
8.22139
8.06026
7.88467
7.68086
7.47052
7.23367
6.992
6.74834
6.46908
6.1862
5.89241
5.58933
1
1
1
1
1
1
1
1
1
1
1
1
1
1
1
1
1
1
1
1
1
1
1
1
1
1
1
1
1
1
1
1
1
1
1
1
1
1
1
1
1
1
1
1
1
1
1
1
1
1
1
1
1
1
1
1
0.999986
2.01308
8.28304
9.57106
9.49782
9.49071
9.48705
9.47823
9.46798
9.45859
9.44765
9.43419
9.41356
9.38486
9.34953
9.30866
9.26416
9.21546
9.16065
9.09979
9.03162
8.95593
8.87091
8.77544
8.66876
8.55183
8.42583
8.29118
8.14702
7.99007
7.8193
7.62148
7.41665
7.18597
6.9616
6.71972
6.4474
6.18888
5.91474
5.64026
1
1
1
1
1
1
1
1
1
1
1
1
1
1
1
1
1
1
1
1
1
1
1
1
1
1
1
1
1
1
1
1
1
1
1
1
1
1
1
1
1
1
1
1
1
1
1
1
1
1
1
1
1
1
1
1
0.999998
1.09097
6.67489
9.4693
9.42918
9.42518
9.4374
9.43028
9.41819
9.40591
9.393
9.37938
9.35929
9.3312
9.29484
9.25136
9.20309
9.15081
9.09325
9.03047
8.9611
8.88473
8.79976
8.70505
8.59937
8.48319
8.35769
8.22291
8.07904
7.92469
7.75667
7.56781
7.36898
7.14966
6.93401
6.68985
6.44009
6.20033
5.93808
5.67593
1
1
1
1
1
1
1
1
1
1
1
1
1
1
1
1
1
1
1
1
1
1
1
1
1
1
1
1
1
1
1
1
1
1
1
1
1
1
1
1
1
1
1
1
1
1
1
1
1
1
1
1
1
1
1
1
1
1.00051
4.39973
8.97372
9.33962
9.385
9.40725
9.39813
9.38262
9.36477
9.34648
9.32858
9.30597
9.2772
9.23986
9.19457
9.14327
9.08788
9.02812
8.96377
8.89312
8.81575
8.73049
8.63638
8.53218
8.418
8.29463
8.16059
8.01773
7.86387
7.69868
7.51875
7.32474
7.11698
6.90685
6.6732
6.44595
6.2079
5.95164
5.70237
1
1
1
1
1
1
1
1
1
1
1
1
1
1
1
1
1
1
1
1
1
1
1
1
1
1
1
1
1
1
1
1
1
1
1
1
1
1
1
1
1
1
1
1
1
1
1
1
1
1
1
1
1
1
1
1
1
0.999996
2.19819
8.32695
9.41726
9.36942
9.36288
9.35015
9.33598
9.31614
9.29438
9.27235
9.24773
9.2189
9.18227
9.13734
9.08484
9.02739
8.966
8.90034
8.82839
8.75003
8.66439
8.57066
8.46763
8.35559
8.23539
8.10377
7.96344
7.80837
7.64744
7.4735
7.28269
7.08707
6.88618
6.66727
6.44706
6.20887
5.96899
5.7361
1
1
1
1
1
1
1
1
1
1
1
1
1
1
1
1
1
1
1
1
1
1
1
1
1
1
1
1
1
1
1
1
1
1
1
1
1
1
1
1
1
1
1
1
1
1
1
1
1
1
1
1
1
1
1
1
1
0.999999
1.11997
6.70912
9.33976
9.30314
9.30103
9.30236
9.29442
9.27318
9.2459
9.21752
9.18904
9.1582
9.12196
9.07857
9.02691
8.96908
8.90683
8.84033
8.76744
8.68836
8.60241
8.50885
8.4061
8.29551
8.1782
8.05033
7.91295
7.75779
7.60181
7.43006
7.24555
7.06399
6.86823
6.65586
6.44137
6.21872
5.9961
5.7708
1
1
1
1
1
1
1
1
1
1
1
1
1
1
1
1
1
1
1
1
1
1
1
1
1
1
1
1
1
1
1
1
1
1
1
1
1
1
1
1
1
1
1
1
1
1
1
1
1
1
1
1
1
1
1
1
1
1
1.00096
4.31372
8.85223
9.22237
9.25081
9.27095
9.26814
9.24233
9.20766
9.17125
9.13584
9.10067
9.0633
9.02089
8.97062
8.91333
8.85044
8.78331
8.7096
8.63004
8.54398
8.45083
8.34798
8.23762
8.12232
7.99861
7.86402
7.71238
7.55942
7.38959
7.21577
7.04106
6.84518
6.6428
6.44243
6.23454
6.01671
5.79412
1
1
1
1
1
1
1
1
1
1
1
1
1
1
1
1
1
1
1
1
1
1
1
1
1
1
1
1
1
1
1
1
1
1
1
1
1
1
1
1
1
1
1
1
1
1
1
1
1
1
1
1
1
1
1
1
1
1
0.999994
2.00132
8.15939
9.3596
9.2654
9.24288
9.22123
9.19284
9.15736
9.11937
9.08053
9.04291
9.00488
8.96379
8.91584
8.86033
8.79746
8.72968
8.6552
8.57544
8.48959
8.39629
8.29303
8.18314
8.06939
7.94791
7.81648
7.67073
7.51934
7.35394
7.18922
7.01424
6.82442
6.63632
6.44578
6.24135
6.02622
5.81559
1
1
1
1
1
1
1
1
1
1
1
1
1
1
1
1
1
1
1
1
1
1
1
1
1
1
1
1
1
1
1
1
1
1
1
1
1
1
1
1
1
1
1
1
1
1
1
1
1
1
1
1
1
1
1
1
1
1
0.999999
1.0832
6.41349
9.10678
9.15454
9.17244
9.16319
9.14187
9.10936
9.07192
9.03083
8.99066
8.95141
8.91101
8.86493
8.81098
8.7483
8.67939
8.60419
8.52397
8.43814
8.34399
8.24095
8.13167
8.0178
7.89769
7.76964
7.63017
7.48145
7.32239
7.16124
6.98836
6.80965
6.62971
6.44122
6.23888
6.03812
5.84339
1
1
1
1
1
1
1
1
1
1
1
1
1
1
1
1
1
1
1
1
1
1
1
1
1
1
1
1
1
1
1
1
1
1
1
1
1
1
1
1
1
1
1
1
1
1
1
1
1
1
1
1
1
1
1
1
1
1
1
1.00036
3.78325
8.63639
9.13295
9.12957
9.11119
9.09848
9.07284
9.03482
8.99037
8.94621
8.90469
8.86304
8.81721
8.76409
8.70204
8.63249
8.55665
8.47601
8.38959
8.29459
8.19197
8.08303
7.96895
7.85025
7.72475
7.59091
7.44669
7.29377
7.13509
6.9688
6.79709
6.61886
6.43354
6.24102
6.05689
5.87178
1
1
1
1
1
1
1
1
1
1
1
1
1
1
1
1
1
1
1
1
1
1
1
1
1
1
1
1
1
1
1
1
1
1
1
1
1
1
1
1
1
1
1
1
1
1
1
1
1
1
1
1
1
1
1
1
1
1
1
0.999998
1.55608
7.7204
9.28864
9.12593
9.07919
9.04699
9.02515
8.98927
8.94692
8.90351
8.86123
8.81803
8.77124
8.71796
8.65645
8.58697
8.5107
8.42967
8.34235
8.2473
8.14479
8.03605
7.92251
7.80385
7.68011
7.55123
7.41243
7.26522
7.11149
6.95192
6.78148
6.60531
6.42901
6.24822
6.07418
5.89131
1
1
1
1
1
1
1
1
1
1
1
1
1
1
1
1
1
1
1
1
1
1
1
1
1
1
1
1
1
1
1
1
1
1
1
1
1
1
1
1
1
1
1
1
1
1
1
1
1
1
1
1
1
1
1
1
1
1
1
0.999999
1.02652
5.73605
8.86868
8.93604
8.97759
8.99885
8.98311
8.94857
8.90922
8.86712
8.8227
8.77638
8.72664
8.67163
8.6102
8.54135
8.46537
8.38417
8.29665
8.20226
8.10056
7.99291
7.88021
7.76139
7.63894
7.51285
7.37884
7.23775
7.09065
6.93534
6.76567
6.5964
6.43044
6.25687
6.08702
5.90557
1
1
1
1
1
1
1
1
1
1
1
1
1
1
1
1
1
1
1
1
1
1
1
1
1
1
1
1
1
1
1
1
1
1
1
1
1
1
1
1
1
1
1
1
1
1
1
1
1
1
1
1
1
1
1
1
1
1
1
1
0.999961
2.98699
8.26361
8.97602
8.98811
8.98229
8.94748
8.9141
8.87974
8.8387
8.79045
8.73887
8.68409
8.6262
8.56402
8.49541
8.41987
8.33875
8.2512
8.15795
8.05751
7.95158
7.84006
7.72184
7.60004
7.47458
7.34422
7.20874
7.06724
6.91475
6.74983
6.5916
6.43294
6.26297
6.09516
5.91847
1
1
1
1
1
1
1
1
1
1
1
1
1
1
1
1
1
1
1
1
1
1
1
1
1
1
1
1
1
1
1
1
1
1
1
1
1
1
1
1
1
1
1
1
1
1
1
1
1
1
1
1
1
1
1
1
1
1
1
1
0.999987
1.27469
6.86483
9.02364
8.96175
8.93469
8.89786
8.87095
8.84395
8.80444
8.75378
8.69766
8.63885
8.57867
8.51602
8.44814
8.37391
8.29373
8.20734
8.11565
8.01777
7.91464
7.80511
7.68853
7.56703
7.44125
7.31271
7.18028
7.04271
6.89446
6.73847
6.58986
6.43505
6.26808
6.10355
5.93477
1
1
1
1
1
1
1
1
1
1
1
1
1
1
1
1
1
1
1
1
1
1
1
1
1
1
1
1
1
1
1
1
1
1
1
1
1
1
1
1
1
1
1
1
1
1
1
1
1
1
1
1
1
1
1
1
1
1
1
1
0.999998
1.00605
4.32318
8.54473
8.86634
8.86219
8.83657
8.83457
8.81488
8.77397
8.71983
8.65891
8.59592
8.53296
8.46876
8.40144
8.3287
8.24985
8.16509
8.07488
7.97904
7.87847
7.77141
7.65713
7.53652
7.41136
7.28376
7.15225
7.01756
6.87504
6.72838
6.5856
6.43384
6.27197
6.11289
5.95301
1
1
1
1
1
1
1
1
1
1
1
1
1
1
1
1
1
1
1
1
1
1
1
1
1
1
1
1
1
1
1
1
1
1
1
1
1
1
1
1
1
1
1
1
1
1
1
1
1
1
1
1
1
1
1
1
1
1
1
1
1
0.999981
1.71892
7.70095
9.04047
8.88711
8.83841
8.80687
8.77704
8.73103
8.67563
8.61431
8.5509
8.4872
8.42216
8.35521
8.28375
8.20687
8.12463
8.03654
7.94294
7.84471
7.74045
7.62907
7.51056
7.38745
7.26072
7.12936
6.99661
6.85891
6.71868
6.57919
6.43143
6.27623
6.12287
5.96946
1
1
1
1
1
1
1
1
1
1
1
1
1
1
1
1
1
1
1
1
1
1
1
1
1
1
1
1
1
1
1
1
1
1
1
1
1
1
1
1
1
1
1
1
1
1
1
1
1
1
1
1
1
1
1
1
1
1
1
1
1
0.999995
1.04174
5.70377
8.69754
8.72651
8.75178
8.75236
8.7238
8.67774
8.62647
8.56926
8.50782
8.44406
8.37781
8.31015
8.23915
8.16407
8.08415
7.99834
7.90665
7.80977
7.70752
7.59894
7.48373
7.36418
7.23978
7.10978
6.97901
6.84531
6.7084
6.57053
6.42756
6.27926
6.13047
5.97997
1
1
1
1
1
1
1
1
1
1
1
1
1
1
1
1