/*--------------------------------*- C++ -*----------------------------------*\
  =========                 |
  \\      /  F ield         | OpenFOAM: The Open Source CFD Toolbox
   \\    /   O peration     | Website:  https://openfoam.org
    \\  /    A nd           | Version:  7
     \\/     M anipulation  |
\*---------------------------------------------------------------------------*/
FoamFile
{
    version     2.0;
    format      ascii;
    class       volVectorField;
    location    "2";
    object      U;
}
// * * * * * * * * * * * * * * * * * * * * * * * * * * * * * * * * * * * * * //

dimensions      [0 1 -1 0 0 0 0];

internalField   nonuniform List<vector> 
64512
(
(3 1.90707e-17 0)
(3 1.83706e-17 0)
(3 -1.20754e-17 0)
(3 -4.17053e-16 0)
(3 -6.05899e-16 0)
(3 -1.14651e-16 0)
(3 -1.43992e-16 0)
(3 -6.82415e-16 0)
(3 -8.17415e-16 0)
(3 -6.09874e-16 0)
(3 9.62762e-17 0)
(3 2.02973e-16 0)
(3 -1.32309e-16 0)
(3 -4.5639e-16 0)
(3 -8.90029e-16 0)
(3 -9.27112e-16 0)
(3 -9.0352e-16 0)
(3 -6.1653e-16 0)
(3 -1.44291e-16 0)
(3 1.66794e-16 0)
(3 2.76773e-16 0)
(3 -2.56656e-16 0)
(3 -2.16585e-16 0)
(3 -3.14831e-17 0)
(3 -2.88377e-16 0)
(3 -2.13782e-16 0)
(3 -8.18788e-16 0)
(3 -1.87322e-15 0)
(3 -1.93569e-15 0)
(3 -5.43446e-16 0)
(3 8.68438e-16 0)
(3 1.42034e-15 0)
(3 1.30534e-15 0)
(3 7.05953e-16 0)
(3 1.32833e-16 0)
(3 -3.58958e-16 0)
(3 -5.51111e-16 0)
(3 -2.24995e-16 0)
(3 5.26421e-16 0)
(3 7.58999e-16 0)
(3 8.04696e-16 0)
(3 7.29902e-16 0)
(3 5.42707e-16 0)
(3 2.19796e-16 0)
(3 4.74397e-16 0)
(3 3.23911e-16 0)
(3 1.05983e-15 0)
(3 1.36637e-15 0)
(3 1.14289e-15 0)
(3 -6.85726e-16 0)
(1.18879 0.00487531 0)
(0.75932 0.00590843 0)
(0.73557 0.00588062 0)
(0.721793 0.00501796 0)
(0.708872 0.00505267 0)
(0.696674 0.00550372 0)
(0.683455 0.00611002 0)
(0.668474 0.00690394 0)
(0.65126 0.00779719 0)
(0.632445 0.00848679 0)
(0.613622 0.00838682 0)
(0.596994 0.00720912 0)
(0.583874 0.00577405 0)
(0.572628 0.0053202 0)
(0.560589 0.00576665 0)
(0.545782 0.0067835 0)
(0.527604 0.00804773 0)
(0.507458 0.0087346 0)
(0.488168 0.00826504 0)
(0.471343 0.00738112 0)
(0.455935 0.00712672 0)
(0.440737 0.00739325 0)
(0.424823 0.00759091 0)
(0.408422 0.0076614 0)
(0.391829 0.0078806 0)
(0.375044 0.00819682 0)
(0.358124 0.00840357 0)
(0.341192 0.00845843 0)
(0.324278 0.00846805 0)
(0.307721 0.00848979 0)
(0.291692 0.00844618 0)
(0.275833 0.00831955 0)
(0.259588 0.00816646 0)
(0.242452 0.00809268 0)
(0.224123 0.0081483 0)
(0.205032 0.00833264 0)
(0.18562 0.00859139 0)
(0.16659 0.00885687 0)
(0.148366 0.00911393 0)
(0.130773 0.00946386 0)
(0.113455 0.00979176 0)
(0.0947906 0.0100826 0)
(0.0763437 0.0103345 0)
(0.0563015 0.0105403 0)
(0.0347687 0.0105673 0)
(0.0118196 0.0106136 0)
(3 1.08593e-16 0)
(3 -1.39771e-16 0)
(3 -1.75632e-16 0)
(3 -7.18012e-16 0)
(3 -1.19822e-15 0)
(3 -1.20325e-15 0)
(3 -1.29873e-15 0)
(3 -1.69109e-15 0)
(3 -1.07665e-15 0)
(3 6.07991e-17 0)
(3 1.12035e-15 0)
(3 8.69949e-16 0)
(3 -7.93739e-17 0)
(3 -1.86305e-16 0)
(3 -2.14962e-16 0)
(3 6.80661e-16 0)
(3 4.60023e-16 0)
(3 5.81485e-16 0)
(3 1.11524e-15 0)
(3 7.44354e-16 0)
(3 6.09403e-16 0)
(3 -2.7189e-16 0)
(3 -7.04578e-17 0)
(3 1.77198e-16 0)
(3 2.0557e-17 0)
(3 -5.04755e-16 0)
(3 -6.88181e-16 0)
(3 -1.01929e-15 0)
(3 -1.03321e-15 0)
(3 -7.97307e-16 0)
(3 7.9244e-16 0)
(3 1.20033e-15 0)
(3 1.40261e-15 0)
(3 1.42802e-15 0)
(3 1.01798e-15 0)
(3 4.5064e-16 0)
(3 4.26027e-16 0)
(3 9.28392e-16 0)
(3 1.58076e-15 0)
(3 1.23894e-15 0)
(3 2.03681e-16 0)
(3 7.5392e-17 0)
(3 3.67279e-16 0)
(3 1.16744e-15 0)
(3 1.6747e-15 0)
(3 1.53211e-15 0)
(3 1.81582e-15 0)
(3 2.60919e-15 0)
(3 1.15663e-15 0)
(3 2.47652e-15 0)
(1.19344 0.020258 0)
(0.757962 0.0199071 0)
(0.73348 0.0186055 0)
(0.719005 0.0155822 0)
(0.705217 0.0147487 0)
(0.692635 0.0156181 0)
(0.679418 0.0174424 0)
(0.664718 0.019944 0)
(0.648058 0.022747 0)
(0.629967 0.0249256 0)
(0.611709 0.0249751 0)
(0.595126 0.0221905 0)
(0.58141 0.0182284 0)
(0.569141 0.0161547 0)
(0.556486 0.0168876 0)
(0.54166 0.0196846 0)
(0.523951 0.023307 0)
(0.504492 0.0253463 0)
(0.485816 0.0243467 0)
(0.46909 0.0222798 0)
(0.453244 0.0216329 0)
(0.437578 0.0222299 0)
(0.421327 0.0225395 0)
(0.40478 0.0225655 0)
(0.388159 0.0231818 0)
(0.371395 0.0241935 0)
(0.35449 0.0248745 0)
(0.337617 0.0250529 0)
(0.320863 0.0250619 0)
(0.304552 0.0251216 0)
(0.288771 0.0250293 0)
(0.273095 0.0247425 0)
(0.256897 0.0244149 0)
(0.239719 0.0242964 0)
(0.221366 0.0245317 0)
(0.202341 0.0250352 0)
(0.183198 0.0257441 0)
(0.16459 0.0264156 0)
(0.14684 0.0271392 0)
(0.129664 0.0282469 0)
(0.112578 0.029369 0)
(0.0942302 0.0304419 0)
(0.0758123 0.0312791 0)
(0.0558866 0.03194 0)
(0.0344943 0.0320454 0)
(0.0117947 0.0321827 0)
(3 -5.31084e-17 0)
(3 -2.88778e-16 0)
(3 -2.95636e-16 0)
(3 -2.58748e-16 0)
(3 -6.90041e-16 0)
(3 -1.28455e-15 0)
(3 -1.07994e-15 0)
(3 -4.55119e-16 0)
(3 2.37283e-16 0)
(3 2.43062e-16 0)
(3 -5.04939e-17 0)
(3 -5.36549e-16 0)
(3 -5.08518e-16 0)
(3 -5.16304e-16 0)
(3 1.53367e-16 0)
(3 -1.84412e-16 0)
(3 -2.87299e-16 0)
(3 -1.91437e-16 0)
(3 -7.22567e-17 0)
(3 1.5143e-17 0)
(3 3.2274e-16 0)
(3 5.37677e-16 0)
(3 4.27043e-16 0)
(3 2.57163e-16 0)
(3 5.77611e-16 0)
(3 4.96364e-16 0)
(3 6.0605e-17 0)
(3 -1.27577e-15 0)
(3 -2.23916e-15 0)
(3 -1.36364e-15 0)
(3 1.17801e-16 0)
(3 6.2084e-16 0)
(3 7.98661e-16 0)
(3 1.31477e-15 0)
(3 1.2057e-15 0)
(3 8.42365e-16 0)
(3 7.26696e-16 0)
(3 2.66717e-17 0)
(3 -1.05603e-16 0)
(3 -4.67824e-16 0)
(3 -1.30946e-15 0)
(3 -1.84223e-15 0)
(3 -1.37762e-15 0)
(3 4.7265e-16 0)
(3 6.35246e-16 0)
(3 1.12676e-15 0)
(3 1.70273e-15 0)
(3 2.48738e-15 0)
(3 1.16138e-15 0)
(3 1.79678e-15 0)
(1.20968 0.0352719 0)
(0.760908 0.0325768 0)
(0.736556 0.0316021 0)
(0.72104 0.0276471 0)
(0.705383 0.0260954 0)
(0.691359 0.0268493 0)
(0.677395 0.0292497 0)
(0.66261 0.0329204 0)
(0.646448 0.037216 0)
(0.629158 0.0406024 0)
(0.611615 0.0408697 0)
(0.595316 0.0371553 0)
(0.581105 0.0315734 0)
(0.567581 0.0282927 0)
(0.553736 0.0290995 0)
(0.538433 0.0332093 0)
(0.520925 0.038592 0)
(0.502011 0.0414829 0)
(0.484041 0.0399575 0)
(0.467681 0.0371306 0)
(0.451683 0.0364809 0)
(0.435759 0.0375919 0)
(0.419218 0.0380492 0)
(0.402428 0.0379573 0)
(0.385582 0.038842 0)
(0.368606 0.0404478 0)
(0.351462 0.0415527 0)
(0.33439 0.0418012 0)
(0.317552 0.0417108 0)
(0.301263 0.0416802 0)
(0.285535 0.0414381 0)
(0.269907 0.0409334 0)
(0.253649 0.0404079 0)
(0.236316 0.0402334 0)
(0.217807 0.0406792 0)
(0.198723 0.0415797 0)
(0.179697 0.0427738 0)
(0.161419 0.0438676 0)
(0.14413 0.0449598 0)
(0.127425 0.0466159 0)
(0.110642 0.0483029 0)
(0.0926951 0.0500523 0)
(0.0743767 0.0515093 0)
(0.054715 0.0528067 0)
(0.0336844 0.0532303 0)
(0.0115719 0.0537078 0)
(3 -1.15133e-16 0)
(3 -1.76799e-16 0)
(3 -2.14939e-16 0)
(3 -3.14167e-16 0)
(3 -2.42436e-16 0)
(3 1.67667e-16 0)
(3 3.55976e-16 0)
(3 8.09905e-16 0)
(3 6.99947e-16 0)
(3 -1.47308e-17 0)
(3 -9.48606e-16 0)
(3 -9.17492e-16 0)
(3 -6.47947e-16 0)
(3 -7.51522e-16 0)
(3 -7.24134e-16 0)
(3 -1.36848e-15 0)
(3 -9.82928e-16 0)
(3 -1.10102e-15 0)
(3 -1.08849e-15 0)
(3 -3.09394e-16 0)
(3 7.43471e-16 0)
(3 1.58476e-15 0)
(3 1.3234e-15 0)
(3 1.14631e-15 0)
(3 8.46479e-16 0)
(3 6.68779e-16 0)
(3 1.76919e-16 0)
(3 -9.9432e-16 0)
(3 -1.33605e-15 0)
(3 -9.99944e-16 0)
(3 -5.51267e-16 0)
(3 -1.06166e-16 0)
(3 -1.24633e-15 0)
(3 -1.24899e-15 0)
(3 -5.37764e-16 0)
(3 -6.0992e-16 0)
(3 -5.01172e-16 0)
(3 -9.48778e-16 0)
(3 -1.70885e-15 0)
(3 -2.02066e-15 0)
(3 -2.26313e-15 0)
(3 -2.18255e-15 0)
(3 -1.75755e-15 0)
(3 -7.79809e-16 0)
(3 -6.15321e-16 0)
(3 -7.63316e-16 0)
(3 1.28485e-16 0)
(3 -1.29952e-17 0)
(3 6.06277e-17 0)
(3 -1.98575e-15 0)
(1.23504 0.0489132 0)
(0.76475 0.0431307 0)
(0.739537 0.0451149 0)
(0.723238 0.0406201 0)
(0.706458 0.038303 0)
(0.69153 0.0385138 0)
(0.677155 0.0410652 0)
(0.662503 0.0454826 0)
(0.647006 0.0508814 0)
(0.630583 0.0552314 0)
(0.613712 0.0558918 0)
(0.597573 0.051998 0)
(0.582862 0.045652 0)
(0.568319 0.0415578 0)
(0.553417 0.0423739 0)
(0.537657 0.0473897 0)
(0.520379 0.0538783 0)
(0.502044 0.0570556 0)
(0.484812 0.0549856 0)
(0.468782 0.0517674 0)
(0.452719 0.0514224 0)
(0.436638 0.0531912 0)
(0.419877 0.0538731 0)
(0.402869 0.0537017 0)
(0.385761 0.0548549 0)
(0.368502 0.0570674 0)
(0.350998 0.0586419 0)
(0.333565 0.0589722 0)
(0.316463 0.0587204 0)
(0.300007 0.0584993 0)
(0.284127 0.0580468 0)
(0.268331 0.0573039 0)
(0.251812 0.0565774 0)
(0.234148 0.0563541 0)
(0.215324 0.057029 0)
(0.196008 0.0583545 0)
(0.17689 0.060004 0)
(0.158678 0.0614426 0)
(0.141574 0.0627564 0)
(0.1251 0.0647717 0)
(0.108412 0.066791 0)
(0.090771 0.0690983 0)
(0.0725243 0.0711576 0)
(0.0531709 0.0731871 0)
(0.0325928 0.0740718 0)
(0.0112496 0.0750484 0)
(3 1.42268e-16 0)
(3 5.37378e-16 0)
(3 5.2752e-16 0)
(3 -4.71354e-17 0)
(3 1.72214e-16 0)
(3 5.46268e-16 0)
(3 6.86174e-16 0)
(3 9.19544e-16 0)
(3 3.43693e-16 0)
(3 3.68374e-16 0)
(3 4.49452e-16 0)
(3 7.29085e-16 0)
(3 6.91596e-16 0)
(3 5.68539e-16 0)
(3 -1.4984e-16 0)
(3 -3.43333e-16 0)
(3 -2.80625e-16 0)
(3 -4.08956e-16 0)
(3 -7.52107e-16 0)
(3 -6.81685e-16 0)
(3 -7.95905e-16 0)
(3 -3.5065e-16 0)
(3 1.47654e-15 0)
(3 1.74775e-15 0)
(3 1.52416e-15 0)
(3 1.30032e-15 0)
(3 6.308e-16 0)
(3 1.0307e-15 0)
(3 1.1531e-15 0)
(3 1.00479e-15 0)
(3 5.16974e-16 0)
(3 -1.66686e-17 0)
(3 -7.70177e-16 0)
(3 -1.30905e-15 0)
(3 -1.21701e-15 0)
(3 -1.70333e-15 0)
(3 -1.91221e-15 0)
(3 -1.35763e-15 0)
(3 -1.75487e-15 0)
(3 -2.69905e-15 0)
(3 -2.77206e-15 0)
(3 -2.06527e-15 0)
(3 -1.91078e-15 0)
(3 -1.83848e-15 0)
(3 -2.28637e-15 0)
(3 -2.06469e-15 0)
(3 -1.69677e-15 0)
(3 -1.56253e-15 0)
(3 -1.36165e-15 0)
(3 -2.88239e-15 0)
(1.26988 0.0621535 0)
(0.76818 0.0530653 0)
(0.741456 0.059236 0)
(0.72451 0.0542913 0)
(0.706969 0.0511446 0)
(0.691364 0.0503269 0)
(0.676727 0.0525288 0)
(0.66228 0.0573303 0)
(0.647421 0.0635842 0)
(0.631771 0.0688885 0)
(0.615389 0.0703212 0)
(0.599254 0.0668968 0)
(0.584161 0.0604302 0)
(0.569003 0.0557712 0)
(0.553433 0.0563777 0)
(0.537542 0.0618584 0)
(0.520728 0.0688358 0)
(0.503144 0.0718709 0)
(0.486699 0.0693305 0)
(0.470952 0.0660528 0)
(0.454919 0.0662516 0)
(0.43875 0.0687775 0)
(0.421841 0.0697727 0)
(0.404691 0.0695965 0)
(0.387386 0.071045 0)
(0.369899 0.0738876 0)
(0.352071 0.0759832 0)
(0.334283 0.0764142 0)
(0.31692 0.075957 0)
(0.300307 0.075474 0)
(0.284285 0.0747832 0)
(0.268317 0.0738118 0)
(0.251568 0.0729143 0)
(0.233632 0.0726958 0)
(0.214557 0.0736632 0)
(0.195011 0.0754994 0)
(0.175681 0.0776302 0)
(0.157277 0.0793751 0)
(0.140005 0.0807839 0)
(0.123399 0.0829425 0)
(0.10651 0.085025 0)
(0.0889539 0.0876707 0)
(0.0706971 0.0902288 0)
(0.0516079 0.093009 0)
(0.0314582 0.094454 0)
(0.0108923 0.0960671 0)
(3 2.61532e-17 0)
(3 3.76963e-16 0)
(3 4.32973e-16 0)
(3 2.53775e-16 0)
(3 3.71865e-16 0)
(3 1.76622e-16 0)
(3 1.32412e-16 0)
(3 2.02213e-16 0)
(3 7.52954e-17 0)
(3 4.01995e-16 0)
(3 8.42799e-16 0)
(3 8.97879e-16 0)
(3 6.95505e-16 0)
(3 3.63741e-17 0)
(3 -4.59965e-16 0)
(3 -4.29461e-16 0)
(3 -7.01726e-16 0)
(3 -9.1766e-16 0)
(3 -1.01003e-15 0)
(3 -1.17086e-15 0)
(3 -1.97955e-15 0)
(3 -5.67496e-16 0)
(3 6.6717e-16 0)
(3 1.40198e-15 0)
(3 1.31553e-15 0)
(3 1.73517e-15 0)
(3 1.54964e-15 0)
(3 1.2431e-15 0)
(3 1.26176e-15 0)
(3 9.06446e-16 0)
(3 -3.69257e-16 0)
(3 -7.6982e-16 0)
(3 8.46704e-17 0)
(3 3.65495e-16 0)
(3 -3.0427e-16 0)
(3 -9.41678e-16 0)
(3 -1.49845e-15 0)
(3 -1.94217e-15 0)
(3 -2.55179e-15 0)
(3 -2.48831e-15 0)
(3 -1.77892e-15 0)
(3 -1.62014e-15 0)
(3 -2.57082e-15 0)
(3 -2.5454e-15 0)
(3 -2.93532e-15 0)
(3 -1.84907e-15 0)
(3 -1.5596e-15 0)
(3 -1.36591e-15 0)
(3 -1.49917e-15 0)
(3 -3.93749e-15 0)
(1.31647 0.0755301 0)
(0.771889 0.0630153 0)
(0.743104 0.0736152 0)
(0.72574 0.0684584 0)
(0.707752 0.064583 0)
(0.691593 0.0625405 0)
(0.676435 0.063829 0)
(0.661904 0.0685879 0)
(0.647294 0.0755721 0)
(0.63195 0.0819316 0)
(0.615663 0.0844706 0)
(0.599419 0.0817951 0)
(0.584245 0.075463 0)
(0.568996 0.0704376 0)
(0.553252 0.0707489 0)
(0.537522 0.0763498 0)
(0.521191 0.0833862 0)
(0.504176 0.0861358 0)
(0.488133 0.083385 0)
(0.472303 0.0803683 0)
(0.456069 0.0812648 0)
(0.439648 0.0845402 0)
(0.422555 0.0858645 0)
(0.40535 0.0857163 0)
(0.388057 0.0874375 0)
(0.370691 0.0908696 0)
(0.352969 0.0934725 0)
(0.335271 0.0939773 0)
(0.318065 0.0932529 0)
(0.301642 0.0924475 0)
(0.285732 0.0915219 0)
(0.269754 0.0903727 0)
(0.252922 0.0893803 0)
(0.234861 0.0892389 0)
(0.215691 0.0905576 0)
(0.196003 0.0929728 0)
(0.176461 0.0956385 0)
(0.157698 0.0977051 0)
(0.139968 0.0991817 0)
(0.122906 0.101387 0)
(0.105566 0.103374 0)
(0.0878522 0.106129 0)
(0.0694793 0.109024 0)
(0.0505172 0.112455 0)
(0.03063 0.11445 0)
(0.0106207 0.116738 0)
(3 -5.77935e-17 0)
(3 -3.90574e-16 0)
(3 -2.58323e-16 0)
(3 6.22745e-17 0)
(3 -3.14033e-16 0)
(3 -4.98666e-16 0)
(3 -5.45666e-16 0)
(3 -8.73561e-16 0)
(3 -5.44513e-16 0)
(3 -5.32494e-16 0)
(3 -3.87653e-16 0)
(3 1.8454e-16 0)
(3 4.87889e-16 0)
(3 5.51619e-16 0)
(3 5.97828e-16 0)
(3 3.96093e-16 0)
(3 1.53909e-16 0)
(3 7.24133e-18 0)
(3 7.45253e-18 0)
(3 2.171e-16 0)
(3 5.3571e-16 0)
(3 7.50979e-16 0)
(3 8.04565e-16 0)
(3 9.90347e-16 0)
(3 1.09654e-15 0)
(3 1.52083e-15 0)
(3 1.636e-15 0)
(3 1.3496e-15 0)
(3 1.39891e-16 0)
(3 -7.55691e-16 0)
(3 -1.39562e-15 0)
(3 -1.80683e-15 0)
(3 -6.44884e-17 0)
(3 8.94002e-16 0)
(3 5.61483e-16 0)
(3 7.28214e-16 0)
(3 -6.90769e-17 0)
(3 -1.39228e-15 0)
(3 -1.83325e-15 0)
(3 -1.3352e-15 0)
(3 -8.63524e-16 0)
(3 -4.23671e-16 0)
(3 -6.50894e-16 0)
(3 -1.52104e-15 0)
(3 -8.47699e-16 0)
(3 -7.58067e-16 0)
(3 -7.94003e-16 0)
(3 -1.17927e-15 0)
(3 -1.0348e-15 0)
(3 -5.43944e-15 0)
(1.37678 0.0891197 0)
(0.776225 0.073615 0)
(0.744346 0.0879763 0)
(0.726846 0.0829356 0)
(0.708796 0.0780666 0)
(0.692316 0.0747074 0)
(0.676607 0.0751494 0)
(0.66155 0.0796601 0)
(0.646858 0.0872326 0)
(0.631591 0.0947267 0)
(0.615312 0.0984251 0)
(0.599054 0.0964844 0)
(0.584046 0.0903622 0)
(0.569037 0.0851132 0)
(0.553394 0.0851591 0)
(0.537865 0.0907523 0)
(0.521808 0.097704 0)
(0.505042 0.100242 0)
(0.489071 0.0975138 0)
(0.473074 0.0948942 0)
(0.456753 0.0964508 0)
(0.440345 0.100319 0)
(0.42343 0.10187 0)
(0.406512 0.101712 0)
(0.389507 0.103646 0)
(0.372476 0.107596 0)
(0.355021 0.110684 0)
(0.337503 0.111267 0)
(0.320478 0.110271 0)
(0.304173 0.109164 0)
(0.28824 0.108092 0)
(0.272084 0.106925 0)
(0.255028 0.10603 0)
(0.236762 0.106095 0)
(0.217509 0.107837 0)
(0.19771 0.110858 0)
(0.177975 0.114071 0)
(0.158782 0.116432 0)
(0.140455 0.117959 0)
(0.122786 0.120181 0)
(0.104906 0.122015 0)
(0.0869767 0.124709 0)
(0.0685314 0.127775 0)
(0.0496906 0.131691 0)
(0.0300228 0.134148 0)
(0.0104111 0.137056 0)
(3 1.11278e-16 0)
(3 -5.81412e-17 0)
(3 -1.25867e-16 0)
(3 -8.06699e-18 0)
(3 -4.13513e-16 0)
(3 -2.58584e-16 0)
(3 -1.04647e-16 0)
(3 -2.79449e-16 0)
(3 -3.56968e-17 0)
(3 7.07371e-17 0)
(3 6.46535e-16 0)
(3 9.18019e-16 0)
(3 1.36146e-15 0)
(3 9.60454e-16 0)
(3 1.03805e-15 0)
(3 1.10361e-15 0)
(3 1.22293e-15 0)
(3 1.54159e-15 0)
(3 1.87952e-15 0)
(3 2.50135e-15 0)
(3 2.77405e-15 0)
(3 2.08766e-15 0)
(3 5.55428e-16 0)
(3 9.99324e-16 0)
(3 1.35678e-15 0)
(3 8.57179e-16 0)
(3 2.08861e-17 0)
(3 -7.93426e-16 0)
(3 -1.66967e-15 0)
(3 -2.41189e-15 0)
(3 -2.384e-15 0)
(3 -4.88714e-16 0)
(3 -4.38877e-17 0)
(3 2.10272e-16 0)
(3 3.27357e-16 0)
(3 3.21111e-16 0)
(3 3.87139e-16 0)
(3 4.86155e-16 0)
(3 1.03079e-15 0)
(3 7.25002e-16 0)
(3 7.65384e-16 0)
(3 8.9785e-16 0)
(3 9.56748e-16 0)
(3 8.0961e-16 0)
(3 1.14601e-15 0)
(3 3.79537e-16 0)
(3 1.00244e-16 0)
(3 -6.48533e-16 0)
(3 -8.5292e-16 0)
(3 1.71557e-15 0)
(1.4529 0.102957 0)
(0.781902 0.0851004 0)
(0.745321 0.102081 0)
(0.727752 0.0974493 0)
(0.709714 0.0919895 0)
(0.693087 0.0873589 0)
(0.67704 0.0867498 0)
(0.661517 0.0908672 0)
(0.646518 0.0987696 0)
(0.631381 0.107363 0)
(0.615269 0.112161 0)
(0.599208 0.110834 0)
(0.584553 0.104906 0)
(0.569894 0.0995778 0)
(0.554454 0.0995104 0)
(0.539159 0.105132 0)
(0.523309 0.112003 0)
(0.506706 0.114396 0)
(0.490759 0.11178 0)
(0.474644 0.109549 0)
(0.458309 0.111632 0)
(0.441983 0.115903 0)
(0.425262 0.117594 0)
(0.408562 0.117471 0)
(0.3917 0.119664 0)
(0.374817 0.12414 0)
(0.35747 0.12773 0)
(0.340025 0.128413 0)
(0.323126 0.127151 0)
(0.306917 0.125753 0)
(0.291002 0.124591 0)
(0.274758 0.123559 0)
(0.2576 0.122944 0)
(0.239316 0.123299 0)
(0.220186 0.125503 0)
(0.200527 0.12911 0)
(0.180786 0.132833 0)
(0.161258 0.135443 0)
(0.14234 0.137036 0)
(0.124 0.139321 0)
(0.105464 0.141057 0)
(0.0871848 0.143623 0)
(0.0685694 0.14673 0)
(0.0496768 0.150948 0)
(0.0300011 0.153729 0)
(0.0104052 0.157123 0)
(3 4.25858e-17 0)
(3 3.14547e-16 0)
(3 5.1276e-17 0)
(3 7.73601e-17 0)
(3 1.8861e-16 0)
(3 5.94238e-16 0)
(3 5.16053e-16 0)
(3 4.88924e-16 0)
(3 1.76593e-16 0)
(3 1.62408e-16 0)
(3 2.37972e-16 0)
(3 2.66695e-16 0)
(3 6.75727e-16 0)
(3 7.42025e-16 0)
(3 7.69382e-16 0)
(3 5.16057e-16 0)
(3 7.30802e-16 0)
(3 1.91275e-15 0)
(3 2.88036e-15 0)
(3 3.44206e-15 0)
(3 3.05584e-15 0)
(3 8.57525e-16 0)
(3 4.31811e-16 0)
(3 -1.85393e-16 0)
(3 -6.35956e-16 0)
(3 -1.2921e-15 0)
(3 -2.17749e-15 0)
(3 -2.07408e-15 0)
(3 -1.91169e-15 0)
(3 -1.68878e-15 0)
(3 -9.21989e-16 0)
(3 -7.26106e-16 0)
(3 -9.66715e-16 0)
(3 -1.62589e-15 0)
(3 -1.90752e-15 0)
(3 -9.11298e-16 0)
(3 3.47284e-16 0)
(3 1.723e-15 0)
(3 1.75165e-15 0)
(3 2.08004e-15 0)
(3 1.56631e-15 0)
(3 9.81522e-16 0)
(3 1.04558e-15 0)
(3 1.26903e-15 0)
(3 1.26998e-15 0)
(3 1.49563e-15 0)
(3 4.04633e-16 0)
(3 -3.7315e-16 0)
(3 -4.99555e-16 0)
(3 -3.50942e-15 0)
(1.54743 0.116585 0)
(0.789461 0.0975342 0)
(0.746085 0.115997 0)
(0.728561 0.111784 0)
(0.710687 0.106192 0)
(0.694171 0.100531 0)
(0.678025 0.0988695 0)
(0.66234 0.102381 0)
(0.64725 0.11039 0)
(0.632444 0.119845 0)
(0.61664 0.125482 0)
(0.600806 0.124704 0)
(0.586408 0.118967 0)
(0.571936 0.113689 0)
(0.55663 0.113645 0)
(0.541571 0.119331 0)
(0.525955 0.126151 0)
(0.509503 0.128482 0)
(0.493483 0.126102 0)
(0.477108 0.124325 0)
(0.46055 0.126879 0)
(0.444069 0.131433 0)
(0.427329 0.13323 0)
(0.410685 0.133224 0)
(0.393903 0.135722 0)
(0.37721 0.140689 0)
(0.360121 0.144695 0)
(0.342968 0.145378 0)
(0.326416 0.143747 0)
(0.310457 0.141995 0)
(0.294661 0.140777 0)
(0.278367 0.14004 0)
(0.261096 0.139888 0)
(0.24275 0.14066 0)
(0.223614 0.143424 0)
(0.203995 0.147671 0)
(0.184135 0.151922 0)
(0.164169 0.154775 0)
(0.144559 0.156462 0)
(0.125457 0.158866 0)
(0.10612 0.160577 0)
(0.0874273 0.163 0)
(0.0686314 0.166058 0)
(0.049703 0.170429 0)
(0.030062 0.173394 0)
(0.0104289 0.177115 0)
(3 -8.15836e-17 0)
(3 -2.53256e-16 0)
(3 -2.29099e-16 0)
(3 8.53095e-17 0)
(3 2.52601e-16 0)
(3 5.94609e-16 0)
(3 1.01471e-15 0)
(3 1.24347e-15 0)
(3 6.26979e-16 0)
(3 4.3891e-16 0)
(3 -4.70662e-16 0)
(3 -6.23332e-16 0)
(3 -8.64113e-16 0)
(3 -4.05498e-17 0)
(3 5.69118e-16 0)
(3 4.44299e-16 0)
(3 2.98358e-16 0)
(3 8.11412e-16 0)
(3 1.13123e-15 0)
(3 1.96047e-15 0)
(3 2.29885e-15 0)
(3 1.59802e-15 0)
(3 1.14232e-15 0)
(3 1.34601e-16 0)
(3 3.24734e-16 0)
(3 2.39563e-16 0)
(3 8.02481e-17 0)
(3 -2.80631e-16 0)
(3 9.73234e-17 0)
(3 1.99005e-16 0)
(3 6.31818e-16 0)
(3 -8.36047e-16 0)
(3 -2.1769e-15 0)
(3 -2.80287e-15 0)
(3 -2.81915e-15 0)
(3 -9.82154e-16 0)
(3 2.54243e-16 0)
(3 1.08829e-15 0)
(3 1.43156e-15 0)
(3 1.25617e-15 0)
(3 6.60277e-16 0)
(3 1.86779e-16 0)
(3 3.46481e-16 0)
(3 3.64948e-16 0)
(3 5.38679e-16 0)
(3 8.54966e-16 0)
(3 2.6685e-16 0)
(3 7.97989e-17 0)
(3 3.89558e-18 0)
(3 -6.55888e-15 0)
(1.66267 0.129161 0)
(0.799561 0.11154 0)
(0.747507 0.129961 0)
(0.730067 0.125746 0)
(0.712446 0.120033 0)
(0.696233 0.113725 0)
(0.68017 0.111191 0)
(0.664443 0.114056 0)
(0.649399 0.122004 0)
(0.634959 0.131899 0)
(0.619619 0.138246 0)
(0.604012 0.137927 0)
(0.589524 0.132654 0)
(0.57481 0.127669 0)
(0.559251 0.127859 0)
(0.543955 0.133688 0)
(0.52812 0.140516 0)
(0.511488 0.142859 0)
(0.495273 0.140749 0)
(0.478784 0.139388 0)
(0.462327 0.142293 0)
(0.446106 0.146954 0)
(0.429744 0.148749 0)
(0.41347 0.148859 0)
(0.396989 0.151657 0)
(0.380611 0.157059 0)
(0.363805 0.161389 0)
(0.346879 0.162002 0)
(0.3305 0.159991 0)
(0.314529 0.157964 0)
(0.298556 0.156869 0)
(0.281962 0.156614 0)
(0.264369 0.157094 0)
(0.245776 0.158463 0)
(0.226499 0.161874 0)
(0.206789 0.166783 0)
(0.186748 0.171575 0)
(0.166404 0.174637 0)
(0.146233 0.176372 0)
(0.126525 0.178863 0)
(0.106453 0.180554 0)
(0.0874177 0.182811 0)
(0.0684766 0.185725 0)
(0.0495625 0.190115 0)
(0.0300399 0.193108 0)
(0.0104283 0.196994 0)
(3 -5.42699e-17 0)
(3 -3.96455e-16 0)
(3 -3.41571e-16 0)
(3 -7.04514e-17 0)
(3 7.99436e-16 0)
(3 7.86626e-16 0)
(3 5.18428e-16 0)
(3 5.08901e-16 0)
(3 1.23449e-15 0)
(3 1.61775e-15 0)
(3 9.55034e-16 0)
(3 -4.56643e-16 0)
(3 -8.05474e-16 0)
(3 -6.78146e-16 0)
(3 -6.10745e-17 0)
(3 1.24333e-15 0)
(3 1.44764e-15 0)
(3 9.08686e-16 0)
(3 1.21697e-15 0)
(3 1.48276e-15 0)
(3 1.92296e-15 0)
(3 1.99109e-15 0)
(3 1.30797e-15 0)
(3 1.36224e-15 0)
(3 1.39862e-15 0)
(3 1.68698e-15 0)
(3 2.01501e-15 0)
(3 1.54064e-15 0)
(3 1.36166e-15 0)
(3 9.47094e-16 0)
(3 -1.07063e-16 0)
(3 -2.01277e-15 0)
(3 -3.1825e-15 0)
(3 -2.97211e-15 0)
(3 -2.29349e-15 0)
(3 -1.92628e-15 0)
(3 -1.67406e-15 0)
(3 -9.2977e-16 0)
(3 -2.30173e-16 0)
(3 -5.72199e-16 0)
(3 -8.14127e-16 0)
(3 -1.20449e-15 0)
(3 -3.28725e-16 0)
(3 -1.00675e-16 0)
(3 -4.39856e-16 0)
(3 -1.82751e-16 0)
(3 6.32702e-16 0)
(3 7.54619e-16 0)
(3 7.61386e-16 0)
(3 -1.50166e-15 0)
(1.79906 0.138682 0)
(0.81243 0.125904 0)
(0.751396 0.143646 0)
(0.733508 0.139429 0)
(0.715051 0.134048 0)
(0.698329 0.127099 0)
(0.681853 0.124027 0)
(0.665802 0.126372 0)
(0.650491 0.133994 0)
(0.635909 0.144139 0)
(0.620517 0.151016 0)
(0.604601 0.1513 0)
(0.589536 0.14651 0)
(0.574399 0.141867 0)
(0.55883 0.142247 0)
(0.544014 0.148134 0)
(0.529046 0.154852 0)
(0.513425 0.157077 0)
(0.498089 0.155095 0)
(0.4822 0.154042 0)
(0.466161 0.15719 0)
(0.450157 0.161894 0)
(0.433877 0.163757 0)
(0.417538 0.164203 0)
(0.400928 0.167526 0)
(0.384452 0.1735 0)
(0.367564 0.178164 0)
(0.35061 0.178664 0)
(0.334258 0.176268 0)
(0.318236 0.173989 0)
(0.30216 0.17307 0)
(0.285471 0.173342 0)
(0.267807 0.174521 0)
(0.249157 0.176587 0)
(0.229854 0.180672 0)
(0.210078 0.186237 0)
(0.18987 0.191591 0)
(0.169217 0.194886 0)
(0.14861 0.196659 0)
(0.128359 0.199202 0)
(0.107688 0.200887 0)
(0.0882026 0.203002 0)
(0.0689566 0.205733 0)
(0.0498686 0.210065 0)
(0.0302718 0.212967 0)
(0.0105166 0.216912 0)
(3 -1.10512e-16 0)
(3 -6.68453e-17 0)
(3 1.19614e-16 0)
(3 2.7968e-16 0)
(3 6.97904e-16 0)
(3 1.97749e-16 0)
(3 -9.99686e-17 0)
(3 -2.98621e-16 0)
(3 2.28715e-16 0)
(3 4.44865e-16 0)
(3 1.14167e-15 0)
(3 7.75757e-16 0)
(3 1.54002e-16 0)
(3 4.15639e-18 0)
(3 1.03761e-17 0)
(3 4.00004e-16 0)
(3 6.95132e-16 0)
(3 1.15774e-15 0)
(3 1.49249e-15 0)
(3 1.49216e-15 0)
(3 1.05079e-15 0)
(3 4.65481e-16 0)
(3 4.42024e-16 0)
(3 4.45328e-16 0)
(3 4.64453e-16 0)
(3 1.05938e-15 0)
(3 1.2685e-15 0)
(3 3.79911e-16 0)
(3 -7.65087e-16 0)
(3 -1.03555e-15 0)
(3 -1.12734e-15 0)
(3 -2.27259e-15 0)
(3 -2.70673e-15 0)
(3 -1.88485e-15 0)
(3 -2.13003e-15 0)
(3 -2.2342e-15 0)
(3 -2.12784e-15 0)
(3 -1.42099e-15 0)
(3 -1.4254e-15 0)
(3 -1.81265e-15 0)
(3 -1.87357e-15 0)
(3 -1.00033e-15 0)
(3 -8.99209e-16 0)
(3 -1.05379e-15 0)
(3 -1.01097e-15 0)
(3 -4.21127e-16 0)
(3 1.30144e-15 0)
(3 7.5097e-16 0)
(3 -1.11216e-16 0)
(3 -5.26267e-16 0)
(1.95354 0.145335 0)
(0.827121 0.139677 0)
(0.754982 0.157635 0)
(0.736667 0.153532 0)
(0.716956 0.149063 0)
(0.698828 0.14181 0)
(0.681225 0.137611 0)
(0.664538 0.139213 0)
(0.649064 0.146301 0)
(0.634963 0.156342 0)
(0.620425 0.16364 0)
(0.605174 0.164592 0)
(0.590416 0.160372 0)
(0.575511 0.155912 0)
(0.560362 0.156185 0)
(0.546293 0.161792 0)
(0.532283 0.168158 0)
(0.517526 0.170295 0)
(0.502589 0.168708 0)
(0.4867 0.168315 0)
(0.470418 0.172013 0)
(0.453904 0.177005 0)
(0.437042 0.179108 0)
(0.420194 0.179998 0)
(0.403351 0.183876 0)
(0.387004 0.190332 0)
(0.370467 0.195093 0)
(0.354018 0.195245 0)
(0.33815 0.192355 0)
(0.322334 0.189828 0)
(0.306259 0.189173 0)
(0.289514 0.190121 0)
(0.271771 0.19216 0)
(0.252983 0.195029 0)
(0.23352 0.199827 0)
(0.213538 0.206076 0)
(0.193096 0.212019 0)
(0.172183 0.215573 0)
(0.151281 0.217348 0)
(0.130652 0.219895 0)
(0.109585 0.221566 0)
(0.0896503 0.223566 0)
(0.0699695 0.226146 0)
(0.0505359 0.230431 0)
(0.0306713 0.233194 0)
(0.0106608 0.237177 0)
(3 -2.53123e-17 0)
(3 -1.61419e-16 0)
(3 2.00468e-16 0)
(3 -2.40742e-16 0)
(3 -1.1549e-15 0)
(3 -1.33871e-15 0)
(3 -5.80178e-16 0)
(3 -1.14248e-16 0)
(3 -3.18654e-16 0)
(3 -4.35711e-16 0)
(3 6.15884e-16 0)
(3 1.66129e-15 0)
(3 1.25603e-15 0)
(3 5.48012e-17 0)
(3 -3.25012e-16 0)
(3 -6.50912e-16 0)
(3 -7.86909e-16 0)
(3 -6.14369e-16 0)
(3 -5.49142e-16 0)
(3 -8.94099e-16 0)
(3 -1.50278e-15 0)
(3 -9.31992e-16 0)
(3 -7.47569e-16 0)
(3 -7.3726e-16 0)
(3 7.11506e-17 0)
(3 6.81009e-16 0)
(3 1.55051e-16 0)
(3 -1.2481e-15 0)
(3 -2.43283e-15 0)
(3 -2.74488e-15 0)
(3 -2.60511e-15 0)
(3 -2.41274e-15 0)
(3 -2.60068e-15 0)
(3 -2.98583e-15 0)
(3 -2.83629e-15 0)
(3 -2.76343e-15 0)
(3 -2.67337e-15 0)
(3 -2.21682e-15 0)
(3 -1.87845e-15 0)
(3 -1.85785e-15 0)
(3 -7.39421e-16 0)
(3 5.63032e-17 0)
(3 -6.06663e-16 0)
(3 -1.32088e-15 0)
(3 -1.12614e-15 0)
(3 -1.1742e-15 0)
(3 -9.83792e-16 0)
(3 -7.39306e-16 0)
(3 -5.77981e-16 0)
(3 -1.26761e-15 0)
(2.12505 0.148973 0)
(0.844309 0.154398 0)
(0.754958 0.171751 0)
(0.736898 0.168145 0)
(0.71733 0.16495 0)
(0.699202 0.157748 0)
(0.681681 0.152339 0)
(0.665359 0.152592 0)
(0.650612 0.158708 0)
(0.63741 0.168251 0)
(0.623744 0.175739 0)
(0.609016 0.177426 0)
(0.5943 0.173966 0)
(0.579361 0.169717 0)
(0.564187 0.169734 0)
(0.550218 0.174943 0)
(0.53646 0.181096 0)
(0.521774 0.183595 0)
(0.506475 0.182788 0)
(0.490144 0.183194 0)
(0.473512 0.187397 0)
(0.456748 0.19254 0)
(0.439824 0.194686 0)
(0.423098 0.195832 0)
(0.406614 0.200109 0)
(0.39081 0.206861 0)
(0.374777 0.211518 0)
(0.358795 0.211269 0)
(0.34316 0.208057 0)
(0.327213 0.205554 0)
(0.310853 0.205407 0)
(0.293876 0.207237 0)
(0.275983 0.210256 0)
(0.257048 0.213924 0)
(0.237438 0.219354 0)
(0.217303 0.226231 0)
(0.196701 0.23273 0)
(0.175623 0.236547 0)
(0.154542 0.238317 0)
(0.133667 0.240874 0)
(0.112276 0.242556 0)
(0.0918278 0.244497 0)
(0.0715281 0.247007 0)
(0.0515228 0.251316 0)
(0.0311693 0.253963 0)
(0.0108228 0.25802 0)
(3 3.038e-16 0)
(3 3.71549e-16 0)
(3 -2.52334e-17 0)
(3 -6.76054e-16 0)
(3 -9.76913e-16 0)
(3 -8.15541e-16 0)
(3 -4.40197e-16 0)
(3 -1.66577e-16 0)
(3 -1.31645e-15 0)
(3 -1.63137e-15 0)
(3 -1.0758e-15 0)
(3 -1.88253e-16 0)
(3 6.60701e-17 0)
(3 5.07673e-17 0)
(3 3.73835e-16 0)
(3 3.89597e-16 0)
(3 2.62008e-16 0)
(3 -1.09278e-15 0)
(3 -2.66486e-15 0)
(3 -3.62034e-15 0)
(3 -3.0214e-15 0)
(3 -2.26544e-15 0)
(3 -1.24933e-15 0)
(3 -2.77856e-16 0)
(3 3.7255e-16 0)
(3 4.94653e-16 0)
(3 2.83237e-16 0)
(3 -7.66238e-16 0)
(3 -1.16625e-15 0)
(3 -1.57439e-15 0)
(3 -1.92372e-15 0)
(3 -2.43421e-15 0)
(3 -2.67054e-15 0)
(3 -1.99357e-15 0)
(3 -1.11415e-15 0)
(3 -6.07689e-16 0)
(3 -1.71903e-15 0)
(3 -2.43701e-15 0)
(3 -2.12189e-15 0)
(3 -7.47994e-16 0)
(3 4.41502e-16 0)
(3 -3.19724e-16 0)
(3 -4.72846e-16 0)
(3 -5.23224e-16 0)
(3 -1.52362e-15 0)
(3 -1.5426e-15 0)
(3 -1.48183e-15 0)
(3 -8.19016e-16 0)
(3 7.07679e-17 0)
(3 5.06167e-16 0)
(2.31797 0.148935 0)
(0.871074 0.171258 0)
(0.757122 0.185382 0)
(0.740399 0.182521 0)
(0.722215 0.180702 0)
(0.705429 0.173791 0)
(0.688712 0.167165 0)
(0.672538 0.165678 0)
(0.657776 0.170463 0)
(0.644595 0.179388 0)
(0.630968 0.187377 0)
(0.616045 0.190154 0)
(0.600921 0.187671 0)
(0.585665 0.18376 0)
(0.570126 0.183519 0)
(0.555731 0.188324 0)
(0.541745 0.194438 0)
(0.526832 0.197522 0)
(0.511213 0.197479 0)
(0.494772 0.198416 0)
(0.478247 0.202789 0)
(0.461662 0.207848 0)
(0.444872 0.209929 0)
(0.428172 0.211317 0)
(0.41178 0.216048 0)
(0.396133 0.223134 0)
(0.380229 0.22771 0)
(0.36443 0.227179 0)
(0.348829 0.22387 0)
(0.332662 0.2216 0)
(0.315994 0.222096 0)
(0.298797 0.224895 0)
(0.280779 0.228919 0)
(0.261726 0.233311 0)
(0.241977 0.239223 0)
(0.221714 0.246638 0)
(0.200924 0.253659 0)
(0.179593 0.257785 0)
(0.158228 0.259622 0)
(0.137022 0.26226 0)
(0.115218 0.264011 0)
(0.0941454 0.26596 0)
(0.0731009 0.268441 0)
(0.0524092 0.272806 0)
(0.0314962 0.275358 0)
(0.0108979 0.279514 0)
(3 1.15892e-16 0)
(3 2.70448e-16 0)
(3 1.23162e-16 0)
(3 -3.11484e-16 0)
(3 2.22414e-16 0)
(3 3.46735e-16 0)
(3 -1.49916e-16 0)
(3 -5.42587e-16 0)
(3 -5.35114e-16 0)
(3 -1.22881e-15 0)
(3 -1.75081e-15 0)
(3 -2.05819e-15 0)
(3 -1.36161e-15 0)
(3 -5.35902e-16 0)
(3 8.15265e-17 0)
(3 7.94397e-16 0)
(3 1.32674e-15 0)
(3 2.29289e-16 0)
(3 -1.3741e-15 0)
(3 -2.14087e-15 0)
(3 -1.9151e-15 0)
(3 -1.34825e-15 0)
(3 -1.1986e-15 0)
(3 -7.57972e-16 0)
(3 -7.87521e-16 0)
(3 -6.55223e-16 0)
(3 -6.48417e-16 0)
(3 -6.38473e-16 0)
(3 -4.81113e-17 0)
(3 -4.89831e-16 0)
(3 -8.85989e-16 0)
(3 -1.57792e-15 0)
(3 -1.11161e-15 0)
(3 -6.08105e-17 0)
(3 5.12737e-16 0)
(3 3.85526e-16 0)
(3 -4.54073e-16 0)
(3 -1.28674e-15 0)
(3 -1.39581e-15 0)
(3 -3.60192e-16 0)
(3 -2.32997e-16 0)
(3 -6.94944e-16 0)
(3 -5.77505e-16 0)
(3 -4.27288e-16 0)
(3 -8.51794e-16 0)
(3 -9.24431e-16 0)
(3 -7.99729e-16 0)
(3 -4.68547e-17 0)
(3 5.86498e-16 0)
(3 8.29799e-16 0)
(2.52155 0.143719 0)
(0.909737 0.190705 0)
(0.764742 0.197259 0)
(0.750907 0.195447 0)
(0.734601 0.19398 0)
(0.719132 0.187672 0)
(0.702776 0.180782 0)
(0.685985 0.178196 0)
(0.670002 0.182126 0)
(0.655581 0.190918 0)
(0.641193 0.19959 0)
(0.625848 0.203293 0)
(0.610479 0.201545 0)
(0.595021 0.197999 0)
(0.579116 0.19758 0)
(0.564073 0.202031 0)
(0.54957 0.208233 0)
(0.534287 0.211976 0)
(0.518396 0.212571 0)
(0.501963 0.213713 0)
(0.485608 0.21798 0)
(0.46917 0.222942 0)
(0.452279 0.225157 0)
(0.435262 0.226928 0)
(0.418666 0.232137 0)
(0.403008 0.239456 0)
(0.387267 0.243806 0)
(0.371822 0.242965 0)
(0.356417 0.23969 0)
(0.34016 0.237823 0)
(0.323243 0.239075 0)
(0.305783 0.242905 0)
(0.287522 0.247945 0)
(0.268189 0.253019 0)
(0.248099 0.2593 0)
(0.227498 0.26722 0)
(0.206256 0.274821 0)
(0.184352 0.279397 0)
(0.162383 0.281447 0)
(0.140615 0.284251 0)
(0.118282 0.286093 0)
(0.0965562 0.288068 0)
(0.07476 0.290492 0)
(0.0533617 0.294892 0)
(0.0318405 0.297352 0)
(0.0109847 0.301627 0)
(3 1.11129e-17 0)
(3 -3.03313e-18 0)
(3 1.44821e-16 0)
(3 5.53338e-17 0)