/*--------------------------------*- C++ -*----------------------------------*\
  =========                 |
  \\      /  F ield         | OpenFOAM: The Open Source CFD Toolbox
   \\    /   O peration     | Website:  https://openfoam.org
    \\  /    A nd           | Version:  9
     \\/     M anipulation  |
\*---------------------------------------------------------------------------*/
FoamFile
{
    format      ascii;
    class       surfaceScalarField;
    location    "7.9";
    object      phi;
}
// * * * * * * * * * * * * * * * * * * * * * * * * * * * * * * * * * * * * * //

dimensions      [0 3 -1 0 0 0 0];

internalField   nonuniform List<scalar> 
16735
(
-0.0015184
0.0015184
2.5398e-11
-0.00415578
0.00263738
9.81029e-11
-0.00704433
0.00288855
1.78028e-10
-0.00944125
0.00239693
2.67186e-10
-0.010777
0.0013357
3.72808e-10
-0.0105082
-0.000268785
4.86639e-10
-0.00813117
-0.00237701
6.13208e-10
-0.00306207
-0.0050691
7.36019e-10
0.0047362
-0.00779827
8.46317e-10
-0.0112825
9.28288e-10
0.0160187
-0.00148673
0.00300512
-0.00404571
0.00519636
-0.00680817
0.00565101
-0.00902701
0.00461576
-0.0101248
0.00243348
-0.00954846
-0.000845107
-0.00678156
-0.0051439
-0.00125223
-0.0105984
0.00718336
-0.0162339
-0.0233187
0.0192195
-0.00142395
0.00442907
-0.00382721
0.00759963
-0.00633908
0.00816288
-0.00820385
0.00648054
-0.00882862
0.00305824
-0.00764044
-0.00203328
-0.00409478
-0.00868956
0.00240002
-0.0170932
0.012047
-0.0258809
-0.0368377
0.025566
-0.00133116
0.00576023
-0.00350349
0.00977196
-0.00564332
0.0103027
-0.00698226
0.00781948
-0.00690493
0.00298091
-0.00480835
-0.00412987
-6.14981e-05
-0.0134364
0.00783372
-0.0249885
0.0192543
-0.0373015
-0.0525305
0.0349471
-0.00120995
0.00697017
-0.0030792
0.0116412
-0.00473001
0.0119535
-0.00537742
0.00846688
-0.00437718
0.00198068
-0.00109597
-0.00741108
0.00511257
-0.0196449
0.014936
-0.0348119
0.028693
-0.0510585
-0.0710347
0.0471972
-0.0010623
0.00803248
-0.00256018
0.0131391
-0.00361068
0.013004
-0.00340859
0.00826479
-0.00127401
-0.000153901
0.00346802
-0.0121531
0.0115095
-0.0276864
0.02362
-0.0469224
0.0402188
-0.0676572
-0.0929152
0.0620992
-0.000890536
0.00892301
-0.00195326
0.0142018
-0.00229888
0.0133496
-0.0010985
0.0070644
0.00236606
-0.00361846
0.0088207
-0.0186077
0.0190093
-0.037875
0.0337677
-0.0616808
0.053655
-0.0875445
-0.118647
0.0793873
-0.000697166
0.00962018
-0.0012659
0.0147705
-0.000809611
0.0128934
0.00152686
0.00472793
0.00650473
-0.00859633
0.0149011
-0.0270041
0.0275173
-0.0504913
0.0452398
-0.0794033
0.0687943
-0.111099
-0.148602
0.0987489
-0.000484928
0.0101051
-0.000505772
0.0147914
0.000841345
0.0115462
0.00444058
0.0011287
0.0110987
-0.0152545
0.0216426
-0.0375479
0.0369305
-0.0657793
0.0578798
-0.100353
0.0853999
-0.138619
-0.183029
0.119827
-0.000257349
0.0103625
0.000317795
0.0142162
0.00263733
0.0092267
0.0076141
-0.00384807
0.0161013
-0.0237417
0.028973
-0.0504196
0.0471376
-0.0839438
0.0715164
-0.124731
0.103208
-0.170311
-0.222039
0.142218
-5.81567e-06
0.0103683
0.00119949
0.0130109
0.00456235
0.00586385
0.0110184
-0.0103041
0.0214647
-0.034188
0.0368163
-0.0657713
0.0580193
-0.105147
0.0859651
-0.152677
0.12193
-0.206276
-0.265592
0.165483
0.000245181
0.0101231
0.00213048
0.0111256
0.00660067
0.00139365
0.0146246
-0.018328
0.0271399
-0.0467033
0.0450931
-0.0837245
0.0694494
-0.129503
0.10103
-0.184258
0.141258
-0.246504
-0.313485
0.189151
0.000510591
0.0096125
0.00310451
0.00853172
0.0087373
-0.00423914
0.0184045
-0.0279952
0.0330777
-0.0613764
0.0537211
-0.104368
0.0812944
-0.157076
0.116504
-0.219467
0.160862
-0.290862
-0.365349
0.212726
0.000785031
0.00882747
0.00411575
0.005201
0.0109583
-0.0110817
0.0223306
-0.0393675
0.0392278
-0.0782737
0.0626146
-0.127755
0.0934131
-0.187875
0.132171
-0.258225
0.180401
-0.339091
-0.420651
0.235703
0.00106711
0.00776036
0.00515904
0.00110907
0.0132507
-0.0191734
0.0263757
-0.0524924
0.0455395
-0.0974375
0.0716842
-0.153899
0.105656
-0.221847
0.147806
-0.300375
0.199522
-0.390807
-0.47871
0.25758
0.00135597
0.00640439
0.00622996
-0.00376492
0.0156023
-0.0285458
0.0305129
-0.067403
0.0519599
-0.118884
0.0808356
-0.182775
0.117865
-0.258876
0.163173
-0.345684
0.217869
-0.445502
-0.538729
0.277888
0.00165106
0.00475333
0.00732468
-0.00943853
0.0180013
-0.0392225
0.0347149
-0.0841165
0.0584341
-0.142604
0.0899688
-0.21431
0.129873
-0.29878
0.178034
-0.393844
0.235083
-0.502552
-0.599887
0.29624
0.00195209
0.00280124
0.0084397
-0.0159261
0.020436
-0.0512187
0.038953
-0.102634
0.0649034
-0.168554
0.0989775
-0.248384
0.141508
-0.341311
0.19215
-0.444486
0.250818
-0.561219
-0.661451
0.312382
0.00225891
0.000542327
0.00957162
-0.0232388
0.0228939
-0.064541
0.0431967
-0.122936
0.0713048
-0.196662
0.107748
-0.284827
0.152593
-0.386156
0.205298
-0.497192
0.264791
-0.620713
-0.722906
0.326246
0.00257139
-0.00202907
0.0107168
-0.0313843
0.025362
-0.0791862
0.0474127
-0.144987
0.0775701
-0.22682
0.116157
-0.323414
0.162941
-0.43294
0.217223
-0.551473
0.276852
-0.680342
-0.78496
0.338906
0.00288934
-0.0049184
0.0118711
-0.040366
0.0278252
-0.0951403
0.0515644
-0.168726
0.083626
-0.258881
0.12408
-0.363868
0.172353
-0.481213
0.227514
-0.606635
0.287092
-0.739919
-0.859958
0.36209
0.00321235
-0.00813075
0.0130296
-0.0501833
0.0302667
-0.112377
0.0556118
-0.194071
0.0893956
-0.292665
0.131387
-0.405859
0.180642
-0.530468
0.235909
-0.661902
0.294355
-0.798366
-0.927665
0.362062
0.00353976
-0.0116705
0.0141863
-0.0608298
0.0326673
-0.130858
0.0595115
-0.220916
0.0947998
-0.327953
0.137959
-0.449018
0.187657
-0.580166
0.242268
-0.716512
0.29878
-0.854878
-0.98899
0.360106
0.00387051
-0.015541
0.0153341
-0.0722934
0.0350057
-0.15053
0.0632174
-0.249127
0.0997591
-0.364495
0.143686
-0.492945
0.193285
-0.629765
0.246579
-0.769806
0.300629
-0.908929
-1.04463
0.356269
0.00420313
-0.0197441
0.0164643
-0.0845546
0.0372579
-0.171324
0.0666809
-0.27855
0.104196
-0.40201
0.148469
-0.537219
0.197439
-0.678734
0.248849
-0.821217
0.299966
-0.960045
-1.09509
0.350423
0.00453567
-0.0242798
0.0175673
-0.0975862
0.0393982
-0.193154
0.0698526
-0.309005
0.108036
-0.440193
0.152228
-0.58141
0.200064
-0.72657
0.249112
-0.870265
0.29692
-1.00785
-1.14073
0.342559
0.00486571
-0.0291455
0.0186319
-0.111352
0.0413989
-0.215921
0.072683
-0.340289
0.111213
-0.478723
0.154897
-0.625094
0.201136
-0.772809
0.247432
-0.916561
0.291664
-1.05209
-1.18183
0.332767
0.00519034
-0.0343359
0.0196459
-0.125808
0.0432318
-0.239507
0.0751247
-0.372182
0.113668
-0.517267
0.156433
-0.667858
0.200663
-0.81704
0.243902
-0.959801
0.284397
-1.09258
-1.21864
0.321205
0.00550625
-0.0398421
0.0205962
-0.140898
0.0448681
-0.263779
0.0771332
-0.404447
0.115354
-0.555487
0.156813
-0.709317
0.198681
-0.858908
0.238641
-0.99976
0.275325
-1.12926
-1.25137
0.30806
0.00580974
-0.0456519
0.0214694
-0.156557
0.0462797
-0.28859
0.0786692
-0.436836
0.116235
-0.593053
0.156035
-0.749117
0.19525
-0.898123
0.231784
-1.03629
0.264661
-1.16214
-1.28025
0.293534
0.00609685
-0.0517487
0.0222514
-0.172712
0.0474401
-0.313778
0.0796992
-0.469095
0.116292
-0.629646
0.154119
-0.786945
0.190453
-0.934457
0.223481
-1.06932
0.252608
-1.19127
-1.30546
0.277824
0.00636339
-0.0581121
0.0229287
-0.189277
0.0483249
-0.339174
0.0801973
-0.500968
0.115517
-0.664965
0.151101
-0.822529
0.184387
-0.967743
0.213887
-1.09882
0.239366
-1.21675
-1.32722
0.26112
0.00660508
-0.0647172
0.0234881
-0.20616
0.0489128
-0.364599
0.0801453
-0.5322
0.113915
-0.698735
0.147033
-0.855647
0.17716
-0.997871
0.203156
-1.12482
0.225115
-1.23871
-1.34569
0.243592
0.00681763
-0.0715348
0.0239171
-0.22326
0.0491862
-0.389868
0.0795335
-0.562548
0.111506
-0.730707
0.141979
-0.88612
0.168887
-1.02478
0.191441
-1.14737
0.210025
-1.25729
-1.36106
0.225397
0.00699686
-0.0785317
0.0242048
-0.240468
0.0491316
-0.414795
0.0783605
-0.591777
0.108319
-0.760665
0.136013
-0.913815
0.159684
-1.04845
0.178885
-1.16657
0.194245
-1.27265
-1.37349
0.206669
0.00713876
-0.0856704
0.0243414
-0.257671
0.0487401
-0.439194
0.0766329
-0.619669
0.104393
-0.788425
0.129216
-0.938637
0.149668
-1.0689
0.165622
-1.18253
0.17791
-1.28494
-1.38311
0.187529
0.00723963
-0.0929101
0.0243191
-0.27475
0.0480071
-0.462882
0.074365
-0.646027
0.0997766
-0.813837
0.121672
-0.960533
0.13895
-1.08618
0.151777
-1.19535
0.161138
-1.2943
-1.39005
0.168078
0.00729612
-0.100206
0.0241319
-0.291586
0.0469329
-0.485683
0.0715774
-0.670672
0.0945209
-0.83678
0.113465
-0.979476
0.127637
-1.10035
0.137461
-1.20518
0.144033
-1.30087
-1.39442
0.148406
0.00730533
-0.107512
0.0237757
-0.308056
0.0455221
-0.507429
0.0682967
-0.693446
0.0886832
-0.857167
0.104679
-0.995473
0.11583
-1.1115
0.122776
-1.21212
0.126685
-1.30478
-1.39633
0.12859
0.00726486
-0.114776
0.0232488
-0.32404
0.0437832
-0.527964
0.0645542
-0.714217
0.0823226
-0.874935
0.0953982
-1.00855
0.103621
-1.11972
0.107811
-1.21631
0.109173
-1.30614
-1.39585
0.108695
0.00717286
-0.121949
0.0225512
-0.339418
0.0417289
-0.547141
0.0603848
-0.732873
0.0754994
-0.89005
0.0856998
-1.01875
0.0910945
-1.12512
0.092647
-1.21787
0.0915658
-1.30506
-1.39306
0.0887805
0.00702806
-0.128977
0.0216851
-0.354075
0.0393747
-0.564831
0.0558263
-0.749325
0.0682737
-0.902498
0.0756585
-1.02613
0.0783291
-1.12779
0.0773539
-1.21689
0.0739222
-1.30163
-1.38804
0.0688946
0.00682978
-0.135807
0.0206548
-0.367901
0.0367394
-0.580916
0.0509182
-0.763503
0.0607043
-0.912284
0.0653443
-1.03077
0.0653947
-1.12784
0.0619945
-1.21349
0.0562951
-1.29593
-1.38082
0.0490801
0.00657799
-0.142385
0.0194661
-0.380789
0.0338437
-0.595293
0.045701
-0.775361
0.0528485
-0.919431
0.0548222
-1.03275
0.0523545
-1.12537
0.0466246
-1.20776
0.0387316
-1.28804
-1.37146
0.0293716
0.00627322
-0.148658
0.0181266
-0.392642
0.0307104
-0.607877
0.0402157
-0.784866
0.0447608
-0.923976
0.044152
-1.03214
0.0392655
-1.12049
0.0312951
-1.19979
0.0212766
-1.27802
-1.35996
0.00977732
0.00591663
-0.154575
0.0166452
-0.403371
0.0273633
-0.618595
0.0345025
-0.792005
0.0364931
-0.925967
0.0333888
-1.02903
0.0261775
-1.11327
0.016048
-1.18966
0.00400586
-1.26598
-1.34635
-0.00960286
0.00550993
-0.160085
0.0150321
-0.412893
0.0238273
-0.62739
0.0286013
-0.796779
0.0280944
-0.92546
0.0225831
-1.02352
0.0131371
-1.10383
0.000869194
-1.17739
-0.0131558
-1.25195
-1.33079
-0.0287147
0.00505535
-0.16514
0.0132985
-0.421136
0.0201279
-0.63422
0.0225504
-0.799202
0.0196104
-0.92252
0.0117808
-1.01569
0.000175991
-1.09222
-0.0140406
-1.16318
-0.0300984
-1.23589
-1.31328
-0.047611
0.00455561
-0.169696
0.0114562
-0.428037
0.0162904
-0.639054
0.0163868
-0.799298
0.0110832
-0.917216
0.0010165
-1.00563
-0.0126253
-1.07858
-0.0288029
-1.147
-0.0467922
-1.2179
-1.29383
-0.0662441
0.00401391
-0.17371
0.00951787
-0.433541
0.0123403
-0.641876
0.0101458
-0.797104
0.00255328
-0.909624
-0.00964663
-0.993426
-0.0252793
-1.06295
-0.0433471
-1.12893
-0.0632183
-1.19803
-1.27246
-0.0845842
0.0034338
-0.177144
0.00749621
-0.437603
0.00830249
-0.642682
0.0038615
-0.792663
-0.00594416
-0.899818
-0.0201998
-0.979171
-0.0377399
-1.04541
-0.0576404
-1.10903
-0.079352
-1.17632
-1.24921
-0.102606
0.00281924
-0.179963
0.00540524
-0.440189
0.00420215
-0.641479
-0.00243528
-0.786025
-0.0143761
-0.887877
-0.0306043
-0.962942
-0.049978
-1.02604
-0.0716547
-1.08735
-0.0951679
-1.15281
-1.22409
-0.120284
0.00217449
-0.182137
0.0032615
-0.441276
9.76327e-05
-0.638316
-0.00871798
-0.77721
-0.0227128
-0.873883
-0.0408311
-0.944824
-0.0619671
-1.0049
-0.0853638
-1.06396
-0.11064
-1.12753
-1.19714
-0.137597
0.00150499
-0.183642
0.00108475
-0.440856
-0.00410856
-0.633122
-0.0149596
-0.766359
-0.0309257
-0.857916
-0.0508542
-0.924896
-0.073683
-0.982071
-0.0987427
-1.0389
-0.125743
-1.10053
-1.16836
-0.154521
0.000814437
-0.184457
-0.00112541
-0.438916
-0.00827165
-0.625976
-0.0211321
-0.753498
-0.0389898
-0.840059
-0.0606501
-0.903235
-0.0851034
-0.957618
-0.111768
-1.01223
-0.140451
-1.07185
-1.13778
-0.171033
8.08367e-05
-0.184538
-0.00337184
-0.435463
-0.0124104
-0.616937
-0.0272125
-0.738696
-0.0468818
-0.820389
-0.0701976
-0.87992
-0.096208
-0.931607
-0.124416
-0.984026
-0.154736
-1.04153
-1.10541
-0.187105
-0.000636397
-0.183901
-0.00561477
-0.430485
-0.0165074
-0.606045
-0.0331799
-0.722024
-0.0545808
-0.798988
-0.0794777
-0.855023
-0.106979
-0.904106
-0.136668
-0.954336
-0.168572
-1.00962
-1.07126
-0.202716
-0.0013672
-0.182534
-0.0078484
-0.424004
-0.0205453
-0.593348
-0.0390145
-0.703554
-0.0620682
-0.775935
-0.0884732
-0.828618
-0.117398
-0.875181
-0.148504
-0.923231
-0.181936
-0.97619
-1.03537
-0.217834
-0.00210361
-0.18043
-0.0100623
-0.416045
-0.024508
-0.578902
-0.0446984
-0.683364
-0.0693267
-0.751306
-0.0971688
-0.800776
-0.127453
-0.844897
-0.15991
-0.890774
-0.194785
-0.941315
-0.997791
-0.232361
-0.00283989
-0.17759
-0.0122458
-0.406639
-0.0283802
-0.562768
-0.0502151
-0.661529
-0.0763411
-0.72518
-0.105551
-0.771566
-0.13713
-0.813317
-0.170869
-0.857036
-0.207071
-0.905112
-0.95854
-0.246323
-0.00357135
-0.174019
-0.0143887
-0.395822
-0.032148
-0.545008
-0.0555497
-0.638128
-0.0830973
-0.697633
-0.113607
-0.741057
-0.146424
-0.7805
-0.181374
-0.822086
-0.218415
-0.868071
-0.919307
-0.257647
-0.00429364
-0.169725
-0.0164812
-0.383634
-0.0357982
-0.525691
-0.0606885
-0.613237
-0.0895829
-0.668738
-0.121326
-0.709314
-0.155322
-0.746503
-0.191439
-0.785969
-0.229704
-0.829806
-0.878819
-0.270192
-0.00500262
-0.164723
-0.0185142
-0.370123
-0.0393185
-0.504887
-0.0656193
-0.586936
-0.0957864
-0.638571
-0.128697
-0.676403
-0.163815
-0.711385
-0.201045
-0.74874
-0.24046
-0.790391
-0.837068
-0.282211
-0.00569435
-0.159028
-0.020479
-0.355338
-0.042698
-0.482668
-0.0703306
-0.559304
-0.101697
-0.607205
-0.135712
-0.642389
-0.171893
-0.675204
-0.210181
-0.710452
-0.250682
-0.749891
-0.794142
-0.293608
-0.00636507
-0.152663
-0.0223676
-0.339335
-0.0459263
-0.459109
-0.0748122
-0.530418
-0.107306
-0.574711
-0.14236
-0.607335
-0.179547
-0.638016
-0.218842
-0.671158
-0.260377
-0.708355
-0.750119
-0.3044
-0.00701123
-0.145652
-0.0241726
-0.322174
-0.0489941
-0.434288
-0.0790548
-0.500357
-0.112604
-0.541161
-0.148635
-0.571305
-0.18677
-0.599881
-0.227018
-0.63091
-0.269538
-0.665835
-0.705061
-0.314596
-0.00762951
-0.138023
-0.025887
-0.303917
-0.0518929
-0.408282
-0.08305
-0.4692
-0.117584
-0.506627
-0.154528
-0.534361
-0.193554
-0.560854
-0.234702
-0.589762
-0.278154
-0.622383
-0.659024
-0.324191
-0.00821676
-0.129806
-0.0275044
-0.284629
-0.0546149
-0.381172
-0.0867901
-0.437025
-0.122239
-0.471178
-0.160032
-0.496568
-0.199892
-0.520995
-0.241885
-0.547769
-0.286217
-0.578051
-0.612067
-0.333174
-0.00877008
-0.121036
-0.0290191
-0.26438
-0.0571532
-0.353037
-0.0902681
-0.40391
-0.126561
-0.434886
-0.165142
-0.457986
-0.205776
-0.480361
-0.248558
-0.504987
-0.293714
-0.532896
-0.564245
-0.341536
-0.00928677
-0.111749
-0.0304257
-0.243241
-0.0595012
-0.323962
-0.0934776
-0.369934
-0.130544
-0.397819
-0.16985
-0.41868
-0.211199
-0.439012
-0.254713
-0.461473
-0.300634
-0.486975
-0.515617
-0.349262
-0.00976437
-0.101985
-0.0317194
-0.221286
-0.0616534
-0.294028
-0.0964131
-0.335174
-0.134184
-0.360049
-0.17415
-0.378713
-0.216154
-0.397008
-0.26034
-0.417287
-0.306967
-0.440348
-0.466246
-0.356338
-0.0102006
-0.091784
-0.0328958
-0.198591
-0.0636045
-0.263319
-0.0990692
-0.299709
-0.137474
-0.321644
-0.178038
-0.338149
-0.220634
-0.354412
-0.265431
-0.372491
-0.3127
-0.393078
-0.416197
-0.36275
-0.0105935
-0.0811905
-0.033951
-0.175233
-0.06535
-0.23192
-0.101442
-0.263617
-0.14041
-0.282675
-0.181507
-0.297053
-0.224634
-0.311284
-0.269978
-0.327147
-0.317825
-0.345231
-0.365537
-0.368485
-0.0109412
-0.0702493
-0.0348818
-0.151293
-0.0668858
-0.199916
-0.103526
-0.226977
-0.142989
-0.243212
-0.184553
-0.25549
-0.228147
-0.26769
-0.273974
-0.28132
-0.322331
-0.296874
-0.314337
-0.373531
-0.0112422
-0.0590072
-0.035685
-0.12685
-0.0682086
-0.167393
-0.105319
-0.189867
-0.145206
-0.203325
-0.187171
-0.213524
-0.231168
-0.223694
-0.277411
-0.235076
-0.326209
-0.248076
-0.26267
-0.377877
-0.011495
-0.0475121
-0.0363581
-0.101987
-0.0693154
-0.134435
-0.106818
-0.152364
-0.147058
-0.163085
-0.189359
-0.171224
-0.233692
-0.179361
-0.280285
-0.188483
-0.329453
-0.198908
-0.21061
-0.381512
-0.0116987
-0.0358135
-0.0368992
-0.0767863
-0.0702038
-0.101131
-0.10802
-0.114547
-0.148544
-0.122562
-0.191114
-0.128654
-0.235717
-0.134758
-0.28259
-0.141609
-0.332056
-0.149443
-0.158235
-0.384431
-0.0118522
-0.0239613
-0.0373064
-0.0513321
-0.0708717
-0.0675654
-0.108923
-0.0764957
-0.149659
-0.0818258
-0.192431
-0.0858815
-0.237238
-0.0899519
-0.284323
-0.0945237
-0.334012
-0.0997533
-0.105623
-0.386625
-0.0119549
-0.0120064
-0.0375785
-0.0257085
-0.0713178
-0.0338262
-0.109526
-0.0382871
-0.150404
-0.0409483
-0.193311
-0.0429745
-0.238253
-0.0450099
-0.285479
-0.0472972
-0.335318
-0.0499142
-0.0528513
-0.38809
-0.0120064
3.79014e-11
-0.0377148
9.58332e-11
-0.0715411
1.29212e-10
-0.109828
1.37884e-10
-0.150776
1.35763e-10
-0.193751
1.28491e-10
-0.238761
1.19712e-10
-0.286058
1.12112e-10
-0.335972
1.05547e-10
9.97488e-11
-0.388824
-0.0120064
0.0120064
-0.0377148
0.0257085
-0.0715411
0.0338262
-0.109828
0.0382871
-0.150776
0.0409483
-0.193751
0.0429745
-0.238761
0.0450099
-0.286058
0.0472972
-0.335972
0.0499142
0.0528513
-0.388824
-0.0119549
0.0239613
-0.0375785
0.0513321
-0.0713178
0.0675654
-0.109526
0.0764957
-0.150404
0.0818258
-0.193311
0.0858815
-0.238253
0.0899519
-0.285479
0.0945237
-0.335318
0.0997533
0.105623
-0.38809
-0.0118522
0.0358135
-0.0373064
0.0767863
-0.0708717
0.101131
-0.108923
0.114547
-0.149659
0.122562
-0.192431
0.128654
-0.237238
0.134758
-0.284323
0.141609
-0.334012
0.149443
0.158235
-0.386625
-0.0116987
0.0475121
-0.0368992
0.101987
-0.0702038
0.134435
-0.10802
0.152364
-0.148544
0.163085
-0.191114
0.171224
-0.235717
0.179361
-0.28259
0.188483
-0.332056
0.198908
0.21061
-0.384431
-0.011495
0.0590072
-0.0363581
0.12685
-0.0693154
0.167393
-0.106818
0.189867
-0.147058
0.203325
-0.189359
0.213524
-0.233692
0.223694
-0.280285
0.235076
-0.329453
0.248076
0.26267
-0.381512
-0.0112422
0.0702493
-0.035685
0.151293
-0.0682086
0.199916
-0.105319
0.226977
-0.145206
0.243212
-0.187171
0.25549
-0.231168
0.26769
-0.277411
0.28132
-0.326209
0.296874
0.314337
-0.377877
-0.0109412
0.0811905
-0.0348818
0.175233
-0.0668858
0.23192
-0.103526
0.263617
-0.142989
0.282675
-0.184553
0.297053
-0.228147
0.311284
-0.273974
0.327147
-0.322331
0.345231
0.365537
-0.373531
-0.0105935
0.091784
-0.033951
0.198591
-0.06535
0.263319
-0.101442
0.299709
-0.14041
0.321644
-0.181507
0.338149
-0.224634
0.354412
-0.269978
0.372491
-0.317825
0.393078
0.416197
-0.368485
-0.0102006
0.101985
-0.0328958
0.221286
-0.0636045
0.294028
-0.0990692
0.335174
-0.137474
0.360049
-0.178038
0.378713
-0.220634
0.397008
-0.265431
0.417287
-0.3127
0.440348
0.466246
-0.36275
-0.00976437
0.111749
-0.0317194
0.243241
-0.0616534
0.323962
-0.0964131
0.369934
-0.134184
0.397819
-0.17415
0.41868
-0.216154
0.439012
-0.26034
0.461473
-0.306967
0.486975
0.515617
-0.356338
-0.00928677
0.121036
-0.0304257
0.26438
-0.0595012
0.353037
-0.0934776
0.40391
-0.130544
0.434886
-0.16985
0.457986
-0.211199
0.480361
-0.254713
0.504987
-0.300634
0.532896
0.564245
-0.349262
-0.00877008
0.129806
-0.0290191
0.284629
-0.0571532
0.381172
-0.0902681
0.437025
-0.126561
0.471178
-0.165142
0.496568
-0.205776
0.520995
-0.248558
0.547769
-0.293714
0.578051
0.612067
-0.341536
-0.00821676
0.138023
-0.0275044
0.303917
-0.0546149
0.408282
-0.0867901
0.4692
-0.122239
0.506627
-0.160032
0.534361
-0.199892
0.560854
-0.241885
0.589762
-0.286217
0.622383
0.659024
-0.333174
-0.00762951
0.145652
-0.025887
0.322174
-0.0518929
0.434288
-0.08305
0.500357
-0.117584
0.541161
-0.154528
0.571305
-0.193554
0.599881
-0.234702
0.63091
-0.278154
0.665835
0.705061
-0.324191
-0.00701123
0.152663
-0.0241726
0.339335
-0.0489941
0.459109
-0.0790548
0.530418
-0.112604
0.574711
-0.148635
0.607335
-0.18677
0.638016
-0.227018
0.671158
-0.269538
0.708355
0.750119
-0.314596
-0.00636507
0.159028
-0.0223676
0.355338
-0.0459263
0.482668
-0.0748122
0.559304
-0.107306
0.607205
-0.14236
0.642389
-0.179547
0.675204
-0.218842
0.710452
-0.260377
0.749891
0.794142
-0.3044
-0.00569435
0.164723
-0.020479
0.370123
-0.042698
0.504887
-0.0703306
0.586936
-0.101697
0.638571
-0.135712
0.676403
-0.171893
0.711385
-0.210181
0.74874
-0.250682
0.790391
0.837068
-0.293608
-0.00500262
0.169725
-0.0185142
0.383634
-0.0393185
0.525691
-0.0656193
0.613237
-0.0957864
0.668738
-0.128697
0.709314
-0.163815
0.746503
-0.201045
0.785969
-0.24046
0.829806
0.878819
-0.282211
-0.00429364
0.174019
-0.0164812
0.395822
-0.0357982
0.545008
-0.0606885
0.638128
-0.0895829
0.697633
-0.121326
0.741057
-0.155322
0.7805
-0.191439
0.822086
-0.229704
0.868071
0.919307
-0.270192
-0.00357135
0.17759
-0.0143887
0.406639
-0.032148
0.562768
-0.0555497
0.661529
-0.0830973
0.72518
-0.113607
0.771566
-0.146424
0.813317
-0.181374
0.857036
-0.218415
0.905112
0.95854
-0.257647
-0.00283989
0.18043
-0.0122458
0.416045
-0.0283802
0.578902
-0.0502151
0.683364
-0.0763411
0.751306
-0.105551
0.800776
-0.13713
0.844897
-0.170869
0.890774
-0.207071
0.941315
0.997791
-0.246323
-0.00210361
0.182534
-0.0100623
0.424004
-0.024508
0.593348
-0.0446984
0.703554
-0.0693267
0.775935
-0.0971688
0.828618
-0.127453
0.875181
-0.15991
0.923231
-0.194785
0.97619
1.03537
-0.232361
-0.0013672
0.183901
-0.0078484
0.430485
-0.0205453
0.606045
-0.0390145
0.722024
-0.0620682
0.798988
-0.0884732
0.855023
-0.117398
0.904106
-0.148504
0.954336
-0.181936
1.00962
1.07126
-0.217834
-0.000636397
0.184538
-0.00561477
0.435463
-0.0165074
0.616937
-0.0331799
0.738696
-0.0545808
0.820389
-0.0794777
0.87992
-0.106979
0.931607
-0.136668
0.984026
-0.168572
1.04153
1.10541
-0.202716
8.08367e-05
0.184457
-0.00337184
0.438916
-0.0124104
0.625976
-0.0272125
0.753498
-0.0468818
0.840059
-0.0701976
0.903235
-0.096208
0.957618
-0.124416
1.01223
-0.154736
1.07185
1.13778
-0.187105
0.000814437
0.183642
-0.00112541
0.440856
-0.00827165
0.633122
-0.0211321
0.766359
-0.0389898
0.857916
-0.0606501
0.924896
-0.0851034
0.982071
-0.111768
1.0389
-0.140451
1.10053
1.16836
-0.171033
0.00150499
0.182137
0.00108475
0.441276
-0.00410856
0.638316
-0.0149596
0.77721
-0.0309257
0.873883
-0.0508542
0.944824
-0.073683
1.0049
-0.0987427
1.06396
-0.125743
1.12753
1.19714
-0.154521
0.00217449
0.179963
0.0032615
0.440189
9.76328e-05
0.641479
-0.00871798
0.786025
-0.0227128
0.887877
-0.0408311
0.962942
-0.0619671
1.02604
-0.0853638
1.08735
-0.11064
1.15281
1.22409
-0.137597
0.00281924
0.177144
0.00540524
0.437603
0.00420215
0.642682
-0.00243528
0.792663
-0.0143761
0.899818
-0.0306043
0.979171
-0.049978
1.04541
-0.0716547
1.10903
-0.0951679
1.17632
1.24921
-0.120284
0.0034338
0.17371
0.00749621
0.433541
0.00830249
0.641876
0.0038615
0.797104
-0.00594416
0.909624
-0.0201998
0.993426
-0.0377399
1.06295
-0.0576404
1.12893
-0.079352
1.19803
1.27246
-0.102606
0.00401391
0.169696
0.00951787
0.428037
0.0123403
0.639054
0.0101458
0.799298
0.00255328
0.917216
-0.00964663
1.00563
-0.0252793
1.07858
-0.0433471
1.147
-0.0632183
1.2179
1.29383
-0.0845842
0.00455561
0.16514
0.0114562
0.421136
0.0162904
0.63422
0.0163868
0.799202
0.0110832
0.92252
0.0010165
1.01569
-0.0126253
1.09222
-0.0288029
1.16318
-0.0467922
1.23589
1.31328
-0.0662441
0.00505535
0.160085
0.0132985
0.412893
0.0201279
0.62739
0.0225504
0.796779
0.0196104
0.92546
0.0117808
1.02352
0.000175991
1.10383
-0.0140406
1.17739
-0.0300984
1.25195
1.33079
-0.047611
0.00550993
0.154575
0.0150321
0.403371
0.0238273
0.618595
0.0286013
0.792005
0.0280944
0.925967
0.0225831
1.02903
0.0131371
1.11327
0.000869194
1.18966
-0.0131558
1.26598
1.34635
-0.0287147
0.00591663
0.148658
0.0166452
0.392642
0.0273633
0.607877
0.0345025
0.784866
0.0364931
0.923976
0.0333888
1.03214
0.0261775
1.12049
0.016048
1.19979
0.00400586
1.27802
1.35996
-0.00960286
0.00627322
0.142385
0.0181266
0.380789
0.0307104
0.595293
0.0402157
0.775361
0.0447608
0.919431
0.044152
1.03275
0.0392655
1.12537
0.0312951
1.20776
0.0212766
1.28804
1.37146
0.00977732
0.00657799
0.135807
0.0194661
0.367901
0.0338437
0.580916
0.045701
0.763503
0.0528485
0.912284
0.0548222
1.03077
0.0523545
1.12784
0.0466246
1.21349
0.0387316
1.29593
1.38082
0.0293716
0.00682978
0.128977
0.0206548
0.354075
0.0367394
0.564831
0.0509182
0.749325
0.0607043
0.902498
0.0653443
1.02613
0.0653947
1.12779
0.0619945
1.21689
0.0562951
1.30163
1.38804
0.0490801
0.00702806
0.121949
0.0216851
0.339418
0.0393747
0.547141
0.0558263
0.732873
0.0682737
0.89005
0.0756585
1.01875
0.0783291
1.12512
0.0773539
1.21787
0.0739222
1.30506
1.39306
0.0688946
0.00717286
0.114776
0.0225512
0.32404
0.0417289
0.527964
0.0603848
0.714217
0.0754994
0.874935
0.0856998
1.00855
0.0910945
1.11972
0.092647
1.21631
0.0915658
1.30614
1.39585
0.0887805
0.00726486
0.107512
0.0232488
0.308056
0.0437832
0.507429
0.0645542
0.693446
0.0823226
0.857167
0.0953982
0.995473
0.103621
1.1115
0.107811
1.21212
0.109173
1.30478
1.39633
0.108695
0.00730533
0.100206
0.0237757
0.291586
0.0455221
0.485683
0.0682967
0.670672
0.0886832
0.83678
0.104679
0.979476
0.11583
1.10035
0.122776
1.20518
0.126685
1.30087
1.39442
0.12859
0.00729612
0.0929101
0.0241319
0.27475
0.0469329
0.462882
0.0715774
0.646027
0.0945209
0.813837
0.113465
0.960533
0.127637
1.08618
0.137461
1.19535
0.144033
1.2943
1.39005
0.148406
0.00723963
0.0856704
0.0243191
0.257671
0.0480071
0.439194
0.074365
0.619669
0.0997766
0.788425
0.121672
0.938637
0.13895
1.0689
0.151777
1.18253
0.161138
1.28494
1.38311
0.168078
0.00713876
0.0785317
0.0243414
0.240468
0.0487401
0.414795
0.0766329
0.591777
0.104393
0.760665
0.129216
0.913815
0.149668
1.04845
0.165622
1.16657
0.17791
1.27265
1.37349
0.187529
0.00699686
0.0715348
0.0242048
0.22326
0.0491316
0.389868
0.0783605
0.562548
0.108319
0.730707
0.136013
0.88612
0.159684
1.02478
0.178885
1.14737
0.194245
1.25729
1.36106
0.206669
0.00681763
0.0647172
0.0239171
0.20616
0.0491862
0.364599
0.0795335
0.5322
0.111506
0.698735
0.141979
0.855647
0.168887
0.997871
0.191441
1.12482
0.210025
1.23871
1.34569
0.225397
0.00660508
0.0581121
0.0234881
0.189277
0.0489128
0.339174
0.0801453
0.500968
0.113915
0.664965
0.147033
0.822529
0.17716
0.967743
0.203156
1.09882
0.225115
1.21675
1.32722
0.243592
0.00636339
0.0517487
0.0229287
0.172712
0.0483249
0.313778
0.0801973
0.469095
0.115517
0.629646
0.151101
0.786945
0.184387
0.934457
0.213887
1.06932
0.239366
1.19127
1.30546
0.26112
0.00609685
0.0456519
0.0222514
0.156557
0.0474401
0.28859
0.0796992
0.436836
0.116292
0.593053
0.154119
0.749117
0.190453
0.898123
0.223481
1.03629
0.252608
1.16214
1.28025
0.277824
0.00580974
0.0398421
0.0214694
0.140898
0.0462797
0.263779
0.0786692
0.404447
0.116235
0.555487
0.156035
0.709317
0.19525
0.858908
0.231784
0.99976
0.264661
1.12926
1.25137
0.293534
0.00550625
0.0343359
0.0205962
0.125808
0.0448681
0.239507
0.0771332
0.372182
0.115354
0.517267
0.156813
0.667858
0.198681
0.81704
0.238641
0.959801
0.275325
1.09258
1.21864
0.30806
0.00519034
0.0291455
0.0196459
0.111352
0.0432318
0.215921
0.0751247
0.340289
0.113668
0.478723
0.156433
0.625094
0.200663
0.772809
0.243902
0.916561
0.284397
1.05209
1.18183
0.321205
0.00486571
0.0242798
0.0186319
0.0975862
0.0413989
0.193154
0.072683
0.309005
0.111213
0.440193
0.154897
0.58141
0.201136
0.72657
0.247432
0.870265
0.291664
1.00785
1.14073
0.332767
0.00453567
0.0197441
0.0175673
0.0845546
0.0393982
0.171324
0.0698526
0.27855
0.108036
0.40201
0.152228
0.537219
0.200064
0.678734
0.249112
0.821217
0.29692
0.960045
1.09509
0.342559
0.00420313
0.015541
0.0164643
0.0722934
0.0372579
0.15053
0.0666809
0.249127
0.104196
0.364495
0.148469
0.492945
0.197439
0.629765
0.248849
0.769806
0.299966
0.908929
1.04463
0.350423
0.00387051
0.0116705
0.0153341
0.0608298
0.0350057
0.130858
0.0632174
0.220916
0.0997591
0.327953
0.143686
0.449018
0.193285
0.580166
0.246579
0.716512
0.300629
0.854878
0.98899
0.356269
0.00353976
0.00813075
0.0141863
0.0501833
0.0326673
0.112377
0.0595115
0.194071
0.0947998
0.292665
0.137959
0.405859
0.187657
0.530468
0.242268
0.661902
0.29878
0.798366
0.927665
0.360106
0.00321235
0.0049184
0.0130296
0.040366
0.0302667
0.0951403
0.0556118
0.168726
0.0893956
0.258881
0.131387
0.363868
0.180642
0.481213
0.235909
0.606635
0.294355
0.739919
0.859958
0.362062
0.00288934
0.00202907
0.0118711
0.0313843
0.0278252
0.0791862
0.0515644
0.144987
0.083626
0.22682
0.12408
0.323414
0.172353
0.43294
0.227514
0.551473
0.287092
0.680342
0.78496
0.36209
0.00257139
-0.000542327
0.0107168
0.0232388
0.025362
0.064541
0.0474127
0.122936
0.0775701
0.196662
0.116157
0.284827
0.162941
0.386156
0.217223
0.497192
0.276852
0.620713
0.722906
0.338906
0.00225891
-0.00280124
0.00957162
0.0159261
0.0228939
0.0512187
0.0431967
0.102634
0.0713048
0.168554
0.107748
0.248384
0.152593
0.341311
0.205298
0.444486
0.264791
0.561219
0.661451
0.326246
0.00195209
-0.00475333
0.0084397
0.00943853
0.020436
0.0392225
0.038953
0.0841165
0.0649034
0.142604
0.0989775
0.21431
0.141508
0.29878
0.19215
0.393844
0.250818
0.502552
0.599887
0.312382
0.00165106
-0.00640439
0.00732468
0.00376492
0.0180013
0.0285458
0.0347149
0.067403
0.0584341
0.118884
0.0899688
0.182775
0.129873
0.258876
0.178034
0.345684
0.235083
0.445502
0.538729
0.29624
0.00135597
-0.00776036
0.00622996
-0.00110907
0.0156023
0.0191734
0.0305129
0.0524924
0.0519599
0.0974375
0.0808356
0.153899
0.117865
0.221847
0.163173
0.300375
0.217869
0.390807
0.47871
0.277888
0.00106711
-0.00882747
0.00515904
-0.005201
0.0132507
0.0110817
0.0263757
0.0393675
0.0455395
0.0782737
0.0716842
0.127755
0.105656
0.187875
0.147806
0.258225
0.199522
0.339091
0.420651
0.25758
0.000785031
-0.0096125
0.00411575
-0.00853172
0.0109583
0.00423914
0.0223306
0.0279952
0.0392278
0.0613764
0.0626146
0.104368
0.0934131
0.157076
0.132171
0.219467
0.180401
0.290862
0.365349
0.235703
0.000510591
-0.0101231
0.00310451
-0.0111256
0.0087373
-0.00139365
0.0184045
0.018328
0.0330777
0.0467033
0.0537211
0.0837245
0.0812944
0.129503
0.116504
0.184258
0.160862
0.246504
0.313485
0.212726
0.000245181
-0.0103683
0.00213048
-0.0130109
0.00660067
-0.00586385
0.0146246
0.0103041
0.0271399
0.034188
0.0450931
0.0657713
0.0694494
0.105147
0.10103
0.152677
0.141258