/*--------------------------------*- C++ -*----------------------------------*\
  =========                 |
  \\      /  F ield         | OpenFOAM: The Open Source CFD Toolbox
   \\    /   O peration     | Website:  https://openfoam.org
    \\  /    A nd           | Version:  9
     \\/     M anipulation  |
\*---------------------------------------------------------------------------*/
FoamFile
{
    format      ascii;
    class       surfaceScalarField;
    location    "0.4";
    object      phi;
}
// * * * * * * * * * * * * * * * * * * * * * * * * * * * * * * * * * * * * * //

dimensions      [0 3 -1 0 0 0 0];

internalField   nonuniform List<scalar> 
12640
(
1.89017e-10
-1.92085e-10
5.55639e-10
-3.66623e-10
8.83071e-10
-3.27436e-10
1.04618e-09
-1.63099e-10
9.82845e-10
6.33503e-11
6.65986e-10
3.16876e-10
8.87219e-11
5.77273e-10
-7.43842e-10
8.32569e-10
-1.8195e-09
1.07567e-09
-3.12179e-09
1.3023e-09
-4.6317e-09
1.50993e-09
-6.32879e-09
1.69709e-09
-8.1918e-09
1.86303e-09
-1.01992e-08
2.00742e-09
-1.23295e-08
2.13029e-09
-1.45614e-08
2.23189e-09
-1.6874e-08
2.31262e-09
-1.9247e-08
2.37302e-09
-2.16607e-08
2.41369e-09
-2.4096e-08
2.43532e-09
-2.65346e-08
2.43863e-09
-2.8959e-08
2.42438e-09
-3.13523e-08
2.39336e-09
-3.36987e-08
2.34637e-09
-3.59829e-08
2.28423e-09
-3.81907e-08
2.20777e-09
-4.03085e-08
2.11781e-09
-4.23237e-08
2.01519e-09
-4.42244e-08
1.90076e-09
-4.59998e-08
1.77535e-09
-4.76396e-08
1.63982e-09
-4.91346e-08
1.49501e-09
-5.04764e-08
1.34181e-09
-5.16574e-08
1.18106e-09
-5.26711e-08
1.01365e-09
-5.35115e-08
8.40462e-10
-5.4174e-08
6.62406e-10
-5.46543e-08
4.80393e-10
-5.49497e-08
2.95355e-10
-5.50579e-08
1.08237e-10
-5.49779e-08
-7.9996e-11
-5.47096e-08
-2.68362e-10
-5.42537e-08
-4.5586e-10
-5.36123e-08
-6.4147e-10
-5.27881e-08
-8.24157e-10
-5.17852e-08
-1.00287e-09
-5.06087e-08
-1.17654e-09
-4.92646e-08
-1.34409e-09
-4.77602e-08
-1.50444e-09
-4.61037e-08
-1.6565e-09
-4.43045e-08
-1.79915e-09
-4.23732e-08
-1.93133e-09
-4.03212e-08
-2.05194e-09
-3.81613e-08
-2.15992e-09
-3.59071e-08
-2.25422e-09
-3.35733e-08
-2.33381e-09
-3.11756e-08
-2.39771e-09
-2.87306e-08
-2.44497e-09
-2.62559e-08
-2.47471e-09
-2.37699e-08
-2.48606e-09
-2.12916e-08
-2.47826e-09
-1.8841e-08
-2.45062e-09
-1.64384e-08
-2.40254e-09
-1.41049e-08
-2.33352e-09
-1.18617e-08
-2.24318e-09
-9.73044e-09
-2.13128e-09
-7.73268e-09
-1.99777e-09
-5.88991e-09
-1.84277e-09
-4.22322e-09
-1.66672e-09
-2.75289e-09
-1.47035e-09
-1.49794e-09
-1.25494e-09
-4.75383e-10
-1.0225e-09
3.00798e-10
-7.76116e-10
8.21356e-10
-5.20543e-10
1.08464e-09
-2.63327e-10
1.10141e-09
-1.68119e-11
9.02809e-10
1.9862e-10
5.54614e-10
3.48223e-10
1.84001e-10
3.70563e-10
1.83903e-10
3.65437e-10
-5.57517e-10
8.86373e-10
-8.87533e-10
1.2175e-09
-6.58551e-10
1.13571e-09
-8.13114e-11
5.0335e-10
6.95716e-10
-7.53417e-10
1.57366e-09
-2.66378e-09
2.48765e-09
-5.22666e-09
3.39547e-09
-8.42065e-09
4.26966e-09
-1.22107e-08
5.09234e-09
-1.65527e-08
5.85194e-09
-2.13967e-08
6.5411e-09
-2.6689e-08
7.15539e-09
-3.2374e-08
7.69239e-09
-3.83948e-08
8.15115e-09
-4.46947e-08
8.53175e-09
-5.12171e-08
8.83508e-09
-5.79067e-08
9.06257e-09
-6.47091e-08
9.21612e-09
-7.15717e-08
9.29794e-09
-7.84436e-08
9.31051e-09
-8.52757e-08
9.25649e-09
-9.2021e-08
9.13867e-09
-9.86346e-08
8.95999e-09
-1.05074e-07
8.72343e-09
-1.11298e-07
8.43207e-09
-1.17269e-07
8.08901e-09
-1.22951e-07
7.69742e-09
-1.28311e-07
7.26048e-09
-1.33317e-07
6.78142e-09
-1.37941e-07
6.26348e-09
-1.42156e-07
5.70995e-09
-1.45938e-07
5.12414e-09
-1.49267e-07
4.50941e-09
-1.52122e-07
3.86914e-09
-1.54488e-07
3.20677e-09
-1.56352e-07
2.52579e-09
-1.57701e-07
1.82973e-09
-1.58528e-07
1.1222e-09
-1.58827e-07
4.06849e-10
-1.58594e-07
-3.12597e-10
-1.5783e-07
-1.03235e-09
-1.56537e-07
-1.74856e-09
-1.54721e-07
-2.45732e-09
-1.52391e-07
-3.15464e-09
-1.49557e-07
-3.8365e-09
-1.46235e-07
-4.49882e-09
-1.42442e-07
-5.1375e-09
-1.38198e-07
-5.7484e-09
-1.33527e-07
-6.32737e-09
-1.28456e-07
-6.87026e-09
-1.23014e-07
-7.37296e-09
-1.17235e-07
-7.83139e-09
-1.11153e-07
-8.24153e-09
-1.04808e-07
-8.59946e-09
-9.82402e-08
-8.90137e-09
-9.14943e-08
-9.14361e-09
-8.46166e-08
-9.32268e-09
-7.7656e-08
-9.43533e-09
-7.06635e-08
-9.47852e-09
-6.36922e-08
-9.44953e-09
-5.67969e-08
-9.34594e-09
-5.00338e-08
-9.16573e-09
-4.34599e-08
-8.90736e-09
-3.71333e-08
-8.56979e-09
-3.1112e-08
-8.15261e-09
-2.54535e-08
-7.65619e-09
-2.02145e-08
-7.08182e-09
-1.54491e-08
-6.432e-09
-1.12087e-08
-5.71078e-09
-7.53943e-09
-4.92428e-09
-4.48041e-09
-4.08158e-09
-2.06052e-09
-3.19599e-09
-2.93972e-10
-2.28701e-09
8.26174e-10
-1.38341e-09
1.33753e-09
-5.28199e-10
1.32222e-09
2.1392e-10
9.24629e-10
7.45917e-10
3.70728e-10
9.24653e-10
5.54581e-10
3.30115e-10
-8.87633e-10
6.6624e-10
-1.22363e-09
6.1349e-10
-6.05778e-10
-8.92122e-11
6.21401e-10
-1.61276e-09
2.21927e-09
-4.05639e-09
4.01731e-09
-7.46454e-09
5.89582e-09
-1.18412e-08
7.77214e-09
-1.7161e-08
9.58946e-09
-2.33775e-08
1.13089e-08
-3.04294e-08
1.29039e-08
-3.82452e-08
1.43569e-08
-4.67463e-08
1.56565e-08
-5.58498e-08
1.67959e-08
-6.54703e-08
1.77716e-08
-7.55212e-08
1.85827e-08
-8.5916e-08
1.92299e-08
-9.65689e-08
1.97155e-08
-1.07396e-07
2.00431e-08
-1.18315e-07
2.02167e-08
-1.29245e-07
2.02413e-08
-1.40111e-07
2.01221e-08
-1.50837e-07
1.98651e-08
-1.61354e-07
1.94763e-08
-1.71592e-07
1.89619e-08
-1.81489e-07
1.83285e-08
-1.90982e-07
1.75828e-08
-2.00016e-07
1.67314e-08
-2.08537e-07
1.57814e-08
-2.16495e-07
1.47396e-08
-2.23845e-07
1.36131e-08
-2.30544e-07
1.24091e-08
-2.36555e-07
1.11348e-08
-2.41843e-07
9.79753e-09
-2.46378e-07
8.40469e-09
-2.50136e-07
6.96381e-09
-2.53092e-07
5.48251e-09
-2.55231e-07
3.96855e-09
-2.56539e-07
2.4298e-09
-2.57006e-07
8.74266e-10
-2.56629e-07
-6.89918e-10
-2.55407e-07
-2.25448e-09
-2.53344e-07
-3.811e-09
-2.50451e-07
-5.35097e-09
-2.46739e-07
-6.86572e-09
-2.42229e-07
-8.3465e-09
-2.36944e-07
-9.78446e-09
-2.30911e-07
-1.11707e-08
-2.24163e-07
-1.24962e-08
-2.16738e-07
-1.37521e-08
-2.08679e-07
-1.49294e-08
-2.00033e-07
-1.60193e-08
-1.90851e-07
-1.70129e-08
-1.81191e-07
-1.79017e-08
-1.71113e-07
-1.86773e-08
-1.60683e-07
-1.93316e-08
-1.4997e-07
-1.98568e-08
-1.39047e-07
-2.02456e-08
-1.27991e-07
-2.04911e-08
-1.16882e-07
-2.05871e-08
-1.05804e-07
-2.0528e-08
-9.48408e-08
-2.03089e-08
-8.40806e-08
-1.99259e-08
-7.36117e-08
-1.93763e-08
-6.35232e-08
-1.86583e-08
-5.3904e-08
-1.77718e-08
-4.48416e-08
-1.67186e-08
-3.6421e-08
-1.55024e-08
-2.8723e-08
-1.41299e-08
-2.18224e-08
-1.26113e-08
-1.57854e-08
-1.09612e-08
-1.06662e-08
-9.20088e-09
-6.50236e-09
-7.35991e-09
-3.30912e-09
-5.48024e-09
-1.07138e-09
-3.62106e-09
2.66673e-10
-1.86623e-09
8.15247e-10
-3.34729e-10
7.54453e-10
8.06662e-10
3.51048e-10
1.32816e-09
9.05635e-10
1.71786e-10
-1.05943e-09
1.04705e-10
-1.15653e-09
-5.87975e-10
8.69276e-11
-2.17023e-09
2.20368e-09
-4.81921e-09
4.86826e-09
-8.64128e-09
7.83938e-09
-1.36858e-08
1.09404e-08
-1.99578e-08
1.40441e-08
-2.74279e-08
1.70595e-08
-3.60408e-08
1.99219e-08
-4.57224e-08
2.25855e-08
-5.63843e-08
2.50188e-08
-6.79283e-08
2.72005e-08
-8.02496e-08
2.91172e-08
-9.32391e-08
3.07612e-08
-1.06786e-07
3.21292e-08
-1.20777e-07
3.32212e-08
-1.35102e-07
3.40402e-08
-1.49649e-07
3.45908e-08
-1.64312e-07
3.48795e-08
-1.78985e-07
3.4914e-08
-1.93566e-07
3.47028e-08
-2.07956e-07
3.42554e-08
-2.22061e-07
3.35819e-08
-2.35792e-07
3.26928e-08
-2.49063e-07
3.15991e-08
-2.61792e-07
3.03119e-08
-2.73904e-07
2.88429e-08
-2.85326e-07
2.72038e-08
-2.95993e-07
2.54065e-08
-3.05843e-07
2.34633e-08
-3.1482e-07
2.13863e-08
-3.22874e-07
1.91881e-08
-3.29957e-07
1.68814e-08
-3.36032e-07
1.44788e-08
-3.41061e-07
1.19936e-08
-3.45018e-07
9.43888e-09
-3.47877e-07
6.82803e-09
-3.49622e-07
4.17472e-09
-3.50241e-07
1.4928e-09
-3.49727e-07
-1.20365e-09
-3.48081e-07
-3.90035e-09
-3.45309e-07
-6.58276e-09
-3.41424e-07
-9.23617e-09
-3.36444e-07
-1.18457e-08
-3.30395e-07
-1.43962e-08
-3.23307e-07
-1.68724e-08
-3.15218e-07
-1.92592e-08
-3.06173e-07
-2.15411e-08
-2.96223e-07
-2.37027e-08
-2.85423e-07
-2.57288e-08
-2.73838e-07
-2.76043e-08
-2.61537e-07
-2.93141e-08
-2.48595e-07
-3.08437e-08
-2.35094e-07
-3.21789e-08
-2.21119e-07
-3.33059e-08
-2.06764e-07
-3.42118e-08
-1.92126e-07
-3.48841e-08
-1.77305e-07
-3.53115e-08
-1.62409e-07
-3.54836e-08
-1.47545e-07
-3.53914e-08
-1.32827e-07
-3.5027e-08
-1.18369e-07
-3.43844e-08
-1.04286e-07
-3.34596e-08
-9.06933e-08
-3.22506e-08
-7.77069e-08
-3.07583e-08
-6.54389e-08
-2.89866e-08
-5.39977e-08
-2.69436e-08
-4.34857e-08
-2.4642e-08
-3.39964e-08
-2.21006e-08
-2.56113e-08
-1.93462e-08
-1.83963e-08
-1.64159e-08
-1.23957e-08
-1.33605e-08
-7.62683e-09
-1.02492e-08
-4.07136e-09
-7.1765e-09
-1.66613e-09
-4.27138e-09
-2.91395e-10
-1.70945e-09
2.4202e-10
2.73183e-10
2.07886e-10
1.3623e-09
1.11354e-09
-4.74246e-11
-1.012e-09
-6.54312e-10
-5.49636e-10
-2.15844e-09
1.59108e-09
-4.80024e-09
4.8455e-09
-8.74388e-09
8.81191e-09
-1.40887e-08
1.31842e-08
-2.08797e-08
1.77314e-08
-2.9117e-08
2.22815e-08
-3.87652e-08
2.67077e-08
-4.97604e-08
3.0917e-08
-6.20169e-08
3.48419e-08
-7.54323e-08
3.84343e-08
-8.98924e-08
4.16606e-08
-1.05274e-07
4.44989e-08
-1.21448e-07
4.69356e-08
-1.38283e-07
4.89641e-08
-1.55645e-07
5.05829e-08
-1.73399e-07
5.17947e-08
-1.91414e-07
5.26054e-08
-2.09558e-07
5.30237e-08
-2.27704e-07
5.30601e-08
-2.45728e-07
5.2727e-08
-2.63511e-07
5.20379e-08
-2.80936e-07
5.10075e-08
-2.97895e-07
4.96514e-08
-3.14282e-07
4.79857e-08
-3.29997e-07
4.60272e-08
-3.44947e-07
4.37933e-08
-3.59045e-07
4.13015e-08
-3.72208e-07
3.857e-08
-3.84362e-07
3.56171e-08
-3.95437e-07
3.24613e-08
-4.05371e-07
2.91217e-08
-4.14107e-07
2.56175e-08
-4.21596e-07
2.19681e-08
-4.27796e-07
1.81934e-08
-4.32671e-07
1.43135e-08
-4.36191e-07
1.03487e-08
-4.38337e-07
6.31997e-09
-4.39092e-07
2.24821e-09
-4.38451e-07
-1.84513e-09
-4.36413e-07
-5.9383e-09
-4.32986e-07
-1.00093e-08
-4.28187e-07
-1.40357e-08
-4.22037e-07
-1.79949e-08
-4.14569e-07
-2.18641e-08
-4.05821e-07
-2.56203e-08
-3.9584e-07
-2.92404e-08
-3.8468e-07
-3.2701e-08
-3.72404e-07
-3.59792e-08
-3.59081e-07
-3.90518e-08
-3.44789e-07
-4.18961e-08
-3.29613e-07
-4.44897e-08
-3.13646e-07
-4.68108e-08
-2.96987e-07
-4.88379e-08
-2.79742e-07
-5.05508e-08
-2.62024e-07
-5.19301e-08
-2.4395e-07
-5.29576e-08
-2.25646e-07
-5.36164e-08
-2.07238e-07
-5.38916e-08
-1.88859e-07
-5.37699e-08
-1.70646e-07
-5.32404e-08
-1.52735e-07
-5.2295e-08
-1.35266e-07
-5.09283e-08
-1.18378e-07
-4.91387e-08
-1.02208e-07
-4.69287e-08
-8.68888e-08
-4.43056e-08
-7.25495e-08
-4.1283e-08
-5.931e-08
-3.78815e-08
-4.72796e-08
-3.4131e-08
-3.65529e-08
-3.00728e-08
-2.72059e-08
-2.57629e-08
-1.92905e-08
-2.12758e-08
-1.28287e-08
-1.67111e-08
-7.80487e-09
-1.22004e-08
-4.15834e-09
-7.91787e-09
-1.77383e-09
-4.09389e-09
-4.71921e-10
-1.02873e-09
2.14156e-12
8.88222e-10
1.11568e-09
-2.9426e-10
-7.17728e-10
-1.51835e-09
6.74452e-10
-3.9409e-09
4.01364e-09
-7.76106e-09
8.66567e-09
-1.3116e-08
1.41669e-08
-2.00872e-08
2.01554e-08
-2.87068e-08
2.6351e-08
-3.89648e-08
3.25395e-08
-5.08161e-08
3.85591e-08
-6.41868e-08
4.42877e-08
-7.89798e-08
4.9635e-08
-9.50801e-08
5.45346e-08
-1.12359e-07
5.89395e-08
-1.30678e-07
6.28175e-08
-1.4989e-07
6.61481e-08
-1.69846e-07
6.89202e-08
-1.90393e-07
7.113e-08
-2.11378e-07
7.27795e-08
-2.32648e-07
7.38757e-08
-2.54054e-07
7.44291e-08
-2.75447e-07
7.44533e-08
-2.96685e-07
7.39647e-08
-3.17628e-07
7.29812e-08
-3.38143e-07
7.15228e-08
-3.58102e-07
6.96104e-08
-3.77383e-07
6.72664e-08
-3.95869e-07
6.45137e-08
-4.13452e-07
6.13763e-08
-4.3003e-07
5.78787e-08
-4.45506e-07
5.40459e-08
-4.59792e-07
4.99036e-08
-4.72808e-07
4.54777e-08
-4.84481e-07
4.07946e-08
-4.94745e-07
3.58814e-08
-5.03543e-07
3.07654e-08
-5.10823e-07
2.54743e-08
-5.16546e-07
2.00362e-08
-5.20677e-07
1.44799e-08
-5.23192e-07
8.83447e-09
-5.24073e-07
3.1294e-09
-5.23313e-07
-2.60527e-09
-5.20912e-07
-8.33911e-09
-5.1688e-07
-1.40413e-08
-5.11235e-07
-1.96804e-08
-5.04005e-07
-2.52251e-08
-4.95226e-07
-3.06432e-08
-4.84944e-07
-3.59028e-08
-4.73213e-07
-4.09715e-08
-4.60097e-07
-4.5817e-08
-4.45669e-07
-5.04072e-08
-4.3001e-07
-5.47101e-08
-4.13213e-07
-5.8694e-08
-3.95374e-07
-6.2328e-08
-3.76603e-07
-6.55818e-08
-3.57015e-07
-6.8426e-08
-3.36733e-07
-7.08327e-08
-3.15888e-07
-7.27752e-08
-2.94617e-07
-7.42286e-08
-2.73063e-07
-7.51702e-08
-2.51375e-07
-7.55797e-08
-2.29706e-07
-7.54394e-08
-2.08211e-07
-7.47352e-08
-1.87049e-07
-7.34566e-08
-1.6638e-07
-7.15973e-08
-1.46363e-07
-6.91563e-08
-1.27153e-07
-6.61384e-08
-1.08903e-07
-6.25554e-08
-9.17587e-08
-5.84276e-08
-7.5855e-08
-5.37851e-08
-6.13157e-08
-4.86704e-08
-4.82476e-08
-4.31409e-08
-3.67372e-08
-3.72733e-08
-2.68454e-08
-3.11675e-08
-1.86025e-08
-2.4954e-08
-1.20017e-08
-1.88012e-08
-6.99282e-09
-1.29267e-08
-3.47607e-09
-7.61062e-09
-1.29542e-09
-3.20935e-09
-2.32863e-10
-1.74316e-10
8.82827e-10
-5.50574e-10
-1.67137e-10
-2.42977e-09
2.55366e-09
-5.8307e-09
7.41457e-09
-1.09013e-08
1.37363e-08
-1.77424e-08
2.10081e-08
-2.64093e-08
2.88223e-08
-3.69146e-08
3.68563e-08
-4.9233e-08
4.4858e-08
-6.33063e-08
5.26324e-08
-7.90482e-08
6.00296e-08
-9.63495e-08
6.69362e-08
-1.15082e-07
7.32674e-08
-1.35105e-07
7.89617e-08
-1.56263e-07
8.39759e-08
-1.78396e-07
8.82816e-08
-2.01339e-07
9.18626e-08
-2.24921e-07
9.47121e-08
-2.48973e-07
9.68311e-08
-2.73324e-07
9.82271e-08
-2.97808e-07
9.89126e-08
-3.22259e-07
9.89043e-08
-3.46516e-07
9.82224e-08
-3.70425e-07
9.689e-08
-3.93835e-07
9.49323e-08
-4.16601e-07
9.23765e-08
-4.38586e-07
8.92514e-08
-4.59659e-07
8.55872e-08
-4.79698e-07
8.14149e-08
-4.98586e-07
7.67668e-08
-5.16216e-07
7.16757e-08
-5.32487e-07
6.61755e-08
-5.4731e-07
6.03003e-08
-5.60601e-07
5.40853e-08
-5.72285e-07
4.7566e-08
-5.82299e-07
4.07787e-08
-5.90584e-07
3.376e-08
-5.97095e-07
2.65473e-08
-6.01794e-07
1.91787e-08
-6.04652e-07
1.16926e-08
-6.05651e-07
4.12829e-09
-6.04782e-07
-3.4746e-09
-6.02045e-07
-1.10757e-08
-5.97452e-07
-1.86343e-08
-5.91024e-07
-2.61088e-08
-5.82791e-07
-3.34577e-08
-5.72796e-07
-4.06387e-08
-5.61089e-07
-4.76095e-08
-5.47733e-07
-5.43275e-08
-5.328e-07
-6.07501e-08
-5.16372e-07
-6.68351e-08
-4.98542e-07
-7.25404e-08
-4.79411e-07
-7.78245e-08
-4.59092e-07
-8.26468e-08
-4.37707e-07
-8.69675e-08
-4.15384e-07
-9.07486e-08
-3.92263e-07
-9.39533e-08
-3.68492e-07
-9.65471e-08
-3.44222e-07
-9.84978e-08
-3.19616e-07
-9.97762e-08
-2.9484e-07
-1.00356e-07
-2.70064e-07
-1.00215e-07
-2.45463e-07
-9.93362e-08
-2.21214e-07
-9.77058e-08
-1.97494e-07
-9.53174e-08
-1.74479e-07
-9.21708e-08
-1.52343e-07
-8.82738e-08
-1.31256e-07
-8.36434e-08
-1.11376e-07
-7.83073e-08
-9.28548e-08
-7.23062e-08
-7.58289e-08
-6.56962e-08
-6.04178e-08
-5.85522e-08
-4.67192e-08
-5.09718e-08
-3.48058e-08
-4.30809e-08
-2.47196e-08
-3.50401e-08
-1.64678e-08
-2.7053e-08
-1.00177e-08
-1.93768e-08
-5.29296e-09
-1.23354e-08
-2.17038e-09
-6.33193e-09
-4.78747e-10
-1.86593e-09
4.04102e-10
-8.06496e-10
6.3937e-10
-3.35381e-09
5.10099e-09
-7.7606e-09
1.18214e-08
-1.41194e-08
2.00951e-08
-2.24894e-08
2.9378e-08
-3.28937e-08
3.92267e-08
-4.53204e-08
4.9283e-08
-5.97244e-08
5.9262e-08
-7.60309e-08
6.89388e-08
-9.4139e-08
7.81377e-08
-1.13926e-07
8.6723e-08
-1.3525e-07
9.45919e-08
-1.57956e-07
1.01668e-07
-1.81878e-07
1.07897e-07
-2.06839e-07
1.13243e-07
-2.32659e-07
1.17683e-07
-2.59154e-07
1.21207e-07
-2.86139e-07
1.23816e-07
-3.13428e-07
1.25516e-07
-3.40838e-07
1.26323e-07
-3.68189e-07
1.26255e-07
-3.95304e-07
1.25338e-07
-4.22014e-07
1.236e-07
-4.48153e-07
1.21071e-07
-4.73562e-07
1.17786e-07
-4.9809e-07
1.1378e-07
-5.21593e-07
1.09091e-07
-5.43936e-07
1.03758e-07
-5.64991e-07
9.78216e-08
-5.84639e-07
9.13236e-08
-6.0277e-07
8.43065e-08
-6.19284e-07
7.68137e-08
-6.34088e-07
6.88897e-08
-6.47101e-07
6.05796e-08
-6.58252e-07
5.19294e-08
-6.67478e-07
4.29858e-08
-6.74727e-07
3.37964e-08
-6.79958e-07
2.44094e-08
-6.83139e-07
1.48738e-08
-6.8425e-07
5.23947e-09
-6.83282e-07
-4.4432e-09
-6.80234e-07
-1.4123e-08
-6.75121e-07
-2.3748e-08
-6.67964e-07
-3.32657e-08
-6.58798e-07
-4.26233e-08
-6.4767e-07
-5.17672e-08
-6.34635e-07
-6.06438e-08
-6.19763e-07
-6.91993e-08
-6.03134e-07
-7.73798e-08
-5.84837e-07
-8.51318e-08
-5.64975e-07
-9.24022e-08
-5.43661e-07
-9.91388e-08
-5.21018e-07
-1.0529e-07
-4.97178e-07
-1.10807e-07
-4.72286e-07
-1.1564e-07
-4.46494e-07
-1.19745e-07
-4.19963e-07
-1.23078e-07
-3.92862e-07
-1.25599e-07
-3.65368e-07
-1.27271e-07
-3.37661e-07
-1.28063e-07
-3.0993e-07
-1.27946e-07
-2.82365e-07
-1.26901e-07
-2.5516e-07
-1.24911e-07
-2.28507e-07
-1.2197e-07
-2.026e-07
-1.18078e-07
-1.77627e-07
-1.13246e-07
-1.53773e-07
-1.07498e-07
-1.31212e-07
-1.00868e-07
-1.10108e-07
-9.34096e-08
-9.06125e-08
-8.51919e-08
-7.28571e-08
-7.63076e-08
-5.69534e-08
-6.68756e-08
-4.29877e-08
-5.70466e-08
-3.10177e-08
-4.70102e-08
-2.10686e-08
-3.7002e-08
-1.31306e-08
-2.73148e-08
-7.15638e-09
-1.83096e-08
-3.0613e-09
-1.0427e-08
-7.25258e-10
-4.20198e-09
-3.21138e-10
-1.05692e-09
1.6963e-09
-4.27019e-09
8.31428e-09
-9.68875e-09
1.72399e-08
-1.73495e-08
2.77558e-08
-2.72669e-08
3.92955e-08
-3.9429e-08
5.13887e-08
-5.37952e-08
6.36492e-08
-7.02971e-08
7.5764e-08
-8.88405e-08
8.74822e-08
-1.09307e-07
9.86047e-08
-1.3156e-07
1.08975e-07
-1.55442e-07
1.18474e-07
-1.80785e-07
1.27011e-07
-2.07408e-07
1.3452e-07
-2.35122e-07
1.40957e-07
-2.63733e-07
1.46294e-07
-2.93042e-07
1.50517e-07
-3.2285e-07
1.53624e-07
-3.52959e-07
1.55624e-07
-3.8317e-07
1.56534e-07
-4.1329e-07
1.56375e-07
-4.43128e-07
1.55177e-07
-4.72501e-07
1.52973e-07
-5.0123e-07
1.498e-07
-5.29144e-07
1.457e-07
-5.5608e-07
1.40715e-07
-5.8188e-07
1.34891e-07
-6.06399e-07
1.28277e-07
-6.29498e-07
1.20921e-07
-6.51049e-07
1.12874e-07
-6.70932e-07
1.04189e-07
-6.89037e-07
9.49194e-08
-7.05267e-07
8.51192e-08
-7.19532e-07
7.48443e-08
-7.31753e-07
6.41511e-08
-7.41865e-07
5.30974e-08
-7.4981e-07
4.17415e-08
-7.55543e-07
3.01429e-08
-7.59032e-07
1.8362e-08
-7.60252e-07
6.46011e-09
-7.59195e-07
-5.50063e-09
-7.55861e-07
-1.74572e-08
-7.50263e-07
-2.93457e-08
-7.42427e-07
-4.11018e-08
-7.3239e-07
-5.26601e-08
-7.20202e-07
-6.39552e-08
-7.05925e-07
-7.49211e-08
-6.89632e-07
-8.54918e-08
-6.71411e-07
-9.56011e-08
-6.51359e-07
-1.05184e-07
-6.29587e-07
-1.14174e-07
-6.06216e-07
-1.22509e-07
-5.81381e-07
-1.30126e-07
-5.55225e-07
-1.36963e-07
-5.27903e-07
-1.42962e-07
-4.9958e-07
-1.48068e-07
-4.7043e-07
-1.52228e-07
-4.40636e-07
-1.55393e-07
-4.10386e-07
-1.5752e-07
-3.79879e-07
-1.5857e-07
-3.49316e-07
-1.5851e-07
-3.18902e-07
-1.57315e-07
-2.88845e-07
-1.54968e-07
-2.59354e-07
-1.51461e-07
-2.30637e-07
-1.46796e-07
-2.02896e-07
-1.40987e-07
-1.76329e-07
-1.34064e-07
-1.51128e-07
-1.2607e-07
-1.27468e-07
-1.17069e-07
-1.05516e-07
-1.07144e-07
-8.54169e-08
-9.64064e-08
-6.7298e-08
-8.49944e-08
-5.12619e-08
-7.30828e-08
-3.73847e-08
-6.08874e-08
-2.57134e-08
-4.86733e-08
-1.62645e-08
-3.67637e-08
-9.02371e-09
-2.55504e-08
-3.94731e-09
-1.55034e-08
-9.6703e-10
-7.18227e-09
-1.28816e-09
-1.29946e-09
2.99576e-09
-5.16774e-09
1.21826e-08
-1.15902e-08
2.36624e-08
-2.055e-08
3.67156e-08
-3.20166e-08
5.07621e-08
-4.59407e-08
6.53128e-08
-6.22506e-08
7.99592e-08
-8.08524e-08
9.43657e-08
-1.0163e-07
1.08259e-07
-1.24445e-07
1.21421e-07
-1.49145e-07
1.33675e-07
-1.75557e-07
1.44886e-07
-2.03497e-07
1.54951e-07
-2.32772e-07
1.63795e-07
-2.63178e-07
1.71363e-07
-2.94508e-07
1.77624e-07
-3.26552e-07
1.8256e-07
-3.59095e-07
1.86168e-07
-3.91927e-07
1.88456e-07
-4.24836e-07
1.89443e-07
-4.57617e-07
1.89156e-07
-4.90067e-07
1.87626e-07
-5.21989e-07
1.84895e-07
-5.53193e-07
1.81004e-07
-5.83496e-07
1.76003e-07
-6.12723e-07
1.69942e-07
-6.40709e-07
1.62877e-07
-6.67296e-07
1.54863e-07
-6.92336e-07
1.45961e-07
-7.15692e-07
1.3623e-07
-7.37235e-07
1.25733e-07
-7.5685e-07
1.14534e-07
-7.74431e-07
1.02699e-07
-7.89881e-07
9.02949e-08
-8.03118e-07
7.73885e-08
-8.14071e-07
6.40495e-08
-8.22677e-07
5.03482e-08
-8.2889e-07
3.63559e-08
-8.32674e-07
2.21452e-08
-8.34003e-07
7.78971e-09
-8.32868e-07
-6.63593e-09
-8.29269e-07
-2.1056e-08
-8.23221e-07
-3.5394e-08
-8.1475e-07
-4.95725e-08
-8.03897e-07
-6.35133e-08
-7.90714e-07
-7.71378e-08
-7.75268e-07
-9.03671e-08
-7.57638e-07
-1.03122e-07
-7.37916e-07
-1.15323e-07
-7.16207e-07
-1.26893e-07
-6.92628e-07
-1.37753e-07
-6.67311e-07
-1.47827e-07
-6.40396e-07
-1.5704e-07
-6.12039e-07
-1.6532e-07
-5.82404e-07
-1.72597e-07
-5.51668e-07
-1.78805e-07
-5.20015e-07
-1.83881e-07
-4.8764e-07
-1.87768e-07
-4.54747e-07
-1.90413e-07
-4.21545e-07
-1.91772e-07
-3.88248e-07
-1.91807e-07
-3.55076e-07
-1.90487e-07
-3.22252e-07
-1.87793e-07
-2.89996e-07
-1.83716e-07
-2.58531e-07
-1.78261e-07
-2.28075e-07
-1.71444e-07
-1.98839e-07
-1.633e-07
-1.71027e-07
-1.53882e-07
-1.44832e-07
-1.43264e-07
-1.20434e-07
-1.31543e-07
-9.79941e-08
-1.18846e-07
-7.76561e-08
-1.05332e-07
-5.95412e-08
-9.11977e-08
-4.37465e-08
-7.66821e-08
-3.03436e-08
-6.20763e-08
-1.93779e-08
-4.77294e-08
-1.08696e-08
-3.40586e-08
-4.81687e-09
-2.15561e-08
-1.2015e-09
-1.07976e-08
-2.48967e-09
-1.53321e-09
4.52897e-09
-6.04095e-09
1.66903e-08
-1.34514e-08
3.10729e-08
-2.36968e-08
4.6961e-08
-3.67026e-08
6.3768e-08
-5.23814e-08
8.09916e-08
-7.06295e-08
9.82072e-08
-9.13248e-08
1.15061e-07
-1.14327e-07
1.31262e-07
-1.39479e-07
1.46573e-07
-1.66607e-07
1.60803e-07
-1.95524e-07
1.73802e-07
-2.26029e-07
1.85457e-07
-2.57915e-07
1.9568e-07
-2.90964e-07
2.04413e-07
-3.24957e-07
2.11617e-07
-3.5967e-07
2.17272e-07
-3.94876e-07
2.21374e-07
-4.30352e-07
2.23932e-07
-4.65876e-07
2.24967e-07
-5.01229e-07
2.24509e-07
-5.36198e-07
2.22595e-07
-5.70574e-07
2.19271e-07
-6.04156e-07
2.14587e-07
-6.36752e-07
2.08599e-07
-6.68177e-07
2.01367e-07
-6.98254e-07
1.92954e-07
-7.26818e-07
1.83427e-07
-7.53712e-07
1.72855e-07
-7.78791e-07
1.61309e-07
-8.0192e-07
1.48862e-07
-8.22974e-07
1.35589e-07
-8.41843e-07
1.21568e-07
-8.58425e-07
1.06877e-07
-8.72632e-07
9.15956e-08
-8.84388e-07
7.58053e-08
-8.93629e-07
5.95889e-08
-9.00303e-07
4.30304e-08
-9.04373e-07
2.62152e-08
-9.05813e-07
9.22997e-09
-9.04612e-07
-7.83751e-09
-9.0077e-07
-2.48982e-08
-8.94302e-07
-4.18619e-08
-8.85237e-07
-5.86377e-08
-8.73616e-07
-7.51337e-08
-8.59497e-07
-9.12575e-08
-8.42947e-07
-1.06916e-07
-8.24052e-07
-1.22017e-07
-8.02908e-07
-1.36467e-07
-7.79626e-07
-1.50175e-07
-7.5433e-07
-1.63048e-07
-7.27158e-07
-1.74999e-07
-6.98261e-07
-1.85938e-07
-6.678e-07
-1.95781e-07
-6.3595e-07
-2.04447e-07
-6.02897e-07
-2.11858e-07
-5.68838e-07
-2.1794e-07
-5.33977e-07
-2.22628e-07
-4.98529e-07
-2.25861e-07
-4.62716e-07
-2.27585e-07
-4.26765e-07
-2.27758e-07
-3.90908e-07
-2.26344e-07
-3.5538e-07
-2.23321e-07
-3.20417e-07
-2.1868e-07
-2.86253e-07
-2.12424e-07
-2.53121e-07
-2.04576e-07
-2.21247e-07
-1.95174e-07
-1.90848e-07
-1.8428e-07
-1.62134e-07
-1.71978e-07
-1.35299e-07
-1.58378e-07
-1.10522e-07
-1.43623e-07
-8.79651e-08
-1.27889e-07
-6.77701e-08
-1.11393e-07
-5.00571e-08
-9.43951e-08
-3.4924e-08
-7.72094e-08
-2.24465e-08
-6.02069e-08
-1.26802e-08
-4.38248e-08
-5.66434e-09
-2.85719e-08
-1.42773e-09
-1.50342e-08
-3.91741e-09
-1.75818e-09
6.28716e-09
-6.88785e-09
2.182e-08
-1.5266e-08
3.9451e-08
-2.67774e-08
5.84725e-08
-4.13051e-08
7.82956e-08
-5.8724e-08
9.84104e-08
-7.88972e-08
1.1838e-07
-1.01674e-07
1.37838e-07
-1.26889e-07
1.56477e-07
-1.54363e-07
1.74046e-07
-1.83901e-07
1.90341e-07
-2.153e-07
2.05201e-07
-2.48342e-07
2.18499e-07
-2.82805e-07
2.30143e-07
-3.18458e-07
2.40066e-07
-3.55068e-07
2.48226e-07
-3.92396e-07
2.54601e-07
-4.30207e-07
2.59185e-07
-4.68264e-07
2.61989e-07
-5.06334e-07
2.63037e-07
-5.44187e-07
2.62361e-07
-5.81598e-07
2.60006e-07
-6.1835e-07
2.56022e-07
-6.54232e-07
2.50469e-07
-6.89041e-07
2.43408e-07
-7.22583e-07
2.34909e-07
-7.54674e-07
2.25045e-07
-7.85139e-07
2.13893e-07
-8.13815e-07
2.01531e-07
-8.40549e-07
1.88042e-07
-8.65199e-07
1.73512e-07
-8.87635e-07
1.58026e-07
-9.07741e-07
1.41674e-07
-9.2541e-07
1.24546e-07
-9.40549e-07
1.06735e-07
-9.53079e-07
8.83351e-08
-9.62932e-07
6.94421e-08
-9.70055e-07
5.01532e-08
-9.74407e-07
3.05673e-08
-9.75962e-07
1.07846e-08
-9.74706e-07
-9.09311e-09
-9.70641e-07
-2.89629e-08
-9.63783e-07
-4.87205e-08
-9.5416e-07
-6.82607e-08
-9.41816e-07
-8.74771e-08
-9.26811e-07
-1.06263e-07
-9.09216e-07
-1.24511e-07
-8.89119e-07
-1.42114e-07
-8.66622e-07
-1.58965e-07
-8.4184e-07
-1.74957e-07
-8.14904e-07
-1.89985e-07
-7.85957e-07
-2.03945e-07
-7.55157e-07
-2.16738e-07
-7.22674e-07
-2.28264e-07
-6.88692e-07
-2.3843e-07
-6.53404e-07
-2.47146e-07
-6.17016e-07
-2.54328e-07
-5.79745e-07
-2.599e-07
-5.41815e-07
-2.63791e-07
-5.03459e-07
-2.65942e-07
-4.64915e-07
-2.66301e-07
-4.26429e-07
-2.6483e-07
-3.88248e-07
-2.61502e-07
-3.5062e-07
-2.56307e-07
-3.13794e-07
-2.4925e-07
-2.78015e-07
-2.40354e-07
-2.43525e-07
-2.29665e-07
-2.10557e-07
-2.17249e-07
-1.79335e-07
-2.032e-07
-1.5007e-07
-1.87643e-07
-1.22961e-07
-1.70732e-07
-9.8189e-08
-1.52661e-07
-7.59176e-08
-1.33664e-07
-5.62915e-08
-1.14021e-07
-3.94362e-08
-9.40648e-08
-2.54586e-08
-7.41845e-08
-1.44496e-08
-5.48338e-08
-6.48782e-09
-3.65338e-08
-1.64572e-09
-1.98763e-08
-5.56312e-09
-1.97484e-09
8.262e-09
-7.70865e-09
2.75538e-08
-1.70325e-08
4.87749e-08
-2.97873e-08
7.12273e-08
-4.58155e-08
9.43238e-08
-6.49551e-08
1.1755e-07
-8.70362e-08
1.40462e-07
-1.11879e-07
1.62681e-07
-1.39291e-07
1.83889e-07
-1.6907e-07
2.03825e-07
-2.01002e-07
2.22273e-07
-2.34861e-07
2.39061e-07
-2.70417e-07
2.54055e-07
-3.07429e-07
2.67155e-07
-3.45653e-07
2.7829e-07
-3.84841e-07
2.87414e-07
-4.24744e-07
2.94504e-07
-4.65112e-07
2.99553e-07
-5.05698e-07
3.02575e-07
-5.46257e-07
3.03596e-07
-5.8655e-07
3.02654e-07
-6.26343e-07
2.99798e-07
-6.65406e-07
2.95086e-07
-7.03522e-07
2.88584e-07
-7.40478e-07
2.80364e-07
-7.76071e-07
2.70503e-07
-8.10111e-07
2.59085e-07
-8.42416e-07
2.46197e-07
-8.72813e-07
2.31929e-07
-9.01146e-07
2.16375e-07
-9.27265e-07
1.99631e-07
-9.51036e-07
1.81797e-07
-9.72336e-07
1.62974e-07
-9.91055e-07
1.43265e-07
-1.0071e-06
1.22776e-07
-1.02038e-06
1.01616e-07
-1.03083e-06
7.98914e-08
-1.03839e-06
5.77152e-08
-1.04302e-06
3.51997e-08
-1.0447e-06
1.24594e-08
-1.0434e-06
-1.03897e-08
-1.03913e-06
-3.323e-08
-1.03191e-06
-5.59427e-08
-1.02176e-06
-7.84075e-08
-1.00874e-06
-1.00503e-07
-9.92891e-07
-1.22108e-07
-9.74302e-07
-1.431e-07
-9.5306e-07
-1.63357e-07
-9.29269e-07
-1.82755e-07
-9.03051e-07
-2.01175e-07
-8.74541e-07
-2.18495e-07
-8.43887e-07
-2.34599e-07
-8.11254e-07
-2.49371e-07
-7.76819e-07
-2.62699e-07
-7.40772e-07
-2.74477e-07
-7.03315e-07
-2.84602e-07
-6.64664e-07
-2.92979e-07
-6.25044e-07
-2.9952e-07
-5.84689e-07
-3.04146e-07
-5.43843e-07
-3.06788e-07
-5.02756e-07
-3.07388e-07
-4.61684e-07
-3.05902e-07
-4.20887e-07
-3.023e-07
-3.80626e-07
-2.96568e-07
-3.41163e-07
-2.88713e-07
-3.02759e-07
-2.78759e-07
-2.65669e-07
-2.66755e-07
-2.30143e-07
-2.52775e-07
-1.9642e-07
-2.36923e-07
-1.64732e-07
-2.19331e-07
-1.35295e-07
-2.00169e-07
-1.08312e-07
-1.79644e-07
-8.39704e-08
-1.58006e-07
-6.24396e-08
-1.35552e-07
-4.38737e-08
-1.12631e-07
-2.84111e-08
-8.9647e-08
-1.61771e-08
-6.70679e-08
-7.28782e-09
-4.54231e-08
-1.85599e-09
-2.53081e-08
-7.4191e-09
-2.18394e-09
1.04459e-08
-8.50491e-09
3.38748e-08
-1.87525e-08
5.90225e-08
-3.27273e-08
8.52021e-08
-5.02329e-08
1.11829e-07
-7.10718e-08
1.38389e-07
-9.50414e-08
1.64431e-07
-1.21932e-07
1.89571e-07
-1.51524e-07
2.13482e-07
-1.83592e-07
2.35893e-07
-2.179e-07
2.5658e-07
-2.54202e-07
2.75363e-07
-2.9225e-07
2.92103e-07
-3.31788e-07
3.06693e-07
-3.72555e-07
3.19058e-07
-4.14291e-07
3.2915e-07
-4.56733e-07
3.36946e-07
-4.9962e-07
3.4244e-07
-5.42693e-07
3.45648e-07
-5.85697e-07
3.466e-07
-6.28382e-07
3.45339e-07
-6.70504e-07
3.41921e-07
-7.11827e-07
3.36409e-07
-7.52123e-07
3.28879e-07
-7.91171e-07
3.19412e-07
-8.28762e-07
3.08095e-07
-8.64698e-07
2.95021e-07
-8.98789e-07
2.80288e-07
-9.30859e-07
2.63999e-07
-9.60743e-07
2.46259e-07
-9.88288e-07
2.27176e-07
-1.01335e-06
2.06863e-07
-1.03581e-06
1.85434e-07
-1.05556e-06
1.63005e-07
-1.07248e-06
1.39697e-07
-1.08649e-06
1.15629e-07
-1.09752e-06
9.09251e-08
-1.10552e-06
6.57109e-08
-1.11043e-06
4.01134e-08
-1.11223e-06
1.42616e-08
-1.11091e-06
-1.17136e-08
-1.10646e-06
-3.76795e-08
-1.0989e-06
-6.35023e-08
-1.08826e-06
-8.90464e-08
-1.07459e-06
-1.14175e-07
-1.05795e-06
-1.38752e-07
-1.03841e-06
-1.62637e-07
-1.01607e-06
-1.85694e-07
-9.91042e-07
-2.07785e-07
-9.63444e-07
-2.28773e-07
-9.33416e-07
-2.48523e-07
-9.01114e-07
-2.66901e-07
-8.66707e-07
-2.83778e-07
-8.30377e-07
-2.99029e-07
-7.92323e-07
-3.12531e-07
-7.52754e-07
-3.24171e-07
-7.11892e-07
-3.3384e-07
-6.69972e-07
-3.4144e-07
-6.27239e-07
-3.4688e-07
-5.83945e-07
-3.50082e-07
-5.40351e-07
-3.50982e-07
-4.96725e-07
-3.49528e-07
-4.53339e-07
-3.45686e-07
-4.10468e-07
-3.3944e-07
-3.68387e-07
-3.30794e-07
-3.2737e-07
-3.19775e-07
-2.8769e-07
-3.06435e-07
-2.49612e-07
-2.90854e-07
-2.13394e-07
-2.73141e-07
-1.79285e-07
-2.5344e-07
-1.47524e-07
-2.3193e-07
-1.18335e-07
-2.08833e-07
-9.19285e-08
-1.84412e-07
-6.85024e-08
-1.58978e-07
-4.82386e-08
-1.32894e-07
-3.13067e-08
-1.06579e-07
-1.78653e-08
-8.05092e-08
-8.06634e-09
-5.52221e-08
-2.05941e-09
-3.1315e-08
-9.4785e-09
-2.38636e-09
1.28323e-08
-9.27895e-09
4.07674e-08
-2.04298e-08
7.01734e-08
-3.56017e-08
1.00374e-07
-5.45619e-08
1.3079e-07
-7.70783e-08
1.60905e-07
-1.02916e-07
1.90269e-07
-1.31836e-07
2.1849e-07
-1.63592e-07
2.45238e-07
-1.97932e-07
2.70233e-07
-2.34599e-07
2.93247e-07
-2.73327e-07
3.14092e-07
-3.13849e-07
3.32625e-07
-3.55892e-07
3.48735e-07
-3.9918e-07
3.62346e-07
-4.43439e-07
3.73409e-07
-4.88392e-07
3.81899e-07
-5.33767e-07
3.87815e-07
-5.79292e-07
3.91174e-07
-6.24704e-07
3.92012e-07
-6.69742e-07
3.90377e-07
-7.14153e-07
3.86332e-07
-7.57692e-07
3.79948e-07
-8.00123e-07
3.7131e-07
-8.41218e-07
3.60508e-07
-8.80763e-07
3.47639e-07
-9.1855e-07
3.32808e-07
-9.54385e-07
3.16124e-07
-9.88087e-07
2.977e-07
-1.01948e-06
2.77656e-07
-1.04842e-06
2.56112e-07
-1.07475e-06
2.33193e-07
-1.09834e-06
2.09027e-07
-1.11908e-06
1.83744e-07
-1.13686e-06
1.57477e-07
-1.15159e-06
1.30362e-07
-1.1632e-06
1.02536e-07
-1.17163e-06
7.41382e-08
-1.17683e-06
4.53118e-08
-1.17877e-06
1.62004e-08
-1.17743e-06
-1.30499e-08
-1.17282e-06
-4.22914e-08
-1.16495e-06
-7.13742e-08
-1.15385e-06
-1.00147e-07
-1.13957e-06
-1.28458e-07
-1.12216e-06
-1.56154e-07
-1.10172e-06
-1.8308e-07
-1.07833e-06
-2.09082e-07
-1.05211e-06
-2.34007e-07
-1.02318e-06