/*--------------------------------*- C++ -*----------------------------------*\
  =========                 |
  \\      /  F ield         | OpenFOAM: The Open Source CFD Toolbox
   \\    /   O peration     | Website:  https://openfoam.org
    \\  /    A nd           | Version:  9
     \\/     M anipulation  |
\*---------------------------------------------------------------------------*/
FoamFile
{
    format      ascii;
    class       volVectorField;
    location    "0.4";
    object      U;
}
// * * * * * * * * * * * * * * * * * * * * * * * * * * * * * * * * * * * * * //

dimensions      [0 1 -1 0 0 0 0];

internalField   nonuniform List<vector> 
6400
(
(7.18581e-06 -7.31214e-06 0)
(2.97083e-05 -1.44768e-05 0)
(5.92484e-05 -1.4186e-05 0)
(8.05789e-05 -9.73728e-06 0)
(8.5432e-05 -3.42769e-06 0)
(7.05695e-05 3.5433e-06 0)
(3.48691e-05 1.05622e-05 0)
(-2.16374e-05 1.73111e-05 0)
(-9.81949e-05 2.36277e-05 0)
(-0.000193614 2.94305e-05 0)
(-0.000306449 3.4681e-05 0)
(-0.000435104 3.93646e-05 0)
(-0.000577898 4.34799e-05 0)
(-0.000733113 4.70338e-05 0)
(-0.000899019 5.00381e-05 0)
(-0.0010739 5.25078e-05 0)
(-0.00125607 5.44602e-05 0)
(-0.00144387 5.59139e-05 0)
(-0.00163571 5.68883e-05 0)
(-0.00183003 5.74034e-05 0)
(-0.00202533 5.74798e-05 0)
(-0.00222018 5.7138e-05 0)
(-0.0024132 5.63986e-05 0)
(-0.00260309 5.5282e-05 0)
(-0.0027886 5.38089e-05 0)
(-0.00296855 5.19996e-05 0)
(-0.00314182 4.98744e-05 0)
(-0.00330738 4.74532e-05 0)
(-0.00346424 4.47563e-05 0)
(-0.00361148 4.18034e-05 0)
(-0.00374828 3.86145e-05 0)
(-0.00387384 3.52095e-05 0)
(-0.00398747 3.16083e-05 0)
(-0.00408852 2.78311e-05 0)
(-0.00417643 2.38981e-05 0)
(-0.0042507 1.98297e-05 0)
(-0.00431089 1.56467e-05 0)
(-0.00435667 1.13702e-05 0)
(-0.00438775 7.02148e-06 0)
(-0.00440393 2.62251e-06 0)
(-0.00440507 -1.80449e-06 0)
(-0.00439113 -6.23678e-06 0)
(-0.00436213 -1.06511e-05 0)
(-0.00431819 -1.50237e-05 0)
(-0.0042595 -1.93305e-05 0)
(-0.00418633 -2.35467e-05 0)
(-0.00409904 -2.76475e-05 0)
(-0.00399809 -3.16072e-05 0)
(-0.003884 -3.54002e-05 0)
(-0.00375739 -3.90005e-05 0)
(-0.00361897 -4.2382e-05 0)
(-0.00346954 -4.55185e-05 0)
(-0.00330997 -4.8384e-05 0)
(-0.00314124 -5.09525e-05 0)
(-0.00296441 -5.31985e-05 0)
(-0.00278059 -5.50968e-05 0)
(-0.00259102 -5.66229e-05 0)
(-0.00239699 -5.77533e-05 0)
(-0.00219986 -5.84652e-05 0)
(-0.00200107 -5.87366e-05 0)
(-0.00180212 -5.85472e-05 0)
(-0.00160458 -5.78778e-05 0)
(-0.00141007 -5.67114e-05 0)
(-0.00122022 -5.50323e-05 0)
(-0.00103675 -5.28272e-05 0)
(-0.000861368 -5.00849e-05 0)
(-0.000695805 -4.67973e-05 0)
(-0.000541791 -4.29595e-05 0)
(-0.000401036 -3.85712e-05 0)
(-0.000275202 -3.36379e-05 0)
(-0.000165875 -2.81748e-05 0)
(-7.45132e-05 -2.22118e-05 0)
(-2.38414e-06 -1.58037e-05 0)
(4.95419e-05 -9.04768e-06 0)
(8.07683e-05 -2.12206e-06 0)
(9.15599e-05 4.6395e-06 0)
(8.33657e-05 1.06109e-05 0)
(5.97528e-05 1.45952e-05 0)
(2.92289e-05 1.4349e-05 0)
(6.87179e-06 6.86724e-06 0)
(1.44168e-05 -2.98957e-05 0)
(5.14777e-05 -5.15427e-05 0)
(8.97552e-05 -4.40901e-05 0)
(0.000103494 -1.9103e-05 0)
(7.69823e-05 1.53094e-05 0)
(2.36878e-06 5.412e-05 0)
(-0.000124046 9.42511e-05 0)
(-0.000303178 0.000133815 0)
(-0.000533983 0.000171652 0)
(-0.000814096 0.000207047 0)
(-0.00114028 0.000239561 0)
(-0.00150871 0.000268933 0)
(-0.00191523 0.000295018 0)
(-0.00235541 0.000317751 0)
(-0.00282475 0.000337121 0)
(-0.00331868 0.000353156 0)
(-0.00383266 0.000365912 0)
(-0.00436222 0.000375467 0)
(-0.00490294 0.000381913 0)
(-0.00545056 0.000385352 0)
(-0.00600092 0.000385897 0)
(-0.00655002 0.000383665 0)
(-0.00709403 0.000378778 0)
(-0.00762924 0.000371363 0)
(-0.00815218 0.000361548 0)
(-0.00865949 0.000349461 0)
(-0.00914804 0.000335235 0)
(-0.00961486 0.000319002 0)
(-0.0100572 0.000300894 0)
(-0.0104724 0.000281045 0)
(-0.0108581 0.000259591 0)
(-0.0112122 0.000236666 0)
(-0.0115325 0.000212407 0)
(-0.0118173 0.000186952 0)
(-0.012065 0.000160442 0)
(-0.0122742 0.000133016 0)
(-0.0124436 0.000104819 0)
(-0.0125723 7.59949e-05 0)
(-0.0126595 4.6693e-05 0)
(-0.0127046 1.70633e-05 0)
(-0.0127073 -1.2741e-05 0)
(-0.0126674 -4.25639e-05 0)
(-0.0125851 -7.22465e-05 0)
(-0.0124606 -0.000101627 0)
(-0.0122945 -0.000130542 0)
(-0.0120877 -0.000158823 0)
(-0.0118412 -0.000186303 0)
(-0.0115562 -0.000212811 0)
(-0.0112342 -0.000238174 0)
(-0.0108771 -0.00026222 0)
(-0.0104869 -0.000284776 0)
(-0.0100658 -0.000305669 0)
(-0.00961625 -0.00032473 0)
(-0.00914108 -0.000341789 0)
(-0.00864322 -0.000356681 0)
(-0.00812587 -0.000369246 0)
(-0.00759244 -0.000379328 0)
(-0.00704656 -0.000386778 0)
(-0.00649204 -0.000391457 0)
(-0.0059329 -0.000393233 0)
(-0.00537329 -0.000391987 0)
(-0.00481754 -0.000387611 0)
(-0.00427009 -0.000380013 0)
(-0.00373549 -0.000369118 0)
(-0.00321834 -0.000354871 0)
(-0.00272329 -0.000337241 0)
(-0.00225499 -0.000316223 0)
(-0.00181801 -0.000291852 0)
(-0.00141682 -0.000264205 0)
(-0.00105565 -0.00023342 0)
(-0.000738446 -0.000199717 0)
(-0.000468668 -0.000163436 0)
(-0.000249109 -0.000125097 0)
(-8.15946e-05 -8.54926e-05 0)
(3.34452e-05 -4.58487e-05 0)
(9.7596e-05 -8.09919e-06 0)
(0.000115242 2.46689e-05 0)
(9.48554e-05 4.7502e-05 0)
(5.26132e-05 5.25607e-05 0)
(1.43499e-05 2.91983e-05 0)
(1.42738e-05 -5.94483e-05 0)
(4.45284e-05 -8.99175e-05 0)
(6.12287e-05 -6.04712e-05 0)
(3.55663e-05 6.7223e-06 0)
(-5.08274e-05 9.62474e-05 0)
(-0.000208169 0.000197449 0)
(-0.000441792 0.000303097 0)
(-0.000753403 0.000408354 0)
(-0.00114197 0.000509998 0)
(-0.00160448 0.000605885 0)
(-0.00213652 0.000694601 0)
(-0.00273271 0.000775228 0)
(-0.00338697 0.000847199 0)
(-0.00409281 0.000910192 0)
(-0.00484347 0.00096406 0)
(-0.00563203 0.00100879 0)
(-0.00645156 0.00104446 0)
(-0.00729514 0.00107123 0)
(-0.00815598 0.00108931 0)
(-0.00902741 0.00109894 0)
(-0.00990295 0.00110041 0)
(-0.0107763 0.00109403 0)
(-0.0116414 0.00108011 0)
(-0.0124925 0.00105901 0)
(-0.013324 0.00103107 0)
(-0.0141306 0.000996646 0)
(-0.0149074 0.00095611 0)
(-0.0156496 0.000909832 0)
(-0.0163528 0.00085819 0)
(-0.0170129 0.000801562 0)
(-0.0176261 0.000740334 0)
(-0.0181889 0.000674894 0)
(-0.018698 0.000605634 0)
(-0.0191505 0.000532951 0)
(-0.0195441 0.000457248 0)
(-0.0198762 0.000378932 0)
(-0.0201452 0.000298415 0)
(-0.0203493 0.000216118 0)
(-0.0204874 0.000132467 0)
(-0.0205585 4.78964e-05 0)
(-0.0205622 -3.71536e-05 0)
(-0.0204981 -0.000122234 0)
(-0.0203666 -0.000206889 0)
(-0.0201681 -0.000290654 0)
(-0.0199036 -0.00037306 0)
(-0.0195744 -0.000453631 0)
(-0.019182 -0.000531884 0)
(-0.0187287 -0.000607335 0)
(-0.0182167 -0.000679494 0)
(-0.017649 -0.000747873 0)
(-0.0170288 -0.000811982 0)
(-0.0163596 -0.000871335 0)
(-0.0156454 -0.000925454 0)
(-0.0148906 -0.000973865 0)
(-0.0140998 -0.00101611 0)
(-0.0132781 -0.00105174 0)
(-0.012431 -0.00108032 0)
(-0.0115641 -0.00110145 0)
(-0.0106834 -0.00111475 0)
(-0.00979518 -0.00111986 0)
(-0.00890603 -0.00111647 0)
(-0.00802266 -0.0011043 0)
(-0.007152 -0.00108313 0)
(-0.00630108 -0.00105277 0)
(-0.00547703 -0.00101312 0)
(-0.00468698 -0.000964157 0)
(-0.00393801 -0.000905928 0)
(-0.00323706 -0.000838613 0)
(-0.00259078 -0.000762536 0)
(-0.00200546 -0.000678208 0)
(-0.00148677 -0.000586392 0)
(-0.00103962 -0.000488201 0)
(-0.000667772 -0.000385243 0)
(-0.000373477 -0.000279839 0)
(-0.000156907 -0.000175357 0)
(-1.54408e-05 -7.67099e-05 0)
(5.71657e-05 8.90552e-06 0)
(7.19391e-05 7.10608e-05 0)
(4.79738e-05 9.49247e-05 0)
(1.46776e-05 5.97887e-05 0)
(1.00478e-05 -8.11963e-05 0)
(2.0387e-05 -0.000104389 0)
(-4.3079e-06 -3.51588e-05 0)
(-9.08099e-05 9.36667e-05 0)
(-0.000257264 0.000259324 0)
(-0.000514618 0.000445267 0)
(-0.000868779 0.000639633 0)
(-0.0013217 0.000834063 0)
(-0.00187223 0.00102271 0)
(-0.00251684 0.00120148 0)
(-0.00325024 0.00136758 0)
(-0.00406582 0.00151909 0)
(-0.00495607 0.00165476 0)
(-0.0059128 0.00177382 0)
(-0.00692742 0.00187585 0)
(-0.00799108 0.00196071 0)
(-0.00909481 0.00202845 0)
(-0.0102296 0.00207929 0)
(-0.0113867 0.00211356 0)
(-0.0125572 0.00213167 0)
(-0.0137327 0.00213413 0)
(-0.0149049 0.00212149 0)
(-0.0160656 0.00209433 0)
(-0.0172073 0.0020533 0)
(-0.0183225 0.00199905 0)
(-0.0194042 0.00193226 0)
(-0.0204457 0.00185363 0)
(-0.0214408 0.00176386 0)
(-0.0223836 0.00166369 0)
(-0.0232684 0.00155384 0)
(-0.0240903 0.00143506 0)
(-0.0248444 0.0013081 0)
(-0.0255266 0.00117373 0)
(-0.0261329 0.00103271 0)
(-0.02666 0.000885839 0)
(-0.0271048 0.000733901 0)
(-0.0274648 0.000577705 0)
(-0.0277378 0.00041807 0)
(-0.0279223 0.000255826 0)
(-0.028017 9.18213e-05 0)
(-0.0280212 -7.30865e-05 0)
(-0.0279348 -0.000238023 0)
(-0.0277579 -0.000402103 0)
(-0.0274913 -0.000564423 0)
(-0.0271363 -0.000724074 0)
(-0.0266945 -0.000880131 0)
(-0.0261683 -0.00103166 0)
(-0.0255605 -0.00117773 0)
(-0.0248742 -0.00131739 0)
(-0.0241133 -0.0014497 0)
(-0.0232821 -0.00157372 0)
(-0.0223854 -0.00168852 0)
(-0.0214285 -0.00179317 0)
(-0.0204172 -0.00188679 0)
(-0.0193578 -0.00196848 0)
(-0.018257 -0.0020374 0)
(-0.017122 -0.00209275 0)
(-0.0159602 -0.00213374 0)
(-0.0147798 -0.00215968 0)
(-0.013589 -0.0021699 0)
(-0.0123964 -0.00216384 0)
(-0.0112109 -0.002141 0)
(-0.0100416 -0.00210098 0)
(-0.00889762 -0.00204351 0)
(-0.0077883 -0.00196843 0)
(-0.0067229 -0.00187576 0)
(-0.00571053 -0.00176571 0)
(-0.00476007 -0.00163872 0)
(-0.00388001 -0.00149551 0)
(-0.00307822 -0.00133722 0)
(-0.00236178 -0.00116543 0)
(-0.00173667 -0.000982417 0)
(-0.00120743 -0.000791312 0)
(-0.000776639 -0.000596493 0)
(-0.000444438 -0.000404043 0)
(-0.000207766 -0.000222433 0)
(-5.96224e-05 -6.34475e-05 0)
(1.19347e-05 5.6734e-05 0)
(2.61064e-05 0.000116181 0)
(1.09035e-05 8.38355e-05 0)
(4.01642e-06 -8.70354e-05 0)
(-1.30157e-05 -7.95153e-05 0)
(-9.19784e-05 4.99734e-05 0)
(-0.000253954 0.000259684 0)
(-0.000514786 0.000520224 0)
(-0.000884921 0.000809536 0)
(-0.00136994 0.00111122 0)
(-0.00197144 0.0014133 0)
(-0.00268787 0.00170705 0)
(-0.0035151 0.00198618 0)
(-0.00444704 0.00224622 0)
(-0.00547608 0.002484 0)
(-0.00659346 0.00269739 0)
(-0.00778964 0.00288499 0)
(-0.00905448 0.00304598 0)
(-0.0103775 0.00317999 0)
(-0.011748 0.00328697 0)
(-0.0131553 0.00336717 0)
(-0.0145887 0.00342101 0)
(-0.0160376 0.00344909 0)
(-0.0174917 0.00345214 0)
(-0.018941 0.003431 0)
(-0.0203756 0.00338658 0)
(-0.0217861 0.00331985 0)
(-0.0231636 0.00323184 0)
(-0.0244995 0.00312363 0)
(-0.0257855 0.00299632 0)
(-0.0270139 0.00285105 0)
(-0.0281775 0.00268896 0)
(-0.0292695 0.00251125 0)
(-0.0302836 0.00231911 0)
(-0.0312141 0.00211375 0)
(-0.0320556 0.00189641 0)
(-0.0328035 0.00166834 0)
(-0.0334534 0.00143081 0)
(-0.0340017 0.00118511 0)
(-0.0344454 0.000932546 0)
(-0.0347817 0.000674443 0)
(-0.0350087 0.000412154 0)
(-0.0351249 0.000147048 0)
(-0.0351295 -0.00011948 0)
(-0.0350223 -0.000386018 0)
(-0.0348035 -0.000651127 0)
(-0.034474 -0.000913354 0)
(-0.0340355 -0.00117122 0)
(-0.0334902 -0.00142325 0)
(-0.0328407 -0.00166792 0)
(-0.0320905 -0.00190374 0)
(-0.0312437 -0.00212918 0)
(-0.0303049 -0.00234273 0)
(-0.0292795 -0.00254289 0)
(-0.0281733 -0.00272816 0)
(-0.0269928 -0.00289708 0)
(-0.0257452 -0.0030482 0)
(-0.0244381 -0.00318014 0)
(-0.0230797 -0.00329154 0)
(-0.0216789 -0.00338113 0)
(-0.0202448 -0.00344771 0)
(-0.0187872 -0.00349015 0)
(-0.0173161 -0.00350747 0)
(-0.015842 -0.00349876 0)
(-0.0143756 -0.0034633 0)
(-0.0129279 -0.00340052 0)
(-0.0115099 -0.00331002 0)
(-0.0101329 -0.00319167 0)
(-0.00880786 -0.00304557 0)
(-0.00754568 -0.00287218 0)
(-0.00635688 -0.00267231 0)
(-0.00525144 -0.00244728 0)
(-0.00423862 -0.00219899 0)
(-0.00332663 -0.00193012 0)
(-0.0025224 -0.00164435 0)
(-0.00183115 -0.00134666 0)
(-0.00125598 -0.00104376 0)
(-0.000797274 -0.000744686 0)
(-0.000452177 -0.000461593 0)
(-0.000213841 -0.000210788 0)
(-7.0617e-05 -1.38765e-05 0)
(-5.23945e-06 0.000100719 0)
(5.25956e-06 9.31243e-05 0)
(-2.66723e-06 -7.37504e-05 0)
(-5.09285e-05 -7.35557e-06 0)
(-0.000191872 0.000205461 0)
(-0.000438731 0.000516323 0)
(-0.000803617 0.000890292 0)
(-0.00129553 0.00130045 0)
(-0.00191897 0.00172622 0)
(-0.00267464 0.00215209 0)
(-0.00356022 0.00256648 0)
(-0.00457082 0.00296079 0)
(-0.00569949 0.0033287 0)
(-0.00693766 0.00366565 0)
(-0.00827549 0.00396846 0)
(-0.00970223 0.00423497 0)
(-0.0112064 0.00446385 0)
(-0.0127762 0.00465439 0)
(-0.0143993 0.00480641 0)
(-0.0160637 0.0049201 0)
(-0.0177569 0.00499598 0)
(-0.0194669 0.00503482 0)
(-0.0211817 0.0050376 0)
(-0.0228898 0.00500544 0)
(-0.0245797 0.0049396 0)
(-0.0262407 0.00484147 0)
(-0.0278621 0.00471249 0)
(-0.0294341 0.00455419 0)
(-0.030947 0.00436815 0)
(-0.0323919 0.00415599 0)
(-0.0337603 0.00391939 0)
(-0.0350443 0.00366006 0)
(-0.0362364 0.00337972 0)
(-0.0373301 0.00308015 0)
(-0.038319 0.00276315 0)
(-0.0391977 0.00243053 0)
(-0.0399613 0.00208415 0)
(-0.0406053 0.00172589 0)
(-0.0411262 0.00135766 0)
(-0.0415209 0.000981402 0)
(-0.0417872 0.000599078 0)
(-0.0419233 0.000212694 0)
(-0.0419282 -0.00017572 0)
(-0.0418016 -0.000564099 0)
(-0.041544 -0.000950351 0)
(-0.0411565 -0.00133236 0)
(-0.0406409 -0.00170797 0)
(-0.0399997 -0.00207503 0)
(-0.0392362 -0.00243136 0)
(-0.0383545 -0.00277475 0)
(-0.0373593 -0.00310303 0)
(-0.036256 -0.00341398 0)
(-0.0350508 -0.00370545 0)
(-0.0337507 -0.00397527 0)
(-0.0323632 -0.00422134 0)
(-0.0308966 -0.00444158 0)
(-0.0293598 -0.00463399 0)
(-0.0277625 -0.00479666 0)
(-0.0261148 -0.00492776 0)
(-0.0244273 -0.00502557 0)
(-0.0227114 -0.00508854 0)
(-0.0209787 -0.00511525 0)
(-0.0192414 -0.00510449 0)
(-0.0175116 -0.00505524 0)
(-0.0158022 -0.00496677 0)
(-0.0141258 -0.0048386 0)
(-0.0124952 -0.00467062 0)
(-0.0109231 -0.00446311 0)
(-0.00942172 -0.00421683 0)
(-0.00800314 -0.00393309 0)
(-0.00667862 -0.00361392 0)
(-0.0054586 -0.00326216 0)
(-0.00435237 -0.00288176 0)
(-0.00336774 -0.00247798 0)
(-0.00251073 -0.00205781 0)
(-0.00178508 -0.00163042 0)
(-0.00119187 -0.00120786 0)
(-0.000728973 -0.000805849 0)
(-0.000390451 -0.000444924 0)
(-0.000165873 -0.000151534 0)
(-4.13311e-05 4.03841e-05 0)
(-1.09753e-06 8.43021e-05 0)
(-9.4449e-06 -4.0095e-05 0)
(-9.05902e-05 0.000116276 0)
(-0.000297598 0.000437562 0)
(-0.000634844 0.000870892 0)
(-0.00110984 0.001377 0)
(-0.00172945 0.00192489 0)
(-0.00249648 0.0024903 0)
(-0.00341029 0.00305451 0)
(-0.00446742 0.00360317 0)
(-0.00566199 0.00412538 0)
(-0.00698609 0.00461297 0)
(-0.00843015 0.0050599 0)
(-0.00998331 0.00546183 0)
(-0.0116337 0.00581577 0)
(-0.0133686 0.00611977 0)
(-0.015175 0.00637274 0)
(-0.0170394 0.00657427 0)
(-0.0189481 0.0067245 0)
(-0.0208876 0.006824 0)
(-0.0228443 0.00687369 0)
(-0.0248049 0.0068748 0)
(-0.0267564 0.00682878 0)
(-0.0286861 0.00673726 0)
(-0.0305818 0.00660204 0)
(-0.0324316 0.00642505 0)
(-0.0342244 0.0062083 0)
(-0.0359492 0.00595393 0)
(-0.0375961 0.00566411 0)
(-0.0391554 0.0053411 0)
(-0.0406182 0.00498721 0)
(-0.0419761 0.00460477 0)
(-0.0432217 0.0041962 0)
(-0.0443478 0.00376393 0)
(-0.0453482 0.00331045 0)
(-0.0462173 0.00283827 0)
(-0.0469503 0.00234996 0)
(-0.047543 0.00184811 0)
(-0.047992 0.00133538 0)
(-0.0482948 0.000814445 0)
(-0.0484493 0.000288032 0)
(-0.0484546 -0.00024109 0)
(-0.0483103 -0.000770114 0)
(-0.0480168 -0.00129619 0)
(-0.0475754 -0.00181644 0)
(-0.0469882 -0.00232795 0)
(-0.0462582 -0.00282778 0)
(-0.0453889 -0.00331298 0)
(-0.0443851 -0.00378056 0)
(-0.043252 -0.00422756 0)
(-0.0419958 -0.00465103 0)
(-0.0406235 -0.00504801 0)
(-0.039143 -0.0054156 0)
(-0.0375627 -0.00575097 0)
(-0.035892 -0.00605132 0)
(-0.034141 -0.00631399 0)
(-0.0323204 -0.00653638 0)
(-0.0304417 -0.00671608 0)
(-0.0285169 -0.00685081 0)
(-0.0265586 -0.0069385 0)
(-0.02458 -0.0069773 0)
(-0.0225944 -0.00696563 0)
(-0.0206159 -0.00690222 0)
(-0.0186583 -0.00678612 0)
(-0.016736 -0.00661681 0)
(-0.0148631 -0.00639425 0)
(-0.0130537 -0.00611891 0)
(-0.0113215 -0.00579196 0)
(-0.00967968 -0.00541528 0)
(-0.00814078 -0.0049917 0)
(-0.00671634 -0.00452515 0)
(-0.00541668 -0.0040209 0)
(-0.00425058 -0.00348592 0)
(-0.00322494 -0.00292926 0)
(-0.00234444 -0.00236257 0)
(-0.00161115 -0.00180079 0)
(-0.00102419 -0.00126299 0)
(-0.000579118 -0.00077345 0)
(-0.000267404 -0.000362761 0)
(-7.93716e-05 -6.92348e-05 0)
(-7.59363e-06 5.59978e-05 0)
(-1.60547e-05 1.41901e-05 0)
(-0.000130437 0.000293208 0)
(-0.000405179 0.000749543 0)
(-0.000835533 0.00132757 0)
(-0.00142397 0.00198485 0)
(-0.00217476 0.00268714 0)
(-0.00308858 0.00340707 0)
(-0.00416303 0.00412306 0)
(-0.00539322 0.00481823 0)
(-0.00677205 0.00547952 0)
(-0.00829049 0.00609693 0)
(-0.00993791 0.00666295 0)
(-0.0117024 0.00717206 0)
(-0.0135709 0.00762036 0)
(-0.0155297 0.00800525 0)
(-0.0175647 0.00832522 0)
(-0.019661 0.00857959 0)
(-0.0218039 0.00876839 0)
(-0.0239785 0.00889224 0)
(-0.02617 0.00895221 0)
(-0.028364 0.00894977 0)
(-0.0305461 0.0088867 0)
(-0.0327025 0.00876503 0)
(-0.0348197 0.00858701 0)
(-0.0368847 0.00835509 0)
(-0.0388851 0.00807182 0)
(-0.0408092 0.00773992 0)
(-0.0426457 0.00736218 0)
(-0.044384 0.0069415 0)
(-0.0460144 0.00648083 0)
(-0.0475277 0.00598323 0)
(-0.0489154 0.00545179 0)
(-0.0501698 0.00488967 0)
(-0.0512841 0.00430007 0)
(-0.052252 0.00368628 0)
(-0.0530682 0.00305162 0)
(-0.0537281 0.00239945 0)
(-0.054228 0.00173321 0)
(-0.054565 0.00105639 0)
(-0.054737 0.000372519 0)
(-0.0547428 -0.00031481 0)
(-0.054582 -0.00100196 0)
(-0.0542552 -0.00168523 0)
(-0.0537638 -0.0023609 0)
(-0.0531101 -0.0030252 0)
(-0.0522973 -0.00367432 0)
(-0.0513296 -0.00430444 0)
(-0.0502118 -0.00491172 0)
(-0.0489501 -0.00549233 0)
(-0.0475511 -0.00604246 0)
(-0.0460226 -0.00655832 0)
(-0.0443732 -0.00703617 0)
(-0.0426124 -0.00747235 0)
(-0.0407503 -0.00786332 0)
(-0.0387981 -0.00820562 0)
(-0.0367676 -0.00849597 0)
(-0.0346714 -0.00873128 0)
(-0.0325227 -0.00890867 0)
(-0.0303353 -0.00902552 0)
(-0.0281235 -0.00907951 0)
(-0.0259023 -0.00906867 0)
(-0.0236866 -0.00899143 0)
(-0.0214919 -0.00884668 0)
(-0.0193337 -0.00863386 0)
(-0.0172275 -0.00835299 0)
(-0.0151886 -0.00800482 0)
(-0.013232 -0.00759094 0)
(-0.0113719 -0.00711387 0)
(-0.00962221 -0.00657731 0)
(-0.00799541 -0.00598632 0)
(-0.00650292 -0.00534758 0)
(-0.00515457 -0.00466977 0)
(-0.00395835 -0.00396396 0)
(-0.00292007 -0.0032442 0)
(-0.00204313 -0.00252813 0)
(-0.00132828 -0.00183784 0)
(-0.000773013 -0.00120084 0)
(-0.000371168 -0.000651081 0)
(-0.000117752 -0.000230171 0)
(-1.39521e-05 7.85427e-06 0)
(-2.23867e-05 8.88081e-05 0)
(-0.000169621 0.000523734 0)
(-0.000512231 0.00114257 0)
(-0.0010365 0.00188825 0)
(-0.00173974 0.00271616 0)
(-0.00262334 0.00358957 0)
(-0.00368556 0.00447858 0)
(-0.00492194 0.00535917 0)
(-0.00632588 0.00621223 0)
(-0.00788886 0.00702271 0)
(-0.00960058 0.00777889 0)
(-0.0114492 0.00847185 0)
(-0.0134217 0.00909489 0)
(-0.0155041 0.00964324 0)
(-0.0176814 0.0101136 0)
(-0.0199383 0.010504 0)
(-0.022259 0.0108136 0)
(-0.0246277 0.0110421 0)
(-0.0270284 0.0111903 0)
(-0.0294451 0.0112593 0)
(-0.0318621 0.011251 0)
(-0.0342642 0.0111673 0)
(-0.0366363 0.0110109 0)
(-0.0389639 0.0107843 0)
(-0.0412329 0.0104905 0)
(-0.0434301 0.0101329 0)
(-0.0455425 0.00971453 0)
(-0.0475582 0.00923902 0)
(-0.0494656 0.00870991 0)
(-0.051254 0.0081309 0)
(-0.0529136 0.00750576 0)
(-0.0544352 0.00683837 0)
(-0.0558105 0.00613265 0)
(-0.057032 0.00539263 0)
(-0.0580929 0.0046224 0)
(-0.0589874 0.00382611 0)
(-0.0597107 0.00300798 0)
(-0.0602587 0.0021723 0)
(-0.0606281 0.00132345 0)
(-0.0608168 0.000465826 0)
(-0.0608234 -0.000396063 0)
(-0.0606476 -0.00125767 0)
(-0.0602899 -0.00211439 0)
(-0.0597519 -0.00296155 0)
(-0.0590361 -0.00379446 0)
(-0.058146 -0.00460836 0)
(-0.0570861 -0.00539849 0)
(-0.0558617 -0.00616007 0)
(-0.0544793 -0.00688833 0)
(-0.0529463 -0.00757851 0)
(-0.051271 -0.00822592 0)
(-0.0494627 -0.00882591 0)
(-0.0475317 -0.00937396 0)
(-0.0454891 -0.00986565 0)
(-0.0433468 -0.0102967 0)
(-0.0411176 -0.0106631 0)
(-0.0388151 -0.0109611 0)
(-0.0364536 -0.011187 0)
(-0.034048 -0.0113377 0)
(-0.0316138 -0.0114104 0)
(-0.0291669 -0.0114027 0)
(-0.0267237 -0.0113126 0)
(-0.0243007 -0.011139 0)
(-0.0219146 -0.0108813 0)
(-0.0195822 -0.0105394 0)
(-0.0173198 -0.0101146 0)
(-0.0151437 -0.00960873 0)
(-0.0130693 -0.00902511 0)
(-0.0111114 -0.0083683 0)
(-0.00928381 -0.00764449 0)
(-0.00759901 -0.00686179 0)
(-0.006068 -0.00603054 0)
(-0.0047 -0.00516378 0)
(-0.00350222 -0.00427777 0)
(-0.00247963 -0.00339262 0)
(-0.0016349 -0.00253303 0)
(-0.00096777 -0.00172926 0)
(-0.00047472 -0.0010179 0)
(-0.00015559 -0.000442888 0)
(-2.00522e-05 -5.99037e-05 0)
(-2.84073e-05 0.000183184 0)
(-0.000207716 0.000807229 0)
(-0.000617388 0.00161644 0)
(-0.00123514 0.00255323 0)
(-0.00205315 0.00357161 0)
(-0.00306985 0.00463305 0)
(-0.00428086 0.00570565 0)
(-0.00567946 0.00676337 0)
(-0.00725716 0.00778518 0)
(-0.0090038 0.00875425 0)
(-0.0109077 0.00965734 0)
(-0.0129557 0.0104842 0)
(-0.0151336 0.0112269 0)
(-0.0174261 0.01188 0)
(-0.0198175 0.0124395 0)
(-0.0222911 0.012903 0)
(-0.0248303 0.0132691 0)
(-0.027418 0.0135378 0)
(-0.0300372 0.0137096 0)
(-0.0326711 0.013786 0)
(-0.0353028 0.013769 0)
(-0.037916 0.0136609 0)
(-0.0404947 0.0134647 0)
(-0.0430234 0.0131837 0)
(-0.0454873 0.0128214 0)
(-0.0478719 0.0123815 0)
(-0.0501637 0.011868 0)
(-0.0523497 0.0112852 0)
(-0.0544176 0.0106374 0)
(-0.056356 0.00992893 0)
(-0.0581545 0.00916449 0)
(-0.059803 0.00834872 0)
(-0.0612928 0.00748641 0)
(-0.0626159 0.00658244 0)
(-0.0637649 0.00564178 0)
(-0.0647338 0.00466948 0)
(-0.0655173 0.00367067 0)
(-0.0661109 0.00265058 0)
(-0.0665113 0.0016145 0)
(-0.0667162 0.000567824 0)
(-0.0667241 -0.000483997 0)
(-0.0665346 -0.00153543 0)
(-0.0661483 -0.00258087 0)
(-0.0655668 -0.00361467 0)
(-0.0647929 -0.00463109 0)
(-0.0638303 -0.0056244 0)
(-0.0626837 -0.00658881 0)
(-0.061359 -0.00751852 0)
(-0.0598629 -0.00840776 0)
(-0.0582034 -0.00925077 0)
(-0.0563895 -0.0100419 0)
(-0.0544309 -0.0107754 0)
(-0.0523387 -0.011446 0)
(-0.0501246 -0.0120483 0)
(-0.0478015 -0.0125771 0)
(-0.045383 -0.0130277 0)
(-0.0428837 -0.0133953 0)
(-0.0403186 -0.0136758 0)
(-0.0377038 -0.0138654 0)
(-0.0350557 -0.0139607 0)
(-0.0323914 -0.0139588 0)
(-0.0297283 -0.0138577 0)
(-0.027084 -0.0136558 0)
(-0.0244764 -0.0133524 0)
(-0.0219232 -0.0129479 0)
(-0.019442 -0.0124434 0)
(-0.0170501 -0.0118415 0)
(-0.0147643 -0.0111462 0)
(-0.0126003 -0.0103628 0)
(-0.0105731 -0.00949874 0)
(-0.00869654 -0.00856341 0)
(-0.00698278 -0.00756879 0)
(-0.00544246 -0.00652974 0)
(-0.00408437 -0.00546455 0)
(-0.0029153 -0.00439551 0)
(-0.00194003 -0.00334961 0)
(-0.00116073 -0.00235931 0)
(-0.000576662 -0.00146323 0)
(-0.000192434 -0.000706912 0)
(-2.58541e-05 -0.000146754 0)
(-3.41202e-05 0.000296629 0)
(-0.000244542 0.00114257 0)
(-0.000719946 0.0021701 0)
(-0.00142994 0.00332176 0)
(-0.0023618 0.00455078 0)
(-0.00351093 0.00581739 0)
(-0.00487025 0.00708817 0)
(-0.00643062 0.00833545 0)
(-0.00818152 0.00953659 0)
(-0.010111 0.0106732 0)
(-0.0122058 0.0117308 0)
(-0.0144515 0.0126978 0)
(-0.0168324 0.0135654 0)
(-0.0193323 0.0143272 0)
(-0.0219341 0.0149787 0)
(-0.0246203 0.0155169 0)
(-0.027373 0.0159405 0)
(-0.0301742 0.0162491 0)
(-0.033006 0.0164434 0)
(-0.0358504 0.0165249 0)
(-0.0386898 0.0164959 0)
(-0.0415069 0.0163593 0)
(-0.0442847 0.0161184 0)
(-0.047007 0.0157769 0)
(-0.0496579 0.0153391 0)
(-0.0522224 0.0148093 0)
(-0.0546858 0.0141923 0)
(-0.0570347 0.0134929 0)
(-0.059256 0.0127163 0)
(-0.0613378 0.0118678 0)
(-0.0632686 0.0109528 0)
(-0.0650383 0.00997678 0)
(-0.0666374 0.0089455 0)
(-0.0680573 0.00786474 0)
(-0.0692905 0.00674039 0)
(-0.0703304 0.00557846 0)
(-0.0711714 0.00438506 0)
(-0.0718089 0.00316639 0)
(-0.0722394 0.00192876 0)
(-0.0724601 0.000678565 0)
(-0.0724698 -0.000577709 0)
(-0.0722679 -0.00183349 0)
(-0.0718551 -0.00308212 0)
(-0.071233 -0.00431687 0)
(-0.0704046 -0.00553097 0)
(-0.0693738 -0.00671758 0)
(-0.0681455 -0.00786984 0)
(-0.0667259 -0.0089809 0)
(-0.0651222 -0.0100439 0)
(-0.0633428 -0.011052 0)
(-0.0613971 -0.0119985 0)
(-0.0592955 -0.0128767 0)
(-0.0570496 -0.0136803 0)
(-0.0546719 -0.0144028 0)
(-0.0521759 -0.0150383 0)
(-0.049576 -0.015581 0)
(-0.0468875 -0.0160255 0)
(-0.0441265 -0.0163669 0)
(-0.0413098 -0.0166006 0)
(-0.0384549 -0.0167228 0)
(-0.0355797 -0.0167302 0)
(-0.0327027 -0.0166201 0)
(-0.0298426 -0.016391 0)
(-0.0270183 -0.0160422 0)
(-0.0242485 -0.0155738 0)
(-0.0215521 -0.0149876 0)
(-0.0189474 -0.0142865 0)
(-0.0164522 -0.013475 0)
(-0.0140837 -0.0125595 0)
(-0.0118579 -0.0115483 0)
(-0.00979004 -0.0104522 0)
(-0.00789366 -0.00928462 0)
(-0.00618097 -0.00806216 0)
(-0.00466245 -0.00680491 0)
(-0.00334688 -0.00553706 0)
(-0.00224129 -0.00428751 0)
(-0.00135042 -0.00309053 0)
(-0.000676275 -0.00198626 0)
(-0.000228099 -0.00102125 0)
(-3.13582e-05 -0.000252051 0)
(-3.95465e-05 0.000428425 0)
(-0.000280067 0.00152839 0)
(-0.000819618 0.00280205 0)
(-0.00162021 0.00419245 0)
(-0.00266441 0.00565251 0)
(-0.0039447 0.00714164 0)
(-0.00545124 0.00862532 0)
(-0.00717242 0.0100746 0)
(-0.00909556 0.0114656 0)
(-0.0112068 0.0127786 0)
(-0.0134913 0.0139978 0)
(-0.015933 0.0151108 0)
(-0.018515 0.0161078 0)
(-0.0212198 0.0169818 0)
(-0.0240291 0.0177275 0)
(-0.0269243 0.0183419 0)
(-0.0298866 0.0188231 0)
(-0.0328969 0.0191708 0)
(-0.0359363 0.0193858 0)
(-0.038986 0.0194699 0)
(-0.0420274 0.0194255 0)
(-0.0450424 0.0192559 0)
(-0.0480132 0.0189649 0)
(-0.0509227 0.0185569 0)
(-0.0537543 0.0180367 0)
(-0.0564921 0.0174094 0)
(-0.059121 0.0166804 0)
(-0.0616266 0.0158555 0)
(-0.0639955 0.0149405 0)
(-0.0662148 0.0139416 0)
(-0.0682729 0.0128651 0)
(-0.0701588 0.0117175 0)
(-0.0718627 0.0105054 0)
(-0.0733757 0.00923558 0)
(-0.0746897 0.00791492 0)
(-0.075798 0.00655041 0)
(-0.0766945 0.00514919 0)
(-0.0773745 0.00371851 0)
(-0.0778341 0.00226571 0)
(-0.0780708 0.00079827 0)
(-0.0780829 -0.000676247 0)
(-0.0778699 -0.00215017 0)
(-0.0774325 -0.00361573 0)
(-0.0767725 -0.0050651 0)
(-0.0758928 -0.00649036 0)
(-0.0747976 -0.00788356 0)
(-0.0734919 -0.0092367 0)
(-0.0719824 -0.0105418 0)
(-0.0702764 -0.0117908 0)
(-0.0683828 -0.0129759 0)
(-0.0663114 -0.0140892 0)
(-0.0640731 -0.015123 0)
(-0.0616799 -0.0160697 0)
(-0.0591451 -0.0169221 0)
(-0.0564827 -0.0176731 0)
(-0.0537079 -0.0183161 0)
(-0.0508366 -0.0188449 0)
(-0.0478859 -0.0192536 0)
(-0.0448733 -0.019537 0)
(-0.0418171 -0.0196908 0)
(-0.0387363 -0.019711 0)
(-0.0356502 -0.0195948 0)
(-0.0325785 -0.0193403 0)
(-0.0295412 -0.0189466 0)
(-0.0265581 -0.018414 0)
(-0.023649 -0.0177446 0)
(-0.0208336 -0.0169415 0)
(-0.0181306 -0.0160099 0)
(-0.0155587 -0.0149571 0)
(-0.0131351 -0.0137924 0)
(-0.0108763 -0.0125277 0)
(-0.00879763 -0.0111779 0)
(-0.0069128 -0.00976091 0)
(-0.00523418 -0.00829861 0)
(-0.00377261 -0.0068168 0)
(-0.0025375 -0.00534598 0)
(-0.00153614 -0.00392186 0)
(-0.000773285 -0.0025857 0)
(-0.000262551 -0.00138469 0)
(-3.65852e-05 -0.000375116 0)
(-4.47156e-05 0.00057788 0)
(-0.000314343 0.00196325 0)
(-0.000916383 0.00351055 0)
(-0.00180571 0.00516356 0)
(-0.00296048 0.00687518 0)
(-0.00437028 0.00860439 0)
(-0.00602259 0.0103159 0)
(-0.00790328 0.0119797 0)
(-0.00999742 0.013571 0)
(-0.0122893 0.015069 0)
(-0.0147621 0.016457 0)
(-0.0173983 0.0177215 0)
(-0.0201796 0.0188522 0)
(-0.0230872 0.0198413 0)
(-0.0261015 0.0206832 0)
(-0.029203 0.0213744 0)
(-0.0323716 0.0219131 0)
(-0.0355874 0.0222988 0)
(-0.0388305 0.0225325 0)
(-0.0420812 0.022616 0)
(-0.04532 0.0225524 0)
(-0.048528 0.0223451 0)
(-0.0516867 0.0219987 0)
(-0.0547782 0.021518 0)
(-0.0577852 0.0209085 0)
(-0.0606911 0.0201761 0)
(-0.0634802 0.0193268 0)
(-0.0661375 0.0183674 0)
(-0.0686489 0.0173045 0)
(-0.0710011 0.0161452 0)
(-0.073182 0.0148968 0)
(-0.0751802 0.0135667 0)
(-0.0769854 0.0121624 0)
(-0.0785882 0.0106918 0)
(-0.0799804 0.00916269 0)
(-0.0811548 0.00758323 0)
(-0.0821053 0.00596157 0)
(-0.0828267 0.00430604 0)
(-0.0833152 0.0026251 0)
(-0.0835679 0.000927315 0)
(-0.0835832 -0.000778602 0)
(-0.0833604 -0.00248384 0)
(-0.0829004 -0.00417949 0)
(-0.0822049 -0.00585654 0)
(-0.0812769 -0.00750592 0)
(-0.0801207 -0.00911847 0)
(-0.0787417 -0.010685 0)
(-0.0771465 -0.0121964 0)
(-0.0753429 -0.0136435 0)
(-0.07334 -0.0150171 0)
(-0.071148 -0.0163083 0)
(-0.0687783 -0.0175082 0)
(-0.0662435 -0.0186083 0)
(-0.0635571 -0.0196001 0)
(-0.0607338 -0.0204756 0)
(-0.0577895 -0.0212271 0)
(-0.0547408 -0.0218476 0)
(-0.0516054 -0.0223303 0)
(-0.0484016 -0.0226695 0)
(-0.0451486 -0.0228598 0)
(-0.0418663 -0.0228971 0)
(-0.0385747 -0.0227779 0)
(-0.0352947 -0.0225001 0)
(-0.0320472 -0.0220627 0)
(-0.028853 -0.021466 0)
(-0.0257332 -0.0207122 0)
(-0.0227084 -0.0198049 0)
(-0.0197988 -0.0187499 0)
(-0.0170242 -0.017555 0)
(-0.0144033 -0.0162306 0)
(-0.011954 -0.0147896 0)
(-0.00969335 -0.0132481 0)
(-0.00763678 -0.0116256 0)
(-0.00579861 -0.00994506 0)
(-0.00419184 -0.00823388 0)
(-0.00282827 -0.00652388 0)
(-0.00171777 -0.00485192 0)
(-0.000867706 -0.00326009 0)
(-0.000295852 -0.00179592 0)
(-4.15652e-05 -0.000515303 0)
(-4.96594e-05 0.000744354 0)
(-0.00034747 0.00244575 0)
(-0.00101038 0.00429382 0)
(-0.00198658 0.00623319 0)
(-0.00325 0.00821699 0)
(-0.00478754 0.010204 0)
(-0.00658398 0.0121583 0)
(-0.00862268 0.0140494 0)
(-0.0108865 0.0158516 0)
(-0.0133575 0.0175432 0)
(-0.0160173 0.0191069 0)
(-0.0188467 0.0205284 0)
(-0.0218258 0.0217967 0)
(-0.0249343 0.0229037 0)
(-0.0281517 0.0238434 0)
(-0.0314571 0.024612 0)
(-0.0348294 0.0252075 0)
(-0.0382478 0.0256297 0)
(-0.0416913 0.0258796 0)
(-0.0451395 0.0259594 0)
(-0.048572 0.0258724 0)
(-0.0519691 0.0256226 0)
(-0.0553115 0.0252151 0)
(-0.0585808 0.0246554 0)
(-0.0617588 0.0239497 0)
(-0.0648285 0.0231045 0)
(-0.0677734 0.0221268 0)
(-0.0705781 0.0210241 0)
(-0.073228 0.0198041 0)
(-0.0757093 0.0184747 0)
(-0.0780094 0.0170442 0)
(-0.0801165 0.0155208 0)
(-0.08202 0.0139134 0)
(-0.0837102 0.0122307 0)
(-0.0851785 0.0104816 0)
(-0.0864174 0.00867529 0)
(-0.0874206 0.00682109 0)
(-0.0881828 0.00492843 0)
(-0.0886999 0.0030069 0)
(-0.088969 0.00106623 0)
(-0.0889883 -0.000883703 0)
(-0.0887572 -0.00283291 0)
(-0.0882763 -0.00477127 0)
(-0.0875476 -0.00668859 0)
(-0.0865741 -0.00857456 0)
(-0.0853601 -0.0104188 0)
(-0.0839112 -0.0122109 0)
(-0.0822342 -0.0139406 0)
(-0.0803372 -0.0155973 0)
(-0.0782294 -0.0171708 0)
(-0.0759214 -0.0186509 0)
(-0.073425 -0.0200275 0)
(-0.0707531 -0.021291 0)