/*--------------------------------*- C++ -*----------------------------------*\
  =========                 |
  \\      /  F ield         | OpenFOAM: The Open Source CFD Toolbox
   \\    /   O peration     | Website:  https://openfoam.org
    \\  /    A nd           | Version:  7
     \\/     M anipulation  |
\*---------------------------------------------------------------------------*/
FoamFile
{
    version     2.0;
    format      ascii;
    class       volScalarField;
    location    "2";
    object      p;
}
// * * * * * * * * * * * * * * * * * * * * * * * * * * * * * * * * * * * * * //

dimensions      [1 -1 -2 0 0 0 0];

internalField   nonuniform List<scalar> 
25200
(
1
1
1
1
1
1
1
1
1
1
1
1
1
1
1
1
1
1
1
1
1
1
1
1
1
1
1
1
1
1
1
5.6874
10.4484
10.5623
10.6474
10.7499
10.8517
10.9475
11.0323
11.1068
11.1759
11.2454
11.3189
11.3947
11.4664
11.5286
11.5815
11.6288
11.6747
11.7229
11.7744
11.8303
11.887
11.9401
11.9837
12.0148
12.0329
12.0411
12.0434
12.0423
1
1
1
1
1
1
1
1
1
1
1
1
1
1
1
1
1
1
1
1
1
1
1
1
1
1
1
1
1
1
1
5.61481
10.4177
10.5635
10.6446
10.7465
10.8471
10.943
11.0282
11.103
11.1723
11.242
11.315
11.3901
11.4614
11.5239
11.5774
11.6253
11.6715
11.7198
11.7707
11.8253
11.8797
11.9301
11.9719
12.0021
12.0205
12.031
12.0367
12.0379
1
1
1
1
1
1
1
1
1
1
1
1
1
1
1
1
1
1
1
1
1
1
1
1
1
1
1
1
1
1
1
5.46709
10.3878
10.5562
10.635
10.7375
10.8372
10.9332
11.0192
11.0947
11.1647
11.2346
11.3068
11.3811
11.4517
11.5148
11.5696
11.6189
11.666
11.7145
11.765
11.8179
11.8697
11.9168
11.9555
11.9829
12.0006
12.0135
12.0241
12.0294
1
1
1
1
1
1
1
1
1
1
1
1
1
1
1
1
1
1
1
1
1
1
1
1
1
1
1
1
1
1
1
5.25075
10.3416
10.5473
10.6234
10.7267
10.8244
10.9194
11.0053
11.081
11.1516
11.2221
11.2937
11.367
11.4368
11.5004
11.5566
11.6077
11.656
11.7048
11.7545
11.8053
11.8539
11.8974
11.933
11.9577
11.9747
11.99
12.0051
12.0143
1
1
1
1
1
1
1
1
1
1
1
1
1
1
1
1
1
1
1
1
1
1
1
1
1
1
1
1
1
1
1
4.96572
10.2763
10.5365
10.6098
10.7141
10.809
10.9017
10.9866
11.0617
11.1328
11.2041
11.2755
11.348
11.4167
11.4805
11.5382
11.5914
11.6412
11.6906
11.7396
11.7879
11.8332
11.8734
11.9062
11.9286
11.9453
11.9621
11.9799
11.9919
1
1
1
1
1
1
1
1
1
1
1
1
1
1
1
1
1
1
1
1
1
1
1
1
1
1
1
1
1
1
1
4.61483
10.1869
10.5238
10.5947
10.6995
10.7908
10.8806
10.964
11.0383
11.1099
11.1823
11.254
11.3259
11.3933
11.4566
11.5148
11.5693
11.62
11.6697
11.7176
11.7636
11.8061
11.8438
11.8749
11.8962
11.9131
11.9306
11.9485
11.9614
1
1
1
1
1
1
1
1
1
1
1
1
1
1
1
1
1
1
1
1
1
1
1
1
1
1
1
1
1
1
1
4.20658
10.0647
10.5079
10.5781
10.6834
10.7716
10.8579
10.9391
11.0117
11.0825
11.155
11.2263
11.2976
11.3636
11.4261
11.4844
11.54
11.5919
11.6422
11.6896
11.7337
11.7738
11.8093
11.839
11.86
11.8773
11.8943
11.9101
11.922
1
1
1
1
1
1
1
1
1
1
1
1
1
1
1
1
1
1
1
1
1
1
1
1
1
1
1
1
1
1
1
3.75161
9.89392
10.4868
10.5581
10.6635
10.7501
10.8343
10.9142
10.9858
11.0559
11.128
11.1987
11.2686
11.3325
11.3928
11.4491
11.5033
11.554
11.6036
11.6505
11.6937
11.7326
11.7669
11.7961
11.8178
11.8361
11.8528
11.8655
11.8759
1
1
1
1
1
1
1
1
1
1
1
1
1
1
1
1
1
1
1
1
1
1
1
1
1
1
1
1
1
1
1
3.27202
9.65501
10.4658
10.5377
10.6418
10.7255
10.8056
10.8823
10.9526
11.0219
11.0935
11.1637
11.2323
11.2946
11.3528
11.4072
11.4596
11.5087
11.557
11.6033
11.6465
11.685
11.7185
11.7473
11.7695
11.788
11.8039
11.8133
11.8217
1
1
1
1
1
1
1
1
1
1
1
1
1
1
1
1
1
1
1
1
1
1
1
1
1
1
1
1
1
1
1
2.77373
9.32408
10.4496
10.52
10.6227
10.7031
10.7784
10.8515
10.9208
10.9897
11.0607
11.1297
11.1959
11.2554
11.3105
11.3619
11.4116
11.4579
11.5039
11.5488
11.5918
11.63
11.6629
11.6908
11.7125
11.7304
11.7454
11.7526
11.7595
1
1
1
1
1
1
1
1
1
1
1
1
1
1
1
1
1
1
1
1
1
1
1
1
1
1
1
1
1
1
1
2.27431
8.88664
10.4445
10.5015
10.6007
10.6757
10.7464
10.8159
10.8847
10.9536
11.0241
11.0917
11.1549
11.2115
11.2637
11.3126
11.3594
11.4023
11.4447
11.4865
11.5276
11.5646
11.5962
11.6229
11.6437
11.6612
11.6771
11.6855
11.6937
1
1
1
1
1
1
1
1
1
1
1
1
1
1
1
1
1
1
1
1
1
1
1
1
1
1
1
1
1
1
1
1.79257
8.32686
10.4424
10.4808
10.5783
10.6465
10.7126
10.7773
10.8432
10.9103
10.9794
11.046
11.1074
11.1619
11.2115
11.2574
11.3006
11.3395
11.3772
11.415
11.4532
11.4887
11.5196
11.5457
11.5654
11.5808
11.5958
11.6048
11.6133
1
1
1
1
1
1
1
1
1
1
1
1
1
1
1
1
1
1
1
1
1
1
1
1
1
1
1
1
1
1
1
1.36352
7.68155
10.4663
10.4427
10.5271
10.593
10.6611
10.7261
10.7923
10.8591
10.9272
10.9922
11.0514
11.1041
11.1513
11.1944
11.2339
11.269
11.3019
11.335
11.3691
11.4011
11.4292
11.4529
11.4697
11.4829
11.4976
11.5086
11.5193
1
1
1
1
1
1
1
1
1
1
1
1
1
1
1
1
1
1
1
1
1
1
1
1
1
1
1
1
1
1
1
1.04377
6.93065
10.3411
10.376
10.4601
10.5385
10.6155
10.681
10.7409
10.8008
10.8649
10.9288
10.9872
11.0384
11.0831
11.1234
11.1592
11.19
11.2177
11.2456
11.2746
11.3022
11.3271
11.348
11.3611
11.3695
11.3789
11.3873
11.3957
1
1
1
1
1
1
1
1
1
1
1
1
1
1
1
1
1
1
1
1
1
1
1
1
1
1
1
1
1
1
1
1.0006
5.98773
10.1591
10.28
10.3849
10.4807
10.5654
10.6364
10.6985
10.7562
10.8135
10.8682
10.9181
10.9643
11.0059
11.0433
11.0751
11.1013
11.1235
11.1456
11.1687
11.1898
11.2085
11.2219
11.2262
11.2282
11.2328
11.2393
11.2488
1
1
1
1
1
1
1
1
1
1
1
1
1
1
1
1
1
1
1
1
1
1
1
1
1
1
1
1
1
1
1
1
4.97956
9.93201
10.2052
10.3186
10.4234
10.5073
10.5772
10.6362
10.6896
10.743
10.7952
10.8422
10.8821
10.9177
10.9504
10.979
11.0014
11.018
11.0335
11.0493
11.0621
11.073
11.0776
11.0748
11.0674
11.0573
11.0476
11.0418
1
1
1
1
1
1
1
1
1
1
1
1
1
1
1
1
1
1
1
1
1
1
1
1
1
1
1
1
1
1
1
1
3.92257
9.58461
10.1835
10.2952
10.3921
10.4692
10.5349
10.5872
10.6343
10.6802
10.7228
10.7607
10.7945
10.8241
10.8513
10.8734
10.89
10.8994
10.9073
10.914
10.9169
10.9162
10.9055
10.8836
10.8526
10.8219
10.7957
10.7933
1
1
1
1
1
1
1
1
1
1
1
1
1
1
1
1
1
1
1
1
1
1
1
1
1
1
1
1
1
1
1
1
2.86153
9.04383
10.1707
10.2685
10.3495
10.4177
10.4786
10.5294
10.5736
10.6148
10.6524
10.684
10.7102
10.7311
10.7472
10.7618
10.7714
10.7706
10.7685
10.7636
10.7525
10.7346
10.7039
10.6623
10.6114
10.5555
10.4831
10.4073
1
1
1
1
1
1
1
1
1
1
1
1
1
1
1
1
1
1
1
1
1
1
1
1
1
1
1
1
1
1
1
1
1.85976
8.29434
10.2825
10.2655
10.3187
10.374
10.4233
10.4671
10.507
10.544
10.5785
10.6052
10.6257
10.6406
10.6491
10.6545
10.6511
10.6388
10.6223
10.6012
10.5715
10.5327
10.4773
10.4014
10.292
10.1449
9.99273
9.87747
1
1
1
1
1
1
1
1
1
1
1
1
1
1
1
1
1
1
1
1
1
1
1
1
1
1
1
1
1
1
1
1
1.11086
7.31211
10.3455
10.2529
10.2542
10.2934
10.3391
10.3861
10.4295
10.4665
10.4989
10.522
10.5372
10.5448
10.5462
10.5413
10.5267
10.5027
10.4699
10.4289
10.3771
10.3103
10.2177
10.0893
9.91796
9.70265
9.46465
9.33642
1
1
1
1
1
1
1
1
1
1
1
1
1
1
1
1
1
1
1
1
1
1
1
1
1
1
1
1
1
1
1
1
1.00136
6.02433
9.98854
10.048
10.1318
10.2076
10.2613
10.3074
10.3493
10.3845
10.4134
10.4341
10.4466
10.4484
10.4434
10.4261
10.4018
10.3649
10.3139
10.2509
10.1722
10.0728
9.93999
9.76148
9.50553
9.09676
8.22697
6.24269
1
1
1
1
1
1
1
1
1
1
1
1
1
1
1
1
1
1
1
1
1
1
1
1
1
1
1
1
1
1
1
1
0.999991
4.60087
9.62621
10.0048
10.0924
10.1552
10.1933
10.2283
10.2624
10.2952
10.3206
10.3398
10.3497
10.3467
10.3328
10.3062
10.2702
10.2197
10.1508
10.0654
9.95873
9.82512
9.64885
9.40233
9.0393
8.41618
7.45191
5.24458
1
1
1
1
1
1
1
1
1
1
1
1
1
1
1
1
1
1
1
1
1
1
1
1
1
1
1
1
1
1
1
1
0.999998
3.18912
9.02657
9.95786
10.0378
10.1066
10.1451
10.1685
10.1882
10.2104
10.2249
10.2397
10.247
10.2404
10.2191
10.1849
10.1366
10.072
9.98597
9.87831
9.74397
9.57582
9.35651
9.052
8.60918
7.94287
6.78836
4.88676
1
1
1
1
1
1
1
1
1
1
1
1
1
1
1
1
1
1
1
1
1
1
1
1
1
1
1
1
1
1
1
1
1
1.90501
8.25485
10.0239
9.99615
10.0443
10.0799
10.1
10.1136
10.126
10.1315
10.1377
10.1377
10.1263
10.0998
10.0589
10
9.92212
9.82004
9.69148
9.53091
9.33194
9.07293
8.729
8.22767
7.54452
6.37509
4.84402
1
1
1
1
1
1
1
1
1
1
1
1
1
1
1
1
1
1
1
1
1
1
1
1
1
1
1
1
1
1
1
1
1
1.09364
6.93547
10.0358
9.96685
9.96977
10.002
10.0226
10.0352
10.0426
10.042
10.0387
10.0289
10.01
9.9779
9.92901
9.86004
9.76946
9.65293
9.50687
9.32437
9.10053
8.81183
8.43944
7.92359
7.23854
6.16344
4.9473
1
1
1
1
1
1
1
1
1
1
1
1
1
1
1
1
1
1
1
1
1
1
1
1
1
1
1
1
1
1
1
1
1
1.00071
5.2531
9.54019
9.81327
9.88019
9.90841
9.93136
9.94706
9.95396
9.95115
9.94107
9.92122
9.89211
9.85291
9.79701
9.71961
9.61857
9.48991
9.3299
9.13022
8.88623
8.57861
8.18627
7.67535
7.01187
6.07665
5.08016
1
1
1
1
1
1
1
1
1
1
1
1
1
1
1
1
1
1
1
1
1
1
1
1
1
1
1
1
1
1
1
1
1
0.999993
3.48597
9.05079
9.77813
9.81169
9.84227
9.86405
9.87454
9.87503
9.86652
9.84873
9.81945
9.78025
9.73174
9.66825
9.58129
9.46936
9.32926
9.15807
8.94666
8.68944
8.37264
7.97419
7.47478
6.85394
6.055
5.2102
1
1
1
1
1
1
1
1
1
1
1
1
1
1
1
1
1
1
1
1
1
1
1
1
1
1
1
1
1
1
1
1
1
0.999999
1.89756
8.21967
9.8123
9.73711
9.76242
9.79036
9.79498
9.78958
9.77525
9.7498
9.71302
9.66582
9.60865
9.53769
9.44365
9.3242
9.1754
8.99641
8.77789
8.51288
8.19262
7.79908
7.31274
6.74571
6.0507
5.32781
1
1
1
1
1
1
1
1
1
1
1
1
1
1
1
1
1
1
1
1
1
1
1
1
1
1
1
1
1
1
1
1
1
1
1.0811
6.71799
9.73543
9.66865
9.67863
9.7122
9.71624
9.70619
9.68527
9.65086
9.60657
9.55241
9.48776
9.4099
9.31007
9.18538
9.03028
8.8455
8.62301
8.35521
8.03614
7.65199
7.18641
6.67059
6.05852
5.43939
1
1
1
1
1
1
1
1
1
1
1
1
1
1
1
1
1
1
1
1
1
1
1
1
1
1
1
1
1
1
1
1
1
1
1.00046
4.70804
9.18405
9.54156
9.62673
9.64948
9.63931
9.62345
9.59768
9.55716
9.5068
9.44635
9.37417
9.28857
9.18189
9.05136
8.89285
8.70517
8.48161
8.2156
7.90248
7.52581
7.09168
6.61911
6.06844
5.53468
1
1
1
1
1
1
1
1
1
1
1
1
1
1
1
1
1
1
1
1
1
1
1
1
1
1
1
1
1
1
1
1
1
1
0.999997
2.63972
8.52252
9.60145
9.57281
9.56914
9.56399
9.54168
9.50966
9.46403
9.4077
9.34111
9.26215
9.16978
9.05793
8.92376
8.7645
8.57654
8.35453
8.0923
7.78778
7.42185
7.02169
6.58107
6.08569
5.61335
1
1
1
1
1
1
1
1
1
1
1
1
1
1
1
1
1
1
1
1
1
1
1
1
1
1
1
1
1
1
1
1
1
1
0.999999
1.2275
7.23073
9.66211
9.51496
9.47421
9.47433
9.45268
9.41983
9.3737
9.3153
9.245
9.16133
9.06306
8.94579
8.80735
8.6462
8.45767
8.23851
7.98179
7.68461
7.33752
6.96815
6.5551
6.11065
5.6773
1
1
1
1
1
1
1
1
1
1
1
1
1
1
1
1
1
1
1
1
1
1
1
1
1
1
1
1
1
1
1
1
1
1
1
1.0046
5.27321
9.11528
9.31477
9.38879
9.39419
9.36376
9.32695
9.27931
9.22015
9.14755
9.06108
8.95913
8.8387
8.69819
8.53655
8.3492
8.1337
7.88308
7.59233
7.26799
6.92326
6.53712
6.13962
5.73405
1
1
1
1
1
1
1
1
1
1
1
1
1
1
1
1
1
1
1
1
1
1
1
1
1
1
1
1
1
1
1
1
1
1
1
0.999959
2.90443
8.47764
9.36059
9.33934
9.32312
9.29162
9.24895
9.19625
9.13372
9.05789
8.96825
8.86336
8.74055
8.5988
8.43691
8.25122
8.03987
7.79487
7.51339
7.21103
6.88631
6.52529
6.16534
5.78455
1
1
1
1
1
1
1
1
1
1
1
1
1
1
1
1
1
1
1
1
1
1
1
1
1
1
1
1
1
1
1
1
1
1
1
0.99999
1.27681
7.20087
9.4485
9.29821
9.2314
9.20162
9.15733
9.10473
9.04256
8.96666
8.87561
8.76979
8.64586
8.50448
8.34338
8.16169
7.95177
7.71317
7.44508
7.16231
6.85193
6.5172
6.18424
5.82514
1
1
1
1
1
1
1
1
1
1
1
1
1
1
1
1
1
1
1
1
1
1
1
1
1
1
1
1
1
1
1
1
1
1
1
0.999998
1.00669
5.10768
8.93469
9.1057
9.14256
9.11883
9.07588
9.02334
8.96138
8.88501
8.79245
8.68518
8.55868
8.41759
8.25548
8.07983
7.86944
7.63944
7.3866
7.11978
6.82148
6.51431
6.19842
5.86412
1
1
1
1
1
1
1
1
1
1
1
1
1
1
1
1
1
1
1
1
1
1
1
1
1
1
1
1
1
1
1
1
1
1
1
1
0.999957
2.57937
8.30018
9.11346
9.09106
9.0551
9.01067
8.95818
8.8942
8.8148
8.71874
8.60763
8.47839
8.33537
8.17231
7.99586
7.79274
7.57086
7.33171
7.07658
6.79401
6.50916
6.20694
5.89908
1
1
1
1
1
1
1
1
1
1
1
1
1
1
1
1
1
1
1
1
1
1
1
1
1
1
1
1
1
1
1
1
1
1
1
1
0.99999
1.18719
6.6706
9.08348
9.02052
8.98774
8.94221
8.88994
8.82307
8.73992
8.64107
8.52818
8.3989
8.25604
8.0945
7.91906
7.72474
7.51081
7.28339
7.03833
6.77362
6.504
6.21835
5.93216
1
1
1
1
1
1
1
1
1
1
1
1
1
1
1
1
1
1
1
1
1
1
1
1
1
1
1
1
1
1
1
1
1
1
1
1
0.999998
1.00262
4.05843
8.54135
8.91609
8.91172
8.8769
8.83878
8.76691
8.67555
8.57044
8.45341
8.32227
8.18003
8.02005
7.8469
7.6591
7.4539
7.23675
7.00208
6.7535
6.49611
6.22811
5.95708
1
1
1
1
1
1
1
1
1
1
1
1
1
1
1
1
1
1
1
1
1
1
1
1
1
1
1
1
1
1
1
1
1
1
1
1
1
0.999989
1.60307
7.62015
9.08767
8.92416
8.85242
8.78249
8.69593
8.59702
8.48931
8.37333
8.24478
8.10686
7.95211
7.78423
7.60279
7.40688
7.19905
6.97461
6.73821
6.4915
6.23874
5.97968
1
1
1
1
1
1
1
1
1
1
1
1
1
1
1
1
1
1
1
1
1
1
1
1
1
1
1
1
1
1
1
1
1
1
1
1
1
0.999998
1.0304
5.56581
8.68996
8.73999
8.74734
8.69695
8.60936
8.51403
8.41043
8.29797
8.17369
8.03946
7.8889
7.72551
7.5491
7.36096
7.16159
6.94797
6.72229
6.48619
6.245
5.99773
1
1
1
1
1
1
1
1
1
1
1
1
1
1
1
1
1
1
1
1
1
1
1
1
1
1
1
1
1
1
1
1
1
1
1
1
1
1
0.999978
2.68649
8.08169
8.75709
8.71014
8.62705
8.53927
8.45158
8.35333
8.24372
8.12079
7.98673
7.83827
7.67792
7.50525
7.32223
7.12948
6.92465
6.7079
6.48282
6.25183
6.01625
1
1
1
1
1
1
1
1
1
1
1
1
1
1
1
1
1
1
1
1
1
1
1
1
1
1
1
1
1
1
1
1
1
1
1
1
1
1
0.999989
1.19774
6.41203
8.73612
8.62793
8.54132
8.46073
8.38191
8.29081
8.18714
8.06751
7.9337
7.78681
7.62946
7.46137
7.2837
7.097
6.89926
6.69159
6.47767
6.25765
6.03298
1
1
1
1
1
1
1
1
1
1
1
1
1
1
1
1
1
1
1
1
1
1
1
1
1
1
1
1
1
1
1
1
1
1
1
1
1
1
0.999998
1.00289
3.56932
8.10552
8.50548
8.46738
8.41043
8.3346
8.24508
8.1432
8.02555
7.89178
7.74523
7.58969
7.42526
7.25177
7.06873
6.87672
6.67814
6.47441
6.26494
6.0499
1
1
1
1
1
1
1
1
1
1
1
1
1
1
1
1
1
1
1
1
1
1
1
1
1
1
1
1
1
1
1
1
1
1
1
1
1
1
1
0.999996
1.41667
6.79112
8.62367
8.47846
8.38576
8.29297
8.19294
8.0878
7.97211
7.84256
7.70039
7.54931
7.39013
7.22122
7.04287
6.85718
6.66584
6.4701
6.26979
6.06408
1
1
1
1
1
1
1
1
1
1
1
1
1
1
1
1
1
1
1
1
1
1
1
1
1
1
1
1
1
1
1
1
1
1
1
1
1
1
1
0.999999
1.01379
4.15938
8.10722
8.33196
8.29942
8.22765
8.13876
8.03881
7.92587
7.79975
7.66108
7.51301
7.35718
7.19389
7.02224
6.84248
6.65655
6.46715
6.27455
6.07808
1
1
1
1
1
1
1
1
1
1
1
1
1
1
1
1
1
1
1
1
1
1
1
1
1
1
1
1
1
1
1
1
1
1
1
1
1
1
1
1
1.00001
1.6115
6.92886
8.46477
8.31227
8.20545
8.10879
8.00377
7.88778
7.76154
7.62521
7.48019
7.32789
7.16904
7.00274
6.82855
6.64826
6.46472
6.27899
6.09134
1
1
1
1
1
1
1
1
1
1
1
1
1
1
1
1
1
1
1
1
1
1
1
1
1
1
1
1
1
1
1
1
1
1
1
1
1
1
1
1
1
1.02899
4.42693
8.03458
8.17538
8.12773
8.052
7.95528
7.84289
7.71967
7.58873
7.44857
7.29993
7.14466
6.98338
6.81539
6.64136
6.46358
6.2841
6.10359
1
1
1
1
1
1
1
1
1
1
1
1
1
1
1
1
1
1
1
1
1
1
1
1
1
1
1
1
1
1
1
1
1
1
1
1
1
1
1
1
1
1.00008
1.72157
6.88819
8.27782
8.14253
8.03801
7.93244
7.81556
7.69139
7.5622
7.42447
7.27808
7.12514
6.9677
6.80525
6.63696
6.46413
6.2895
6.11397
1
1
1
1
1
1
1
1
1
1
1
1
1
1
1
1
1
1
1
1
1
1
1
1
1
1
1
1
1
1
1
1
1
1
1
1
1
1
1
1
1
1
1.03927
4.39569
7.89538
8.03149
7.96953
7.88145
7.77527
7.65643
7.52911
7.39399
7.25099
7.10225
6.95045
6.79513
6.63393
6.46647
6.29564
6.12435
1
1
1
1
1
1
1
1
1
1
1
1
1
1
1
1
1
1
1
1
1
1
1
1
1
1
1
1
1
1
1
1
1
1
1
1
1
1
1
1
1
1
1.00018
1.71795
6.67934
8.10567
7.97754
7.87148
7.76006
7.63663
7.5065
7.37241
7.23242
7.08744
6.93993
6.79008
6.63518
6.47335
6.30613
6.13807
1
1
1
1
1
1
1
1
1
1
1
1
1
1
1
1
1
1
1
1
1
1
1
1
1
1
1
1
1
1
1
1
1
1
1
1
1
1
1
1
1
1
1
1.03835
4.07044
7.69393
7.89222
7.82296
7.72167
7.60229
7.47669
7.34713
7.21255
7.07263
6.9291
6.78356
6.63408
6.4784
6.31708
6.15257
1
1
1
1
1
1
1
1
1
1
1
1
1
1
1
1
1
1
1
1
1
1
1
1
1
1
1
1
1
1
1
1
1
1
1
1
1
1
1
1
1
1
1
1.00022
1.59822
6.30899
7.92535
7.82869
7.7118
7.58771
7.4622
7.33353
7.20197
7.0655
6.92414
6.7804
6.63391
6.48273
6.32739
6.16803
1
1
1
1
1
1
1
1
1
1
1
1
1
1
1
1
1
1
1
1
1
1
1
1
1
1
1
1
1
1
1
1
1
1
1
1
1
1
1
1
1
1
1
1
1.02687
3.44868
7.41701
7.7734
7.66147
7.5524
7.43287
7.3095
7.18354
7.05267
6.91549
6.77438
6.63111
6.48411
6.33294
6.17919
1
1
1
1
1
1
1
1
1
1
1
1
1
1
1
1
1
1
1
1
1
1
1
1
1
1
1
1
1
1
1
1
1
1
1
1
1
1
1
1
1
1
1
1
1.00016
1.39285
5.81242
7.82098
7.66173
7.54673
7.4234
7.30115
7.1774
7.04946
6.91576
6.77759
6.63744
6.49431
6.34627
6.19614
1
1
1
1
1
1
1
1
1
1
1
1
1
1
1
1
1
1
1
1
1
1
1
1
1
1
1
1
1
1
1
1
1
1
1
1
1
1
1
1
1
1
1
1
1
1.01215
2.74845
7.0346
7.59424
7.49506
7.39151
7.27962
7.16043
7.03489
6.9057
6.77302
6.63723
6.49849
6.35536
6.20899
1
1
1
1
1
1
1
1
1
1
1
1
1
1
1
1
1
1
1
1
1
1
1
1
1
1
1
1
1
1
1
1
1
1
1
1
1
1
1
1
1
1
1
1
1
1.00006
1.20442
4.99191
7.56548
7.50492
7.40419
7.29199
7.17259
7.04673
6.91939
6.78939
6.65456
6.51588
6.37434
6.22954
1
1
1
1
1
1
1
1
1
1
1
1
1
1
1
1
1
1
1
1
1
1
1
1
1
1
1
1
1
1
1
1
1
1
1
1
1
1
1
1
1
1
1
1
1
1
1.0038
2.09211
6.46168
7.49206
7.36723
7.27233
7.15544
7.03333
6.91108
6.7863
6.65533
6.51914
6.38074
6.24004
1
1
1
1
1
1
1
1
1
1
1
1
1
1
1
1
1
1
1
1
1
1
1
1
1
1
1
1
1
1
1
1
1
1
1
1
1
1
1
1
1
1
1
1
1
1
1.00002
1.08324
3.79899
7.14362
7.37864
7.27648
7.15905
7.03801
6.91523
6.78958
6.65942
6.52531
6.39049
6.25548
1
1
1
1
1
1
1
1
1
1
1
1
1
1
1
1
1
1
1
1
1
1
1
1
1
1
1
1
1
1
1
1
1
1
1
1
1
1
1
1
1
1
1
1
1
1
1
1.00102
1.51562
5.57384
7.4255
7.28745
7.16401
7.04141
6.9199
6.79453
6.66558
6.53425
6.40287
6.27255
1
1
1
1
1
1
1
1
1
1
1
1
1
1
1
1
1
1
1
1
1
1
1
1
1
1
1
1
1
1
1
1
1
1
1
1
1
1
1
1
1
1
1
1
1
1
1
1
1.02066
2.6366
6.63783
7.24999
7.13624
7.0311
6.91418
6.79059
6.66482
6.5384
6.41112
6.28374
1
1
1
1
1
1
1
1
1
1
1
1
1
1
1
1
1
1
1
1
1
1
1
1
1
1
1
1
1
1
1
1
1
1
1
1
1
1
1
1
1
1
1
1
1
1
1
1
1.00016
1.1803
4.35754
7.07056
7.15741
7.05224
6.93188
6.80792
6.6836
6.55924
6.43372
6.30665
1
1
1
1
1
1
1
1
1
1
1
1
1
1
1
1
1
1
1
1
1
1
1
1
1
1
1
1
1
1
1
1
1
1
1
1
1
1
1
1
1
1
1
1
1
1
1
1
1
1.00347
1.76881
5.7183
7.16663
7.0494
6.92629
6.80633
6.68646
6.56577
6.44356
6.31959
1
1
1
1
1
1
1
1
1
1
1
1
1
1
1
1
1
1
1
1
1
1
1
1
1
1
1
1
1
1
1
1
1
1
1
1
1
1
1
1
1
1
1
1
1
1
1
1
1
1.00002
1.04367
2.89256
6.54878
7.02939
6.91794
6.80466
6.68889
6.57168
6.45372
6.33324
1
1
1
1
1
1
1
1
1
1
1
1
1
1
1
1
1
1
1
1
1
1
1
1
1
1
1
1
1
1
1
1
1
1
1
1
1
1
1
1
1
1
1
1
1
1
1
1
1
1
1.00047
1.24143
4.40255
6.84472
6.94388
6.83647
6.71576
6.59664
6.47851
6.35851
1
1
1
1
1
1
1
1
1
1
1
1
1
1
1
1
1
1
1
1
1
1
1
1
1
1
1
1
1
1
1
1
1
1
1
1
1
1
1
1
1
1
1
1
1
1
1
1
1
1
1
1.0059
1.81199
5.53237
6.92525
6.84866
6.72768
6.61217
6.49334
6.37254
1
1
1
1
1
1
1
1
1
1
1
1
1
1
1
1
1
1
1
1
1
1
1
1
1
1
1
1
1
1
1
1
1
1
1
1
1
1
1
1
1
1
1
1
1
1
1
1
1
1
1
1.00003
1.04886
2.77657
6.26992
6.83481
6.74218
6.62361
6.50612
6.3881
1
1
1
1
1
1
1
1
1
1
1
1
1
1
1
1
1
1
1
1
1
1
1
1
1
1
1
1
1
1
1
1
1
1
1
1
1
1
1
1
1
1
1
1
1
1
1
1
1
1
1
1
1.00058
1.21663
4.02716
6.56361
6.76867
6.65029
6.52608
6.41009
1
1
1
1
1
1
1
1
1
1
1
1
1
1
1
1
1
1
1
1
1
1
1
1
1
1
1
1
1
1
1
1
1
1
1
1
1
1
1
1
1
1
1
1
1
1
1
1
1
1
1
1
1
1.00517
1.64269
5.08849
6.67977
6.66763
6.54763
6.42944
1
1
1
1
1
1
1
1
1
1
1
1
1
1
1
1
1
1
1
1
1
1
1
1
1
1
1
1
1
1
1
1
1
1
1
1
1
1
1
1
1
1
1
1
1
1
1
1
1
1
1
1
1
1.00003
1.03261
2.37525
5.79632
6.63998
6.56595
6.44666
1
1
1
1
1
1
1
1
1
1
1
1
1
1
1
1
1
1
1
1
1
1
1
1
1
1
1
1
1
1
1
1
1
1
1
1
1
1
1
1
1
1
1
1
1
1
1
1
1
1
1
1
1
1
1.00035
1.13338
3.31939
6.22805
6.58133
6.47911
1
1
1
1
1
1
1
1
1
1
1
1
1
1
1
1
1
1
1
1
1
1
1
1
1
1
1
1
1
1
1
1
1
1
1
1
1
1
1
1
1
1
1
1
1
1
1
1
1
1
1
1
1
1
1
1.00254
1.37789
4.3186
6.35754
6.51143
1
1
1
1
1
1
1
1
1
1
1
1
1
1
1
1
1
1
1
1
1
1
1
1
1
1
1
1
1
1
1
1
1
1
1
1
1
1
1
1
1
1
1
1
1
1
1
1
1
1
1
1
1
1
1
1.00001
1.0134
1.82859
5.08102
6.41914
1
1
1
1
1
1
1
1
1
1
1
1
1
1
1
1
1
1
1
1
1
1
1
1
1
1
1
1
1
1
1
1
1
1
1
1
1
1
1
1
1
1
1
1
1
1
1
1
1
1
1
1
1
1
1
1
1.00011
1.05284
2.47308
5.61181
1
1
1
1
1
1
1
1
1
1
1
1
1
1
1
1
1
1
1
1
1
1
1
1
1
1
1
1
1
1
1
1
1
1
1
1
1
1
1
1
1
1
1
1
1
1
1
1
1
1
1
1
1
1
1
1
1
1.00072
1.15637
3.23337
1
1
1
1
1
1
1
1
1
1
1
1
1
1
1
1
1
1
1
1
1
1
1
1
1
1
1
1
1
1
1
1
1
1
1
1
1
1
1
1
1
1
1
1
1
1
1
1
1
1
1
1
1
1
1
1
1
1
1.00342
1.36226
1
1
1
1
1
1
1
1
1
1
1
1
1
1
1
1
1
1
1
1
1
1
1
1
1
1
1
1
1
1
1
1
1
1
1
1
1
1
1
1
1
1
1
1
1
1
1
1
1
1
1
1
1
1
1
1
1
1
1.00002
1.01286
1
1
1
1
1
1
1
1
1
1
1
1
1
1
1
1
1
1
1
1
1
1
1
1
1
1
1
1
1
1
1
1
1
1
1
1
1
1
1
1
1
1
1
1
1
1
1
1
1
1
1
1
1
1
1
1
1
1
1
1.00011
1
1
1
1
1
1
1
1
1
1
1
1
1
1
1
1
1
1
1
1
1
1
1
1
1
1
1
1
1
1
1
1
1
1
1
1
1
1
1
1
1
1
1
1
1
1
1
1
1
1
1
1
1
1
1
1
1
1
1
1
1
1
1
1
1
1
1
1
1
1
1
1
1
1
1
1
1
1
1
1
1
1
1
1
1
1
1
1
1
1
1
1
1
1
1
1
1
1
1
1
1
1
1
1
1
1
1
1
1
1
1
1
1
1
1
1
1
1
1
1
1
1
1
1
1
1
1
1
1
1
1
1
1
1
1
1
1
1
1
1
1
1
1
1
1
1
1
1
1
1
1
1
1
1
1
1
1
1
1
1
1
1
1
1
1
1
1
1
1
1
1
1
1
1
1
1
1
1
1
1
1
1
1
1
1
1
1
1
1
1
1
1
1
1
1
1
1
1
1
1
1
1
1
1
1
1
1
1
1
1
1
1
1
1
1
1
1
1
1
1
1
1
1
1
1
1
1
1
1
1
1
1
1
1
1
1
1
1
1
1
1
1
1
1
1
1
1
1
1
1
1
1
1
1
1
1
1
1
1
1
1
1
1
1
1
1
1
1
1
1
1
1
1
1
1
1
1
1
1
1
1
1
1
1
1
1
1
1
1
1
1
1
1
1
1
1
1
1
1
1
1
1
1
1
1
1
1
1
1
1
1
1
1
1
1
1
1
1
1
1
1
1
1
1
1
1
1
1
1
1
1
1
1
1
1
1
1
1
1
1
1
1
1
1
1
1
1
1
1
1
1
1
1
1
1
1
1
1
1
1
1
1
1
1
1
1
1
1
1
1
1
1
1
1
1
1
1
1
1
1
1
1
1
1
1
1
1
1
1
1
1
1
1
1
1
1
1
1
1
1
1
1
1
1
1
1
1
1
1
1
1
1
1
1
1
1
1
1
1
1
1
1
1
1
1
1
1
1
1
1
1
1
1
1
1
1
1
1
1
1
1
1
1
1
1
1
1
1
1
1
1
1
1
1
1
1
1
1
1
1
1
1
1
1
1
1
1
1
1
1
1
1
1
1
1
1
1
1
1
1
1
1
1
1
1
1
1
1
1
1
1
1
1
1
1
1
1
1
1
1
1
1
1
1
1
1
1
1
1
1
1
1
1
1
1
1
1
1
1
1
1
1
1
1
1
1
1
1
1
1
1
1
1
1
1
1
1
1
1
1
1
1
1
1
1
1
1
1
1
1
1
1
1
1
1
1
1
1
1
1
1
1
1
1
1
1
1
1
1
1
1
1
1
1
1
1
1
1
1
1
1
1
1
1
1
1
1
1
1
1
1
1
1
1
1
1
1
1
1
1
1
1
1
1
1
1
1
1
1
1
1
1
1
1
1
1
1
1
1
1
1
1
1
1
1
1
1
1
1
1
1
1
1
1
1
1
1
1
1
1
1
1
1
1
1
1
1
1
1
1
1
1
1
1
1
1
1
1
1
1
1
1
1
1
1
1
1
1
1
1
1
1
1
1
1
1
1
1
1
1
1
1
1
1
1
1
1
1
1
1
1
1
1
1
1
1
1
1
1
1
1
1
1
1
1
1
1
1
1
1
1
1
1
1
1
1
1
1
1
1
1
1
1
1
1
1
1
1
1
1
1
1
1
1
1
1
1
1
1
1
1
1
1
1
1
1
1
1
1
1
1
1
1
1
1
1
1
1
1
1
1
1
1
1
1
1
1
1
1
1
1
1
1
1
1
1
1
1
1
1
1
1
1
1
1
1
1
1
1
1
1
1
1
1
1
1
1
1
1
1
1
1
1
1
1
1
1
1
1
1
1
1
1
1
1
1
1
1
1
1
1
1
1
1
1
1
1
1
1
1
1
1
1
1
1
1
1
1
1
1
1
1
1
1
1
1
1
1
1
1
1
1
1
1
1
1
1
1
1
1
1
1
1
1
1
1
1
1
1
1
1
1
1
1
1
1
1
1
1
1
1
1
1
1
1
1
1
1
1
1
1
1
1
1
1
1
1
1
1
1
1
1
1
1
1
1
1
1
1
1
1
1
1
1
1
1
1
1
1
1
1
1
1
1
1
1
1
1
1
1
1
1
1
1
1
1
1
1
1
1
1
1
1
1
1
1
1
1
1
1
1
1
1
1
1
1
1
1
1
1
1
1
1
1
1
1
1
1
1
1
1
1
1
1
1
1
1
1
1
1
1
1
1
1
1
1
1
1
1
1
1
1
1
1
1
1
1
1
1
1
1
1
1
1
1
1
1
1
1
1
1
1
1
1
1
1
1
1
1
1
1
1
1
1
1
1
1
1
1
1
1
1
1
1
1
1
1
1
1
1
1
1
1
1
1
1
1
1
1
1
1
1
1
1
1
1
1
1
1
1
1
1
1
1
1
1
1
1
1
1
1
1
1
1
1
1
1
1
1
1
1
1
1
1
1
1
1
1
1
1
1
1
1
1
1
1
1
1
1
1
1
1
1
1
1
1
1
1
1
1
1
1
1
1
1
1
1
1
1
1
1
1
1
1
1
1
1
1
1
1
1
1
1
1
1
1
1
1
1
1
1
1
1
1
1
1
1
1
1
1
1
1
1
1
1
1
1
1
1
1
1
1
1
1
1
1
1
1
1
1
1
1
1
1
1
1
1
1
1
1
1
1
1
1
1
1
1
1
1
1
1
1
1
1
1
1
1
1
1
1
1
1
1
1
1
1
1
1
1
1
1
1
1
1
1
1
1
1
1
1
1
1
1
1
1
1
1
1
1
1
1
1
1
1
1
1
1
1
1
1
1
1
1
1
1
1
1
1
1
1
1
1
1
1
1
1
1
1
1
1
1
1
1
1
1
1
1
1
1
1
1
1
1
1
1
1
1
1
1
1
1
1
1
1
1
1
1
1
1
1
1
1
1
1
1
1
1
1
1
1
1
1
1
1
1
1
1
1
1
1
1
1
1
1
1
1
1
1
1
1
1.07301
0.224727
0.0508986
0.0100674
0.0173646
0.0400811
0.0551598
0.0702237
0.0999988
0.15569
0.221151
0.288395
0.362923
0.436579
0.475345
0.512223
0.575049
0.651067
0.713227
0.74415
0.772832
0.803717
0.844545
0.87725
0.910347
0.920619
0.929119
0.944097
0.961724
0.979818
0.993282
1.02121
1.05322
1.08299
1.11604
1.12495
1.12354
1.11961
1.12007
1.1264
1.14821
1.18549
1.2001
1.20085
1.19806
1.19303
1.19027
1.19149
1.19965
1.22018
1.24424
1.25894
1.26862
1.27419
1.27493
1.27488
1.27288
1.26858
1.26684
1.26794
1.27311
1.28478
1.29566
1.30191
1.30188
1.29685
1.29341
1.29406
1.3013
1.31114
1.31209
1.30988
1.30472
1.29942
1.29783
1.29842
1.30134
1.30111
1.29956
1.29661
1.29238
1.28777
1.2847
1.28371
1.28341
1.28397
1.28462
1.28525
1.28543
1.28426
1.28142
1.27881
1.27846
1.27988
1.28272
1.28743
1.28926
1.28808
1.28536
1.28099
1.27538
1.26897
1.26397
1.2683
1.33179
1.69764
2.85566
4.60178
6.60681
7.12469
6.73021
6.2768
6.15062
6.1727
6.18132
6.11147
6.02893
5.92623
5.82423
5.74969
5.6902
5.65657
5.64232
5.60893
5.54379
5.47283
5.40328
5.3379
5.27777
5.22225
5.17086
5.12268
5.07494
5.0265
4.97862
4.93235
4.88759
4.84384
4.80086
4.7574
4.7144
4.68048
4.65201
4.62643
4.601
4.5706
4.53608
4.49431
4.43984
4.38645
4.34793
4.31248
4.27825
4.24329
4.20744
4.16904
4.12443
4.07301
4.02725
3.99534
3.9693
3.94834
3.93443
3.9172
3.89082
3.85969
3.81574
3.76117
3.71727
3.68789
3.66481
3.646
3.63372
3.62215
3.60637
3.5879
3.56611
3.53424
3.4908
3.44512
3.40651
3.3736
3.3412
3.30419
3.26854
3.25032
3.23903
3.22918
3.22365
3.22143
3.20543
3.18197
3.15228
3.10437
3.04696
3.00667
2.98281
2.96483
2.94915
2.93818
2.93593
2.93679
2.9296
2.91649
2.89849
2.86957
2.82481
2.77708
2.74289
2.7216
2.70719
2.69672
2.68894
2.68003
2.66575
2.63907
2.60563
2.57933
2.55931
2.53878
2.51243
2.48448
2.46838
2.4581
2.44871
2.44056
2.43564
2.43598
2.43477
2.42674
2.41348
2.38957
2.34323
2.29332
2.26602
2.24974
2.23825
2.22907
2.22297
2.22047
1.93995
0.968215
0.460434
0.191228
0.16827
0.187846
0.1754
0.15588
0.155436
0.15528
0.159236
0.177628
0.202751
0.23866
0.287567
0.342645
0.406792
0.475448
0.549737
0.592183
0.630713
0.695024
0.776725
0.827507
0.859062
0.879704
0.887974
0.90546
0.944372
0.995228
1.0138
1.02818
1.04116
1.05076
1.06357
1.0852
1.10709
1.12112
1.12705
1.13272
1.1474
1.17085
1.18357
1.18795
1.189
1.18693
1.18623
1.18861
1.19473
1.21163
1.23695
1.24911
1.25295
1.25538
1.25725
1.26004
1.26361
1.26727
1.26914
1.27084
1.27483
1.28307
1.29263
1.29917
1.30121
1.29761
1.29126
1.28852
1.28929
1.29277
1.29992
1.30537
1.30616
1.30414
1.30264
1.30171
1.30024
1.29872
1.29653
1.29309
1.2895
1.28674
1.28475
1.28381
1.28342
1.28332
1.28388
1.2852
1.28587
1.28602
1.28557
1.284
1.28204
1.28128
1.28203
1.2832
1.28464
1.28398
1.28169
1.27747
1.26973
1.26147
1.26944
1.36603
1.70652
2.39163
2.92292
3.51991
4.82093
5.80569
6.20518
6.16424
6.15309
6.15113
6.12464
6.07395
6.00827
5.93725
5.85644
5.7779
5.71075
5.6599
5.61982
5.58311
5.52917
5.46349
5.39923
5.3372
5.28403
5.2363
5.19021
5.14436
5.09631
5.04484
4.99162
4.93991
4.89192
4.84725
4.80372
4.75887
4.71055
4.66699
4.63364
4.60478
4.57778
4.55105
4.52057
4.48399
4.43903
4.38967
4.34935
4.3151
4.28301
4.25232
4.21941
4.1845
4.14446
4.09731
4.04651
4.00101
3.96618
3.93947
3.9191
3.90433
3.88521
3.85828
3.8243
3.78345
3.73973
3.7012
3.67289
3.65187
3.63426
3.61608
3.59595
3.57375
3.54757
3.51698
3.48394
3.4513
3.42029
3.39124
3.36122
3.32658
3.28719
3.25396
3.23582
3.2223
3.21017
3.20104
3.19388
3.17644
3.15077
3.11707
3.07521
3.0313
2.99614
2.97198
2.95496
2.94209
2.93151
2.9179
2.90444
2.89243
2.8792
2.86063
2.83367
2.80285
2.77013
2.7389
2.71422
2.69521
2.67986
2.66819
2.65616
2.63945
2.61564
2.58992
2.56571
2.54153
2.51411
2.48686
2.46929
2.45798
2.44854
2.4404
2.43446
2.42947
2.42251
2.4142
2.40238
2.38358
2.35387
2.31868
2.2871
2.26276
2.2468
2.23774
2.23539
2.22683
2.7614
1.62771
0.940524
0.599984
0.500886
0.396428
0.316449
0.288722
0.284945
0.255892
0.234439
0.232759
0.237644
0.253077
0.280275
0.318363
0.329939
0.340112
0.369866
0.433761
0.500909
0.57315
0.659176
0.718694
0.761092
0.810594
0.852764
0.889882
0.934844
1.00161
1.03744
1.04891
1.06262
1.07078
1.06906
1.07454
1.09294
1.11157
1.12985
1.14569
1.15807
1.16831
1.1763
1.18324
1.19393
1.20036
1.20086
1.19869
1.19765
1.20429
1.22384
1.24338
1.25037
1.25344
1.25668
1.26071
1.26481
1.26966
1.27598
1.28023
1.28257
1.28487
1.28698
1.28908
1.29278
1.29862
1.30296
1.30426
1.30236
1.29629
1.29393
1.29486
1.29753
1.30166
1.30488
1.30553
1.30442
1.30199
1.29809
1.2926
1.28724
1.28442
1.28392
1.28402
1.28464
1.28484
1.28473
1.28415
1.28338
1.28301
1.28333
1.28412
1.28499
1.2857
1.28565
1.28517
1.28448
1.28303
1.27994
1.27354
1.26435
1.27825
1.39117
1.87602
2.43403
2.98484
3.05099
3.03943
3.36912
4.35188
5.5407
6.23542
6.28376
6.18004
6.09407
6.04484
5.96392
5.90963
5.85085
5.79482
5.74509
5.69134
5.63326
5.57728
5.51816
5.45729
5.39601
5.33247
5.27842
5.2349
5.19508
5.15638
5.11579
5.07004
5.0185
4.96405
4.91125
4.86277
4.81719
4.77045
4.71952
4.66641
4.61968
4.58199
4.54956
4.51833
4.48605
4.45265
4.41735
4.37952
4.33951
4.30134
4.26815
4.23811
4.21054
4.18159
4.15113
4.11846
4.08079
4.03791
3.99208
3.945
3.90432
3.87473
3.84844
3.8259
3.80577
3.78269
3.7575
3.72828
3.69649
3.66534
3.63627
3.60932
3.58355
3.55702
3.52782
3.49455
3.46022
3.43418
3.41466
3.39629
3.3768
3.3534
3.32008
3.27332
3.23441
3.21378
3.1975
3.18238
3.16611
3.14894
3.1301
3.11087
3.08966
3.06419
3.03362
3.00126
2.96982
2.94195
2.91936
2.90102
2.88304
2.86379
2.84539
2.83138
2.82379
2.81256
2.79747
2.77442
2.73973
2.70119
2.67295
2.65293
2.63653
2.62422
2.6144
2.60103
2.5825
2.55542
2.52213
2.49358
2.4744
2.46023
2.44866
2.43884
2.42948
2.41978
2.4093
2.39672
2.3818
2.3636
2.34477
2.32672
2.30576
2.28131
2.26221
2.24904
2.24071
2.22699
3.26621
2.26647
1.51959
1.10653
0.89834
0.706245
0.517048
0.473108
0.47571
0.444273
0.388374
0.354533
0.352654
0.358256
0.356704
0.34299
0.332611
0.336948
0.356896
0.371986
0.390834
0.426089
0.476583
0.534939
0.596757
0.66673
0.740311
0.79326
0.838483
0.909047
0.960337
0.981786
1.01082
1.04562
1.05599
1.06756
1.0903
1.11551
1.13976
1.15042
1.155
1.16161
1.16714
1.16846
1.17515
1.18673
1.18964
1.18952
1.18929
1.19511
1.21108
1.23052
1.23922
1.24364
1.24663
1.248
1.25039
1.25446
1.26326
1.27957
1.28926
1.29052
1.28799
1.28253
1.28168
1.28524
1.29219
1.29681
1.29886
1.29905
1.29715
1.29786
1.30029
1.30495
1.30685
1.30566
1.3024
1.29731
1.29133
1.28636
1.28354
1.28239
1.28277
1.2844
1.28572
1.28627
1.28615
1.28473
1.2823
1.28037
1.28012
1.28089
1.28269
1.28427
1.2851
1.28544
1.28478
1.28176
1.27801
1.27559
1.30142
1.43903
1.95281
2.63658
2.93936
3.08482
3.08125
3.02468
3.01543
3.17331
3.93909
5.19932
5.78583
6.11959
6.12844
6.09514
5.98227
5.89501
5.83473
5.78018
5.73726
5.68994
5.63217
5.57099
5.50857
5.44788
5.39221
5.3379
5.28653
5.2392
5.19458
5.15151
5.10988
5.06747
5.02115
4.97107
4.91993
4.86925
4.81953
4.77048
4.71993
4.66724
4.61764
4.57578
4.53994
4.50704
4.47566
4.44548
4.41549
4.38415
4.35051
4.31291
4.27269
4.23503
4.20337
4.17432
4.14557
4.11662
4.08653
4.05478
4.01977
3.97796
3.92822
3.8776
3.83779
3.81101
3.78981
3.77001
3.74991
3.72764
3.70184
3.6715
3.63952
3.60882
3.57867
3.54717
3.51416
3.48181
3.45391
3.43159
3.41208
3.3949
3.37911
3.3614
3.33772
3.3016
3.25465
3.21525
3.1887
3.16618
3.14596
3.12989
3.1171
3.10271
3.08656
3.06945
3.05104
3.02848
2.99892
2.9618
2.92185
2.8876
2.86076
2.83871
2.82238
2.81214
2.80599
2.80557
2.80136
2.78791
2.76805
2.73285
2.6826
2.64144
2.62034
2.61039
2.60407
2.59631
2.58378
2.56322
2.53622
2.51288
2.49309
2.47295
2.45323
2.43707
2.42423
2.41191
2.39746
2.37915
2.35952
2.34522
2.3362
2.33155
2.32318
2.31055
2.29589
2.2752
2.25175
2.22298
3.69321
2.83665
2.11763
1.57006
1.29536
1.10075
0.894719
0.723173
0.652046
0.624211
0.58167
0.524717
0.483408
0.463346
0.455057
0.44313
0.424267
0.422812
0.426208
0.427182
0.426579
0.414771
0.41403
0.421003
0.439981
0.473639
0.533338
0.604279
0.670885
0.748244
0.833855
0.895632
0.937744
0.987218
1.00875
1.02124
1.04525