/*--------------------------------*- C++ -*----------------------------------*\
  =========                 |
  \\      /  F ield         | OpenFOAM: The Open Source CFD Toolbox
   \\    /   O peration     | Website:  https://openfoam.org
    \\  /    A nd           | Version:  7
     \\/     M anipulation  |
\*---------------------------------------------------------------------------*/
FoamFile
{
    version     2.0;
    format      ascii;
    class       surfaceScalarField;
    location    "0.4";
    object      phi;
}
// * * * * * * * * * * * * * * * * * * * * * * * * * * * * * * * * * * * * * //

dimensions      [0 3 -1 0 0 0 0];

internalField   nonuniform List<scalar> 
21785
(
-1.96004e-13
3.25473e-13
3.64798e-13
2.35504e-12
-6.69997e-13
2.72683e-12
-1.66415e-12
2.78034e-12
-1.93257e-12
3.18449e-12
-1.65282e-12
3.32436e-12
-2.76932e-12
3.01298e-12
8.96784e-13
3.05531e-12
3.88691e-12
2.40615e-12
2.68368e-12
2.19e-12
2.58281e-12
2.24898e-12
1.76267e-12
1.76834e-12
1.2726e-12
2.07152e-12
-3.87777e-14
1.81151e-12
-9.88116e-13
1.60892e-12
1.38553e-13
1.53758e-12
1.73228e-12
1.046e-12
6.94348e-13
4.02432e-13
1.25791e-12
7.16112e-13
1.43536e-12
4.05457e-13
1.9288e-12
4.70227e-13
2.00721e-12
4.14086e-13
1.74565e-12
4.89335e-13
1.53914e-12
1.01876e-12
4.23244e-12
1.4668e-12
5.35956e-12
1.62618e-12
5.29236e-12
1.20758e-12
5.07133e-12
1.57023e-12
5.02078e-12
1.34774e-12
5.32115e-12
1.40731e-12
5.01326e-12
1.27535e-12
5.19836e-12
1.2311e-12
8.81624e-12
1.28955e-12
1.14813e-11
8.14279e-13
1.15673e-11
1.05053e-12
1.22283e-11
1.27455e-12
1.21945e-11
7.0218e-13
1.19057e-11
2.52404e-13
1.18008e-11
-1.76664e-13
1.19738e-11
-6.14529e-13
9.70081e-12
-1.34328e-12
8.76963e-12
-8.43281e-13
8.5201e-12
-6.34479e-13
8.16665e-12
5.91205e-14
2.17713e-13
7.77965e-12
-5.81331e-13
4.31168e-12
-1.82141e-12
8.1237e-12
-3.87323e-12
9.66196e-12
-5.88385e-12
1.03175e-11
-7.98211e-12
9.85804e-12
-9.66322e-12
9.41635e-12
-1.1797e-11
8.76084e-12
-9.08164e-12
7.73191e-12
-5.61298e-12
7.23399e-12
-7.46399e-12
6.29386e-12
-8.77781e-12
5.66291e-12
-9.17249e-12
5.77985e-12
-1.04347e-11
5.46772e-12
-1.1739e-11
4.87099e-12
-1.29264e-11
4.0282e-12
-1.23011e-11
3.3095e-12
-1.06905e-11
2.87607e-12
-1.04803e-11
2.10783e-12
-1.02122e-11
1.18798e-12
-9.03652e-12
9.72087e-13
-8.03889e-12
6.91719e-13
-7.04987e-12
5.03255e-13
-5.97426e-12
8.99981e-13
-4.7552e-12
1.58847e-12
4.65606e-13
2.28968e-12
3.50994e-12
2.02584e-12
5.47035e-12
2.26026e-12
6.10676e-12
2.04722e-12
7.87088e-12
2.52303e-12
9.18488e-12
2.43503e-12
1.03059e-11
2.3725e-12
1.17133e-11
2.7763e-12
1.63562e-11
2.47157e-12
2.12153e-11
2.10925e-12
2.21896e-11
1.66557e-12
2.29414e-11
1.05302e-12
2.37293e-11
5.39934e-13
2.42345e-11
-5.30694e-13
2.49083e-11
-1.26896e-12
2.56802e-11
-1.64896e-12
2.48479e-11
-2.56972e-12
2.39387e-11
-2.44228e-12
2.44019e-11
-1.50856e-12
2.41492e-11
-7.51594e-13
3.53517e-13
2.43565e-11
-4.56253e-13
6.51733e-12
-1.12713e-12
1.26152e-11
-2.46489e-12
1.5794e-11
-4.72655e-12
1.66173e-11
-6.46491e-12
1.59013e-11
-8.47439e-12
1.47619e-11
-1.10332e-11
1.37276e-11
-7.52003e-12
1.27382e-11
-4.61629e-12
1.18922e-11
-6.25073e-12
1.03766e-11
-6.60592e-12
9.52795e-12
-7.10409e-12
9.1799e-12
-8.13395e-12
8.21419e-12
-8.92221e-12
7.05758e-12
-9.3319e-12
6.04478e-12
-7.89351e-12
4.68511e-12
-6.17929e-12
3.63838e-12
-5.23013e-12
2.54841e-12
-3.59704e-12
1.50184e-12
-1.81522e-12
6.71291e-13
1.75167e-13
-8.9082e-14
2.73976e-12
-7.22225e-14
5.21361e-12
-2.43206e-13
7.98276e-12
1.54903e-13
1.40209e-11
8.80134e-13
1.93166e-11
1.93503e-12
2.23399e-11
2.05802e-12
2.48606e-11
2.02522e-12
2.70529e-11
2.28776e-12
2.93973e-11
2.52045e-12
3.18972e-11
2.8863e-12
3.35783e-11
3.10113e-12
3.91942e-11
3.05581e-12
4.48306e-11
3.18342e-12
4.66339e-11
2.15895e-12
4.8576e-11
8.0663e-13
4.99828e-11
-5.05736e-13
5.19607e-11
-1.79765e-12
5.41542e-11
-3.16055e-12
5.55217e-11
-4.18889e-12
5.66095e-11
-4.6973e-12
5.73111e-11
-3.68891e-12
5.83246e-11
-2.48554e-12
5.9069e-11
-1.22149e-12
1.90595e-13
5.93255e-11
-5.48513e-14
9.12519e-12
8.57158e-13
1.73129e-11
-3.05177e-13
2.0855e-11
-2.49637e-12
2.14878e-11
-3.81668e-12
2.12214e-11
-5.16387e-12
1.90805e-11
-7.64086e-12
1.81008e-11
-3.98798e-12
1.72541e-11
-1.46579e-12
1.58954e-11
-2.29531e-12
1.38377e-11
-1.9294e-12
1.30534e-11
-2.22654e-12
1.17217e-11
-2.49103e-12
1.01688e-11
-2.01448e-12
9.19368e-12
-1.73624e-12
7.60411e-12
8.92296e-13
5.90335e-12
3.38531e-12
3.45495e-12
5.2139e-12
2.21558e-12
8.08781e-12
8.76435e-13
1.06406e-11
-9.74315e-13
1.4145e-11
-1.66864e-12
1.73917e-11
-2.03896e-12
2.1459e-11
-2.11074e-12
2.58764e-11
-1.84008e-12
3.42001e-11
-1.42726e-12
3.96856e-11
-2.01542e-13
4.3725e-11
2.41488e-13
4.738e-11
6.55013e-13
5.02628e-11
1.43131e-12
5.3373e-11
2.16537e-12
5.65103e-11
3.09199e-12
5.87261e-11
3.58558e-12
6.51599e-11
3.77563e-12
7.07534e-11
2.69783e-12
7.31248e-11
1.36095e-12
7.58978e-11
-6.64044e-14
7.81229e-11
-2.07562e-12
8.07594e-11
-3.97726e-12
8.40152e-11
-5.00248e-12
8.64741e-11
-5.9775e-12
8.97275e-11
-6.29918e-12
9.10996e-11
-5.89079e-12
9.26289e-11
-4.09116e-12
9.37957e-11
-2.1383e-12
2.46242e-13
9.43045e-11
7.09944e-13
1.08546e-11
2.2314e-12
2.04492e-11
1.57786e-12
2.49755e-11
4.7825e-13
2.64084e-11
-1.45864e-12
2.51441e-11
-1.05987e-12
2.41255e-11
-3.15392e-12
2.18113e-11
3.89517e-13
2.08213e-11
2.0435e-12
1.87219e-11
2.46075e-12
1.71861e-11
3.01962e-12
1.48855e-11
3.41917e-12
1.36246e-11
4.82327e-12
1.18164e-11
5.97705e-12
9.69584e-12
7.49381e-12
7.69881e-12
1.05776e-11
5.25631e-12
1.47639e-11
2.66732e-12
1.74004e-11
6.72754e-13
2.07516e-11
-1.44443e-12
2.50566e-11
-3.71332e-12
2.9484e-11
-4.42813e-12
3.36546e-11
-5.21024e-12
3.89749e-11
-5.6781e-12
4.46007e-11
-6.3407e-12
5.47706e-11
-6.41074e-12
6.08335e-11
-2.56859e-12
6.54945e-11
-1.78268e-12
7.00177e-11
-9.19595e-13
7.32175e-11
4.3779e-13
7.69003e-11
1.8419e-12
8.01756e-11
2.76654e-12
8.28748e-11
3.10063e-12
8.90929e-11
2.97931e-12
9.52108e-11
2.24557e-12
9.80666e-11
5.62784e-13
1.00869e-10
-1.80179e-12
1.03581e-10
-3.71538e-12
1.07294e-10
-5.42355e-12
1.10707e-10
-7.33091e-12
1.13847e-10
-8.42403e-12
1.18077e-10
-8.61727e-12
1.20808e-10
-7.81003e-12
1.22618e-10
-5.80394e-12
1.2406e-10
-2.69866e-12
4.27424e-13
1.24317e-10
1.66392e-12
1.12e-11
3.39034e-12
2.11978e-11
3.87285e-12
2.76711e-11
2.27606e-12
2.78981e-11
2.14607e-12
2.77336e-11
2.14375e-12
2.72534e-11
1.83467e-12
2.49937e-11
4.20657e-12
2.34117e-11
6.53335e-12
2.09253e-11
6.62429e-12
1.80192e-11
8.44815e-12
1.62605e-11
9.39e-12
1.34634e-11
1.19578e-11
1.13501e-11
1.44693e-11
9.19055e-12
1.70813e-11
6.76992e-12
1.98653e-11
3.91701e-12
2.64563e-11
-4.82975e-13
2.96399e-11
-2.05772e-12
3.35433e-11
-3.70755e-12
3.9948e-11
-2.22294e-12
4.47014e-11
-1.76957e-12
4.96715e-11
-1.23193e-12
5.54465e-11
-3.28657e-13
6.24274e-11
1.55191e-12
7.70828e-11
3.87843e-12
8.08257e-11
-1.06834e-11
8.57182e-11
-7.89821e-12
9.10049e-11
-5.13975e-12
9.42415e-11
-2.7344e-12
9.79346e-11
-4.58674e-13
1.01078e-10
1.68822e-12
1.04246e-10
2.60641e-12
1.10618e-10
2.10358e-12
1.1647e-10
1.54457e-12
1.19555e-10
-1.17552e-12
1.2283e-10
-2.62117e-12
1.25585e-10
-5.16072e-12
1.28936e-10
-7.23646e-12
1.32748e-10
-9.0001e-12
1.36324e-10
-1.00607e-11
1.40996e-10
-1.0665e-11
1.4462e-10
-9.31967e-12
1.47142e-10
-6.94495e-12
1.48117e-10
-2.98197e-12
9.99269e-13
1.48049e-10
1.91836e-12
1.04571e-11
4.78236e-12
2.30451e-11
4.30896e-12
2.98948e-11
4.75749e-12
3.27241e-11
5.96067e-12
3.24356e-11
5.35933e-12
3.00272e-11
6.48586e-12
2.88589e-11
8.02004e-12
2.60626e-11
1.01237e-11
2.35586e-11
1.12962e-11
2.07116e-11
1.31466e-11
1.851e-11
1.58874e-11
1.59561e-11
1.95909e-11
1.28317e-11
2.28146e-11
9.31706e-12
2.6358e-11
4.73119e-12
2.88402e-11
5.14214e-13
3.83579e-11
3.95726e-12
4.17853e-11
1.63253e-12
5.00265e-11
8.40916e-13
5.56932e-11
-7.59648e-13
6.06606e-11
-2.28784e-12
6.63647e-11
-4.04323e-12
7.37396e-11
-5.2366e-12
8.11991e-11
-6.60838e-12
7.94355e-11
-6.09376e-12
1.00239e-10
-1.03339e-11
1.05264e-10
2.60853e-12
1.09987e-10
2.07147e-12
1.13149e-10
2.8845e-12
1.16857e-10
4.64161e-12
1.19248e-10
5.63353e-12
1.219e-10
6.66998e-12
1.29018e-10
5.63715e-12
1.33762e-10
2.3623e-12
1.38224e-10
2.56639e-12
1.40448e-10
1.58613e-12
1.43357e-10
-2.92151e-13
1.46317e-10
-2.587e-12
1.49761e-10
-4.94921e-12
1.52804e-10
-6.98319e-12
1.58434e-10
-8.10459e-12
1.62301e-10
-8.89549e-12
1.65333e-10
-2.79049e-12
1.65714e-10
2.98162e-12
8.7747e-12
1.64715e-10
2.58725e-12
1.09643e-11
4.62559e-12
2.45503e-11
5.68135e-12
3.33121e-11
6.40553e-12
3.54282e-11
7.06874e-12
3.45622e-11
9.08625e-12
3.45964e-11
9.44841e-12
3.22003e-11
1.18986e-11
2.98644e-11
1.39848e-11
2.68064e-11
1.68128e-11
2.4274e-11
1.91653e-11
2.05737e-11
2.23216e-11
1.74702e-11
2.66803e-11
1.41487e-11
3.08613e-11
1.02806e-11
3.42893e-11
6.58939e-12
4.53286e-11
3.03325e-12
4.90358e-11
-6.72874e-13
5.54784e-11
-1.03115e-12
6.22412e-11
-1.59785e-12
6.84392e-11
-3.11118e-12
7.3666e-11
-4.71299e-12
8.01571e-11
-5.80452e-12
8.75066e-11
-7.6379e-12
9.67648e-11
-1.02112e-11
8.99549e-11
-1.42683e-11
1.27247e-10
6.51997e-12
1.1857e-10
-5.99659e-12
1.24051e-10
-2.00529e-12
1.28413e-10
1.24557e-12
1.31142e-10
4.6121e-12
1.34371e-10
7.87276e-12
1.35742e-10
9.89465e-12
1.41465e-10
1.15367e-11
1.50321e-10
1.15358e-11
1.54021e-10
1.04876e-11
1.55279e-10
6.63991e-12
1.5696e-10
3.17139e-12
1.58784e-10
7.29943e-13
1.61254e-10
-1.19334e-12
1.63583e-10
-1.79348e-12
1.68214e-10
-2.41758e-12
1.77354e-10
3.9203e-14
1.78954e-10
3.50022e-12
1.78255e-10
6.75859e-12
1.06421e-11
1.78714e-10
2.67358e-12
1.11019e-11
3.7288e-12
2.35478e-11
5.37596e-12
3.31775e-11
6.52456e-12
3.56156e-11
9.44247e-12
3.54251e-11
1.08962e-11
3.21571e-11
1.22977e-11
3.05317e-11
1.49119e-11
2.81112e-11
1.90229e-11
2.60124e-11
2.1708e-11
2.2083e-11
2.56646e-11
1.87794e-11
2.99729e-11
1.51235e-11
3.46775e-11
1.10647e-11
3.92787e-11
7.4216e-12
4.35477e-11
3.42224e-12
5.49665e-11
-1.66951e-13
6.16987e-11
-2.40791e-12
6.77301e-11
-3.73095e-12
7.42433e-11
-4.63089e-12
8.06805e-11
-5.81484e-12
8.67689e-11
-7.46532e-12
9.28107e-11
-8.93058e-12
9.91715e-11
-1.02798e-11
1.06843e-10
-1.07745e-11
1.2324e-10
-1.14741e-11
1.26771e-10
-1.11421e-11
1.33312e-10
-7.56126e-12
1.38032e-10
-3.49998e-12
1.4209e-10
3.12765e-13
1.44799e-10
4.12008e-12
1.47598e-10
7.77007e-12
1.49167e-10
1.08962e-11
1.54372e-10
1.33614e-11
1.62837e-10
1.42278e-11
1.64153e-10
1.12423e-11
1.6527e-10
8.40756e-12
1.67281e-10
5.37622e-12
1.68222e-10
2.43953e-12
1.7028e-10
9.47961e-13
1.70645e-10
3.76089e-13
1.76713e-10
1.50227e-12
1.85168e-10
4.99196e-12
1.84986e-10
7.42074e-12
1.83692e-10
1.15174e-11
1.66559e-11
1.82981e-10
2.01321e-12
1.08606e-11
2.63694e-12
2.28303e-11
4.71132e-12
3.38043e-11
6.76912e-12
3.55804e-11
8.02722e-12
3.28061e-11
1.20423e-11
3.11851e-11
1.42131e-11
2.82806e-11
1.89405e-11
2.54335e-11
2.22365e-11
2.26204e-11
2.74188e-11
2.00231e-11
3.23609e-11
1.66039e-11
3.72126e-11
1.24861e-11
4.30926e-11
8.82162e-12
4.76256e-11
4.92695e-12
5.2844e-11
1.08295e-12
6.45273e-11
-2.09324e-12
7.36523e-11
-4.8329e-12
7.97792e-11
-5.69719e-12
8.63164e-11
-6.94524e-12
9.26719e-11
-8.51447e-12
9.92465e-11
-1.04593e-11
1.05486e-10
-1.26291e-11
1.12391e-10
-1.42785e-11
1.18972e-10
-1.44864e-11
1.35256e-10
-1.38339e-11
1.40462e-10
-1.31127e-11
1.46514e-10
-9.13527e-12
1.50347e-10
-5.46355e-12
1.54003e-10
-1.18849e-12
1.56957e-10
3.37744e-12
1.59388e-10
7.47524e-12
1.61415e-10
1.09882e-11
1.65925e-10
1.37346e-11
1.71033e-10
1.44813e-11
1.72949e-10
1.2415e-11
1.73527e-10
9.40415e-12
1.74622e-10
6.68159e-12
1.75512e-10
4.79184e-12
1.76483e-10
3.87682e-12
1.7666e-10
4.21476e-12
1.82935e-10
6.30628e-12
1.88547e-10
8.4469e-12
1.88217e-10
1.14809e-11
1.86776e-10
1.53637e-11
2.04096e-11
1.85365e-10
7.32092e-13
1.00601e-11
2.45301e-12
2.29748e-11
3.54807e-12
3.32912e-11
4.56312e-12
3.36698e-11
8.05865e-12
3.24801e-11
1.19845e-11
2.85003e-11
1.53272e-11
2.50175e-11
2.12386e-11
2.17731e-11
2.67825e-11
1.88214e-11
3.25418e-11
1.62982e-11
3.81023e-11
1.2582e-11
4.42001e-11
9.39308e-12
5.04916e-11
6.30571e-12
5.54357e-11
2.4923e-12
6.16809e-11
-6.08809e-13
7.43742e-11
-3.48359e-12
8.5353e-11
-6.62358e-12
9.13773e-11
-7.99048e-12
9.79256e-11
-9.37833e-12
1.04323e-10
-1.07558e-11
1.10894e-10
-1.24664e-11
1.17588e-10
-1.5084e-11
1.25426e-10
-1.82731e-11
1.31638e-10
-1.80301e-11
1.46674e-10
-1.63197e-11
1.53461e-10
-1.47101e-11
1.58312e-10
-1.10507e-11
1.61837e-10
-7.00858e-12
1.65534e-10
-2.41645e-12
1.68017e-10
1.88943e-12
1.70294e-10
6.35223e-12
1.72246e-10
1.03901e-11
1.75456e-10
1.36835e-11
1.78669e-10
1.44667e-11
1.79766e-10
1.288e-11
1.80287e-10
1.10722e-11
1.8113e-10
9.11423e-12
1.81413e-10
7.45578e-12
1.8169e-10
7.37915e-12
1.81589e-10
8.33071e-12
1.85924e-10
1.10972e-11
1.90662e-10
1.34287e-11
1.89305e-10
1.61539e-11
1.87702e-10
2.0345e-11
2.49636e-11
1.85989e-10
6.02782e-13
1.03027e-11
1.51205e-12
2.24282e-11
1.5115e-12
3.19041e-11
4.54859e-12
3.37368e-11
6.61388e-12
3.01613e-11
1.15671e-11
2.60992e-11
1.6204e-11
2.16892e-11
2.35863e-11
1.7816e-11
3.05798e-11
1.41958e-11
3.63428e-11
1.12295e-11
4.36721e-11
8.73538e-12
5.05776e-11
6.23503e-12
5.68541e-11
3.05226e-12
6.32742e-11
4.15782e-13
7.0047e-11
-1.8095e-12
8.33567e-11
-4.82878e-12
9.60629e-11
-8.35524e-12
1.0263e-10
-9.59255e-12
1.09561e-10
-1.08223e-11
1.16201e-10
-1.23382e-11
1.2203e-10
-1.42423e-11
1.27982e-10
-1.69598e-11
1.38578e-10
-1.65153e-11
1.45158e-10
-1.59468e-11
1.58347e-10
-1.49734e-11
1.65763e-10
-1.47928e-11
1.69785e-10
-1.22618e-11
1.72876e-10
-8.90724e-12
1.75884e-10
-4.89399e-12
1.78482e-10
-5.36362e-13
1.80599e-10
4.09351e-12
1.82439e-10
8.35775e-12
1.83796e-10
1.24787e-11
1.85317e-10
1.36337e-11
1.86375e-10
1.3109e-11
1.86283e-10
1.2007e-11
1.86362e-10
1.0291e-11
1.86668e-10
9.5335e-12
1.8614e-10
1.01725e-11
1.86015e-10
1.18968e-11
1.88282e-10
1.50829e-11
1.91542e-10
1.82116e-11
1.90116e-10
2.10835e-11
1.8771e-10
2.44535e-11
2.9347e-11
1.85887e-10
-4.38569e-13
9.86377e-12
1.4651e-13
2.25004e-11
1.87522e-12
3.23346e-11
3.40201e-12
3.22326e-11
6.41624e-12
2.77206e-11
1.16141e-11
2.30942e-11
1.72533e-11
1.75847e-11
2.5128e-11
1.30451e-11
3.3272e-11
9.08299e-12
4.04349e-11
5.93787e-12
4.8391e-11
3.35406e-12
5.5436e-11
1.35687e-12
6.31071e-11
-8.6455e-14
7.09898e-11
-1.73572e-12
7.74802e-11
-3.48909e-12
9.09319e-11
-4.63117e-12
1.0638e-10
-4.52785e-12
1.13713e-10
-4.99862e-12
1.21017e-10
-5.86374e-12
1.27842e-10
-7.42612e-12
1.33107e-10
-9.1883e-12
1.41888e-10
-9.67398e-12
1.51917e-10
-9.29393e-12
1.57487e-10
-1.1731e-11
1.68507e-10
-1.27717e-11
1.76706e-10
-1.43258e-11
1.80006e-10
-1.32498e-11
1.82792e-10
-1.07834e-11
1.85679e-10
-7.22182e-12
1.88431e-10
-3.35616e-12
1.90285e-10
8.75587e-13
1.92377e-10
5.64388e-12
1.91541e-10
1.01294e-11
1.9169e-10
1.19505e-11
1.92076e-10
1.2355e-11
1.91282e-10
1.25338e-11
1.913e-10
1.17252e-11
1.91548e-10
1.15491e-11
1.90629e-10
1.24341e-11
1.90173e-10
1.50636e-11
1.90765e-10
1.82119e-11
1.92512e-10
2.21577e-11
1.90426e-10
2.50571e-11
1.87993e-10
2.87085e-11
3.30401e-11
1.8531e-10
-9.83492e-13
1.17183e-11
-6.35262e-13
2.48724e-11
1.47753e-12
3.54017e-11
3.35174e-12
3.51767e-11
7.7093e-12
2.96242e-11
1.24406e-11
2.16863e-11
1.89639e-11
1.48888e-11
2.70446e-11
7.68163e-12
3.55732e-11
3.25958e-12
4.31292e-11
5.35455e-13
5.2353e-11
9.42365e-13
6.06771e-11
7.95424e-13
6.90989e-11
4.94729e-13
7.7799e-11
-2.62807e-14
8.61537e-11
-4.65038e-13
1.01263e-10
-9.23432e-13
1.16874e-10
5.94026e-13
1.24544e-10
4.20439e-14
1.32394e-10
-1.41214e-12
1.39596e-10
-4.12615e-12
1.46357e-10
-6.76309e-12
1.55462e-10
-8.52521e-12
1.61896e-10
-1.19285e-11
1.67571e-10
-1.39917e-11
1.76517e-10
-1.45822e-11
1.85736e-10
-1.54611e-11
1.89236e-10
-1.56384e-11
1.92242e-10
-1.5538e-11
1.94657e-10
-1.35316e-11
1.97459e-10
-1.0317e-11
1.99761e-10
-7.19379e-12
2.01704e-10
-2.61148e-12
1.9824e-10
2.8025e-12
1.97557e-10
8.06397e-12
1.98032e-10
9.43268e-12
1.95701e-10
9.22618e-12
1.95583e-10
9.79348e-12
1.95844e-10
1.14715e-11
1.95195e-10
1.37517e-11
1.9393e-10
1.74916e-11
1.94484e-10
2.15161e-11
1.93723e-10
2.59613e-11
1.91013e-10
2.87302e-11
1.88426e-10
2.99058e-11
3.28149e-11
1.85359e-10
-4.16054e-13
1.4275e-11
-4.49714e-13
2.85638e-11
2.75606e-12
3.94256e-11
4.37721e-12
3.70433e-11
8.15953e-12
2.90865e-11
1.44213e-11
2.06339e-11
1.99004e-11
1.16496e-11
2.92567e-11
4.81424e-12
3.79643e-11
-2.821e-13
4.8867e-11
-6.29371e-13
5.72243e-11
-1.20459e-12
6.59141e-11
-5.85357e-13
7.52531e-11
2.25179e-13
8.51249e-11
1.18443e-12
9.45583e-11
1.39596e-12
1.12246e-10
1.73972e-12
1.26761e-10
-8.2726e-13
1.34534e-10
-2.7241e-12
1.42128e-10
-5.10611e-12
1.50125e-10
-7.46633e-12
1.57805e-10
-1.02771e-11
1.64841e-10
-1.29688e-11
1.7162e-10
-1.56806e-11
1.77682e-10
-1.70578e-11
1.85052e-10
-1.80032e-11
1.93663e-10
-1.96307e-11
1.96135e-10
-2.08449e-11
1.99988e-10
-1.94609e-11
2.0302e-10
-1.84493e-11
2.05075e-10
-1.68656e-11
2.08147e-10
-1.34721e-11
2.10827e-10
-1.08163e-11
2.07571e-10
-7.43806e-12
2.02697e-10
-3.15388e-12
2.01386e-10
-5.46585e-13
1.99842e-10
2.13594e-12
2.00398e-10
7.37973e-12
2.00277e-10
1.19776e-11
2.00349e-10
1.67459e-11
1.98445e-10
2.03351e-11
1.97994e-10
2.51519e-11
1.95357e-10
2.59996e-11
1.90514e-10
2.79206e-11
1.88298e-10
3.18601e-11
3.57448e-11
1.85497e-10
-2.8831e-13
1.61691e-11
1.02876e-12
2.97604e-11
3.25816e-12
3.94262e-11
5.66136e-12
3.51344e-11
1.06321e-11
2.64793e-11
1.64426e-11
1.59931e-11
2.27056e-11
6.97119e-12
3.21457e-11
-4.65113e-13
4.3588e-11
-4.58002e-12
5.29643e-11
-6.3937e-12
6.25045e-11
-7.41788e-12
7.18913e-11
-7.09925e-12
8.21626e-11
-6.41574e-12
9.24765e-11
-5.58421e-12
1.03128e-10
-4.89048e-12
1.18889e-10
-4.32945e-12
1.3449e-10
-5.59591e-12
1.42942e-10
-8.13503e-12
1.51551e-10
-1.03298e-11
1.59549e-10
-1.22877e-11
1.67375e-10
-1.51017e-11
1.74001e-10
-1.79204e-11
1.81358e-10
-1.94879e-11
1.87127e-10
-2.08925e-11
1.92522e-10
-2.13835e-11
2.00232e-10
-2.16389e-11
2.0426e-10
-2.31206e-11
2.06815e-10
-2.37421e-11
2.09561e-10
-2.30402e-11
2.12345e-10
-2.15673e-11
2.14385e-10
-1.99626e-11
2.17108e-10
-1.71988e-11
2.14127e-10
-1.41073e-11
2.07427e-10
-1.12856e-11
2.06309e-10
-6.38977e-12
2.06708e-10
-3.01948e-13
2.06325e-10
5.41561e-12
2.06134e-10
1.09807e-11
2.04306e-10
1.56477e-11
2.03292e-10
2.02148e-11
1.99131e-10
2.45325e-11
1.96641e-10
2.80352e-11
1.92555e-10
3.00855e-11
1.90076e-10
3.27249e-11
3.6051e-11
1.86453e-10
-3.7203e-13
1.68249e-11
1.65256e-12
2.97391e-11
4.12036e-12
3.85288e-11
8.23373e-12
3.38619e-11
1.30116e-11
2.30693e-11
1.98193e-11
1.23423e-11
2.61761e-11
2.23478e-12
3.67607e-11
-5.42421e-12
4.83094e-11
-1.02898e-11
5.72665e-11
-1.31297e-11
6.76572e-11
-1.37705e-11
7.77276e-11
-1.40188e-11
8.88318e-11
-1.37041e-11
9.99178e-11
-1.32131e-11
1.11254e-10
-1.25243e-11
1.26058e-10
-1.1658e-11
1.41031e-10
-1.28538e-11
1.50555e-10
-1.46981e-11
1.60165e-10
-1.64506e-11
1.67684e-10
-1.90182e-11
1.75442e-10
-2.09027e-11
1.82985e-10
-2.26826e-11
1.89967e-10
-2.42798e-11
1.95815e-10
-2.555e-11
2.00543e-10
-2.6366e-11
2.06045e-10
-2.7472e-11
2.0985e-10
-2.81543e-11
2.12853e-10
-2.8536e-11
2.15456e-10
-2.83158e-11
2.17657e-10
-2.78592e-11
2.19988e-10
-2.58064e-11
2.22264e-10
-2.34876e-11
2.18438e-10
-2.01657e-11
2.1305e-10
-1.59514e-11
2.12476e-10
-1.0026e-11
2.12645e-10
-3.18252e-12
2.12196e-10
3.30006e-12
2.11143e-10
8.7555e-12
2.09417e-10
1.45477e-11
2.08031e-10
1.98632e-11
2.02603e-10
2.46074e-11
1.98509e-10
2.71569e-11
1.94803e-10
3.0373e-11
1.91787e-10
3.41517e-11
3.73971e-11
1.87775e-10
-1.35037e-13
1.78691e-11
2.35199e-12
2.96143e-11
5.88087e-12
3.73257e-11
1.01813e-11
3.08384e-11
1.63739e-11
1.96566e-11
2.30396e-11
7.47832e-12
3.03379e-11
-3.15378e-12
4.12142e-11
-1.12436e-11
5.2859e-11
-1.64313e-11
6.26323e-11
-1.93003e-11
7.27312e-11
-2.11123e-11
8.34694e-11
-2.21419e-11
9.51533e-11
-2.16925e-11
1.07033e-10
-2.17483e-11
1.19425e-10
-2.15051e-11
1.32219e-10
-2.14426e-11
1.47043e-10
-2.18733e-11
1.57237e-10
-2.35279e-11
1.66576e-10
-2.43944e-11
1.74954e-10
-2.59126e-11
1.82766e-10
-2.74069e-11
1.90247e-10
-2.87709e-11
1.97087e-10
-3.00538e-11
2.02796e-10
-3.10977e-11
2.06519e-10
-3.20994e-11
2.11462e-10
-3.22036e-11
2.14897e-10
-3.31662e-11
2.18043e-10
-3.35567e-11
2.19882e-10
-3.38854e-11
2.22885e-10
-3.26572e-11
2.24438e-10
-3.11036e-11
2.26854e-10
-2.90327e-11
2.22556e-10
-2.56894e-11
2.18378e-10
-2.07327e-11
2.18395e-10
-1.37084e-11
2.18337e-10
-6.67329e-12
2.17108e-10
-3.05941e-14
2.16925e-10
7.33723e-12
2.15189e-10
1.26955e-11
2.13588e-10
1.80252e-11
2.06223e-10
2.38747e-11
2.02245e-10
2.73274e-11
1.98119e-10
3.07221e-11
1.93965e-10
3.43224e-11
3.76387e-11
1.89837e-10
-2.8708e-13
1.89633e-11
3.18483e-12
2.94289e-11
6.96685e-12
3.58705e-11
1.28627e-11
2.79783e-11
1.91054e-11
1.55005e-11
2.64119e-11
2.98664e-12
3.43812e-11
-8.24439e-12
4.64357e-11
-1.72454e-11
5.80073e-11
-2.29875e-11
6.73952e-11
-2.71106e-11
7.75506e-11
-2.92195e-11
8.96878e-11
-3.0473e-11
1.01067e-10
-3.11284e-11
1.13468e-10
-3.09551e-11
1.25893e-10
-3.08717e-11
1.38586e-10
-3.11842e-11
1.52004e-10
-3.13714e-11
1.62926e-10
-3.14454e-11
1.71893e-10
-3.24345e-11
1.80527e-10
-3.24877e-11
1.88372e-10
-3.30493e-11
1.95755e-10
-3.35248e-11
2.02631e-10
-3.42845e-11
2.07937e-10
-3.56047e-11
2.11994e-10
-3.59722e-11
2.15621e-10
-3.88088e-11
2.19065e-10
-3.88004e-11
2.21558e-10
-3.8882e-11
2.2429e-10
-3.84698e-11
2.268e-10
-3.74577e-11
2.27964e-10
-3.61384e-11
2.30438e-10
-3.35424e-11
2.26767e-10
-3.06383e-11
2.23747e-10
-2.49934e-11
2.23514e-10
-1.78646e-11
2.23224e-10
-9.63046e-12
2.23405e-10
-1.62586e-12
2.21989e-10
4.5206e-12
2.20802e-10
1.06458e-11
2.20422e-10
1.65361e-11
2.11059e-10
2.17755e-11
2.06362e-10
2.79674e-11
2.02161e-10
2.97058e-11
1.97005e-10
3.38175e-11
3.82361e-11
1.92644e-10
-4.10589e-13
2.09076e-11
3.7008e-12
2.99717e-11
8.2589e-12
3.40968e-11
1.49664e-11
2.46363e-11
2.19753e-11
1.12776e-11
2.97805e-11
-2.11719e-12
3.82039e-11
-1.36384e-11
5.04355e-11
-2.25998e-11
6.26113e-11
-3.01656e-11
7.26004e-11
-3.48192e-11
8.35573e-11
-3.8254e-11
9.50541e-11
-4.03903e-11
1.06914e-10
-4.12935e-11
1.19613e-10
-4.09455e-11
1.31338e-10
-4.12785e-11
1.43411e-10
-4.17714e-11
1.56893e-10
-4.09779e-11
1.6704e-10
-4.00771e-11
1.76639e-10
-3.94585e-11
1.84631e-10
-3.90465e-11
1.92535e-10
-3.88741e-11
1.99622e-10
-3.94848e-11
2.05826e-10
-4.05869e-11
2.11978e-10
-4.16939e-11
2.13129e-10
-4.28309e-11
2.19017e-10
-4.34871e-11
2.22013e-10
-4.36241e-11
2.24631e-10
-4.34316e-11
2.27366e-10
-4.26897e-11
2.29291e-10
-4.16349e-11
2.31159e-10
-4.03231e-11
2.32863e-10
-3.77332e-11
2.31196e-10
-3.44383e-11
2.28638e-10
-2.88371e-11
2.29418e-10
-2.10085e-11
2.2911e-10
-1.27664e-11
2.28206e-10
-5.39006e-12
2.2743e-10
1.53309e-12
2.27256e-10
8.01637e-12
2.26579e-10
1.46956e-11
2.17214e-10
1.97441e-11
2.11147e-10
2.82985e-11
2.07137e-10
3.18948e-11
2.01803e-10
3.3514e-11
3.76451e-11
1.96698e-10
-2.28067e-13
2.39042e-11
3.12151e-12
3.02726e-11
7.95799e-12
3.2698e-11
1.65748e-11
2.38636e-11
2.4489e-11
9.41054e-12
3.26012e-11
-4.50057e-12
4.22018e-11
-1.75051e-11
5.48794e-11
-2.88667e-11
6.72882e-11
-3.66411e-11
7.69118e-11
-4.19113e-11
8.7565e-11
-4.69361e-11
1.00247e-10
-4.99703e-11
1.13052e-10
-5.12503e-11
1.24322e-10
-5.14322e-11
1.35566e-10
-5.15602e-11
1.48551e-10
-5.17033e-11
1.61252e-10
-4.91723e-11
1.70356e-10
-4.83876e-11
1.79839e-10
-4.75593e-11
1.87496e-10
-4.66509e-11
1.9443e-10
-4.61284e-11
2.00968e-10
-4.62922e-11
2.07246e-10
-4.62451e-11
2.13285e-10
-4.71642e-11
2.14633e-10
-4.89856e-11
2.20586e-10
-4.86636e-11
2.23514e-10
-4.82939e-11
2.26132e-10
-4.74704e-11
2.28952e-10
-4.5047e-11
2.30909e-10
-4.4124e-11
2.33492e-10
-4.2037e-11
2.35388e-10
-3.97913e-11
2.34994e-10
-3.6547e-11
2.34358e-10
-3.19067e-11
2.35283e-10
-2.42199e-11
2.34472e-10
-1.79539e-11
2.3385e-10
-1.12163e-11
2.3359e-10
-4.09654e-12
2.34232e-10
3.20909e-12
2.3335e-10
8.23902e-12
2.31953e-10
1.28203e-11
2.10992e-10
1.78442e-11
2.10505e-10
2.9126e-11
2.07677e-10
3.32883e-11
3.75462e-11
2.02506e-10
-3.15614e-13
2.83635e-11
2.52678e-12
3.12323e-11
9.14622e-12
3.48204e-11
1.85077e-11
2.49982e-11
2.52357e-11
8.85506e-12
3.54114e-11
-5.81105e-12
4.43051e-11
-1.93388e-11
5.83555e-11
-3.12855e-11
7.06886e-11
-4.35906e-11
8.07935e-11
-5.17146e-11
9.15878e-11
-5.5726e-11
1.04893e-10
-5.71848e-11
1.17156e-10
-5.83539e-11
1.29074e-10
-6.01718e-11
1.39213e-10
-6.00983e-11
1.53654e-10
-5.82805e-11
1.63907e-10
-5.82234e-11
1.72863e-10
-5.65139e-11
1.81541e-10
-5.48311e-11
1.88625e-10
-5.37039e-11
1.94809e-10
-5.31849e-11
2.01563e-10
-5.24108e-11
2.07015e-10
-5.23355e-11
2.12059e-10
-5.29033e-11
2.15152e-10
-5.30413e-11
2.20533e-10
-5.01934e-11
2.23782e-10
-4.93223e-11
2.28142e-10
-4.87931e-11
2.29253e-10
-4.84638e-11
2.32231e-10
-4.62939e-11
2.34701e-10
-4.52693e-11
2.37562e-10
-4.29734e-11
2.38051e-10
-4.05273e-11
2.40191e-10
-3.53255e-11
2.3951e-10
-2.98594e-11
2.39789e-10
-2.41907e-11
2.39966e-10
-1.69047e-11
2.40687e-10
-9.01166e-12
2.39678e-10
-1.982e-12
2.37875e-10
5.23645e-12
2.35415e-10
1.07389e-11
2.3015e-10
1.67058e-11
2.16808e-10
2.36257e-11
2.14174e-10
2.96527e-11
3.2357e-11
2.10672e-10
2.2191e-13
3.27322e-11
4.37186e-12
3.23682e-11
1.08934e-11
3.17984e-11
1.79554e-11
1.88484e-11
2.74079e-11
3.04655e-12
3.64433e-11
-1.35477e-11
4.62285e-11
-2.88312e-11
5.78478e-11
-4.10053e-11
7.28908e-11
-4.98845e-11
8.3881e-11
-5.80363e-11
9.65823e-11
-6.35066e-11
1.08796e-10
-6.79824e-11
1.20302e-10
-7.02144e-11
1.32434e-10
-7.07456e-11
1.43549e-10
-7.01714e-11
1.55445e-10
-6.85365e-11
1.66107e-10
-6.69434e-11
1.74191e-10
-6.47356e-11
1.82022e-10
-6.29382e-11
1.88208e-10
-6.14092e-11
1.9435e-10
-5.97127e-11
2.00356e-10
-5.82587e-11
2.05287e-10
-5.76347e-11
2.10664e-10
-5.67727e-11
2.16271e-10
-5.65478e-11
2.1952e-10
-5.57017e-11
2.22449e-10
-5.38544e-11
2.26857e-10
-5.2387e-11
2.30027e-10
-5.11934e-11
2.32103e-10
-5.03183e-11
2.35983e-10
-4.80623e-11
2.38656e-10
-4.62077e-11
2.41928e-10
-4.39089e-11
2.44417e-10
-3.93697e-11
2.44409e-10
-3.39765e-11
2.4643e-10
-2.66443e-11
2.47886e-10
-1.92659e-11
2.48274e-10
-1.20739e-11
2.48213e-10
-3.97469e-12
2.46951e-10
2.99255e-12
2.44091e-10
1.01501e-11
2.36558e-10
1.63605e-11
2.27407e-10
2.20698e-11
2.21718e-10
2.72124e-11
3.17133e-11
2.15164e-10
8.96311e-13
3.24529e-11
4.38421e-12
2.89403e-11
1.11729e-11
2.694e-11
1.86919e-11
1.30819e-11
2.75903e-11
-4.64478e-12
3.69795e-11
-2.2174e-11
4.79744e-11
-3.74173e-11
5.96342e-11
-5.08061e-11
7.38752e-11
-6.16734e-11
8.56908e-11
-6.95494e-11
9.86189e-11
-7.53193e-11
1.10617e-10
-7.90409e-11
1.22401e-10
-8.09625e-11
1.34849e-10
-8.07365e-11
1.46181e-10
-7.98954e-11
1.56655e-10
-7.83302e-11
1.67608e-10
-7.57864e-11
1.74387e-10
-7.35992e-11
1.8158e-10
-7.06219e-11
1.87579e-10
-6.85421e-11
1.93085e-10
-6.64485e-11
1.98422e-10
-6.4176e-11
2.03624e-10
-6.24194e-11
2.08322e-10
-6.16013e-11
2.1433e-10
-6.02032e-11
2.1859e-10
-5.83563e-11
2.21557e-10
-5.60475e-11
2.26422e-10
-5.40144e-11
2.29607e-10
-5.33195e-11
2.33146e-10
-5.28165e-11
2.36738e-10
-5.11011e-11
2.40003e-10
-4.9103e-11
2.46018e-10
-4.60195e-11
2.49594e-10
-4.18558e-11
2.52e-10
-3.59285e-11
2.54484e-10
-2.88202e-11
2.56064e-10
-2.15449e-11
2.57584e-10
-1.35102e-11
2.56806e-10
-5.89449e-12
2.55708e-10
1.89034e-12
2.53406e-10
1.01592e-11
2.467e-10
1.72108e-11
2.37472e-10
2.34301e-11
2.31739e-10
2.97002e-11
3.60325e-11
2.2531e-10
9.27874e-13
3.21463e-11
5.07443e-12
2.68165e-11
1.07967e-11
2.22485e-11
1.86281e-11
6.63844e-12
2.74193e-11
-1.24438e-11
3.76081e-11
-3.08342e-11
4.81137e-11
-4.78184e-11
6.05446e-11
-6.16373e-11
7.41614e-11
-7.26146e-11
8.61846e-11
-8.02874e-11
9.82789e-11
-8.6396e-11
1.11063e-10
-9.01012e-11
1.23698e-10
-9.13184e-11
1.3567e-10
-9.12227e-11
1.46955e-10
-8.97034e-11
1.57508e-10
-8.71912e-11
1.67151e-10
-8.55762e-11
1.74497e-10
-8.1405e-11
1.80469e-10
-7.70757e-11
1.86176e-10
-7.39248e-11
1.9187e-10
-7.11673e-11
1.96766e-10
-6.85719e-11
2.01412e-10
-6.60647e-11
2.06934e-10
-6.39305e-11
2.13419e-10
-6.23441e-11
2.18433e-10
-6.11865e-11
2.21831e-10
-5.88314e-11
2.2592e-10
-5.76102e-11
2.29475e-10
-5.7129e-11
2.34438e-10
-5.52734e-11
2.38435e-10
-5.43213e-11
2.43061e-10
-5.19238e-11
2.50542e-10
-4.87893e-11
2.56727e-10
-4.41599e-11
2.60728e-10
-3.75852e-11
2.63571e-10
-3.10158e-11
2.66071e-10
-2.33034e-11
2.67236e-10
-1.57e-11
2.66776e-10
-7.60185e-12
2.66709e-10
1.74134e-12
2.64344e-10
1.0314e-11
2.57901e-10
1.85391e-11
2.50059e-10
2.63364e-11
2.44834e-10
3.34238e-11
4.03807e-11
2.37906e-10
1.98759e-12
3.15525e-11
4.98176e-12
2.29469e-11
1.05965e-11
1.63504e-11
1.83769e-11
-7.40808e-13
2.72552e-11
-2.07284e-11
3.68624e-11
-4.1143e-11
4.78878e-11
-5.8279e-11
5.9659e-11
-7.23954e-11
7.34989e-11
-8.36752e-11
8.46066e-11
-9.23727e-11
9.69941e-11
-9.81267e-11
1.10325e-10
-1.01025e-10
1.22648e-10
-1.02111e-10
1.35219e-10
-1.01481e-10
1.46676e-10
-9.96119e-11
1.55536e-10
-9.7446e-11
1.66862e-10
-9.18349e-11
1.74212e-10
-8.78621e-11
1.79271e-10
-8.42149e-11
1.84723e-10
-8.08669e-11
1.90671e-10
-7.67579e-11
1.96068e-10
-7.36508e-11
2.01038e-10
-7.07191e-11
2.06364e-10
-6.74644e-11
2.12821e-10
-6.51354e-11
2.19545e-10
-6.37286e-11
2.22408e-10
-6.25903e-11
2.26444e-10
-6.13736e-11
2.31929e-10
-5.98385e-11
2.36263e-10
-5.90623e-11
2.41972e-10
-5.68802e-11
2.47621e-10
-5.41445e-11
2.57193e-10
-5.13946e-11
2.65766e-10
-4.70915e-11
2.70041e-10
-4.05355e-11
2.74181e-10
-3.34703e-11
2.76583e-10
-2.57476e-11
2.783e-10
-1.74022e-11
2.7939e-10
-8.49908e-12
2.79188e-10
1.3475e-12
2.77412e-10
1.09479e-11
2.71769e-10
2.02781e-11
2.64331e-10
2.8224e-11
2.59444e-10
3.71854e-11
4.50587e-11
2.52625e-10
1.87951e-12
2.9136e-11
5.11645e-12
1.86598e-11
1.07051e-11
9.53745e-12
1.8458e-11
-9.89796e-12
2.58925e-11
-3.06591e-11
3.63218e-11
-5.15395e-11
4.70194e-11
-6.95309e-11
5.79789e-11
-8.3617e-11
7.05982e-11
-9.46745e-11
8.17639e-11
-1.03671e-10
9.46487e-11
-1.08689e-10
1.075e-10
-1.12254e-10
1.20241e-10
-1.13907e-10
1.33041e-10
-1.12224e-10
1.44067e-10
-1.09659e-10
1.55525e-10
-1.06117e-10
1.64548e-10
-1.01331e-10
1.7199e-10
-9.66019e-11
1.77414e-10
-9.23211e-11
1.84351e-10
-8.75282e-11
1.90314e-10
-8.37636e-11
1.96535e-10
-7.94262e-11
2.02719e-10
-7.5943e-11
2.07943e-10
-7.29746e-11
2.14047e-10
-6.96537e-11
2.21165e-10
-6.76895e-11
2.24732e-10
-6.71359e-11
2.29753e-10
-6.57213e-11
2.35076e-10
-6.45376e-11
2.41277e-10
-6.27394e-11
2.47851e-10
-6.02066e-11
2.53798e-10
-5.81683e-11