/*--------------------------------*- C++ -*----------------------------------*\
  =========                 |
  \\      /  F ield         | OpenFOAM: The Open Source CFD Toolbox
   \\    /   O peration     | Website:  https://openfoam.org
    \\  /    A nd           | Version:  7
     \\/     M anipulation  |
\*---------------------------------------------------------------------------*/
FoamFile
{
    version     2.0;
    format      ascii;
    class       volVectorField;
    location    "0.4";
    object      U;
}
// * * * * * * * * * * * * * * * * * * * * * * * * * * * * * * * * * * * * * //

dimensions      [0 1 -1 0 0 0 0];

internalField   nonuniform List<vector> 
11050
(
(-1.18657e-10 -1.85285e-12 0)
(1.45881e-10 5.18466e-10 0)
(-6.31148e-11 6.34219e-10 0)
(-5.84147e-10 6.68037e-10 0)
(-8.79027e-10 7.33756e-10 0)
(-9.334e-10 7.83737e-10 0)
(-1.19642e-09 7.1927e-10 0)
(-5.59128e-10 8.01277e-10 0)
(1.13267e-09 5.65545e-10 0)
(1.60342e-09 5.50314e-10 0)
(1.25647e-09 6.17354e-10 0)
(1.02039e-09 4.78276e-10 0)
(7.2052e-10 5.13484e-10 0)
(3.05261e-10 4.51671e-10 0)
(-2.82151e-10 3.49956e-10 0)
(-2.22811e-10 2.97835e-10 0)
(4.38921e-10 2.04798e-10 0)
(5.66109e-10 8.53893e-11 0)
(4.82663e-10 1.44533e-10 0)
(6.57991e-10 8.5128e-11 0)
(8.5169e-10 1.44387e-10 0)
(9.73496e-10 1.44673e-10 0)
(8.56032e-10 1.82612e-10 0)
(7.51599e-10 3.86459e-10 0)
(1.38138e-09 5.16886e-10 0)
(2.41557e-09 5.01115e-10 0)
(2.76369e-09 3.80586e-10 0)
(2.60999e-09 4.47481e-10 0)
(2.52476e-09 3.7323e-10 0)
(2.58597e-09 4.10532e-10 0)
(2.63064e-09 3.77375e-10 0)
(2.59385e-09 3.97298e-10 0)
(3.54819e-09 4.43116e-10 0)
(5.09552e-09 3.2999e-10 0)
(5.78188e-09 4.13177e-10 0)
(5.98172e-09 4.80131e-10 0)
(6.09157e-09 3.17842e-10 0)
(6.00884e-09 2.04908e-10 0)
(5.89928e-09 1.12855e-10 0)
(5.97678e-09 3.97811e-11 0)
(5.4387e-09 -1.15606e-10 0)
(4.59211e-09 -5.53523e-11 0)
(4.30149e-09 -3.83619e-11 0)
(4.13719e-09 8.37727e-11 0)
(3.95812e-09 9.38182e-11 0)
(-1.12219e-10 9.99661e-10 0)
(-4.12494e-10 2.40675e-09 0)
(-1.35044e-09 2.90949e-09 0)
(-2.43626e-09 3.11795e-09 0)
(-3.46e-09 3.09658e-09 0)
(-4.4367e-09 3.01541e-09 0)
(-5.45179e-09 2.8179e-09 0)
(-5.3708e-09 2.59616e-09 0)
(-3.78274e-09 2.33069e-09 0)
(-3.33041e-09 2.06881e-09 0)
(-4.17923e-09 1.9337e-09 0)
(-4.60445e-09 1.87039e-09 0)
(-4.95887e-09 1.8966e-09 0)
(-5.57937e-09 1.66341e-09 0)
(-6.21241e-09 1.38761e-09 0)
(-6.37372e-09 1.2467e-09 0)
(-5.78303e-09 9.92669e-10 0)
(-5.32427e-09 6.68436e-10 0)
(-5.2177e-09 5.02379e-10 0)
(-4.81326e-09 4.11073e-10 0)
(-4.3063e-09 3.55791e-10 0)
(-3.80919e-09 3.34838e-10 0)
(-3.31419e-09 4.85487e-10 0)
(-2.87092e-09 8.61769e-10 0)
(-1.19305e-09 1.14792e-09 0)
(1.07637e-09 1.13259e-09 0)
(2.36021e-09 1.06093e-09 0)
(2.9278e-09 1.09457e-09 0)
(3.50129e-09 1.13238e-09 0)
(4.29719e-09 1.13948e-09 0)
(4.94195e-09 1.09347e-09 0)
(5.6592e-09 1.19441e-09 0)
(7.08773e-09 1.14874e-09 0)
(9.38258e-09 9.38442e-10 0)
(1.08847e-08 9.04919e-10 0)
(1.12834e-08 7.81836e-10 0)
(1.16362e-08 5.27316e-10 0)
(1.1945e-08 1.4234e-10 0)
(1.2275e-08 -1.49071e-10 0)
(1.26999e-08 -3.52467e-10 0)
(1.26842e-08 -8.07256e-10 0)
(1.21814e-08 -6.6185e-10 0)
(1.20212e-08 -4.07383e-10 0)
(1.209e-08 -8.87035e-11 0)
(1.21035e-08 2.09455e-10 0)
(-7.11738e-11 2.74038e-09 0)
(-1.80482e-10 5.2577e-09 0)
(-7.97368e-10 6.42673e-09 0)
(-1.76582e-09 6.80088e-09 0)
(-2.80394e-09 6.52771e-09 0)
(-3.73843e-09 6.12669e-09 0)
(-4.94107e-09 5.72007e-09 0)
(-4.76254e-09 5.27573e-09 0)
(-3.12889e-09 4.87558e-09 0)
(-2.85428e-09 4.23841e-09 0)
(-3.3437e-09 3.91089e-09 0)
(-3.51505e-09 3.81317e-09 0)
(-3.89269e-09 3.48747e-09 0)
(-4.35869e-09 3.01753e-09 0)
(-4.65614e-09 2.53249e-09 0)
(-4.39818e-09 1.97424e-09 0)
(-3.54213e-09 1.64439e-09 0)
(-2.85122e-09 1.16432e-09 0)
(-2.21694e-09 7.28949e-10 0)
(-1.38416e-09 4.68984e-10 0)
(-4.59536e-10 2.70545e-10 0)
(6.91993e-10 2.7604e-10 0)
(1.90861e-09 3.74016e-10 0)
(3.1524e-09 6.9667e-10 0)
(5.36871e-09 1.11422e-09 0)
(8.34955e-09 1.32573e-09 0)
(1.05127e-08 1.34879e-09 0)
(1.18502e-08 1.24283e-09 0)
(1.29895e-08 1.40439e-09 0)
(1.41619e-08 1.39716e-09 0)
(1.54503e-08 1.47159e-09 0)
(1.65336e-08 1.63652e-09 0)
(1.82926e-08 1.5695e-09 0)
(2.09959e-08 1.47383e-09 0)
(2.28253e-08 1.07918e-09 0)
(2.37873e-08 5.84083e-10 0)
(2.4598e-08 1.20492e-10 0)
(2.54342e-08 -4.81251e-10 0)
(2.65512e-08 -1.00442e-09 0)
(2.74985e-08 -1.3734e-09 0)
(2.81026e-08 -1.74242e-09 0)
(2.84585e-08 -1.48835e-09 0)
(2.88411e-08 -9.72159e-10 0)
(2.93243e-08 -4.63353e-10 0)
(2.95725e-08 1.36194e-10 0)
(2.18299e-11 4.00211e-09 0)
(4.23689e-10 7.63497e-09 0)
(2.58485e-10 9.30446e-09 0)
(-6.29646e-10 9.69246e-09 0)
(-1.59233e-09 9.43255e-09 0)
(-2.26288e-09 8.63736e-09 0)
(-3.14802e-09 8.14062e-09 0)
(-2.99715e-09 7.65002e-09 0)
(-1.58632e-09 7.14599e-09 0)
(-1.05333e-09 6.19362e-09 0)
(-1.19913e-09 5.74739e-09 0)
(-1.20271e-09 5.33816e-09 0)
(-1.24787e-09 4.68893e-09 0)
(-1.22545e-09 4.15535e-09 0)
(-1.12696e-09 3.47576e-09 0)
(-3.62876e-10 2.67135e-09 0)
(1.07724e-09 1.84419e-09 0)
(2.24148e-09 1.28733e-09 0)
(3.32128e-09 6.88846e-10 0)
(4.66997e-09 4.25228e-11 0)
(6.17248e-09 -2.58303e-10 0)
(7.80009e-09 -3.01455e-10 0)
(9.64574e-09 -3.43582e-10 0)
(1.17099e-08 -1.26549e-10 0)
(1.4871e-08 1.93148e-10 0)
(1.84476e-08 7.44919e-10 0)
(2.09166e-08 8.48639e-10 0)
(2.28282e-08 8.77142e-10 0)
(2.44526e-08 1.09208e-09 0)
(2.59798e-08 1.31546e-09 0)
(2.76155e-08 1.60895e-09 0)
(2.90338e-08 1.78933e-09 0)
(3.10592e-08 1.76773e-09 0)
(3.39064e-08 1.57065e-09 0)
(3.59299e-08 9.36124e-10 0)
(3.72315e-08 2.28399e-10 0)
(3.84596e-08 -6.04032e-10 0)
(3.96902e-08 -1.38531e-09 0)
(4.12275e-08 -1.99829e-09 0)
(4.27098e-08 -2.54369e-09 0)
(4.41188e-08 -2.7932e-09 0)
(4.51934e-08 -2.42407e-09 0)
(4.5886e-08 -1.66336e-09 0)
(4.65661e-08 -8.44443e-10 0)
(4.70188e-08 1.06528e-10 0)
(2.13387e-10 5.13807e-09 0)
(9.46481e-10 9.6706e-09 0)
(1.11748e-09 1.1709e-08 0)
(5.93274e-10 1.22284e-08 0)
(-2.68152e-10 1.18329e-08 0)
(-6.00474e-10 1.10379e-08 0)
(-1.0257e-09 1.01586e-08 0)
(-6.97064e-10 9.71122e-09 0)
(4.53963e-10 8.80706e-09 0)
(8.19054e-10 7.90245e-09 0)
(1.19333e-09 7.0997e-09 0)
(1.48802e-09 6.41156e-09 0)
(1.94022e-09 5.57846e-09 0)
(2.58222e-09 4.75549e-09 0)
(3.13222e-09 3.87131e-09 0)
(4.28791e-09 2.92785e-09 0)
(6.3784e-09 1.36653e-09 0)
(8.22461e-09 6.85253e-10 0)
(9.61162e-09 -9.53362e-11 0)
(1.14462e-08 -1.07779e-09 0)
(1.36064e-08 -1.40646e-09 0)
(1.57131e-08 -1.60858e-09 0)
(1.80685e-08 -1.71179e-09 0)
(2.0782e-08 -1.7731e-09 0)
(2.46838e-08 -1.72526e-09 0)
(2.8818e-08 -4.38004e-10 0)
(3.16219e-08 -2.4587e-10 0)
(3.3953e-08 3.2988e-11 0)
(3.58852e-08 5.4087e-10 0)
(3.76301e-08 1.02315e-09 0)
(3.94372e-08 1.51358e-09 0)
(4.09182e-08 1.63655e-09 0)
(4.31106e-08 1.71427e-09 0)
(4.60582e-08 1.23627e-09 0)
(4.82162e-08 4.83513e-10 0)
(4.97103e-08 -4.52103e-10 0)
(5.10987e-08 -1.42544e-09 0)
(5.27146e-08 -2.33763e-09 0)
(5.45188e-08 -3.08262e-09 0)
(5.62192e-08 -3.63355e-09 0)
(5.80771e-08 -3.73068e-09 0)
(5.97262e-08 -3.46124e-09 0)
(6.07965e-08 -2.48517e-09 0)
(6.1626e-08 -1.23044e-09 0)
(6.20958e-08 1.69162e-10 0)
(4.76553e-10 5.74243e-09 0)
(1.47932e-09 1.05963e-08 0)
(2.00596e-09 1.33851e-08 0)
(1.6208e-09 1.38055e-08 0)
(1.08165e-09 1.35329e-08 0)
(1.0443e-09 1.30498e-08 0)
(1.18161e-09 1.19534e-08 0)
(1.51842e-09 1.12931e-08 0)
(2.40154e-09 1.00706e-08 0)
(3.05166e-09 8.98325e-09 0)
(3.49071e-09 7.88788e-09 0)
(4.27343e-09 6.82964e-09 0)
(5.22606e-09 5.79815e-09 0)
(6.46911e-09 4.69953e-09 0)
(7.69434e-09 3.57759e-09 0)
(8.88637e-09 1.89468e-09 0)
(1.15586e-08 5.58652e-10 0)
(1.43951e-08 -6.11259e-10 0)
(1.59567e-08 -1.45682e-09 0)
(1.8357e-08 -1.51519e-09 0)
(2.11431e-08 -1.50037e-09 0)
(2.35284e-08 -1.54615e-09 0)
(2.61822e-08 -1.41583e-09 0)
(2.9275e-08 -1.11538e-09 0)
(3.47548e-08 -5.75456e-10 0)
(3.93898e-08 -3.27634e-09 0)
(4.16095e-08 -2.43959e-09 0)
(4.43084e-08 -1.53933e-09 0)
(4.64104e-08 -6.40685e-10 0)
(4.81769e-08 3.58893e-10 0)
(4.98686e-08 1.01652e-09 0)
(5.15296e-08 1.43151e-09 0)
(5.38112e-08 1.22324e-09 0)
(5.67038e-08 8.32029e-10 0)
(5.89944e-08 -1.62169e-10 0)
(6.05894e-08 -1.12974e-09 0)
(6.20842e-08 -2.23415e-09 0)
(6.36124e-08 -3.16855e-09 0)
(6.5442e-08 -4.09286e-09 0)
(6.74086e-08 -4.566e-09 0)
(6.94471e-08 -4.78191e-09 0)
(7.1401e-08 -4.19306e-09 0)
(7.28587e-08 -3.14297e-09 0)
(7.37283e-08 -1.42359e-09 0)
(7.40492e-08 3.36719e-10 0)
(4.62877e-10 5.36994e-09 0)
(1.6848e-09 1.12108e-08 0)
(2.47769e-09 1.45011e-08 0)
(2.34553e-09 1.53055e-08 0)
(2.63882e-09 1.5185e-08 0)
(2.86818e-09 1.45673e-08 0)
(3.13355e-09 1.36428e-08 0)
(3.66921e-09 1.24567e-08 0)
(4.37786e-09 1.14161e-08 0)
(4.91912e-09 9.75128e-09 0)
(5.80322e-09 8.79068e-09 0)
(7.09309e-09 7.43206e-09 0)
(8.72776e-09 6.05518e-09 0)
(1.05733e-08 4.56727e-09 0)
(1.17387e-08 2.69497e-09 0)
(1.36529e-08 1.09897e-09 0)
(1.7058e-08 6.7626e-10 0)
(2.01225e-08 -2.79821e-11 0)
(2.32492e-08 -7.07469e-10 0)
(2.64647e-08 -7.04448e-10 0)
(2.90445e-08 -9.65137e-10 0)
(3.16935e-08 -1.30227e-09 0)
(3.48834e-08 -1.41168e-09 0)
(3.85968e-08 -1.39147e-09 0)
(3.99498e-08 -6.05731e-10 0)
(4.48004e-08 -5.53618e-09 0)
(5.14452e-08 -1.39229e-09 0)
(5.38789e-08 -9.12602e-10 0)
(5.5988e-08 -1.43754e-11 0)
(5.75879e-08 9.98656e-10 0)
(5.91623e-08 1.87491e-09 0)
(6.04512e-08 2.30775e-09 0)
(6.27217e-08 1.85592e-09 0)
(6.57765e-08 1.02144e-09 0)
(6.80001e-08 2.75004e-10 0)
(6.96254e-08 -2.92665e-10 0)
(7.09792e-08 -1.39591e-09 0)
(7.23897e-08 -2.48497e-09 0)
(7.40828e-08 -3.48398e-09 0)
(7.57929e-08 -4.24137e-09 0)
(7.79809e-08 -4.62848e-09 0)
(8.01998e-08 -4.45312e-09 0)
(8.17313e-08 -2.4059e-09 0)
(8.26651e-08 -3.7e-12 0)
(8.25943e-08 2.35425e-09 0)
(7.08968e-10 5.33102e-09 0)
(2.14355e-09 1.19424e-08 0)
(2.70209e-09 1.57793e-08 0)
(3.01488e-09 1.70374e-08 0)
(3.39498e-09 1.67644e-08 0)
(4.09226e-09 1.61471e-08 0)
(4.71586e-09 1.52935e-08 0)
(5.55438e-09 1.41336e-08 0)
(6.2077e-09 1.25399e-08 0)
(7.26943e-09 1.13764e-08 0)
(8.73712e-09 9.94892e-09 0)
(1.01382e-08 8.48309e-09 0)
(1.21701e-08 6.9319e-09 0)
(1.40988e-08 5.08244e-09 0)
(1.62152e-08 2.97963e-09 0)
(1.95777e-08 1.29837e-09 0)
(2.36427e-08 1.05082e-09 0)
(2.66815e-08 5.41834e-10 0)
(2.94346e-08 1.20866e-10 0)
(3.26828e-08 -7.82653e-10 0)
(3.55184e-08 -1.64342e-09 0)
(3.84066e-08 -2.40728e-09 0)
(4.1784e-08 -3.20632e-09 0)
(4.58681e-08 -4.21486e-09 0)
(4.64766e-08 -5.24218e-09 0)
(5.42077e-08 -9.49504e-10 0)
(6.14881e-08 -9.61423e-10 0)
(6.07965e-08 3.54284e-11 0)
(6.32124e-08 1.08687e-09 0)
(6.50519e-08 2.3187e-09 0)
(6.65166e-08 3.44196e-09 0)
(6.75316e-08 4.13071e-09 0)
(6.94819e-08 4.37916e-09 0)
(7.29585e-08 3.45411e-09 0)
(7.60728e-08 3.24119e-09 0)
(7.74206e-08 2.03466e-09 0)
(7.80208e-08 6.59843e-10 0)
(7.89495e-08 -5.55544e-10 0)
(8.00809e-08 -1.63993e-09 0)
(8.14404e-08 -2.30995e-09 0)
(8.31446e-08 -2.70123e-09 0)
(8.63187e-08 -2.34516e-09 0)
(8.89256e-08 1.36538e-10 0)
(8.91726e-08 2.38866e-09 0)
(8.92546e-08 4.83516e-09 0)
(6.92345e-10 5.56716e-09 0)
(1.80768e-09 1.18763e-08 0)
(2.33655e-09 1.65326e-08 0)
(3.01254e-09 1.76374e-08 0)
(3.92583e-09 1.74477e-08 0)
(5.0802e-09 1.65533e-08 0)
(6.03951e-09 1.562e-08 0)
(6.78309e-09 1.44344e-08 0)
(8.3006e-09 1.31859e-08 0)
(9.8682e-09 1.17384e-08 0)
(1.14691e-08 9.9136e-09 0)
(1.37893e-08 8.33839e-09 0)
(1.60963e-08 6.54368e-09 0)
(1.8334e-08 4.78151e-09 0)
(2.03953e-08 2.99418e-09 0)
(2.46035e-08 9.32497e-10 0)
(2.93923e-08 -1.27604e-10 0)
(3.24927e-08 -9.54148e-10 0)
(3.55601e-08 -1.36811e-09 0)
(3.873e-08 -2.07697e-09 0)
(4.18365e-08 -2.95143e-09 0)
(4.4853e-08 -3.63242e-09 0)
(4.79103e-08 -4.46436e-09 0)
(5.12858e-08 -5.1938e-09 0)
(5.73403e-08 -6.38414e-09 0)
(6.24397e-08 -1.04645e-09 0)
(6.50877e-08 -3.2964e-09 0)
(6.79919e-08 -1.21455e-09 0)
(7.0119e-08 4.71803e-10 0)
(7.18104e-08 2.28722e-09 0)
(7.31967e-08 3.87245e-09 0)
(7.43311e-08 5.24127e-09 0)
(7.59177e-08 6.21311e-09 0)
(7.93977e-08 6.40077e-09 0)
(8.18589e-08 5.4589e-09 0)
(8.23386e-08 3.66336e-09 0)
(8.31914e-08 2.01889e-09 0)
(8.38979e-08 6.46608e-10 0)
(8.47493e-08 -2.43082e-10 0)
(8.54965e-08 -5.4915e-10 0)
(8.69649e-08 -4.89035e-10 0)
(9.04109e-08 1.04446e-09 0)
(9.23711e-08 2.55794e-09 0)
(9.20541e-08 4.50565e-09 0)
(9.1691e-08 6.88143e-09 0)
(4.44378e-10 5.30629e-09 0)
(1.30619e-09 1.14529e-08 0)
(1.86569e-09 1.66414e-08 0)
(2.80575e-09 1.77409e-08 0)
(3.6826e-09 1.69758e-08 0)
(4.98926e-09 1.58652e-08 0)
(6.5423e-09 1.46712e-08 0)
(8.38052e-09 1.33693e-08 0)
(1.01436e-08 1.2283e-08 0)
(1.20464e-08 1.05463e-08 0)
(1.474e-08 8.98493e-09 0)
(1.72819e-08 7.04354e-09 0)
(1.99967e-08 5.13844e-09 0)
(2.26316e-08 3.2825e-09 0)
(2.49693e-08 1.4059e-09 0)
(2.93043e-08 -1.83346e-10 0)
(3.46542e-08 -1.7327e-09 0)
(3.84277e-08 -2.24005e-09 0)
(4.15534e-08 -2.79118e-09 0)
(4.47304e-08 -3.50927e-09 0)
(4.79514e-08 -4.41447e-09 0)
(5.11337e-08 -5.35795e-09 0)
(5.43999e-08 -6.11151e-09 0)
(5.76958e-08 -6.31643e-09 0)
(6.33895e-08 -6.21708e-09 0)
(6.88993e-08 -6.07706e-09 0)
(7.18437e-08 -4.02174e-09 0)
(7.42923e-08 -2.1944e-09 0)
(7.61273e-08 -1.87056e-10 0)
(7.78312e-08 1.88065e-09 0)
(7.91919e-08 3.83392e-09 0)
(8.02752e-08 5.43506e-09 0)
(8.19537e-08 6.72304e-09 0)
(8.43813e-08 7.18222e-09 0)
(8.60495e-08 5.8028e-09 0)
(8.66738e-08 4.35704e-09 0)
(8.71087e-08 2.87563e-09 0)
(8.76159e-08 1.65499e-09 0)
(8.81688e-08 1.04562e-09 0)
(8.8526e-08 9.60254e-10 0)
(9.00404e-08 1.75755e-09 0)
(9.27349e-08 3.17778e-09 0)
(9.40234e-08 4.55896e-09 0)
(9.36901e-08 6.66168e-09 0)
(9.3004e-08 9.23984e-09 0)
(1.43235e-10 5.18885e-09 0)
(9.20509e-10 1.13397e-08 0)
(1.49376e-09 1.66799e-08 0)
(1.9679e-09 1.72729e-08 0)
(3.05291e-09 1.63511e-08 0)
(4.91039e-09 1.49497e-08 0)
(6.79243e-09 1.34664e-08 0)
(9.09732e-09 1.19695e-08 0)
(1.18432e-08 1.04987e-08 0)
(1.46302e-08 9.27424e-09 0)
(1.74926e-08 7.47134e-09 0)
(2.05021e-08 5.62326e-09 0)
(2.36231e-08 3.9379e-09 0)
(2.64606e-08 1.99647e-09 0)
(2.92537e-08 2.37516e-10 0)
(3.40268e-08 -1.27236e-09 0)
(3.99537e-08 -2.64842e-09 0)
(4.41591e-08 -3.2805e-09 0)
(4.73161e-08 -3.98506e-09 0)
(5.05404e-08 -4.75137e-09 0)
(5.37762e-08 -5.70862e-09 0)
(5.70795e-08 -6.92858e-09 0)
(6.07056e-08 -8.1688e-09 0)
(6.41652e-08 -8.16515e-09 0)
(6.94642e-08 -7.61812e-09 0)
(7.50251e-08 -6.92519e-09 0)
(7.80008e-08 -5.13787e-09 0)
(8.00477e-08 -3.17544e-09 0)
(8.18839e-08 -9.32867e-10 0)
(8.34768e-08 1.27137e-09 0)
(8.46769e-08 3.42578e-09 0)
(8.57321e-08 5.31975e-09 0)
(8.70332e-08 6.83906e-09 0)
(8.8668e-08 7.14315e-09 0)
(8.97155e-08 6.25083e-09 0)
(9.00911e-08 5.04276e-09 0)
(9.04686e-08 3.85295e-09 0)
(9.07647e-08 2.94386e-09 0)
(9.09748e-08 2.67905e-09 0)
(9.10814e-08 3.00895e-09 0)
(9.19652e-08 4.22211e-09 0)
(9.39985e-08 5.35642e-09 0)
(9.48355e-08 6.84924e-09 0)
(9.41682e-08 8.8575e-09 0)
(9.33491e-08 1.13298e-08 0)
(1.33105e-10 5.07181e-09 0)
(6.27736e-10 1.13219e-08 0)
(7.64703e-10 1.63511e-08 0)
(1.40736e-09 1.6929e-08 0)
(2.63352e-09 1.57795e-08 0)
(4.38885e-09 1.38095e-08 0)
(6.80451e-09 1.18546e-08 0)
(9.87306e-09 1.01185e-08 0)
(1.34245e-08 8.49432e-09 0)
(1.65479e-08 7.081e-09 0)
(1.99143e-08 5.53561e-09 0)
(2.35184e-08 4.09237e-09 0)
(2.68268e-08 2.50848e-09 0)
(3.0036e-08 9.05709e-10 0)
(3.3363e-08 -4.60412e-10 0)
(3.84407e-08 -1.84427e-09 0)
(4.48482e-08 -3.59942e-09 0)
(4.95462e-08 -4.19031e-09 0)
(5.29897e-08 -4.95198e-09 0)
(5.6413e-08 -5.73333e-09 0)
(5.95521e-08 -6.71337e-09 0)
(6.24936e-08 -8.0788e-09 0)
(6.65929e-08 -8.82514e-09 0)
(7.08643e-08 -8.62833e-09 0)
(7.58412e-08 -7.9682e-09 0)
(8.10333e-08 -7.50773e-09 0)
(8.38382e-08 -5.91879e-09 0)
(8.56595e-08 -4.15873e-09 0)
(8.72335e-08 -2.01256e-09 0)
(8.86795e-08 1.77929e-10 0)
(8.98898e-08 2.46688e-09 0)
(9.0858e-08 4.59181e-09 0)
(9.16538e-08 6.42698e-09 0)
(9.2414e-08 7.00407e-09 0)
(9.30581e-08 6.46009e-09 0)
(9.32873e-08 5.66857e-09 0)
(9.33226e-08 4.78109e-09 0)
(9.34203e-08 4.17826e-09 0)
(9.34224e-08 4.32e-09 0)
(9.32943e-08 5.00352e-09 0)
(9.3675e-08 6.51912e-09 0)
(9.47994e-08 7.8459e-09 0)
(9.51993e-08 9.24027e-09 0)
(9.43512e-08 1.11869e-08 0)
(9.33027e-08 1.3547e-08 0)
(-1.24662e-10 5.10841e-09 0)
(9.08421e-11 1.14387e-08 0)
(5.08471e-10 1.62443e-08 0)
(1.13097e-09 1.67158e-08 0)
(2.25054e-09 1.47362e-08 0)
(4.27221e-09 1.25608e-08 0)
(7.08736e-09 1.00896e-08 0)
(1.04852e-08 7.9897e-09 0)
(1.44333e-08 6.05479e-09 0)
(1.83424e-08 4.56736e-09 0)
(2.21363e-08 3.21714e-09 0)
(2.59047e-08 2.1082e-09 0)
(2.96484e-08 9.41258e-10 0)
(3.35082e-08 -1.41515e-10 0)
(3.72782e-08 -1.14915e-09 0)
(4.21616e-08 -2.20286e-09 0)
(4.92514e-08 -3.06758e-09 0)
(5.4927e-08 -3.58628e-09 0)
(5.85405e-08 -4.1223e-09 0)
(6.22148e-08 -4.96047e-09 0)
(6.52581e-08 -5.87596e-09 0)
(6.87697e-08 -6.75143e-09 0)
(7.34474e-08 -6.53875e-09 0)
(7.72942e-08 -7.07954e-09 0)
(8.1469e-08 -7.10012e-09 0)
(8.63232e-08 -7.5258e-09 0)
(8.90958e-08 -6.72968e-09 0)
(9.06139e-08 -5.26228e-09 0)
(9.2195e-08 -3.40794e-09 0)
(9.36427e-08 -1.31899e-09 0)
(9.48144e-08 9.66586e-10 0)
(9.57314e-08 3.2404e-09 0)
(9.60732e-08 5.5207e-09 0)
(9.59759e-08 6.18286e-09 0)
(9.60384e-08 6.16431e-09 0)
(9.60178e-08 6.0463e-09 0)
(9.58766e-08 5.3854e-09 0)
(9.59036e-08 5.21652e-09 0)
(9.57601e-08 5.67455e-09 0)
(9.55044e-08 6.77562e-09 0)
(9.53283e-08 8.36589e-09 0)
(9.56032e-08 1.02143e-08 0)
(9.55448e-08 1.16584e-08 0)
(9.44313e-08 1.32837e-08 0)
(9.3172e-08 1.56034e-08 0)
(-1.22827e-10 5.5098e-09 0)
(-2.95227e-10 1.20155e-08 0)
(1.19589e-10 1.71083e-08 0)
(1.03957e-09 1.71008e-08 0)
(2.48124e-09 1.45136e-08 0)
(4.81869e-09 1.1401e-08 0)
(7.6791e-09 8.31168e-09 0)
(1.13615e-08 5.32447e-09 0)
(1.56025e-08 3.2951e-09 0)
(1.95213e-08 1.68314e-09 0)
(2.37805e-08 1.22181e-09 0)
(2.82656e-08 6.81715e-10 0)
(3.24275e-08 2.18381e-10 0)
(3.67918e-08 -3.40281e-10 0)
(4.1055e-08 -8.71872e-10 0)
(4.69603e-08 -1.42025e-09 0)
(5.44464e-08 -9.65176e-10 0)
(6.01672e-08 -1.29042e-09 0)
(6.41698e-08 -1.85031e-09 0)
(6.80052e-08 -2.8939e-09 0)
(7.15451e-08 -4.01326e-09 0)
(7.55371e-08 -4.54678e-09 0)
(7.9351e-08 -5.33661e-09 0)
(8.23293e-08 -6.51855e-09 0)
(8.60107e-08 -7.03134e-09 0)
(9.04468e-08 -7.78449e-09 0)
(9.36629e-08 -7.61598e-09 0)
(9.53782e-08 -6.95465e-09 0)
(9.67808e-08 -5.50374e-09 0)
(9.81825e-08 -3.66643e-09 0)
(9.93963e-08 -1.80368e-09 0)
(1.00486e-07 5.89731e-10 0)
(1.00032e-07 2.97033e-09 0)
(9.89498e-08 4.80502e-09 0)
(9.91816e-08 5.25063e-09 0)
(9.86644e-08 5.22988e-09 0)
(9.80102e-08 5.26919e-09 0)
(9.81233e-08 5.69179e-09 0)
(9.79978e-08 6.52535e-09 0)
(9.75017e-08 8.18115e-09 0)
(9.72707e-08 1.00888e-08 0)
(9.69685e-08 1.21568e-08 0)
(9.57788e-08 1.35433e-08 0)
(9.46386e-08 1.48067e-08 0)
(9.33493e-08 1.6533e-08 0)
(-1.98455e-10 6.48535e-09 0)
(-3.03349e-10 1.33507e-08 0)
(6.51486e-10 1.88209e-08 0)
(1.47229e-09 1.80359e-08 0)
(2.85311e-09 1.46798e-08 0)
(5.4496e-09 1.05562e-08 0)
(8.42463e-09 6.61419e-09 0)
(1.22371e-08 3.15052e-09 0)
(1.6646e-08 7.29169e-10 0)
(2.15874e-08 -1.33294e-10 0)
(2.64583e-08 -4.00694e-11 0)
(3.07105e-08 2.72317e-11 0)
(3.53163e-08 1.55182e-10 0)
(4.01746e-08 2.40504e-10 0)
(4.4975e-08 1.2292e-10 0)
(5.16586e-08 1.0065e-10 0)
(5.96915e-08 -2.48015e-10 0)
(6.52216e-08 -7.52146e-10 0)
(6.91287e-08 -1.67969e-09 0)
(7.30864e-08 -2.91012e-09 0)
(7.70672e-08 -4.26868e-09 0)
(8.07869e-08 -5.38847e-09 0)
(8.41852e-08 -6.93598e-09 0)
(8.72741e-08 -7.80352e-09 0)
(9.05405e-08 -8.29124e-09 0)
(9.46141e-08 -8.9114e-09 0)
(9.74143e-08 -9.19573e-09 0)
(9.90411e-08 -8.81036e-09 0)
(1.00905e-07 -7.92764e-09 0)
(1.02121e-07 -6.69829e-09 0)
(1.03453e-07 -5.1035e-09 0)
(1.04715e-07 -3.32806e-09 0)
(1.04582e-07 -1.16557e-09 0)
(1.02789e-07 1.20125e-09 0)
(1.01129e-07 2.21138e-09 0)
(1.0059e-07 2.79954e-09 0)
(1.00381e-07 4.27092e-09 0)
(1.00346e-07 5.80966e-09 0)
(1.00341e-07 7.51645e-09 0)
(1.00084e-07 9.37428e-09 0)
(9.92684e-08 1.15424e-08 0)
(9.80253e-08 1.2943e-08 0)
(9.62659e-08 1.41187e-08 0)
(9.44683e-08 1.53536e-08 0)
(9.32526e-08 1.70186e-08 0)
(-5.34058e-11 7.56905e-09 0)
(2.72997e-10 1.45979e-08 0)
(9.29823e-10 1.96873e-08 0)
(1.98512e-09 1.79456e-08 0)
(3.83793e-09 1.38376e-08 0)
(6.56249e-09 9.09719e-09 0)
(9.72671e-09 4.56032e-09 0)
(1.36167e-08 9.55772e-10 0)
(1.8801e-08 -1.30435e-09 0)
(2.40026e-08 -1.81109e-09 0)
(2.87409e-08 -2.28202e-09 0)
(3.35666e-08 -2.00147e-09 0)
(3.85415e-08 -1.62921e-09 0)
(4.36754e-08 -1.20404e-09 0)
(4.8886e-08 -1.04837e-09 0)
(5.54377e-08 -8.29844e-10 0)
(6.32639e-08 -1.75109e-09 0)
(6.93623e-08 -2.80545e-09 0)
(7.36349e-08 -3.88352e-09 0)
(7.78188e-08 -4.95906e-09 0)
(8.18148e-08 -6.33847e-09 0)
(8.54706e-08 -7.74709e-09 0)
(8.89466e-08 -8.81296e-09 0)
(9.20387e-08 -9.50133e-09 0)
(9.47952e-08 -9.78772e-09 0)
(9.81401e-08 -1.01809e-08 0)
(1.01109e-07 -1.08196e-08 0)
(1.02895e-07 -1.05095e-08 0)
(1.04208e-07 -1.01251e-08 0)
(1.05565e-07 -9.44808e-09 0)
(1.0671e-07 -8.18468e-09 0)
(1.0793e-07 -6.92261e-09 0)
(1.07798e-07 -5.19709e-09 0)
(1.05431e-07 -3.51223e-09 0)
(1.03773e-07 -1.61567e-09 0)
(1.03517e-07 6.36918e-10 0)
(1.03472e-07 3.23706e-09 0)
(1.03309e-07 5.69751e-09 0)
(1.02874e-07 8.03749e-09 0)
(1.02126e-07 9.97304e-09 0)
(1.00782e-07 1.21553e-08 0)
(9.88771e-08 1.33289e-08 0)
(9.68678e-08 1.43266e-08 0)
(9.54595e-08 1.58242e-08 0)
(9.40865e-08 1.76842e-08 0)
(-4.44246e-11 8.2272e-09 0)
(3.85487e-10 1.49109e-08 0)
(1.34975e-09 1.95169e-08 0)
(2.83879e-09 1.73184e-08 0)
(5.0955e-09 1.24096e-08 0)
(8.07386e-09 7.07823e-09 0)
(1.13869e-08 2.24328e-09 0)
(1.57212e-08 -1.54629e-09 0)
(2.11304e-08 -3.77557e-09 0)
(2.61783e-08 -4.95927e-09 0)
(3.11418e-08 -5.34482e-09 0)
(3.63217e-08 -5.30496e-09 0)
(4.16376e-08 -5.06431e-09 0)
(4.71825e-08 -4.76044e-09 0)
(5.27166e-08 -4.41221e-09 0)
(5.91779e-08 -4.05656e-09 0)
(6.67407e-08 -4.71786e-09 0)
(7.29784e-08 -5.80912e-09 0)
(7.77256e-08 -6.77811e-09 0)
(8.20078e-08 -7.87581e-09 0)
(8.58701e-08 -9.07305e-09 0)
(8.9727e-08 -1.01757e-08 0)
(9.33261e-08 -1.09584e-08 0)
(9.64171e-08 -1.15814e-08 0)
(9.89907e-08 -1.18042e-08 0)
(1.01637e-07 -1.21005e-08 0)
(1.04093e-07 -1.25715e-08 0)
(1.05768e-07 -1.28903e-08 0)
(1.07105e-07 -1.27457e-08 0)
(1.08354e-07 -1.22821e-08 0)
(1.09493e-07 -1.14169e-08 0)
(1.10525e-07 -1.00578e-08 0)
(1.10194e-07 -8.5583e-09 0)
(1.08041e-07 -6.64912e-09 0)
(1.06603e-07 -3.97296e-09 0)
(1.06524e-07 -8.32383e-10 0)
(1.06401e-07 2.25277e-09 0)
(1.06027e-07 4.97519e-09 0)
(1.05358e-07 7.52803e-09 0)
(1.04677e-07 9.98107e-09 0)
(1.02823e-07 1.22915e-08 0)
(1.00074e-07 1.36438e-08 0)
(9.80816e-08 1.4976e-08 0)
(9.64936e-08 1.6644e-08 0)
(9.48297e-08 1.82009e-08 0)
(-3.34998e-11 8.6889e-09 0)
(6.08288e-10 1.49388e-08 0)
(1.91518e-09 1.90891e-08 0)
(3.81904e-09 1.62362e-08 0)
(6.44912e-09 1.07509e-08 0)
(9.69695e-09 4.96805e-09 0)
(1.33343e-08 -2.53605e-10 0)
(1.78412e-08 -4.16725e-09 0)
(2.33536e-08 -6.64556e-09 0)
(2.86807e-08 -8.05914e-09 0)
(3.37429e-08 -8.67823e-09 0)
(3.90357e-08 -9.04053e-09 0)
(4.46312e-08 -8.85725e-09 0)
(5.05059e-08 -8.74236e-09 0)
(5.65336e-08 -8.48176e-09 0)
(6.27688e-08 -8.34041e-09 0)
(6.97368e-08 -8.65267e-09 0)
(7.61596e-08 -9.64561e-09 0)
(8.10586e-08 -1.03624e-08 0)
(8.54182e-08 -1.14249e-08 0)
(8.95087e-08 -1.22269e-08 0)
(9.33812e-08 -1.30056e-08 0)
(9.69171e-08 -1.36582e-08 0)
(9.99684e-08 -1.41604e-08 0)
(1.02308e-07 -1.45698e-08 0)
(1.04569e-07 -1.47906e-08 0)
(1.06691e-07 -1.52256e-08 0)
(1.0829e-07 -1.54701e-08 0)
(1.09537e-07 -1.55342e-08 0)
(1.1074e-07 -1.50844e-08 0)
(1.11903e-07 -1.41741e-08 0)
(1.12829e-07 -1.30653e-08 0)
(1.12348e-07 -1.13414e-08 0)
(1.10381e-07 -9.1161e-09 0)
(1.09385e-07 -5.90205e-09 0)
(1.09389e-07 -2.38496e-09 0)
(1.09067e-07 8.59055e-10 0)
(1.08659e-07 4.11078e-09 0)
(1.08244e-07 6.87687e-09 0)
(1.07538e-07 9.52664e-09 0)
(1.05092e-07 1.20994e-08 0)
(1.01972e-07 1.36426e-08 0)
(9.98706e-08 1.52049e-08 0)
(9.78717e-08 1.70511e-08 0)
(9.5916e-08 1.86812e-08 0)
(-7.17149e-11 9.25257e-09 0)
(6.54902e-10 1.48265e-08 0)
(2.35998e-09 1.83707e-08 0)
(4.77464e-09 1.49618e-08 0)
(7.80975e-09 8.96773e-09 0)
(1.12506e-08 2.82969e-09 0)
(1.51629e-08 -2.67178e-09 0)
(2.02252e-08 -6.83049e-09 0)
(2.5938e-08 -9.82055e-09 0)
(3.11099e-08 -1.15292e-08 0)
(3.61744e-08 -1.25534e-08 0)
(4.17956e-08 -1.2921e-08 0)
(4.76412e-08 -1.29989e-08 0)
(5.364e-08 -1.299e-08 0)
(5.97045e-08 -1.29308e-08 0)
(6.59743e-08 -1.2914e-08 0)
(7.26497e-08 -1.33043e-08 0)
(7.87552e-08 -1.36767e-08 0)
(8.37584e-08 -1.41955e-08 0)
(8.81716e-08 -1.46186e-08 0)
(9.23117e-08 -1.51769e-08 0)
(9.61271e-08 -1.56135e-08 0)
(9.97128e-08 -1.60894e-08 0)
(1.02668e-07 -1.66527e-08 0)
(1.05001e-07 -1.69455e-08 0)
(1.07011e-07 -1.76998e-08 0)
(1.08817e-07 -1.79553e-08 0)
(1.10208e-07 -1.80659e-08 0)
(1.11486e-07 -1.79966e-08 0)
(1.12859e-07 -1.74519e-08 0)
(1.13732e-07 -1.67194e-08 0)
(1.14605e-07 -1.55922e-08 0)
(1.14322e-07 -1.40211e-08 0)
(1.127e-07 -1.13635e-08 0)
(1.12008e-07 -7.81856e-09 0)
(1.11856e-07 -4.01289e-09 0)
(1.11804e-07 -3.18339e-10 0)
(1.11541e-07 3.0429e-09 0)
(1.10957e-07 5.96686e-09 0)
(1.10564e-07 8.75818e-09 0)
(1.08071e-07 1.14782e-08 0)
(1.04192e-07 1.33582e-08 0)
(1.01871e-07 1.505e-08 0)
(9.97594e-08 1.688e-08 0)
(9.73378e-08 1.88716e-08 0)
(-1.31865e-10 1.02007e-08 0)
(6.78604e-10 1.51768e-08 0)
(2.85911e-09 1.80511e-08 0)
(5.64806e-09 1.34957e-08 0)
(8.99723e-09 7.17526e-09 0)
(1.27946e-08 6.48848e-10 0)
(1.71169e-08 -5.00006e-09 0)
(2.21116e-08 -9.81118e-09 0)
(2.79727e-08 -1.27103e-08 0)
(3.36391e-08 -1.51739e-08 0)
(3.90158e-08 -1.62786e-08 0)
(4.46895e-08 -1.74857e-08 0)
(5.04185e-08 -1.76821e-08 0)
(5.65494e-08 -1.7546e-08 0)
(6.278e-08 -1.76764e-08 0)
(6.85397e-08 -1.79791e-08 0)
(7.49115e-08 -1.77202e-08 0)
(8.10937e-08 -1.76711e-08 0)
(8.59718e-08 -1.77468e-08 0)
(9.0343e-08 -1.76491e-08 0)
(9.43451e-08 -1.77502e-08 0)
(9.81665e-08 -1.8033e-08 0)
(1.01445e-07 -1.85357e-08 0)
(1.04511e-07 -1.91603e-08 0)
(1.06336e-07 -1.95946e-08 0)
(1.08152e-07 -2.04976e-08 0)
(1.10407e-07 -2.0546e-08 0)
(1.11785e-07 -2.04769e-08 0)
(1.13053e-07 -2.01914e-08 0)
(1.1419e-07 -1.97013e-08 0)
(1.15146e-07 -1.9053e-08 0)
(1.15991e-07 -1.78022e-08 0)
(1.16012e-07 -1.62533e-08 0)
(1.15062e-07 -1.35057e-08 0)
(1.14639e-07 -9.66538e-09 0)
(1.14796e-07 -5.53985e-09 0)
(1.14485e-07 -1.61947e-09 0)
(1.1407e-07 1.66931e-09 0)
(1.13889e-07 4.83473e-09 0)
(1.13904e-07 7.9832e-09 0)
(1.10878e-07 1.06618e-08 0)
(1.06944e-07 1.51428e-08 0)
(1.04485e-07 1.53182e-08 0)
(1.01974e-07 1.68007e-08 0)
(9.96713e-08 1.88349e-08 0)
(-2.1234e-10 1.1415e-08 0)
(7.50584e-10 1.5699e-08 0)
(2.50858e-09 1.71528e-08 0)
(5.82835e-09 1.26675e-08 0)
(1.01574e-08 5.63153e-09 0)
(1.42122e-08 -1.39654e-09 0)
(1.85084e-08 -7.60186e-09 0)
(2.44498e-08 -1.23552e-08 0)
(3.04548e-08 -1.64923e-08 0)
(3.58188e-08 -1.8591e-08 0)
(4.10512e-08 -2.10811e-08 0)
(4.67504e-08 -2.21248e-08 0)
(5.34985e-08 -2.29781e-08 0)
(5.93383e-08 -2.29492e-08 0)
(6.48162e-08 -2.30327e-08 0)
(7.10603e-08 -2.32035e-08 0)
(7.74535e-08 -2.23305e-08 0)
(8.27316e-08 -2.1851e-08 0)
(8.76111e-08 -2.15291e-08 0)
(9.18922e-08 -2.12135e-08 0)
(9.55537e-08 -2.09913e-08 0)
(9.88991e-08 -2.12085e-08 0)
(1.0216e-07 -2.14938e-08 0)
(1.0518e-07 -2.20458e-08 0)
(1.07019e-07 -2.28424e-08 0)
(1.0897e-07 -2.29691e-08 0)
(1.11261e-07 -2.28785e-08 0)
(1.12542e-07 -2.26472e-08 0)
(1.13767e-07 -2.18453e-08 0)
(1.15004e-07 -2.13449e-08 0)
(1.16104e-07 -2.05631e-08 0)
(1.17206e-07 -1.93476e-08 0)
(1.17573e-07 -1.78181e-08 0)
(1.17407e-07 -1.51435e-08 0)
(1.17585e-07 -1.13379e-08 0)
(1.17555e-07 -7.59798e-09 0)
(1.1722e-07 -4.08716e-09 0)
(1.17029e-07 -5.4316e-10 0)
(1.1723e-07 2.86129e-09 0)
(1.17061e-07 5.69551e-09 0)
(1.16694e-07 7.86095e-09 0)
(1.10469e-07 1.17807e-08 0)
(1.05071e-07 1.54658e-08 0)
(1.04595e-07 1.67238e-08 0)
(1.02254e-07 1.86667e-08 0)
(-4.03535e-11 1.31935e-08 0)
(2.09719e-10 1.5387e-08 0)
(2.75622e-09 1.68653e-08 0)
(6.74994e-09 1.2148e-08 0)
(1.04408e-08 4.57758e-09 0)
(1.49595e-08 -2.7041e-09 0)
(2.03532e-08 -9.31554e-09 0)
(2.55127e-08 -1.50515e-08 0)
(3.20867e-08 -2.01316e-08 0)
(3.77599e-08 -2.3472e-08 0)
(4.2939e-08 -2.58112e-08 0)
(4.92705e-08 -2.69494e-08 0)
(5.5223e-08 -2.75882e-08 0)
(6.16713e-08 -2.80671e-08 0)
(6.722e-08 -2.80222e-08 0)
(7.31805e-08 -2.74024e-08 0)
(7.92752e-08 -2.6852e-08 0)
(8.41882e-08 -2.61077e-08 0)
(8.85201e-08 -2.54896e-08 0)
(9.25897e-08 -2.49763e-08 0)
(9.58939e-08 -2.47584e-08 0)
(9.91598e-08 -2.45763e-08 0)
(1.02204e-07 -2.45471e-08 0)
(1.04816e-07 -2.49514e-08 0)
(1.06858e-07 -2.5421e-08 0)
(1.09129e-07 -2.46472e-08 0)
(1.11302e-07 -2.43557e-08 0)
(1.13094e-07 -2.40229e-08 0)
(1.14417e-07 -2.33184e-08 0)
(1.15319e-07 -2.2549e-08 0)
(1.16749e-07 -2.17692e-08 0)
(1.17995e-07 -2.06441e-08 0)
(1.18931e-07 -1.91971e-08 0)
(1.19676e-07 -1.67857e-08 0)
(1.20002e-07 -1.34684e-08 0)
(1.19989e-07 -1.04959e-08 0)
(1.20053e-07 -6.99792e-09 0)
(1.20332e-07 -3.27953e-09 0)
(1.20274e-07 2.55218e-10 0)
(1.19693e-07 3.34564e-09 0)
(1.18379e-07 6.03609e-09 0)
(1.16552e-07 8.09858e-09 0)
(1.1167e-07 1.33983e-08 0)
(1.07452e-07 1.57538e-08 0)
(1.06143e-07 1.75484e-08 0)
(-8.15727e-11 1.51295e-08 0)
(1.09412e-09 1.53667e-08 0)
(3.5398e-09 1.63486e-08 0)
(6.78996e-09 1.04776e-08 0)
(1.11986e-08 2.71808e-09 0)
(1.59711e-08 -5.01389e-09 0)
(2.05651e-08 -1.21131e-08 0)
(2.62304e-08 -1.85336e-08 0)
(3.26058e-08 -2.33883e-08 0)
(3.90073e-08 -2.79593e-08 0)
(4.50321e-08 -2.99428e-08 0)
(5.11146e-08 -3.17372e-08 0)
(5.74662e-08 -3.22563e-08 0)
(6.31893e-08 -3.27848e-08 0)
(6.90655e-08 -3.25822e-08 0)
(7.48855e-08 -3.17839e-08 0)
(8.03444e-08 -3.11667e-08 0)
(8.48954e-08 -3.03033e-08 0)
(8.90319e-08 -2.9428e-08 0)
(9.25676e-08 -2.87733e-08 0)
(9.56359e-08 -2.82076e-08 0)
(9.87132e-08 -2.7702e-08 0)
(1.01462e-07 -2.75063e-08 0)
(1.04016e-07 -2.74104e-08 0)
(1.06815e-07 -2.74138e-08 0)
(1.09133e-07 -2.6438e-08 0)
(1.10744e-07 -2.57705e-08 0)
(1.12436e-07 -2.52241e-08 0)
(1.14182e-07 -2.48925e-08 0)
(1.15557e-07 -2.4121e-08 0)
(1.16995e-07 -2.32458e-08 0)
(1.18661e-07 -2.22192e-08 0)
(1.20139e-07 -2.09698e-08 0)
(1.21651e-07 -1.86085e-08 0)
(1.22367e-07 -1.58616e-08 0)
(1.22784e-07 -1.26807e-08 0)
(1.23722e-07 -9.03454e-09 0)
(1.24216e-07 -5.28236e-09 0)
(1.24307e-07 -1.49008e-09 0)
(1.23937e-07 2.17855e-09 0)
(1.22975e-07 5.8145e-09 0)
(1.20247e-07 9.10552e-09 0)
(1.15935e-07 1.13767e-08 0)
(1.12146e-07 1.43749e-08 0)
(1.09088e-07 1.619e-08 0)