/*--------------------------------*- C++ -*----------------------------------*\
  =========                 |
  \\      /  F ield         | OpenFOAM: The Open Source CFD Toolbox
   \\    /   O peration     | Website:  https://openfoam.org
    \\  /    A nd           | Version:  7
     \\/     M anipulation  |
\*---------------------------------------------------------------------------*/
FoamFile
{
    version     2.0;
    format      ascii;
    class       volScalarField;
    location    "0.6";
    object      p;
}
// * * * * * * * * * * * * * * * * * * * * * * * * * * * * * * * * * * * * * //

dimensions      [1 -1 -2 0 0 0 0];

internalField   nonuniform List<scalar> 
252
(
1
1
1
4.73689
10.6645
10.9373
1
1
1
4.03459
10.1556
11.1594
1
1
1
2.46156
8.29613
7.99376
1
1
1
1.18861
5.02453
7.76287
1
1
1
1.00387
1.93479
6.06903
1
1
1
1.00001
1.05952
3.09087
1
1
1
1
1.00042
1.26951
1
1
1
1
1
1.00703
1
1
1
1
1
1.00003
1
1
1
1
1
1
2.5818
1.11725
0.776904
0.560199
0.473837
0.482592
0.564098
0.648201
0.70633
0.736502
0.755668
0.795616
0.869468
0.924159
0.914197
0.927221
0.987492
1.03641
1.04544
1.04489
1.03836
1.01946
1.00282
1.00005
4.11078
2.36942
1.57358
1.19916
0.945721
0.786539
0.704347
0.667121
0.628866
0.60876
0.622332
0.67025
0.74872
0.844991
0.928753
0.989449
1.04066
1.0562
1.05604
1.05408
1.04168
1.01534
1.00138
1.00001
4.95456
3.38337
2.23662
1.6028
1.26216
1.00064
0.783264
0.679358
0.627768
0.596894
0.600924
0.63345
0.693119
0.784385
0.918432
1.04151
1.07989
1.08153
1.08163
1.07136
1.03485
1.00545
1.00013
0.999999
4.29445
3.91113
3.16332
2.38496
1.86959
1.48406
1.16432
1.03953
0.987079
0.96369
0.950079
0.94918
0.97801
1.04575
1.12607
1.15578
1.15741
1.14654
1.10223
1.0515
1.01234
1.00059
1
0.999999
2.58122
3.26457
3.23501
2.93577
2.56946
2.19591
1.78155
1.61451
1.5523
1.49192
1.40961
1.35736
1.33694
1.31677
1.28755
1.24156
1.18629
1.13184
1.07263
1.01976
1.00134
1.00001
1
1
1.23142
1.97402
2.55087
2.58786
2.51999
2.38032
2.2068
2.09561
1.99009
1.85026
1.70059
1.56822
1.46218
1.37899
1.30448
1.23515
1.16167
1.08392
1.02349
1.00185
1.00002
1
1
1
1.00652
1.11852
1.44002
1.85036
2.09521
2.06679
2.01644
1.98171
1.89994
1.78699
1.66771
1.55666
1.45515
1.35516
1.25752
1.16048
1.07415
1.0183
1.00136
1.00001
1
1
1
1
1.00003
1.00236
1.02573
1.14552
1.39166
1.64668
1.8013
1.84201
1.81797
1.74481
1.62815
1.48966
1.34764
1.2176
1.11185
1.04104
1.0081
1.00051
1
1
1
1
1
1
)
;

boundaryField
{
    inlet
    {
        type            fixedValue;
        value           uniform 1;
    }
    outlet
    {
        type            zeroGradient;
    }
    bottom
    {
        type            symmetryPlane;
    }
    top
    {
        type            symmetryPlane;
    }
    obstacle
    {
        type            zeroGradient;
    }
    defaultFaces
    {
        type            empty;
    }
}


// ************************************************************************* //
