/*--------------------------------*- C++ -*----------------------------------*\
  =========                 |
  \\      /  F ield         | OpenFOAM: The Open Source CFD Toolbox
   \\    /   O peration     | Website:  https://openfoam.org
    \\  /    A nd           | Version:  7
     \\/     M anipulation  |
\*---------------------------------------------------------------------------*/
FoamFile
{
    version     2.0;
    format      ascii;
    class       volVectorField;
    location    "0.6";
    object      U;
}
// * * * * * * * * * * * * * * * * * * * * * * * * * * * * * * * * * * * * * //

dimensions      [0 1 -1 0 0 0 0];

internalField   nonuniform List<vector> 
252
(
(3 -7.02603e-17 0)
(3 7.22548e-17 0)
(3 2.85756e-16 0)
(1.37315 0.0868527 0)
(0.572489 0.0817466 0)
(0.276156 0.175751 0)
(3 -8.84911e-17 0)
(3 -6.96943e-16 0)
(3 -2.02951e-16 0)
(1.65282 0.324955 0)
(0.595367 0.395161 0)
(0.252377 0.613761 0)
(3 6.79934e-17 0)
(3 -1.29619e-16 0)
(3 -6.90479e-16 0)
(2.34921 0.367416 0)
(0.928032 0.763737 0)
(0.746163 0.924937 0)
(3 3.02984e-16 0)
(3 5.9323e-16 0)
(3 1.24572e-16 0)
(3.03618 0.0735291 0)
(1.67156 0.837402 0)
(1.12596 0.987213 0)
(3 1.08639e-16 0)
(3 -3.75488e-17 0)
(3 -3.463e-16 0)
(3.00617 0.00281757 0)
(2.81735 0.387755 0)
(1.60624 0.973352 0)
(3 -5.39745e-17 0)
(3 -3.96906e-16 0)
(3 -9.66477e-16 0)
(3.00002 1.09502e-05 0)
(3.02982 0.0261043 0)
(2.34376 0.645927 0)
(3 -1.13026e-16 0)
(3 -2.64389e-16 0)
(3 -5.85679e-16 0)
(3 2.46966e-09 0)
(3.0004 0.000335365 0)
(2.93315 0.133012 0)
(3 -1.07366e-17 0)
(3 -3.55513e-16 0)
(3 -3.71472e-16 0)
(3 1.09395e-13 0)
(3 2.46183e-07 0)
(2.99945 0.00470544 0)
(3 -5.26623e-17 0)
(3 -4.77769e-16 0)
(3 -5.00376e-16 0)
(3 1.89998e-15 0)
(3 1.46119e-11 0)
(3 2.06557e-05 0)
(3 -1.05088e-16 0)
(3 -4.59586e-16 0)
(3 -2.55482e-17 0)
(3 8.62646e-16 0)
(3 8.14858e-16 0)
(3 1.01825e-08 0)
(1.65678 0.931076 0)
(2.1364 0.962565 0)
(2.4816 0.597725 0)
(2.74439 0.508857 0)
(2.9095 0.32233 0)
(2.89289 0.10517 0)
(2.88009 -0.0759297 0)
(2.86042 -0.199882 0)
(2.87935 -0.24463 0)
(2.91841 -0.249605 0)
(2.95632 -0.224369 0)
(2.9783 -0.190614 0)
(2.98058 -0.151934 0)
(2.96156 -0.10472 0)
(2.93719 -0.056459 0)
(2.94346 -0.0260185 0)
(2.99344 -0.00749453 0)
(3.03122 0.00012397 0)
(3.03482 0.00114046 0)
(3.03347 0.00125789 0)
(3.02717 0.00132523 0)
(3.01336 0.000739183 0)
(3.00196 0.000101745 0)
(3.00004 9.2422e-07 0)
(1.82085 0.759827 0)
(2.22969 0.540321 0)
(2.54367 0.212044 0)
(2.73965 -0.0452578 0)
(2.88761 -0.189639 0)
(2.95948 -0.272628 0)
(2.92056 -0.370559 0)
(2.91152 -0.405088 0)
(2.92152 -0.404991 0)
(2.94352 -0.399641 0)
(2.96957 -0.360312 0)
(2.98796 -0.298558 0)
(2.99 -0.254187 0)
(2.98871 -0.226106 0)
(2.99432 -0.173823 0)
(3.01753 -0.0943668 0)
(3.04585 -0.0320364 0)
(3.05178 -0.0080853 0)
(3.0492 -0.00359076 0)
(3.04263 0.00116361 0)
(3.02801 0.00448675 0)
(3.01004 0.00256684 0)
(3.00094 0.000244253 0)
(3.00001 9.73272e-07 0)
(1.77848 0.970039 0)
(2.11423 0.799248 0)
(2.34815 0.651361 0)
(2.55759 0.427109 0)
(2.72169 0.24186 0)
(2.82956 0.235662 0)
(2.86195 0.177812 0)
(2.87691 0.0443439 0)
(2.8919 0.0128055 0)
(2.92918 -0.0098392 0)
(2.97349 -0.0131558 0)
(3.00733 -0.00353877 0)
(3.02459 -0.00522899 0)
(3.03244 -0.0121476 0)
(3.05956 -0.0130889 0)
(3.09418 -0.000790064 0)
(3.08696 0.00915938 0)
(3.07461 0.0111673 0)
(3.06491 0.0160355 0)
(3.04795 0.0173864 0)
(3.02196 0.0106996 0)
(3.00346 0.00178387 0)
(3.00008 3.9936e-05 0)
(3 -7.25162e-07 0)
(2.02919 0.944956 0)
(2.10926 0.950752 0)
(2.28209 0.865267 0)
(2.47936 0.709646 0)
(2.6584 0.531511 0)
(2.77299 0.448055 0)
(2.89962 0.251342 0)
(2.97597 0.0821232 0)
(3.02024 0.0200232 0)
(3.06831 -0.0345662 0)
(3.10625 -0.0377145 0)
(3.1357 -0.0262374 0)
(3.15562 -0.0199595 0)
(3.16479 0.00250571 0)
(3.15909 0.0416307 0)
(3.13403 0.0580311 0)
(3.11818 0.0570357 0)
(3.09995 0.0502285 0)
(3.06439 0.0380827 0)
(3.03106 0.0210989 0)
(3.00732 0.00482989 0)
(3.00037 0.000200428 0)
(3 3.30163e-08 0)
(3 -5.58354e-07 0)
(2.54202 0.573359 0)
(2.34231 0.844767 0)
(2.39894 0.851434 0)
(2.48933 0.847919 0)
(2.61198 0.784184 0)
(2.71299 0.714702 0)
(2.8286 0.582745 0)
(2.95498 0.489625 0)
(3.03547 0.431394 0)
(3.06912 0.364913 0)
(3.10663 0.325187 0)
(3.15297 0.286337 0)
(3.17674 0.233541 0)
(3.17376 0.19166 0)
(3.16086 0.161919 0)
(3.13932 0.124201 0)
(3.10986 0.0915328 0)
(3.07528 0.0638573 0)
(3.03946 0.0343316 0)
(3.0109 0.00886641 0)
(3.00079 0.000545847 0)
(3.00001 3.31204e-06 0)
(3 -2.24297e-07 0)
(3 -1.70993e-07 0)
(2.9441 0.117953 0)
(2.70052 0.472021 0)
(2.60904 0.628781 0)
(2.63942 0.709477 0)
(2.68675 0.730453 0)
(2.73759 0.740057 0)
(2.84106 0.711228 0)
(2.94179 0.664253 0)
(3.01146 0.593612 0)
(3.05158 0.527387 0)
(3.09106 0.454793 0)
(3.12342 0.374862 0)
(3.14037 0.296951 0)
(3.14198 0.229895 0)
(3.13214 0.174405 0)
(3.10945 0.129346 0)
(3.07541 0.0871777 0)
(3.0397 0.0446381 0)
(3.01181 0.0120108 0)
(3.00102 0.000871747 0)
(3.00001 7.61088e-06 0)
(3 -3.88578e-08 0)
(3 -4.86489e-08 0)
(3 -1.57605e-08 0)
(2.99904 0.00421202 0)
(2.96776 0.071701 0)
(2.87948 0.245124 0)
(2.80378 0.409922 0)
(2.76409 0.547662 0)
(2.84549 0.593565 0)
(2.90988 0.572415 0)
(2.97141 0.530506 0)
(3.00756 0.497587 0)
(3.0472 0.450196 0)
(3.07952 0.389574 0)
(3.10164 0.325484 0)
(3.1115 0.266644 0)
(3.10405 0.21119 0)
(3.0834 0.155134 0)
(3.0565 0.0969291 0)
(3.02928 0.0440108 0)
(3.00818 0.0104208 0)
(3.00068 0.000733461 0)
(3.00001 7.25733e-06 0)
(3 -8.61127e-10 0)
(3 -9.82004e-09 0)
(3 -3.61308e-09 0)
(3 -2.26033e-10 0)
(3 1.63939e-05 0)
(2.99947 0.00140153 0)
(2.99321 0.0141179 0)
(2.9526 0.070613 0)
(2.88354 0.168562 0)
(2.85963 0.250059 0)
(2.88155 0.287641 0)
(2.93459 0.272353 0)
(2.9539 0.262894 0)
(2.98208 0.24529 0)
(3.00955 0.215992 0)
(3.0296 0.178746 0)
(3.03905 0.136267 0)
(3.03876 0.0917647 0)
(3.02817 0.0502502 0)
(3.01353 0.0193303 0)
(3.00324 0.00395139 0)
(3.00023 0.000254824 0)
(3 2.497e-06 0)
(3 1.38101e-09 0)
(3 -1.27654e-09 0)
(3 -6.00691e-10 0)
(3 -5.31789e-11 0)
(3 -3.38851e-13 0)
)
;

boundaryField
{
    inlet
    {
        type            fixedValue;
        value           uniform (3 0 0);
    }
    outlet
    {
        type            inletOutlet;
        inletValue      uniform (3 0 0);
        value           nonuniform List<vector> 8((3.00004 9.2422e-07 0) (3.00001 9.73272e-07 0) (3 -7.25162e-07 0) (3 -5.58354e-07 0) (3 -1.70993e-07 0) (3 -1.57605e-08 0) (3 -2.26033e-10 0) (3 -3.38851e-13 0));
    }
    bottom
    {
        type            symmetryPlane;
    }
    top
    {
        type            symmetryPlane;
    }
    obstacle
    {
        type            slip;
    }
    defaultFaces
    {
        type            empty;
    }
}


// ************************************************************************* //
