/*--------------------------------*- C++ -*----------------------------------*\
  =========                 |
  \\      /  F ield         | OpenFOAM: The Open Source CFD Toolbox
   \\    /   O peration     | Website:  https://openfoam.org
    \\  /    A nd           | Version:  9
     \\/     M anipulation  |
\*---------------------------------------------------------------------------*/
FoamFile
{
    format      ascii;
    class       volScalarField;
    location    "0.5";
    object      T;
}
// * * * * * * * * * * * * * * * * * * * * * * * * * * * * * * * * * * * * * //

dimensions      [0 0 0 1 0 0 0];

internalField   nonuniform List<scalar> 
252
(
1
1
1
2.13315
3.11761
3.21075
1
1
1
1.82304
2.98153
3.25224
1
1
1
1.25106
2.4977
3.00934
1
1
1
1.0083
1.78477
2.71129
1
1
1
1.00002
1.12231
2.16469
1
1
1
1
1.00234
1.43296
1
1
1
1
1
1.03381
1
1
1
1
1
1.00036
1
1
1
1
1
1
1
1
1
1
1
1
2.21697
1.73041
1.42154
1.30728
1.33711
1.33295
1.30613
1.27146
1.21802
1.14385
1.07558
1.02884
1.01328
1.01485
1.01575
1.01298
1.00836
1.00346
1.00048
1.00001
0.999999
0.999999
1
1
2.3297
2.02487
1.81282
1.64651
1.54634
1.44704
1.36493
1.29552
1.2278
1.16127
1.1047
1.06345
1.03929
1.02456
1.01723
1.01423
1.01022
1.00392
1.00037
1
0.999999
0.999999
1
1
2.15865
2.05364
1.92068
1.78632
1.62679
1.48914
1.3775
1.2838
1.20005
1.13304
1.09266
1.06815
1.04782
1.03488
1.02662
1.01684
1.00796
1.00171
1.00006
1
1
1
1
1
1.75673
1.84978
1.83114
1.78195
1.68207
1.56607
1.45787
1.34952
1.25508
1.18138
1.1262
1.08553
1.05727
1.03866
1.02588
1.01456
1.00416
1.00028
1
1
1
1
1
1
1.26605
1.44842
1.55958
1.56085
1.52489
1.45428
1.37393
1.28998
1.21318
1.15271
1.10725
1.07373
1.05056
1.03336
1.01866
1.00628
1.00064
1.00001
1
1
1
1
1
1
1.01819
1.10288
1.23743
1.29825
1.29246
1.2657
1.22789
1.18695
1.14724
1.11089
1.0803
1.05514
1.03432
1.01763
1.00562
1.00063
1.00001
1
1
1
1
1
1
1
1.00014
1.00402
1.03091
1.07805
1.10459
1.11036
1.10488
1.09366
1.07753
1.05847
1.03933
1.02239
1.00994
1.00278
1.0003
1.00001
1
1
1
1
1
1
1
1
1
1.00002
1.0005
1.00304
1.00815
1.01367
1.01631
1.01589
1.01366
1.00965
1.00532
1.00216
1.00056
1.00006
1
1
1
1
1
1
1
1
1
1
)
;

boundaryField
{
    inlet
    {
        type            fixedValue;
        value           uniform 1;
    }
    outlet
    {
        type            inletOutlet;
        inletValue      uniform 1;
        value           uniform 1;
    }
    bottom
    {
        type            symmetryPlane;
    }
    top
    {
        type            symmetryPlane;
    }
    obstacle
    {
        type            zeroGradient;
    }
    defaultFaces
    {
        type            empty;
    }
}


// ************************************************************************* //
