# Probe 0 (5.5 0.5 0)
# Probe 1 (5.5 -0.5 0)
#       Probe             0             1
#        Time
            0 -1.79769e+307 -1.79769e+307
          0.1 -1.79769e+307 -1.79769e+307
          0.2 -1.79769e+307 -1.79769e+307
          0.3 -1.79769e+307 -1.79769e+307
          0.4 -1.79769e+307 -1.79769e+307
          0.5 -1.79769e+307 -1.79769e+307
          0.6 -1.79769e+307 -1.79769e+307
          0.7 -1.79769e+307 -1.79769e+307
          0.8 -1.79769e+307 -1.79769e+307
          0.9 -1.79769e+307 -1.79769e+307
            1 -1.79769e+307 -1.79769e+307
          1.1 -1.79769e+307 -1.79769e+307
          1.2 -1.79769e+307 -1.79769e+307
          1.3 -1.79769e+307 -1.79769e+307
          1.4 -1.79769e+307 -1.79769e+307
          1.5 -1.79769e+307 -1.79769e+307
          1.6 -1.79769e+307 -1.79769e+307
          1.7 -1.79769e+307 -1.79769e+307
          1.8 -1.79769e+307 -1.79769e+307
          1.9 -1.79769e+307 -1.79769e+307
            2 -1.79769e+307 -1.79769e+307
          2.1 -1.79769e+307 -1.79769e+307
          2.2 -1.79769e+307 -1.79769e+307
          2.3 -1.79769e+307 -1.79769e+307
          2.4 -1.79769e+307 -1.79769e+307
          2.5 -1.79769e+307 -1.79769e+307
          2.6 -1.79769e+307 -1.79769e+307
          2.7 -1.79769e+307 -1.79769e+307
          2.8 -1.79769e+307 -1.79769e+307
          2.9 -1.79769e+307 -1.79769e+307
            3 -1.79769e+307 -1.79769e+307
          3.1 -1.79769e+307 -1.79769e+307
          3.2 -1.79769e+307 -1.79769e+307
          3.3 -1.79769e+307 -1.79769e+307
          3.4 -1.79769e+307 -1.79769e+307
          3.5 -1.79769e+307 -1.79769e+307
          3.6 -1.79769e+307 -1.79769e+307
          3.7 -1.79769e+307 -1.79769e+307
          3.8 -1.79769e+307 -1.79769e+307
          3.9 -1.79769e+307 -1.79769e+307
            4 -1.79769e+307 -1.79769e+307
          4.1 -1.79769e+307 -1.79769e+307
          4.2 -1.79769e+307 -1.79769e+307
          4.3 -1.79769e+307 -1.79769e+307
          4.4 -1.79769e+307 -1.79769e+307
          4.5 -1.79769e+307 -1.79769e+307
          4.6 -1.79769e+307 -1.79769e+307
          4.7 -1.79769e+307 -1.79769e+307
          4.8 -1.79769e+307 -1.79769e+307
          4.9 -1.79769e+307 -1.79769e+307
            5 -1.79769e+307 -1.79769e+307
          5.1 -1.79769e+307 -1.79769e+307
          5.2 -1.79769e+307 -1.79769e+307
          5.3 -1.79769e+307 -1.79769e+307
          5.4 -1.79769e+307 -1.79769e+307
          5.5 -1.79769e+307 -1.79769e+307
          5.6 -1.79769e+307 -1.79769e+307
          5.7 -1.79769e+307 -1.79769e+307
          5.8 -1.79769e+307 -1.79769e+307
          5.9 -1.79769e+307 -1.79769e+307
            6 -1.79769e+307 -1.79769e+307
          6.1 -1.79769e+307 -1.79769e+307
          6.2 -1.79769e+307 -1.79769e+307
          6.3 -1.79769e+307 -1.79769e+307
          6.4 -1.79769e+307 -1.79769e+307
          6.5 -1.79769e+307 -1.79769e+307
          6.6 -1.79769e+307 -1.79769e+307
          6.7 -1.79769e+307 -1.79769e+307
          6.8 -1.79769e+307 -1.79769e+307
          6.9 -1.79769e+307 -1.79769e+307
            7 -1.79769e+307 -1.79769e+307
          7.1 -1.79769e+307 -1.79769e+307
          7.2 -1.79769e+307 -1.79769e+307
          7.3 -1.79769e+307 -1.79769e+307
          7.4 -1.79769e+307 -1.79769e+307
          7.5 -1.79769e+307 -1.79769e+307
          7.6 -1.79769e+307 -1.79769e+307
          7.7 -1.79769e+307 -1.79769e+307
          7.8 -1.79769e+307 -1.79769e+307
          7.9 -1.79769e+307 -1.79769e+307
            8 -1.79769e+307 -1.79769e+307
          8.1 -1.79769e+307 -1.79769e+307
          8.2 -1.79769e+307 -1.79769e+307
          8.3 -1.79769e+307 -1.79769e+307
          8.4 -1.79769e+307 -1.79769e+307
          8.5 -1.79769e+307 -1.79769e+307
          8.6 -1.79769e+307 -1.79769e+307
          8.7 -1.79769e+307 -1.79769e+307
          8.8 -1.79769e+307 -1.79769e+307
          8.9 -1.79769e+307 -1.79769e+307
            9 -1.79769e+307 -1.79769e+307
          9.1 -1.79769e+307 -1.79769e+307
          9.2 -1.79769e+307 -1.79769e+307
          9.3 -1.79769e+307 -1.79769e+307
          9.4 -1.79769e+307 -1.79769e+307
          9.5 -1.79769e+307 -1.79769e+307
          9.6 -1.79769e+307 -1.79769e+307
