/*--------------------------------*- C++ -*----------------------------------*\
  =========                 |
  \\      /  F ield         | OpenFOAM: The Open Source CFD Toolbox
   \\    /   O peration     | Website:  https://openfoam.org
    \\  /    A nd           | Version:  9
     \\/     M anipulation  |
\*---------------------------------------------------------------------------*/
FoamFile
{
    format      ascii;
    class       surfaceScalarField;
    location    "51";
    object      phi;
}
// * * * * * * * * * * * * * * * * * * * * * * * * * * * * * * * * * * * * * //

dimensions      [0 3 -1 0 0 0 0];

internalField   nonuniform List<scalar> 
16735
(
-0.00298922
0.00299018
-9.60621e-07
-0.00897717
0.00598934
-1.3945e-06
-0.0168432
0.00786729
-1.24191e-06
-0.025863
0.0090206
-8.384e-07
-0.0359283
0.0100655
-2.05954e-07
-0.0464604
0.0105314
7.53037e-07
-0.05855
0.0120873
2.31919e-06
-0.0695095
0.0109548
4.5967e-06
-0.0842521
0.0147347
7.96261e-06
0.0110908
1.2619e-05
-0.0953555
-0.002938
0.00592818
-0.00883055
0.0118819
-0.0165601
0.0155969
-0.0253935
0.017854
-0.0352093
0.0198814
-0.0453975
0.0207196
-0.057043
0.0237327
-0.0673589
0.0212708
-0.0813873
0.028763
0.0209418
-0.0912382
-0.00283776
0.00876594
-0.00854237
0.0175865
-0.016002
0.0230565
-0.0244658
0.0263177
-0.0337839
0.0291994
-0.0432901
0.0302258
-0.0540384
0.0344809
-0.0630787
0.0303111
-0.0756903
0.0413747
0.0283373
-0.0830859
-0.00269278
0.0114587
-0.0081226
0.0230163
-0.0151849
0.0301188
-0.0231022
0.034235
-0.0316765
0.0377738
-0.0401748
0.0387241
-0.049554
0.0438602
-0.0567024
0.0374595
-0.0672052
0.0518775
0.0321664
-0.0710343
-0.00250927
0.013968
-0.00758565
0.0280927
-0.0141319
0.036665
-0.021335
0.0414381
-0.0289234
0.0453622
-0.0361045
0.0459052
-0.0436135
0.0513692
-0.0482636
0.0421096
-0.0559426
0.0595565
0.0314366
-0.0552128
-0.00229508
0.0162631
-0.0069498
0.0327474
-0.012871
0.0425862
-0.0192052
0.0477723
-0.0255707
0.0517277
-0.0311471
0.0514815
-0.0362433
0.0564654
-0.0377892
0.0436556
-0.0418131
0.0635804
0.0252676
-0.0356441
-0.00205935
0.0183224
-0.0062364
0.0369245
-0.0114356
0.0477854
-0.0167602
0.0530969
-0.0216715
0.056639
-0.0253803
0.0551903
-0.0274692
0.0585543
-0.025312
0.0414984
-0.0245469
0.0628152
0.0128882
-0.0121675
-0.00181208
0.0201345
-0.00546882
0.0405812
-0.00986222
0.0521788
-0.0140497
0.0572844
-0.0172798
0.0598691
-0.0188815
0.056792
-0.0173014
0.0569742
-0.010929
0.035126
-0.00352606
0.0554123
-0.00702565
0.0163878
-0.00156362
0.0216981
-0.0046711
0.0436887
-0.0081883
0.055696
-0.0111214
0.0602174
-0.0124415
0.0611892
-0.0117102
0.0560607
-0.00566543
0.0509294
0.00546116
0.0239994
0.0205805
0.040293
-0.0375535
0.0511084
-0.00132406
0.0230222
-0.0038664
0.046231
-0.00644917
0.0582788
-0.00801406
0.0617823
-0.00717951
0.0603547
-0.00390104
0.0527822
0.00716689
0.0398615
0.024299
0.00686728
0.0490127
0.0155792
-0.0811542
0.0926134
-0.00110255
0.0241247
-0.00307516
0.0482037
-0.00467465
0.0598783
-0.00475246
0.0618601
-0.00144809
0.0570503
0.00488065
0.0464535
0.0214427
0.0232994
0.0450565
-0.0167465
0.0820091
-0.0213734
-0.140388
0.141243
-0.000906639
0.0250314
-0.00231294
0.04961
-0.00288431
0.0604496
-0.00135089
0.0603267
0.00458193
0.0511175
0.0148487
0.0361867
0.0377848
0.000363357
0.0686096
-0.0475713
0.119818
-0.0725816
-0.216463
0.195893
-0.00074159
0.0257729
-0.00158833
0.0504567
-0.00107826
0.0599396
0.00229454
0.0569539
0.011184
0.0422281
0.026211
0.0211597
0.0565231
-0.0299488
0.0963124
-0.0873605
0.162768
-0.139037
-0.307413
0.253717
-0.000609876
0.0263828
-0.000901192
0.050748
0.000747046
0.0582913
0.0062096
0.0514914
0.0185549
0.0298828
0.0395258
0.000188784
0.0780155
-0.0684385
0.129233
-0.138578
0.21045
-0.220255
-0.407526
0.310564
-0.000511839
0.0268947
-0.000238946
0.0504751
0.00262951
0.0554229
0.0104821
0.0436388
0.0269287
0.0134362
0.0553036
-0.0281861
0.102627
-0.115762
0.16699
-0.202941
0.26041
-0.313674
-0.509066
0.36195
-0.000438423
0.0273331
0.000417187
0.0496195
0.00466727
0.0511728
0.0153061
0.033
0.0366447
-0.00790249
0.0738496
-0.065391
0.130573
-0.172486
0.207493
-0.279861
0.308024
-0.414205
-0.605166
0.404124
-0.000378621
0.0277117
0.00110802
0.0481329
0.00696278
0.045318
0.0209403
0.0190225
0.0481532
-0.0351154
0.0951473
-0.112385
0.161339
-0.238677
0.247543
-0.366064
0.348354
-0.515017
-0.691674
0.434862
-0.000320104
0.0280318
0.00188523
0.0459275
0.00965186
0.0375514
0.0276912
0.000983186
0.0618929
-0.0693172
0.118815
-0.169307
0.193204
-0.313066
0.283609
-0.456469
0.378245
-0.609654
-0.76718
0.453751
-0.00024607
0.0282779
0.00280854
0.0428729
0.0128945
0.0274655
0.0358667
-0.021989
0.0780539
-0.111504
0.143949
-0.235203
0.223606
-0.392722
0.312745
-0.545608
0.396978
-0.693887
-0.832219
0.462018
-0.000136299
0.0284142
0.00394432
0.0387923
0.0168669
0.0145429
0.0457052
-0.0508274
0.096332
-0.162131
0.169023
-0.307893
0.250061
-0.473761
0.333402
-0.628949
0.405608
-0.766093
-0.888881
0.462269
3.07261e-05
0.0283835
0.00536287
0.0334602
0.0217494
-0.00184358
0.0572783
-0.0863563
0.115845
-0.220698
0.192172
-0.384221
0.270855
-0.552444
0.345544
-0.703639
0.407141
-0.827689
-0.944884
0.463144
0.000248569
0.0281349
0.00713861
0.0265701
0.0277
-0.0224049
0.0703801
-0.129036
0.13528
-0.285597
0.211775
-0.460716
0.285258
-0.625927
0.350304
-0.768685
0.405197
-0.882582
-0.993474
0.453787
0.000555525
0.0275794
0.00934912
0.0177765
0.0348037
-0.0478595
0.0844699
-0.178703
0.153218
-0.354346
0.226852
-0.534349
0.293446
-0.692521
0.34988
-0.825119
0.397547
-0.93025
-1.03474
0.438815
0.000961874
0.0266175
0.0120716
0.00666678
0.0430052
-0.0787931
0.0987278
-0.234425
0.168491
-0.424109
0.237118
-0.602977
0.296284
-0.751687
0.344951
-0.873786
0.3865
-0.971799
-1.07169
0.423449
0.00147899
0.0251385
0.0153729
-0.00722714
0.0520661
-0.115486
0.112218
-0.294577
0.180396
-0.492287
0.242832
-0.665413
0.29466
-0.803515
0.336693
-0.915818
0.373219
-1.00832
-1.10463
0.40616
0.00212081
0.0230177
0.0192832
-0.0243895
0.0615815
-0.157785
0.124094
-0.35709
0.188707
-0.5569
0.244497
-0.721202
0.289523
-0.848541
0.325946
-0.952241
0.358231
-1.04061
-1.13448
0.388083
0.0029088
0.0201089
0.0237647
-0.0452454
0.0710415
-0.205061
0.133758
-0.419807
0.193542
-0.616684
0.242735
-0.770395
0.281672
-0.887479
0.31338
-0.98395
0.342163
-1.06939
-1.16164
0.369322
0.00387576
0.0162331
0.0286987
-0.0700684
0.0798991
-0.256262
0.140923
-0.480831
0.195217
-0.670978
0.238166
-0.813344
0.271771
-0.921083
0.299516
-1.01169
0.325291
-1.09517
-1.1864
0.350045
0.00506185
0.0111713
0.033901
-0.0989075
0.0876549
-0.310016
0.145561
-0.538737
0.194141
-0.719557
0.231358
-0.850561
0.260347
-0.950071
0.284722
-1.03607
0.307866
-1.11831
-1.20894
0.330404
0.00649838
0.00467289
0.0391534
-0.131563
0.0939505
-0.364813
0.147814
-0.5926
0.190743
-0.762487
0.222801
-0.882619
0.247806
-0.975077
0.26927
-1.05753
0.290034
-1.13908
-1.22935
0.310447
0.00818522
-0.00351233
0.0442334
-0.167611
0.0986089
-0.419188
0.147908
-0.6419
0.185436
-0.800015
0.212901
-0.910083
0.234458
-0.996634
0.253351
-1.07643
0.271901
-1.15763
-1.2477
0.290248
0.0100781
-0.0135905
0.0489246
-0.206457
0.101603
-0.471866
0.146109
-0.686406
0.17859
-0.832496
0.201989
-0.933481
0.220532
-1.01518
0.237101
-1.093
0.253542
-1.17407
-1.264
0.269843
0.0120969
-0.0256873
0.0530239
-0.247384
0.103003
-0.521845
0.142686
-0.726089
0.170525
-0.860335
0.190327
-0.953283
0.206199
-1.03105
0.220618
-1.10742
0.235013
-1.18846
-1.27826
0.249273
0.0141461
-0.0398334
0.0563598
-0.289598
0.102933
-0.568419
0.137896
-0.761052
0.16151
-0.88395
0.17812
-0.969893
0.191585
-1.04451
0.203971
-1.1198
0.216358
-1.20085
-1.29047
0.228573
0.0161384
-0.0559718
0.058814
-0.332274
0.101548
-0.611153
0.131976
-0.79148
0.151767
-0.90374
0.165528
-0.983655
0.176782
-1.05577
0.187211
-1.13023
0.197612
-1.21125
-1.30063
0.207775
0.0180025
-0.0739743
0.0603309
-0.374602
0.09901
-0.649832
0.125141
-0.817611
0.141476
-0.920076
0.152672
-0.99485
0.161862
-1.06496
0.170382
-1.13875
0.178808
-1.21968
-1.30874
0.186914
0.0196801
-0.0936544
0.0609105
-0.415832
0.0954815
-0.684403
0.117579
-0.839708
0.130788
-0.933285
0.139645
-1.00371
0.146876
-1.07219
0.153518
-1.14539
0.159976
-1.22613
-1.31479
0.166021
0.0211183
-0.114773
0.0605924
-0.455307
0.0911147
-0.714925
0.109453
-0.858046
0.119823
-0.943655
0.126522
-1.01041
0.131869
-1.07754
0.136652
-1.15018
0.141145
-1.23063
-1.31877
0.14513
0.0222668
-0.137039
0.0594348
-0.492475
0.0860481
-0.741538
0.100903
-0.872902
0.108679
-0.95143
0.113358
-1.01509
0.116874
-1.08105
0.119811
-1.15311
0.122344
-1.23316
-1.3207
0.124276
0.0230824
-0.160122
0.0575236
-0.526916
0.080408
-0.764423
0.0920461
-0.88454
0.0974334
-0.956818
0.100199
-1.01785
0.101921
-1.08277
0.10302
-1.15421
0.103602
-1.23374
-1.3206
0.1035
0.0235363
-0.183658
0.0550383
-0.558418
0.0743128
-0.783697
0.0829767
-0.893204
0.0861492
-0.95999
0.0870809
-1.01878
0.0870357
-1.08273
0.0863021
-1.15348
0.0849466
-1.23238
-1.31851
0.0828556
0.0236167
-0.207275
0.0520448
-0.586846
0.067867
-0.799519
0.0737742
-0.899111
0.0748757
-0.961092
0.0740346
-1.01794
0.0722415
-1.08094
0.0696806
-1.15092
0.0663997
-1.2291
-1.31442
0.062308
0.0233289
-0.230604
0.0486147
-0.612132
0.0611611
-0.812066
0.0645053
-0.902455
0.0636528
-0.960239
0.0610855
-1.01537
0.0575605
-1.07741
0.0531815
-1.14654
0.0479789
-1.2239
-1.30831
0.0418747
0.022694
-0.253298
0.0448218
-0.634259
0.0542747
-0.821519
0.0552243
-0.903405
0.0525126
-0.957527
0.048256
-1.01112
0.0430126
-1.07217
0.0368304
-1.14036
0.0297285
-1.2168
-1.30017
0.0215811
0.0217454
-0.275043
0.0407365
-0.653251
0.0472591
-0.828041
0.0459752
-0.902121
0.0414819
-0.953034
0.0355665
-1.0052
0.0286165
-1.06522
0.0206413
-1.13238
0.0117123
-1.20787
-1.28982
0.00136948
0.0205237
-0.295567
0.0364246
-0.669151
0.0401717
-0.831788
0.0367942
-0.898743
0.0305836
-0.946824
0.0230341
-0.997653
0.0143903
-1.05657
0.00459158
-1.12258
-0.00605663
-1.19722
-1.2775
-0.0183847
0.0190724
-0.314639
0.0319462
-0.682025
0.0330655
-0.832908
0.0277122
-0.89339
0.0198359
-0.938947
0.010669
-0.988486
0.000319092
-1.04622
-0.0111195
-1.11114
-0.0237083
-1.18463
-1.26334
-0.0378631
0.0174341
-0.332073
0.027356
-0.691947
0.0259842
-0.831536
0.0187558
-0.886161
0.00924543
-0.929437
-0.00152646
-0.977714
-0.0134206
-1.03433
-0.0265763
-1.09799
-0.0410614
-1.17015
-1.24733
-0.0570745
0.0156487
-0.347722
0.0227022
-0.699001
0.018964
-0.827798
0.00994553
-0.877143
-0.00120062
-0.918291
-0.0134004
-0.965514
-0.0269591
-1.02077
-0.0418028
-1.08314
-0.0581191
-1.15383
-1.22948
-0.0759721
0.0137529
-0.361475
0.0180273
-0.703275
0.0120328
-0.821803
0.00127337
-0.866383
-0.011268
-0.905749
-0.0250873
-0.951695
-0.04025
-1.00561
-0.0567645
-1.06663
-0.074862
-1.13573
-1.2098
-0.0945369
0.0117802
-0.373255
0.0133684
-0.704863
0.00520139
-0.813636
-0.00711554
-0.854067
-0.021174
-0.891691
-0.0365405
-0.936328
-0.0532766
-0.988872
-0.0714366
-1.04847
-0.0912745
-1.1159
-1.18833
-0.11274
0.00976071
-0.383016
0.00876066
-0.703863
-0.00150431
-0.803371
-0.0153287
-0.840242
-0.0308626
-0.876157
-0.0477414
-0.91945
-0.0660225
-0.970591
-0.0857977
-1.02869
-0.107338
-1.09436
-1.16511
-0.13056
0.00771958
-0.390735
0.00424406
-0.700388
-0.00789356
-0.791234
-0.0233398
-0.824796
-0.0403164
-0.85918
-0.0586759
-0.90109
-0.0784726
-0.950794
-0.0998293
-1.00734
-0.123035
-1.07115
-1.14017
-0.147976
0.00567558
-0.396411
-7.77172e-05
-0.694634
-0.0141525
-0.777159
-0.0311339
-0.807814
-0.0495248
-0.84079
-0.0693313
-0.881284
-0.090612
-0.929513
-0.113515
-0.984435
-0.138349
-1.04632
-1.11355
-0.164965
0.00364676
-0.400058
-0.00464042
-0.686347
-0.0202496
-0.76155
-0.0386966
-0.789367
-0.0584761
-0.82101
-0.0796961
-0.860064
-0.102427
-0.906782
-0.12684
-0.960022
-0.153264
-1.01989
-1.08532
-0.181501
0.00166952
-0.401727
-0.0089433
-0.675734
-0.0261664
-0.744327
-0.0460186
-0.769515
-0.0671601
-0.799869
-0.0897588
-0.837465
-0.113904
-0.882637
-0.139791
-0.934135
-0.167761
-0.991924
-1.05552
-0.197558
-0.000218861
-0.401508
-0.0130783
-0.662875
-0.0318932
-0.725512
-0.0530954
-0.748313
-0.075567
-0.777397
-0.0995086
-0.813523
-0.125031
-0.857115
-0.152356
-0.90681
-0.181824
-0.962456
-1.0242
-0.21314
-0.00234711
-0.399161
-0.0170621
-0.64816
-0.0374172
-0.705157
-0.0599209
-0.725809
-0.0836877
-0.75363
-0.108935
-0.788276
-0.135799
-0.83025
-0.164537
-0.878072
-0.195447
-0.931546
-0.991435
-0.228216
-0.00432647
-0.394835
-0.020893
-0.631593
-0.042727
-0.683323
-0.0664895
-0.702047
-0.0915135
-0.728606
-0.118027
-0.761763
-0.1462
-0.802077
-0.176328
-0.847945
-0.208583
-0.899292
-0.95747
-0.242547
-0.00621925
-0.388616
-0.0245682
-0.613244
-0.0478163
-0.660075
-0.0727955
-0.677068
-0.0990364
-0.702365
-0.126777
-0.734023
-0.156224
-0.77263
-0.187682
-0.816487
-0.221241
-0.865732
-0.922707
-0.256005
-0.00803182
-0.380584
-0.0280845
-0.593192
-0.0526805
-0.635479
-0.0788336
-0.650915
-0.106249
-0.67495
-0.135175
-0.705097
-0.165854
-0.741951
-0.198545
-0.783796
-0.232956
-0.831321
-0.885749
-0.269914
-0.00976448
-0.370819
-0.0314386
-0.571518
-0.0573161
-0.609601
-0.0845989
-0.623632
-0.113145
-0.646403
-0.143215
-0.675027
-0.175068
-0.710098
-0.208878
-0.749986
-0.244549
-0.795649
-0.847204
-0.283095
-0.0114158
-0.359403
-0.0346275
-0.548306
-0.0617203
-0.582508
-0.0900869
-0.595265
-0.119718
-0.616772
-0.150887
-0.643859
-0.183867
-0.677118
-0.218819
-0.715034
-0.255868
-0.7586
-0.807321
-0.29575
-0.0129839
-0.346419
-0.0376485
-0.523641
-0.0658906
-0.554266
-0.0952932
-0.565863
-0.125962
-0.586103
-0.158179
-0.611641
-0.192226
-0.643072
-0.228265
-0.678994
-0.266535
-0.72033
-0.766174
-0.307683
-0.0144666
-0.331953
-0.0404992
-0.497609
-0.0698248
-0.524941
-0.100214
-0.535474
-0.131871
-0.554446
-0.165087
-0.578425
-0.200151
-0.608007
-0.23725
-0.641896
-0.276677
-0.680903
-0.723881
-0.318969
-0.0158616
-0.316091
-0.0431775
-0.470293
-0.073521
-0.494597
-0.104845
-0.504149
-0.137438
-0.521853
-0.171599
-0.544264
-0.207627
-0.57198
-0.24573
-0.603793
-0.286233
-0.6404
-0.680515
-0.329599
-0.0171663
-0.298925
-0.0456814
-0.441778
-0.0769772
-0.463301
-0.109184
-0.471943
-0.142659
-0.488378
-0.177711
-0.509212
-0.214648
-0.535043
-0.2537
-0.564741
-0.295209
-0.598892
-0.636148
-0.339576
-0.0183778
-0.280547
-0.0480095
-0.412146
-0.0801917
-0.431119
-0.113226
-0.438908
-0.147529
-0.454075
-0.183415
-0.473325
-0.221204
-0.497254
-0.261146
-0.524799
-0.303591
-0.556447
-0.590847
-0.348892
-0.0194921
-0.261055
-0.0501602
-0.381478
-0.0831631
-0.398116
-0.116969
-0.405103
-0.152042
-0.419003
-0.188705
-0.436662
-0.227288
-0.45867
-0.268058
-0.48403
-0.311369
-0.513135
-0.544678
-0.357539
-0.0205027
-0.240552
-0.0521315
-0.349849
-0.0858903
-0.364357
-0.12041
-0.370583
-0.156194
-0.383218
-0.193574
-0.399283
-0.232891
-0.419352
-0.274425
-0.442496
-0.318534
-0.469025
-0.497708
-0.365504
-0.0213949
-0.219158
-0.0539225
-0.317321
-0.0883729
-0.329907
-0.123546
-0.335411
-0.159982
-0.346782
-0.198017
-0.361248
-0.238007
-0.379362
-0.28024
-0.400262
-0.325076
-0.424189
-0.450008
-0.372777
-0.0222138
-0.196944
-0.0555352
-0.284
-0.0906105
-0.294832
-0.126375
-0.299646
-0.163401
-0.309756
-0.202029
-0.322619
-0.242629
-0.338763
-0.285495
-0.357396
-0.330987
-0.378698
-0.401648
-0.379346
-0.022959
-0.173985
-0.0569705
-0.249988
-0.0926024
-0.2592
-0.128895
-0.263353
-0.166449
-0.272203
-0.205607
-0.283461
-0.246751
-0.297618
-0.290184
-0.313964
-0.336257
-0.332624
-0.352703
-0.385203
-0.0236183
-0.150366
-0.0582279
-0.215379
-0.0943476
-0.22308
-0.131104
-0.226597
-0.169122
-0.234185
-0.208746
-0.243837
-0.250369
-0.255995
-0.294299
-0.270034
-0.340881
-0.286042
-0.303245
-0.390338
-0.0241871
-0.126179
-0.0593068
-0.180259
-0.0958454
-0.186542
-0.133
-0.189442
-0.171417
-0.195768
-0.211442
-0.203812
-0.253477
-0.21396
-0.297833
-0.225678
-0.344852
-0.239024
-0.253354
-0.394743
-0.0246629
-0.101517
-0.0602067
-0.144715
-0.0970948
-0.149654
-0.134582
-0.151955
-0.173334
-0.157017
-0.213693
-0.163453
-0.256072
-0.171582
-0.300783
-0.180966
-0.348162
-0.191645
-0.203102
-0.398414
-0.0250445
-0.076472
-0.0609271
-0.108833
-0.0980951
-0.112485
-0.13585
-0.1142
-0.174869
-0.117998
-0.215497
-0.122825
-0.258151
-0.128928
-0.303145
-0.135972
-0.350809
-0.143981
-0.152566
-0.401345
-0.0253312
-0.0511409
-0.0614677
-0.0726962
-0.0988459
-0.0751072
-0.136801
-0.076245
-0.176021
-0.0787771
-0.216851
-0.0819953
-0.259712
-0.0860667
-0.304918
-0.0907656
-0.352795
-0.0961041
-0.101822
-0.403538
-0.0255225
-0.0256184
-0.0618282
-0.0363905
-0.0993466
-0.0375888
-0.137436
-0.0381561
-0.17679
-0.0394223
-0.217754
-0.0410314
-0.260753
-0.0430679
-0.306101
-0.0454181
-0.354118
-0.0480871
-0.0509441
-0.404996
-0.0256182
-1.96537e-07
-0.0620085
-2.50588e-07
-0.099597
-2.36408e-07
-0.137753
-2.17216e-07
-0.177175
-1.99121e-07
-0.218206
-1.81744e-07
-0.261274
-1.65619e-07
-0.306692
-1.51e-07
-0.354779
-1.37815e-07
-1.25391e-07
-0.405723
-0.0256182
0.025618
-0.0620085
0.03639
-0.099597
0.0375883
-0.137753
0.0381557
-0.177175
0.0394219
-0.218206
0.041031
-0.261274
0.0430676
-0.306692
0.0454178
-0.354779
0.0480868
0.0509439
-0.405723
-0.0255225
0.0511405
-0.0618282
0.0726957
-0.0993466
0.0751067
-0.137436
0.0762446
-0.17679
0.0787767
-0.217754
0.0819949
-0.260753
0.0860663
-0.306101
0.0907653
-0.354118
0.0961038
0.101822
-0.404996
-0.0253312
0.0764716
-0.0614676
0.108832
-0.0988459
0.112485
-0.136801
0.1142
-0.176021
0.117997
-0.216851
0.122824
-0.259712
0.128927
-0.304918
0.135972
-0.352795
0.14398
0.152566
-0.403538
-0.0250445
0.101516
-0.0609271
0.144715
-0.0980951
0.149653
-0.13585
0.151954
-0.174869
0.157016
-0.215497
0.163452
-0.258151
0.171581
-0.303145
0.180966
-0.350809
0.191645
0.203102
-0.401345
-0.0246629
0.126179
-0.0602066
0.180259
-0.0970948
0.186541
-0.134582
0.189442
-0.173334
0.195767
-0.213693
0.203812
-0.256072
0.21396
-0.300783
0.225677
-0.348162
0.239023
0.253353
-0.398414
-0.0241871
0.150366
-0.0593068
0.215378
-0.0958454
0.22308
-0.133
0.226597
-0.171417
0.234185
-0.211442
0.243836
-0.253477
0.255995
-0.297833
0.270034
-0.344852
0.286042
0.303245
-0.394743
-0.0236183
0.173984
-0.0582279
0.249988
-0.0943476
0.259199
-0.131104
0.263353
-0.169122
0.272202
-0.208746
0.283461
-0.250369
0.297618
-0.294299
0.313963
-0.340881
0.332624
0.352702
-0.390338
-0.022959
0.196943
-0.0569705
0.283999
-0.0926023
0.294831
-0.128895
0.299646
-0.166449
0.309756
-0.205607
0.322619
-0.246751
0.338762
-0.290184
0.357396
-0.336257
0.378698
0.401648
-0.385203
-0.0222138
0.219157
-0.0555352
0.317321
-0.0906105
0.329907
-0.126375
0.33541
-0.163401
0.346782
-0.202029
0.361247
-0.242629
0.379362
-0.285495
0.400262
-0.330987
0.424189
0.450008
-0.379346
-0.0213949
0.240552
-0.0539225
0.349848
-0.0883729
0.364357
-0.123546
0.370583
-0.159982
0.383218
-0.198017
0.399283
-0.238007
0.419352
-0.28024
0.442495
-0.325076
0.469025
0.497708
-0.372777
-0.0205027
0.261055
-0.0521315
0.381477
-0.0858903
0.398116
-0.12041
0.405102
-0.156194
0.419002
-0.193573
0.436662
-0.232891
0.45867
-0.274425
0.484029
-0.318534
0.513134
0.544678
-0.365504
-0.0194921
0.280547
-0.0501602
0.412145
-0.0831631
0.431119
-0.116969
0.438908
-0.152042
0.454075
-0.188704
0.473325
-0.227288
0.497253
-0.268057
0.524799
-0.311369
0.556446
0.590847
-0.357539
-0.0183777
0.298925
-0.0480095
0.441777
-0.0801917
0.463301
-0.113226
0.471942
-0.147528
0.488378
-0.183415
0.509211
-0.221204
0.535043
-0.261146
0.564741
-0.303591
0.598891
0.636148
-0.348892
-0.0171662
0.316091
-0.0456814
0.470292
-0.0769772
0.494597
-0.109184
0.504149
-0.142659
0.521853
-0.177711
0.544263
-0.214648
0.571979
-0.2537
0.603793
-0.295209
0.6404
0.680515
-0.339576
-0.0158615
0.331952
-0.0431774
0.497608
-0.0735209
0.52494
-0.104845
0.535473
-0.137438
0.554446
-0.171599
0.578425
-0.207627
0.608007
-0.245729
0.641895
-0.286232
0.680903
0.723881
-0.329599
-0.0144666
0.346419
-0.0404992
0.523641
-0.0698248
0.554266
-0.100214
0.565862
-0.131871
0.586102
-0.165087
0.611641
-0.200151
0.643071
-0.23725
0.678994
-0.276677
0.72033
0.766174
-0.318969
-0.0129839
0.359403
-0.0376485
0.548305
-0.0658906
0.582508
-0.0952932
0.595265
-0.125962
0.616771
-0.158179
0.643858
-0.192226
0.677117
-0.228265
0.715033
-0.266535
0.7586
0.807321
-0.307683
-0.0114158
0.370819
-0.0346275
0.571517
-0.0617203
0.609601
-0.0900868
0.623631
-0.119718
0.646403
-0.150887
0.675027
-0.183867
0.710097
-0.218819
0.749986
-0.255868
0.795649
0.847203
-0.29575
-0.00976446
0.380583
-0.0314385
0.593191
-0.0573161
0.635478
-0.0845988
0.650914
-0.113145
0.674949
-0.143215
0.705096
-0.175068
0.741951
-0.208877
0.783796
-0.244549
0.83132
0.885749
-0.283095
-0.0080318
0.388615
-0.0280845
0.613244
-0.0526804
0.660074
-0.0788335
0.677067
-0.106249
0.702365
-0.135175
0.734022
-0.165854
0.772629
-0.198545
0.816486
-0.232956
0.865732
0.922707
-0.269913
-0.00621923
0.394834
-0.0245682
0.631593
-0.0478162
0.683322
-0.0727954
0.702046
-0.0990363
0.728606
-0.126777
0.761762
-0.156224
0.802076
-0.187682
0.847945
-0.221241
0.899291
0.95747
-0.256004
-0.00432645
0.399161
-0.0208929
0.648159
-0.0427269
0.705156
-0.0664894
0.725809
-0.0915134
0.75363
-0.118027
0.788276
-0.1462
0.83025
-0.176328
0.878072
-0.208583
0.931546
0.991434
-0.242547
-0.00234709
0.401508
-0.017062
0.662874
-0.0374172
0.725511
-0.0599208
0.748312
-0.0836876
0.777396
-0.108935
0.813523
-0.135799
0.857114
-0.164537
0.90681
-0.195447
0.962456
1.0242
-0.228216
-0.000218837
0.401727
-0.0130783
0.675734
-0.0318931
0.744326
-0.0530953
0.769515
-0.0755669
0.799868
-0.0995085
0.837465
-0.125031
0.882637
-0.152356
0.934135
-0.181824
0.991924
1.05552
-0.21314
0.00166954
0.400057
-0.00894325
0.686346
-0.0261663
0.761549
-0.0460185
0.789367
-0.06716
0.821009
-0.0897587
0.860063
-0.113904
0.906782
-0.13979
0.960022
-0.16776
1.01989
1.08532
-0.197558
0.00364678
0.39641
-0.00464037
0.694633
-0.0202495
0.777158
-0.0386965
0.807814
-0.058476
0.840789
-0.0796959
0.881283
-0.102427
0.929513
-0.12684
0.984435
-0.153264
1.04632
1.11355
-0.181501
0.0056756
0.390735
-7.76483e-05
0.700387
-0.0141524
0.791233
-0.0311338
0.824795
-0.0495246
0.85918
-0.0693312
0.90109
-0.0906119
0.950793
-0.113515
1.00734
-0.138349
1.07115
1.14017
-0.164965
0.0077196
0.383015
0.00424411
0.703862
-0.00789347
0.803371
-0.0233397
0.840241
-0.0403163
0.876156
-0.0586757
0.919449
-0.0784724
0.97059
-0.0998291
1.02869
-0.123034
1.09436
1.16511
-0.147976
0.00976073
0.373254
0.00876072
0.704862
-0.00150422
0.813635
-0.0153286
0.854066
-0.0308624
0.89169
-0.0477413
0.936328
-0.0660223
0.988871
-0.0857975
1.04847
-0.107338
1.1159
1.18833
-0.13056
0.0117802
0.361474
0.0133685
0.703274
0.00520149
0.821802
-0.00711541
0.866383
-0.0211739
0.905749
-0.0365403
0.951694
-0.0532764
1.00561
-0.0714364
1.06663
-0.0912742
1.13573
1.2098
-0.11274
0.0137529
0.347721
0.0180273
0.699
0.0120329
0.827797
0.0012735
0.877142
-0.0112678
0.91829
-0.0250871
0.965514
-0.0402498
1.02077
-0.0567643
1.08314
-0.0748617
1.15383
1.22947
-0.0945367
0.0156487
0.332072
0.0227022
0.691946
0.0189641
0.831535
0.00994566
0.886161
-0.00120046
0.929436
-0.0134002
0.977713
-0.0269589
1.03433
-0.0418026
1.09799
-0.0581189
1.17015
1.24733
-0.0759719
0.0174341
0.314638
0.027356
0.682024
0.0259843
0.832907
0.0187559
0.893389
0.0092456
0.938946
-0.00152627
0.988485
-0.0134204
1.04622
-0.0265761
1.11114
-0.0410612
1.18463
1.26334
-0.0570743
0.0190724
0.295566
0.0319463
0.66915
0.0330656
0.831787
0.0277124
0.898742
0.0198361
0.946823
0.0106692
0.997652
0.000319331
1.05657
-0.0111192
1.12258
-0.023708
1.19722
1.2775
-0.0378628
0.0205237
0.275042
0.0364246
0.653249
0.0401718
0.82804
0.0367943
0.90212
0.0305838
0.953033
0.0230343
1.0052
0.0143906
1.06522
0.00459186
1.13238
-0.00605634
1.20787
1.28982
-0.0183844
0.0217454
0.253297
0.0407366
0.634258
0.0472592
0.821518
0.0459753
0.903404
0.0414821
0.957527
0.0355667
1.01112
0.0286167
1.07217
0.0206416
1.14036
0.0117127
1.2168
1.30017
0.00136982
0.022694
0.230603
0.0448219
0.61213
0.0542748
0.812065
0.0552245
0.902454
0.0525128
0.960238
0.0482563
1.01537
0.0430128
1.07741
0.0368307
1.14654
0.0297289
1.2239
1.30831
0.0215815
0.0233289
0.207274
0.0486147
0.586844
0.0611612
0.799518
0.0645054
0.89911
0.063653
0.961091
0.0610857
1.01794
0.0575607
1.08093
0.0531818
1.15092
0.0479793
1.2291
1.31442
0.041875
0.0236167
0.183657
0.0520448
0.558416
0.0678671
0.783696
0.0737744
0.893202
0.0748759
0.959989
0.0740348
1.01878
0.0722418
1.08273
0.069681
1.15348
0.0664001
1.23238
1.31851
0.0623084
0.0235363
0.160121
0.0550383
0.526914
0.0743129
0.764421
0.0829768
0.884538
0.0861494
0.956817
0.0870812
1.01785
0.087036
1.08277
0.0863025
1.15421
0.084947
1.23374
1.3206
0.082856
0.0230823
0.137039
0.0575236
0.492473
0.0804081
0.741537
0.0920463
0.8729
0.0974336
0.951429
0.100199
1.01508
0.101921
1.08105
0.103021
1.15311
0.103602
1.23316
1.3207
0.103501
0.0222667
0.114772
0.0594348
0.455305
0.0860482
0.714923
0.100903
0.858045
0.108679
0.943654
0.113358
1.01041
0.116874
1.07753
0.119812
1.15017
0.122344
1.23063
1.31877
0.124276
0.0211182
0.0936537
0.0605924
0.415831
0.0911147
0.684401
0.109453
0.839706
0.119823
0.933284
0.126522
1.00371
0.131869
1.07219
0.136653
1.14539
0.141145
1.22613
1.31479
0.145131
0.0196801
0.0739737
0.0609104
0.3746
0.0954815
0.64983
0.117579
0.817609
0.130788
0.920074
0.139646
0.994849
0.146877
1.06496
0.153519
1.13875
0.159976
1.21967
1.30874
0.166022
0.0180024
0.0559712
0.0603308
0.332272
0.09901
0.611151
0.125141
0.791478
0.141476
0.903739
0.152672
0.983653
0.161862
1.05577
0.170382
1.13023
0.178808
1.21125
1.30063
0.186915
0.0161383
0.0398329
0.0588139
0.289596
0.101548
0.568417
0.131976
0.76105
0.151767
0.883948
0.165528
0.969892
0.176783
1.04451
0.187212
1.1198
0.197612
1.20085
1.29047
0.207776
0.014146
0.0256869
0.0563597
0.247383
0.102933
0.521843
0.137896
0.726088
0.16151
0.860333
0.178121
0.953282
0.191585
1.03105
0.203972
1.10741
0.216358
1.18846
1.27826
0.228573
0.0120968
0.0135901
0.0530237
0.206456
0.103003
0.471864
0.142686
0.686404
0.170525
0.832494
0.190327
0.93348
0.206199
1.01518
0.220619
1.09299
0.235014
1.17407
1.264
0.249274
0.0100781
0.00351205
0.0489244
0.16761
0.101603
0.419186
0.146109
0.641898
0.17859
0.800013
0.201989
0.910081
0.220532
0.996632
0.237102
1.07643
0.253543
1.15762
1.2477
0.269844
0.00818517
-0.00467312
0.0442332
0.131561
0.0986087
0.364811
0.147908
0.592598
0.185437
0.762485
0.212901
0.882617
0.234458
0.975075
0.253351
1.05753
0.271901
1.13907
1.22935
0.290249
0.00649834
-0.0111715
0.0391533
0.0989065
0.0939503
0.310014
0.147814
0.538735
0.190743
0.719555
0.222801
0.850559
0.247806
0.950069
0.26927
1.03607
0.290035
1.11831
1.20893
0.310448
0.00506182
-0.0162333
0.0339008
0.0700675
0.0876546
0.25626
0.145561
0.480829
0.194141
0.670975
0.231359
0.813341
0.260347
0.921081
0.284722
1.01169
0.307867
1.09517
1.1864
0.330405
0.00387573
-0.020109
0.0286986
0.0452447
0.0798988
0.20506
0.140923
0.419804
0.195217
0.616681
0.238166
0.770392
0.271771
0.887476
0.299517
0.983947
0.325292
1.06939
1.16164
0.350047
0.00290877
-0.0230178
0.0237645
0.0243889
0.0710411
0.157783
0.133758
0.357087
0.193542
0.556897
0.242735
0.721199
0.281672
0.848539
0.313381
0.952239
0.342164
1.04061
1.13448
0.369323
0.00212078
-0.0251386
0.019283
0.0072267
0.0615811
0.115485
0.124093
0.294575
0.188707
0.492284
0.244497
0.66541
0.289524
0.803512
0.325947
0.915815
0.358232
1.00832
1.10463
0.388084
0.00147896
-0.0266175
0.0153727
-0.00666708
0.0520656
0.0787921
0.112218
0.234423
0.180395
0.424106
0.242832
0.602973
0.29466
0.751683
0.336693
0.873782
0.37322
0.971796
1.07169
0.406161
0.000961831
-0.0275793
0.0120714
-0.0177767
0.0430048
0.0478587
0.0987271
0.178701
0.16849
0.354343
0.237118
0.534346
0.296284
0.692517
0.344952
0.825114
0.386501
0.930246
1.03474
0.423451
0.00055547
-0.0281348
0.00934892
-0.0265701
0.0348032
0.0224044
0.0844691
0.129035
0.153217
0.285595
0.226851
0.460712
0.293446
0.625922
0.34988
0.76868
0.397548
0.882578
0.99347
0.438816
0.000248501
-0.0283833
0.00713838
-0.03346
0.0276995
0.0018433
0.0703793
0.0863551
0.135279
0.220695
0.211774
0.384217
0.285257
0.552439
0.350304
0.703633
0.405198
0.827684
0.944879
0.453789
3.06479e-05
-0.028414
0.00536261
-0.038792
0.0217489
-0.0145429
0.0572774
0.0508265
0.115844
0.162129
0.192171
0.30789
0.270854
0.473756
0.345544
0.628943
0.407142
0.766086
0.888874
0.463146
-0.000136406
-0.0282776
0.00394402
-0.0428724
0.0168663
-0.0274653
0.0457043
0.0219885
0.0963307
0.111503
0.169021
0.235199
0.25006
0.392717
0.333401
0.545602
0.405608
0.693879
0.832212
0.46227
-0.00024619
-0.0280314
0.00280821
-0.0459268
0.0128939
-0.0375509
0.0358657
-0.000983327
0.0780526
0.0693161
0.143948
0.169304
0.223604
0.313061
0.312744
0.456462
0.396978
0.609645
0.767172
0.462018
-0.000320236
-0.0277111
0.00188488
-0.0481319
0.00965123
-0.0453173
0.0276902
-0.0190223
0.0618915
0.0351147
0.118813
0.112383
0.193201
0.238673
0.283606
0.366057
0.378244
0.515007
0.691664
0.453751
-0.00037876
-0.0273324
0.00110765
-0.0496183
0.00696212
-0.0511717
0.0209393
-0.0329995
0.0481518
0.00790221
0.0951454
0.0653892
0.161336
0.172482
0.24754
0.279854
0.348352
0.414194
0.605155
0.434862
-0.000438567
-0.0268938
0.000416815
-0.0504737
0.00466662
-0.0554215
0.0153051
-0.043638
0.0366434
-0.013436
0.0738476
0.0281849
0.130571
0.115758
0.20749
0.202935
0.308021
0.313663
0.509054
0.404122
-0.00051198
-0.0263818
-0.000239317
-0.0507464
0.00262888
-0.0582897
0.0104811
-0.0514902
0.0269274
-0.0298823
0.0553018
-0.000189465
0.102625
0.0684356
0.166987
0.138573
0.260406
0.220243
0.407512
0.361948
-0.000610015
-0.0257718
-0.000901544
-0.0504548
0.000746464
-0.0599377
0.00620874
-0.0569525
0.0185537
-0.0422273
0.0395241
-0.0211599
0.0780133
0.0299464
0.129229
0.0873566
0.210446
0.139026
0.307398
0.310561
-0.000741722
-0.0250301
-0.00158866
-0.0496079
-0.00107879
-0.0604476
0.00229378
-0.060325
0.011183
-0.0511165
0.0262096
-0.0361865
0.0565213
-0.00036531
0.0963099
0.0475681
0.162764
0.0725721
0.216449
0.253714
-0.000906761
-0.0241233
-0.00231324
-0.0482014
-0.00288477
-0.0598761
-0.00135152
-0.0618583
0.00458113
-0.0570491
0.0148477
-0.0464531
0.0377834
-0.023301
0.0686079
0.0167436
0.119815
0.0213649
0.140373
0.19589
-0.00110266
-0.0230207
-0.00307541
-0.0462287
-0.00467503
-0.0582764