/*--------------------------------*- C++ -*----------------------------------*\
  =========                 |
  \\      /  F ield         | OpenFOAM: The Open Source CFD Toolbox
   \\    /   O peration     | Website:  https://openfoam.org
    \\  /    A nd           | Version:  9
     \\/     M anipulation  |
\*---------------------------------------------------------------------------*/
FoamFile
{
    format      ascii;
    class       volVectorField;
    location    "51";
    object      U;
}
// * * * * * * * * * * * * * * * * * * * * * * * * * * * * * * * * * * * * * //

dimensions      [0 1 -1 0 0 0 0];

internalField   nonuniform List<vector> 
8500
(
(-0.00648258 0.00259307 0)
(-0.0291137 0.00447062 -6.18762e-23)
(-0.0611426 0.00493134 -3.40234e-24)
(-0.0889385 0.0047654 6.44871e-37)
(-0.116334 0.00444669 -9.4899e-24)
(-0.136743 0.00384227 7.90179e-24)
(-0.160634 0.00378613 -5.35242e-23)
(-0.171485 0.0024751 -8.28405e-23)
(-0.191746 0.00349782 -7.58355e-23)
(-0.198844 0.00121747 -3.93393e-24)
(-0.00677631 0.00772371 1.78545e-22)
(-0.0293716 0.0133329 5.78166e-23)
(-0.0610222 0.0147154 2.32074e-22)
(-0.0882624 0.0142239 0)
(-0.115077 0.0132714 0)
(-0.13451 0.0114697 1.59191e-23)
(-0.157835 0.0112983 4.02326e-23)
(-0.166969 0.00737671 8.84238e-23)
(-0.186718 0.0104755 5.71007e-23)
(-0.191601 0.00354116 1.57446e-23)
(-0.00735549 0.0127004 -1.58661e-22)
(-0.0298833 0.0219743 0)
(-0.0607858 0.024276 -2.18394e-22)
(-0.0869185 0.0234729 0)
(-0.112575 0.02189 -3.80178e-23)
(-0.130049 0.0189215 3.16555e-23)
(-0.152242 0.0186069 0)
(-0.157896 0.0121117 0)
(-0.176665 0.0173575 0)
(-0.177135 0.0054791 0)
(-0.00820429 0.0174273 3.19066e-22)
(-0.0306414 0.0302528 -2.32231e-22)
(-0.0604415 0.0334663 -5.47755e-23)
(-0.0849235 0.0323731 -3.41626e-22)
(-0.108848 0.0301589 -3.43086e-22)
(-0.123377 0.0260851 3.19375e-23)
(-0.143862 0.0255519 -2.66662e-23)
(-0.144179 0.0165947 3.08102e-22)
(-0.161559 0.0240944 1.90413e-26)
(-0.15542 0.00683281 3.10562e-22)
(-0.00930037 0.0218184 -3.19066e-22)
(-0.0316349 0.0380352 -3.0024e-22)
(-0.0600004 0.0421436 8.24182e-23)
(-0.082301 0.0407859 4.5594e-22)
(-0.10392 0.0379277 -3.88361e-23)
(-0.114519 0.0328534 5.07594e-22)
(-0.132688 0.0319368 0)
(-0.125674 0.0207684 -3.52908e-22)
(-0.1413 0.0306505 -7.52933e-23)
(-0.126233 0.00751603 -4.31447e-22)
(-0.0106165 0.025801 8.04748e-23)
(-0.0328492 0.045199 4.99263e-22)
(-0.059474 0.0501692 -3.86e-22)
(-0.0790797 0.0485749 -2.96037e-25)
(-0.0978091 0.045038 -3.4609e-22)
(-0.10351 0.0391266 1.28325e-22)
(-0.118685 0.0375165 -5.35922e-23)
(-0.102177 0.0246015 4.41408e-22)
(-0.115666 0.036973 -7.54661e-23)
(-0.0889125 0.00767518 2.47127e-22)
(-0.0121224 0.0293176 4.03216e-23)
(-0.0342667 0.0516359 0)
(-0.0588708 0.0574103 -1.56696e-24)
(-0.0752892 0.0556076 0)
(-0.0905165 0.0513271 6.13742e-22)
(-0.0903858 0.0448136 -5.08089e-22)
(-0.10176 0.0419906 0)
(-0.0734281 0.0280961 -1.12423e-24)
(-0.084311 0.0428439 0)
(-0.0420649 0.00792007 0)
(-0.0137871 0.0323288 -6.50519e-22)
(-0.0358665 0.0572533 -6.723e-23)
(-0.058192 0.0637425 4.98119e-22)
(-0.0709526 0.061755 9.23811e-23)
(-0.0820059 0.0566334 -6.17607e-22)
(-0.0751669 0.0498382 -3.80531e-22)
(-0.0816949 0.044998 -5.38827e-23)
(-0.0391381 0.0313397 4.37938e-22)
(-0.0467732 0.0475367 -7.57772e-23)
(0.0167225 0.00929884 6.26225e-23)
(-0.0155808 0.034813 7.3237e-22)
(-0.0376238 0.0619767 -5.40631e-22)
(-0.0574257 0.0690531 -1.67009e-22)
(-0.0660753 0.066893 9.21388e-23)
(-0.0721795 0.0608045 6.17539e-22)
(-0.057828 0.0541541 5.7366e-22)
(-0.0580203 0.0461281 -5.40149e-23)
(0.0010679 0.0345132 8.76546e-23)
(-0.00284692 0.0502463 -1.51925e-22)
(0.0914293 0.0123252 6.39162e-23)
(-0.0174769 0.0367671 6.58506e-22)
(-0.0395082 0.0657502 5.40951e-22)
(-0.0565398 0.0732451 -7.84017e-22)
(-0.0606285 0.0709017 -9.24484e-23)
(-0.0608402 0.0636986 0)
(-0.038256 0.0577629 0)
(-0.0299487 0.0451748 0)
(0.04823 0.037637 -1.38746e-21)
(0.0471982 0.0500899 -6.37692e-22)
(0.185763 0.0175578 4.84876e-22)
(-0.019453 0.0382048 -1.32128e-21)
(-0.0414813 0.0685373 0)
(-0.0554732 0.0762408 1.79505e-21)
(-0.0545311 0.0736702 7.42543e-22)
(-0.0476462 0.0651903 7.72921e-23)
(-0.0160576 0.0606006 0)
(0.00351845 0.0423461 -8.84209e-22)
(0.103691 0.0410495 6.92352e-22)
(0.105013 0.0457398 6.37683e-22)
(0.301348 0.0254796 -4.84858e-22)
(-0.0214925 0.0391543 7.46013e-22)
(-0.0434923 0.070321 -6.83209e-23)
(-0.0541241 0.0779865 -8.99268e-22)
(-0.0476259 0.0751038 -8.35832e-22)
(-0.0321627 0.0652762 0)
(0.00964683 0.0624113 1.0221e-21)
(0.044084 0.0381362 5.17251e-25)
(0.168266 0.0455549 5.96932e-22)
(0.175863 0.037416 7.157e-22)
(0.436601 0.0352107 -4.80583e-22)
(-0.0235831 0.0396556 4.56208e-26)
(-0.0454728 0.0711026 1.17174e-21)
(-0.0523346 0.0784543 -1.13187e-22)
(-0.0395939 0.075111 6.52689e-22)
(-0.0138667 0.0640487 3.90196e-22)
(0.0400689 0.0629717 2.59904e-22)
(0.0945251 0.0334004 8.81886e-22)
(0.242373 0.051017 -7.7669e-22)
(0.268013 0.0290405 -4.88031e-22)
(0.585443 0.0455178 3.53028e-22)
(-0.025717 0.0397561 0)
(-0.04733 0.0708998 -9.65094e-22)
(-0.0498895 0.0776499 -1.13684e-22)
(-0.0299229 0.0736279 1.63039e-24)
(0.00806681 0.0615906 6.2238e-22)
(0.0767265 0.0621894 -8.93532e-22)
(0.157993 0.0297385 8.76483e-22)
(0.32659 0.0559498 -8.91086e-23)
(0.387965 0.0265436 0)
(0.737562 0.0563568 0)
(-0.0278882 0.0395074 8.48664e-23)
(-0.0489369 0.0697458 -1.11461e-21)
(-0.0464972 0.0756212 0)
(-0.0179186 0.070695 -9.21212e-23)
(0.0348402 0.0580495 7.76999e-23)
(0.121735 0.0599465 0)
(0.236868 0.0291812 -8.78369e-22)
(0.4224 0.0592153 -6.87124e-22)
(0.533516 0.0333151 1.50121e-22)
(0.880781 0.0684669 -1.26159e-22)
(-0.0300879 0.0389566 -8.53101e-23)
(-0.0501262 0.0676922 1.18464e-21)
(-0.0417472 0.0724387 0)
(-0.00267894 0.0664714 -8.42887e-22)
(0.0680108 0.0537526 7.77431e-23)
(0.177764 0.0565664 -1.0239e-21)
(0.331675 0.0330742 -1.05976e-22)
(0.531693 0.0621075 7.75808e-22)
(0.691759 0.0480669 0)
(1.00453 0.0816159 9.55744e-22)
(-0.0322955 0.0381414 -1.29866e-21)
(-0.0506876 0.0648031 -7.05003e-23)
(-0.0350877 0.0681954 -1.14138e-22)
(0.0169624 0.0612195 9.44087e-23)
(0.109538 0.0492855 -1.241e-21)
(0.247652 0.0532953 1.02389e-21)
(0.440626 0.0414367 8.62476e-22)
(0.653361 0.067672 6.87063e-22)
(0.844859 0.0670365 1.19092e-21)
(1.10261 0.0944274 -8.36151e-22)
(-0.0344753 0.0370898 1.38455e-21)
(-0.0503545 0.0611451 0)
(-0.0258273 0.063025 1.03742e-21)
(0.0424502 0.0552914 -9.4687e-23)
(0.161664 0.0454691 2.48115e-21)
(0.333415 0.0521473 0)
(0.559841 0.0535543 -8.62458e-22)
(0.780406 0.0775467 -1.83697e-24)
(0.978089 0.0869166 -1.3345e-21)
(1.17385 0.105454 1.20686e-22)
(-0.0365726 0.0358177 0)
(-0.0487982 0.0567851 1.14148e-21)
(-0.0131303 0.0571022 -9.22941e-22)
(0.0754722 0.0491547 0)
(0.226548 0.0433625 -1.24014e-21)
(0.434653 0.0551535 0)
(0.683418 0.0686765 8.47394e-22)
(0.902099 0.0908031 -6.85198e-22)
(1.08396 0.105745 -1.13529e-21)
(1.22114 0.113701 -9.11476e-22)
(-0.0385066 0.0343266 -1.75848e-22)
(-0.045629 0.0517943 -9.9714e-22)
(0.00398867 0.0506422 0)
(0.117875 0.0434643 0)
(0.305541 0.0442101 0)
(0.547523 0.0632957 -1.26547e-22)
(0.803971 0.0858246 -8.49485e-22)
(1.00913 0.105599 -8.66673e-23)
(1.16173 0.122356 1.13528e-21)
(1.24986 0.118434 1.02534e-21)
(-0.0401684 0.0326071 0)
(-0.0403944 0.0462469 -1.15896e-21)
(0.0266668 0.043914 0)
(0.171458 0.0391628 0)
(0.398202 0.0491498 0)
(0.665234 0.0760943 1.25653e-22)
(0.914446 0.103647 -1.03578e-21)
(1.09658 0.120563 7.99108e-23)
(1.21506 0.135529 8.06511e-22)
(1.26695 0.11903 8.78289e-22)
(-0.0414346 0.0306553 0)
(-0.0325656 0.0402044 1.15896e-21)
(0.0561876 0.0372831 -9.43929e-22)
(0.237546 0.0374985 0)
(0.50154 0.0586839 -1.23781e-21)
(0.780068 0.0920631 0)
(1.01005 0.120949 8.28407e-22)
(1.16366 0.134625 -6.58457e-22)
(1.24964 0.144172 -1.0796e-21)
(1.29174 0.129616 -8.734e-22)
(-0.0421647 0.0284573 1.47968e-21)
(-0.0215458 0.0337184 0)
(0.0939341 0.0313084 8.27016e-22)
(0.316311 0.0397751 9.66949e-23)
(0.610259 0.0723363 2.47554e-21)
(0.885666 0.109525 0)
(1.08884 0.137013 -8.06875e-22)
(1.21248 0.146743 -1.3053e-21)
(1.27432 0.152378 -9.01128e-22)
(1.30101 0.135698 -5.29393e-24)
(-0.0421861 0.0259857 -1.57155e-21)
(-0.00666308 0.0268553 7.54125e-23)
(0.141224 0.0268528 1.17593e-22)
(0.406134 0.0468161 -9.72635e-23)
(0.718169 0.0888962 -1.23773e-21)
(0.978173 0.127171 9.94622e-22)
(1.15112 0.151427 8.06871e-22)
(1.24713 0.157402 6.46847e-22)
(1.28861 0.158824 1.02866e-21)
(1.30426 0.141468 -9.01851e-22)
(-0.041308 0.0232131 9.31972e-23)
(0.0128589 0.0197242 1.13366e-21)
(0.198978 0.0250934 0)
(0.503505 0.0585151 -6.75956e-22)
(0.819901 0.107018 -7.86171e-23)
(1.05613 0.144169 -9.94614e-22)
(1.19871 0.164244 9.63067e-23)
(1.27029 0.166559 5.39735e-22)
(1.29637 0.16452 0)
(1.30428 0.146477 8.02782e-22)
(-0.0393233 0.0201114 -9.63861e-23)
(0.0379019 0.0125591 -1.21015e-21)
(0.267263 0.0272668 0)
(0.603749 0.0739259 9.02468e-23)
(0.911876 0.125645 -7.88417e-23)
(1.11981 0.160116 0)
(1.23382 0.175586 -7.69543e-22)
(1.28493 0.174577 -6.20347e-22)
(1.29932 0.169515 -1.17356e-22)
(1.30106 0.151002 -9.87189e-23)
(-0.0359946 0.0166527 0)
(0.0693896 0.00584593 -1.39746e-21)
(0.344934 0.034183 1.25092e-22)
(0.702195 0.0918089 -5.21323e-24)
(0.992329 0.144107 -6.17234e-22)
(1.17039 0.174868 -1.08608e-21)
(1.25877 0.185676 8.68191e-22)
(1.29319 0.181683 0)
(1.29892 0.174084 0)
(1.29675 0.155306 0)
(-0.0310281 0.0128171 2.28918e-24)
(0.108134 0.000427323 1.17229e-21)
(0.429639 0.0458516 1.26781e-22)
(0.79512 0.111113 8.76118e-22)
(1.06086 0.162036 5.37945e-22)
(1.20952 0.188441 -1.04669e-22)
(1.27564 0.194738 7.47257e-22)
(1.29683 0.188135 -4.99925e-22)
(1.29634 0.178379 -5.57473e-22)
(1.29124 0.159461 4.45269e-22)
(-0.0240471 0.00861591 7.32901e-22)
(0.154608 -0.00252722 8.21847e-23)
(0.518235 0.0615522 -1.01284e-21)
(0.880114 0.13112 -7.90358e-22)
(1.11791 0.179251 0)
(1.23893 0.200936 9.56219e-22)
(1.28623 0.202996 -1.57965e-23)
(1.29716 0.194129 6.44122e-22)
(1.29221 0.18252 3.89781e-22)
(1.28524 0.163558 -3.52484e-22)
(-0.0145867 0.00412797 -1.68775e-21)
(0.208716 -0.00176123 0)
(0.607416 0.0802629 2.0419e-21)
(0.955952 0.151386 6.94606e-22)
(1.16439 0.19569 7.94748e-23)
(1.26028 0.212493 0)
(1.29202 0.210655 -7.24804e-22)
(1.29512 0.199825 5.43203e-22)
(1.28709 0.18659 4.18051e-22)
(1.27879 0.167641 -3.26765e-22)
(-0.00212097 -0.000457116 8.54723e-22)
(0.269675 0.00368796 6.64016e-22)
(0.694247 0.101069 -1.15431e-21)
(1.02226 0.171672 1.03598e-22)
(1.20143 0.211362 0)
(1.27505 0.223271 0)
(1.29415 0.21789 0)
(1.2914 0.205341 -1.06926e-21)
(1.28125 0.190647 -4.18055e-22)
(1.27207 0.171727 3.2675e-22)
(0.0138689 -0.00479635 7.94629e-22)
(0.336092 0.0141907 -6.58286e-22)
(0.776437 0.12332 6.75369e-23)
(1.07922 0.191862 0)
(1.23021 0.226316 5.98028e-22)
(1.2845 0.233423 3.93375e-22)
(1.29354 0.224844 4.50023e-23)
(1.28646 0.21076 -4.41061e-23)
(1.27489 0.194722 9.95488e-23)
(1.2651 0.175829 -4.00235e-23)
(0.0337664 -0.00836457 -9.01482e-22)
(0.406193 0.0294955 8.33498e-23)
(0.852387 0.146582 5.34562e-22)
(1.1273 0.211892 -1.47789e-22)
(1.25189 0.240623 -4.48586e-22)
(1.28969 0.24309 -5.5867e-22)
(1.29084 0.231625 4.39182e-23)
(1.28062 0.216136 2.63403e-22)
(1.26812 0.198832 0)
(1.2579 0.179938 -3.50284e-23)
(0.0577408 -0.0105033 -5.85567e-23)
(0.478086 0.0489441 0)
(0.921128 0.170554 6.16959e-24)
(1.16713 0.231709 0)
(1.2675 0.254361 5.81689e-22)
(1.29147 0.252394 -4.26725e-22)
(1.28654 0.238313 0)
(1.27408 0.221498 9.68996e-24)
(1.261 0.202982 0)
(1.25048 0.184046 0)
(0.0857333 -0.0105223 -1.17039e-22)
(0.549961 0.0717714 7.60887e-22)
(0.982204 0.195016 -6.10066e-22)
(1.19941 0.251258 1.00093e-22)
(1.27799 0.267612 -2.6692e-22)
(1.29052 0.261434 -4.47732e-23)
(1.281 0.244955 0)
(1.26696 0.226861 1.80441e-22)
(1.25355 0.207165 4.58898e-23)
(1.24282 0.188135 1.28037e-22)
(0.117448 -0.00782079 -4.94616e-22)
(0.6202 0.0973004 -3.06691e-22)
(1.03554 0.219807 -1.00407e-22)
(1.22484 0.270478 3.99739e-22)
(1.28416 0.280447 3.22908e-23)
(1.28736 0.270285 4.14957e-22)
(1.27444 0.25158 0)
(1.25934 0.232222 -2.14419e-22)
(1.2458 0.211369 3.90915e-23)
(1.23491 0.192184 -2.8119e-22)
(0.152389 -0.00199726 -4.94615e-22)
(0.687419 0.124994 3.19789e-22)
(1.08132 0.244803 -4.105e-24)
(1.24412 0.289313 -4.64524e-22)
(1.28668 0.292929 -2.41931e-22)
(1.28241 0.279002 -2.31478e-23)
(1.26703 0.258196 1.93275e-23)
(1.25126 0.23757 2.39109e-22)
(1.23772 0.215576 -2.32062e-24)
(1.22674 0.19617 9.10473e-23)
(0.189914 0.0070992 -2.55275e-22)
(0.75047 0.154421 0)
(1.11989 0.269897 -2.74549e-22)
(1.2579 0.307714 0)
(1.2861 0.305104 -3.0401e-22)
(1.27596 0.287615 2.60236e-23)
(1.25888 0.264794 0)
(1.24273 0.242884 0)
(1.22933 0.219763 0)
(1.2183 0.200065 0)
(0.229284 0.0193915 2.23933e-22)
(0.80844 0.185201 1.07644e-22)
(1.15171 0.294982 2.7455e-22)
(1.2668 0.325646 0)
(1.28288 0.317001 0)
(1.26823 0.296136 -1.05946e-23)
(1.25005 0.271354 4.02689e-23)
(1.23376 0.248138 4.48763e-23)
(1.2206 0.223904 4.05698e-23)
(1.20959 0.203839 -6.70443e-24)
(0.269714 0.0346516 -4.05403e-24)
(0.860682 0.216969 -1.00678e-22)
(1.17722 0.319942 4.59532e-24)
(1.27135 0.34309 5.2802e-24)
(1.27739 0.328634 -7.99922e-24)
(1.25938 0.304555 3.01111e-24)
(1.24058 0.277846 -3.49626e-23)
(1.22435 0.253301 -4.19142e-23)
(1.21153 0.227965 -3.07605e-23)
(1.20064 0.207458 1.14059e-24)
(0.310406 0.052583 0)
(0.906857 0.249379 -1.0158e-22)
(1.19682 0.344656 -3.01899e-24)
(1.27205 0.360033 6.28362e-24)
(1.2699 0.340003 1.09409e-37)
(1.24951 0.312851 -7.52189e-38)
(1.23049 0.284231 -3.07961e-23)
(1.2145 0.258337 -3.55917e-23)
(1.20212 0.231905 -2.72597e-23)
(1.19146 0.210888 0)
(0.350579 0.0728699 2.93854e-22)
(0.946865 0.282139 8.32606e-23)
(1.21089 0.369011 2.72418e-22)
(1.2693 0.376447 -1.22382e-23)
(1.26064 0.351088 0)
(1.23871 0.320985 8.85093e-24)
(1.2198 0.290467 2.01112e-23)
(1.20419 0.263209 3.83501e-23)
(1.19235 0.235675 2.12678e-23)
(1.18204 0.214106 5.03623e-24)
(0.389491 0.0952118 -2.61929e-22)
(0.980706 0.314987 0)
(1.21982 0.392885 -2.57625e-22)
(1.26347 0.392296 0)
(1.2498 0.361857 -2.45625e-23)
(1.22701 0.328909 2.04523e-23)
(1.20851 0.296504 0)
(1.19342 0.267876 0)
(1.18223 0.239234 0)
(1.17235 0.217092 0)
(0.426457 0.11933 5.19028e-22)
(1.00846 0.347685 -3.30808e-22)
(1.22399 0.416154 -6.25549e-23)
(1.25485 0.407538 -2.4975e-22)
(1.23752 0.372261 -2.25539e-22)
(1.21447 0.336566 1.49841e-23)
(1.19661 0.302292 -1.2511e-23)
(1.18218 0.272292 9.62571e-23)
(1.1718 0.242554 2.11688e-24)
(1.16231 0.21982 6.33715e-23)
(0.460862 0.144958 -5.19029e-22)
(1.03028 0.380006 -3.97757e-22)
(1.22373 0.438694 8.66035e-23)
(1.24372 0.422122 2.97608e-22)
(1.2239 0.38224 -1.21239e-23)
(1.2011 0.343895 2.28997e-22)
(1.18411 0.307778 0)
(1.17047 0.276399 -1.09649e-22)
(1.16109 0.245623 -1.52226e-23)
(1.1519 0.22231 -7.58712e-23)
(0.492174 0.171823 1.23203e-22)
(1.04633 0.411733 6.80882e-22)
(1.21937 0.460375 -3.8826e-22)
(1.23032 0.435989 -7.18482e-23)
(1.20904 0.391729 -1.60232e-22)
(1.18692 0.350828 2.93253e-23)
(1.17101 0.312903 -1.99367e-23)
(1.15832 0.280132 9.66491e-23)
(1.1501 0.248426 -1.60661e-23)
(1.14117 0.224598 3.9246e-23)
(0.519954 0.199636 6.24326e-23)
(1.05682 0.442652 0)
(1.2112 0.481065 2.6606e-23)
(1.21483 0.449071 0)
(1.19299 0.400652 3.28399e-22)
(1.17197 0.357295 -2.02701e-22)
(1.15733 0.317608 0)
(1.1458 0.28345 -1.6832e-23)
(1.13876 0.250904 0)
(1.13025 0.226491 0)
(0.543853 0.228085 -9.56519e-22)
(1.06197 0.472546 -7.24352e-23)
(1.1995 0.500631 4.71034e-22)
(1.19742 0.461292 5.05862e-23)
(1.1758 0.408922 -3.26654e-22)
(1.1563 0.36322 -1.04335e-22)
(1.14315 0.321832 -1.43311e-23)
(1.13291 0.286327 3.70276e-23)
(1.12704 0.253013 -9.24692e-24)
(1.11915 0.228028 2.85235e-24)
(0.563616 0.256835 1.06399e-21)
(1.06202 0.501195 -6.31653e-22)
(1.18452 0.518936 -1.34352e-22)
(1.17823 0.472568 6.4844e-23)
(1.15758 0.416449 2.55145e-22)
(1.13999 0.368526 1.59676e-22)
(1.12844 0.325517 -1.13504e-23)
(1.11965 0.28873 -2.88546e-23)
(1.11497 0.254711 -8.06589e-24)
(1.10788 0.229146 2.00163e-24)
(0.579077 0.285535 8.77405e-22)
(1.05719 0.528375 6.1137e-22)
(1.1665 0.535832 -5.57411e-22)
(1.15744 0.482808 -5.79945e-23)
(1.13846 0.423161 0)
(1.123 0.373127 0)
(1.11322 0.328606 0)
(1.10603 0.290617 -6.5529e-23)
(1.1026 0.255964 1.09009e-23)
(1.09646 0.229829 -2.86989e-23)
(0.590151 0.313823 -1.70452e-21)
(1.04775 0.553865 0)
(1.14564 0.551152 1.17821e-21)
(1.13524 0.491913 2.82032e-22)
(1.11849 0.428979 0)
(1.10532 0.37695 0)
(1.09753 0.331035 -1.80047e-23)
(1.09208 0.291947 1.44886e-23)
(1.08995 0.256736 -1.0901e-23)
(1.08491 0.230037 2.86977e-23)
(0.596834 0.341339 9.15712e-22)
(1.034 0.577467 -7.2719e-23)
(1.12217 0.564727 -5.50687e-22)
(1.11178 0.499767 -3.06372e-22)
(1.09767 0.433821 2.02019e-23)
(1.08704 0.379931 3.48894e-23)
(1.08142 0.332746 5.08736e-23)
(1.07783 0.292679 -5.44929e-23)
(1.07707 0.256995 -7.47326e-23)
(1.07325 0.229747 7.34398e-23)
(0.599198 0.367714 -1.16842e-23)
(1.01626 0.598994 8.51291e-22)
(1.09638 0.57644 -7.33983e-23)
(1.08707 0.506206 1.40365e-22)
(1.07608 0.437611 4.35606e-23)
(1.0682 0.382001 -6.72648e-23)
(1.06494 0.333682 -3.89652e-23)
(1.06331 0.292775 6.9061e-23)
(1.06398 0.256705 -9.21945e-23)
(1.06154 0.228927 -5.41265e-23)
(0.597383 0.392581 0)
(0.994815 0.61822 -7.53442e-22)
(1.06852 0.586197 -6.17811e-23)
(1.06123 0.5111 -6.6721e-23)
(1.05379 0.440244 -3.76742e-23)
(1.04888 0.383097 2.25499e-23)
(1.04813 0.333793 -1.43156e-22)
(1.04856 0.292198 0)
(1.05073 0.255832 0)
(1.0498 0.227542 0)
(0.591588 0.415614 7.43703e-23)
(0.969758 0.6348 -5.7657e-22)
(1.03895 0.593953 0)
(1.03441 0.514372 -7.03427e-23)
(1.0309 0.441631 1.004e-24)
(1.02913 0.383159 0)
(1.03106 0.333031 1.37842e-22)
(1.03364 0.290914 1.79098e-22)
(1.03733 0.254341 -3.72586e-23)
(1.03806 0.225549 3.1295e-23)
(0.582038 0.436598 -5.22007e-23)
(0.941308 0.648432 6.19422e-22)
(1.00792 0.599565 0)
(1.00674 0.515984 -1.44169e-23)
(1.00749 0.441688 -5.82982e-24)
(1.00904 0.382129 2.54359e-22)
(1.01378 0.331356 2.8465e-23)
(1.01857 0.28889 -2.02924e-22)
(1.02382 0.252196 0)
(1.02638 0.222906 -3.26164e-22)
(0.568947 0.455312 -7.1343e-22)
(0.909946 0.659002 -3.38819e-23)
(0.975605 0.602823 3.01064e-24)
(0.978383 0.515869 -2.49032e-24)
(0.983654 0.44034 3.28132e-22)
(0.988692 0.379955 -2.54361e-22)
(0.99637 0.328732 -3.0064e-22)
(1.00339 0.286097 -2.59692e-22)
(1.01025 0.24937 -4.4053e-22)
(1.01489 0.219608 2.85471e-22)
(0.552433 0.471403 7.5471e-22)
(0.876238 0.666497 0)
(0.942223 0.603596 -1.24241e-22)
(0.94948 0.513958 1.24645e-23)
(0.959505 0.437529 -7.61762e-22)
(0.968166 0.376591 0)
(0.978876 0.325125 3.00642e-22)
(0.988146 0.282496 -4.05783e-23)
(0.996712 0.245835 4.98995e-22)
(1.00386 0.215693 -4.90984e-23)
(0.53271 0.484448 0)
(0.840567 0.670765 -6.42888e-24)
(0.907976 0.601821 1.09173e-22)
(0.920184 0.510185 0)
(0.93515 0.433202 4.3363e-22)
(0.947552 0.371999 0)
(0.961361 0.320512 -4.10548e-22)
(0.972881 0.278047 3.00275e-22)
(0.983389 0.241552 5.59697e-22)
(0.993602 0.211227 4.46743e-22)
(0.510265 0.49428 -1.06674e-23)
(0.803277 0.671666 1.51852e-23)
(0.873096 0.59744 0)
(0.890654 0.504488 0)
(0.910709 0.427318 0)
(0.926943 0.366148 6.52471e-23)
(0.943884 0.314872 3.01717e-22)
(0.957688 0.272724 4.54958e-23)
(0.970467 0.236462 -5.597e-22)
(0.983994 0.20616 -5.01858e-22)
(0.485514 0.50073 0)
(0.764711 0.669088 3.18446e-22)
(0.837821 0.590407 0)
(0.861049 0.496816 0)
(0.886303 0.419847 0)
(0.906431 0.359016 -7.41106e-23)
(0.92652 0.30819 6.42264e-22)
(0.942691 0.266533 -1.49141e-22)
(0.958028 0.230577 -5.12053e-22)
(0.974376 0.198994 -5.26405e-22)
(0.458868 0.503663 0)
(0.72523 0.66295 -3.18448e-22)
(0.802394 0.580697 5.42173e-22)
(0.831537 0.487134 0)
(0.862057 0.410768 8.58697e-22)
(0.886111 0.350587 0)
(0.909357 0.300453 -5.19617e-22)
(0.928 0.259485 4.59029e-22)
(0.945823 0.224354 6.72488e-22)
(0.963475 0.193813 5.25037e-22)
(0.430738 0.502986 -5.24222e-22)
(0.685197 0.653205 0)
(0.767058 0.5683 -4.64565e-22)
(0.802285 0.47542 -6.41982e-23)
(0.838099 0.400071 -1.82161e-21)
(0.866083 0.340854 0)
(0.892487 0.291646 6.25675e-22)
(0.913684 0.251506 3.76557e-23)
(0.933969 0.217077 6.89918e-22)
(0.953003 0.187183 2.43907e-24)
(0.401534 0.498647 5.70848e-22)
(0.644977 0.639835 -3.82726e-23)
(0.732056 0.553222 -9.00391e-23)
(0.773466 0.461668 -7.44783e-23)
(0.814556 0.387757 9.62917e-22)
(0.846448 0.329819 -8.53145e-22)
(0.875993 0.281786 -6.25679e-22)
(0.899745 0.242692 -4.9669e-22)
(0.922308 0.209225 -7.80923e-22)
(0.942513 0.18033 7.26188e-22)
(0.371659 0.490632 -5.96706e-23)
(0.604932 0.622855 -8.95704e-22)
(0.697629 0.535492 0)
(0.74525 0.445887 6.33732e-22)
(0.79156 0.37384 7.03323e-23)
(0.827309 0.317493 8.5315e-22)
(0.859966 0.270875 -8.51999e-23)
(0.886256 0.232994 -4.97353e-22)
(0.910987 0.20059 0)
(0.932324 0.172783 -6.47505e-22)
(0.341512 0.478966 6.78984e-23)
(0.565419 0.602308 9.44689e-22)
(0.664011 0.515153 0)
(0.717807 0.428104 -2.31553e-23)
(0.76924 0.358343 7.71152e-23)
(0.808769 0.303898 0)
(0.844481 0.258939 7.7437e-22)
(0.873249 0.222466 5.68668e-22)
(0.900025 0.191307 1.09583e-22)
(0.922487 0.164701 -9.2047e-23)
(0.311478 0.463709 0)
(0.526785 0.578265 1.39116e-21)
(0.631434 0.492269 -1.23533e-22)
(0.691306 0.408359 6.72096e-23)
(0.747722 0.341302 6.77039e-22)
(0.79093 0.289064 1.17938e-21)
(0.829619 0.246 -8.7786e-22)
(0.860788 0.211114 0)
(0.889492 0.181353 0)
(0.913083 0.15604 0)
(0.281931 0.44496 2.41596e-24)
(0.489367 0.550826 -1.1547e-21)
(0.600118 0.466921 1.37054e-22)
(0.66591 0.386711 -9.63798e-22)
(0.727134 0.322764 -5.87087e-22)
(0.773891 0.273029 1.9297e-22)
(0.815454 0.232095 -8.71746e-22)
(0.848926 0.198975 5.81175e-22)
(0.879439 0.170767 6.33543e-22)
(0.904168 0.146835 -4.98013e-22)
(0.25323 0.422856 -7.99947e-22)
(0.453483 0.520115 -8.93912e-23)
(0.57028 0.439207 1.24908e-21)
(0.641777 0.36323 9.80519e-22)
(0.707597 0.302787 0)
(0.757748 0.255842 -1.11713e-21)
(0.80206 0.217262 -4.09546e-23)
(0.837719 0.186083 -7.47915e-22)
(0.869922 0.159571 -4.44141e-22)
(0.895787 0.137107 3.96543e-22)
(0.225716 0.397579 1.91141e-21)
(0.419433 0.48627 0)
(0.542124 0.40924 -2.58257e-21)
(0.61906 0.338004 -8.58175e-22)
(0.689229 0.281442 -1.01558e-22)
(0.742593 0.237561 0)
(0.789508 0.20155 9.04595e-22)
(0.827222 0.172478 -7.22308e-22)
(0.860992 0.147796 -5.53543e-22)
(0.887981 0.126885 4.26823e-22)
(0.1997 0.369349 -1.00256e-21)
(0.387493 0.449449 -8.79019e-22)
(0.51585 0.377148 1.50017e-21)
(0.597904 0.311132 -1.37874e-22)
(0.672143 0.258808 0)
(0.728514 0.218251 0)
(0.777865 0.185011 0)
(0.817488 0.158203 1.46962e-21)
(0.852697 0.135475 5.53544e-22)
(0.880783 0.116205 -4.26822e-22)
(0.175455 0.338387 -1.03034e-21)
(0.35793 0.409863 8.75942e-22)
(0.49165 0.343074 9.209e-23)
(0.578444 0.282729 0)
(0.656443 0.234974 -8.71537e-22)
(0.715593 0.197986 -5.84734e-22)
(0.767192 0.167705 -6.52816e-23)
(0.808567 0.143307 1.137e-22)
(0.845084 0.122646 -1.45947e-22)
(0.874224 0.105102 5.8519e-23)
(0.153219 0.304896 1.17026e-21)
(0.330998 0.367767 -1.17593e-22)
(0.469698 0.307181 -9.62437e-22)
(0.56081 0.252923 2.1545e-22)
(0.642228 0.210041 6.49234e-22)
(0.703904 0.176845 8.32139e-22)
(0.757549 0.149697 -6.73805e-23)
(0.800505 0.127842 -3.74839e-22)
(0.838195 0.109353 0)
(0.868332 0.0936203 5.53193e-23)
(0.133216 0.269104 7.98247e-23)
(0.306924 0.323423 0)
(0.450149 0.26965 -2.84567e-23)
(0.545116 0.221851 0)
(0.629587 0.184115 -9.27384e-22)
(0.693518 0.154916 7.01557e-22)
(0.748989 0.131057 0)
(0.793346 0.111865 8.96542e-24)
(0.832071 0.0956417 0)
(0.863128 0.0818021 0)
(0.115657 0.231272 1.65216e-22)
(0.28591 0.277101 -1.12757e-21)
(0.433136 0.230674 9.00499e-22)
(0.531465 0.189663 -1.5533e-22)
(0.618599 0.157314 4.01807e-22)
(0.684497 0.132291 1.09009e-22)
(0.741558 0.111859 0)
(0.787129 0.0954353 -3.06541e-22)
(0.826747 0.0815613 -8.19286e-23)
(0.858635 0.0696939 -2.40199e-22)
(0.10073 0.191679 7.04289e-22)
(0.268127 0.22908 -1.67161e-21)
(0.418778 0.190458 1.5458e-22)
(0.519949 0.156514 -6.47479e-22)
(0.609333 0.129759 -7.23416e-23)
(0.676894 0.109069 -7.17047e-22)
(0.735299 0.0921846 0)
(0.781891 0.0786188 4.18233e-22)
(0.822257 0.067165 -7.57423e-23)
(0.854866 0.0573422 5.47304e-22)
(0.0885921 0.150625 -7.04289e-22)
(0.253723 0.179653 6.12599e-22)
(0.407171 0.149214 -1.06606e-22)
(0.510643 0.12257 7.60095e-22)
(0.601849 0.101581 4.1995e-22)
(0.670755 0.0853519 4.39137e-23)
(0.730247 0.0721143 -3.66656e-23)
(0.777661 0.0614827 -4.68556e-22)
(0.818629 0.052509 3.86267e-24)
(0.851836 0.0447939 -1.81876e-22)
(0.0793743 0.10842 3.6772e-22)
(0.242815 0.129121 0)
(0.398396 0.107163 4.37256e-22)
(0.503609 0.088001 0)
(0.596193 0.0729114 5.90103e-23)
(0.666117 0.0612459 -4.91352e-23)
(0.726432 0.0517336 0)
(0.774466 0.0440962 0)
(0.815885 0.0376508 0)
(0.849555 0.0320968 0)
(0.0731741 0.0653857 -3.22117e-22)
(0.235493 0.0777928 -1.24371e-22)
(0.392512 0.0645312 -4.37256e-22)
(0.498894 0.0529817 0)
(0.592403 0.0438889 0)
(0.66301 0.0368601 2.2373e-23)
(0.723877 0.0311299 -8.95509e-23)
(0.772324 0.02653 -1.07233e-22)
(0.814046 0.0226482 -1.01005e-22)
(0.84803 0.0192973 1.63581e-23)
(0.0700575 0.0218512 -5.82771e-24)
(0.231817 0.0259847 1.34122e-22)
(0.389561 0.0215496 -6.06516e-24)
(0.496528 0.017691 2.08698e-23)
(0.590501 0.0146535 -8.24711e-24)
(0.661452 0.0123056 0)
(0.722595 0.0103917 7.08707e-23)
(0.77125 0.00885549 1.07233e-22)
(0.813122 0.00755909 7.66456e-23)
(0.847266 0.00643887 1.15714e-23)
(0.0700575 -0.0218505 -5.82771e-24)
(0.231817 -0.0259838 1.34122e-22)
(0.389561 -0.0215489 -6.06516e-24)
(0.496528 -0.0176904 2.08698e-23)
(0.590501 -0.014653 -8.24711e-24)
(0.661452 -0.0123052 0)
(0.722595 -0.0103914 6.23993e-23)
(0.77125 -0.00885517 1.14324e-22)
(0.813122 -0.00755882 8.15296e-23)
(0.847266 -0.00643864 0)
(0.0731741 -0.065385 -4.13323e-22)
(0.235493 -0.077792 -1.61239e-22)
(0.392512 -0.0645305 -4.63563e-22)
(0.498894 -0.0529811 2.17604e-23)
(0.592403 -0.0438884 0)
(0.66301 -0.0368597 -2.2373e-23)
(0.723877 -0.0311295 -5.21905e-23)
(0.772324 -0.0265297 -1.07233e-22)
(0.814046 -0.0226479 -6.2054e-23)
(0.84803 -0.019297 -1.63581e-23)
(0.0793742 -0.108419 3.6772e-22)
(0.242815 -0.12912 0)
(0.398396 -0.107162 4.37256e-22)
(0.503609 -0.0880004 0)
(0.596193 -0.0729108 5.90103e-23)
(0.666117 -0.0612455 -4.91352e-23)
(0.726432 -0.0517333 0)
(0.774466 -0.0440959 0)
(0.815885 -0.0376505 0)
(0.849555 -0.0320965 0)
(0.088592 -0.150624 -7.04289e-22)
(0.253723 -0.179653 4.78373e-22)
(0.407171 -0.149213 1.06606e-22)
(0.510643 -0.12257 5.20466e-22)
(0.601849 -0.10158 5.484e-22)
(0.670755 -0.0853515 -4.39137e-23)
(0.730247 -0.0721139 3.66656e-23)
(0.777661 -0.0614824 -3.67911e-22)
(0.818629 -0.0525088 -3.86267e-24)
(0.851836 -0.0447937 -3.05097e-22)
(0.100729 -0.191678 7.04289e-22)
(0.268127 -0.22908 5.80638e-22)
(0.418777 -0.190457 -1.5458e-22)
(0.519949 -0.156514 -6.33079e-22)
(0.609333 -0.129759 5.37978e-23)
(0.676893 -0.109069 -7.17047e-22)
(0.735299 -0.0921842 0)
(0.781891 -0.0786185 4.18233e-22)
(0.822257 -0.0671648 7.57424e-23)
(0.854866 -0.057342 4.20067e-22)
(0.115657 -0.231271 -1.65216e-22)
(0.285909 -0.2771 1.12757e-21)
(0.433136 -0.230673 7.04482e-22)
(0.531465 -0.189662 1.5533e-22)
(0.618598 -0.157313 5.03164e-22)
(0.684497 -0.132291 -1.62909e-22)
(0.741558 -0.111859 7.08647e-23)
(0.787129 -0.095435 -5.01884e-22)
(0.826747 -0.0815611 8.19287e-23)
(0.858635 -0.0696936 -2.40199e-22)
(0.133216 -0.269104 -7.98248e-23)
(0.306924 -0.323422 0)
(0.450149 -0.269649 -2.84566e-23)
(0.545115 -0.221851 0)
(0.629587 -0.184115 -9.27385e-22)
(0.693518 -0.154916 7.01558e-22)
(0.748988 -0.131056 0)
(0.793345 -0.111864 8.96535e-24)
(0.83207 -0.0956415 0)
(0.863128 -0.0818019 0)
(0.153219 -0.304895 1.17026e-21)
(0.330998 -0.367766 1.17593e-22)
(0.469698 -0.30718 -6.77144e-22)
(0.560809 -0.252922 -1.39746e-22)
(0.642228 -0.21004 1.09385e-21)
(0.703904 -0.176845 4.93707e-22)
(0.757549 -0.149696 6.73805e-23)
(0.800504 -0.127842 -4.68307e-22)
(0.838195 -0.109353 7.84023e-23)
(0.868331 -0.0936201 -5.53194e-23)
(0.175455 -0.338386 -1.31018e-21)
(0.35793 -0.409863 8.82103e-22)
(0.491649 -0.343073 8.31667e-23)
(0.578444 -0.282729 -1.44969e-22)
(0.656443 -0.234974 -8.71538e-22)
(0.715592 -0.197986 -7.41108e-22)
(0.767192 -0.167705 6.52817e-23)
(0.808566 -0.143307 -6.81674e-23)
(0.845084 -0.122646 1.45948e-22)
(0.874224 -0.105102 -5.85191e-23)
(0.1997 -0.369348 -1.00257e-21)
(0.387492 -0.449448 -8.79021e-22)
(0.515849 -0.377147 1.16681e-21)
(0.597903 -0.311132 1.37874e-22)
(0.672142 -0.258807 0)
(0.728514 -0.218251 0)
(0.777864 -0.185011 0)
(0.817488 -0.158203 1.46963e-21)
(0.852697 -0.135475 5.53545e-22)
(0.880783 -0.116204 -4.26823e-22)
(0.225715 -0.397578 1.91141e-21)
(0.419433 -0.486269 0)
(0.542123 -0.409239 -2.58258e-21)
(0.61906 -0.338003 -9.80525e-22)
(0.689229 -0.281442 0)
(0.742593 -0.237561 0)
(0.789508 -0.20155 9.04597e-22)
(0.827222 -0.172478 -7.22309e-22)
(0.860992 -0.147796 -5.53544e-22)
(0.887981 -0.126885 4.26823e-22)
(0.25323 -0.422856 -1.01775e-21)
(0.453483 -0.520114 8.93915e-23)
(0.570279 -0.439206 1.24908e-21)
(0.641777 -0.36323 1.09609e-21)
(0.707597 -0.302787 -9.59306e-23)
(0.757748 -0.255842 -1.11713e-21)
(0.80206 -0.217262 -4.09544e-23)
(0.837719 -0.186083 -5.84352e-22)
(0.869922 -0.159571 -5.81344e-22)
(0.895787 -0.137107 3.96544e-22)
(0.281931 -0.444959 -2.41594e-24)
(0.489366 -0.550825 -1.32776e-21)
(0.600118 -0.46692 -1.37054e-22)
(0.665909 -0.386711 -7.47062e-22)
(0.727134 -0.322763 -5.97601e-22)
(0.773891 -0.273028 -2.10644e-22)
(0.815453 -0.232095 -8.55522e-22)
(0.848926 -0.198975 7.51087e-22)
(0.879439 -0.170767 3.91938e-22)
(0.904168 -0.146835 -2.95075e-22)
(0.311477 -0.463708 0)
(0.526784 -0.578264 1.09129e-21)
(0.631433 -0.492269 1.23533e-22)
(0.691306 -0.408359 6.72094e-23)
(0.747722 -0.341301 6.7704e-22)
(0.79093 -0.289063 9.31492e-22)
(0.829618 -0.246 -7.67203e-22)
(0.860788 -0.211113 8.06137e-23)
(0.889491 -0.181353 0)
(0.913083 -0.15604 0)
(0.341511 -0.478965 -6.78988e-23)
(0.565418 -0.602307 9.44694e-22)
(0.664011 -0.515153 0)
(0.717807 -0.428103 1.62647e-22)
(0.769239 -0.358342 -7.71155e-23)
(0.808769 -0.303898 0)
(0.844481 -0.258939 7.74372e-22)
(0.873249 -0.222466 5.6867e-22)
(0.900025 -0.191307 -1.09584e-22)
(0.922487 -0.164701 9.20473e-23)
(0.371659 -0.490632 5.96711e-23)
(0.604932 -0.622855 -9.93672e-22)