0.000234375 	0.0999 	0.005 	0.348371 	0.145752 	0
0.000390625 	0.0999 	0.005 	0.495526 	0.095752 	0
0.000546875 	0.0999 	0.005 	0.612438 	0.0589257 	0
0.000703125 	0.0999 	0.005 	0.687944 	0.0370002 	0
0.000859375 	0.0999 	0.005 	0.738694 	0.0241084 	0
0.00101563 	0.0999 	0.005 	0.775078 	0.0164498 	0
0.00117188 	0.0999 	0.005 	0.802204 	0.0117915 	0
0.00132812 	0.0999 	0.005 	0.823085 	0.00884307 	0
0.00148437 	0.0999 	0.005 	0.839641 	0.00688669 	0
0.00164062 	0.0999 	0.005 	0.853097 	0.00552751 	0
0.00179687 	0.0999 	0.005 	0.864258 	0.00454409 	0
0.00195312 	0.0999 	0.005 	0.873667 	0.00380779 	0
0.00210937 	0.0999 	0.005 	0.881713 	0.00324079 	0
0.00226562 	0.0999 	0.005 	0.888672 	0.00279399 	0
0.00242187 	0.0999 	0.005 	0.894753 	0.00243519 	0
0.00257812 	0.0999 	0.005 	0.900114 	0.00214243 	0
0.00273437 	0.0999 	0.005 	0.904877 	0.0019003 	0
0.00289062 	0.0999 	0.005 	0.909138 	0.00169768 	0
0.00304687 	0.0999 	0.005 	0.912973 	0.00152637 	0
0.00320312 	0.0999 	0.005 	0.916443 	0.00138021 	0
0.00335937 	0.0999 	0.005 	0.919599 	0.00125449 	0
0.00351562 	0.0999 	0.005 	0.922483 	0.00114554 	0
0.00367187 	0.0999 	0.005 	0.925128 	0.0010505 	0
0.00382812 	0.0999 	0.005 	0.927565 	0.000967089 	0
0.00398437 	0.0999 	0.005 	0.929816 	0.000893476 	0
0.00414062 	0.0999 	0.005 	0.931904 	0.000828177 	0
0.00429687 	0.0999 	0.005 	0.933846 	0.00076998 	0
0.00445312 	0.0999 	0.005 	0.935656 	0.000717886 	0
0.00460937 	0.0999 	0.005 	0.937348 	0.000671066 	0
0.00476562 	0.0999 	0.005 	0.938934 	0.000628827 	0
0.00492187 	0.0999 	0.005 	0.940423 	0.000590588 	0
0.00507812 	0.0999 	0.005 	0.941825 	0.000555854 	0
0.00523437 	0.0999 	0.005 	0.943147 	0.000524208 	0
0.00539062 	0.0999 	0.005 	0.944396 	0.000495291 	0
0.00554687 	0.0999 	0.005 	0.945579 	0.000468797 	0
0.00570312 	0.0999 	0.005 	0.946699 	0.000444458 	0
0.00585937 	0.0999 	0.005 	0.947764 	0.000422045 	0
0.00601562 	0.0999 	0.005 	0.948776 	0.000401359 	0
0.00617187 	0.0999 	0.005 	0.94974 	0.000382225 	0
0.00632812 	0.0999 	0.005 	0.950659 	0.00036449 	0
0.00648437 	0.0999 	0.005 	0.951536 	0.000348018 	0
0.00664062 	0.0999 	0.005 	0.952375 	0.000332692 	0
0.00679687 	0.0999 	0.005 	0.953177 	0.000318405 	0
0.00695312 	0.0999 	0.005 	0.953947 	0.000305066 	0
0.00710937 	0.0999 	0.005 	0.954683 	0.000292589 	0
0.00726562 	0.0999 	0.005 	0.955392 	0.000280903 	0
0.00742187 	0.0999 	0.005 	0.956072 	0.000269939 	0
0.00757812 	0.0999 	0.005 	0.956726 	0.00025964 	0
0.00773437 	0.0999 	0.005 	0.957356 	0.000249951 	0
0.00789062 	0.0999 	0.005 	0.957962 	0.000240825 	0
0.00804687 	0.0999 	0.005 	0.958547 	0.000232216 	0
0.00820312 	0.0999 	0.005 	0.959111 	0.000224089 	0
0.00835937 	0.0999 	0.005 	0.959657 	0.000216403 	0
0.00851562 	0.0999 	0.005 	0.960183 	0.000209131 	0
0.00867187 	0.0999 	0.005 	0.960692 	0.000202239 	0
0.00882812 	0.0999 	0.005 	0.961185 	0.000195703 	0
0.00898437 	0.0999 	0.005 	0.961662 	0.000189497 	0
0.00914062 	0.0999 	0.005 	0.962125 	0.000183599 	0
0.00929687 	0.0999 	0.005 	0.962573 	0.000177989 	0
0.00945312 	0.0999 	0.005 	0.963008 	0.000172648 	0
0.00960937 	0.0999 	0.005 	0.963429 	0.000167557 	0
0.00976562 	0.0999 	0.005 	0.963838 	0.000162703 	0
0.00992187 	0.0999 	0.005 	0.964236 	0.000158069 	0
0.0100781 	0.0999 	0.005 	0.964623 	0.000153642 	0
0.0102344 	0.0999 	0.005 	0.964999 	0.00014941 	0
0.0103906 	0.0999 	0.005 	0.965365 	0.000145361 	0
0.0105469 	0.0999 	0.005 	0.96572 	0.000141485 	0
0.0107031 	0.0999 	0.005 	0.966067 	0.000137771 	0
0.0108594 	0.0999 	0.005 	0.966404 	0.00013421 	0
0.0110156 	0.0999 	0.005 	0.966733 	0.000130794 	0
0.0111719 	0.0999 	0.005 	0.967054 	0.000127515 	0
0.0113281 	0.0999 	0.005 	0.967367 	0.000124366 	0
0.0114844 	0.0999 	0.005 	0.967672 	0.000121338 	0
0.0116406 	0.0999 	0.005 	0.967969 	0.000118427 	0
0.0117969 	0.0999 	0.005 	0.96826 	0.000115625 	0
0.0119531 	0.0999 	0.005 	0.968544 	0.000112928 	0
0.0121094 	0.0999 	0.005 	0.968822 	0.00011033 	0
0.0122656 	0.0999 	0.005 	0.969093 	0.000107826 	0
0.0124219 	0.0999 	0.005 	0.969358 	0.000105412 	0
0.0125781 	0.0999 	0.005 	0.969617 	0.000103082 	0
0.0127344 	0.0999 	0.005 	0.969871 	0.000100834 	0
0.0128906 	0.0999 	0.005 	0.970119 	9.86625e-05 	0
0.0130469 	0.0999 	0.005 	0.970361 	9.65648e-05 	0
0.0132031 	0.0999 	0.005 	0.970599 	9.45374e-05 	0
0.0133594 	0.0999 	0.005 	0.970831 	9.2577e-05 	0
0.0135156 	0.0999 	0.005 	0.97106 	9.06806e-05 	0
0.0136719 	0.0999 	0.005 	0.971282 	8.88453e-05 	0
0.0138281 	0.0999 	0.005 	0.971502 	8.70684e-05 	0
0.0139844 	0.0999 	0.005 	0.971716 	8.53476e-05 	0
0.0141406 	0.0999 	0.005 	0.971926 	8.36803e-05 	0
0.0142969 	0.0999 	0.005 	0.972132 	8.20643e-05 	0
0.0144531 	0.0999 	0.005 	0.972335 	8.04973e-05 	0
0.0146094 	0.0999 	0.005 	0.972533 	7.89775e-05 	0
0.0147656 	0.0999 	0.005 	0.972727 	7.7503e-05 	0
0.0149219 	0.0999 	0.005 	0.972919 	7.60718e-05 	0
0.0150781 	0.0999 	0.005 	0.973107 	7.46823e-05 	0
0.0152344 	0.0999 	0.005 	0.973291 	7.33326e-05 	0
0.0153906 	0.0999 	0.005 	0.973472 	7.20214e-05 	0
0.0155469 	0.0999 	0.005 	0.97365 	7.07471e-05 	0
0.0157031 	0.0999 	0.005 	0.973824 	6.95083e-05 	0
0.0158594 	0.0999 	0.005 	0.973995 	6.83037e-05 	0
0.0160156 	0.0999 	0.005 	0.974164 	6.7132e-05 	0
0.0161719 	0.0999 	0.005 	0.97433 	6.5992e-05 	0
0.0163281 	0.0999 	0.005 	0.974493 	6.48824e-05 	0
0.0164844 	0.0999 	0.005 	0.974653 	6.38023e-05 	0
0.0166406 	0.0999 	0.005 	0.97481 	6.27505e-05 	0
0.0167969 	0.0999 	0.005 	0.974966 	6.17262e-05 	0
0.0169531 	0.0999 	0.005 	0.975118 	6.07281e-05 	0
0.0171094 	0.0999 	0.005 	0.975268 	5.97556e-05 	0
0.0172656 	0.0999 	0.005 	0.975416 	5.88077e-05 	0
0.0174219 	0.0999 	0.005 	0.975561 	5.78834e-05 	0
0.0175781 	0.0999 	0.005 	0.975704 	5.69821e-05 	0
0.0177344 	0.0999 	0.005 	0.975845 	5.61031e-05 	0
0.0178906 	0.0999 	0.005 	0.975984 	5.52454e-05 	0
0.0180469 	0.0999 	0.005 	0.97612 	5.44085e-05 	0
0.0182031 	0.0999 	0.005 	0.976255 	5.35916e-05 	0
0.0183594 	0.0999 	0.005 	0.976388 	5.2794e-05 	0
0.0185156 	0.0999 	0.005 	0.976518 	5.20153e-05 	0
0.0186719 	0.0999 	0.005 	0.976647 	5.12547e-05 	0
0.0188281 	0.0999 	0.005 	0.976774 	5.05119e-05 	0
0.0189844 	0.0999 	0.005 	0.976899 	4.9786e-05 	0
0.0191406 	0.0999 	0.005 	0.977022 	4.90767e-05 	0
0.0192969 	0.0999 	0.005 	0.977143 	4.83834e-05 	0
0.0194531 	0.0999 	0.005 	0.977263 	4.77057e-05 	0
0.0196094 	0.0999 	0.005 	0.977381 	4.7043e-05 	0
0.0197656 	0.0999 	0.005 	0.977497 	4.63951e-05 	0
0.0199219 	0.0999 	0.005 	0.977612 	4.57613e-05 	0
0.0200781 	0.0999 	0.005 	0.977726 	4.51413e-05 	0
0.0202344 	0.0999 	0.005 	0.977837 	4.45346e-05 	0
0.0203906 	0.0999 	0.005 	0.977948 	4.39409e-05 	0
0.0205469 	0.0999 	0.005 	0.978056 	4.33598e-05 	0
0.0207031 	0.0999 	0.005 	0.978164 	4.2791e-05 	0
0.0208594 	0.0999 	0.005 	0.97827 	4.2234e-05 	0
0.0210156 	0.0999 	0.005 	0.978375 	4.16887e-05 	0
0.0211719 	0.0999 	0.005 	0.978478 	4.11547e-05 	0
0.0213281 	0.0999 	0.005 	0.97858 	4.06316e-05 	0
0.0214844 	0.0999 	0.005 	0.97868 	4.01191e-05 	0
0.0216406 	0.0999 	0.005 	0.97878 	3.9617e-05 	0
0.0217969 	0.0999 	0.005 	0.978878 	3.91251e-05 	0
0.0219531 	0.0999 	0.005 	0.978975 	3.86429e-05 	0
0.0221094 	0.0999 	0.005 	0.979071 	3.81702e-05 	0
0.0222656 	0.0999 	0.005 	0.979166 	3.77069e-05 	0
0.0224219 	0.0999 	0.005 	0.979259 	3.72525e-05 	0
0.0225781 	0.0999 	0.005 	0.979351 	3.6807e-05 	0
0.0227344 	0.0999 	0.005 	0.979442 	3.637e-05 	0
0.0228906 	0.0999 	0.005 	0.979533 	3.59414e-05 	0
0.0230469 	0.0999 	0.005 	0.979621 	3.5521e-05 	0
0.0232031 	0.0999 	0.005 	0.97971 	3.51085e-05 	0
0.0233594 	0.0999 	0.005 	0.979797 	3.47037e-05 	0
0.0235156 	0.0999 	0.005 	0.979883 	3.43066e-05 	0
0.0236719 	0.0999 	0.005 	0.979968 	3.39168e-05 	0
0.0238281 	0.0999 	0.005 	0.980052 	3.35342e-05 	0
0.0239844 	0.0999 	0.005 	0.980135 	3.31587e-05 	0
0.0241406 	0.0999 	0.005 	0.980217 	3.279e-05 	0
0.0242969 	0.0999 	0.005 	0.980299 	3.2428e-05 	0
0.0244531 	0.0999 	0.005 	0.98038 	3.20726e-05 	0
0.0246094 	0.0999 	0.005 	0.980459 	3.17234e-05 	0
0.0247656 	0.0999 	0.005 	0.980538 	3.13805e-05 	0
0.0249219 	0.0999 	0.005 	0.980615 	3.10435e-05 	0
0.0250781 	0.0999 	0.005 	0.980693 	3.07126e-05 	0
0.0252344 	0.0999 	0.005 	0.980769 	3.03874e-05 	0
0.0253906 	0.0999 	0.005 	0.980844 	3.00679e-05 	0
0.0255469 	0.0999 	0.005 	0.980919 	2.97538e-05 	0
0.0257031 	0.0999 	0.005 	0.980992 	2.94452e-05 	0
0.0258594 	0.0999 	0.005 	0.981065 	2.91418e-05 	0
0.0260156 	0.0999 	0.005 	0.981138 	2.88435e-05 	0
0.0261719 	0.0999 	0.005 	0.98121 	2.85504e-05 	0
0.0263281 	0.0999 	0.005 	0.98128 	2.82622e-05 	0
0.0264844 	0.0999 	0.005 	0.98135 	2.79788e-05 	0
0.0266406 	0.0999 	0.005 	0.98142 	2.77001e-05 	0
0.0267969 	0.0999 	0.005 	0.981489 	2.74261e-05 	0
0.0269531 	0.0999 	0.005 	0.981557 	2.71566e-05 	0
0.0271094 	0.0999 	0.005 	0.981624 	2.68915e-05 	0
0.0272656 	0.0999 	0.005 	0.981691 	2.66308e-05 	0
0.0274219 	0.0999 	0.005 	0.981757 	2.63743e-05 	0
0.0275781 	0.0999 	0.005 	0.981822 	2.61221e-05 	0
0.0277344 	0.0999 	0.005 	0.981887 	2.58739e-05 	0
0.0278906 	0.0999 	0.005 	0.981952 	2.56296e-05 	0
0.0280469 	0.0999 	0.005 	0.982015 	2.53892e-05 	0
0.0282031 	0.0999 	0.005 	0.982078 	2.51526e-05 	0
0.0283594 	0.0999 	0.005 	0.982141 	2.49197e-05 	0
0.0285156 	0.0999 	0.005 	0.982203 	2.46906e-05 	0
0.0286719 	0.0999 	0.005 	0.982265 	2.44649e-05 	0
0.0288281 	0.0999 	0.005 	0.982325 	2.42428e-05 	0
0.0289844 	0.0999 	0.005 	0.982385 	2.40241e-05 	0
0.0291406 	0.0999 	0.005 	0.982445 	2.38087e-05 	0
0.0292969 	0.0999 	0.005 	0.982504 	2.35966e-05 	0
0.0294531 	0.0999 	0.005 	0.982563 	2.33878e-05 	0
0.0296094 	0.0999 	0.005 	0.98262 	2.31822e-05 	0
0.0297656 	0.0999 	0.005 	0.982678 	2.29798e-05 	0
0.0299219 	0.0999 	0.005 	0.982735 	2.27805e-05 	0
0.0300781 	0.0999 	0.005 	0.982792 	2.2584e-05 	0
0.0302344 	0.0999 	0.005 	0.982848 	2.23906e-05 	0
0.0303906 	0.0999 	0.005 	0.982903 	2.22001e-05 	0
0.0305469 	0.0999 	0.005 	0.982959 	2.20125e-05 	0
0.0307031 	0.0999 	0.005 	0.983013 	2.18277e-05 	0
0.0308594 	0.0999 	0.005 	0.983068 	2.16456e-05 	0
0.0310156 	0.0999 	0.005 	0.983122 	2.14663e-05 	0
0.0311719 	0.0999 	0.005 	0.983174 	2.12896e-05 	0
0.0313281 	0.0999 	0.005 	0.983228 	2.11154e-05 	0
0.0314844 	0.0999 	0.005 	0.98328 	2.09439e-05 	0
0.0316406 	0.0999 	0.005 	0.983332 	2.07748e-05 	0
0.0317969 	0.0999 	0.005 	0.983384 	2.06082e-05 	0
0.0319531 	0.0999 	0.005 	0.983435 	2.0444e-05 	0
0.0321094 	0.0999 	0.005 	0.983486 	2.0282e-05 	0
0.0322656 	0.0999 	0.005 	0.983536 	2.01224e-05 	0
0.0324219 	0.0999 	0.005 	0.983586 	1.9965e-05 	0
0.0325781 	0.0999 	0.005 	0.983636 	1.981e-05 	0
0.0327344 	0.0999 	0.005 	0.983685 	1.96571e-05 	0
0.0328906 	0.0999 	0.005 	0.983734 	1.95065e-05 	0
0.0330469 	0.0999 	0.005 	0.983782 	1.93579e-05 	0
0.0332031 	0.0999 	0.005 	0.98383 	1.92114e-05 	0
0.0333594 	0.0999 	0.005 	0.983878 	1.9067e-05 	0
0.0335156 	0.0999 	0.005 	0.983925 	1.89246e-05 	0
0.0336719 	0.0999 	0.005 	0.983972 	1.87842e-05 	0
0.0338281 	0.0999 	0.005 	0.984019 	1.86459e-05 	0
0.0339844 	0.0999 	0.005 	0.984066 	1.85095e-05 	0
0.0341406 	0.0999 	0.005 	0.984112 	1.8375e-05 	0
0.0342969 	0.0999 	0.005 	0.984157 	1.82424e-05 	0
0.0344531 	0.0999 	0.005 	0.984202 	1.81117e-05 	0
0.0346094 	0.0999 	0.005 	0.984247 	1.79829e-05 	0
0.0347656 	0.0999 	0.005 	0.984292 	1.78559e-05 	0
0.0349219 	0.0999 	0.005 	0.984337 	1.77307e-05 	0
0.0350781 	0.0999 	0.005 	0.98438 	1.76072e-05 	0
0.0352344 	0.0999 	0.005 	0.984425 	1.74855e-05 	0
0.0353906 	0.0999 	0.005 	0.984468 	1.73654e-05 	0
0.0355469 	0.0999 	0.005 	0.984511 	1.72471e-05 	0
0.0357031 	0.0999 	0.005 	0.984554 	1.71306e-05 	0
0.0358594 	0.0999 	0.005 	0.984596 	1.70156e-05 	0
0.0360156 	0.0999 	0.005 	0.984638 	1.69023e-05 	0
0.0361719 	0.0999 	0.005 	0.984681 	1.67906e-05 	0
0.0363281 	0.0999 	0.005 	0.984723 	1.66803e-05 	0
0.0364844 	0.0999 	0.005 	0.984764 	1.65717e-05 	0
0.0366406 	0.0999 	0.005 	0.984805 	1.64645e-05 	0
0.0367969 	0.0999 	0.005 	0.984846 	1.63589e-05 	0
0.0369531 	0.0999 	0.005 	0.984886 	1.62548e-05 	0
0.0371094 	0.0999 	0.005 	0.984927 	1.61521e-05 	0
0.0372656 	0.0999 	0.005 	0.984967 	1.60508e-05 	0
0.0374219 	0.0999 	0.005 	0.985007 	1.5951e-05 	0
0.0375781 	0.0999 	0.005 	0.985046 	1.58526e-05 	0
0.0377344 	0.0999 	0.005 	0.985086 	1.57556e-05 	0
0.0378906 	0.0999 	0.005 	0.985125 	1.56599e-05 	0
0.0380469 	0.0999 	0.005 	0.985164 	1.55656e-05 	0
0.0382031 	0.0999 	0.005 	0.985202 	1.54726e-05 	0
0.0383594 	0.0999 	0.005 	0.985241 	1.53809e-05 	0
0.0385156 	0.0999 	0.005 	0.985279 	1.52906e-05 	0
0.0386719 	0.0999 	0.005 	0.985317 	1.52016e-05 	0
0.0388281 	0.0999 	0.005 	0.985355 	1.51139e-05 	0
0.0389844 	0.0999 	0.005 	0.985393 	1.50275e-05 	0
0.0391406 	0.0999 	0.005 	0.98543 	1.49423e-05 	0
0.0392969 	0.0999 	0.005 	0.985467 	1.48584e-05 	0
0.0394531 	0.0999 	0.005 	0.985504 	1.47756e-05 	0
0.0396094 	0.0999 	0.005 	0.985541 	1.46942e-05 	0
0.0397656 	0.0999 	0.005 	0.985577 	1.46139e-05 	0
0.0399219 	0.0999 	0.005 	0.985614 	1.45349e-05 	0
0.0400781 	0.0999 	0.005 	0.98565 	1.4457e-05 	0
0.0402344 	0.0999 	0.005 	0.985685 	1.43803e-05 	0
0.0403906 	0.0999 	0.005 	0.985721 	1.43048e-05 	0
0.0405469 	0.0999 	0.005 	0.985757 	1.42305e-05 	0
0.0407031 	0.0999 	0.005 	0.985792 	1.41573e-05 	0
0.0408594 	0.0999 	0.005 	0.985827 	1.40853e-05 	0
0.0410156 	0.0999 	0.005 	0.985862 	1.40143e-05 	0
0.0411719 	0.0999 	0.005 	0.985897 	1.39444e-05 	0
0.0413281 	0.0999 	0.005 	0.985932 	1.38757e-05 	0
0.0414844 	0.0999 	0.005 	0.985966 	1.38082e-05 	0
0.0416406 	0.0999 	0.005 	0.986 	1.37417e-05 	0
0.0417969 	0.0999 	0.005 	0.986034 	1.36762e-05 	0
0.0419531 	0.0999 	0.005 	0.986069 	1.36118e-05 	0
0.0421094 	0.0999 	0.005 	0.986102 	1.35485e-05 	0
0.0422656 	0.0999 	0.005 	0.986135 	1.34862e-05 	0
0.0424219 	0.0999 	0.005 	0.98617 	1.3425e-05 	0
0.0425781 	0.0999 	0.005 	0.986203 	1.33648e-05 	0
0.0427344 	0.0999 	0.005 	0.986236 	1.33056e-05 	0
0.0428906 	0.0999 	0.005 	0.986268 	1.32475e-05 	0
0.0430469 	0.0999 	0.005 	0.986301 	1.31904e-05 	0
0.0432031 	0.0999 	0.005 	0.986334 	1.31342e-05 	0
0.0433594 	0.0999 	0.005 	0.986367 	1.30791e-05 	0
0.0435156 	0.0999 	0.005 	0.9864 	1.3025e-05 	0
0.0436719 	0.0999 	0.005 	0.986432 	1.29718e-05 	0
0.0438281 	0.0999 	0.005 	0.986464 	1.29196e-05 	0
0.0439844 	0.0999 	0.005 	0.986496 	1.28684e-05 	0
0.0441406 	0.0999 	0.005 	0.986528 	1.28182e-05 	0
0.0442969 	0.0999 	0.005 	0.98656 	1.27689e-05 	0
0.0444531 	0.0999 	0.005 	0.986591 	1.27205e-05 	0
0.0446094 	0.0999 	0.005 	0.986623 	1.26731e-05 	0
0.0447656 	0.0999 	0.005 	0.986654 	1.26266e-05 	0
0.0449219 	0.0999 	0.005 	0.986686 	1.2581e-05 	0
0.0450781 	0.0999 	0.005 	0.986717 	1.25364e-05 	0
0.0452344 	0.0999 	0.005 	0.986747 	1.24927e-05 	0
0.0453906 	0.0999 	0.005 	0.986779 	1.24499e-05 	0
0.0455469 	0.0999 	0.005 	0.98681 	1.2408e-05 	0
0.0457031 	0.0999 	0.005 	0.98684 	1.2367e-05 	0
0.0458594 	0.0999 	0.005 	0.986871 	1.2327e-05 	0
0.0460156 	0.0999 	0.005 	0.986902 	1.22877e-05 	0
0.0461719 	0.0999 	0.005 	0.986932 	1.22494e-05 	0
0.0463281 	0.0999 	0.005 	0.986963 	1.22119e-05 	0
0.0464844 	0.0999 	0.005 	0.986992 	1.21752e-05 	0
0.0466406 	0.0999 	0.005 	0.987023 	1.21395e-05 	0
0.0467969 	0.0999 	0.005 	0.987052 	1.21045e-05 	0
0.0469531 	0.0999 	0.005 	0.987083 	1.20704e-05 	0
0.0471094 	0.0999 	0.005 	0.987112 	1.20371e-05 	0
0.0472656 	0.0999 	0.005 	0.987143 	1.20046e-05 	0
0.0474219 	0.0999 	0.005 	0.987172 	1.1973e-05 	0
0.0475781 	0.0999 	0.005 	0.987202 	1.19422e-05 	0
0.0477344 	0.0999 	0.005 	0.987231 	1.19121e-05 	0
0.0478906 	0.0999 	0.005 	0.987261 	1.18829e-05 	0
0.0480469 	0.0999 	0.005 	0.987291 	1.18544e-05 	0
0.0482031 	0.0999 	0.005 	0.98732 	1.18267e-05 	0
0.0483594 	0.0999 	0.005 	0.987349 	1.17997e-05 	0
0.0485156 	0.0999 	0.005 	0.987378 	1.17736e-05 	0
0.0486719 	0.0999 	0.005 	0.987407 	1.17481e-05 	0
0.0488281 	0.0999 	0.005 	0.987436 	1.17234e-05 	0
0.0489844 	0.0999 	0.005 	0.987466 	1.16994e-05 	0
0.0491406 	0.0999 	0.005 	0.987494 	1.16762e-05 	0
0.0492969 	0.0999 	0.005 	0.987523 	1.16537e-05 	0
0.0494531 	0.0999 	0.005 	0.987552 	1.16318e-05 	0
0.0496094 	0.0999 	0.005 	0.987581 	1.16107e-05 	0
0.0497656 	0.0999 	0.005 	0.98761 	1.15902e-05 	0
0.0499219 	0.0999 	0.005 	0.987638 	1.15705e-05 	0
0.0500781 	0.0999 	0.005 	0.987667 	1.15514e-05 	0
0.0502344 	0.0999 	0.005 	0.987695 	1.15329e-05 	0
0.0503906 	0.0999 	0.005 	0.987724 	1.1515e-05 	0
0.0505469 	0.0999 	0.005 	0.987753 	1.14978e-05 	0
0.0507031 	0.0999 	0.005 	0.987781 	1.14812e-05 	0
0.0508594 	0.0999 	0.005 	0.987809 	1.14652e-05 	0
0.0510156 	0.0999 	0.005 	0.987837 	1.14498e-05 	0
0.0511719 	0.0999 	0.005 	0.987866 	1.1435e-05 	0
0.0513281 	0.0999 	0.005 	0.987894 	1.14207e-05 	0
0.0514844 	0.0999 	0.005 	0.987922 	1.1407e-05 	0
0.0516406 	0.0999 	0.005 	0.98795 	1.13938e-05 	0
0.0517969 	0.0999 	0.005 	0.987978 	1.1381e-05 	0
0.0519531 	0.0999 	0.005 	0.988007 	1.13688e-05 	0
0.0521094 	0.0999 	0.005 	0.988035 	1.1357e-05 	0
0.0522656 	0.0999 	0.005 	0.988063 	1.13457e-05 	0
0.0524219 	0.0999 	0.005 	0.988091 	1.13349e-05 	0
0.0525781 	0.0999 	0.005 	0.988119 	1.13244e-05 	0
0.0527344 	0.0999 	0.005 	0.988147 	1.13143e-05 	0
0.0528906 	0.0999 	0.005 	0.988175 	1.13047e-05 	0
0.0530469 	0.0999 	0.005 	0.988203 	1.12954e-05 	0
0.0532031 	0.0999 	0.005 	0.988231 	1.12864e-05 	0
0.0533594 	0.0999 	0.005 	0.988259 	1.12778e-05 	0
0.0535156 	0.0999 	0.005 	0.988286 	1.12694e-05 	0
0.0536719 	0.0999 	0.005 	0.988314 	1.12613e-05 	0
0.0538281 	0.0999 	0.005 	0.988342 	1.12535e-05 	0
0.0539844 	0.0999 	0.005 	0.98837 	1.12459e-05 	0
0.0541406 	0.0999 	0.005 	0.988397 	1.12385e-05 	0
0.0542969 	0.0999 	0.005 	0.988425 	1.12312e-05 	0
0.0544531 	0.0999 	0.005 	0.988452 	1.12242e-05 	0
0.0546094 	0.0999 	0.005 	0.98848 	1.12172e-05 	0
0.0547656 	0.0999 	0.005 	0.988508 	1.12104e-05 	0
0.0549219 	0.0999 	0.005 	0.988535 	1.12036e-05 	0
0.0550781 	0.0999 	0.005 	0.988563 	1.11969e-05 	0
0.0552344 	0.0999 	0.005 	0.988591 	1.11902e-05 	0
0.0553906 	0.0999 	0.005 	0.988618 	1.11835e-05 	0
0.0555469 	0.0999 	0.005 	0.988646 	1.11767e-05 	0
0.0557031 	0.0999 	0.005 	0.988674 	1.11698e-05 	0
0.0558594 	0.0999 	0.005 	0.988701 	1.11629e-05 	0
0.0560156 	0.0999 	0.005 	0.988729 	1.11558e-05 	0
0.0561719 	0.0999 	0.005 	0.988756 	1.11485e-05 	0
0.0563281 	0.0999 	0.005 	0.988784 	1.1141e-05 	0
0.0564844 	0.0999 	0.005 	0.988811 	1.11333e-05 	0
0.0566406 	0.0999 	0.005 	0.988838 	1.11253e-05 	0
0.0567969 	0.0999 	0.005 	0.988866 	1.11169e-05 	0
0.0569531 	0.0999 	0.005 	0.988893 	1.11081e-05 	0
0.0571094 	0.0999 	0.005 	0.988921 	1.1099e-05 	0
0.0572656 	0.0999 	0.005 	0.988948 	1.10894e-05 	0
0.0574219 	0.0999 	0.005 	0.988975 	1.10793e-05 	0
0.0575781 	0.0999 	0.005 	0.989002 	1.10687e-05 	0
0.0577344 	0.0999 	0.005 	0.989029 	1.10574e-05 	0
0.0578906 	0.0999 	0.005 	0.989057 	1.10456e-05 	0
0.0580469 	0.0999 	0.005 	0.989084 	1.10331e-05 	0
0.0582031 	0.0999 	0.005 	0.989111 	1.10199e-05 	0
0.0583594 	0.0999 	0.005 	0.989139 	1.10059e-05 	0
0.0585156 	0.0999 	0.005 	0.989166 	1.09911e-05 	0
0.0586719 	0.0999 	0.005 	0.989192 	1.09755e-05 	0
0.0588281 	0.0999 	0.005 	0.98922 	1.09589e-05 	0
0.0589844 	0.0999 	0.005 	0.989247 	1.09413e-05 	0
0.0591406 	0.0999 	0.005 	0.989274 	1.09228e-05 	0
0.0592969 	0.0999 	0.005 	0.989301 	1.09032e-05 	0
0.0594531 	0.0999 	0.005 	0.989327 	1.08824e-05 	0
0.0596094 	0.0999 	0.005 	0.989354 	1.08605e-05 	0
0.0597656 	0.0999 	0.005 	0.989381 	1.08373e-05 	0
0.0599219 	0.0999 	0.005 	0.989408 	1.08128e-05 	0
0.0600781 	0.0999 	0.005 	0.989434 	1.07871e-05 	0
0.0602344 	0.0999 	0.005 	0.989461 	1.07599e-05 	0
0.0603906 	0.0999 	0.005 	0.989488 	1.07312e-05 	0
0.0605469 	0.0999 	0.005 	0.989514 	1.0701e-05 	0
0.0607031 	0.0999 	0.005 	0.98954 	1.06692e-05 	0
0.0608594 	0.0999 	0.005 	0.989567 	1.06358e-05 	0
0.0610156 	0.0999 	0.005 	0.989592 	1.06006e-05 	0
0.0611719 	0.0999 	0.005 	0.989619 	1.05637e-05 	0
0.0613281 	0.0999 	0.005 	0.989645 	1.05249e-05 	0
0.0614844 	0.0999 	0.005 	0.989671 	1.04841e-05 	0
0.0616406 	0.0999 	0.005 	0.989697 	1.04414e-05 	0
0.0617969 	0.0999 	0.005 	0.989722 	1.03966e-05 	0
0.0619531 	0.0999 	0.005 	0.989748 	1.03497e-05 	0
0.0621094 	0.0999 	0.005 	0.989773 	1.03006e-05 	0
0.0622656 	0.0999 	0.005 	0.989799 	1.02493e-05 	0
0.0624219 	0.0999 	0.005 	0.989824 	1.01956e-05 	0
0.0625781 	0.0999 	0.005 	0.98985 	1.01394e-05 	0
0.0627344 	0.0999 	0.005 	0.989875 	1.00808e-05 	0
0.0628906 	0.0999 	0.005 	0.9899 	1.00196e-05 	0
0.0630469 	0.0999 	0.005 	0.989925 	9.95581e-06 	0
0.0632031 	0.0999 	0.005 	0.989949 	9.88925e-06 	0
0.0633594 	0.0999 	0.005 	0.989974 	9.81987e-06 	0
0.0635156 	0.0999 	0.005 	0.989998 	9.74762e-06 	0
0.0636719 	0.0999 	0.005 	0.990022 	9.67242e-06 	0
0.0638281 	0.0999 	0.005 	0.990046 	9.59417e-06 	0
0.0639844 	0.0999 	0.005 	0.99007 	9.5128e-06 	0
0.0641406 	0.0999 	0.005 	0.990094 	9.42822e-06 	0
0.0642969 	0.0999 	0.005 	0.990117 	9.34038e-06 	0
0.0644531 	0.0999 	0.005 	0.99014 	9.24917e-06 	0
0.0646094 	0.0999 	0.005 	0.990163 	9.1545e-06 	0
0.0647656 	0.0999 	0.005 	0.990186 	9.05627e-06 	0
0.0649219 	0.0999 	0.005 	0.990208 	8.95444e-06 	0
0.0650781 	0.0999 	0.005 	0.99023 	8.84891e-06 	0
0.0652344 	0.0999 	0.005 	0.990252 	8.73956e-06 	0
0.0653906 	0.0999 	0.005 	0.990274 	8.62629e-06 	0
0.0655469 	0.0999 	0.005 	0.990296 	8.50908e-06 	0
0.0657031 	0.0999 	0.005 	0.990317 	8.38781e-06 	0
0.0658594 	0.0999 	0.005 	0.990338 	8.26238e-06 	0
0.0660156 	0.0999 	0.005 	0.990359 	8.1327e-06 	0
0.0661719 	0.0999 	0.005 	0.990379 	7.9987e-06 	0
0.0663281 	0.0999 	0.005 	0.990399 	7.86031e-06 	0
0.0664844 	0.0999 	0.005 	0.990418 	7.71739e-06 	0
0.0666406 	0.0999 	0.005 	0.990438 	7.56989e-06 	0
0.0667969 	0.0999 	0.005 	0.990456 	7.4177e-06 	0
0.0669531 	0.0999 	0.005 	0.990476 	7.26073e-06 	0
0.0671094 	0.0999 	0.005 	0.990494 	7.0989e-06 	0
0.0672656 	0.0999 	0.005 	0.990512 	6.9321e-06 	0
0.0674219 	0.0999 	0.005 	0.990529 	6.76024e-06 	0
0.0675781 	0.0999 	0.005 	0.990546 	6.58322e-06 	0
0.0677344 	0.0999 	0.005 	0.990563 	6.40097e-06 	0
0.0678906 	0.0999 	0.005 	0.990579 	6.21339e-06 	0
0.0680469 	0.0999 	0.005 	0.990595 	6.02038e-06 	0
0.0682031 	0.0999 	0.005 	0.99061 	5.82183e-06 	0
0.0683594 	0.0999 	0.005 	0.990625 	5.61768e-06 	0
0.0685156 	0.0999 	0.005 	0.99064 	5.40782e-06 	0
0.0686719 	0.0999 	0.005 	0.990653 	5.19217e-06 	0
0.0688281 	0.0999 	0.005 	0.990667 	4.97062e-06 	0
0.0689844 	0.0999 	0.005 	0.990679 	4.74309e-06 	0
0.0691406 	0.0999 	0.005 	0.990692 	4.50948e-06 	0
0.0692969 	0.0999 	0.005 	0.990704 	4.26971e-06 	0
0.0694531 	0.0999 	0.005 	0.990714 	4.02366e-06 	0
0.0696094 	0.0999 	0.005 	0.990725 	3.77125e-06 	0
0.0697656 	0.0999 	0.005 	0.990735 	3.51238e-06 	0
0.0699219 	0.0999 	0.005 	0.990745 	3.24695e-06 	0
0.0700781 	0.0999 	0.005 	0.990754 	2.97489e-06 	0
0.0702344 	0.0999 	0.005 	0.990762 	2.6961e-06 	0
0.0703906 	0.0999 	0.005 	0.990769 	2.41048e-06 	0
0.0705469 	0.0999 	0.005 	0.990776 	2.11796e-06 	0
0.0707031 	0.0999 	0.005 	0.990782 	1.81843e-06 	0
0.0708594 	0.0999 	0.005 	0.990787 	1.51179e-06 	0
0.0710156 	0.0999 	0.005 	0.990792 	1.19795e-06 	0
0.0711719 	0.0999 	0.005 	0.990795 	8.76832e-07 	0
0.0713281 	0.0999 	0.005 	0.990799 	5.48326e-07 	0
0.0714844 	0.0999 	0.005 	0.990801 	2.12352e-07 	0
0.0716406 	0.0999 	0.005 	0.990803 	-1.31119e-07 	0
0.0717969 	0.0999 	0.005 	0.990804 	-4.82147e-07 	0
0.0719531 	0.0999 	0.005 	0.990803 	-8.41054e-07 	0
0.0721094 	0.0999 	0.005 	0.990802 	-1.20777e-06 	0
0.0722656 	0.0999 	0.005 	0.9908 	-1.58236e-06 	0
0.0724219 	0.0999 	0.005 	0.990798 	-1.96493e-06 	0
0.0725781 	0.0999 	0.005 	0.990794 	-2.35556e-06 	0
0.0727344 	0.0999 	0.005 	0.99079 	-2.75436e-06 	0
0.0728906 	0.0999 	0.005 	0.990785 	-3.16141e-06 	0
0.0730469 	0.0999 	0.005 	0.990778 	-3.57679e-06 	0
0.0732031 	0.0999 	0.005 	0.990771 	-4.0006e-06 	0
0.0733594 	0.0999 	0.005 	0.990762 	-4.43292e-06 	0
0.0735156 	0.0999 	0.005 	0.990752 	-4.87385e-06 	0
0.0736719 	0.0999 	0.005 	0.990742 	-5.32346e-06 	0
0.0738281 	0.0999 	0.005 	0.99073 	-5.78182e-06 	0
0.0739844 	0.0999 	0.005 	0.990717 	-6.24904e-06 	0
0.0741406 	0.0999 	0.005 	0.990704 	-6.7252e-06 	0
0.0742969 	0.0999 	0.005 	0.990688 	-7.21039e-06 	0
0.0744531 	0.0999 	0.005 	0.990673 	-7.70468e-06 	0
0.0746094 	0.0999 	0.005 	0.990655 	-8.20816e-06 	0
0.0747656 	0.0999 	0.005 	0.990637 	-8.72093e-06 	0
0.0749219 	0.0999 	0.005 	0.990617 	-9.24305e-06 	0
0.0750781 	0.0999 	0.005 	0.990596 	-9.77462e-06 	0
0.0752344 	0.0999 	0.005 	0.990574 	-1.03157e-05 	0
0.0753906 	0.0999 	0.005 	0.99055 	-1.08664e-05 	0
0.0755469 	0.0999 	0.005 	0.990526 	-1.14268e-05 	0
0.0757031 	0.0999 	0.005 	0.990499 	-1.1997e-05 	0
0.0758594 	0.0999 	0.005 	0.990472 	-1.25771e-05 	0
0.0760156 	0.0999 	0.005 	0.990443 	-1.31671e-05 	0
0.0761719 	0.0999 	0.005 	0.990413 	-1.37671e-05 	0
0.0763281 	0.0999 	0.005 	0.990381 	-1.43773e-05 	0
0.0764844 	0.0999 	0.005 	0.990347 	-1.49977e-05 	0
0.0766406 	0.0999 	0.005 	0.990313 	-1.56284e-05 	0
0.0767969 	0.0999 	0.005 	0.990277 	-1.62695e-05 	0
0.0769531 	0.0999 	0.005 	0.990239 	-1.6921e-05 	0
0.0771094 	0.0999 	0.005 	0.990199 	-1.75832e-05 	0
0.0772656 	0.0999 	0.005 	0.990158 	-1.82559e-05 	0
0.0774219 	0.0999 	0.005 	0.990116 	-1.89394e-05 	0
0.0775781 	0.0999 	0.005 	0.990072 	-1.96338e-05 	0
0.0777344 	0.0999 	0.005 	0.990027 	-2.03391e-05 	0
0.0778906 	0.0999 	0.005 	0.989979 	-2.10554e-05 	0
0.0780469 	0.0999 	0.005 	0.98993 	-2.17828e-05 	0
0.0782031 	0.0999 	0.005 	0.989879 	-2.25215e-05 	0
0.0783594 	0.0999 	0.005 	0.989826 	-2.32714e-05 	0
0.0785156 	0.0999 	0.005 	0.989771 	-2.40328e-05 	0
0.0786719 	0.0999 	0.005 	0.989715 	-2.48057e-05 	0
0.0788281 	0.0999 	0.005 	0.989657 	-2.55902e-05 	0
0.0789844 	0.0999 	0.005 	0.989597 	-2.63865e-05 	0
0.0791406 	0.0999 	0.005 	0.989535 	-2.71946e-05 	0
0.0792969 	0.0999 	0.005 	0.989471 	-2.80147e-05 	0
0.0794531 	0.0999 	0.005 	0.989405 	-2.88469e-05 	0
0.0796094 	0.0999 	0.005 	0.989337 	-2.96914e-05 	0
0.0797656 	0.0999 	0.005 	0.989267 	-3.05482e-05 	0
0.0799219 	0.0999 	0.005 	0.989195 	-3.14175e-05 	0
0.0800781 	0.0999 	0.005 	0.989121 	-3.22993e-05 	0
0.0802344 	0.0999 	0.005 	0.989045 	-3.3194e-05 	0
0.0803906 	0.0999 	0.005 	0.988966 	-3.41017e-05 	0
0.0805469 	0.0999 	0.005 	0.988886 	-3.50224e-05 	0
0.0807031 	0.0999 	0.005 	0.988803 	-3.59564e-05 	0
0.0808594 	0.0999 	0.005 	0.988718 	-3.69037e-05 	0
0.0810156 	0.0999 	0.005 	0.988631 	-3.78645e-05 	0
0.0811719 	0.0999 	0.005 	0.988541 	-3.88393e-05 	0
0.0813281 	0.0999 	0.005 	0.98845 	-3.98279e-05 	0
0.0814844 	0.0999 	0.005 	0.988355 	-4.08308e-05 	0
0.0816406 	0.0999 	0.005 	0.988259 	-4.1848e-05 	0
0.0817969 	0.0999 	0.005 	0.988159 	-4.28798e-05 	0
0.0819531 	0.0999 	0.005 	0.988057 	-4.39266e-05 	0
0.0821094 	0.0999 	0.005 	0.987954 	-4.49883e-05 	0
0.0822656 	0.0999 	0.005 	0.987846 	-4.60655e-05 	0
0.0824219 	0.0999 	0.005 	0.987737 	-4.71584e-05 	0
0.0825781 	0.0999 	0.005 	0.987626 	-4.82672e-05 	0
0.0827344 	0.0999 	0.005 	0.987511 	-4.93922e-05 	0
0.0828906 	0.0999 	0.005 	0.987393 	-5.05338e-05 	0
0.0830469 	0.0999 	0.005 	0.987273 	-5.16924e-05 	0
0.0832031 	0.0999 	0.005 	0.987151 	-5.28683e-05 	0
0.0833594 	0.0999 	0.005 	0.987025 	-5.40619e-05 	0
0.0835156 	0.0999 	0.005 	0.986896 	-5.52737e-05 	0
0.0836719 	0.0999 	0.005 	0.986765 	-5.6504e-05 	0
0.0838281 	0.0999 	0.005 	0.98663 	-5.77533e-05 	0
0.0839844 	0.0999 	0.005 	0.986493 	-5.90222e-05 	0
0.0841406 	0.0999 	0.005 	0.986352 	-6.03113e-05 	0
0.0842969 	0.0999 	0.005 	0.986209 	-6.1621e-05 	0
0.0844531 	0.0999 	0.005 	0.986062 	-6.29519e-05 	0
0.0846094 	0.0999 	0.005 	0.985912 	-6.43048e-05 	0
0.0847656 	0.0999 	0.005 	0.985758 	-6.56803e-05 	0
0.0849219 	0.0999 	0.005 	0.985601 	-6.70793e-05 	0
0.0850781 	0.0999 	0.005 	0.985442 	-6.85025e-05 	0
0.0852344 	0.0999 	0.005 	0.985278 	-6.99506e-05 	0
0.0853906 	0.0999 	0.005 	0.985111 	-7.14248e-05 	0
0.0855469 	0.0999 	0.005 	0.98494 	-7.29259e-05 	0
0.0857031 	0.0999 	0.005 	0.984766 	-7.4455e-05 	0
0.0858594 	0.0999 	0.005 	0.984589 	-7.60131e-05 	0
0.0860156 	0.0999 	0.005 	0.984407 	-7.76016e-05 	0
0.0861719 	0.0999 	0.005 	0.984221 	-7.92217e-05 	0
0.0863281 	0.0999 	0.005 	0.984032 	-8.08746e-05 	0
0.0864844 	0.0999 	0.005 	0.983839 	-8.2562e-05 	0
0.0866406 	0.0999 	0.005 	0.983641 	-8.42855e-05 	0
0.0867969 	0.0999 	0.005 	0.98344 	-8.60469e-05 	0
0.0869531 	0.0999 	0.005 	0.983234 	-8.78478e-05 	0
0.0871094 	0.0999 	0.005 	0.983023 	-8.96904e-05 	0
0.0872656 	0.0999 	0.005 	0.982808 	-9.15767e-05 	0
0.0874219 	0.0999 	0.005 	0.98259 	-9.3509e-05 	0
0.0875781 	0.0999 	0.005 	0.982365 	-9.54898e-05 	0
0.0877344 	0.0999 	0.005 	0.982137 	-9.75216e-05 	0
0.0878906 	0.0999 	0.005 	0.981903 	-9.96074e-05 	0
0.0880469 	0.0999 	0.005 	0.981664 	-0.00010175 	0
0.0882031 	0.0999 	0.005 	0.981421 	-0.000103954 	0
0.0883594 	0.0999 	0.005 	0.981171 	-0.000106221 	0
0.0885156 	0.0999 	0.005 	0.980917 	-0.000108556 	0
0.0886719 	0.0999 	0.005 	0.980656 	-0.000110963 	0
0.0888281 	0.0999 	0.005 	0.98039 	-0.000113447 	0
0.0889844 	0.0999 	0.005 	0.980118 	-0.000116012 	0
0.0891406 	0.0999 	0.005 	0.979839 	-0.000118664 	0
0.0892969 	0.0999 	0.005 	0.979554 	-0.000121409 	0
0.0894531 	0.0999 	0.005 	0.979263 	-0.000124253 	0
0.0896094 	0.0999 	0.005 	0.978965 	-0.000127202 	0
0.0897656 	0.0999 	0.005 	0.97866 	-0.000130264 	0
0.0899219 	0.0999 	0.005 	0.978347 	-0.000133448 	0
0.0900781 	0.0999 	0.005 	0.978026 	-0.000136761 	0
0.0902344 	0.0999 	0.005 	0.977697 	-0.000140214 	0
0.0903906 	0.0999 	0.005 	0.977361 	-0.000143816 	0
0.0905469 	0.0999 	0.005 	0.977014 	-0.000147579 	0
0.0907031 	0.0999 	0.005 	0.97666 	-0.000151516 	0
0.0908594 	0.0999 	0.005 	0.976296 	-0.00015564 	0
0.0910156 	0.0999 	0.005 	0.975921 	-0.000159966 	0
0.0911719 	0.0999 	0.005 	0.975537 	-0.00016451 	0
0.0913281 	0.0999 	0.005 	0.975141 	-0.00016929 	0
0.0914844 	0.0999 	0.005 	0.974734 	-0.000174327 	0
0.0916406 	0.0999 	0.005 	0.974315 	-0.000179642 	0
0.0917969 	0.0999 	0.005 	0.973883 	-0.000185259 	0