/*--------------------------------*- C++ -*----------------------------------*\
  =========                 |
  \\      /  F ield         | OpenFOAM: The Open Source CFD Toolbox
   \\    /   O peration     | Website:  https://openfoam.org
    \\  /    A nd           | Version:  9
     \\/     M anipulation  |
\*---------------------------------------------------------------------------*/
FoamFile
{
    format      ascii;
    class       surfaceScalarField;
    location    "56.7";
    object      phi;
}
// * * * * * * * * * * * * * * * * * * * * * * * * * * * * * * * * * * * * * //

dimensions      [0 3 -1 0 0 0 0];

internalField   nonuniform List<scalar> 
16735
(
-0.002989
0.00298701
1.98948e-06
-0.00897653
0.00598235
5.17767e-06
-0.016842
0.00785745
8.0155e-06
-0.025861
0.00900832
1.07144e-05
-0.0359254
0.0100502
1.40975e-05
-0.0464564
0.0105128
1.82418e-05
-0.0585443
0.012064
2.3924e-05
-0.0695019
0.0109276
3.00188e-05
-0.0842416
0.0147026
3.70303e-05
0.0110568
4.36101e-05
-0.095342
-0.00293784
0.00592485
-0.00883007
0.0118746
-0.0165592
0.0155866
-0.025392
0.0178411
-0.0352071
0.0198654
-0.0453944
0.0207001
-0.0570386
0.0237081
-0.0673533
0.0212423
-0.0813793
0.0287287
0.0209055
-0.0912281
-0.00283766
0.00876252
-0.00854208
0.017579
-0.0160015
0.023046
-0.0244649
0.0263045
-0.0337825
0.029183
-0.0432883
0.0302059
-0.0540358
0.0344556
-0.0630756
0.0302821
-0.0756859
0.041339
0.0283001
-0.0830804
-0.00269276
0.0114553
-0.00812251
0.0230088
-0.0151847
0.0301081
-0.0231019
0.0342217
-0.0316761
0.0377572
-0.0401743
0.0387041
-0.0495535
0.0438348
-0.0567023
0.0374309
-0.0672049
0.0518416
0.0321298
-0.0710346
-0.00250932
0.0139646
-0.00758576
0.0280852
-0.014132
0.0366544
-0.0213353
0.041425
-0.028924
0.0453459
-0.0361056
0.0458858
-0.0436152
0.0513444
-0.0482668
0.0420825
-0.0559471
0.0595219
0.0314023
-0.0552195
-0.0022952
0.0162598
-0.00695011
0.0327401
-0.0128716
0.0425759
-0.0192062
0.0477596
-0.0255723
0.051712
-0.0311497
0.0514631
-0.0362474
0.0564421
-0.0377957
0.0436309
-0.0418224
0.0635486
0.0252372
-0.0356573
-0.00205953
0.0183193
-0.0062369
0.0369175
-0.0114365
0.0477755
-0.0167618
0.0530848
-0.0216741
0.0566243
-0.0253843
0.0551734
-0.0274755
0.0585333
-0.0253218
0.0414771
-0.0245611
0.0627878
0.012863
-0.0121869
-0.00181232
0.0201316
-0.00546948
0.0405746
-0.00986349
0.0521695
-0.0140519
0.0572732
-0.0172833
0.0598558
-0.0188869
0.056777
-0.0173099
0.0569563
-0.0109415
0.0351087
-0.00354531
0.0553917
-0.00704384
0.0163615
-0.0015639
0.0216956
-0.0046719
0.0436826
-0.00818986
0.0556875
-0.011124
0.0602073
-0.0124458
0.0611776
-0.0117166
0.0560478
-0.00567579
0.0509154
0.00544547
0.0239875
0.0205588
0.0402784
-0.0375619
0.0510768
-0.00132437
0.0230199
-0.0038673
0.0462256
-0.00645094
0.0582711
-0.00801705
0.0617734
-0.00718446
0.060345
-0.00390822
0.0527716
0.00715578
0.0398514
0.024282
0.0068613
0.048988
0.0155723
-0.0811509
0.0925771
-0.00110287
0.0241228
-0.00307611
0.0481988
-0.00467656
0.0598716
-0.0047557
0.0618526
-0.0014536
0.0570429
0.00487249
0.0464455
0.0214305
0.0232934
0.0450385
-0.0167467
0.0819825
-0.0213717
-0.140371
0.141203
-0.000906955
0.0250297
-0.00231391
0.0496058
-0.00288629
0.060444
-0.00135422
0.0603205
0.00457642
0.0511122
0.0148403
0.0361816
0.0377718
0.00036186
0.0685907
-0.0475655
0.11979
-0.0725708
-0.216433
0.195852
-0.000741886
0.0257716
-0.00158928
0.0504531
-0.00108024
0.0599349
0.00229109
0.0569492
0.0111783
0.042225
0.0262023
0.0211577
0.0565096
-0.0299455
0.0962924
-0.0873483
0.162738
-0.139017
-0.307371
0.253676
-0.000610138
0.0263818
-0.000902071
0.0507451
0.000745185
0.0582877
0.00620624
0.0514881
0.0185492
0.029882
0.0395167
0.000190153
0.0780015
-0.0684303
0.129211
-0.138558
0.21042
-0.220226
-0.407475
0.310524
-0.000512053
0.0268938
-0.00023974
0.0504728
0.00262775
0.0554202
0.0104788
0.0436371
0.0269231
0.0134377
0.0552942
-0.0281809
0.102612
-0.115749
0.166968
-0.202914
0.26038
-0.313638
-0.50901
0.361915
-0.000438593
0.0273324
0.000416507
0.0496177
0.00466565
0.051171
0.0153029
0.0329998
0.0366391
-0.00789839
0.0738396
-0.0653815
0.130558
-0.172467
0.207471
-0.279827
0.307996
-0.414163
-0.605108
0.404094
-0.00037874
0.0277111
0.00110744
0.0481315
0.00696128
0.0453172
0.0209372
0.0190239
0.0481473
-0.0351086
0.0951367
-0.112371
0.161323
-0.238653
0.247522
-0.366026
0.348331
-0.514973
-0.691616
0.434839
-0.000320175
0.0280313
0.00188475
0.0459266
0.00965045
0.0375515
0.0276879
0.000986411
0.0618866
-0.0693072
0.118804
-0.169288
0.193188
-0.313037
0.28359
-0.456428
0.378227
-0.60961
-0.767124
0.453735
-0.0002461
0.0282774
0.00280812
0.0428723
0.012893
0.0274666
0.0358631
-0.0219837
0.078047
-0.111491
0.143938
-0.235179
0.223591
-0.39269
0.31273
-0.545567
0.396965
-0.693844
-0.832167
0.462007
-0.000136299
0.0284137
0.00394393
0.0387921
0.0168654
0.0145451
0.0457013
-0.0508196
0.0963244
-0.162114
0.169011
-0.307866
0.250048
-0.473727
0.33339
-0.628909
0.405599
-0.766052
-0.888832
0.462264
3.07379e-05
0.028383
0.00536247
0.0334604
0.0217477
-0.00184009
0.0572738
-0.0863457
0.115837
-0.220677
0.192162
-0.384191
0.270844
-0.552409
0.345536
-0.703601
0.407135
-0.827652
-0.94484
0.463144
0.000248582
0.0281344
0.00713814
0.0265708
0.0276979
-0.0223999
0.0703751
-0.129023
0.135272
-0.285574
0.211766
-0.460685
0.28525
-0.625893
0.350299
-0.76865
0.405195
-0.882547
-0.993435
0.453789
0.000555524
0.0275789
0.00934854
0.0177778
0.0348013
-0.0478526
0.0844645
-0.178686
0.153211
-0.35432
0.226844
-0.534319
0.29344
-0.692489
0.349877
-0.825086
0.397547
-0.930218
-1.03471
0.438818
0.000961847
0.026617
0.0120709
0.00666878
0.0430024
-0.0787841
0.0987223
-0.234406
0.168484
-0.424082
0.237113
-0.602947
0.29628
-0.751657
0.34495
-0.873756
0.386502
-0.971769
-1.07166
0.423454
0.00147893
0.0251381
0.0153719
-0.00722424
0.0520629
-0.115475
0.112213
-0.294556
0.18039
-0.49226
0.242828
-0.665385
0.294658
-0.803488
0.336693
-0.915791
0.373221
-1.0083
-1.1046
0.406165
0.0021207
0.0230174
0.019282
-0.0243855
0.0615781
-0.157771
0.124089
-0.357067
0.188703
-0.556874
0.244494
-0.721176
0.289523
-0.848516
0.325948
-0.952216
0.358235
-1.04058
-1.13446
0.388089
0.00290864
0.0201088
0.0237632
-0.0452401
0.071038
-0.205046
0.133754
-0.419784
0.193539
-0.616658
0.242733
-0.77037
0.281672
-0.887455
0.313382
-0.983926
0.342167
-1.06937
-1.16162
0.369328
0.00387553
0.0162332
0.0286971
-0.0700617
0.0798958
-0.256245
0.14092
-0.480808
0.195215
-0.670954
0.238166
-0.813321
0.271772
-0.921061
0.299519
-1.01167
0.325296
-1.09515
-1.18637
0.350052
0.00506154
0.0111717
0.0338993
-0.0988994
0.0876518
-0.309997
0.145558
-0.538714
0.19414
-0.719535
0.231359
-0.85054
0.260349
-0.950051
0.284725
-1.03605
0.307871
-1.11829
-1.20891
0.330411
0.00649797
0.00467372
0.0391516
-0.131553
0.0939478
-0.364793
0.147812
-0.592578
0.190743
-0.762466
0.222802
-0.882599
0.247808
-0.975058
0.269274
-1.05751
0.290039
-1.13906
-1.22933
0.310454
0.00818472
-0.003511
0.0442316
-0.1676
0.0986067
-0.419168
0.147907
-0.641879
0.185437
-0.799995
0.212902
-0.910065
0.23446
-0.996616
0.253355
-1.07641
0.271906
-1.15761
-1.24768
0.290255
0.0100776
-0.0135885
0.0489228
-0.206445
0.101601
-0.471847
0.146108
-0.686386
0.178591
-0.832478
0.20199
-0.933464
0.220535
-1.01516
0.237105
-1.09298
0.253548
-1.17405
-1.26398
0.26985
0.0120962
-0.0256848
0.0530222
-0.247371
0.103001
-0.521826
0.142686
-0.72607
0.170526
-0.860318
0.190329
-0.953267
0.206202
-1.03103
0.220622
-1.1074
0.235019
-1.18845
-1.27824
0.24928
0.0141454
-0.0398302
0.0563583
-0.289584
0.102932
-0.5684
0.137896
-0.761034
0.161511
-0.883933
0.178123
-0.969878
0.191588
-1.0445
0.203976
-1.11979
0.216363
-1.20083
-1.29046
0.228579
0.0161377
-0.0559679
0.0588128
-0.332259
0.101547
-0.611134
0.131976
-0.791463
0.151768
-0.903725
0.16553
-0.983641
0.176786
-1.05575
0.187216
-1.13022
0.197617
-1.21124
-1.30062
0.207782
0.0180018
-0.0739697
0.0603299
-0.374587
0.0990098
-0.649814
0.125142
-0.817595
0.141478
-0.920061
0.152674
-0.994837
0.161865
-1.06494
0.170386
-1.13874
0.178813
-1.21966
-1.30873
0.186921
0.0196795
-0.0936492
0.0609097
-0.415817
0.0954815
-0.684386
0.11758
-0.839693
0.13079
-0.933272
0.139648
-1.00369
0.14688
-1.07218
0.153523
-1.14538
0.159981
-1.22612
-1.31478
0.166028
0.0211177
-0.114767
0.0605919
-0.455292
0.091115
-0.714909
0.109454
-0.858032
0.119825
-0.943642
0.126525
-1.01039
0.131872
-1.07752
0.136656
-1.15017
0.14115
-1.23062
-1.31876
0.145136
0.0222663
-0.137033
0.0594345
-0.49246
0.0860486
-0.741523
0.100905
-0.872888
0.108681
-0.951419
0.113361
-1.01507
0.116878
-1.08104
0.119815
-1.1531
0.122349
-1.23315
-1.32069
0.124282
0.0230819
-0.160115
0.0575234
-0.526901
0.0804087
-0.764409
0.0920476
-0.884527
0.0974355
-0.956807
0.100202
-1.01784
0.101925
-1.08276
0.103024
-1.1542
0.103607
-1.23373
-1.32059
0.103506
0.0235359
-0.183651
0.0550383
-0.558404
0.0743136
-0.783684
0.0829782
-0.893192
0.0861513
-0.95998
0.0870837
-1.01877
0.0870391
-1.08272
0.0863062
-1.15347
0.0849513
-1.23238
-1.3185
0.0828611
0.0236164
-0.207267
0.0520449
-0.586832
0.0678679
-0.799507
0.0737758
-0.8991
0.0748779
-0.961082
0.0740373
-1.01793
0.0722448
-1.08093
0.0696846
-1.15091
0.0664043
-1.2291
-1.31441
0.0623133
0.0233287
-0.230596
0.048615
-0.612119
0.061162
-0.812054
0.0645069
-0.902445
0.0636549
-0.96023
0.0610882
-1.01537
0.0575637
-1.0774
0.0531853
-1.14653
0.0479834
-1.22389
-1.30831
0.0418797
0.0226939
-0.25329
0.0448222
-0.634247
0.0542757
-0.821507
0.055226
-0.903395
0.0525147
-0.957519
0.0482587
-1.01111
0.0430157
-1.07216
0.0368341
-1.14035
0.0297328
-1.21679
-1.30016
0.021586
0.0217453
-0.275035
0.040737
-0.653239
0.0472602
-0.828031
0.0459768
-0.902112
0.041484
-0.953026
0.0355691
-1.00519
0.0286196
-1.06521
0.0206449
-1.13237
0.0117164
-1.20787
-1.28982
0.00137426
0.0205237
-0.295559
0.0364251
-0.66914
0.0401728
-0.831778
0.0367958
-0.898734
0.0305857
-0.946816
0.0230367
-0.997646
0.0143933
-1.05657
0.00459508
-1.12258
-0.00605267
-1.19722
-1.27749
-0.0183804
0.0190724
-0.314631
0.0319468
-0.682014
0.0330667
-0.832898
0.0277138
-0.893382
0.019838
-0.93894
0.0106715
-0.988479
0.000322046
-1.04622
-0.0111162
-1.11114
-0.0237045
-1.18463
-1.26334
-0.037859
0.0174342
-0.332066
0.0273566
-0.691937
0.0259854
-0.831527
0.0187574
-0.886154
0.00924744
-0.92943
-0.00152409
-0.977708
-0.0134178
-1.03432
-0.0265731
-1.09798
-0.0410578
-1.17014
-1.24733
-0.0570706
0.0156488
-0.347714
0.0227028
-0.698991
0.0189652
-0.827789
0.0099471
-0.877136
-0.00119871
-0.918284
-0.0133981
-0.965508
-0.0269564
-1.02077
-0.0417997
-1.08314
-0.0581157
-1.15383
-1.22947
-0.0759684
0.0137531
-0.361468
0.0180279
-0.703266
0.0120339
-0.821795
0.00127493
-0.866377
-0.0112661
-0.905743
-0.0250851
-0.951689
-0.0402474
-1.0056
-0.0567615
-1.06663
-0.0748587
-1.13573
-1.2098
-0.0945334
0.0117804
-0.373248
0.0133691
-0.704854
0.00520253
-0.813629
-0.00711405
-0.85406
-0.0211722
-0.891685
-0.0365383
-0.936323
-0.0532741
-0.988867
-0.0714338
-1.04847
-0.0912713
-1.11589
-1.18833
-0.112736
0.00976095
-0.383009
0.00876134
-0.703855
-0.00150322
-0.803364
-0.0153273
-0.840236
-0.0308608
-0.876151
-0.0477393
-0.919445
-0.0660201
-0.970586
-0.085795
-1.02869
-0.107335
-1.09435
-1.16511
-0.130557
0.00771983
-0.390729
0.00424472
-0.70038
-0.00789248
-0.791227
-0.0233384
-0.82479
-0.0403147
-0.859175
-0.0586738
-0.901085
-0.0784703
-0.95079
-0.0998267
-1.00733
-0.123032
-1.07115
-1.14017
-0.147973
0.00567584
-0.396405
-7.68712e-05
-0.694627
-0.0141514
-0.777152
-0.0311325
-0.807809
-0.0495231
-0.840785
-0.0693294
-0.881279
-0.0906098
-0.929509
-0.113513
-0.984432
-0.138346
-1.04632
-1.11355
-0.164962
0.00364702
-0.400052
-0.00463975
-0.68634
-0.0202485
-0.761544
-0.0386953
-0.789362
-0.0584745
-0.821005
-0.0796942
-0.86006
-0.102425
-0.906779
-0.126838
-0.960019
-0.153261
-1.01989
-1.08532
-0.181498
0.00166977
-0.401721
-0.00894264
-0.675728
-0.0261654
-0.744321
-0.0460173
-0.76951
-0.0671586
-0.799864
-0.089757
-0.837461
-0.113902
-0.882634
-0.139788
-0.934132
-0.167758
-0.991922
-1.05552
-0.197555
-0.00021854
-0.401503
-0.0130777
-0.662869
-0.0318922
-0.725506
-0.0530941
-0.748308
-0.0755655
-0.777393
-0.0995069
-0.81352
-0.125029
-0.857112
-0.152354
-0.906808
-0.181822
-0.962454
-1.0242
-0.213138
-0.00234684
-0.399156
-0.0170614
-0.648154
-0.0374163
-0.705152
-0.0599197
-0.725805
-0.0836862
-0.753626
-0.108933
-0.788273
-0.135798
-0.830247
-0.164535
-0.87807
-0.195445
-0.931545
-0.991433
-0.228214
-0.0043262
-0.39483
-0.0208924
-0.631588
-0.0427261
-0.683318
-0.0664883
-0.702043
-0.0915121
-0.728602
-0.118026
-0.761759
-0.146199
-0.802074
-0.176326
-0.847943
-0.208581
-0.89929
-0.957469
-0.242545
-0.00621899
-0.388611
-0.0245676
-0.613239
-0.0478154
-0.66007
-0.0727944
-0.677064
-0.0990351
-0.702362
-0.126775
-0.734019
-0.156222
-0.772627
-0.18768
-0.816485
-0.221239
-0.86573
-0.922706
-0.256003
-0.00803155
-0.380579
-0.0280839
-0.593187
-0.0526796
-0.635474
-0.0788325
-0.650911
-0.106248
-0.674946
-0.135174
-0.705094
-0.165852
-0.741948
-0.198543
-0.783794
-0.232954
-0.831319
-0.885748
-0.269912
-0.00976422
-0.370815
-0.031438
-0.571513
-0.0573153
-0.609597
-0.0845979
-0.623628
-0.113144
-0.6464
-0.143213
-0.675024
-0.175066
-0.710095
-0.208876
-0.749985
-0.244547
-0.795648
-0.847203
-0.283093
-0.0114156
-0.359399
-0.034627
-0.548302
-0.0617195
-0.582505
-0.0900859
-0.595262
-0.119717
-0.616769
-0.150885
-0.643856
-0.183865
-0.677116
-0.218818
-0.715032
-0.255866
-0.758599
-0.807321
-0.295749
-0.0129837
-0.346416
-0.037648
-0.523637
-0.0658899
-0.554263
-0.0952923
-0.565859
-0.125961
-0.5861
-0.158178
-0.611639
-0.192224
-0.64307
-0.228264
-0.678993
-0.266534
-0.720329
-0.766173
-0.307681
-0.0144664
-0.331949
-0.0404987
-0.497605
-0.0698241
-0.524937
-0.100213
-0.535471
-0.13187
-0.554443
-0.165086
-0.578423
-0.20015
-0.608005
-0.237248
-0.641894
-0.276675
-0.680902
-0.72388
-0.318968
-0.0158613
-0.316088
-0.043177
-0.470289
-0.0735203
-0.494594
-0.104844
-0.504146
-0.137437
-0.521851
-0.171598
-0.544262
-0.207626
-0.571978
-0.245728
-0.603792
-0.286231
-0.640399
-0.680514
-0.329597
-0.017166
-0.298922
-0.045681
-0.441774
-0.0769765
-0.463298
-0.109183
-0.47194
-0.142658
-0.488376
-0.17771
-0.50921
-0.214647
-0.535041
-0.253699
-0.56474
-0.295208
-0.598891
-0.636148
-0.339574
-0.0183775
-0.280545
-0.0480091
-0.412143
-0.0801911
-0.431116
-0.113225
-0.438906
-0.147528
-0.454073
-0.183414
-0.473323
-0.221203
-0.497252
-0.261145
-0.524798
-0.30359
-0.556446
-0.590846
-0.348891
-0.0194919
-0.261053
-0.0501597
-0.381475
-0.0831625
-0.398114
-0.116968
-0.4051
-0.152041
-0.419001
-0.188703
-0.436661
-0.227287
-0.458669
-0.268056
-0.484029
-0.311368
-0.513134
-0.544677
-0.357537
-0.0205025
-0.24055
-0.0521311
-0.349846
-0.0858897
-0.364355
-0.120409
-0.370581
-0.156193
-0.383216
-0.193573
-0.399281
-0.23289
-0.419351
-0.274424
-0.442495
-0.318533
-0.469025
-0.497708
-0.365503
-0.0213947
-0.219155
-0.0539221
-0.317319
-0.0883723
-0.329905
-0.123545
-0.335409
-0.159981
-0.346781
-0.198016
-0.361246
-0.238006
-0.379361
-0.280239
-0.400261
-0.325075
-0.424189
-0.450008
-0.372776
-0.0222136
-0.196942
-0.0555348
-0.283998
-0.0906099
-0.29483
-0.126374
-0.299644
-0.1634
-0.309755
-0.202028
-0.322618
-0.242628
-0.338761
-0.285494
-0.357395
-0.330986
-0.378697
-0.401648
-0.379345
-0.0229588
-0.173983
-0.0569701
-0.249986
-0.0926018
-0.259198
-0.128894
-0.263352
-0.166448
-0.272201
-0.205606
-0.28346
-0.24675
-0.297617
-0.290183
-0.313963
-0.336256
-0.332624
-0.352702
-0.385202
-0.0236182
-0.150365
-0.0582275
-0.215377
-0.0943471
-0.223079
-0.131103
-0.226596
-0.169121
-0.234184
-0.208745
-0.243836
-0.250368
-0.255994
-0.294298
-0.270033
-0.34088
-0.286041
-0.303245
-0.390337
-0.0241869
-0.126178
-0.0593064
-0.180257
-0.0958448
-0.18654
-0.132999
-0.189441
-0.171416
-0.195767
-0.211441
-0.203811
-0.253476
-0.213959
-0.297832
-0.225677
-0.344851
-0.239023
-0.253353
-0.394742
-0.0246627
-0.101515
-0.0602063
-0.144714
-0.0970942
-0.149652
-0.134582
-0.151953
-0.173333
-0.157015
-0.213692
-0.163452
-0.256071
-0.171581
-0.300782
-0.180966
-0.348161
-0.191644
-0.203101
-0.398413
-0.0250443
-0.076471
-0.0609267
-0.108831
-0.0980946
-0.112484
-0.135849
-0.114199
-0.174868
-0.117996
-0.215496
-0.122824
-0.25815
-0.128927
-0.303144
-0.135971
-0.350808
-0.14398
-0.152566
-0.401344
-0.025331
-0.05114
-0.0614673
-0.0726951
-0.0988454
-0.0751062
-0.1368
-0.0762441
-0.176021
-0.0787762
-0.21685
-0.0819944
-0.259711
-0.0860659
-0.304917
-0.0907648
-0.352794
-0.0961034
-0.101822
-0.403537
-0.0255223
-0.0256177
-0.0618278
-0.0363896
-0.0993461
-0.0375879
-0.137435
-0.0381553
-0.17679
-0.0394215
-0.217753
-0.0410306
-0.260752
-0.0430671
-0.3061
-0.0454174
-0.354117
-0.0480864
-0.0509435
-0.404995
-0.025618
3.08484e-07
-0.0620081
4.83847e-07
-0.0995965
5.02844e-07
-0.137752
5.03242e-07
-0.177174
5.10352e-07
-0.218205
5.17543e-07
-0.261273
5.25707e-07
-0.306691
5.32259e-07
-0.354778
5.36789e-07
5.37119e-07
-0.405722
-0.025618
0.0256183
-0.0620081
0.0363906
-0.0995965
0.0375889
-0.137752
0.0381563
-0.177174
0.0394225
-0.218205
0.0410316
-0.261273
0.0430682
-0.306691
0.0454184
-0.354778
0.0480875
0.0509445
-0.405722
-0.0255223
0.0511406
-0.0618278
0.0726961
-0.0993461
0.0751072
-0.137435
0.0762451
-0.17679
0.0787772
-0.217753
0.0819955
-0.260752
0.0860669
-0.3061
0.0907659
-0.354117
0.0961045
0.101823
-0.404995
-0.025331
0.0764716
-0.0614673
0.108832
-0.0988453
0.112485
-0.1368
0.1142
-0.176021
0.117997
-0.21685
0.122825
-0.259711
0.128928
-0.304917
0.135972
-0.352794
0.143981
0.152567
-0.403537
-0.0250443
0.101516
-0.0609267
0.144715
-0.0980946
0.149653
-0.135849
0.151954
-0.174868
0.157016
-0.215496
0.163453
-0.25815
0.171582
-0.303144
0.180967
-0.350808
0.191645
0.203102
-0.401344
-0.0246627
0.126179
-0.0602063
0.180258
-0.0970942
0.186541
-0.134582
0.189442
-0.173333
0.195768
-0.213692
0.203812
-0.256071
0.21396
-0.300782
0.225678
-0.348161
0.239024
0.253354
-0.398413
-0.0241869
0.150365
-0.0593064
0.215378
-0.0958448
0.22308
-0.132999
0.226597
-0.171416
0.234185
-0.211441
0.243837
-0.253476
0.255995
-0.297832
0.270034
-0.344851
0.286042
0.303246
-0.394742
-0.0236181
0.173984
-0.0582275
0.249987
-0.0943471
0.259199
-0.131103
0.263353
-0.169121
0.272202
-0.208745
0.283461
-0.250368
0.297618
-0.294298
0.313964
-0.34088
0.332625
0.352703
-0.390337
-0.0229588
0.196942
-0.0569701
0.283999
-0.0926018
0.294831
-0.128894
0.299645
-0.166448
0.309756
-0.205606
0.322619
-0.24675
0.338762
-0.290183
0.357396
-0.336256
0.378698
0.401649
-0.385202
-0.0222136
0.219156
-0.0555348
0.31732
-0.0906099
0.329906
-0.126374
0.33541
-0.1634
0.346782
-0.202028
0.361247
-0.242628
0.379362
-0.285494
0.400262
-0.330986
0.42419
0.450009
-0.379345
-0.0213947
0.240551
-0.0539221
0.349847
-0.0883723
0.364356
-0.123545
0.370582
-0.159981
0.383217
-0.198016
0.399282
-0.238006
0.419352
-0.280239
0.442496
-0.325075
0.469026
0.497709
-0.372775
-0.0205024
0.261053
-0.0521311
0.381476
-0.0858897
0.398115
-0.120409
0.405101
-0.156193
0.419002
-0.193572
0.436662
-0.23289
0.45867
-0.274424
0.48403
-0.318533
0.513135
0.544678
-0.365503
-0.0194919
0.280545
-0.0501597
0.412144
-0.0831625
0.431117
-0.116968
0.438907
-0.152041
0.454074
-0.188703
0.473324
-0.227287
0.497253
-0.268056
0.524799
-0.311368
0.556447
0.590847
-0.357537
-0.0183775
0.298922
-0.048009
0.441775
-0.080191
0.463299
-0.113225
0.471941
-0.147527
0.488377
-0.183414
0.509211
-0.221203
0.535042
-0.261145
0.564741
-0.30359
0.598892
0.636149
-0.348891
-0.017166
0.316088
-0.0456809
0.47029
-0.0769764
0.494595
-0.109183
0.504147
-0.142658
0.521852
-0.17771
0.544263
-0.214647
0.571979
-0.253699
0.603793
-0.295208
0.640401
0.680515
-0.339574
-0.0158613
0.33195
-0.0431769
0.497606
-0.0735202
0.524938
-0.104844
0.535471
-0.137437
0.554444
-0.171598
0.578424
-0.207626
0.608006
-0.245728
0.641895
-0.286231
0.680903
0.723881
-0.329597
-0.0144663
0.346416
-0.0404987
0.523638
-0.069824
0.554264
-0.100213
0.56586
-0.131869
0.586101
-0.165085
0.61164
-0.20015
0.643071
-0.237248
0.678994
-0.276675
0.72033
0.766174
-0.318968
-0.0129837
0.3594
-0.0376479
0.548302
-0.0658898
0.582505
-0.0952922
0.595263
-0.125961
0.61677
-0.158178
0.643857
-0.192224
0.677117
-0.228264
0.715033
-0.266534
0.7586
0.807322
-0.307681
-0.0114155
0.370815
-0.0346269
0.571514
-0.0617194
0.609598
-0.0900858
0.623629
-0.119717
0.646401
-0.150885
0.675025
-0.183865
0.710097
-0.218817
0.749986
-0.255866
0.795649
0.847204
-0.295748
-0.00976417
0.380579
-0.0314379
0.593187
-0.0573152
0.635475
-0.0845978
0.650912
-0.113144
0.674947
-0.143213
0.705095
-0.175066
0.74195
-0.208876
0.783795
-0.244547
0.83132
0.88575
-0.283093
-0.0080315
0.388611
-0.0280838
0.61324
-0.0526795
0.660071
-0.0788324
0.677065
-0.106248
0.702363
-0.135174
0.73402
-0.165852
0.772628
-0.198543
0.816486
-0.232954
0.865732
0.922707
-0.269912
-0.00621893
0.39483
-0.0245675
0.631588
-0.0478153
0.683319
-0.0727942
0.702043
-0.0990349
0.728603
-0.126775
0.76176
-0.156222
0.802075
-0.18768
0.847944
-0.221239
0.899291
0.95747
-0.256002
-0.00432614
0.399156
-0.0208923
0.648154
-0.0427259
0.705152
-0.0664882
0.725806
-0.0915119
0.753627
-0.118025
0.788274
-0.146198
0.830248
-0.176326
0.878071
-0.20858
0.931546
0.991435
-0.242545
-0.00234677
0.401503
-0.0170613
0.662869
-0.0374161
0.725507
-0.0599196
0.748309
-0.0836861
0.777393
-0.108933
0.813521
-0.135797
0.857113
-0.164535
0.906809
-0.195445
0.962455
1.0242
-0.228214
-0.000218461
0.401721
-0.0130775
0.675728
-0.0318921
0.744322
-0.0530939
0.769511
-0.0755653
0.799865
-0.0995067
0.837462
-0.125029
0.882635
-0.152354
0.934134
-0.181822
0.991923
1.05552
-0.213138
0.00166984
0.400051
-0.00894251
0.68634
-0.0261652
0.761544
-0.0460171
0.789363
-0.0671584
0.821006
-0.0897568
0.86006
-0.113902
0.90678
-0.139788
0.96002
-0.167758
1.01989
1.08532
-0.197555
0.0036471
0.396404
-0.0046396
0.694627
-0.0202484
0.777153
-0.038695
0.80781
-0.0584743
0.840785
-0.079694
0.88128
-0.102425
0.92951
-0.126838
0.984433
-0.153261
1.04632
1.11355
-0.181498
0.00567592
0.390728
-7.66819e-05
0.70038
-0.0141512
0.791228
-0.0311323
0.824791
-0.0495229
0.859176
-0.0693291
0.901086
-0.0906096
0.950791
-0.113512
1.00734
-0.138346
1.07115
1.14017
-0.164962
0.00771991
0.383009
0.00424488
0.703855
-0.00789227
0.803365
-0.0233381
0.840237
-0.0403144
0.876152
-0.0586736
0.919446
-0.07847
0.970587
-0.0998265
1.02869
-0.123032
1.09436
1.16511
-0.147973
0.00976103
0.373248
0.00876151
0.704854
-0.001503
0.813629
-0.015327
0.854061
-0.0308605
0.891686
-0.047739
0.936324
-0.0660198
0.988868
-0.0857947
1.04847
-0.107335
1.11589
1.18833
-0.130557
0.0117805
0.361467
0.0133693
0.703265
0.00520278
0.821796
-0.00711376
0.866377
-0.0211719
0.905744
-0.036538
0.95169
-0.0532738
1.0056
-0.0714335
1.06663
-0.0912711
1.13573
1.2098
-0.112736
0.0137532
0.347714
0.0180281
0.69899
0.0120342
0.82779
0.00127524
0.877136
-0.0112658
0.918285
-0.0250847
0.965509
-0.0402471
1.02077
-0.0567612
1.08314
-0.0748584
1.15383
1.22947
-0.0945332
0.0156489
0.332065
0.022703
0.691936
0.0189655
0.831527
0.00994742
0.886154
-0.00119837
0.929431
-0.0133977
0.977709
-0.026956
1.03432
-0.0417994
1.09798
-0.0581154
1.17015
1.24733
-0.0759682
0.0174343
0.314631
0.0273568
0.682014
0.0259857
0.832898
0.0187577
0.893382
0.00924782
0.938941
-0.00152371
0.98848
-0.0134174
1.04622
-0.0265728
1.11114
-0.0410575
1.18463
1.26334
-0.0570704
0.0190725
0.295558
0.031947
0.669139
0.033067
0.831778
0.0277142
0.898735
0.0198384
0.946816
0.0106719
0.997647
0.000322463
1.05657
-0.0111158
1.12258
-0.0237042
1.19722
1.27749
-0.0378587
0.0205238
0.275034
0.0364253
0.653238
0.0401732
0.828031
0.0367962
0.902112
0.0305861
0.953026
0.0230371
1.0052
0.0143937
1.06521
0.00459549
1.13238
-0.00605232
1.20787
1.28982
-0.0183801
0.0217454
0.253289
0.0407372
0.634246
0.0472606
0.821507
0.0459772
0.903395
0.0414845
0.957519
0.0355695
1.01111
0.02862
1.07216
0.0206454
1.14035
0.0117168
1.2168
1.30016
0.00137455
0.022694
0.230595
0.0448224
0.612118
0.0542761
0.812054
0.0552264
0.902445
0.0525152
0.96023
0.0482592
1.01537
0.0430162
1.0774
0.0368346
1.14653
0.0297332
1.2239
1.30831
0.0215863
0.0233288
0.207266
0.0486152
0.586831
0.0611624
0.799506
0.0645074
0.8991
0.0636555
0.961082
0.0610887
1.01793
0.0575643
1.08093
0.0531858
1.15091
0.0479838
1.2291
1.31441
0.0418801
0.0236165
0.18365
0.0520452
0.558402
0.0678683
0.783683
0.0737763
0.893192
0.0748785
0.95998
0.0740379
1.01877
0.0722454
1.08272
0.0696852
1.15347
0.0664049
1.23238
1.31851
0.0623137
0.023536
0.160114
0.0550385
0.5269
0.074314
0.764408
0.0829787
0.884527
0.086152
0.956807
0.0870843
1.01784
0.0870397
1.08277
0.0863068
1.1542
0.0849519
1.23373
1.3206
0.0828615
0.0230819
0.137032
0.0575237
0.492458
0.0804091
0.741522
0.0920481
0.872888
0.0974362
0.951419
0.100202
1.01508
0.101925
1.08104
0.103025
1.1531
0.103607
1.23315
1.3207
0.103506
0.0222663
0.114765
0.0594347
0.45529
0.086049
0.714908
0.100905
0.858032
0.108682
0.943643
0.113362
1.0104
0.116878
1.07753
0.119816
1.15017
0.12235
1.23062
1.31876
0.124282
0.0211177
0.0936478
0.060592
0.415815
0.0911154
0.684385
0.109455
0.839692
0.119826
0.933272
0.126526
1.0037
0.131873
1.07218
0.136657
1.14538
0.141151
1.22612
1.31478
0.145137
0.0196795
0.0739683
0.0609098
0.374585
0.0954819
0.649813
0.11758
0.817594
0.130791
0.920061
0.139649
0.994837
0.146881
1.06495
0.153524
1.13874
0.159982
1.21967
1.30873
0.166028
0.0180018
0.0559665
0.06033
0.332257
0.0990101
0.611132
0.125142
0.791462
0.141479
0.903725
0.152675
0.983641
0.161866
1.05576
0.170387
1.13022
0.178814
1.21124
1.30063
0.186921
0.0161376
0.0398288
0.0588129
0.289582
0.101548
0.568398
0.131977
0.761032
0.151769
0.883933
0.165531
0.969878
0.176787
1.0445
0.187217
1.11979
0.197618
1.20084
1.29046
0.207783
0.0141454
0.0256835
0.0563584
0.247369
0.102933
0.521823
0.137896
0.726069
0.161512
0.860317
0.178124
0.953267
0.191589
1.03103
0.203977
1.1074
0.216365
1.18845
1.27825
0.22858
0.0120962
0.0135873
0.0530222
0.206443
0.103002
0.471844
0.142686
0.686384
0.170527
0.832476
0.19033
0.933464
0.206203
1.01516
0.220624
1.09298
0.23502
1.17405
1.26398
0.249281
0.0100775
0.00350984
0.0489227
0.167597
0.101601
0.419165
0.146109
0.641876
0.178592
0.799994
0.201992
0.910064
0.220536
0.996616
0.237107
1.07641
0.253549
1.15761
1.24768
0.269851
0.00818463
-0.00467479
0.0442314
0.13155
0.0986068
0.36479
0.147908
0.592575
0.185438
0.762464
0.212903
0.882598
0.234462
0.975058
0.253357
1.05752
0.271908
1.13906
1.22933
0.290257
0.00649788
-0.0111727
0.0391514
0.0988969
0.0939478
0.309994
0.147812
0.538711
0.190744
0.719532
0.222803
0.850538
0.24781
0.950051
0.269276
1.03605
0.290041
1.11829
1.20892
0.310456
0.00506144
-0.0162341
0.033899
0.0700594
0.0876517
0.256241
0.145559
0.480804
0.19414
0.67095
0.23136
0.813319
0.260351
0.92106
0.284727
1.01167
0.307873
1.09515
1.18638
0.330413
0.00387542
-0.0201095
0.0286968
0.0452379
0.0798955
0.205042
0.14092
0.419779
0.195216
0.616654
0.238167
0.770367
0.271774
0.887453
0.299522
0.983926
0.325298
1.06937
1.16162
0.350055
0.00290851
-0.023018
0.0237629
0.0243836
0.0710376
0.157768
0.133754
0.357063
0.19354
0.556869
0.242735
0.721172
0.281675
0.848514
0.313385
0.952216
0.34217
1.04059
1.13446
0.369331
0.00212055
-0.0251386
0.0192816
0.0072225
0.0615776
0.115472
0.124089
0.294551
0.188704
0.492254
0.244496
0.66538
0.289525
0.803484
0.325951
0.91579
0.358238
1.0083
1.10461
0.388092
0.00147876
-0.0266173
0.0153715
-0.00667025
0.0520622
0.0787809
0.112212
0.234401
0.180391
0.424076
0.242829
0.602941
0.294661
0.751653
0.336697
0.873754
0.373225
0.97177
1.07166
0.406169
0.000961651
-0.027579
0.0120704
-0.017779
0.0430017
0.0478497
0.0987216
0.178681
0.168484
0.354314
0.237114
0.534312
0.296283
0.692483
0.344954
0.825083
0.386507
0.930217
1.03471
0.423459
0.000555311
-0.0281343
0.00934804
-0.0265717
0.0348004
0.0223973
0.0844636
0.129018
0.15321
0.285567
0.226845
0.460677
0.293443
0.625886
0.34988
0.768645
0.397552
0.882545
0.99344
0.438824
0.000248364
-0.0283827
0.00713765
-0.033461
0.0276971
0.00183778
0.070374
0.086341
0.135271
0.22067
0.211766
0.384182
0.285252
0.5524
0.350303
0.703594
0.405201
0.827648
0.944845
0.453796
3.05407e-05
-0.0284132
0.005362
-0.0387925
0.0217469
-0.0145471
0.0572728
0.0508151
0.115836
0.162107
0.192162
0.307856
0.270846
0.473715
0.34554
0.6289
0.407142
0.766046
0.888836
0.463151
-0.000136505
-0.0282767
0.00394354
-0.0428725
0.0168648
-0.0274684
0.0457004
0.0219795
0.0963233
0.111484
0.169011
0.235169
0.25005
0.392677
0.333394
0.545556
0.405606
0.693834
0.832168
0.462273
-0.000246259
-0.0280305
0.00280786
-0.0459266
0.0128927
-0.0375532
0.0358626
-0.000990424
0.0780461
0.0693005
0.143937
0.169277
0.223592
0.313022
0.312733
0.456414
0.396972
0.609595
0.767123
0.462017
-0.000320274
-0.0277102
0.00188465
-0.0481316
0.00965038
-0.0453189
0.0276878
-0.0190278
0.0618862
0.0351021
0.118804
0.11236
0.193188
0.238637
0.283593
0.36601
0.378234
0.514954
0.691611
0.453746
-0.000378767
-0.0273314
0.00110755
-0.0496179
0.0069616
-0.051173
0.0209376
-0.0330038
0.0481477
0.00789202
0.0951369
0.0653708
0.161324
0.172451
0.247524
0.27981
0.348337
0.41414
0.605098
0.434851
-0.000438539
-0.0268929
0.000416835
-0.0504733
0.00466639
-0.0554225
0.015304
-0.0436415
0.0366404
-0.0134443
0.0738408
0.0281703
0.13056
0.115732
0.207473
0.202896
0.308003
0.313611
0.508994
0.404106
-0.000511918
-0.026381
-0.000239173
-0.050746
0.00262893
-0.0582906
0.0104806
-0.0514932
0.0269254
-0.0298891
0.0552968
-0.000201065
0.102616
0.0684132
0.166972
0.13854
0.260387
0.220196
0.407452
0.361928
-0.000609916
-0.025771
-0.000901279
-0.0504546
0.000746782
-0.0599387
0.00620878
-0.0569552
0.0185527
-0.042233
0.039521
-0.0211693
0.0780066
0.0299276
0.129217
0.0873294
0.210428
0.138986
0.307342
0.310538
-0.000741584
-0.0250295
-0.00158827
-0.0496079
-0.00107821
-0.0604488
0.00229431
-0.0603277
0.0111828
-0.0511216
0.0262082
-0.0361946
0.0565169
-0.000381092
0.0963012
0.0475451
0.162749
0.0725382
0.216399
0.253691
-0.000906583
-0.0241229
-0.00231273
-0.0482018
-0.00288396
-0.0598775
-0.00135056
-0.0618611
0.00458177
-0.0570539
0.0148477
-0.0464605
0.0377811
-0.0233145
0.0686027
0.0167235
0.119803
0.0213374
0.140332
0.195871
-0.00110244
-0.0230204
-0.00307479
-0.0462294
-0.00467399
-0.0582783
-0.0047516
-0.0617835
-0.00144731