/*--------------------------------*- C++ -*----------------------------------*\
  =========                 |
  \\      /  F ield         | OpenFOAM: The Open Source CFD Toolbox
   \\    /   O peration     | Website:  https://openfoam.org
    \\  /    A nd           | Version:  7
     \\/     M anipulation  |
\*---------------------------------------------------------------------------*/
FoamFile
{
    version     2.0;
    format      ascii;
    class       volScalarField;
    location    "3.8";
    object      rho;
}
// * * * * * * * * * * * * * * * * * * * * * * * * * * * * * * * * * * * * * //

dimensions      [1 -3 0 0 0 0 0];

internalField   nonuniform List<scalar> 
64512
(
1.40001
1.40001
1.40001
1.40001
1.40001
1.40001
1.40001
1.40001
1.40001
1.40001
1.40001
1.40001
1.40001
1.40001
1.40001
1.40001
1.40001
1.40001
1.40001
1.40001
1.40001
1.40001
1.40001
1.40001
1.40001
1.40001
1.40001
1.40001
1.40001
1.40001
1.40001
1.40001
1.40001
1.40001
1.40001
1.40001
1.40001
1.40001
1.40001
1.40001
1.40001
1.40001
1.40001
1.40001
1.40001
1.40001
1.40001
1.40001
1.43837
4.14518
5.43477
5.43976
5.45376
5.4725
5.49383
5.51682
5.54014
5.56261
5.58364
5.60323
5.62167
5.63943
5.65713
5.67523
5.69378
5.71245
5.73076
5.7484
5.76495
5.77992
5.79358
5.80668
5.81949
5.83193
5.84421
5.85662
5.86926
5.88212
5.89517
5.90834
5.9214
5.93398
5.94555
5.95555
5.96363
5.96976
5.97429
5.97795
5.98163
5.98603
5.99141
5.99745
6.00353
6.00886
6.01293
6.0158
1.40001
1.40001
1.40001
1.40001
1.40001
1.40001
1.40001
1.40001
1.40001
1.40001
1.40001
1.40001
1.40001
1.40001
1.40001
1.40001
1.40001
1.40001
1.40001
1.40001
1.40001
1.40001
1.40001
1.40001
1.40001
1.40001
1.40001
1.40001
1.40001
1.40001
1.40001
1.40001
1.40001
1.40001
1.40001
1.40001
1.40001
1.40001
1.40001
1.40001
1.40001
1.40001
1.40001
1.40001
1.40001
1.40001
1.40001
1.40001
1.43351
4.12875
5.42811
5.44064
5.45491
5.47377
5.4948
5.51737
5.54006
5.56177
5.5821
5.60123
5.61957
5.63757
5.65563
5.67407
5.69293
5.71185
5.73029
5.74794
5.7644
5.77927
5.79288
5.80596
5.8188
5.8313
5.84363
5.85606
5.86869
5.88149
5.89445
5.90752
5.9205
5.93302
5.94455
5.9545
5.96253
5.96864
5.97321
5.97696
5.98071
5.98512
5.99041
5.9963
6.00222
6.00747
6.01154
6.01445
1.40001
1.40001
1.40001
1.40001
1.40001
1.40001
1.40001
1.40001
1.40001
1.40001
1.40001
1.40001
1.40001
1.40001
1.40001
1.40001
1.40001
1.40001
1.40001
1.40001
1.40001
1.40001
1.40001
1.40001
1.40001
1.40001
1.40001
1.40001
1.40001
1.40001
1.40001
1.40001
1.40001
1.40001
1.40001
1.40001
1.40001
1.40001
1.40001
1.40001
1.40001
1.40001
1.40001
1.40001
1.40001
1.40001
1.40001
1.40001
1.41844
4.10345
5.42309
5.43516
5.45229
5.47289
5.49508
5.51813
5.54054
5.56141
5.58062
5.59869
5.61641
5.63442
5.65292
5.6719
5.69124
5.71055
5.72918
5.74686
5.76319
5.77791
5.79146
5.80451
5.81746
5.83007
5.84254
5.85505
5.86768
5.8804
5.89325
5.90619
5.91906
5.93152
5.94302
5.95293
5.96089
5.96695
5.97152
5.97534
5.97919
5.98362
5.98881
5.99448
6.00017
6.00526
6.00928
6.01224
1.40001
1.40001
1.40001
1.40001
1.40001
1.40001
1.40001
1.40001
1.40001
1.40001
1.40001
1.40001
1.40001
1.40001
1.40001
1.40001
1.40001
1.40001
1.40001
1.40001
1.40001
1.40001
1.40001
1.40001
1.40001
1.40001
1.40001
1.40001
1.40001
1.40001
1.40001
1.40001
1.40001
1.40001
1.40001
1.40001
1.40001
1.40001
1.40001
1.40001
1.40001
1.40001
1.40001
1.40001
1.40001
1.40001
1.40001
1.40001
1.40152
4.06081
5.4188
5.43043
5.4488
5.471
5.49455
5.51843
5.54109
5.56161
5.57986
5.59678
5.61359
5.63128
5.65011
5.6697
5.68958
5.70923
5.72792
5.74543
5.76147
5.77587
5.78928
5.80229
5.81536
5.82816
5.84083
5.85345
5.86606
5.87866
5.89131
5.90405
5.91676
5.92914
5.9406
5.95048
5.9584
5.96444
5.96908
5.97302
5.97699
5.98142
5.98643
5.99177
5.99711
6.00195
6.00587
6.00882
1.40001
1.40001
1.40001
1.40001
1.40001
1.40001
1.40001
1.40001
1.40001
1.40001
1.40001
1.40001
1.40001
1.40001
1.40001
1.40001
1.40001
1.40001
1.40001
1.40001
1.40001
1.40001
1.40001
1.40001
1.40001
1.40001
1.40001
1.40001
1.40001
1.40001
1.40001
1.40001
1.40001
1.40001
1.40001
1.40001
1.40001
1.40001
1.40001
1.40001
1.40001
1.40001
1.40001
1.40001
1.40001
1.40001
1.40001
1.40001
1.40005
3.99279
5.41077
5.42589
5.44593
5.46937
5.49406
5.51858
5.54124
5.56104
5.57813
5.59359
5.60897
5.62588
5.64471
5.66484
5.68552
5.70594
5.72512
5.74278
5.75869
5.77282
5.78609
5.79901
5.81224
5.8253
5.83828
5.85111
5.86377
5.87625
5.88869
5.90118
5.91371
5.92597
5.93737
5.94722
5.95514
5.96121
5.96597
5.97009
5.97419
5.9786
5.98339
5.98835
5.99327
5.99776
6.00147
6.00435
1.40001
1.40001
1.40001
1.40001
1.40001
1.40001
1.40001
1.40001
1.40001
1.40001
1.40001
1.40001
1.40001
1.40001
1.40001
1.40001
1.40001
1.40001
1.40001
1.40001
1.40001
1.40001
1.40001
1.40001
1.40001
1.40001
1.40001
1.40001
1.40001
1.40001
1.40001
1.40001
1.40001
1.40001
1.40001
1.40001
1.40001
1.40001
1.40001
1.40001
1.40001
1.40001
1.40001
1.40001
1.40001
1.40001
1.40001
1.40001
1.40001
3.90228
5.39866
5.42274
5.44431
5.4678
5.49232
5.51672
5.53934
5.55896
5.57571
5.59056
5.60513
5.62148
5.64024
5.66063
5.68174
5.70261
5.72202
5.73966
5.75538
5.76917
5.78227
5.79512
5.80851
5.82184
5.83514
5.84815
5.8608
5.87308
5.88522
5.89741
5.90969
5.9218
5.93313
5.94298
5.95095
5.95715
5.96208
5.96639
5.97061
5.97499
5.97956
5.98416
5.98865
5.99277
5.99621
5.99897
1.40001
1.40001
1.40001
1.40001
1.40001
1.40001
1.40001
1.40001
1.40001
1.40001
1.40001
1.40001
1.40001
1.40001
1.40001
1.40001
1.40001
1.40001
1.40001
1.40001
1.40001
1.40001
1.40001
1.40001
1.40001
1.40001
1.40001
1.40001
1.40001
1.40001
1.40001
1.40001
1.40001
1.40001
1.40001
1.40001
1.40001
1.40001
1.40001
1.40001
1.40001
1.40001
1.40001
1.40001
1.40001
1.40001
1.40001
1.40001
1.40001
3.79056
5.38242
5.41957
5.44267
5.46628
5.49023
5.51391
5.53604
5.55573
5.57272
5.58762
5.60199
5.61777
5.63594
5.65591
5.67685
5.69787
5.71755
5.73546
5.7513
5.76493
5.77787
5.7905
5.80389
5.81738
5.83097
5.84422
5.85694
5.86912
5.88101
5.89289
5.90488
5.91677
5.92798
5.93781
5.94589
5.95227
5.95743
5.96193
5.96622
5.97052
5.97487
5.97914
5.98323
5.98699
5.99012
5.99275
1.40001
1.40001
1.40001
1.40001
1.40001
1.40001
1.40001
1.40001
1.40001
1.40001
1.40001
1.40001
1.40001
1.40001
1.40001
1.40001
1.40001
1.40001
1.40001
1.40001
1.40001
1.40001
1.40001
1.40001
1.40001
1.40001
1.40001
1.40001
1.40001
1.40001
1.40001
1.40001
1.40001
1.40001
1.40001
1.40001
1.40001
1.40001
1.40001
1.40001
1.40001
1.40001
1.40001
1.40001
1.40001
1.40001
1.40001
1.40001
1.40001
3.65876
5.36271
5.41564
5.44009
5.46441
5.48813
5.51096
5.5321
5.55135
5.56853
5.58385
5.59837
5.61389
5.63161
5.65112
5.67173
5.69273
5.71255
5.73059
5.74654
5.76001
5.77276
5.78515
5.7985
5.81211
5.82598
5.8395
5.85233
5.86442
5.87604
5.88756
5.8992
5.91082
5.92189
5.93177
5.94004
5.94672
5.95216
5.95683
5.96115
5.96529
5.96935
5.97323
5.97689
5.98023
5.98299
5.98543
1.40001
1.40001
1.40001
1.40001
1.40001
1.40001
1.40001
1.40001
1.40001
1.40001
1.40001
1.40001
1.40001
1.40001
1.40001
1.40001
1.40001
1.40001
1.40001
1.40001
1.40001
1.40001
1.40001
1.40001
1.40001
1.40001
1.40001
1.40001
1.40001
1.40001
1.40001
1.40001
1.40001
1.40001
1.40001
1.40001
1.40001
1.40001
1.40001
1.40001
1.40001
1.40001
1.40001
1.40001
1.40001
1.40001
1.40001
1.40001
1.40001
3.50799
5.3399
5.41048
5.43602
5.46165
5.48605
5.50882
5.52918
5.54744
5.56408
5.57935
5.59404
5.60959
5.62711
5.64622
5.66638
5.68712
5.70692
5.72501
5.74117
5.75461
5.76726
5.77939
5.79254
5.80609
5.82008
5.83377
5.8467
5.85871
5.87006
5.88119
5.89242
5.90372
5.91465
5.9246
5.93313
5.94016
5.94594
5.95082
5.95517
5.95917
5.96296
5.9665
5.96975
5.9727
5.9751
5.97736
1.40001
1.40001
1.40001
1.40001
1.40001
1.40001
1.40001
1.40001
1.40001
1.40001
1.40001
1.40001
1.40001
1.40001
1.40001
1.40001
1.40001
1.40001
1.40001
1.40001
1.40001
1.40001
1.40001
1.40001
1.40001
1.40001
1.40001
1.40001
1.40001
1.40001
1.40001
1.40001
1.40001
1.40001
1.40001
1.40001
1.40001
1.40001
1.40001
1.40001
1.40001
1.40001
1.40001
1.40001
1.40001
1.40001
1.40001
1.40001
1.40001
3.33954
5.31302
5.40409
5.43065
5.45785
5.48368
5.50743
5.52784
5.54536
5.56088
5.57511
5.58922
5.60451
5.62186
5.64072
5.66051
5.68105
5.70086
5.719
5.73539
5.74885
5.76138
5.77322
5.78608
5.79948
5.81355
5.82742
5.8405
5.85246
5.86351
5.87416
5.88488
5.8958
5.90655
5.91655
5.92533
5.9327
5.9388
5.94387
5.94824
5.95208
5.95557
5.95873
5.96154
5.96411
5.96617
5.96825
1.40001
1.40001
1.40001
1.40001
1.40001
1.40001
1.40001
1.40001
1.40001
1.40001
1.40001
1.40001
1.40001
1.40001
1.40001
1.40001
1.40001
1.40001
1.40001
1.40001
1.40001
1.40001
1.40001
1.40001
1.40001
1.40001
1.40001
1.40001
1.40001
1.40001
1.40001
1.40001
1.40001
1.40001
1.40001
1.40001
1.40001
1.40001
1.40001
1.40001
1.40001
1.40001
1.40001
1.40001
1.40001
1.40001
1.40001
1.40001
1.40001
3.15446
5.28042
5.39785
5.42499
5.45338
5.48063
5.50597
5.52736
5.54498
5.55975
5.57277
5.58535
5.59944
5.6161
5.63458
5.65405
5.67445
5.69438
5.71258
5.72925
5.74271
5.75503
5.76643
5.77883
5.79195
5.80599
5.82004
5.83329
5.84524
5.85601
5.86619
5.87643
5.887
5.89761
5.90768
5.91668
5.92435
5.93071
5.93596
5.94033
5.94402
5.9472
5.94997
5.95236
5.95459
5.95637
5.95834
1.40001
1.40001
1.40001
1.40001
1.40001
1.40001
1.40001
1.40001
1.40001
1.40001
1.40001
1.40001
1.40001
1.40001
1.40001
1.40001
1.40001
1.40001
1.40001
1.40001
1.40001
1.40001
1.40001
1.40001
1.40001
1.40001
1.40001
1.40001
1.40001
1.40001
1.40001
1.40001
1.40001
1.40001
1.40001
1.40001
1.40001
1.40001
1.40001
1.40001
1.40001
1.40001
1.40001
1.40001
1.40001
1.40001
1.40001
1.40001
1.40001
2.95286
5.24041
5.39347
5.41994
5.44869
5.47678
5.50382
5.52698
5.54567
5.56065
5.57277
5.58351
5.59554
5.61071
5.62847
5.64759
5.66786
5.68797
5.70628
5.72321
5.73667
5.74859
5.75934
5.77103
5.78368
5.79756
5.81168
5.82503
5.83692
5.8474
5.85713
5.86693
5.87723
5.88777
5.89792
5.90711
5.91501
5.92158
5.92697
5.93135
5.93487
5.93773
5.94006
5.94202
5.94393
5.9455
5.94738
1.40001
1.40001
1.40001
1.40001
1.40001
1.40001
1.40001
1.40001
1.40001
1.40001
1.40001
1.40001
1.40001
1.40001
1.40001
1.40001
1.40001
1.40001
1.40001
1.40001
1.40001
1.40001
1.40001
1.40001
1.40001
1.40001
1.40001
1.40001
1.40001
1.40001
1.40001
1.40001
1.40001
1.40001
1.40001
1.40001
1.40001
1.40001
1.40001
1.40001
1.40001
1.40001
1.40001
1.40001
1.40001
1.40001
1.40001
1.40001
1.40001
2.73553
5.18841
5.39303
5.4167
5.44399
5.47185
5.49996
5.52503
5.54546
5.56147
5.57328
5.58244
5.59207
5.60515
5.62182
5.64052
5.66076
5.68121
5.69984
5.71717
5.73078
5.74232
5.75234
5.76311
5.77513
5.78868
5.80272
5.81604
5.82779
5.83794
5.84719
5.85656
5.86659
5.87706
5.88726
5.89656
5.90459
5.9113
5.91678
5.92117
5.92454
5.92708
5.929
5.93056
5.93222
5.93365
5.93548
1.40001
1.40001
1.40001
1.40001
1.40001
1.40001
1.40001
1.40001
1.40001
1.40001
1.40001
1.40001
1.40001
1.40001
1.40001
1.40001
1.40001
1.40001
1.40001
1.40001
1.40001
1.40001
1.40001
1.40001
1.40001
1.40001
1.40001
1.40001
1.40001
1.40001
1.40001
1.40001
1.40001
1.40001
1.40001
1.40001
1.40001
1.40001
1.40001
1.40001
1.40001
1.40001
1.40001
1.40001
1.40001
1.40001
1.40001
1.40001
1.40001
2.50264
5.11584
5.39953
5.41653
5.44042
5.46648
5.49441
5.52069
5.54297
5.56061
5.57317
5.58172
5.58954
5.60035
5.61544
5.63338
5.65336
5.67405
5.69304
5.71072
5.72461
5.73584
5.74519
5.75496
5.76621
5.77928
5.79308
5.80624
5.8178
5.82761
5.8364
5.84532
5.85507
5.86541
5.87559
5.88493
5.89303
5.89981
5.90536
5.90974
5.91298
5.91522
5.91673
5.9179
5.91928
5.92057
5.92232
1.40001
1.40001
1.40001
1.40001
1.40001
1.40001
1.40001
1.40001
1.40001
1.40001
1.40001
1.40001
1.40001
1.40001
1.40001
1.40001
1.40001
1.40001
1.40001
1.40001
1.40001
1.40001
1.40001
1.40001
1.40001
1.40001
1.40001
1.40001
1.40001
1.40001
1.40001
1.40001
1.40001
1.40001
1.40001
1.40001
1.40001
1.40001
1.40001
1.40001
1.40001
1.40001
1.40001
1.40001
1.40001
1.40001
1.40001
1.40001
1.40001
2.26408
5.01466
5.41365
5.42171
5.44069
5.46398
5.49035
5.51671
5.54028
5.55969
5.57377
5.58266
5.58932
5.59789
5.61082
5.6273
5.64645
5.66701
5.68624
5.70409
5.71829
5.72922
5.73789
5.7465
5.75675
5.76911
5.78255
5.79553
5.80698
5.81658
5.82498
5.83343
5.84277
5.85286
5.8629
5.87217
5.88024
5.88701
5.89256
5.8969
5.89999
5.90198
5.90315
5.90397
5.9051
5.90626
5.90793
1.40001
1.40001
1.40001
1.40001
1.40001
1.40001
1.40001
1.40001
1.40001
1.40001
1.40001
1.40001
1.40001
1.40001
1.40001
1.40001
1.40001
1.40001
1.40001
1.40001
1.40001
1.40001
1.40001
1.40001
1.40001
1.40001
1.40001
1.40001
1.40001
1.40001
1.40001
1.40001
1.40001
1.40001
1.40001
1.40001
1.40001
1.40001
1.40001
1.40001
1.40001
1.40001
1.40001
1.40001
1.40001
1.40001
1.40001
1.40001
1.40001
2.02977
4.876
5.43249
5.42872
5.44237
5.46234
5.48673
5.51247
5.53668
5.55745
5.57333
5.5834
5.58984
5.59708
5.60807
5.62289
5.64075
5.66061
5.67962
5.69712
5.71153
5.7222
5.7303
5.7378
5.7469
5.75836
5.77133
5.78408
5.79544
5.80488
5.81289
5.82078
5.82959
5.83929
5.84911
5.85824
5.86622
5.87291
5.87835
5.88258
5.8855
5.88726
5.88814
5.88866
5.88951
5.89048
5.89197
1.40001
1.40001
1.40001
1.40001
1.40001
1.40001
1.40001
1.40001
1.40001
1.40001
1.40001
1.40001
1.40001
1.40001
1.40001
1.40001
1.40001
1.40001
1.40001
1.40001
1.40001
1.40001
1.40001
1.40001
1.40001
1.40001
1.40001
1.40001
1.40001
1.40001
1.40001
1.40001
1.40001
1.40001
1.40001
1.40001
1.40001
1.40001
1.40001
1.40001
1.40001
1.40001
1.40001
1.40001
1.40001
1.40001
1.40001
1.40001
1.40001
1.81402
4.70524
5.45163
5.44027
5.45058
5.46538
5.4858
5.50888
5.53201
5.55292
5.57016
5.58229
5.59027
5.59738
5.60699
5.62008
5.63614
5.6547
5.67302
5.68979
5.70436
5.715
5.72281
5.72927
5.73705
5.74724
5.75939
5.77176
5.78299
5.79234
5.80005
5.80738
5.81557
5.82476
5.83421
5.84308
5.85082
5.85727
5.86249
5.86651
5.86927
5.87088
5.87159
5.87189
5.8725
5.87322
5.87449
1.40001
1.40001
1.40001
1.40001
1.40001
1.40001
1.40001
1.40001
1.40001
1.40001
1.40001
1.40001
1.40001
1.40001
1.40001
1.40001
1.40001
1.40001
1.40001
1.40001
1.40001
1.40001
1.40001
1.40001
1.40001
1.40001
1.40001
1.40001
1.40001
1.40001
1.40001
1.40001
1.40001
1.40001
1.40001
1.40001
1.40001
1.40001
1.40001
1.40001
1.40001
1.40001
1.40001
1.40001
1.40001
1.40001
1.40001
1.40001
1.40001
1.62206
4.49261
5.45482
5.43807
5.44897
5.46062
5.4785
5.49993
5.52276
5.54453
5.56369
5.57813
5.58839
5.5968
5.60616
5.61791
5.63205
5.64888
5.66615
5.68204
5.69667
5.70753
5.71529
5.72084
5.72719
5.73583
5.74692
5.75877
5.76983
5.77913
5.78658
5.79329
5.80068
5.80915
5.81807
5.82653
5.83394
5.84007
5.84499
5.84876
5.85133
5.85281
5.85336
5.85343
5.8537
5.85407
5.855
1.40001
1.40001
1.40001
1.40001
1.40001
1.40001
1.40001
1.40001
1.40001
1.40001
1.40001
1.40001
1.40001
1.40001
1.40001
1.40001
1.40001
1.40001
1.40001
1.40001
1.40001
1.40001
1.40001
1.40001
1.40001
1.40001
1.40001
1.40001
1.40001
1.40001
1.40001
1.40001
1.40001
1.40001
1.40001
1.40001
1.40001
1.40001
1.40001
1.40001
1.40001
1.40001
1.40001
1.40001
1.40001
1.40001
1.40001
1.40001
1.40001
1.46393
4.24363
5.41966
5.42182
5.43703
5.45286
5.47154
5.49107
5.5117
5.53233
5.55196
5.56882
5.58224
5.59332
5.60381
5.61521
5.62792
5.64288
5.65882
5.67374
5.68811
5.69927
5.70729
5.71229
5.71738
5.72443
5.73424
5.74539
5.75612
5.76525
5.77236
5.77836
5.78479
5.79236
5.80057
5.80849
5.81542
5.82109
5.82558
5.82901
5.83137
5.83271
5.83314
5.83308
5.83305
5.83304
5.83368
1.40001
1.40001
1.40001
1.40001
1.40001
1.40001
1.40001
1.40001
1.40001
1.40001
1.40001
1.40001
1.40001
1.40001
1.40001
1.40001
1.40001
1.40001
1.40001
1.40001
1.40001
1.40001
1.40001
1.40001
1.40001
1.40001
1.40001
1.40001
1.40001
1.40001
1.40001
1.40001
1.40001
1.40001
1.40001
1.40001
1.40001
1.40001
1.40001
1.40001
1.40001
1.40001
1.40001
1.40001
1.40001
1.40001
1.40001
1.40001
1.40001
1.40257
3.92573
5.34998
5.38993
5.41231
5.43164
5.45148
5.47241
5.49433
5.51623
5.53697
5.55501
5.57083
5.58505
5.59791
5.61014
5.62236
5.63585
5.65051
5.66452
5.67836
5.68986
5.69844
5.70339
5.70757
5.71314
5.7215
5.73166
5.74183
5.75059
5.75726
5.76251
5.76788
5.77438
5.7817
5.78891
5.79523
5.80034
5.80433
5.80737
5.80945
5.81058
5.81083
5.81047
5.80994
5.80949
5.80981
1.40001
1.40001
1.40001
1.40001
1.40001
1.40001
1.40001
1.40001
1.40001
1.40001
1.40001
1.40001
1.40001
1.40001
1.40001
1.40001
1.40001
1.40001
1.40001
1.40001
1.40001
1.40001
1.40001
1.40001
1.40001
1.40001
1.40001
1.40001
1.40001
1.40001
1.40001
1.40001
1.40001
1.40001
1.40001
1.40001
1.40001
1.40001
1.40001
1.40001
1.40001
1.40001
1.40001
1.40001
1.40001
1.40001
1.40001
1.40001
1.40001
1.40002
3.58829
5.28836
5.35631
5.39085
5.41705
5.4391
5.45994
5.48044
5.50059
5.52021
5.53862
5.55584
5.5718
5.58665
5.60065
5.61369
5.62672
5.64055
5.65395
5.66717
5.67898
5.68825
5.69366
5.69739
5.70177
5.70863
5.71758
5.72694
5.73514
5.74128
5.74572
5.74996
5.75521
5.76141
5.76767
5.77317
5.77753
5.78084
5.78332
5.78501
5.78585
5.78589
5.78523
5.78431
5.78347
5.78358
1.40001
1.40001
1.40001
1.40001
1.40001
1.40001
1.40001
1.40001
1.40001
1.40001
1.40001
1.40001
1.40001
1.40001
1.40001
1.40001
1.40001
1.40001
1.40001
1.40001
1.40001
1.40001
1.40001
1.40001
1.40001
1.40001
1.40001
1.40001
1.40001
1.40001
1.40001
1.40001
1.40001
1.40001
1.40001
1.40001
1.40001
1.40001
1.40001
1.40001
1.40001
1.40001
1.40001
1.40001
1.40001
1.40001
1.40001
1.40001
1.40001
1.40001
3.2151
5.21796
5.33646
5.37134
5.39891
5.42279
5.44454
5.46542
5.48575
5.50557
5.52405
5.54097
5.55712
5.57269
5.58739
5.60148
5.61479
5.62841
5.64149
5.65417
5.66627
5.67625
5.6826
5.68643
5.69005
5.69551
5.70306
5.71137
5.71879
5.72427
5.72787
5.73091
5.73474
5.73957
5.74463
5.74912
5.75263
5.75522
5.75709
5.75826
5.7587
5.75825
5.75694
5.75539
5.754
5.75372
1.40001
1.40001
1.40001
1.40001
1.40001
1.40001
1.40001
1.40001
1.40001
1.40001
1.40001
1.40001
1.40001
1.40001
1.40001
1.40001
1.40001
1.40001
1.40001
1.40001
1.40001
1.40001
1.40001
1.40001
1.40001
1.40001
1.40001
1.40001
1.40001
1.40001
1.40001
1.40001
1.40001
1.40001
1.40001
1.40001
1.40001
1.40001
1.40001
1.40001
1.40001
1.40001
1.40001
1.40001
1.40001
1.40001
1.40001
1.40001
1.40001
1.40001
2.8219
5.13773
5.33975
5.37091
5.39814
5.4178
5.43492
5.45247
5.47073
5.48959
5.50821
5.52549
5.54161
5.55717
5.57238
5.58635
5.60008
5.61318
5.6265
5.63897
5.65129
5.66193
5.66956
5.67406
5.67746
5.68179
5.6879
5.69498
5.70149
5.70623
5.70897
5.71072
5.71294
5.71613
5.71973
5.72297
5.72541
5.72701
5.72794
5.72828
5.728
5.72685
5.72494
5.72284
5.72107
5.72063
1.40001
1.40001
1.40001
1.40001
1.40001
1.40001
1.40001
1.40001
1.40001
1.40001
1.40001
1.40001
1.40001
1.40001
1.40001
1.40001
1.40001
1.40001
1.40001
1.40001
1.40001
1.40001
1.40001
1.40001
1.40001
1.40001
1.40001
1.40001
1.40001
1.40001
1.40001
1.40001
1.40001
1.40001
1.40001
1.40001
1.40001
1.40001
1.40001
1.40001
1.40001
1.40001
1.40001
1.40001
1.40001
1.40001
1.40001
1.40001
1.40001
1.40001
2.43164
5.00763
5.37164
5.38292
5.39982
5.41402
5.42987
5.44608
5.46219
5.47871
5.49481
5.51033
5.52554
5.54067
5.55554
5.57013
5.58331
5.59665
5.60935
5.62164
5.63415
5.64519
5.65407
5.65968
5.66342
5.66705
5.67186
5.67764
5.68311
5.68695
5.68877
5.68916
5.68962
5.69094
5.69282
5.69457
5.69574
5.69619
5.69612
5.6955
5.69412
5.69185
5.68884
5.68564
5.68309
5.68209
1.40001
1.40001
1.40001
1.40001
1.40001
1.40001
1.40001
1.40001
1.40001
1.40001
1.40001
1.40001
1.40001
1.40001
1.40001
1.40001
1.40001
1.40001
1.40001
1.40001
1.40001
1.40001
1.40001
1.40001
1.40001
1.40001
1.40001
1.40001
1.40001
1.40001
1.40001
1.40001
1.40001
1.40001
1.40001
1.40001
1.40001
1.40001
1.40001
1.40001
1.40001
1.40001
1.40001
1.40001
1.40001
1.40001
1.40001
1.40001
1.40001
1.40001
2.02649
4.82258
5.43897
5.41621
5.4265
5.43168
5.43731
5.44487
5.45648
5.47074
5.48563
5.49975
5.5128
5.52576
5.53887
5.55231
5.56537
5.57738
5.59074
5.60288
5.61465
5.62593
5.63582
5.64275
5.64729
5.65074
5.65456
5.65909
5.66345
5.66634
5.66719
5.66616
5.6648
5.66402
5.66392
5.66388
5.66349
5.66243
5.66069
5.6583
5.65515
5.65134
5.64715
5.64304
5.63992
5.63873
1.40001
1.40001
1.40001
1.40001
1.40001
1.40001
1.40001
1.40001
1.40001
1.40001
1.40001
1.40001
1.40001
1.40001
1.40001
1.40001
1.40001
1.40001
1.40001
1.40001
1.40001
1.40001
1.40001
1.40001
1.40001
1.40001
1.40001
1.40001
1.40001
1.40001
1.40001
1.40001
1.40001
1.40001
1.40001
1.40001
1.40001
1.40001
1.40001
1.40001
1.40001
1.40001
1.40001
1.40001
1.40001
1.40001
1.40001
1.40001
1.40001
1.40001
1.6378
4.58016
5.49046
5.43883
5.43592
5.43749
5.44283
5.45034
5.45979
5.47023
5.48139
5.49236
5.50304
5.51377
5.52476
5.53616
5.54771
5.55888
5.56977
5.58259
5.59399
5.60464
5.61481
5.62297
5.62854
5.63226
5.6355
5.63898
5.64219
5.64413
5.64393
5.64156
5.6383
5.63524
5.63294
5.6307
5.62826
5.62525
5.62157
5.61722
5.61217
5.60635
5.5999
5.59354
5.58863
5.58607
1.40001
1.40001
1.40001
1.40001
1.40001
1.40001
1.40001
1.40001
1.40001
1.40001
1.40001
1.40001
1.40001
1.40001
1.40001
1.40001
1.40001
1.40001
1.40001
1.40001
1.40001
1.40001
1.40001
1.40001
1.40001
1.40001
1.40001
1.40001
1.40001
1.40001
1.40001
1.40001
1.40001
1.40001
1.40001
1.40001
1.40001
1.40001
1.40001
1.40001
1.40001
1.40001
1.40001
1.40001
1.40001
1.40001
1.40001
1.40001
1.40001
1.40001
1.41459
4.18683
5.42433
5.39592
5.42041
5.43418
5.44477
5.4535
5.46316
5.47294
5.48212
5.49057
5.49813
5.50532
5.51317
5.52217
5.53193
5.54176
5.55141
5.56146
5.5721
5.58208
5.59178
5.60048
5.60695
5.61123
5.61427
5.61698
5.6191
5.62016
5.61893
5.61529
5.61006
5.60471
5.59989
5.59494
5.59
5.58448
5.57808
5.57063
5.5621
5.55274
5.54317
5.53457
5.52836
5.52565
1.40001
1.40001
1.40001
1.40001
1.40001
1.40001
1.40001
1.40001
1.40001
1.40001
1.40001
1.40001
1.40001
1.40001
1.40001
1.40001
1.40001
1.40001
1.40001
1.40001
1.40001
1.40001
1.40001
1.40001
1.40001
1.40001
1.40001
1.40001
1.40001
1.40001
1.40001
1.40001
1.40001
1.40001
1.40001
1.40001
1.40001
1.40001
1.40001
1.40001
1.40001
1.40001
1.40001
1.40001
1.40001
1.40001
1.40001
1.40001
1.40001
1.40001
1.40004
3.67134
5.27316
5.34805
5.38828
5.41213
5.43207
5.44708
5.45952
5.47057
5.48156
5.49029
5.49654
5.50114
5.50571
5.51146
5.51843
5.52619
5.53391
5.54204
5.55095
5.55949
5.56754
5.57599
5.5829
5.58754
5.59053
5.59264
5.59388
5.59399
5.59182
5.58704
5.57994
5.57223
5.56449
5.55647
5.54841
5.53958
5.52958
5.51836
5.50606
5.49293
5.4792
5.46534
5.45381
5.44657
1.40001
1.40001
1.40001
1.40001
1.40001
1.40001
1.40001
1.40001
1.40001
1.40001
1.40001
1.40001
1.40001
1.40001
1.40001
1.40001
1.40001
1.40001
1.40001
1.40001
1.40001
1.40001
1.40001
1.40001
1.40001
1.40001
1.40001
1.40001
1.40001
1.40001
1.40001
1.40001
1.40001
1.40001
1.40001
1.40001
1.40001
1.40001
1.40001
1.40001
1.40001
1.40001
1.40001
1.40001
1.40001
1.40001
1.40001
1.40001
1.40001
1.40001
1.4
3.19401
5.16671
5.29896
5.35199
5.3908
5.41424
5.43073
5.44745
5.46324
5.47586
5.48593
5.4935
5.49797
5.50079
5.50392
5.50818
5.51337
5.51866
5.52405
5.53063
5.5376
5.54398
5.55051
5.55698
5.56168
5.56452
5.56605
5.56658
5.56566
5.56256
5.55674
5.548
5.53784
5.52676
5.51524
5.50335
5.49045
5.47598
5.45967
5.44114
5.42014
5.39757
5.37602
5.35907
5.35212
1.40001
1.40001
1.40001
1.40001
1.40001
1.40001
1.40001
1.40001
1.40001
1.40001
1.40001
1.40001
1.40001
1.40001
1.40001
1.40001
1.40001
1.40001
1.40001
1.40001
1.40001
1.40001
1.40001
1.40001
1.40001
1.40001
1.40001
1.40001
1.40001
1.40001
1.40001
1.40001
1.40001
1.40001
1.40001
1.40001
1.40001
1.40001
1.40001
1.40001
1.40001
1.40001
1.40001
1.40001
1.40001
1.40001
1.40001
1.40001
1.40001
1.40001
1.4
2.70276
5.01046
5.29932
5.34539
5.37354
5.39548
5.415
5.43093
5.44636
5.46133
5.47502
5.48491
5.49133
5.49498
5.49742
5.49995
5.50287
5.50571
5.50832
5.5118
5.51626
5.52093
5.5254
5.53011
5.53397
5.53637
5.53728
5.53704
5.53501
5.53098
5.52411
5.51394
5.50132
5.48665
5.47115
5.45474
5.43682
5.4165
5.39323
5.3666
5.33703
5.30522
5.27278
5.23926
5.21188
1.40001
1.40001
1.40001
1.40001
1.40001
1.40001
1.40001
1.40001
1.40001
1.40001
1.40001
1.40001
1.40001
1.40001
1.40001
1.40001
1.40001
1.40001
1.40001
1.40001
1.40001
1.40001
1.40001
1.40001
1.40001
1.40001
1.40001
1.40001
1.40001
1.40001
1.40001
1.40001
1.40001
1.40001
1.40001
1.40001
1.40001
1.40001
1.40001
1.40001
1.40001
1.40001
1.40001
1.40001
1.40001
1.40001
1.40001
1.40001
1.40001
1.40001
1.40001
2.19144
4.83732
5.35455
5.35718
5.36884
5.38243
5.39871
5.4146
5.42943
5.44402
5.45767
5.46989
5.47942
5.48539
5.48911
5.49172
5.4936
5.49464
5.49492
5.49542
5.49671
5.4987
5.50087
5.50324
5.50538
5.50666
5.50686
5.50555
5.50242
5.49731
5.48927
5.47758
5.46249
5.44438
5.42437
5.40262
5.37863
5.35125
5.31969
5.28281
5.23905
5.18508
5.12109
5.05849
5.01413
1.40001
1.40001
1.40001
1.40001
1.40001
1.40001
1.40001
1.40001
1.40001
1.40001
1.40001
1.40001
1.40001
1.40001
1.40001
1.40001
1.40001
1.40001
1.40001
1.40001
1.40001
1.40001
1.40001
1.40001
1.40001
1.40001
1.40001
1.40001
1.40001
1.40001
1.40001
1.40001
1.40001
1.40001
1.40001
1.40001
1.40001
1.40001
1.40001
1.40001
1.40001
1.40001
1.40001
1.40001
1.40001
1.40001
1.40001
1.40001
1.40001
1.40001
1.40001
1.69241
4.63817
5.45166
5.37971
5.37307
5.3773
5.38735
5.39937
5.4125
5.42662
5.44015
5.45237
5.46263
5.47075
5.4765
5.4805
5.48287
5.48349
5.48263
5.48092
5.47915
5.47786
5.47708
5.47678
5.4765
5.47602
5.47477
5.47217
5.46788
5.46148
5.45211
5.43879
5.4213
5.39976
5.37498
5.34728
5.3163
5.28059
5.23844
5.18705
5.12331
5.04468
4.94923
4.84169
4.76365
1.40001
1.40001
1.40001
1.40001
1.40001
1.40001
1.40001
1.40001
1.40001
1.40001
1.40001
1.40001
1.40001
1.40001
1.40001
1.40001
1.40001
1.40001
1.40001
1.40001
1.40001
1.40001
1.40001
1.40001
1.40001
1.40001
1.40001
1.40001
1.40001
1.40001
1.40001
1.40001
1.40001
1.40001
1.40001
1.40001
1.40001
1.40001
1.40001
1.40001
1.40001
1.40001
1.40001
1.40001
1.40001
1.40001
1.40001
1.40001
1.40001
1.40001
1.40001
1.41979
4.14651
5.37872
5.35567
5.36943
5.37549
5.38383
5.39216
5.40095
5.41153
5.42299
5.43442
5.44482
5.45345
5.46028
5.46564
5.46933
5.47072
5.46994
5.46722
5.46328
5.45892
5.45486
5.45139
5.44839
5.44534
5.44196
5.4376
5.43182
5.42385
5.41288
5.39777
5.37787
5.35288
5.32321
5.28913
5.25032
5.20496
5.1506
5.08323
4.99804
4.88326
4.70976
4.36338
3.45584
1.40001
1.40001
1.40001
1.40001
1.40001
1.40001
1.40001
1.40001
1.40001
1.40001
1.40001
1.40001
1.40001
1.40001
1.40001
1.40001
1.40001
1.40001
1.40001
1.40001
1.40001
1.40001
1.40001
1.40001
1.40001
1.40001
1.40001
1.40001
1.40001
1.40001
1.40001
1.40001
1.40001
1.40001
1.40001
1.40001
1.40001
1.40001
1.40001
1.40001
1.40001
1.40001
1.40001
1.40001
1.40001
1.40001
1.40001
1.40001
1.40001
1.40001
1.40001
1.4
3.50205
5.21021
5.31088
5.34827
5.36815
5.37838
5.38638
5.39278
5.40002
5.4083
5.41726
5.42627
5.43455
5.4415
5.44726
5.45193
5.4546
5.45491
5.45238
5.44766
5.44124
5.43427
5.42752
5.42133
5.41525
5.40897
5.40213
5.39423
5.38439
5.37158
5.35454
5.33223
5.30389
5.26943
5.22884
5.18174
5.12602
5.05829
4.97286
4.85948
4.69971
4.44208
4.03265
3.0105
1.40001
1.40001
1.40001
1.40001
1.40001
1.40001
1.40001
1.40001
1.40001
1.40001
1.40001
1.40001
1.40001
1.40001
1.40001
1.40001
1.40001
1.40001
1.40001
1.40001
1.40001
1.40001
1.40001
1.40001
1.40001
1.40001
1.40001
1.40001
1.40001
1.40001
1.40001
1.40001
1.40001
1.40001
1.40001
1.40001
1.40001
1.40001
1.40001
1.40001
1.40001
1.40001
1.40001
1.40001
1.40001
1.40001
1.40001
1.40001
1.40001
1.40001
1.40001
1.4
2.9138
5.06544
5.29075
5.3327
5.35822
5.37053
5.37631
5.383
5.38956
5.39607
5.40273
5.40962
5.41634
5.42236
5.42748
5.43193
5.43528
5.43664
5.4351
5.43077
5.42367
5.41482
5.40518
5.39574
5.38661
5.37687
5.36687
5.3561
5.34377
5.32876
5.3095
5.28468
5.25307
5.21402
5.16707
5.11162
5.04531
4.96423
4.86072
4.72423
4.5269
4.25965
3.71273
2.87519
1.40001
1.40001
1.40001
1.40001
1.40001
1.40001
1.40001
1.40001
1.40001
1.40001
1.40001
1.40001
1.40001
1.40001
1.40001
1.40001
1.40001
1.40001
1.40001
1.40001
1.40001
1.40001
1.40001
1.40001
1.40001
1.40001
1.40001
1.40001
1.40001
1.40001
1.40001
1.40001
1.40001
1.40001
1.40001
1.40001
1.40001
1.40001
1.40001
1.40001
1.40001
1.40001
1.40001
1.40001
1.40001
1.40001
1.40001
1.40001
1.40001
1.40001
1.40001
1.4
2.31084
4.85846
5.32204
5.33545
5.34771
5.35737
5.36599
5.37358
5.38023
5.38619
5.39145
5.39613
5.40036
5.40421
5.40775
5.41102
5.41376
5.41534
5.41483
5.41145
5.4048
5.39532
5.38392
5.37168
5.35934
5.34626
5.33247
5.31806
5.3024
5.28456
5.2628
5.23545
5.20076
5.15756
5.10478
5.04156
4.9651
4.87198
4.75253
4.59861
4.37976
4.07131
3.53832
2.85395
1.40001
1.40001
1.40001
1.40001
1.40001
1.40001
1.40001
1.40001
1.40001
1.40001
1.40001
1.40001
1.40001
1.40001
1.40001
1.40001
1.40001
1.40001
1.40001
1.40001
1.40001
1.40001
1.40001
1.40001
1.40001
1.40001
1.40001
1.40001
1.40001
1.40001
1.40001
1.40001
1.40001
1.40001
1.40001
1.40001
1.40001
1.40001
1.40001
1.40001
1.40001
1.40001
1.40001
1.40001
1.40001
1.40001
1.40001
1.40001
1.40001
1.40001
1.40001
1.40001
1.73465
4.65787
5.40433
5.34381
5.33534
5.34388
5.3536
5.36179
5.3688
5.37492
5.38009
5.38394
5.38646
5.38809
5.38937
5.39053
5.39162
5.39237
5.39198
5.38945
5.38371
5.37453
5.36258
5.34842
5.33321
5.31713
5.29947
5.28103
5.26144
5.24001
5.21517
5.18507
5.14736
5.10048
5.04258
4.97265
4.88738
4.78378
4.65231
4.48293
4.25553
3.93119
3.4567
2.90431
1.40001
1.40001
1.40001
1.40001
1.40001
1.40001
1.40001
1.40001
1.40001
1.40001
1.40001
1.40001
1.40001
1.40001
1.40001
1.40001
1.40001
1.40001
1.40001
1.40001
1.40001
1.40001
1.40001
1.40001
1.40001
1.40001
1.40001
1.40001
1.40001
1.40001
1.40001
1.40001
1.40001
1.40001
1.40001
1.40001
1.40001
1.40001
1.40001
1.40001
1.40001
1.40001
1.40001
1.40001
1.40001
1.40001
1.40001
1.40001
1.40001
1.40001
1.40001
1.40001
1.42497
4.10199
5.32602
5.30986
5.32184
5.33284
5.3421
5.3494
5.356
5.36216
5.36766
5.37165
5.3736
5.37387
5.37301
5.37144
5.37006
5.36908
5.36769
5.36512
5.35999
5.35144
5.33979
5.32494
5.30789
5.28924
5.2682
5.24569
5.22172
5.19603
5.16728
5.13395
5.09328
5.04332
4.98124
4.90593
4.81386
4.70183
4.56216
4.38327
4.15199
3.83799
3.43226
2.97382
1.40001
1.40001
1.40001
1.40001
1.40001
1.40001
1.40001
1.40001
1.40001
1.40001
1.40001
1.40001
1.40001
1.40001
1.40001
1.40001
1.40001
1.40001
1.40001
1.40001
1.40001
1.40001
1.40001
1.40001
1.40001
1.40001
1.40001
1.40001
1.40001
1.40001
1.40001
1.40001
1.40001
1.40001
1.40001
1.40001
1.40001
1.40001