/*--------------------------------*- C++ -*----------------------------------*\
  =========                 |
  \\      /  F ield         | OpenFOAM: The Open Source CFD Toolbox
   \\    /   O peration     | Website:  https://openfoam.org
    \\  /    A nd           | Version:  7
     \\/     M anipulation  |
\*---------------------------------------------------------------------------*/
FoamFile
{
    version     2.0;
    format      ascii;
    class       volVectorField;
    location    "1.9";
    object      U;
}
// * * * * * * * * * * * * * * * * * * * * * * * * * * * * * * * * * * * * * //

dimensions      [0 1 -1 0 0 0 0];

internalField   nonuniform List<vector> 
11050
(
(-3.18681e-11 2.78205e-11 0)
(-1.36732e-10 9.11344e-11 0)
(-3.07801e-10 1.13361e-10 0)
(-4.89255e-10 1.05925e-10 0)
(-6.20663e-10 8.43814e-11 0)
(-6.77824e-10 5.87521e-11 0)
(-6.49697e-10 3.58611e-11 0)
(-4.55323e-10 1.43827e-11 0)
(-1.05366e-10 -2.81168e-11 0)
(2.8318e-10 -7.23033e-11 0)
(7.32803e-10 -1.097e-10 0)
(1.29391e-09 -1.40523e-10 0)
(1.95223e-09 -1.65559e-10 0)
(2.68814e-09 -1.84093e-10 0)
(3.49065e-09 -1.94475e-10 0)
(4.42434e-09 -2.02347e-10 0)
(5.48286e-09 -2.30856e-10 0)
(6.53462e-09 -2.60583e-10 0)
(7.58051e-09 -2.78558e-10 0)
(8.68103e-09 -2.90126e-10 0)
(9.82975e-09 -2.99814e-10 0)
(1.10134e-08 -3.07891e-10 0)
(1.22112e-08 -3.10557e-10 0)
(1.34087e-08 -3.03169e-10 0)
(1.46903e-08 -2.88095e-10 0)
(1.60251e-08 -2.97165e-10 0)
(1.72732e-08 -3.06068e-10 0)
(1.84701e-08 -3.10168e-10 0)
(1.96692e-08 -3.08261e-10 0)
(2.08537e-08 -3.00823e-10 0)
(2.20017e-08 -2.86924e-10 0)
(2.31038e-08 -2.63883e-10 0)
(2.4254e-08 -2.35299e-10 0)
(2.54253e-08 -2.34061e-10 0)
(2.6462e-08 -2.33667e-10 0)
(2.73982e-08 -2.27236e-10 0)
(2.83002e-08 -2.14587e-10 0)
(2.91528e-08 -1.96718e-10 0)
(2.99343e-08 -1.72688e-10 0)
(3.0637e-08 -1.3945e-10 0)
(3.13676e-08 -1.01003e-10 0)
(3.20989e-08 -9.36478e-11 0)
(3.26593e-08 -8.75163e-11 0)
(3.30889e-08 -7.51345e-11 0)
(3.34648e-08 -5.65314e-11 0)
(-6.69729e-11 1.71906e-10 0)
(-2.68531e-10 3.85879e-10 0)
(-5.54279e-10 4.39177e-10 0)
(-8.05955e-10 3.78233e-10 0)
(-9.16117e-10 2.50192e-10 0)
(-8.26594e-10 8.7864e-11 0)
(-4.98745e-10 -8.7558e-11 0)
(1.74695e-10 -2.71921e-10 0)
(1.19486e-09 -4.8976e-10 0)
(2.41017e-09 -7.12566e-10 0)
(3.82699e-09 -9.19688e-10 0)
(5.51551e-09 -1.10707e-09 0)
(7.45981e-09 -1.27409e-09 0)
(9.63147e-09 -1.41965e-09 0)
(1.20135e-08 -1.54486e-09 0)
(1.46712e-08 -1.66643e-09 0)
(1.75883e-08 -1.8011e-09 0)
(2.05855e-08 -1.93685e-09 0)
(2.36398e-08 -2.03819e-09 0)
(2.6824e-08 -2.11547e-09 0)
(3.01244e-08 -2.17849e-09 0)
(3.35131e-08 -2.22882e-09 0)
(3.69564e-08 -2.25952e-09 0)
(4.04343e-08 -2.26358e-09 0)
(4.40328e-08 -2.24781e-09 0)
(4.77183e-08 -2.25961e-09 0)
(5.12957e-08 -2.26476e-09 0)
(5.47692e-08 -2.25532e-09 0)
(5.82131e-08 -2.22683e-09 0)
(6.16066e-08 -2.17918e-09 0)
(6.49183e-08 -2.11119e-09 0)
(6.81364e-08 -2.02054e-09 0)
(7.13598e-08 -1.91706e-09 0)
(7.45602e-08 -1.84793e-09 0)
(7.7526e-08 -1.77763e-09 0)
(8.02635e-08 -1.69287e-09 0)
(8.28653e-08 -1.5909e-09 0)
(8.53155e-08 -1.47286e-09 0)
(8.75865e-08 -1.33783e-09 0)
(8.96727e-08 -1.18331e-09 0)
(9.16908e-08 -1.02029e-09 0)
(9.36167e-08 -8.99993e-10 0)
(9.52222e-08 -7.82835e-10 0)
(9.6521e-08 -6.54046e-10 0)
(9.76241e-08 -5.11087e-10 0)
(-7.1614e-11 4.03515e-10 0)
(-2.68153e-10 7.7746e-10 0)
(-5.03443e-10 8.17726e-10 0)
(-6.31783e-10 6.22183e-10 0)
(-5.25967e-10 2.71071e-10 0)
(-1.10722e-10 -1.75949e-10 0)
(6.67349e-10 -6.78775e-10 0)
(1.92756e-09 -1.21665e-09 0)
(3.67747e-09 -1.7775e-09 0)
(5.76358e-09 -2.34397e-09 0)
(8.18717e-09 -2.88777e-09 0)
(1.1016e-08 -3.39737e-09 0)
(1.42318e-08 -3.86722e-09 0)
(1.77994e-08 -4.29614e-09 0)
(2.169e-08 -4.69266e-09 0)
(2.59799e-08 -5.08131e-09 0)
(3.0635e-08 -5.42308e-09 0)
(3.54589e-08 -5.75879e-09 0)
(4.04216e-08 -6.02973e-09 0)
(4.5569e-08 -6.24853e-09 0)
(5.08848e-08 -6.42588e-09 0)
(5.63377e-08 -6.56646e-09 0)
(6.18877e-08 -6.66521e-09 0)
(6.75039e-08 -6.71884e-09 0)
(7.32561e-08 -6.73456e-09 0)
(7.91058e-08 -6.73578e-09 0)
(8.48408e-08 -6.70961e-09 0)
(9.04447e-08 -6.65208e-09 0)
(9.59906e-08 -6.55705e-09 0)
(1.01452e-07 -6.42348e-09 0)
(1.0679e-07 -6.25167e-09 0)
(1.11987e-07 -6.04396e-09 0)
(1.17131e-07 -5.81155e-09 0)
(1.2219e-07 -5.57496e-09 0)
(1.26939e-07 -5.32316e-09 0)
(1.31366e-07 -5.04635e-09 0)
(1.35563e-07 -4.74043e-09 0)
(1.39512e-07 -4.40581e-09 0)
(1.43183e-07 -4.04358e-09 0)
(1.46566e-07 -3.65686e-09 0)
(1.49772e-07 -3.25841e-09 0)
(1.52777e-07 -2.86881e-09 0)
(1.55341e-07 -2.47706e-09 0)
(1.57463e-07 -2.07136e-09 0)
(1.59259e-07 -1.64782e-09 0)
(-5.55423e-11 6.03299e-10 0)
(-1.72469e-10 1.07816e-09 0)
(-2.36783e-10 1.03169e-09 0)
(-1.05081e-10 6.13525e-10 0)
(3.55099e-10 -6.22941e-11 0)
(1.22631e-09 -9.07735e-10 0)
(2.56738e-09 -1.85901e-09 0)
(4.50662e-09 -2.87358e-09 0)
(7.0535e-09 -3.91324e-09 0)
(1.00569e-08 -4.95602e-09 0)
(1.35195e-08 -5.96527e-09 0)
(1.75019e-08 -6.92372e-09 0)
(2.19809e-08 -7.82031e-09 0)
(2.69113e-08 -8.65218e-09 0)
(3.22489e-08 -9.43046e-09 0)
(3.81052e-08 -1.01797e-08 0)
(4.44139e-08 -1.08192e-08 0)
(5.09659e-08 -1.14382e-08 0)
(5.77474e-08 -1.19553e-08 0)
(6.4757e-08 -1.2382e-08 0)
(7.19747e-08 -1.27218e-08 0)
(7.93687e-08 -1.29905e-08 0)
(8.6897e-08 -1.31864e-08 0)
(9.45182e-08 -1.33087e-08 0)
(1.02287e-07 -1.33603e-08 0)
(1.10156e-07 -1.335e-08 0)
(1.17904e-07 -1.32826e-08 0)
(1.25501e-07 -1.31537e-08 0)
(1.33016e-07 -1.29602e-08 0)
(1.40413e-07 -1.27021e-08 0)
(1.47648e-07 -1.23811e-08 0)
(1.54693e-07 -1.20015e-08 0)
(1.61628e-07 -1.1572e-08 0)
(1.68416e-07 -1.11031e-08 0)
(1.74824e-07 -1.05934e-08 0)
(1.80832e-07 -1.00366e-08 0)
(1.86523e-07 -9.43301e-09 0)
(1.91877e-07 -8.78457e-09 0)
(1.96858e-07 -8.09422e-09 0)
(2.01451e-07 -7.36779e-09 0)
(2.05763e-07 -6.6157e-09 0)
(2.09767e-07 -5.84707e-09 0)
(2.1322e-07 -5.06293e-09 0)
(2.16115e-07 -4.2543e-09 0)
(2.18562e-07 -3.42234e-09 0)
(-2.66553e-11 7.26462e-10 0)
(-1.28924e-11 1.1926e-09 0)
(1.78927e-10 9.64978e-10 0)
(6.67593e-10 2.29375e-10 0)
(1.58216e-09 -8.68859e-10 0)
(3.00599e-09 -2.21306e-09 0)
(4.99785e-09 -3.71444e-09 0)
(7.691e-09 -5.3066e-09 0)
(1.10934e-08 -6.93271e-09 0)
(1.50572e-08 -8.56143e-09 0)
(1.95865e-08 -1.01416e-08 0)
(2.47325e-08 -1.16557e-08 0)
(3.04672e-08 -1.30871e-08 0)
(3.67342e-08 -1.44268e-08 0)
(4.34752e-08 -1.56784e-08 0)
(5.08516e-08 -1.68511e-08 0)
(5.87456e-08 -1.78485e-08 0)
(6.69356e-08 -1.88046e-08 0)
(7.54505e-08 -1.96342e-08 0)
(8.42392e-08 -2.03383e-08 0)
(9.32684e-08 -2.0877e-08 0)
(1.02498e-07 -2.13082e-08 0)
(1.11891e-07 -2.16268e-08 0)
(1.21399e-07 -2.18326e-08 0)
(1.31068e-07 -2.19254e-08 0)
(1.40833e-07 -2.18965e-08 0)
(1.50465e-07 -2.17844e-08 0)
(1.59933e-07 -2.15653e-08 0)
(1.69295e-07 -2.12452e-08 0)
(1.78508e-07 -2.08265e-08 0)
(1.87521e-07 -2.03122e-08 0)
(1.96297e-07 -1.97079e-08 0)
(2.04909e-07 -1.90202e-08 0)
(2.13314e-07 -1.82561e-08 0)
(2.21275e-07 -1.74248e-08 0)
(2.28763e-07 -1.65105e-08 0)
(2.35854e-07 -1.55256e-08 0)
(2.42523e-07 -1.4475e-08 0)
(2.4873e-07 -1.33631e-08 0)
(2.54454e-07 -1.2197e-08 0)
(2.598e-07 -1.09853e-08 0)
(2.64737e-07 -9.73402e-09 0)
(2.6902e-07 -8.45644e-09 0)
(2.72639e-07 -7.13311e-09 0)
(2.75697e-07 -5.77834e-09 0)
(8.36469e-12 7.43651e-10 0)
(1.87413e-10 1.06355e-09 0)
(6.94018e-10 5.48881e-10 0)
(1.60346e-09 -6.0645e-10 0)
(3.04162e-09 -2.22725e-09 0)
(5.08848e-09 -4.16842e-09 0)
(7.79885e-09 -6.31646e-09 0)
(1.13059e-08 -8.58214e-09 0)
(1.56094e-08 -1.0891e-08 0)
(2.05691e-08 -1.32019e-08 0)
(2.61865e-08 -1.54416e-08 0)
(3.24974e-08 -1.76098e-08 0)
(3.94772e-08 -1.96805e-08 0)
(4.70631e-08 -2.1629e-08 0)
(5.5192e-08 -2.34326e-08 0)
(6.40696e-08 -2.50481e-08 0)
(7.34938e-08 -2.64684e-08 0)
(8.32283e-08 -2.77608e-08 0)
(9.33784e-08 -2.89482e-08 0)
(1.03885e-07 -2.99492e-08 0)
(1.1466e-07 -3.07189e-08 0)
(1.25625e-07 -3.1339e-08 0)
(1.36782e-07 -3.18035e-08 0)
(1.48074e-07 -3.21104e-08 0)
(1.59547e-07 -3.22677e-08 0)
(1.71099e-07 -3.22612e-08 0)
(1.82499e-07 -3.21156e-08 0)
(1.93736e-07 -3.17866e-08 0)
(2.04836e-07 -3.13124e-08 0)
(2.15757e-07 -3.06981e-08 0)
(2.2644e-07 -2.99474e-08 0)
(2.36842e-07 -2.90686e-08 0)
(2.4703e-07 -2.80704e-08 0)
(2.56949e-07 -2.69531e-08 0)
(2.66369e-07 -2.57384e-08 0)
(2.75254e-07 -2.43864e-08 0)
(2.83657e-07 -2.29391e-08 0)
(2.91559e-07 -2.14023e-08 0)
(2.98915e-07 -1.97801e-08 0)
(3.05701e-07 -1.80816e-08 0)
(3.12017e-07 -1.63165e-08 0)
(3.17822e-07 -1.44863e-08 0)
(3.22885e-07 -1.26176e-08 0)
(3.27189e-07 -1.06659e-08 0)
(3.30817e-07 -8.6783e-09 0)
(4.83298e-11 6.61638e-10 0)
(4.18297e-10 7.42096e-10 0)
(1.27443e-09 -1.76488e-10 0)
(2.63906e-09 -1.8651e-09 0)
(4.64554e-09 -4.11121e-09 0)
(7.36429e-09 -6.74429e-09 0)
(1.08414e-08 -9.63096e-09 0)
(1.52069e-08 -1.26711e-08 0)
(2.04484e-08 -1.5781e-08 0)
(2.64377e-08 -1.8829e-08 0)
(3.31543e-08 -2.17996e-08 0)
(4.06141e-08 -2.46854e-08 0)
(4.88223e-08 -2.7442e-08 0)
(5.7724e-08 -3.00312e-08 0)
(6.72806e-08 -3.24078e-08 0)
(7.7635e-08 -3.45347e-08 0)
(8.85522e-08 -3.66146e-08 0)
(9.9771e-08 -3.82948e-08 0)
(1.11459e-07 -3.979e-08 0)
(1.23622e-07 -4.1056e-08 0)
(1.36055e-07 -4.21395e-08 0)
(1.48667e-07 -4.29954e-08 0)
(1.61494e-07 -4.36222e-08 0)
(1.74463e-07 -4.40338e-08 0)
(1.87617e-07 -4.4258e-08 0)
(2.00859e-07 -4.4318e-08 0)
(2.13976e-07 -4.40827e-08 0)
(2.26907e-07 -4.36099e-08 0)
(2.39649e-07 -4.29547e-08 0)
(2.52182e-07 -4.21129e-08 0)
(2.64439e-07 -4.1087e-08 0)
(2.76369e-07 -3.98898e-08 0)
(2.88042e-07 -3.85433e-08 0)
(2.99386e-07 -3.70462e-08 0)
(3.10193e-07 -3.5334e-08 0)
(3.20401e-07 -3.34613e-08 0)
(3.30032e-07 -3.14763e-08 0)
(3.39089e-07 -2.93738e-08 0)
(3.47524e-07 -2.71575e-08 0)
(3.55303e-07 -2.48415e-08 0)
(3.62532e-07 -2.24502e-08 0)
(3.69153e-07 -1.9986e-08 0)
(3.7496e-07 -1.73753e-08 0)
(3.79916e-07 -1.46809e-08 0)
(3.8407e-07 -1.1957e-08 0)
(1.30359e-10 5.90511e-10 0)
(7.0338e-10 2.76485e-10 0)
(1.88244e-09 -1.22235e-09 0)
(3.72217e-09 -3.57946e-09 0)
(6.33095e-09 -6.56117e-09 0)
(9.75478e-09 -9.9812e-09 0)
(1.40197e-08 -1.36867e-08 0)
(1.92449e-08 -1.75593e-08 0)
(2.54909e-08 -2.15124e-08 0)
(3.25724e-08 -2.53815e-08 0)
(4.0385e-08 -2.91942e-08 0)
(4.90078e-08 -3.28805e-08 0)
(5.84572e-08 -3.63932e-08 0)
(6.86785e-08 -3.96935e-08 0)
(7.96103e-08 -4.27277e-08 0)
(9.12104e-08 -4.54464e-08 0)
(1.03589e-07 -4.8079e-08 0)
(1.16492e-07 -5.02501e-08 0)
(1.2971e-07 -5.21668e-08 0)
(1.43343e-07 -5.38296e-08 0)
(1.57296e-07 -5.52664e-08 0)
(1.7153e-07 -5.63751e-08 0)
(1.8598e-07 -5.71717e-08 0)
(2.00546e-07 -5.76766e-08 0)
(2.15257e-07 -5.79079e-08 0)
(2.30153e-07 -5.78941e-08 0)
(2.44959e-07 -5.75345e-08 0)
(2.59464e-07 -5.69348e-08 0)
(2.73746e-07 -5.6084e-08 0)
(2.87803e-07 -5.49821e-08 0)
(3.01549e-07 -5.36376e-08 0)
(3.14912e-07 -5.20628e-08 0)
(3.2796e-07 -5.0278e-08 0)
(3.40715e-07 -4.8297e-08 0)
(3.52881e-07 -4.60462e-08 0)
(3.64298e-07 -4.36397e-08 0)
(3.75072e-07 -4.10642e-08 0)
(3.85216e-07 -3.83234e-08 0)
(3.94664e-07 -3.54298e-08 0)
(4.03362e-07 -3.23983e-08 0)
(4.11416e-07 -2.92522e-08 0)
(4.18875e-07 -2.60116e-08 0)
(4.25441e-07 -2.25886e-08 0)
(4.30965e-07 -1.91168e-08 0)
(4.35596e-07 -1.55818e-08 0)
(1.58453e-10 4.11201e-10 0)
(8.87362e-10 -5.46124e-10 0)
(2.43107e-09 -2.78228e-09 0)
(4.80084e-09 -5.93368e-09 0)
(8.0469e-09 -9.76057e-09 0)
(1.22085e-08 -1.40638e-08 0)
(1.73065e-08 -1.86731e-08 0)
(2.34407e-08 -2.34435e-08 0)
(3.0675e-08 -2.82673e-08 0)
(3.87916e-08 -3.30806e-08 0)
(4.76954e-08 -3.78092e-08 0)
(5.74928e-08 -4.23567e-08 0)
(6.817e-08 -4.66867e-08 0)
(7.96872e-08 -5.0764e-08 0)
(9.20215e-08 -5.45428e-08 0)
(1.05035e-07 -5.795e-08 0)
(1.18818e-07 -6.10184e-08 0)
(1.33129e-07 -6.3767e-08 0)
(1.47756e-07 -6.62142e-08 0)
(1.62878e-07 -6.8328e-08 0)
(1.78385e-07 -7.00685e-08 0)
(1.94192e-07 -7.1417e-08 0)
(2.10206e-07 -7.23903e-08 0)
(2.26341e-07 -7.29905e-08 0)
(2.42622e-07 -7.32132e-08 0)
(2.59063e-07 -7.30646e-08 0)
(2.7536e-07 -7.26258e-08 0)
(2.91355e-07 -7.18903e-08 0)
(3.07138e-07 -7.08161e-08 0)
(3.2266e-07 -6.94202e-08 0)
(3.37833e-07 -6.77174e-08 0)
(3.52586e-07 -6.57164e-08 0)
(3.66974e-07 -6.34217e-08 0)
(3.81012e-07 -6.08571e-08 0)
(3.94383e-07 -5.80802e-08 0)
(4.06955e-07 -5.50922e-08 0)
(4.18851e-07 -5.18604e-08 0)
(4.30043e-07 -4.84101e-08 0)
(4.40463e-07 -4.47628e-08 0)
(4.50063e-07 -4.09316e-08 0)
(4.58933e-07 -3.69235e-08 0)
(4.67125e-07 -3.27677e-08 0)
(4.74313e-07 -2.85262e-08 0)
(4.80381e-07 -2.42064e-08 0)
(4.85503e-07 -1.97722e-08 0)
(1.5846e-10 -4.50712e-12 0)
(1.03961e-09 -1.79338e-09 0)
(2.97391e-09 -4.88581e-09 0)
(5.87862e-09 -8.94767e-09 0)
(9.77089e-09 -1.3727e-08 0)
(1.4681e-08 -1.90106e-08 0)
(2.06238e-08 -2.46189e-08 0)
(2.76923e-08 -3.03982e-08 0)
(3.5896e-08 -3.62116e-08 0)
(4.50412e-08 -4.20212e-08 0)
(5.50771e-08 -4.76835e-08 0)
(6.60617e-08 -5.31182e-08 0)
(7.79635e-08 -5.82832e-08 0)
(9.07471e-08 -6.31439e-08 0)
(1.04397e-07 -6.76717e-08 0)
(1.18795e-07 -7.18387e-08 0)
(1.33962e-07 -7.55567e-08 0)
(1.49658e-07 -7.89163e-08 0)
(1.65721e-07 -8.18336e-08 0)
(1.82308e-07 -8.43194e-08 0)
(1.99304e-07 -8.63635e-08 0)
(2.1661e-07 -8.79686e-08 0)
(2.34132e-07 -8.91298e-08 0)
(2.51786e-07 -8.98356e-08 0)
(2.69586e-07 -9.00914e-08 0)
(2.87482e-07 -8.99056e-08 0)
(3.052e-07 -8.93602e-08 0)
(3.22645e-07 -8.84205e-08 0)
(3.39861e-07 -8.70793e-08 0)
(3.56781e-07 -8.5355e-08 0)
(3.73319e-07 -8.32613e-08 0)
(3.89405e-07 -8.08076e-08 0)
(4.05084e-07 -7.80003e-08 0)
(4.20316e-07 -7.48605e-08 0)
(4.34819e-07 -7.14669e-08 0)
(4.48515e-07 -6.77827e-08 0)
(4.6148e-07 -6.3811e-08 0)
(4.73666e-07 -5.95791e-08 0)
(4.85012e-07 -5.51096e-08 0)
(4.95474e-07 -5.04196e-08 0)
(5.05136e-07 -4.55208e-08 0)
(5.13987e-07 -4.04362e-08 0)
(5.21745e-07 -3.52591e-08 0)
(5.28358e-07 -2.9947e-08 0)
(5.33945e-07 -2.45053e-08 0)
(1.75788e-10 -5.32972e-10 0)
(1.2181e-09 -3.32271e-09 0)
(3.52552e-09 -7.43225e-09 0)
(6.95254e-09 -1.25387e-08 0)
(1.14864e-08 -1.83849e-08 0)
(1.71422e-08 -2.47496e-08 0)
(2.39219e-08 -3.14458e-08 0)
(3.1917e-08 -3.83159e-08 0)
(4.11051e-08 -4.52098e-08 0)
(5.12999e-08 -5.20503e-08 0)
(6.24703e-08 -5.87057e-08 0)
(7.46386e-08 -6.50921e-08 0)
(8.77595e-08 -7.11549e-08 0)
(1.01791e-07 -7.68543e-08 0)
(1.16712e-07 -8.21657e-08 0)
(1.32451e-07 -8.70753e-08 0)
(1.48982e-07 -9.14763e-08 0)
(1.6606e-07 -9.54325e-08 0)
(1.83554e-07 -9.88451e-08 0)
(2.01567e-07 -1.01735e-07 0)
(2.19995e-07 -1.04113e-07 0)
(2.38744e-07 -1.05983e-07 0)
(2.57728e-07 -1.07341e-07 0)
(2.76847e-07 -1.08144e-07 0)
(2.96102e-07 -1.08442e-07 0)
(3.15419e-07 -1.08212e-07 0)
(3.34533e-07 -1.07522e-07 0)
(3.53367e-07 -1.06356e-07 0)
(3.71951e-07 -1.04719e-07 0)
(3.90207e-07 -1.02631e-07 0)
(4.08048e-07 -1.00107e-07 0)
(4.25403e-07 -9.71612e-08 0)
(4.42308e-07 -9.38077e-08 0)
(4.58701e-07 -9.00626e-08 0)
(4.74311e-07 -8.59705e-08 0)
(4.89078e-07 -8.153e-08 0)
(5.03055e-07 -7.6755e-08 0)
(5.16186e-07 -7.16742e-08 0)
(5.2841e-07 -6.63131e-08 0)
(5.39683e-07 -6.06953e-08 0)
(5.50086e-07 -5.48436e-08 0)
(5.59583e-07 -4.87755e-08 0)
(5.6791e-07 -4.25503e-08 0)
(5.75035e-07 -3.61617e-08 0)
(5.81055e-07 -2.96284e-08 0)
(2.02854e-10 -1.14223e-09 0)
(1.40989e-09 -5.12184e-09 0)
(4.07814e-09 -1.04168e-08 0)
(8.01566e-09 -1.67046e-08 0)
(1.3181e-08 -2.37354e-08 0)
(1.95749e-08 -3.12842e-08 0)
(2.71844e-08 -3.91555e-08 0)
(3.60974e-08 -4.71821e-08 0)
(4.62712e-08 -5.52113e-08 0)
(5.75179e-08 -6.3146e-08 0)
(6.98148e-08 -7.08638e-08 0)
(8.31605e-08 -7.82638e-08 0)
(9.74944e-08 -8.52855e-08 0)
(1.12763e-07 -9.18786e-08 0)
(1.28935e-07 -9.80111e-08 0)
(1.45981e-07 -1.0367e-07 0)
(1.6385e-07 -1.0876e-07 0)
(1.82296e-07 -1.13324e-07 0)
(2.01201e-07 -1.1726e-07 0)
(2.20614e-07 -1.20577e-07 0)
(2.40436e-07 -1.23287e-07 0)
(2.60577e-07 -1.25409e-07 0)
(2.80989e-07 -1.2693e-07 0)
(3.01531e-07 -1.27823e-07 0)
(3.22191e-07 -1.28152e-07 0)
(3.42893e-07 -1.27857e-07 0)
(3.63356e-07 -1.27035e-07 0)
(3.83537e-07 -1.25648e-07 0)
(4.0344e-07 -1.23696e-07 0)
(4.22981e-07 -1.21213e-07 0)
(4.42073e-07 -1.1822e-07 0)
(4.60642e-07 -1.14735e-07 0)
(4.78724e-07 -1.1078e-07 0)
(4.9624e-07 -1.0636e-07 0)
(5.12922e-07 -1.01529e-07 0)
(5.28717e-07 -9.62934e-08 0)
(5.43664e-07 -9.06602e-08 0)
(5.57699e-07 -8.46693e-08 0)
(5.7076e-07 -7.835e-08 0)
(5.82802e-07 -7.17312e-08 0)
(5.9391e-07 -6.48415e-08 0)
(6.04033e-07 -5.76939e-08 0)
(6.1291e-07 -5.03552e-08 0)
(6.20524e-07 -4.283e-08 0)
(6.26954e-07 -3.51296e-08 0)
(2.31947e-10 -1.85268e-09 0)
(1.59993e-09 -7.20388e-09 0)
(4.62209e-09 -1.38431e-08 0)
(9.06171e-09 -2.14421e-08 0)
(1.48445e-08 -2.97751e-08 0)
(2.19653e-08 -3.86131e-08 0)
(3.03996e-08 -4.77506e-08 0)
(4.02253e-08 -5.70082e-08 0)
(5.13762e-08 -6.62331e-08 0)
(6.36592e-08 -7.53237e-08 0)
(7.70675e-08 -8.41696e-08 0)
(9.15798e-08 -9.26361e-08 0)
(1.07115e-07 -1.00676e-07 0)
(1.23617e-07 -1.08219e-07 0)
(1.41036e-07 -1.15208e-07 0)
(1.59371e-07 -1.21601e-07 0)
(1.7855e-07 -1.27324e-07 0)
(1.98337e-07 -1.32452e-07 0)
(2.18637e-07 -1.3692e-07 0)
(2.39441e-07 -1.40696e-07 0)
(2.60635e-07 -1.43768e-07 0)
(2.82149e-07 -1.46125e-07 0)
(3.03941e-07 -1.4776e-07 0)
(3.25832e-07 -1.4877e-07 0)
(3.47851e-07 -1.49139e-07 0)
(3.69889e-07 -1.48825e-07 0)
(3.91652e-07 -1.4788e-07 0)
(4.13157e-07 -1.46273e-07 0)
(4.34356e-07 -1.43984e-07 0)
(4.55146e-07 -1.41079e-07 0)
(4.75449e-07 -1.37579e-07 0)
(4.95189e-07 -1.33509e-07 0)
(5.1441e-07 -1.28895e-07 0)
(5.33009e-07 -1.2374e-07 0)
(5.50713e-07 -1.18125e-07 0)
(5.67502e-07 -1.12054e-07 0)
(5.83389e-07 -1.05504e-07 0)
(5.98294e-07 -9.85462e-08 0)
(6.12161e-07 -9.12071e-08 0)
(6.24942e-07 -8.35174e-08 0)
(6.36732e-07 -7.55088e-08 0)
(6.47452e-07 -6.71968e-08 0)
(6.56844e-07 -5.86745e-08 0)
(6.64929e-07 -4.99507e-08 0)
(6.71758e-07 -4.10013e-08 0)
(2.58992e-10 -2.66094e-09 0)
(1.78117e-09 -9.53458e-09 0)
(5.15641e-09 -1.76198e-08 0)
(1.009e-08 -2.66516e-08 0)
(1.64689e-08 -3.6402e-08 0)
(2.43018e-08 -4.66299e-08 0)
(3.35538e-08 -5.71253e-08 0)
(4.42865e-08 -6.77098e-08 0)
(5.6404e-08 -7.82404e-08 0)
(6.96985e-08 -8.85511e-08 0)
(8.42008e-08 -9.85336e-08 0)
(9.98638e-08 -1.08084e-07 0)
(1.16579e-07 -1.17152e-07 0)
(1.34315e-07 -1.25656e-07 0)
(1.53023e-07 -1.33526e-07 0)
(1.72702e-07 -1.40696e-07 0)
(1.93189e-07 -1.47152e-07 0)
(2.14234e-07 -1.5285e-07 0)
(2.35831e-07 -1.5785e-07 0)
(2.57978e-07 -1.62097e-07 0)
(2.80558e-07 -1.65548e-07 0)
(3.03473e-07 -1.6818e-07 0)
(3.2657e-07 -1.70017e-07 0)
(3.49713e-07 -1.7114e-07 0)
(3.73025e-07 -1.715e-07 0)
(3.96365e-07 -1.71139e-07 0)
(4.19433e-07 -1.70004e-07 0)
(4.42255e-07 -1.68082e-07 0)
(4.64735e-07 -1.65401e-07 0)
(4.86743e-07 -1.62041e-07 0)
(5.08229e-07 -1.58009e-07 0)
(5.2911e-07 -1.53325e-07 0)
(5.49439e-07 -1.48025e-07 0)
(5.69078e-07 -1.42135e-07 0)
(5.87752e-07 -1.35681e-07 0)
(6.05509e-07 -1.2866e-07 0)
(6.22316e-07 -1.21113e-07 0)
(6.38057e-07 -1.13121e-07 0)
(6.52706e-07 -1.04703e-07 0)
(6.66208e-07 -9.58867e-08 0)
(6.78662e-07 -8.67134e-08 0)
(6.89951e-07 -7.72254e-08 0)
(6.99819e-07 -6.74451e-08 0)
(7.08364e-07 -5.73859e-08 0)
(7.15587e-07 -4.70927e-08 0)
(2.91746e-10 -3.48311e-09 0)
(2.0019e-09 -1.19861e-08 0)
(5.72418e-09 -2.16687e-08 0)
(1.11024e-08 -3.23011e-08 0)
(1.80552e-08 -4.35988e-08 0)
(2.65832e-08 -5.53218e-08 0)
(3.66247e-08 -6.72617e-08 0)
(4.82153e-08 -7.92414e-08 0)
(6.12994e-08 -9.11362e-08 0)
(7.5671e-08 -1.0271e-07 0)
(9.12811e-08 -1.13869e-07 0)
(1.08067e-07 -1.24587e-07 0)
(1.25943e-07 -1.34747e-07 0)
(1.44885e-07 -1.4426e-07 0)
(1.64838e-07 -1.53043e-07 0)
(1.85757e-07 -1.61022e-07 0)
(2.07556e-07 -1.68305e-07 0)
(2.2993e-07 -1.74648e-07 0)
(2.52799e-07 -1.80206e-07 0)
(2.76264e-07 -1.84924e-07 0)
(3.00177e-07 -1.8876e-07 0)
(3.24404e-07 -1.9171e-07 0)
(3.48801e-07 -1.93789e-07 0)
(3.73262e-07 -1.94966e-07 0)
(3.97852e-07 -1.95227e-07 0)
(4.22463e-07 -1.94705e-07 0)
(4.46857e-07 -1.93259e-07 0)
(4.70965e-07 -1.90958e-07 0)
(4.94644e-07 -1.87908e-07 0)
(5.1781e-07 -1.84082e-07 0)
(5.40439e-07 -1.79483e-07 0)
(5.62425e-07 -1.74136e-07 0)
(5.838e-07 -1.68083e-07 0)
(6.04468e-07 -1.61411e-07 0)
(6.24182e-07 -1.54029e-07 0)
(6.42902e-07 -1.45995e-07 0)
(6.60557e-07 -1.37444e-07 0)
(6.77083e-07 -1.28378e-07 0)
(6.92473e-07 -1.18821e-07 0)
(7.06657e-07 -1.08805e-07 0)
(7.19711e-07 -9.83785e-08 0)
(7.31572e-07 -8.76403e-08 0)
(7.42008e-07 -7.64947e-08 0)
(7.51017e-07 -6.50191e-08 0)
(7.5857e-07 -5.33653e-08 0)
(3.28632e-10 -4.36479e-09 0)
(2.19814e-09 -1.46704e-08 0)
(6.21698e-09 -2.61676e-08 0)
(1.20368e-08 -3.8546e-08 0)
(1.95803e-08 -5.15091e-08 0)
(2.88059e-08 -6.48297e-08 0)
(3.96411e-08 -7.83021e-08 0)
(5.20878e-08 -9.17405e-08 0)
(6.61315e-08 -1.04994e-07 0)
(8.15544e-08 -1.17902e-07 0)
(9.81962e-08 -1.30362e-07 0)
(1.16051e-07 -1.42305e-07 0)
(1.35088e-07 -1.53598e-07 0)
(1.55255e-07 -1.64159e-07 0)
(1.76504e-07 -1.73895e-07 0)
(1.9865e-07 -1.82716e-07 0)
(2.21707e-07 -1.90767e-07 0)
(2.45391e-07 -1.97797e-07 0)
(2.69507e-07 -2.03926e-07 0)
(2.94256e-07 -2.09123e-07 0)
(3.19474e-07 -2.13357e-07 0)
(3.4501e-07 -2.16604e-07 0)
(3.70735e-07 -2.18855e-07 0)
(3.96545e-07 -2.20069e-07 0)
(4.224e-07 -2.20232e-07 0)
(4.48285e-07 -2.19487e-07 0)
(4.73962e-07 -2.17734e-07 0)
(4.99209e-07 -2.15123e-07 0)
(5.24023e-07 -2.11685e-07 0)
(5.48375e-07 -2.07351e-07 0)
(5.72161e-07 -2.02143e-07 0)
(5.95255e-07 -1.96091e-07 0)
(6.17647e-07 -1.89233e-07 0)
(6.39328e-07 -1.81645e-07 0)
(6.6005e-07 -1.73305e-07 0)
(6.79631e-07 -1.64301e-07 0)
(6.98091e-07 -1.54708e-07 0)
(7.15424e-07 -1.44506e-07 0)
(7.31569e-07 -1.33743e-07 0)
(7.46447e-07 -1.22459e-07 0)
(7.60086e-07 -1.10694e-07 0)
(7.72511e-07 -9.85415e-08 0)
(7.83487e-07 -8.59819e-08 0)
(7.9286e-07 -7.313e-08 0)
(8.00708e-07 -6.00668e-08 0)
(3.43633e-10 -5.42009e-09 0)
(2.33073e-09 -1.77427e-08 0)
(6.65189e-09 -3.11816e-08 0)
(1.2938e-08 -4.53981e-08 0)
(2.10661e-08 -6.01258e-08 0)
(3.09762e-08 -7.51404e-08 0)
(4.25913e-08 -9.02408e-08 0)
(5.59155e-08 -1.05244e-07 0)
(7.08895e-08 -1.19951e-07 0)
(8.72808e-08 -1.34284e-07 0)
(1.04965e-07 -1.48089e-07 0)
(1.23928e-07 -1.61238e-07 0)
(1.44114e-07 -1.73641e-07 0)
(1.6547e-07 -1.85234e-07 0)
(1.87963e-07 -1.95944e-07 0)
(2.11324e-07 -2.05699e-07 0)
(2.35632e-07 -2.14543e-07 0)
(2.60614e-07 -2.22305e-07 0)
(2.85981e-07 -2.29006e-07 0)
(3.1199e-07 -2.3465e-07 0)
(3.38486e-07 -2.39228e-07 0)
(3.6532e-07 -2.42723e-07 0)
(3.92365e-07 -2.45113e-07 0)
(4.19521e-07 -2.46383e-07 0)
(4.46673e-07 -2.46532e-07 0)
(4.73798e-07 -2.45627e-07 0)
(5.00649e-07 -2.43631e-07 0)
(5.27028e-07 -2.40673e-07 0)
(5.53009e-07 -2.36726e-07 0)
(5.78514e-07 -2.31803e-07 0)
(6.03418e-07 -2.25942e-07 0)
(6.27599e-07 -2.19171e-07 0)
(6.51041e-07 -2.11524e-07 0)
(6.73704e-07 -2.03e-07 0)
(6.95329e-07 -1.93707e-07 0)
(7.15775e-07 -1.83668e-07 0)
(7.35077e-07 -1.72908e-07 0)
(7.53197e-07 -1.61474e-07 0)
(7.70066e-07 -1.49432e-07 0)
(7.85618e-07 -1.36833e-07 0)
(7.99877e-07 -1.23719e-07 0)
(8.12835e-07 -1.10119e-07 0)
(8.24239e-07 -9.61317e-08 0)
(8.33983e-07 -8.1824e-08 0)
(8.4217e-07 -6.72162e-08 0)
(3.59128e-10 -6.58898e-09 0)
(2.46965e-09 -2.10878e-08 0)
(7.09127e-09 -3.65779e-08 0)
(1.38265e-08 -5.27552e-08 0)
(2.25201e-08 -6.93614e-08 0)
(3.30942e-08 -8.61737e-08 0)
(4.54591e-08 -1.02995e-07 0)
(5.96386e-08 -1.19652e-07 0)
(7.55326e-08 -1.35924e-07 0)
(9.28961e-08 -1.51734e-07 0)
(1.11639e-07 -1.66901e-07 0)
(1.3171e-07 -1.81307e-07 0)
(1.53028e-07 -1.94867e-07 0)
(1.75537e-07 -2.07526e-07 0)
(1.9921e-07 -2.19237e-07 0)
(2.23757e-07 -2.29983e-07 0)
(2.49299e-07 -2.39639e-07 0)
(2.75584e-07 -2.48194e-07 0)
(3.0225e-07 -2.5548e-07 0)
(3.29532e-07 -2.61525e-07 0)
(3.57294e-07 -2.66359e-07 0)
(3.854e-07 -2.70001e-07 0)
(4.13722e-07 -2.72463e-07 0)
(4.4214e-07 -2.73773e-07 0)
(4.70531e-07 -2.74e-07 0)
(4.98918e-07 -2.73007e-07 0)
(5.27003e-07 -2.70831e-07 0)
(5.54553e-07 -2.67455e-07 0)
(5.8168e-07 -2.62957e-07 0)
(6.08289e-07 -2.574e-07 0)
(6.34263e-07 -2.50833e-07 0)
(6.59477e-07 -2.43294e-07 0)
(6.83946e-07 -2.34832e-07 0)
(7.0759e-07 -2.25371e-07 0)
(7.30132e-07 -2.15079e-07 0)
(7.51473e-07 -2.03908e-07 0)
(7.71608e-07 -1.91923e-07 0)
(7.90486e-07 -1.79203e-07 0)
(8.08046e-07 -1.65818e-07 0)
(8.24226e-07 -1.51835e-07 0)
(8.39075e-07 -1.37318e-07 0)
(8.52564e-07 -1.22264e-07 0)
(8.64415e-07 -1.06775e-07 0)
(8.74553e-07 -9.08876e-08 0)
(8.83069e-07 -7.46598e-08 0)
(3.79513e-10 -7.82018e-09 0)
(2.61877e-09 -2.46406e-08 0)
(7.5326e-09 -4.23303e-08 0)
(1.47003e-08 -6.06066e-08 0)
(2.3943e-08 -7.92096e-08 0)
(3.5163e-08 -9.79257e-08 0)
(4.82569e-08 -1.16558e-07 0)
(6.32724e-08 -1.34929e-07 0)
(8.0073e-08 -1.52824e-07 0)
(9.84052e-08 -1.70159e-07 0)
(1.18205e-07 -1.86758e-07 0)
(1.39376e-07 -2.02503e-07 0)
(1.61817e-07 -2.17298e-07 0)
(1.85451e-07 -2.31086e-07 0)
(2.10219e-07 -2.43843e-07 0)
(2.35939e-07 -2.55541e-07 0)
(2.62697e-07 -2.65802e-07 0)
(2.90273e-07 -2.75055e-07 0)
(3.18343e-07 -2.82969e-07 0)
(3.46971e-07 -2.89532e-07 0)
(3.76022e-07 -2.9476e-07 0)
(4.05366e-07 -2.98669e-07 0)
(4.34872e-07 -3.01279e-07 0)
(4.64385e-07 -3.02641e-07 0)
(4.93959e-07 -3.02828e-07 0)
(5.23605e-07 -3.01455e-07 0)
(5.52956e-07 -2.99115e-07 0)
(5.81774e-07 -2.95385e-07 0)
(6.10057e-07 -2.90371e-07 0)
(6.3775e-07 -2.84178e-07 0)
(6.64757e-07 -2.76877e-07 0)
(6.90956e-07 -2.68513e-07 0)
(7.1644e-07 -2.59143e-07 0)
(7.41054e-07 -2.48658e-07 0)
(7.64507e-07 -2.37295e-07 0)
(7.86761e-07 -2.24961e-07 0)
(8.07724e-07 -2.1174e-07 0)
(8.27351e-07 -1.97712e-07 0)
(8.45584e-07 -1.82935e-07 0)
(8.62362e-07 -1.67488e-07 0)
(8.77778e-07 -1.51456e-07 0)
(8.91786e-07 -1.34886e-07 0)
(9.04092e-07 -1.17786e-07 0)
(9.14632e-07 -1.00266e-07 0)
(9.2347e-07 -8.23723e-08 0)
(4.03539e-10 -9.12864e-09 0)
(2.77035e-09 -2.84141e-08 0)
(7.96255e-09 -4.84477e-08 0)
(1.55507e-08 -6.89565e-08 0)
(2.53313e-08 -8.96702e-08 0)
(3.71833e-08 -1.10397e-07 0)
(5.1e-08 -1.3093e-07 0)
(6.68411e-08 -1.51076e-07 0)
(8.45326e-08 -1.70656e-07 0)
(1.0381e-07 -1.89559e-07 0)
(1.2463e-07 -2.07672e-07 0)
(1.46881e-07 -2.24867e-07 0)
(1.70435e-07 -2.40996e-07 0)
(1.95178e-07 -2.56002e-07 0)
(2.21067e-07 -2.69805e-07 0)
(2.48177e-07 -2.82315e-07 0)
(2.76183e-07 -2.93275e-07 0)
(3.04794e-07 -3.03123e-07 0)
(3.34097e-07 -3.11639e-07 0)
(3.63986e-07 -3.18722e-07 0)
(3.94308e-07 -3.24345e-07 0)
(4.24922e-07 -3.28519e-07 0)
(4.55671e-07 -3.31277e-07 0)
(4.8639e-07 -3.32678e-07 0)
(5.1739e-07 -3.32775e-07 0)
(5.48181e-07 -3.31137e-07 0)
(5.78502e-07 -3.28496e-07 0)
(6.08609e-07 -3.24411e-07 0)
(6.38089e-07 -3.18967e-07 0)
(6.66883e-07 -3.12172e-07 0)
(6.94932e-07 -3.04151e-07 0)
(7.22126e-07 -2.94913e-07 0)
(7.48634e-07 -2.84503e-07 0)
(7.74196e-07 -2.72906e-07 0)
(7.98519e-07 -2.60322e-07 0)
(8.21656e-07 -2.46827e-07 0)
(8.4343e-07 -2.32351e-07 0)
(8.63814e-07 -2.17025e-07 0)
(8.82747e-07 -2.00837e-07 0)
(9.00141e-07 -1.83847e-07 0)
(9.16078e-07 -1.66179e-07 0)
(9.30602e-07 -1.48034e-07 0)
(9.43373e-07 -1.29222e-07 0)
(9.54278e-07 -1.09963e-07 0)
(9.63427e-07 -9.0347e-08 0)
(4.30698e-10 -1.05184e-08 0)
(2.91757e-09 -3.23989e-08 0)
(8.37058e-09 -5.48931e-08 0)
(1.63743e-08 -7.77014e-08 0)
(2.6684e-08 -1.00614e-07 0)
(3.91541e-08 -1.23437e-07 0)
(5.3699e-08 -1.45956e-07 0)
(7.03585e-08 -1.67974e-07 0)
(8.8929e-08 -1.89369e-07 0)
(1.09106e-07 -2.09907e-07 0)
(1.30865e-07 -2.2958e-07 0)
(1.54157e-07 -2.48193e-07 0)
(1.78824e-07 -2.65607e-07 0)
(2.04735e-07 -2.81792e-07 0)
(2.31879e-07 -2.96626e-07 0)
(2.60263e-07 -3.10006e-07 0)
(2.89451e-07 -3.22145e-07 0)
(3.19199e-07 -3.32594e-07 0)
(3.49731e-07 -3.41664e-07 0)
(3.80922e-07 -3.49247e-07 0)
(4.12532e-07 -3.55263e-07 0)
(4.4438e-07 -3.59704e-07 0)
(4.76289e-07 -3.62595e-07 0)
(5.08091e-07 -3.63966e-07 0)
(5.40334e-07 -3.63813e-07 0)
(5.7235e-07 -3.62115e-07 0)
(6.03786e-07 -3.58929e-07 0)
(6.35058e-07 -3.54412e-07 0)
(6.6571e-07 -3.48493e-07 0)
(6.95652e-07 -3.41011e-07 0)
(7.24789e-07 -3.32198e-07 0)
(7.53077e-07 -3.2206e-07 0)
(7.80636e-07 -3.10614e-07 0)
(8.07154e-07 -2.9803e-07 0)
(8.32251e-07 -2.84155e-07 0)
(8.56159e-07 -2.69427e-07 0)
(8.7873e-07 -2.53552e-07 0)
(8.99863e-07 -2.36785e-07 0)
(9.19571e-07 -2.19141e-07 0)
(9.37654e-07 -2.00625e-07 0)
(9.54065e-07 -1.81318e-07 0)
(9.69076e-07 -1.61448e-07 0)
(9.82368e-07 -1.40992e-07 0)
(9.93599e-07 -1.19958e-07 0)
(1.003e-06 -9.8554e-08 0)
(4.60884e-10 -1.19126e-08 0)
(3.07158e-09 -3.64927e-08 0)
(8.82124e-09 -6.15319e-08 0)
(1.72447e-08 -8.6762e-08 0)
(2.80377e-08 -1.12016e-07 0)
(4.1099e-08 -1.37047e-07 0)
(5.63398e-08 -1.61638e-07 0)
(7.37417e-08 -1.85606e-07 0)
(9.31886e-08 -2.08895e-07 0)
(1.14316e-07 -2.31162e-07 0)
(1.37058e-07 -2.52367e-07 0)
(1.6145e-07 -2.72404e-07 0)
(1.87215e-07 -2.91223e-07 0)
(2.14235e-07 -3.08683e-07 0)
(2.42551e-07 -3.24631e-07 0)
(2.71918e-07 -3.38916e-07 0)
(3.02367e-07 -3.52026e-07 0)
(3.33516e-07 -3.63129e-07 0)
(3.65121e-07 -3.7282e-07 0)
(3.97477e-07 -3.80999e-07 0)
(4.30335e-07 -3.87536e-07 0)
(4.63455e-07 -3.92374e-07 0)
(4.96651e-07 -3.95474e-07 0)
(5.29789e-07 -3.96758e-07 0)
(5.63237e-07 -3.96187e-07 0)
(5.96447e-07 -3.94493e-07 0)
(6.28984e-07 -3.90743e-07 0)
(6.61235e-07 -3.85535e-07 0)
(6.9311e-07 -3.78861e-07 0)
(7.24245e-07 -3.70763e-07 0)
(7.54418e-07 -3.6116e-07 0)
(7.83733e-07 -3.50055e-07 0)
(8.12199e-07 -3.37546e-07 0)
(8.39726e-07 -3.24014e-07 0)
(8.65753e-07 -3.08937e-07 0)
(8.90475e-07 -2.92619e-07 0)
(9.13898e-07 -2.75333e-07 0)
(9.35689e-07 -2.57117e-07 0)
(9.56036e-07 -2.37974e-07 0)
(9.74785e-07 -2.17904e-07 0)
(9.91796e-07 -1.96934e-07 0)
(1.00722e-06 -1.75198e-07 0)
(1.02093e-06 -1.53041e-07 0)
(1.03258e-06 -1.30198e-07 0)
(1.04225e-06 -1.06905e-07 0)
(4.79447e-10 -1.33406e-08 0)
(3.23239e-09 -4.07418e-08 0)
(9.26525e-09 -6.84762e-08 0)
(1.80418e-08 -9.63183e-08 0)
(2.93094e-08 -1.24035e-07 0)
(4.29885e-08 -1.51371e-07 0)
(5.89458e-08 -1.78129e-07 0)
(7.70768e-08 -2.0413e-07 0)
(9.73554e-08 -2.29253e-07 0)
(1.19476e-07 -2.53311e-07 0)
(1.43194e-07 -2.7613e-07 0)
(1.68489e-07 -2.97701e-07 0)
(1.95247e-07 -3.17978e-07 0)
(2.23459e-07 -3.3676e-07 0)
(2.53133e-07 -3.53891e-07 0)
(2.83649e-07 -3.69191e-07 0)
(3.15264e-07 -3.83044e-07 0)
(3.47633e-07 -3.94969e-07 0)
(3.8026e-07 -4.0532e-07 0)
(4.13752e-07 -4.14011e-07 0)
(4.47833e-07 -4.20912e-07 0)
(4.82238e-07 -4.25987e-07 0)
(5.16818e-07 -4.29205e-07 0)
(5.5141e-07 -4.30477e-07 0)
(5.85755e-07 -4.29753e-07 0)
(6.20086e-07 -4.27798e-07 0)
(6.5419e-07 -4.23593e-07 0)
(6.87558e-07 -4.17781e-07 0)
(7.20295e-07 -4.10422e-07 0)