/*--------------------------------*- C++ -*----------------------------------*\
  =========                 |
  \\      /  F ield         | OpenFOAM: The Open Source CFD Toolbox
   \\    /   O peration     | Website:  https://openfoam.org
    \\  /    A nd           | Version:  9
     \\/     M anipulation  |
\*---------------------------------------------------------------------------*/
FoamFile
{
    format      ascii;
    class       surfaceScalarField;
    location    "24";
    object      phi;
}
// * * * * * * * * * * * * * * * * * * * * * * * * * * * * * * * * * * * * * //

dimensions      [0 3 -1 0 0 0 0];

internalField   nonuniform List<scalar> 
16735
(
-0.00300782
0.00300783
-7.52547e-09
-0.00903102
0.00602322
-1.37029e-08
-0.0169466
0.00791555
-1.62648e-08
-0.0260308
0.00908423
-1.72622e-08
-0.036182
0.0101512
-1.78334e-08
-0.0468252
0.0106433
-1.75554e-08
-0.059071
0.0122458
-1.59162e-08
-0.0702285
0.0111575
-1.10159e-08
-0.0852686
0.0150401
-1.65691e-09
0.0114827
1.48732e-08
-0.0967513
-0.00295575
0.00596358
-0.00888203
0.0119495
-0.0166587
0.0156923
-0.0255527
0.0179783
-0.0354483
0.0200468
-0.0457375
0.0209325
-0.0575226
0.0240309
-0.06801
0.0216449
-0.0822937
0.0293238
0.0216489
-0.0924599
-0.00285388
0.00881746
-0.00858929
0.0176849
-0.0160915
0.0231945
-0.0246087
0.0264954
-0.0339948
0.029433
-0.0435832
0.0305209
-0.0544403
0.034888
-0.0636035
0.0308081
-0.0763941
0.0421144
0.0292457
-0.0839909
-0.00270661
0.0115241
-0.00816305
0.0231413
-0.0152614
0.0302928
-0.023222
0.034456
-0.0318484
0.0380594
-0.0404036
0.0390761
-0.0498507
0.0443351
-0.0570594
0.0380167
-0.0676443
0.0526993
0.0331366
-0.0715352
-0.0025203
0.0140444
-0.00761818
0.0282392
-0.0141926
0.0368672
-0.0214269
0.0416904
-0.0290484
0.0456809
-0.0362579
0.0462856
-0.0437883
0.0518655
-0.0484314
0.0426599
-0.0560907
0.0603586
0.0323294
-0.0552835
-0.002303
0.0163474
-0.00697348
0.0329097
-0.012914
0.0428077
-0.0192662
0.0480426
-0.0256444
0.052059
-0.0312202
0.0518614
-0.0362909
0.0569362
-0.0377662
0.0441352
-0.0416752
0.0642676
0.0259645
-0.0353104
-0.00206406
0.0184114
-0.00625085
0.0370965
-0.0114601
0.048017
-0.0167893
0.0533717
-0.0216929
0.0569626
-0.0253743
0.0555427
-0.0273941
0.058956
-0.0251133
0.0418543
-0.0241484
0.0633028
0.0133069
-0.0114909
-0.00181369
0.0202251
-0.00547422
0.040757
-0.00986862
0.0524114
-0.0140479
0.057551
-0.017251
0.0601658
-0.0188024
0.0570941
-0.0171143
0.057268
-0.0105828
0.0353228
-0.00288258
0.0556026
-0.00696489
0.0173893
-0.00156243
0.0217876
-0.00466813
0.0438627
-0.00817782
0.0559211
-0.011091
0.0604642
-0.0123668
0.0614416
-0.0115668
0.0562941
-0.00537654
0.0510777
0.0059561
0.0239901
0.0213674
0.0401913
-0.037961
0.0523635
-0.00132052
0.0231081
-0.00385618
0.0463984
-0.00642386
0.0584888
-0.00795878
0.0619991
-0.00706451
0.0605473
-0.00370555
0.0529351
0.00752015
0.039852
0.024883
0.00662728
0.049959
0.0151153
-0.0820992
0.0940971
-0.00109724
0.0242053
-0.00305911
0.0483602
-0.00463713
0.0600668
-0.00467657
0.0620385
-0.00129575
0.0571665
0.00513617
0.0465032
0.0218721
0.0231161
0.045724
-0.0172247
0.083094
-0.0222546
-0.14193
0.142925
-0.000900191
0.0251055
-0.00229265
0.0497527
-0.00283744
0.0606116
-0.00125974
0.0604608
0.00475425
0.0511525
0.0151464
0.0361111
0.038283
-2.05262e-05
0.0693734
-0.0483151
0.12104
-0.0739208
-0.218612
0.197721
-0.000734643
0.0258401
-0.00156537
0.0505834
-0.00102453
0.0600708
0.00240151
0.0570348
0.0113808
0.0421732
0.0265543
0.0209376
0.0570882
-0.0305544
0.0972008
-0.0884277
0.16413
-0.14085
-0.31008
0.255598
-0.000603029
0.0264432
-0.000876997
0.0508574
0.000803784
0.05839
0.00632578
0.0515128
0.0187731
0.0297258
0.0399201
-0.000209384
0.0786512
-0.0692856
0.13026
-0.140036
0.211928
-0.222518
-0.410535
0.312383
-0.000505639
0.0269488
-0.000214489
0.0505662
0.00268936
0.0554861
0.0106072
0.043595
0.0271693
0.0131637
0.0557555
-0.0287956
0.103343
-0.116873
0.168128
-0.204821
0.261912
-0.316302
-0.512214
0.363591
-0.000432937
0.0273818
0.000440809
0.0496925
0.00472954
0.0511974
0.0154421
0.0328825
0.0369138
-0.00830806
0.074363
-0.0662448
0.131376
-0.173886
0.208676
-0.282121
0.309417
-0.417043
-0.608293
0.405496
-0.00037409
0.0277558
0.00113109
0.0481873
0.00702831
0.0453002
0.0210917
0.0188191
0.0484611
-0.0356775
0.095722
-0.113506
0.162208
-0.240372
0.248682
-0.368595
0.349526
-0.517887
-0.694693
0.435925
-0.000316504
0.0280723
0.00190809
0.0459627
0.00972276
0.0374855
0.0278648
0.000677052
0.0622506
-0.0700634
0.119443
-0.170698
0.194089
-0.315018
0.284615
-0.459122
0.379142
-0.612414
-0.770064
0.454514
-0.000243176
0.0283155
0.00283212
0.0428874
0.012974
0.0273437
0.0360699
-0.0224189
0.078466
-0.112459
0.144608
-0.23684
0.224439
-0.394849
0.313557
-0.548239
0.397608
-0.696465
-0.834979
0.462522
-0.0001337
0.0284492
0.00396995
0.0387838
0.0169593
0.0143543
0.0459444
-0.0514039
0.0967908
-0.163306
0.169674
-0.309723
0.250785
-0.47596
0.333998
-0.631452
0.406008
-0.768475
-0.891533
0.462562
3.30775e-05
0.0284161
0.00539233
0.0334245
0.0218595
-0.00211283
0.0575556
-0.0871001
0.116329
-0.22208
0.192773
-0.386167
0.271436
-0.554624
0.345942
-0.705958
0.407377
-0.82991
-0.947274
0.463118
0.00025165
0.0281645
0.00717392
0.0265023
0.0278324
-0.0227713
0.0706913
-0.129959
0.13576
-0.287149
0.212291
-0.462697
0.285689
-0.628022
0.350544
-0.770813
0.405264
-0.884629
-0.995633
0.453622
0.000559682
0.0276048
0.00939251
0.0176694
0.0349613
-0.0483401
0.0848029
-0.179801
0.153664
-0.35601
0.227266
-0.536299
0.293738
-0.694494
0.349989
-0.827064
0.39749
-0.932131
-1.03672
0.438574
0.000967517
0.0266373
0.0121254
0.00651154
0.0431874
-0.0794021
0.099065
-0.235678
0.168879
-0.425824
0.237429
-0.604848
0.296456
-0.753521
0.344956
-0.875564
0.386358
-0.973532
-1.07351
0.423149
0.0014865
0.0251508
0.0154391
-0.00744107
0.052268
-0.116231
0.11254
-0.29595
0.180715
-0.493999
0.243046
-0.66718
0.294734
-0.805209
0.336619
-0.917449
0.373012
-1.00993
-1.10631
0.405814
0.00213061
0.0230202
0.0193629
-0.0246733
0.0617951
-0.158663
0.124384
-0.35854
0.188953
-0.558568
0.244626
-0.722853
0.289519
-0.850102
0.325812
-0.953742
0.35798
-1.04209
-1.13604
0.387706
0.00292148
0.0200987
0.0238573
-0.0456091
0.0712565
-0.206062
0.134006
-0.421289
0.193719
-0.61828
0.242793
-0.771927
0.281607
-0.888916
0.313201
-0.985336
0.341878
-1.07077
-1.16308
0.368922
0.00389217
0.0162065
0.028802
-0.070519
0.0801046
-0.257365
0.141123
-0.482308
0.195332
-0.672489
0.238166
-0.814761
0.27166
-0.922409
0.299304
-1.01298
0.324983
-1.09645
-1.18773
0.349629
0.00508295
0.0111236
0.0340115
-0.0994475
0.0878413
-0.311195
0.145714
-0.540181
0.194201
-0.720976
0.231312
-0.851872
0.260201
-0.951298
0.284485
-1.03726
0.307541
-1.11951
-1.21016
0.329977
0.00652489
0.0045987
0.0392672
-0.13219
0.0941113
-0.366039
0.147922
-0.593992
0.190758
-0.763811
0.222717
-0.883831
0.247634
-0.976215
0.269016
-1.05865
0.289697
-1.14019
-1.23048
0.310014
0.00821713
-0.00361843
0.0443464
-0.168319
0.0987412
-0.420434
0.147977
-0.643228
0.185414
-0.801248
0.212789
-0.911206
0.234266
-0.997693
0.253084
-1.07746
0.271556
-1.15866
-1.24873
0.289811
0.0101146
-0.013733
0.0490327
-0.207237
0.101706
-0.473107
0.146143
-0.687664
0.178537
-0.833642
0.201855
-0.934523
0.220326
-1.01616
0.236826
-1.09396
0.253193
-1.17503
-1.26495
0.269407
0.0121364
-0.0258695
0.0531234
-0.248224
0.103078
-0.523062
0.142689
-0.727276
0.170447
-0.8614
0.190177
-0.954253
0.205984
-1.03197
0.220338
-1.10832
0.234663
-1.18935
-1.27913
0.24884
0.0141872
-0.0400567
0.0564476
-0.290485
0.102983
-0.569598
0.137874
-0.762166
0.161414
-0.88494
0.177958
-0.970797
0.191363
-1.04538
0.203688
-1.12064
0.216008
-1.20167
-1.29126
0.228145
0.0161796
-0.0562363
0.0588879
-0.333193
0.101575
-0.612285
0.131933
-0.792524
0.151655
-0.904662
0.165357
-0.984499
0.176556
-1.05657
0.186928
-1.13101
0.197265
-1.21201
-1.30135
0.207355
0.0180428
-0.0742791
0.0603898
-0.37554
0.0990171
-0.650912
0.125081
-0.818588
0.141354
-0.920935
0.152495
-0.99564
0.161634
-1.06571
0.170099
-1.13948
0.178465
-1.22037
-1.30939
0.186503
0.0197185
-0.0939976
0.0609543
-0.416776
0.0954712
-0.685429
0.117505
-0.840622
0.130658
-0.934088
0.139465
-1.00445
0.146648
-1.0729
0.153238
-1.14607
0.159639
-1.22677
-1.31537
0.165621
0.0211539
-0.115151
0.0606215
-0.456243
0.0910896
-0.715897
0.109369
-0.858901
0.119687
-0.944406
0.12634
-1.0111
0.131641
-1.0782
0.136376
-1.1508
0.140815
-1.23121
-1.3193
0.144741
0.0222987
-0.13745
0.0594498
-0.493394
0.0860106
-0.742458
0.10081
-0.8737
0.108538
-0.952134
0.113175
-1.01574
0.116648
-1.08167
0.119539
-1.1537
0.122022
-1.2337
-1.32118
0.123899
0.0231097
-0.16056
0.0575271
-0.527812
0.0803603
-0.765291
0.0919471
-0.885287
0.0972907
-0.957478
0.100017
-1.01846
0.101698
-1.08335
0.102754
-1.15475
0.103289
-1.23423
-1.32102
0.103137
0.0235586
-0.184118
0.0550323
-0.559285
0.0742568
-0.784516
0.0828732
-0.893904
0.0860055
-0.96061
0.0869
-1.01936
0.0868165
-1.08327
0.0860418
-1.15398
0.084643
-1.23283
-1.31889
0.0825057
0.0236336
-0.207752
0.0520302
-0.587682
0.0678045
-0.80029
0.0736679
-0.899767
0.074732
-0.961674
0.0738558
-1.01848
0.0720266
-1.08144
0.069427
-1.15138
0.0661057
-1.22951
-1.31475
0.0619714
0.0233404
-0.231092
0.0485928
-0.612935
0.0610936
-0.812791
0.0643971
-0.90307
0.0635098
-0.960787
0.0609095
-1.01588
0.0573503
-1.07788
0.0529351
-1.14696
0.0476953
-1.22427
-1.30861
0.0415509
0.0227003
-0.253793
0.0447937
-0.635028
0.0542035
-0.822201
0.0551154
-0.903982
0.0523711
-0.958043
0.0480834
-1.01159
0.0428075
-1.0726
0.0365917
-1.14075
0.0294558
-1.21714
-1.30042
0.0212703
0.0217469
-0.27554
0.0407032
-0.653984
0.047185
-0.828682
0.0458662
-0.902664
0.0413424
-0.953519
0.0353974
-1.00565
0.028417
-1.06562
0.0204102
-1.13274
0.0114513
-1.20818
-1.29004
0.00106473
0.020521
-0.296061
0.0363871
-0.66985
0.0400957
-0.832391
0.0366858
-0.899254
0.0304465
-0.947279
0.0228689
-0.998071
0.0141969
-1.05695
0.00436656
-1.12291
-0.00631072
-1.1975
-1.27769
-0.0186591
0.019066
-0.315127
0.0319055
-0.68269
0.0329885
-0.833474
0.0276051
-0.89387
0.0197016
-0.939376
0.0105075
-0.988877
0.000126836
-1.04657
-0.0113328
-1.11145
-0.0239507
-1.18488
-1.26351
-0.0381266
0.0174246
-0.332551
0.0273129
-0.692578
0.0259069
-0.832068
0.0186503
-0.886614
0.00911376
-0.929839
-0.00168078
-0.978083
-0.0136006
-1.03465
-0.0267821
-1.09827
-0.0412931
-1.17037
-1.24748
-0.0573258
0.0156368
-0.348188
0.0226575
-0.699599
0.0188869
-0.828297
0.00984207
-0.877569
-0.00132553
-0.918672
-0.0135515
-0.965857
-0.027133
-1.02107
-0.0420006
-1.0834
-0.05834
-1.15403
-1.22961
-0.0762119
0.013739
-0.361927
0.0179815
-0.703841
0.0119562
-0.822272
0.00117073
-0.866783
-0.0113914
-0.90611
-0.0252336
-0.952015
-0.0404179
-1.00589
-0.0569544
-1.06686
-0.0750726
-1.13591
-1.20992
-0.0947649
0.0117648
-0.373692
0.0133223
-0.705399
0.0051254
-0.814075
-0.00721356
-0.854444
-0.021294
-0.892029
-0.0366818
-0.936627
-0.0534383
-0.989129
-0.0716186
-1.04868
-0.0914751
-1.11606
-1.18843
-0.112956
0.00974425
-0.383436
0.00871478
-0.704369
-0.00157617
-0.803784
-0.0154243
-0.840596
-0.0309788
-0.876475
-0.0478777
-0.919728
-0.0661781
-0.970829
-0.0859719
-1.02889
-0.107529
-1.0945
-1.1652
-0.130766
0.00770226
-0.391138
0.00419909
-0.700866
-0.00796486
-0.79162
-0.0234327
-0.825128
-0.0404289
-0.859479
-0.0588072
-0.90135
-0.078622
-0.951014
-0.0999959
-1.00751
-0.123217
-1.07128
-1.14024
-0.148171
0.00565768
-0.396796
-0.000132504
-0.695076
-0.0142224
-0.77753
-0.0312238
-0.808127
-0.0496334
-0.841069
-0.0694578
-0.881525
-0.0907555
-0.929717
-0.113674
-0.984596
-0.138522
-1.04643
-1.11362
-0.16515
0.0036289
-0.400425
-0.00468568
-0.686761
-0.0203176
-0.761898
-0.0387835
-0.789661
-0.0585809
-0.821271
-0.0798177
-0.860289
-0.102564
-0.90697
-0.126992
-0.960168
-0.153428
-1.01999
-1.08537
-0.181676
0.00165224
-0.402077
-0.00898731
-0.676122
-0.0262325
-0.744653
-0.0461026
-0.769791
-0.0672611
-0.800113
-0.0898757
-0.837674
-0.114036
-0.88281
-0.139936
-0.934268
-0.167917
-0.992013
-1.05556
-0.197723
-0.000240511
-0.401837
-0.0131213
-0.663241
-0.0319571
-0.725817
-0.0531764
-0.748572
-0.0756642
-0.777625
-0.0996208
-0.813717
-0.125157
-0.857274
-0.152494
-0.906931
-0.181973
-0.962535
-1.02424
-0.213297
-0.00236592
-0.399471
-0.0171038
-0.648503
-0.037479
-0.705442
-0.059999
-0.726052
-0.0837811
-0.753843
-0.109042
-0.788456
-0.13592
-0.830396
-0.164669
-0.878181
-0.195588
-0.931616
-0.991461
-0.228364
-0.00434482
-0.395126
-0.0209335
-0.631914
-0.0427865
-0.683589
-0.0665647
-0.702274
-0.0916033
-0.728804
-0.11813
-0.761929
-0.146316
-0.802211
-0.176454
-0.848043
-0.208717
-0.899353
-0.95749
-0.242687
-0.00623721
-0.388889
-0.0246075
-0.613544
-0.0478736
-0.660323
-0.0728679
-0.677279
-0.0991227
-0.70255
-0.126876
-0.734176
-0.156334
-0.772752
-0.187802
-0.816576
-0.22137
-0.865785
-0.922723
-0.256137
-0.00804936
-0.380839
-0.0281225
-0.593471
-0.0527357
-0.63571
-0.0789032
-0.651112
-0.106332
-0.675121
-0.13527
-0.705238
-0.165959
-0.742063
-0.198659
-0.783876
-0.233077
-0.831367
-0.885762
-0.270038
-0.00978157
-0.371058
-0.0314753
-0.571777
-0.0573693
-0.609816
-0.0846659
-0.623815
-0.113225
-0.646562
-0.143306
-0.675158
-0.175169
-0.7102
-0.208986
-0.750058
-0.244664
-0.79569
-0.847213
-0.283213
-0.0114325
-0.359625
-0.034663
-0.548547
-0.0617715
-0.582708
-0.0901513
-0.595435
-0.119795
-0.616918
-0.150974
-0.643979
-0.183963
-0.677211
-0.218923
-0.715098
-0.255977
-0.758636
-0.807327
-0.295863
-0.0130001
-0.346625
-0.0376828
-0.523864
-0.0659399
-0.55445
-0.0953552
-0.56602
-0.126036
-0.586238
-0.158263
-0.611751
-0.192318
-0.643156
-0.228364
-0.679052
-0.266639
-0.720361
-0.766176
-0.307789
-0.0144823
-0.332143
-0.0405323
-0.497814
-0.0698723
-0.52511
-0.100274
-0.535619
-0.131941
-0.55457
-0.165167
-0.578526
-0.200239
-0.608084
-0.237344
-0.641947
-0.276775
-0.68093
-0.723881
-0.31907
-0.0158768
-0.316266
-0.0432094
-0.470481
-0.0735667
-0.494753
-0.104903
-0.504282
-0.137506
-0.521967
-0.171676
-0.544355
-0.207711
-0.572049
-0.245819
-0.603839
-0.286326
-0.640423
-0.680513
-0.329694
-0.017181
-0.299085
-0.0457122
-0.44195
-0.0770213
-0.463444
-0.109239
-0.472065
-0.142725
-0.488481
-0.177785
-0.509295
-0.214729
-0.535105
-0.253786
-0.564782
-0.295298
-0.598911
-0.636145
-0.339666
-0.018392
-0.280693
-0.0480393
-0.412303
-0.0802343
-0.431249
-0.113279
-0.439019
-0.147592
-0.454169
-0.183486
-0.4734
-0.221282
-0.49731
-0.261228
-0.524836
-0.303676
-0.556463
-0.590843
-0.348979
-0.019506
-0.261187
-0.050189
-0.38162
-0.0832043
-0.398234
-0.117021
-0.405203
-0.152103
-0.419087
-0.188773
-0.43673
-0.227363
-0.45872
-0.268136
-0.484062
-0.311451
-0.513149
-0.544673
-0.357621
-0.0205162
-0.240671
-0.0521594
-0.349977
-0.0859302
-0.364463
-0.12046
-0.370674
-0.156253
-0.383294
-0.19364
-0.399343
-0.232963
-0.419397
-0.274501
-0.442524
-0.318613
-0.469037
-0.497703
-0.365582
-0.021408
-0.219263
-0.0539496
-0.317435
-0.0884116
-0.330001
-0.123594
-0.335491
-0.160039
-0.34685
-0.198081
-0.361301
-0.238076
-0.379401
-0.280313
-0.400287
-0.325151
-0.424199
-0.450003
-0.372852
-0.0222265
-0.197037
-0.0555616
-0.2841
-0.0906481
-0.294915
-0.126422
-0.299717
-0.163456
-0.309815
-0.202092
-0.322666
-0.242696
-0.338797
-0.285566
-0.357417
-0.331059
-0.378706
-0.401643
-0.379419
-0.0229713
-0.174065
-0.0569962
-0.250075
-0.092639
-0.259272
-0.128941
-0.263415
-0.166503
-0.272254
-0.205667
-0.283501
-0.246817
-0.297648
-0.290252
-0.313981
-0.336327
-0.332631
-0.352697
-0.385273
-0.0236304
-0.150435
-0.0582529
-0.215453
-0.0943834
-0.223141
-0.131149
-0.226649
-0.169174
-0.234228
-0.208805
-0.243871
-0.250432
-0.25602
-0.294365
-0.270049
-0.340949
-0.286047
-0.303241
-0.390405
-0.0241988
-0.126236
-0.0593313
-0.18032
-0.0958804
-0.186592
-0.133044
-0.189485
-0.171469
-0.195804
-0.2115
-0.20384
-0.253539
-0.213981
-0.297898
-0.22569
-0.344918
-0.239028
-0.253349
-0.394809
-0.0246745
-0.101562
-0.0602308
-0.144764
-0.0971292
-0.149694
-0.134626
-0.151989
-0.173384
-0.157045
-0.21375
-0.163475
-0.256133
-0.171598
-0.300846
-0.180976
-0.348226
-0.191648
-0.203098
-0.398477
-0.0250559
-0.0765056
-0.0609508
-0.108869
-0.0981291
-0.112515
-0.135892
-0.114226
-0.174919
-0.118019
-0.215552
-0.122841
-0.258211
-0.128939
-0.303208
-0.135979
-0.350873
-0.143983
-0.152563
-0.401408
-0.0253425
-0.0511631
-0.0614912
-0.0727201
-0.0988795
-0.075127
-0.136843
-0.0762619
-0.176071
-0.0787911
-0.216906
-0.0820062
-0.259771
-0.0860744
-0.30498
-0.0907701
-0.352857
-0.0961054
-0.101821
-0.4036
-0.0255337
-0.0256294
-0.0618515
-0.0364023
-0.09938
-0.0375986
-0.137477
-0.0381644
-0.176839
-0.0394291
-0.217809
-0.0410367
-0.260812
-0.0430717
-0.306161
-0.0454203
-0.354179
-0.0480877
-0.0509431
-0.405057
-0.0256294
-1.2677e-09
-0.0620318
-1.70763e-09
-0.0996303
-1.64913e-09
-0.137795
-1.54651e-09
-0.177224
-1.45601e-09
-0.218261
-1.36945e-09
-0.261332
-1.29074e-09
-0.306753
-1.21901e-09
-0.35484
-1.15371e-09
-1.08987e-09
-0.405783
-0.0256294
0.0256294
-0.0620318
0.0364023
-0.0996303
0.0375985
-0.137795
0.0381644
-0.177224
0.0394291
-0.218261
0.0410367
-0.261332
0.0430717
-0.306753
0.0454203
-0.35484
0.0480877
0.0509431
-0.405783
-0.0255337
0.0511631
-0.0618515
0.0727201
-0.09938
0.075127
-0.137477
0.0762619
-0.176839
0.0787911
-0.217809
0.0820062
-0.260812
0.0860744
-0.306161
0.0907701
-0.354179
0.0961054
0.101821
-0.405057
-0.0253425
0.0765056
-0.0614912
0.108869
-0.0988795
0.112515
-0.136843
0.114226
-0.176071
0.118019
-0.216906
0.122841
-0.259771
0.128939
-0.30498
0.135979
-0.352857
0.143983
0.152563
-0.4036
-0.0250559
0.101562
-0.0609508
0.144764
-0.0981291
0.149694
-0.135892
0.151989
-0.174919
0.157045
-0.215552
0.163475
-0.258211
0.171598
-0.303208
0.180976
-0.350873
0.191648
0.203098
-0.401408
-0.0246745
0.126236
-0.0602308
0.18032
-0.0971292
0.186592
-0.134626
0.189485
-0.173384
0.195804
-0.21375
0.20384
-0.256133
0.213981
-0.300846
0.22569
-0.348226
0.239028
0.253349
-0.398477
-0.0241988
0.150435
-0.0593313
0.215453
-0.0958804
0.223141
-0.133044
0.226649
-0.171469
0.234228
-0.2115
0.243871
-0.253539
0.25602
-0.297898
0.270049
-0.344918
0.286047
0.303241
-0.394809
-0.0236304
0.174065
-0.0582529
0.250075
-0.0943834
0.259272
-0.131149
0.263415
-0.169174
0.272254
-0.208805
0.283501
-0.250432
0.297648
-0.294365
0.313981
-0.340949
0.332631
0.352697
-0.390405
-0.0229713
0.197037
-0.0569962
0.2841
-0.092639
0.294914
-0.128941
0.299717
-0.166503
0.309815
-0.205667
0.322666
-0.246817
0.338797
-0.290252
0.357417
-0.336327
0.378706
0.401643
-0.385273
-0.0222265
0.219263
-0.0555616
0.317435
-0.0906481
0.330001
-0.126422
0.335491
-0.163456
0.34685
-0.202092
0.361301
-0.242696
0.379401
-0.285566
0.400287
-0.331059
0.424199
0.450003
-0.379419
-0.021408
0.240671
-0.0539496
0.349977
-0.0884116
0.364463
-0.123594
0.370674
-0.160039
0.383294
-0.198081
0.399343
-0.238076
0.419397
-0.280313
0.442524
-0.325151
0.469037
0.497703
-0.372852
-0.0205162
0.261187
-0.0521594
0.38162
-0.0859302
0.398234
-0.12046
0.405203
-0.156253
0.419087
-0.19364
0.43673
-0.232963
0.45872
-0.274501
0.484062
-0.318613
0.513149
0.544673
-0.365582
-0.019506
0.280693
-0.050189
0.412303
-0.0832043
0.431249
-0.117021
0.439019
-0.152103
0.454169
-0.188773
0.4734
-0.227363
0.49731
-0.268136
0.524836
-0.311451
0.556463
0.590843
-0.357621
-0.018392
0.299085
-0.0480393
0.44195
-0.0802343
0.463444
-0.113279
0.472065
-0.147592
0.488481
-0.183486
0.509295
-0.221282
0.535105
-0.261228
0.564782
-0.303676
0.598911
0.636145
-0.348979
-0.017181
0.316266
-0.0457122
0.470481
-0.0770213
0.494753
-0.109239
0.504282
-0.142725
0.521967
-0.177785
0.544355
-0.214729
0.572049
-0.253786
0.603839
-0.295298
0.640423
0.680513
-0.339666
-0.0158768
0.332143
-0.0432094
0.497814
-0.0735667
0.52511
-0.104903
0.535619
-0.137506
0.55457
-0.171676
0.578526
-0.207711
0.608084
-0.245819
0.641947
-0.286326
0.68093
0.723881
-0.329694
-0.0144823
0.346625
-0.0405323
0.523864
-0.0698723
0.55445
-0.100274
0.56602
-0.131941
0.586238
-0.165167
0.611751
-0.200239
0.643156
-0.237344
0.679052
-0.276775
0.720361
0.766176
-0.31907
-0.0130001
0.359625
-0.0376828
0.548547
-0.0659399
0.582708
-0.0953552
0.595435
-0.126036
0.616918
-0.158263
0.643979
-0.192318
0.677211
-0.228364
0.715098
-0.266639
0.758636
0.807327
-0.307789
-0.0114325
0.371058
-0.034663
0.571777
-0.0617715
0.609816
-0.0901513
0.623815
-0.119795
0.646562
-0.150974
0.675158
-0.183963
0.7102
-0.218923
0.750058
-0.255977
0.79569
0.847213
-0.295863
-0.00978157
0.380839
-0.0314753
0.593471
-0.0573693
0.63571
-0.0846659
0.651112
-0.113225
0.675121
-0.143306
0.705238
-0.175169
0.742063
-0.208986
0.783876
-0.244664
0.831367
0.885762
-0.283213
-0.00804936
0.388889
-0.0281225
0.613544
-0.0527357
0.660323
-0.0789032
0.677279
-0.106332
0.70255
-0.13527
0.734176
-0.165959
0.772752
-0.198659
0.816576
-0.233077
0.865785
0.922723
-0.270038
-0.00623721
0.395126
-0.0246075
0.631914
-0.0478736
0.683589
-0.0728679
0.702274
-0.0991227
0.728804
-0.126876
0.761929
-0.156334
0.802211
-0.187802
0.848043
-0.22137
0.899353
0.95749
-0.256137
-0.00434482
0.399471
-0.0209335
0.648503
-0.0427865
0.705442
-0.0665647
0.726052
-0.0916033
0.753843
-0.11813
0.788456
-0.146316
0.830396
-0.176454
0.878181
-0.208717
0.931616
0.991461
-0.242687
-0.00236592
0.401837
-0.0171038
0.663241
-0.037479
0.725817
-0.059999
0.748572
-0.0837811
0.777625
-0.109042
0.813717
-0.13592
0.857274
-0.164669
0.906931
-0.195588
0.962535
1.02424
-0.228364
-0.000240511
0.402077
-0.0131213
0.676122
-0.0319571
0.744653
-0.0531764
0.769791
-0.0756642
0.800113
-0.0996208
0.837674
-0.125157
0.88281
-0.152494
0.934268
-0.181973
0.992013
1.05556
-0.213297
0.00165224
0.400425
-0.00898731
0.686761
-0.0262325
0.761898
-0.0461026
0.789661
-0.0672611
0.821271
-0.0898757
0.860289
-0.114036
0.90697
-0.139936
0.960168
-0.167917
1.01999
1.08537
-0.197723
0.0036289
0.396796
-0.00468568
0.695076
-0.0203176
0.77753
-0.0387835
0.808127
-0.0585809
0.841069
-0.0798177
0.881525
-0.102564
0.929717
-0.126992
0.984596
-0.153428
1.04643
1.11362
-0.181676
0.00565768
0.391138
-0.000132504
0.700866
-0.0142224
0.79162
-0.0312238
0.825128
-0.0496334
0.859479
-0.0694578
0.90135
-0.0907555
0.951014
-0.113674
1.00751
-0.138522
1.07128
1.14024
-0.16515
0.00770226
0.383436
0.00419909
0.704369
-0.00796486
0.803784
-0.0234327
0.840596
-0.0404289
0.876475
-0.0588072
0.919728
-0.078622
0.970829
-0.0999959
1.02889
-0.123217
1.0945
1.1652
-0.148171
0.00974425
0.373692
0.00871478
0.705399
-0.00157617
0.814075
-0.0154243
0.854444
-0.0309788
0.892029
-0.0478777
0.936627
-0.0661781
0.989129
-0.0859719
1.04868
-0.107529
1.11606
1.18843
-0.130766
0.0117648
0.361927
0.0133223
0.703841
0.0051254
0.822272
-0.00721356
0.866783
-0.021294
0.90611
-0.0366818
0.952015
-0.0534383
1.00589
-0.0716186
1.06686
-0.0914751
1.13591
1.20992
-0.112956
0.013739
0.348188
0.0179815
0.699599
0.0119562
0.828297
0.00117073
0.877569
-0.0113914
0.918672
-0.0252336
0.965857
-0.0404179
1.02107
-0.0569544
1.0834
-0.0750726
1.15403
1.22961
-0.0947649
0.0156368
0.332551
0.0226575
0.692578
0.0188869
0.832068
0.00984207
0.886614
-0.00132552
0.929839
-0.0135515
0.978083
-0.027133
1.03465
-0.0420006
1.09827
-0.05834
1.17037
1.24748
-0.0762119
0.0174246
0.315127
0.0273129
0.68269
0.0259069
0.833474
0.0186503
0.89387
0.00911376
0.939376
-0.00168078
0.988877
-0.0136006
1.04657
-0.0267821
1.11145
-0.0412931
1.18488
1.26351
-0.0573258
0.019066
0.296061
0.0319055
0.66985
0.0329885
0.832391
0.0276051
0.899254
0.0197016
0.947279
0.0105075
0.998071
0.000126837
1.05695
-0.0113328
1.12291
-0.0239507
1.1975
1.27769
-0.0381266
0.020521
0.27554
0.0363871
0.653984
0.0400957
0.828682
0.0366858
0.902664
0.0304465
0.953519
0.0228689
1.00565
0.0141969
1.06562
0.00436656
1.13274
-0.00631072
1.20818
1.29004
-0.0186591
0.0217469
0.253793
0.0407032
0.635028
0.047185
0.822201
0.0458662
0.903982
0.0413424
0.958043
0.0353974
1.01159
0.028417
1.0726
0.0204102
1.14075
0.0114513
1.21714
1.30042
0.00106473
0.0227003
0.231092
0.0447937
0.612935
0.0542035
0.812791
0.0551154
0.90307
0.0523711
0.960787
0.0480834
1.01588
0.0428075
1.07788
0.0365917
1.14696
0.0294558
1.22427
1.30861
0.0212703
0.0233404
0.207752
0.0485928
0.587682
0.0610936
0.80029
0.0643971
0.899767
0.0635098
0.961674
0.0609095
1.01848
0.0573503
1.08144
0.0529351
1.15138
0.0476953
1.22951
1.31475
0.0415509
0.0236336
0.184118
0.0520302
0.559285
0.0678045
0.784516
0.0736679
0.893904
0.074732
0.96061
0.0738558
1.01936
0.0720266
1.08327
0.069427
1.15398
0.0661057
1.23283
1.31889
0.0619714
0.0235586
0.16056
0.0550323
0.527812
0.0742568
0.765291
0.0828732
0.885287
0.0860055
0.957478
0.0869
1.01846
0.0868165
1.08335
0.0860418
1.15475
0.084643
1.23423
1.32102
0.0825057
0.0231097
0.13745
0.0575271
0.493394
0.0803603
0.742458
0.0919471
0.8737
0.0972907
0.952134
0.100017
1.01574
0.101698
1.08167
0.102754
1.1537
0.103289
1.2337
1.32118
0.103137
0.0222987
0.115151
0.0594498
0.456243
0.0860106
0.715897
0.10081
0.858901
0.108538
0.944406
0.113175
1.0111
0.116648
1.0782
0.119539
1.1508
0.122022
1.23121
1.3193
0.123899
0.0211539
0.0939976
0.0606215
0.416776
0.0910896
0.685429
0.109369
0.840622
0.119687
0.934088
0.12634
1.00445
0.131641
1.0729
0.136376
1.14607
0.140815
1.22677
1.31537
0.144741
0.0197185
0.0742791
0.0609543
0.37554
0.0954712
0.650912
0.117505
0.818588
0.130658
0.920935
0.139465
0.99564
0.146648
1.06571
0.153238
1.13948
0.159639
1.22037
1.30939
0.165621
0.0180428
0.0562363
0.0603898
0.333193
0.099017
0.612285
0.125081
0.792524
0.141354
0.904662
0.152495
0.984499
0.161634
1.05657
0.170099
1.13101
0.178465
1.21201
1.30135
0.186503
0.0161796
0.0400567
0.0588879
0.290485
0.101575
0.569598
0.131933
0.762166
0.151655
0.88494
0.165357
0.970797
0.176556
1.04538
0.186928
1.12064
0.197265
1.20167
1.29126
0.207355
0.0141872
0.0258695
0.0564476
0.248224
0.102983
0.523062
0.137874
0.727276
0.161414
0.8614
0.177958
0.954253
0.191363
1.03197
0.203688
1.10832
0.216008
1.18935
1.27913
0.228145
0.0121364
0.013733
0.0531234
0.207237
0.103078
0.473107
0.142689
0.687664
0.170447
0.833642
0.190177
0.934523
0.205984
1.01616
0.220338
1.09396
0.234663
1.17503
1.26495
0.24884
0.0101146
0.00361843
0.0490327
0.168319
0.101706
0.420434
0.146143
0.643228
0.178537
0.801248
0.201855
0.911206
0.220326
0.997693
0.236826
1.07746
0.253193
1.15866
1.24873
0.269407
0.00821713
-0.0045987
0.0443464
0.13219
0.0987412
0.366039
0.147977
0.593992
0.185414
0.763811
0.212789
0.883831
0.234266
0.976215
0.253084
1.05865
0.271556
1.14019
1.23048
0.289811
0.00652489
-0.0111236
0.0392672
0.0994475
0.0941113
0.311195
0.147922
0.540181
0.190758
0.720975
0.222717
0.851872
0.247634
0.951298
0.269016
1.03726
0.289697
1.11951
1.21016
0.310014
0.00508295
-0.0162065
0.0340115
0.070519
0.0878413
0.257365
0.145714
0.482308
0.194201
0.672489
0.231312
0.814761
0.260201
0.922409
0.284485
1.01298
0.307541
1.09645
1.18773
0.329977
0.00389217
-0.0200987
0.028802
0.0456091
0.0801046
0.206062
0.141123
0.421289
0.195332
0.61828
0.238166
0.771927
0.27166
0.888916
0.299304
0.985336
0.324983
1.07077
1.16308
0.349629
0.00292148
-0.0230202
0.0238573
0.0246733
0.0712565
0.158663
0.134006
0.35854
0.193719
0.558568
0.242793
0.722853
0.281607
0.850102
0.313201
0.953742
0.341878
1.04209
1.13604
0.368922
0.00213061
-0.0251508
0.0193629
0.00744107
0.0617951
0.116231
0.124384
0.29595
0.188953
0.493999
0.244626
0.66718
0.289519
0.805209
0.325812
0.917449
0.35798
1.00993
1.10631
0.387706
0.0014865
-0.0266373
0.0154391
-0.00651154
0.052268
0.0794021
0.11254
0.235678
0.180715
0.425824
0.243046
0.604848
0.294734
0.753521
0.336619
0.875564
0.373012
0.973532
1.07351
0.405814
0.000967517
-0.0276048
0.0121254
-0.0176694
0.0431874
0.0483401
0.099065
0.179801
0.168879
0.35601
0.237429
0.536299
0.296456
0.694494
0.344956
0.827064
0.386358
0.932131
1.03672
0.423149
0.000559682
-0.0281645
0.00939251
-0.0265023
0.0349613
0.0227713
0.0848029
0.129959
0.153664
0.287149
0.227266
0.462697
0.293738
0.628022
0.349989
0.770813
0.39749
0.884629
0.995633
0.438574
0.00025165
-0.0284161
0.00717392
-0.0334245
0.0278324
0.00211283
0.0706913
0.0871001
0.13576
0.22208
0.212291
0.386167
0.285689
0.554624
0.350544
0.705958
0.405264
0.82991
0.947274
0.453622
3.30773e-05
-0.0284492
0.00539232
-0.0387838
0.0218595
-0.0143543
0.0575556
0.0514039
0.116329
0.163306
0.192773
0.309723
0.271436
0.47596
0.345942
0.631452
0.407377
0.768475
0.891533
0.463118
-0.0001337
-0.0283155
0.00396995
-0.0428874
0.0169593
-0.0273437
0.0459444
0.0224189
0.0967908
0.112459
0.169674
0.23684
0.250785
0.394849
0.333998
0.548239
0.406008
0.696465
0.834979
0.462562
-0.000243176
-0.0280723
0.00283211
-0.0459627
0.012974
-0.0374855
0.0360699
-0.000677048
0.078466
0.0700634
0.144608
0.170698
0.224439
0.315018
0.313557
0.459122
0.397607
0.612414
0.770064
0.462522
-0.000316504
-0.0277558
0.00190809
-0.0481873
0.00972276
-0.0453002
0.0278648
-0.0188191
0.0622506
0.0356775
0.119443
0.113506
0.194089
0.240372
0.284615
0.368595
0.379142
0.517887
0.694693
0.454514
-0.000374091
-0.0273817
0.00113108
-0.0496925
0.0070283
-0.0511974
0.0210917
-0.0328825
0.0484611
0.00830807
0.095722
0.0662448
0.162208
0.173886
0.248682
0.282121
0.349526
0.417043
0.608293
0.435925
-0.000432938
-0.0269488
0.000440807
-0.0505662
0.00472953
-0.0554861
0.0154421
-0.043595
0.0369138
-0.0131637
0.074363
0.0287956
0.131376
0.116873
0.208676
0.204821
0.309417
0.316302
0.512214
0.405496
-0.00050564
-0.0264432
-0.000214492
-0.0508574
0.00268935
-0.05839
0.0106072
-0.0515128
0.0271693
-0.0297258
0.0557555
0.000209393
0.103343
0.0692856
0.168128
0.140036
0.261912
0.222518
0.410535
0.363591
-0.00060303
-0.0258401
-0.000877
-0.0505834
0.000803779
-0.0600708
0.00632577
-0.0570348
0.0187731
-0.0421732
0.0399201
-0.0209376
0.0786512
0.0305544
0.13026
0.0884277
0.211928
0.14085
0.31008
0.312383
-0.000734644
-0.0251055
-0.00156537
-0.0497527
-0.00102453
-0.0606116
0.0024015
-0.0604608
0.0113808
-0.0511525
0.0265543
-0.036111
0.0570882
2.05382e-05
0.0972008
0.0483151
0.16413
0.0739208
0.218612
0.255598
-0.000900192
-0.0242053
-0.00229265
-0.0483602
-0.00283745
-0.0600668
-0.00125975
-0.0620385
0.00475424
-0.0571665
0.0151464
-0.0465032
0.038283
-0.023116
0.0693734
0.0172247
0.12104
0.0222546
0.14193
0.197721
-0.00109724
-0.0231081
-0.00305911
-0.0463984
-0.00463713
-0.0584888
-0.00467658