/*--------------------------------*- C++ -*----------------------------------*\
  =========                 |
  \\      /  F ield         | OpenFOAM: The Open Source CFD Toolbox
   \\    /   O peration     | Website:  https://openfoam.org
    \\  /    A nd           | Version:  9
     \\/     M anipulation  |
\*---------------------------------------------------------------------------*/
FoamFile
{
    format      ascii;
    class       volVectorField;
    location    "24";
    object      U;
}
// * * * * * * * * * * * * * * * * * * * * * * * * * * * * * * * * * * * * * //

dimensions      [0 1 -1 0 0 0 0];

internalField   nonuniform List<vector> 
8500
(
(-0.00652626 0.0026075 0)
(-0.02929 0.00449468 -6.83622e-23)
(-0.0615081 0.00496107 -3.75866e-24)
(-0.0894944 0.00480018 7.11957e-37)
(-0.117113 0.00448911 -1.04714e-23)
(-0.137757 0.00389303 8.71902e-24)
(-0.161961 0.00385374 -5.90009e-23)
(-0.17313 0.00255523 -9.14468e-23)
(-0.193868 0.00361358 -8.35714e-23)
(-0.201473 0.00135541 -4.34096e-24)
(-0.00682037 0.00776973 1.97497e-22)
(-0.0295443 0.0134088 6.38706e-23)
(-0.0613772 0.0148073 2.56311e-22)
(-0.088798 0.0143292 0)
(-0.115823 0.0133972 0)
(-0.135469 0.0116171 1.75567e-23)
(-0.159081 0.0114912 4.43419e-23)
(-0.168481 0.00760089 9.76051e-23)
(-0.188653 0.0107973 6.29017e-23)
(-0.193938 0.00391967 1.73726e-23)
(-0.0074003 0.0127759 -1.75508e-22)
(-0.0300493 0.0220991 0)
(-0.0611204 0.0244268 -2.41206e-22)
(-0.0874149 0.0236446 0)
(-0.113257 0.0220932 -4.1944e-23)
(-0.130902 0.0191573 3.49247e-23)
(-0.153334 0.0189117 0)
(-0.159159 0.0124617 0)
(-0.178251 0.0178571 0)
(-0.178938 0.00606185 0)
(-0.00825012 0.0175289 3.52772e-22)
(-0.0307977 0.030422 -2.56453e-22)
(-0.0607471 0.0336708 -6.04797e-23)
(-0.0853642 0.0326047 -3.77036e-22)
(-0.10944 0.0304304 -3.78407e-22)
(-0.124083 0.0263966 3.52132e-23)
(-0.144741 0.0259479 -2.94012e-23)
(-0.145104 0.017043 3.40202e-22)
(-0.162681 0.0247291 5.66543e-27)
(-0.156527 0.00756494 3.43131e-22)
(-0.00934733 0.0219417 -3.52772e-22)
(-0.0317792 0.0382427 -3.31393e-22)
(-0.0602701 0.0423948 9.09765e-23)
(-0.0826728 0.0410687 5.03161e-22)
(-0.104401 0.0382553 -4.27625e-23)
(-0.115047 0.0332247 5.5993e-22)
(-0.133315 0.0323979 0)
(-0.126205 0.0212817 -3.89608e-22)
(-0.141893 0.0313698 -8.30348e-23)
(-0.126579 0.00833358 -4.77014e-22)
(-0.0106645 0.0259407 8.89054e-23)
(-0.0329799 0.0454376 5.51176e-22)
(-0.0597029 0.0504587 -4.25941e-22)
(-0.0793735 0.0488988 -3.00825e-25)
(-0.0981672 0.0454077 -3.81431e-22)
(-0.103842 0.0395402 1.41412e-22)
(-0.119042 0.0380131 -5.90625e-23)
(-0.102294 0.0251448 4.8727e-22)
(-0.11572 0.0377242 -8.31791e-23)
(-0.0885126 0.0085159 2.73155e-22)
(-0.0121714 0.0294684 4.45377e-23)
(-0.0343829 0.0518975 0)
(-0.0590563 0.0577285 -1.57401e-24)
(-0.0755002 0.0559613 0)
(-0.0907443 0.0517234 6.76554e-22)
(-0.0905161 0.0452519 -5.60421e-22)
(-0.101845 0.0424924 0)
(-0.0731419 0.0286371 -1.14339e-24)
(-0.0838557 0.0435723 0)
(-0.040979 0.0087371 0)
(-0.0138367 0.0324851 -7.18006e-22)
(-0.035968 0.0575295 -7.4156e-23)
(-0.0583336 0.0640791 5.4948e-22)
(-0.0710801 0.0621267 1.01834e-22)
(-0.0821028 0.0570403 -6.80427e-22)
(-0.0751005 0.0502845 -4.19756e-22)
(-0.0815169 0.0454747 -5.93518e-23)
(-0.0384792 0.0318531 4.83742e-22)
(-0.0458629 0.0481739 -8.34827e-23)
(0.0184316 0.0100624 6.9136e-23)
(-0.0156307 0.0349695 8.08295e-22)
(-0.0377112 0.062259 -5.96041e-22)
(-0.0575247 0.0693977 -1.84135e-22)
(-0.0661224 0.0672705 1.01583e-22)
(-0.0721497 0.0612061 6.80352e-22)
(-0.057578 0.0545938 6.32522e-22)
(-0.0575931 0.0465492 -5.94826e-23)
(0.00206486 0.0349695 9.6811e-23)
(-0.00156017 0.0507476 -1.67348e-22)
(0.0937714 0.0129903 7.04068e-23)
(-0.0175265 0.0369191 7.26029e-22)
(-0.0395828 0.0660302 5.96362e-22)
(-0.0565992 0.0735871 -8.63936e-22)
(-0.0606011 0.0712731 -1.01893e-22)
(-0.0606903 0.0640793 0)
(-0.0378412 0.0581844 0)
(-0.029289 0.0455214 0)
(0.0495549 0.0380154 -1.53391e-21)
(0.0487777 0.0504236 -6.99375e-22)
(0.188745 0.0180836 5.36761e-22)
(-0.0195023 0.0383485 -1.45635e-21)
(-0.0415446 0.0688076 0)
(-0.0554969 0.0765703 1.97773e-21)
(-0.0544372 0.0740239 8.18102e-22)
(-0.0473824 0.0655336 8.51363e-23)
(-0.0154913 0.0609893 0)
(0.00439496 0.042614 -9.71707e-22)
(0.105332 0.041355 7.65562e-22)
(0.106897 0.0458566 6.99365e-22)
(0.304953 0.0258369 -5.36741e-22)
(-0.0215411 0.0392869 8.21993e-22)
(-0.0435461 0.070575 -7.52504e-23)
(-0.0541165 0.0782943 -9.90608e-22)
(-0.0474744 0.0754293 -9.20839e-22)
(-0.0317928 0.0655704 0)
(0.0103633 0.0627474 1.12664e-21)
(0.0451906 0.0383249 5.67916e-25)
(0.170205 0.0457886 6.60952e-22)
(0.178189 0.0373377 7.849e-22)
(0.44075 0.0353464 -5.32476e-22)
(-0.0236312 0.0397752 4.42039e-26)
(-0.045519 0.0713349 1.28954e-21)
(-0.0522992 0.0787327 -1.24604e-22)
(-0.0393903 0.0753975 7.18787e-22)
(-0.0133982 0.0642871 4.29398e-22)
(0.0409406 0.0632376 2.86009e-22)
(0.0959105 0.0335119 9.69342e-22)
(0.244603 0.0511406 -8.59017e-22)
(0.270991 0.0288815 -5.34145e-22)
(0.58995 0.0454008 3.91976e-22)
(-0.0257647 0.0398619 0)
(-0.0473702 0.0711062 -1.06211e-21)
(-0.0498297 0.077893 -1.25101e-22)
(-0.0296678 0.0738654 1.61899e-24)
(0.00863637 0.0617652 6.85109e-22)
(0.0777684 0.0623669 -9.84967e-22)
(0.159719 0.0297935 9.63822e-22)
(0.329132 0.0559056 -9.82524e-23)
(0.391706 0.0264134 0)
(0.742148 0.0560048 0)
(-0.0279361 0.0395996 9.33135e-23)
(-0.0489716 0.0699236 -1.2255e-21)
(-0.0464143 0.0758247 0)
(-0.0176083 0.0708776 -1.01574e-22)
(0.035526 0.0581548 8.55367e-23)
(0.122984 0.0600203 0)
(0.238978 0.0292096 -9.65695e-22)
(0.425321 0.0589865 -7.60302e-22)
(0.537857 0.0332173 1.65486e-22)
(0.885148 0.0679115 -1.39072e-22)
(-0.0301365 0.0390359 -9.3756e-23)
(-0.0501553 0.0678399 1.30245e-21)
(-0.0416386 0.0725992 0)
(-0.00230281 0.0665964 -9.27845e-22)
(0.0688422 0.0537892 8.55783e-23)
(0.17928 0.0565344 -1.12828e-21)
(0.334183 0.0330774 -1.16891e-22)
(0.535048 0.0617517 8.5812e-22)
(0.696295 0.047911 0)
(1.00845 0.0808683 1.05919e-21)
(-0.0323452 0.0382089 -1.42541e-21)
(-0.0507098 0.0649208 -7.74336e-23)
(-0.0349468 0.068311 -1.2555e-22)
(0.0174247 0.0612861 1.03849e-22)
(0.110559 0.0492602 -1.36634e-21)
(0.249506 0.0531774 1.12826e-21)
(0.443505 0.0413929 9.49632e-22)
(0.657072 0.067259 7.60153e-22)
(0.849149 0.0667278 1.31298e-21)
(1.10598 0.0934884 -9.26692e-22)
(-0.0345262 0.0371469 1.51975e-21)
(-0.0503665 0.0612331 0)
(-0.025643 0.0630955 1.14015e-21)
(0.0430291 0.0553004 -1.04127e-22)
(0.162933 0.0453937 2.7318e-21)
(0.335659 0.05198 0)
(0.563015 0.0534439 -9.49612e-22)
(0.784227 0.0770858 -1.90487e-24)
(0.981843 0.0864078 -1.47184e-21)
(1.1767 0.104338 1.33532e-22)
(-0.0366245 0.0358661 0)
(-0.0487952 0.0568448 1.25241e-21)
(-0.0128867 0.0571283 -1.01426e-21)
(0.0762076 0.0491096 0)
(0.228123 0.0432539 -1.36546e-21)
(0.437278 0.054968 0)
(0.686748 0.068487 9.34399e-22)
(0.905737 0.0902593 -7.58218e-22)
(1.08709 0.105033 -1.25706e-21)
(1.22356 0.112439 -1.01406e-21)
(-0.038559 0.0343675 -1.92749e-22)
(-0.0456041 0.0518271 -1.09419e-21)
(0.00431291 0.0506258 0)
(0.118814 0.0433735 0)
(0.307461 0.0440878 0)
(0.550436 0.063099 -1.39574e-22)
(0.807273 0.0855385 -9.36488e-22)
(1.01238 0.104944 -9.57707e-23)
(1.16429 0.121462 1.25705e-21)
(1.25197 0.117071 1.14073e-21)
(-0.0402204 0.0326418 0)
(-0.0403386 0.0462541 -1.26993e-21)
(0.0270984 0.0438576 0)
(0.172651 0.0390415 0)
(0.400459 0.0490284 0)
(0.668281 0.0758689 1.38674e-22)
(0.917555 0.103246 -1.14436e-21)
(1.09937 0.119793 8.89697e-23)
(1.21718 0.134491 8.97541e-22)
(1.26881 0.117622 9.80336e-22)
(-0.0414846 0.0306846 0)
(-0.0324684 0.0401869 1.26993e-21)
(0.0567586 0.0371913 -1.03531e-21)
(0.239032 0.0373691 0)
(0.504068 0.0585623 -1.36307e-21)
(0.783086 0.0917815 0)
(1.01287 0.120425 9.15256e-22)
(1.16602 0.133749 -7.30993e-22)
(1.25144 0.143046 -1.20104e-21)
(1.2932 0.128188 -9.75405e-22)
(-0.0422104 0.0284812 1.6151e-21)
(-0.0213945 0.0336764 0)
(0.0946807 0.0311898 9.06979e-22)
(0.318102 0.0396593 1.06139e-22)
(0.61294 0.0721962 2.72604e-21)
(0.888523 0.109166 0)
(1.09133 0.136375 -8.93563e-22)
(1.21446 0.145784 -1.45024e-21)
(1.27583 0.151199 -1.00703e-21)
(1.30222 0.134241 -5.33791e-24)
(-0.0422246 0.026004 -1.71543e-21)
(-0.00644271 0.0267881 8.23577e-23)
(0.142182 0.0267224 1.29013e-22)
(0.408198 0.0467223 -1.06709e-22)
(0.720876 0.088713 -1.36298e-21)
(0.980799 0.126726 1.09867e-21)
(1.15328 0.150694 8.93559e-22)
(1.24882 0.156385 7.19253e-22)
(1.2899 0.157612 1.14969e-21)
(1.30531 0.140023 -1.01581e-21)
(-0.0413365 0.0232249 1.01663e-22)
(0.0131663 0.019631 1.23785e-21)
(0.200174 0.0249723 0)
(0.505769 0.0584329 -7.42066e-22)
(0.822529 0.106773 -8.64487e-23)
(1.0585 0.143641 -1.09866e-21)
(1.2006 0.163437 1.0711e-22)
(1.27174 0.165505 6.02865e-22)
(1.2975 0.1633 0)
(1.30521 0.145049 9.04088e-22)
(-0.0393381 0.0201154 -1.04861e-22)
(0.0383174 0.0124411 -1.32129e-21)
(0.268704 0.0271749 0)
(0.60612 0.073833 9.96648e-23)
(0.914356 0.125331 -8.66731e-23)
(1.12192 0.159516 0)
(1.23547 0.174727 -8.55947e-22)
(1.2862 0.173503 -6.9252e-22)
(1.30033 0.168298 -1.32395e-22)
(1.3019 0.149605 -1.1137e-22)
(-0.0359916 0.0166468 0)
(0.0699355 0.00570965 -1.52259e-21)
(0.346602 0.0341288 1.36536e-22)
(0.704582 0.0916849 -5.21932e-24)
(0.99463 0.143727 -6.7977e-22)
(1.17227 0.17421 -1.2028e-21)
(1.26022 0.184782 9.65411e-22)
(1.29432 0.180607 0)
(1.29983 0.172882 0)
(1.29752 0.153947 0)
(-0.0310018 0.0127992 2.29621e-24)
(0.108831 0.000286314 1.27658e-21)
(0.431491 0.0458281 1.3823e-22)
(0.797455 0.110946 9.61114e-22)
(1.06297 0.161596 5.92652e-22)
(1.2112 0.18774 -1.17509e-22)
(1.27694 0.193826 8.33505e-22)
(1.29786 0.187066 -5.6279e-22)
(1.29718 0.1772 -6.32507e-22)
(1.29196 0.158143 5.08186e-22)
(-0.0239901 0.00858381 7.9239e-22)
(0.155471 -0.00265319 8.91485e-23)
(0.520214 0.0615417 -1.10445e-21)
(0.882351 0.130906 -8.65896e-22)
(1.11984 0.178763 0)
(1.24044 0.200205 1.05988e-21)
(1.2874 0.202079 -1.5893e-23)
(1.2981 0.193078 7.24956e-22)
(1.293 0.181369 4.42305e-22)
(1.28591 0.162285 -4.02788e-22)
(-0.0144893 0.00408065 -1.82375e-21)
(0.209747 -0.00185179 0)
(0.609462 0.0802471 2.22516e-21)
(0.958067 0.151129 7.60721e-22)
(1.16615 0.195164 8.72958e-23)
(1.26164 0.211746 0)
(1.29309 0.209744 -8.10915e-22)
(1.296 0.198798 6.14903e-22)
(1.28784 0.185473 4.77943e-22)
(1.27942 0.166415 -3.76935e-22)
(-0.00197176 -0.000518837 9.2275e-22)
(0.270865 0.00364654 7.19704e-22)
(0.696307 0.101036 -1.2574e-21)
(1.02425 0.171377 1.13057e-22)
(1.20304 0.210808 0)
(1.27629 0.222517 0)
(1.29514 0.216992 0)
(1.29223 0.204343 -1.21258e-21)
(1.28195 0.189565 -4.77947e-22)
(1.27266 0.17055 3.76918e-22)
(0.014081 -0.0048684 8.54242e-22)
(0.337422 0.0142012 -7.13958e-22)
(0.778469 0.123263 7.32704e-23)
(1.08108 0.191537 0)
(1.23169 0.225745 6.60328e-22)
(1.28565 0.232671 4.38561e-22)
(1.29447 0.223966 5.03825e-23)
(1.28725 0.209795 -5.29605e-23)
(1.27556 0.193678 1.145e-22)
(1.26566 0.1747 -4.62967e-23)
(0.0340501 -0.00843947 -9.69593e-22)
(0.407636 0.0295508 9.03108e-23)
(0.854362 0.146501 5.80375e-22)
(1.12903 0.211545 -1.6192e-22)
(1.25324 0.240043 -4.95314e-22)
(1.29076 0.242348 -6.23205e-22)
(1.29172 0.230772 4.9293e-23)
(1.28137 0.215204 2.99212e-22)
(1.26876 0.197827 0)
(1.25843 0.178859 -4.12665e-23)
(0.0581023 -0.0105711 -6.28157e-23)
(0.479613 0.0490325 0)
(0.923027 0.170451 6.14369e-24)
(1.16874 0.231347 0)
(1.26876 0.253781 6.43877e-22)
(1.29247 0.251668 -4.78256e-22)
(1.28738 0.237488 0)
(1.2748 0.220603 9.72363e-24)
(1.26161 0.202016 0)
(1.25098 0.183016 0)
(0.0861749 -0.0105722 -1.25553e-22)
(0.551542 0.0718816 8.20179e-22)
(0.984016 0.194895 -6.6158e-22)
(1.20091 0.250887 1.09509e-22)
(1.27917 0.267037 -2.94187e-22)
(1.29146 0.260729 -5.11788e-23)
(1.2818 0.244161 0)
(1.26765 0.226003 2.07241e-22)
(1.25414 0.206239 5.33597e-23)
(1.2433 0.187152 1.52997e-22)
(0.117969 -0.00784351 -5.28686e-22)
(0.621811 0.0974244 -3.311e-22)
(1.03726 0.219672 -1.08977e-22)
(1.22625 0.270104 4.37371e-22)
(1.28526 0.279884 3.61547e-23)
(1.28826 0.269605 4.6644e-22)
(1.27521 0.250819 0)
(1.26001 0.231401 -2.50062e-22)
(1.24636 0.210483 4.65259e-23)
(1.23537 0.19125 -3.37341e-22)
(0.152984 -0.00198685 -5.28685e-22)
(0.689036 0.125127 3.4422e-22)
(1.08295 0.244658 -4.12226e-24)
(1.24544 0.288941 -5.09172e-22)
(1.28772 0.292382 -2.69079e-22)
(1.28327 0.278349 -2.63545e-23)
(1.26777 0.257468 2.20049e-23)
(1.2519 0.236787 2.79198e-22)
(1.23827 0.21473 -2.33496e-24)
(1.22718 0.195283 1.09755e-22)
(0.190577 0.00714479 -2.72302e-22)
(0.752072 0.15456 0)
(1.12143 0.269748 -2.97371e-22)
(1.25914 0.307348 0)
(1.28709 0.304576 -3.38883e-22)
(1.27679 0.286991 2.92421e-23)
(1.2596 0.2641 0)
(1.24335 0.242138 0)
(1.22985 0.218957 0)
(1.21872 0.199224 0)
(0.230007 0.0194711 2.38832e-22)
(0.810011 0.185345 1.15491e-22)
(1.15317 0.294833 2.97372e-22)
(1.26796 0.32529 0)
(1.28382 0.316495 0)
(1.26903 0.295541 -1.21952e-23)
(1.25074 0.270694 4.69371e-23)
(1.23436 0.247429 5.37671e-23)
(1.22111 0.223136 4.98566e-23)
(1.21 0.203043 -8.2639e-24)
(0.270487 0.0347623 -4.31991e-24)
(0.862209 0.217116 -1.08085e-22)
(1.1786 0.319796 4.95292e-24)
(1.27245 0.342747 5.86416e-24)
(1.27828 0.328154 -8.96621e-24)
(1.26015 0.303992 3.41267e-24)
(1.24125 0.277221 -4.09594e-23)
(1.22493 0.252628 -5.02485e-23)
(1.21202 0.227236 -3.77287e-23)
(1.20103 0.206706 1.52738e-24)
(0.311219 0.0527214 0)
(0.908334 0.249528 -1.08975e-22)
(1.19813 0.344517 -3.37106e-24)
(1.27309 0.359705 6.87034e-24)
(1.27076 0.339549 1.23139e-37)
(1.25025 0.312318 -8.6599e-38)
(1.23114 0.28364 -3.67844e-23)
(1.21506 0.2577 -4.39146e-23)
(1.20259 0.231212 -3.46839e-23)
(1.19183 0.210179 0)
(0.351422 0.0730327 3.12971e-22)
(0.948288 0.282291 8.93515e-23)
(1.21213 0.368882 2.96559e-22)
(1.2703 0.376137 -1.34103e-23)
(1.26147 0.350661 0)
(1.23942 0.320484 1.04476e-23)
(1.22043 0.289909 2.41018e-23)
(1.20473 0.262607 4.72293e-23)
(1.19281 0.235019 2.68395e-23)
(1.1824 0.213439 6.59327e-24)
(0.390354 0.0953966 -2.78922e-22)
(0.982072 0.315144 0)
(1.221 0.392767 -2.80348e-22)
(1.26442 0.392007 0)
(1.2506 0.361458 -2.84099e-23)
(1.22771 0.328438 2.36558e-23)
(1.20912 0.29598 0)
(1.19394 0.267308 0)
(1.18267 0.238614 0)
(1.17269 0.216467 0)
(0.42733 0.119535 5.52966e-22)
(1.00977 0.347847 -3.55093e-22)
(1.2251 0.416049 -6.823e-23)
(1.25576 0.40727 -2.8004e-22)
(1.23828 0.37189 -2.60195e-22)
(1.21514 0.336126 1.81725e-23)
(1.1972 0.3018 -1.51732e-23)
(1.18268 0.271757 1.27284e-22)
(1.17223 0.241969 2.12879e-24)
(1.16264 0.219236 9.44172e-23)
(0.461736 0.145182 -5.52967e-22)
(1.03153 0.380174 -4.2887e-22)
(1.22479 0.438604 9.50952e-23)
(1.24459 0.421876 3.34864e-22)
(1.22464 0.381897 -1.59498e-23)
(1.20175 0.343485 2.80033e-22)
(1.18468 0.307317 0)
(1.17096 0.275895 -1.45103e-22)
(1.1615 0.245073 -2.26233e-23)
(1.15221 0.221761 -1.1931e-22)
(0.493041 0.172066 1.31666e-22)
(1.04752 0.411908 7.32817e-22)
(1.22037 0.4603 -4.27834e-22)
(1.23114 0.435766 -8.11557e-23)
(1.20975 0.391414 -1.94755e-22)
(1.18755 0.350446 4.20407e-23)
(1.17156 0.312473 -2.52529e-23)
(1.15879 0.27966 1.40916e-22)
(1.15051 0.247911 -2.34868e-23)
(1.14148 0.224068 6.40707e-23)
(0.520806 0.199896 6.66645e-23)
(1.05795 0.442834 0)
(1.21215 0.481007 2.66682e-23)
(1.21562 0.448871 0)
(1.19367 0.400364 3.89866e-22)
(1.17258 0.356941 -2.53696e-22)
(1.15787 0.317207 0)
(1.14626 0.283008 -1.68469e-23)
(1.13915 0.250421 0)
(1.13055 0.225993 0)
(0.544684 0.228361 -1.0241e-21)
(1.06305 0.472737 -7.93087e-23)
(1.2004 0.50059 5.2185e-22)
(1.19817 0.461115 5.98496e-23)
(1.17646 0.40866 -4.03355e-22)
(1.15689 0.362893 -1.42515e-22)
(1.14366 0.321458 -1.96395e-23)
(1.13336 0.285913 8.12395e-23)
(1.12741 0.252562 -1.66615e-23)
(1.11945 0.227559 9.05275e-24)
(0.564422 0.257126 1.13998e-21)
(1.06304 0.501394 -6.86744e-22)
(1.18538 0.518912 -1.51244e-22)
(1.17895 0.472413 7.41396e-23)
(1.15821 0.416213 3.16497e-22)
(1.14055 0.368225 2.16945e-22)
(1.12894 0.32517 -1.66551e-23)
(1.12008 0.288343 -2.00522e-23)
(1.11533 0.254289 -2.2871e-23)
(1.10817 0.228708 8.21356e-24)
(0.579852 0.285838 9.44778e-22)
(1.05816 0.528583 6.66415e-22)
(1.16731 0.535824 -6.361e-22)
(1.15813 0.482674 -6.72776e-23)
(1.13907 0.42295 0)
(1.12354 0.372851 0)
(1.1137 0.328286 0)
(1.10645 0.290256 -2.0699e-22)
(1.10295 0.25557 -4.82896e-23)
(1.09674 0.229419 2.09185e-23)
(0.590892 0.314138 -1.83916e-21)
(1.04867 0.554083 0)
(1.1464 0.551161 1.35791e-21)
(1.1359 0.491799 3.55983e-22)
(1.11908 0.428791 0)
(1.10585 0.376699 0)
(1.098 0.330739 -1.02632e-22)
(1.09249 0.291611 8.52039e-23)
(1.09029 0.256369 4.829e-23)
(1.08518 0.229655 -2.09177e-23)
(0.597541 0.341662 9.91346e-22)
(1.03486 0.577694 -7.95932e-23)
(1.12289 0.564752 -6.4047e-22)
(1.11241 0.499671 -3.89548e-22)
(1.09824 0.433655 2.78592e-23)
(1.08755 0.379703 1.36415e-22)
(1.08187 0.332474 5.09202e-23)
(1.07822 0.292368 7.33683e-24)
(1.0774 0.256653 -8.17291e-24)
(1.07352 0.229389 2.38409e-23)
(0.599868 0.368043 -1.17097e-23)
(1.01707 0.599228 9.67345e-22)
(1.09706 0.576481 -8.4634e-23)
(1.08768 0.506127 2.04929e-22)
(1.07662 0.437466 9.70282e-23)
(1.06869 0.381795 -4.19586e-23)
(1.06537 0.333432 4.55959e-23)
(1.06369 0.292487 -1.04341e-23)
(1.0643 0.256388 -1.82634e-23)
(1.0618 0.228594 -1.69402e-23)
(0.598014 0.392915 0)
(0.995568 0.618457 -8.49106e-22)
(1.06917 0.586256 -7.29979e-23)
(1.0618 0.511038 -6.68025e-23)
(1.05431 0.440118 -9.87501e-23)
(1.04934 0.382912 -6.62406e-23)
(1.04854 0.333564 -5.86827e-23)
(1.04893 0.291932 0)
(1.05103 0.255538 0)
(1.05005 0.227233 0)
(0.592181 0.415954 8.27221e-23)
(0.970456 0.635037 -6.85421e-22)
(1.03956 0.594026 0)
(1.03495 0.514327 -7.96186e-23)
(1.0314 0.441523 8.63808e-24)
(1.02958 0.382993 0)
(1.03146 0.332822 5.33483e-23)
(1.03399 0.290668 1.08524e-22)
(1.03763 0.254068 -2.24905e-23)
(1.0383 0.225261 1.88907e-23)
(0.582591 0.436942 -6.051e-23)
(0.941959 0.648673 7.35095e-22)
(1.0085 0.599648 0)
(1.00726 0.515956 -9.72253e-23)
(1.00796 0.441596 1.79693e-24)
(1.00947 0.381981 1.53104e-22)
(1.01417 0.331166 1.79188e-23)
(1.0189 0.288665 -1.23522e-22)
(1.02411 0.251944 0)
(1.02662 0.22264 -2.2704e-22)
(0.569457 0.455656 -8.38057e-22)
(0.910555 0.659246 -4.06895e-23)
(0.976151 0.602913 -8.11542e-24)
(0.978876 0.515855 6.71288e-24)
(0.984107 0.440264 2.064e-22)
(0.989103 0.379824 -1.53105e-22)
(0.996738 0.328559 -2.16271e-22)
(1.00372 0.28589 -1.89168e-22)
(1.01053 0.249137 -3.22366e-22)
(1.01512 0.219361 1.98736e-22)
(0.552901 0.471742 8.8763e-22)
(0.876806 0.666743 0)
(0.942736 0.603694 -2.41712e-23)
(0.949947 0.513957 3.27235e-24)
(0.959935 0.437466 -5.18392e-22)
(0.968558 0.376476 0)
(0.97923 0.324969 2.16272e-22)
(0.988458 0.282306 -4.06027e-23)
(0.996982 0.245621 3.66072e-22)
(1.00408 0.215464 -3.6703e-23)
(0.533141 0.484782 0)
(0.841094 0.67101 1.01716e-22)
(0.908457 0.601925 2.02153e-23)
(0.920626 0.510196 0)
(0.93556 0.433152 3.11993e-22)
(0.947927 0.371898 0)
(0.9617 0.320371 -3.26254e-22)
(0.973181 0.277874 2.29774e-22)
(0.983649 0.241355 4.41589e-22)
(0.993818 0.211015 3.47668e-22)
(0.510658 0.494608 -2.71623e-23)
(0.803764 0.67191 -7.94205e-23)
(0.873547 0.597548 0)
(0.891071 0.504508 0)
(0.911099 0.42728 0)
(0.927301 0.36606 5.26231e-23)
(0.944209 0.314746 2.38492e-22)
(0.957977 0.272567 3.66828e-23)
(0.970719 0.236281 -4.41592e-22)
(0.984205 0.205964 -3.90405e-22)
(0.485872 0.501049 0)
(0.765161 0.669328 2.10634e-22)
(0.838242 0.590519 0)
(0.861443 0.496845 0)
(0.886673 0.419819 0)
(0.906772 0.35894 -6.14927e-23)
(0.92683 0.308077 5.36979e-22)
(0.942968 0.26639 -1.22728e-22)
(0.958271 0.230411 -4.2351e-22)
(0.974583 0.198814 -4.27308e-22)
(0.459193 0.503973 0)
(0.725644 0.663186 -2.10635e-22)
(0.802787 0.580811 4.5365e-22)
(0.831908 0.48717 0)
(0.862409 0.410749 7.3741e-22)
(0.886437 0.350522 0)
(0.909654 0.300352 -4.35393e-22)
(0.928267 0.259356 3.88615e-22)
(0.946057 0.224203 5.54426e-22)
(0.963677 0.193648 4.25952e-22)
(0.431031 0.503285 -3.92861e-22)
(0.685577 0.653435 0)
(0.767424 0.568415 -3.87094e-22)
(0.802635 0.475462 -5.50555e-23)
(0.838432 0.400059 -1.57912e-21)
(0.866394 0.340799 0)
(0.892772 0.291556 5.41515e-22)
(0.91394 0.251389 3.76749e-23)
(0.934196 0.216939 5.86647e-22)
(0.953198 0.187031 2.42804e-24)
(0.401797 0.498934 4.31295e-22)
(0.645325 0.640059 -3.15481e-23)
(0.732397 0.553338 -7.89965e-23)
(0.773795 0.461714 -6.53441e-23)
(0.814873 0.387753 8.41707e-22)
(0.846744 0.329773 -7.52331e-22)
(0.876266 0.281707 -5.41519e-22)
(0.899991 0.242587 -4.26294e-22)
(0.922527 0.2091 -6.62903e-22)
(0.942702 0.180191 6.1476e-22)
(0.371895 0.490905 -5.14909e-23)
(0.60525 0.623071 -7.95189e-22)
(0.697946 0.535606 0)
(0.745559 0.445936 5.69897e-22)
(0.79186 0.373841 6.27615e-23)
(0.827591 0.317455 7.52335e-22)
(0.860227 0.270805 -7.46879e-23)
(0.886492 0.2329 -4.35791e-22)
(0.911199 0.200477 0)
(0.932508 0.172657 -5.48454e-22)
(0.341721 0.479224 5.97227e-23)
(0.565709 0.602514 8.37459e-22)
(0.664306 0.515265 0)
(0.718098 0.428155 -1.39897e-23)
(0.769524 0.358348 6.95493e-23)
(0.809038 0.303867 0)
(0.844731 0.258878 6.90293e-22)
(0.873477 0.222382 4.98307e-22)
(0.900229 0.191205 9.48411e-23)
(0.922664 0.164586 -7.96638e-23)
(0.311663 0.463952 0)
(0.527049 0.578461 1.2708e-21)
(0.631708 0.492377 -1.12512e-22)
(0.69158 0.408412 6.72571e-23)
(0.747992 0.341311 6.16568e-22)
(0.791187 0.289038 1.0661e-21)
(0.829858 0.245947 -7.83273e-22)
(0.861007 0.211039 0)
(0.889689 0.181261 0)
(0.913255 0.155937 0)
(0.282094 0.445187 2.42074e-24)
(0.489606 0.551011 -1.05439e-21)
(0.600373 0.467025 1.26044e-22)
(0.666167 0.386763 -8.81836e-22)
(0.72739 0.322776 -5.34173e-22)
(0.774136 0.273009 1.80423e-22)
(0.815684 0.232049 -7.87713e-22)
(0.849137 0.198909 5.1965e-22)
(0.87963 0.170685 5.59839e-22)
(0.904335 0.146742 -4.36128e-22)
(0.253373 0.423067 -7.42993e-22)
(0.4537 0.520288 -8.27112e-23)
(0.570516 0.439305 1.16112e-21)
(0.642019 0.363282 9.07745e-22)
(0.70784 0.302802 0)
(0.757982 0.255826 -1.01648e-21)
(0.802281 0.217222 -4.09756e-23)
(0.837922 0.186025 -6.6881e-22)
(0.870107 0.159498 -3.92548e-22)
(0.89595 0.137024 3.47038e-22)
(0.225839 0.397772 1.7813e-21)
(0.41963 0.48643 0)
(0.542344 0.409333 -2.4067e-21)
(0.619288 0.338054 -7.94496e-22)
(0.68946 0.281458 -9.40087e-23)
(0.742817 0.237549 0)
(0.789721 0.201516 8.20584e-22)
(0.827419 0.172427 -6.52015e-22)
(0.861171 0.147731 -4.94593e-22)
(0.888139 0.126811 3.77325e-22)
(0.199807 0.369525 -9.37546e-22)
(0.387671 0.449596 -8.25716e-22)
(0.516055 0.377234 1.40128e-21)
(0.598119 0.311179 -1.28786e-22)
(0.672363 0.258824 0)
(0.728729 0.218242 0)
(0.77807 0.184982 0)
(0.817678 0.158158 1.32905e-21)
(0.852871 0.135418 4.94594e-22)
(0.880937 0.116139 -3.77325e-22)
(0.175548 0.338544 -9.73568e-22)
(0.358092 0.409997 8.22637e-22)
(0.491841 0.343152 8.66016e-23)
(0.578648 0.282773 0)
(0.656653 0.23499 -8.11184e-22)
(0.715799 0.197979 -5.40749e-22)
(0.76739 0.16768 -6.0034e-23)
(0.808751 0.143268 1.04926e-22)
(0.845253 0.122597 -1.31213e-22)
(0.874374 0.105045 5.23315e-23)
(0.153298 0.305035 1.10537e-21)
(0.331145 0.367886 -1.10936e-22)
(0.469878 0.307252 -9.0758e-22)
(0.561003 0.252963 2.01826e-22)
(0.64243 0.210056 6.03966e-22)
(0.704103 0.176841 7.69303e-22)
(0.757741 0.149676 -6.2134e-23)
(0.800684 0.127809 -3.39698e-22)
(0.83836 0.109311 0)
(0.868479 0.0935706 4.91343e-23)
(0.133284 0.269226 7.57738e-23)
(0.307059 0.323526 0)
(0.450318 0.269712 -2.84745e-23)
(0.5453 0.221887 0)
(0.629781 0.18413 -8.67062e-22)
(0.693711 0.154913 6.51307e-22)
(0.749175 0.13104 0)
(0.793521 0.111837 8.96914e-24)
(0.832232 0.0956055 0)
(0.863273 0.0817598 0)
(0.115716 0.231375 1.57119e-22)
(0.286033 0.277189 -1.07107e-21)
(0.433296 0.230727 8.51149e-22)
(0.531642 0.189694 -1.46253e-22)
(0.618786 0.157327 3.75412e-22)
(0.684684 0.132289 1.02738e-22)
(0.74174 0.111846 0)
(0.7873 0.0954123 -2.80194e-22)
(0.826905 0.0815312 -7.45625e-23)
(0.858776 0.0696586 -2.15457e-22)
(0.10078 0.191763 6.71927e-22)
(0.268241 0.229153 -1.58852e-21)
(0.41893 0.190502 1.46358e-22)
(0.52012 0.15654 -6.11188e-22)
(0.609515 0.12977 -6.85791e-23)
(0.677076 0.109068 -6.66804e-22)
(0.735477 0.0921737 0)
(0.782059 0.0786004 3.8311e-22)
(0.822412 0.0671408 -6.83776e-23)
(0.855006 0.0573137 4.91635e-22)
(0.0886367 0.15069 -6.71927e-22)
(0.25383 0.17971 5.82694e-22)
(0.407317 0.149248 -1.01127e-22)
(0.510809 0.122591 7.16994e-22)
(0.602026 0.101589 3.93567e-22)
(0.670933 0.0853513 4.07736e-23)
(0.730422 0.0721061 -3.40438e-23)
(0.777826 0.0614686 -4.29043e-22)
(0.818782 0.0524904 3.86233e-24)
(0.851974 0.044772 -1.6332e-22)
(0.0794142 0.108467 3.51549e-22)
(0.242916 0.129162 0)
(0.398538 0.107188 4.15345e-22)
(0.503771 0.0880156 0)
(0.596367 0.0729177 5.52412e-23)
(0.666293 0.0612456 -4.59968e-23)
(0.726605 0.0517279 0)
(0.774629 0.0440863 0)
(0.816037 0.0376376 0)
(0.849692 0.0320812 0)
(0.073211 0.0654137 -3.07968e-22)
(0.235591 0.077817 -1.18559e-22)
(0.392651 0.064546 -4.15345e-22)
(0.499053 0.0529904 0)
(0.592575 0.0438927 0)
(0.663184 0.0368599 2.08031e-23)
(0.724048 0.0311264 -8.29963e-23)
(0.772486 0.026524 -9.84536e-23)
(0.814196 0.0226403 -9.17994e-23)
(0.848166 0.0192879 1.48117e-23)
(0.0700928 0.0218603 -5.57509e-24)
(0.231913 0.0259925 1.27896e-22)
(0.389698 0.0215543 -5.72233e-24)
(0.496686 0.0176937 1.97361e-23)
(0.590672 0.0146546 -7.77636e-24)
(0.661624 0.0123054 0)
(0.722765 0.0103905 6.56268e-23)
(0.771411 0.00885339 9.84537e-23)
(0.813272 0.00755636 6.97412e-23)
(0.847401 0.00643569 1.04118e-23)
(0.0700928 -0.0218603 -5.57509e-24)
(0.231913 -0.0259925 1.27896e-22)
(0.389698 -0.0215543 -5.72233e-24)
(0.496686 -0.0176937 1.97361e-23)
(0.590672 -0.0146546 -7.77636e-24)
(0.661624 -0.0123054 0)
(0.722765 -0.0103905 5.7811e-23)
(0.771411 -0.00885339 1.04995e-22)
(0.813272 -0.00755636 7.4165e-23)
(0.847401 -0.00643568 0)
(0.073211 -0.0654137 -3.95131e-22)
(0.235591 -0.077817 -1.53768e-22)
(0.392651 -0.064546 -4.40282e-22)
(0.499053 -0.0529904 2.06271e-23)
(0.592575 -0.0438927 0)
(0.663184 -0.0368599 -2.08031e-23)
(0.724048 -0.0311264 -4.82573e-23)
(0.772486 -0.026524 -9.84536e-23)
(0.814196 -0.0226403 -5.65305e-23)
(0.848166 -0.0192879 -1.48117e-23)
(0.0794142 -0.108467 3.51549e-22)
(0.242916 -0.129162 0)
(0.398538 -0.107187 4.15345e-22)
(0.503771 -0.0880156 0)
(0.596367 -0.0729177 5.52412e-23)
(0.666293 -0.0612456 -4.59968e-23)
(0.726605 -0.0517279 0)
(0.774629 -0.0440863 0)
(0.816037 -0.0376376 0)
(0.849692 -0.0320812 0)
(0.0886367 -0.15069 -6.71927e-22)
(0.25383 -0.17971 4.55115e-22)
(0.407317 -0.149248 1.01127e-22)
(0.510809 -0.122591 4.90975e-22)
(0.602026 -0.101589 5.14482e-22)
(0.670933 -0.0853513 -4.07736e-23)
(0.730422 -0.0721061 3.40438e-23)
(0.777826 -0.0614686 -3.37178e-22)
(0.818782 -0.0524904 -3.86233e-24)
(0.851974 -0.044772 -2.74171e-22)
(0.10078 -0.191763 6.71927e-22)
(0.268241 -0.229153 5.50712e-22)
(0.41893 -0.190502 -1.46358e-22)
(0.52012 -0.15654 -5.9678e-22)
(0.609515 -0.12977 5.0025e-23)
(0.677076 -0.109068 -6.66804e-22)
(0.735477 -0.0921737 0)
(0.782059 -0.0786004 3.8311e-22)
(0.822412 -0.0671408 6.83776e-23)
(0.855006 -0.0573137 3.7677e-22)
(0.115716 -0.231375 -1.57119e-22)
(0.286033 -0.277189 1.07107e-21)
(0.433296 -0.230727 6.661e-22)
(0.531642 -0.189694 1.46253e-22)
(0.618786 -0.157327 4.69223e-22)
(0.684684 -0.132289 -1.5034e-22)
(0.74174 -0.111846 6.56199e-23)
(0.7873 -0.0954123 -4.57973e-22)
(0.826905 -0.0815312 7.45625e-23)
(0.858776 -0.0696586 -2.15457e-22)
(0.133284 -0.269226 -7.57738e-23)
(0.307059 -0.323526 0)
(0.450318 -0.269712 -2.84745e-23)
(0.5453 -0.221887 0)
(0.629781 -0.18413 -8.67062e-22)
(0.693711 -0.154913 6.51307e-22)
(0.749175 -0.13104 0)
(0.793521 -0.111837 8.96914e-24)
(0.832232 -0.0956055 0)
(0.863273 -0.0817598 0)
(0.153298 -0.305035 1.10537e-21)
(0.331145 -0.367886 1.10936e-22)
(0.469878 -0.307252 -6.38745e-22)
(0.561003 -0.252963 -1.30661e-22)
(0.64243 -0.210056 1.01841e-21)
(0.704103 -0.176841 4.56002e-22)
(0.757741 -0.149676 6.2134e-23)
(0.800684 -0.127809 -4.24382e-22)
(0.83836 -0.109311 7.10348e-23)
(0.868479 -0.0935706 -4.91342e-23)
(0.175548 -0.338544 -1.23717e-21)
(0.358092 -0.409997 8.28799e-22)
(0.491841 -0.343152 7.76737e-23)
(0.578648 -0.282773 -1.35885e-22)
(0.656653 -0.23499 -8.11184e-22)
(0.715799 -0.197979 -6.84552e-22)
(0.76739 -0.16768 6.0034e-23)
(0.808751 -0.143268 -5.93734e-23)
(0.845253 -0.122597 1.31213e-22)
(0.874374 -0.105045 -5.23315e-23)
(0.199807 -0.369525 -9.37546e-22)
(0.387671 -0.449596 -8.25716e-22)
(0.516055 -0.377234 1.08989e-21)
(0.598119 -0.311179 1.28786e-22)
(0.672363 -0.258824 0)
(0.728729 -0.218242 0)
(0.77807 -0.184982 0)
(0.817678 -0.158158 1.32905e-21)
(0.852871 -0.135418 4.94594e-22)
(0.880937 -0.116139 -3.77325e-22)
(0.225839 -0.397772 1.7813e-21)
(0.41963 -0.48643 0)
(0.542344 -0.409333 -2.4067e-21)
(0.619288 -0.338054 -9.07749e-22)
(0.68946 -0.281458 0)
(0.742817 -0.237549 0)
(0.789721 -0.201516 8.20584e-22)
(0.827419 -0.172427 -6.52015e-22)
(0.861171 -0.147731 -4.94593e-22)
(0.888139 -0.126811 3.77325e-22)
(0.253373 -0.423067 -9.44516e-22)
(0.4537 -0.520288 8.27112e-23)
(0.570516 -0.439305 1.16112e-21)
(0.642019 -0.363282 1.01421e-21)
(0.70784 -0.302802 -8.83771e-23)
(0.757982 -0.255826 -1.01648e-21)
(0.802281 -0.217222 -4.09756e-23)
(0.837922 -0.186025 -5.22821e-22)
(0.870107 -0.159498 -5.15007e-22)
(0.89595 -0.137024 3.47038e-22)
(0.282094 -0.445187 -2.42074e-24)
(0.489606 -0.551011 -1.21409e-21)
(0.600373 -0.467025 -1.26044e-22)
(0.666167 -0.386763 -6.83306e-22)
(0.72739 -0.322776 -5.44685e-22)
(0.774136 -0.273009 -1.8544e-22)
(0.815684 -0.232049 -7.71491e-22)
(0.849137 -0.198909 6.71977e-22)
(0.87963 -0.170685 3.47712e-22)
(0.904335 -0.146742 -2.57949e-22)
(0.311663 -0.463952 0)
(0.527049 -0.578461 9.97677e-22)
(0.631708 -0.492377 1.12512e-22)
(0.69158 -0.408412 6.72571e-23)
(0.747992 -0.341311 6.16567e-22)
(0.791187 -0.289038 8.43386e-22)
(0.829858 -0.245947 -6.83126e-22)
(0.861007 -0.211039 7.18197e-23)
(0.889689 -0.181261 0)
(0.913255 -0.155937 0)
(0.341721 -0.479224 -5.97227e-23)
(0.565709 -0.602514 8.37459e-22)
(0.664306 -0.515265 0)
(0.718098 -0.428155 1.53583e-22)
(0.769524 -0.358348 -6.95493e-23)
(0.809038 -0.303867 0)
(0.844731 -0.258878 6.90293e-22)
(0.873477 -0.222382 4.98307e-22)
(0.900229 -0.191205 -9.4841e-23)
(0.922664 -0.164586 7.96638e-23)
(0.371895 -0.490905 5.14909e-23)
(0.60525 -0.623071 -8.79722e-22)