/*--------------------------------*- C++ -*----------------------------------*\
  =========                 |
  \\      /  F ield         | OpenFOAM: The Open Source CFD Toolbox
   \\    /   O peration     | Website:  https://openfoam.org
    \\  /    A nd           | Version:  7
     \\/     M anipulation  |
\*---------------------------------------------------------------------------*/
FoamFile
{
    version     2.0;
    format      ascii;
    class       volVectorField;
    location    "0.7";
    object      U;
}
// * * * * * * * * * * * * * * * * * * * * * * * * * * * * * * * * * * * * * //

dimensions      [0 1 -1 0 0 0 0];

internalField   nonuniform List<vector> 
252
(
(3 2.88664e-17 0)
(3 -2.25125e-16 0)
(3 -6.06384e-16 0)
(1.36401 0.0668369 0)
(0.567073 0.065006 0)
(0.311041 0.17309 0)
(3 1.5313e-16 0)
(3 -2.38482e-16 0)
(3 -1.34291e-15 0)
(1.56882 0.283652 0)
(0.552718 0.331165 0)
(0.297256 0.595109 0)
(3 -2.49378e-17 0)
(3 -1.11032e-16 0)
(3 -1.76259e-16 0)
(2.13917 0.399509 0)
(0.84519 0.682731 0)
(0.757804 0.900748 0)
(3 -1.91777e-17 0)
(3 4.63126e-16 0)
(3 8.24654e-16 0)
(3.00782 0.137022 0)
(1.45355 0.835759 0)
(1.13031 0.939281 0)
(3 7.14661e-17 0)
(3 1.97877e-16 0)
(3 1.18356e-16 0)
(3.01841 0.00576868 0)
(2.47836 0.580675 0)
(1.49103 0.97566 0)
(3 -2.29974e-17 0)
(3 1.73072e-16 0)
(3 -5.32798e-16 0)
(3.00014 8.30324e-05 0)
(3.04238 0.075488 0)
(2.03737 0.783139 0)
(3 -5.72672e-17 0)
(3 3.29911e-17 0)
(3 -7.09588e-16 0)
(3 5.12565e-08 0)
(3.00304 0.00243458 0)
(2.78781 0.284288 0)
(3 6.98038e-17 0)
(3 -2.19214e-16 0)
(3 -9.19205e-16 0)
(3 5.16061e-12 0)
(3.00001 7.26557e-06 0)
(2.99554 0.0189555 0)
(3 9.29185e-18 0)
(3 -3.04297e-16 0)
(3 -6.97665e-16 0)
(3 3.26339e-16 0)
(3 2.05495e-09 0)
(2.99998 0.000189025 0)
(3 -7.41113e-17 0)
(3 -2.79919e-16 0)
(3 -7.87585e-16 0)
(3 -8.15379e-16 0)
(3 1.02976e-13 0)
(3 2.02192e-07 0)
(1.68306 0.86233 0)
(2.29207 0.90539 0)
(2.47897 0.760976 0)
(2.62845 0.480042 0)
(2.76238 0.224854 0)
(2.91321 0.0337832 0)
(2.97669 -0.0935373 0)
(2.98903 -0.123489 0)
(2.93722 -0.11946 0)
(2.87642 -0.147689 0)
(2.86972 -0.161383 0)
(2.89584 -0.157916 0)
(2.9253 -0.142374 0)
(2.93813 -0.123201 0)
(2.93361 -0.107817 0)
(2.93261 -0.0970626 0)
(2.94968 -0.0809636 0)
(2.96206 -0.0558429 0)
(2.96713 -0.0342779 0)
(2.98084 -0.0219479 0)
(3.00999 -0.0092898 0)
(3.03169 -0.00121979 0)
(3.03394 0.000329031 0)
(3.03372 0.000605536 0)
(1.80343 0.706212 0)
(2.23346 0.411117 0)
(2.4755 0.160328 0)
(2.64825 0.00343206 0)
(2.77517 -0.13624 0)
(2.86354 -0.259504 0)
(2.94925 -0.293278 0)
(3.03957 -0.239537 0)
(2.9884 -0.183437 0)
(2.95854 -0.162214 0)
(2.94177 -0.150744 0)
(2.93702 -0.13484 0)
(2.93037 -0.115398 0)
(2.91363 -0.0880439 0)
(2.8955 -0.0588322 0)
(2.89475 -0.0449415 0)
(2.91714 -0.0626609 0)
(2.94375 -0.0866623 0)
(2.9756 -0.0828319 0)
(3.01373 -0.0509373 0)
(3.03897 -0.020042 0)
(3.04482 -0.00713126 0)
(3.04413 -0.00389097 0)
(3.03924 0.000450081 0)
(1.74094 0.931627 0)
(2.04712 0.751976 0)
(2.33969 0.48392 0)
(2.50269 0.401069 0)
(2.61336 0.312561 0)
(2.71154 0.129775 0)
(2.79098 0.0530304 0)
(2.86081 0.0867917 0)
(2.94718 0.0124097 0)
(2.95865 -0.0780104 0)
(2.99173 -0.131284 0)
(3.0105 -0.163918 0)
(3.01006 -0.160847 0)
(2.99913 -0.13425 0)
(2.98723 -0.113114 0)
(2.98147 -0.103075 0)
(2.98378 -0.0865253 0)
(2.99527 -0.0609362 0)
(3.02373 -0.0362707 0)
(3.06086 -0.0153904 0)
(3.06889 -0.00254857 0)
(3.06346 0.000814367 0)
(3.05685 0.00698382 0)
(3.04201 0.00926956 0)
(1.93197 0.970478 0)
(2.02018 0.933783 0)
(2.23312 0.782108 0)
(2.4276 0.607937 0)
(2.58395 0.441652 0)
(2.71898 0.209341 0)
(2.80042 0.110179 0)
(2.85576 0.0968432 0)
(2.95955 -0.0298503 0)
(2.99665 -0.194775 0)
(3.02468 -0.286998 0)
(3.05979 -0.33008 0)
(3.07915 -0.340508 0)
(3.09177 -0.320182 0)
(3.10063 -0.290496 0)
(3.1001 -0.247542 0)
(3.09179 -0.186076 0)
(3.09808 -0.109616 0)
(3.11444 -0.0290474 0)
(3.10647 0.0119052 0)
(3.09229 0.019013 0)
(3.08126 0.0260735 0)
(3.06506 0.0286759 0)
(3.03686 0.0156566 0)
(2.29761 0.743803 0)
(2.2274 0.922368 0)
(2.2579 0.919636 0)
(2.36431 0.839456 0)
(2.4994 0.709538 0)
(2.64818 0.532105 0)
(2.75989 0.390788 0)
(2.83789 0.347013 0)
(2.92292 0.253287 0)
(2.98015 0.124427 0)
(3.00207 0.0853809 0)
(3.0226 0.0723989 0)
(3.05957 0.0555581 0)
(3.09754 0.0477762 0)
(3.12532 0.0362213 0)
(3.14028 0.0254694 0)
(3.1472 0.0344452 0)
(3.15012 0.0582373 0)
(3.14061 0.0714409 0)
(3.12875 0.071967 0)
(3.1155 0.0680917 0)
(3.0825 0.0560175 0)
(3.04388 0.0346708 0)
(3.01333 0.00769747 0)
(2.81615 0.280223 0)
(2.53724 0.630688 0)
(2.42035 0.839958 0)
(2.45731 0.847196 0)
(2.52554 0.824745 0)
(2.62253 0.749361 0)
(2.7132 0.670245 0)
(2.79057 0.612842 0)
(2.88066 0.476012 0)
(2.96022 0.3504 0)
(2.99463 0.313351 0)
(3.04405 0.282245 0)
(3.09292 0.259798 0)
(3.1343 0.241678 0)
(3.16358 0.216576 0)
(3.17531 0.191088 0)
(3.17086 0.172783 0)
(3.16417 0.160588 0)
(3.14649 0.134838 0)
(3.12277 0.107441 0)
(3.09099 0.0813421 0)
(3.05144 0.0477123 0)
(3.015 0.0133495 0)
(3.00127 0.000756414 0)
(2.99326 0.0201607 0)
(2.89942 0.184843 0)
(2.69549 0.512049 0)
(2.6173 0.67065 0)
(2.69652 0.725212 0)
(2.72012 0.712836 0)
(2.73808 0.685941 0)
(2.77778 0.63962 0)
(2.85666 0.549267 0)
(2.92911 0.483572 0)
(2.97964 0.418805 0)
(3.02518 0.37326 0)
(3.0798 0.333109 0)
(3.12114 0.296077 0)
(3.14724 0.260161 0)
(3.15699 0.226974 0)
(3.1546 0.198291 0)
(3.14527 0.170639 0)
(3.12359 0.141587 0)
(3.08885 0.105858 0)
(3.04844 0.0576258 0)
(3.01402 0.0152694 0)
(3.00105 0.000989126 0)
(3.00001 6.51378e-06 0)
(2.99995 0.000170732 0)
(2.99587 0.00832775 0)
(2.93832 0.0856041 0)
(2.82426 0.233091 0)
(2.74423 0.355774 0)
(2.70785 0.37669 0)
(2.72002 0.371953 0)
(2.77173 0.381947 0)
(2.85885 0.361646 0)
(2.94018 0.310911 0)
(2.97192 0.297952 0)
(3.02522 0.283035 0)
(3.08265 0.257845 0)
(3.12682 0.226204 0)
(3.15192 0.19315 0)
(3.15818 0.161934 0)
(3.14738 0.13365 0)
(3.1199 0.106971 0)
(3.08188 0.0745057 0)
(3.03972 0.0359973 0)
(3.00905 0.00831198 0)
(3.00053 0.000505102 0)
(3 3.66997e-06 0)
(3 -9.13486e-09 0)
)
;

boundaryField
{
    inlet
    {
        type            fixedValue;
        value           uniform (3 0 0);
    }
    outlet
    {
        type            inletOutlet;
        inletValue      uniform (3 0 0);
        value           nonuniform List<vector> 8((3.03372 0.000605536 0) (3.03924 0.000450081 0) (3.04201 0.00926956 0) (3.03686 0.0156566 0) (3.01333 0.00769747 0) (3.00127 0.000756414 0) (3.00001 6.51378e-06 0) (3 -9.13486e-09 0));
    }
    bottom
    {
        type            symmetryPlane;
    }
    top
    {
        type            symmetryPlane;
    }
    obstacle
    {
        type            slip;
    }
    defaultFaces
    {
        type            empty;
    }
}


// ************************************************************************* //
