/*--------------------------------*- C++ -*----------------------------------*\
  =========                 |
  \\      /  F ield         | OpenFOAM: The Open Source CFD Toolbox
   \\    /   O peration     | Website:  https://openfoam.org
    \\  /    A nd           | Version:  7
     \\/     M anipulation  |
\*---------------------------------------------------------------------------*/
FoamFile
{
    version     2.0;
    format      ascii;
    class       surfaceScalarField;
    location    "1.1";
    object      phi;
}
// * * * * * * * * * * * * * * * * * * * * * * * * * * * * * * * * * * * * * //

dimensions      [0 3 -1 0 0 0 0];

internalField   nonuniform List<scalar> 
21785
(
-1.07529e-13
1.08556e-13
-5.77552e-13
8.17333e-14
-9.35047e-13
5.75323e-15
-1.16004e-12
-1.07529e-13
-1.2249e-12
-2.59888e-13
-1.08272e-12
-4.57163e-13
-6.73983e-13
-7.17786e-13
-7.52187e-13
-1.03909e-12
-4.5954e-13
-1.14697e-12
4.53445e-13
-1.22041e-12
1.44767e-12
-1.31454e-12
2.58623e-12
-1.43312e-12
3.89283e-12
-1.57342e-12
5.3926e-12
-1.73731e-12
7.10356e-12
-1.94022e-12
8.42307e-12
-2.18222e-12
9.78446e-12
-2.25528e-12
1.1686e-11
-2.17366e-12
1.36665e-11
-2.11554e-12
1.57638e-11
-2.16186e-12
1.79061e-11
-2.2785e-12
2.00426e-11
-2.38734e-12
2.21836e-11
-2.45528e-12
2.43832e-11
-2.50127e-12
2.62085e-11
-2.54529e-12
2.82469e-11
-2.45498e-12
3.04886e-11
-2.38536e-12
3.26523e-11
-2.3271e-12
3.47569e-11
-2.26968e-12
3.68127e-11
-2.20613e-12
3.88195e-11
-2.13671e-12
4.07758e-11
-2.06649e-12
4.25702e-11
-1.99473e-12
4.4304e-11
-1.88537e-12
4.60315e-11
-1.7714e-12
4.76525e-11
-1.65307e-12
4.91669e-11
-1.52865e-12
5.05693e-11
-1.39567e-12
5.18454e-11
-1.24905e-12
5.29692e-11
-1.07981e-12
5.42403e-11
-8.88965e-13
5.52671e-11
-7.74783e-13
5.60262e-11
-6.58693e-13
5.66866e-11
-5.22948e-13
-3.67575e-13
5.72181e-11
-4.11461e-13
1.31738e-13
-1.1872e-12
1.61497e-13
-1.78415e-12
-4.26751e-14
-2.08931e-12
-4.32688e-13
-2.0257e-12
-9.51426e-13
-1.52959e-12
-1.57217e-12
-5.8056e-13
-2.27222e-12
1.75446e-13
-2.99142e-12
1.45419e-12
-3.65338e-12
3.84768e-12
-4.21267e-12
6.6459e-12
-4.75193e-12
9.87427e-12
-5.28642e-12
1.35329e-11
-5.81115e-12
1.7615e-11
-6.32257e-12
2.2066e-11
-6.83314e-12
2.63489e-11
-7.33551e-12
3.07901e-11
-7.91161e-12
3.59901e-11
-8.07942e-12
4.14051e-11
-8.13952e-12
4.71188e-11
-8.27128e-12
5.30503e-11
-8.49867e-12
5.90759e-11
-8.73123e-12
6.51324e-11
-8.90583e-12
7.12089e-11
-9.00744e-12
7.69262e-11
-9.02639e-12
8.27403e-11
-8.92102e-12
8.88798e-11
-8.79438e-12
9.49343e-11
-8.64022e-12
1.00879e-10
-8.45849e-12
1.06694e-10
-8.24332e-12
1.12358e-10
-7.99465e-12
1.17849e-10
-7.71583e-12
1.23054e-10
-7.40424e-12
1.28023e-10
-7.04724e-12
1.32869e-10
-6.6591e-12
1.3745e-10
-6.24301e-12
1.41746e-10
-5.79938e-12
1.4574e-10
-5.32624e-12
1.49416e-10
-4.82078e-12
1.52765e-10
-4.28366e-12
1.56038e-10
-3.73667e-12
1.58892e-10
-3.20917e-12
1.61172e-10
-2.6825e-12
1.63095e-10
-2.13222e-12
-1.54975e-12
1.64638e-10
-5.34024e-13
3.18684e-13
-1.37731e-12
3.71694e-13
-1.92835e-12
-7.11209e-14
-2.05302e-12
-8.7948e-13
-1.63462e-12
-1.94253e-12
-6.01705e-13
-3.17879e-12
1.08174e-12
-4.52417e-12
2.78806e-12
-5.91857e-12
5.3052e-12
-7.32081e-12
9.18026e-12
-8.6242e-12
1.37263e-11
-9.87729e-12
1.89474e-11
-1.10692e-11
2.48215e-11
-1.21832e-11
3.12935e-11
-1.32154e-11
3.82992e-11
-1.42032e-11
4.51849e-11
-1.5204e-11
5.28362e-11
-1.64981e-11
6.11687e-11
-1.71416e-11
6.97327e-11
-1.74966e-11
7.86915e-11
-1.78023e-11
8.80409e-11
-1.81815e-11
9.76184e-11
-1.85582e-11
1.07292e-10
-1.88614e-11
1.16994e-10
-1.90483e-11
1.26358e-10
-1.90962e-11
1.35719e-10
-1.89757e-11
1.45437e-10
-1.87765e-11
1.5506e-10
-1.84975e-11
1.64536e-10
-1.81442e-11
1.73815e-10
-1.77143e-11
1.82855e-10
-1.72075e-11
1.91616e-10
-1.66253e-11
1.99979e-10
-1.59677e-11
2.07966e-10
-1.5228e-11
2.15696e-10
-1.44273e-11
2.23015e-10
-1.35665e-11
2.2989e-10
-1.26468e-11
2.36294e-10
-1.1669e-11
2.42205e-10
-1.06348e-11
2.47604e-10
-9.55126e-12
2.52725e-10
-8.43598e-12
2.57231e-10
-7.30665e-12
2.60942e-10
-6.15645e-12
2.64065e-10
-4.96782e-12
-3.73674e-12
2.66584e-10
-5.26567e-13
5.15098e-13
-1.27282e-12
5.05397e-13
-1.59356e-12
-3.1288e-13
-1.32384e-12
-1.6943e-12
-3.45537e-13
-3.46669e-12
1.41552e-12
-5.50033e-12
4.01004e-12
-7.69284e-12
6.77721e-12
-9.96653e-12
1.06564e-11
-1.22837e-11
1.60745e-11
-1.45265e-11
2.23868e-11
-1.67075e-11
2.95844e-11
-1.87665e-11
3.76206e-11
-2.06661e-11
4.63672e-11
-2.24054e-11
5.5763e-11
-2.40505e-11
6.48774e-11
-2.57101e-11
7.58122e-11
-2.78012e-11
8.7217e-11
-2.91001e-11
9.87904e-11
-2.99406e-11
1.10745e-10
-3.05379e-11
1.23228e-10
-3.11576e-11
1.36071e-10
-3.17106e-11
1.49103e-10
-3.21449e-11
1.62202e-10
-3.24225e-11
1.74989e-10
-3.25161e-11
1.87682e-10
-3.24067e-11
2.00742e-10
-3.21153e-11
2.1368e-10
-3.16747e-11
2.26436e-10
-3.10972e-11
2.38936e-10
-3.03871e-11
2.51119e-10
-2.95457e-11
2.6293e-10
-2.85728e-11
2.74242e-10
-2.74691e-11
2.85043e-10
-2.62328e-11
2.95465e-10
-2.48892e-11
3.05337e-10
-2.3443e-11
3.14621e-10
-2.1898e-11
3.23277e-10
-2.02589e-11
3.31273e-10
-1.85322e-11
3.3858e-10
-1.67279e-11
3.45427e-10
-1.48608e-11
3.51472e-10
-1.29447e-11
3.56525e-10
-1.0978e-11
3.60787e-10
-8.94872e-12
-6.86473e-12
3.64238e-10
-4.63467e-13
6.50505e-13
-9.96803e-13
4.28574e-13
-9.2545e-13
-9.40873e-13
-8.8553e-14
-3.06569e-12
1.62533e-12
-5.71326e-12
4.2841e-12
-8.71797e-12
7.9386e-12
-1.19406e-11
1.18989e-11
-1.52729e-11
1.72233e-11
-1.86449e-11
2.42472e-11
-2.19715e-11
3.23739e-11
-2.52629e-11
4.15747e-11
-2.84032e-11
5.17625e-11
-3.1336e-11
6.27108e-11
-3.40501e-11
7.43679e-11
-3.65794e-11
8.54278e-11
-3.89893e-11
9.96406e-11
-4.15126e-11
1.14076e-10
-4.35332e-11
1.28636e-10
-4.50627e-11
1.43397e-10
-4.61537e-11
1.58817e-10
-4.72042e-11
1.74702e-10
-4.80226e-11
1.90861e-10
-4.86082e-11
2.07137e-10
-4.89677e-11
2.23125e-10
-4.90944e-11
2.39003e-10
-4.90252e-11
2.55215e-10
-4.86191e-11
2.71265e-10
-4.79861e-11
2.8709e-10
-4.71358e-11
3.02605e-10
-4.60775e-11
3.17736e-10
-4.48207e-11
3.32412e-10
-4.33684e-11
3.46496e-10
-4.17237e-11
3.59939e-10
-3.98899e-11
3.72886e-10
-3.78847e-11
3.85156e-10
-3.5724e-11
3.96699e-10
-3.34138e-11
4.07468e-10
-3.0964e-11
4.17422e-10
-2.83866e-11
4.26522e-10
-2.56961e-11
4.34989e-10
-2.29062e-11
4.42481e-10
-2.00278e-11
4.48804e-10
-1.70679e-11
4.54146e-10
-1.40107e-11
-1.08839e-11
4.58485e-10
-3.65501e-13
6.91232e-13
-6.34989e-13
7.55025e-14
-3.8594e-14
-2.09283e-12
1.51107e-12
-5.14881e-12
4.10465e-12
-8.83557e-12
7.80325e-12
-1.29719e-11
1.26504e-11
-1.7383e-11
1.79337e-11
-2.19242e-11
2.48057e-11
-2.65381e-11
3.34468e-11
-3.09984e-11
4.34218e-11
-3.55973e-11
5.46423e-11
-4.0008e-11
6.69763e-11
-4.4197e-11
8.01203e-11
-4.81357e-11
9.40301e-11
-5.17573e-11
1.07124e-10
-5.48566e-11
1.24278e-10
-5.77436e-11
1.41628e-10
-6.03775e-11
1.59169e-10
-6.27388e-11
1.76528e-10
-6.46225e-11
1.94837e-10
-6.64996e-11
2.13641e-10
-6.76978e-11
2.32757e-10
-6.84637e-11
2.5202e-10
-6.88834e-11
2.7095e-10
-6.895e-11
2.89949e-10
-6.8735e-11
3.09136e-10
-6.80917e-11
3.28134e-10
-6.72599e-11
3.46856e-10
-6.60996e-11
3.65214e-10
-6.46323e-11
3.83124e-10
-6.2882e-11
4.00502e-10
-6.0861e-11
4.172e-10
-5.85808e-11
4.33147e-10
-5.60559e-11
4.48477e-10
-5.32686e-11
4.6301e-10
-5.02779e-11
4.76685e-10
-4.70743e-11
4.89447e-10
-4.36739e-11
5.01246e-10
-4.0096e-11
5.12039e-10
-3.63631e-11
5.22043e-10
-3.24945e-11
5.30887e-10
-2.84633e-11
5.3843e-10
-2.438e-11
5.44797e-10
-2.00993e-11
-1.57504e-11
5.49977e-10
-2.20209e-13
5.88894e-13
-3.13921e-13
-1.36714e-12
9.83985e-13
-4.60303e-12
3.37363e-12
-8.74259e-12
6.96498e-12
-1.3637e-11
1.18266e-11
-1.9076e-11
1.80017e-11
-2.48364e-11
2.46907e-11
-3.06207e-11
3.32711e-11
-3.61895e-11
4.33786e-11
-4.23163e-11
5.52452e-11
-4.83813e-11
6.84595e-11
-5.43196e-11
8.2914e-11
-6.02365e-11
9.83312e-11
-6.60032e-11
1.1479e-10
-7.11615e-11
1.30217e-10
-7.53037e-11
1.49793e-10
-7.58647e-11
1.69661e-10
-7.93242e-11
1.90004e-10
-8.31148e-11
2.09778e-10
-8.67725e-11
2.31215e-10
-8.87507e-11
2.52927e-10
-9.0245e-11
2.74913e-10
-9.12626e-11
2.97064e-10
-9.18333e-11
3.18806e-10
-9.19159e-11
3.40764e-10
-9.13043e-11
3.62652e-10
-9.07116e-11
3.84479e-10
-8.96768e-11
4.05966e-10
-8.81315e-11
4.27027e-10
-8.615e-11
4.47573e-10
-8.3777e-11
4.67509e-10
-8.105e-11
4.86672e-10
-7.79898e-11
5.05019e-10
-7.46153e-11
5.22593e-10
-7.09579e-11
5.39279e-10
-6.69966e-11
5.54978e-10
-6.27377e-11
5.69629e-10
-5.82105e-11
5.83172e-10
-5.34404e-11
5.95559e-10
-4.84607e-11
6.07054e-10
-4.33449e-11
6.17131e-10
-3.81374e-11
6.25909e-10
-3.2485e-11
6.33221e-10
-2.67681e-11
-2.10043e-11
6.39194e-10
-5.54226e-13
-8.57192e-13
4.90873e-14
-3.78237e-12
2.14693e-12
-7.88541e-12
5.44646e-12
-1.32354e-11
1.01099e-11
-1.94675e-11
1.62368e-11
-2.63207e-11
2.39273e-11
-3.35945e-11
3.24202e-11
-4.11379e-11
4.20333e-11
-4.8667e-11
5.38552e-11
-5.62372e-11
6.75048e-11
-6.33228e-11
8.24912e-11
-7.02699e-11
9.8924e-11
-7.70026e-11
1.16926e-10
-8.34761e-11
1.36208e-10
-8.95717e-11
1.57204e-10
-9.49773e-11
1.75907e-10
-9.96045e-11
1.97693e-10
-1.03733e-10
2.20199e-10
-1.07571e-10
2.43842e-10
-1.10685e-10
2.68e-10
-1.13206e-10
2.92517e-10
-1.15091e-10
3.17264e-10
-1.16399e-10
3.42193e-10
-1.17151e-10
3.66951e-10
-1.17364e-10
3.91196e-10
-1.17104e-10
4.15842e-10
-1.16235e-10
4.40437e-10
-1.14706e-10
4.64607e-10
-1.12713e-10
4.88271e-10
-1.10219e-10
5.11328e-10
-1.07226e-10
5.33693e-10
-1.03764e-10
5.55197e-10
-9.98618e-11
5.75776e-10
-9.55425e-11
5.95519e-10
-9.08413e-11
6.14272e-10
-8.57394e-11
6.31911e-10
-8.02945e-11
6.48366e-10
-7.45216e-11
6.63568e-10
-6.84398e-11
6.7744e-10
-6.20691e-11
6.90233e-10
-5.54171e-11
7.01839e-10
-4.85216e-11
7.11622e-10
-4.14817e-11
7.19805e-10
-3.43506e-11
-2.70247e-11
7.26534e-10
-2.71901e-13
-1.38606e-12
9.06113e-13
-5.48021e-12
3.57934e-12
-1.10956e-11
7.75432e-12
-1.79479e-11
1.34932e-11
-2.57319e-11
2.08724e-11
-3.41863e-11
2.99402e-11
-4.31063e-11
4.01112e-11
-5.23483e-11
5.13095e-11
-6.18386e-11
6.52834e-11
-7.08173e-11
8.07378e-11
-7.95555e-11
9.76547e-11
-8.79538e-11
1.1608e-10
-9.59597e-11
1.36254e-10
-1.03587e-10
1.5804e-10
-1.1084e-10
1.81687e-10
-1.17609e-10
2.02784e-10
-1.23766e-10
2.26816e-10
-1.28969e-10
2.52023e-10
-1.33416e-10
2.78294e-10
-1.37168e-10
3.05134e-10
-1.40208e-10
3.32298e-10
-1.42562e-10
3.5969e-10
-1.44207e-10
3.87262e-10
-1.45155e-10
4.14607e-10
-1.45426e-10
4.41553e-10
-1.45047e-10
4.6895e-10
-1.43836e-10
4.96082e-10
-1.41999e-10
5.22801e-10
-1.3957e-10
5.48964e-10
-1.36533e-10
5.74445e-10
-1.32885e-10
5.9915e-10
-1.28644e-10
6.22912e-10
-1.23849e-10
6.45642e-10
-1.18538e-10
6.67478e-10
-1.12714e-10
6.88183e-10
-1.06435e-10
7.07671e-10
-9.97328e-11
7.25858e-10
-9.26317e-11
7.4267e-10
-8.51528e-11
7.58034e-10
-7.73159e-11
7.72167e-10
-6.91336e-11
7.84909e-10
-6.0637e-11
7.95643e-10
-5.20386e-11
8.04759e-10
-4.32087e-11
-3.41817e-11
8.12232e-10
2.18358e-13
-1.87981e-12
1.78914e-12
-7.63804e-12
5.10763e-12
-1.49712e-11
1.0178e-11
-2.3575e-11
1.70222e-11
-3.31364e-11
2.56685e-11
-4.3381e-11
3.61356e-11
-5.40902e-11
4.77327e-11
-6.50982e-11
6.11256e-11
-7.62924e-11
7.69858e-11
-8.71933e-11
9.44495e-11
-9.77381e-11
1.13417e-10
-1.0782e-10
1.33885e-10
-1.17331e-10
1.56107e-10
-1.26266e-10
1.80083e-10
-1.34701e-10
2.0598e-10
-1.42662e-10
2.29893e-10
-1.50317e-10
2.5649e-10
-1.56513e-10
2.84233e-10
-1.61712e-10
3.13013e-10
-1.66099e-10
3.42402e-10
-1.69744e-10
3.72151e-10
-1.72579e-10
4.0214e-10
-1.7454e-10
4.32294e-10
-1.75683e-10
4.62183e-10
-1.7598e-10
4.91867e-10
-1.75449e-10
5.21767e-10
-1.74035e-10
5.51362e-10
-1.71806e-10
5.80527e-10
-1.68858e-10
6.09102e-10
-1.65202e-10
6.36937e-10
-1.60832e-10
6.63909e-10
-1.55752e-10
6.89846e-10
-1.49991e-10
7.14683e-10
-1.43591e-10
7.38499e-10
-1.3659e-10
7.61077e-10
-1.2902e-10
7.82334e-10
-1.20935e-10
8.02185e-10
-1.12376e-10
8.20548e-10
-1.03374e-10
8.37347e-10
-9.39553e-11
8.52793e-10
-8.4146e-11
8.66513e-10
-7.40142e-11
8.78263e-10
-6.36017e-11
8.8824e-10
-5.2931e-11
-4.20389e-11
8.96416e-10
5.04932e-13
-2.69958e-12
2.55932e-12
-1.02866e-11
6.59247e-12
-1.95496e-11
1.26141e-11
-3.01325e-11
2.06181e-11
-4.16881e-11
3.0584e-11
-5.39223e-11
4.25043e-11
-6.65963e-11
5.56079e-11
-7.95218e-11
7.09487e-11
-9.25672e-11
8.87688e-11
-1.05354e-10
1.08321e-10
-1.17777e-10
1.29452e-10
-1.29689e-10
1.52079e-10
-1.40903e-10
1.76375e-10
-1.51356e-10
2.02447e-10
-1.6112e-10
2.30248e-10
-1.70282e-10
2.57229e-10
-1.79065e-10
2.86434e-10
-1.86319e-10
3.16654e-10
-1.92441e-10
3.47843e-10
-1.97586e-10
3.79718e-10
-2.01826e-10
4.12033e-10
-2.05075e-10
4.44543e-10
-2.07282e-10
4.77251e-10
-2.08645e-10
5.09677e-10
-2.09009e-10
5.41917e-10
-2.08469e-10
5.74299e-10
-2.06797e-10
6.06288e-10
-2.04103e-10
6.37804e-10
-2.00548e-10
6.68702e-10
-1.96174e-10
6.98819e-10
-1.90991e-10
7.28001e-10
-1.84997e-10
7.56058e-10
-1.78208e-10
7.82918e-10
-1.70682e-10
8.08661e-10
-1.6241e-10
8.3305e-10
-1.53444e-10
8.56005e-10
-1.43858e-10
8.77445e-10
-1.3371e-10
8.9729e-10
-1.23052e-10
9.15453e-10
-1.11924e-10
9.32112e-10
-1.00359e-10
9.4691e-10
-8.84349e-11
9.59621e-10
-7.6122e-11
9.70409e-10
-6.34858e-11
-5.05818e-11
9.79246e-10
6.98005e-13
-3.72393e-12
3.23909e-12
-1.34271e-11
8.00713e-12
-2.48553e-11
1.50082e-11
-3.76486e-11
2.42066e-11
-5.14099e-11
3.55351e-11
-6.58289e-11
4.8954e-11
-8.06484e-11
6.36272e-11
-9.56508e-11
8.08237e-11
-1.10645e-10
1.00581e-10
-1.25378e-10
1.22212e-10
-1.39708e-10
1.45551e-10
-1.53532e-10
1.70426e-10
-1.66587e-10
1.96876e-10
-1.78728e-10
2.25049e-10
-1.89968e-10
2.54722e-10
-2.00395e-10
2.84666e-10
-2.10102e-10
3.16444e-10
-2.18518e-10
3.49125e-10
-2.25684e-10
3.82708e-10
-2.3166e-10
4.17065e-10
-2.36487e-10
4.51937e-10
-2.40138e-10
4.86772e-10
-2.42576e-10
5.21993e-10
-2.4415e-10
5.56818e-10
-2.4455e-10
5.91673e-10
-2.44072e-10
6.26554e-10
-2.42047e-10
6.6089e-10
-2.38848e-10
6.94672e-10
-2.34651e-10
7.27796e-10
-2.29485e-10
7.60107e-10
-2.23385e-10
7.91433e-10
-2.16372e-10
8.21533e-10
-2.08463e-10
8.50392e-10
-1.99727e-10
8.78027e-10
-1.90097e-10
9.04181e-10
-1.79651e-10
9.28778e-10
-1.6848e-10
9.5174e-10
-1.56641e-10
9.72993e-10
-1.44202e-10
9.92456e-10
-1.31225e-10
1.01026e-09
-1.17756e-10
1.02616e-09
-1.03877e-10
1.03981e-09
-8.95418e-11
1.05138e-09
-7.48244e-11
-5.97829e-11
1.06085e-09
8.62292e-13
-4.91531e-12
3.8992e-12
-1.70705e-11
9.35331e-12
-3.08519e-11
1.7337e-11
-4.61465e-11
2.77393e-11
-6.23253e-11
4.04514e-11
-7.91071e-11
5.53982e-11
-9.62312e-11
7.17151e-11
-1.13452e-10
9.0747e-11
-1.306e-10
1.12444e-10
-1.47356e-10
1.36057e-10
-1.63582e-10
1.61581e-10
-1.79438e-10
1.8874e-10
-1.94448e-10
2.17426e-10
-2.08418e-10
2.47745e-10
-2.21266e-10
2.79462e-10
-2.33054e-10
3.12015e-10
-2.44227e-10
3.46331e-10
-2.53978e-10
3.81511e-10
-2.62319e-10
4.17541e-10
-2.69024e-10
4.54372e-10
-2.74221e-10
4.9176e-10
-2.78251e-10
5.28763e-10
-2.81425e-10
5.66481e-10
-2.82866e-10
6.03476e-10
-2.83074e-10
6.4118e-10
-2.8196e-10
6.78524e-10
-2.79566e-10
7.15147e-10
-2.7587e-10
7.51142e-10
-2.71091e-10
7.86418e-10
-2.65129e-10
8.20837e-10
-2.58043e-10
8.5423e-10
-2.49902e-10
8.86289e-10
-2.40749e-10
9.17136e-10
-2.30652e-10
9.46628e-10
-2.19561e-10
9.74509e-10
-2.07568e-10
1.00071e-09
-1.94748e-10
1.02515e-09
-1.81148e-10
1.04775e-09
-1.6683e-10
1.06846e-09
-1.51875e-10
1.08735e-09
-1.36348e-10
1.10433e-09
-1.20282e-10
1.11888e-09
-1.03781e-10
1.13125e-09
-8.69194e-11
-6.9601e-11
1.14133e-09
1.01723e-12
-6.25543e-12
4.6121e-12
-2.12768e-11
1.05634e-11
-3.8304e-11
1.95852e-11
-5.63705e-11
3.11996e-11
-7.51621e-11
4.53105e-11
-9.4505e-11
6.18251e-11
-1.14097e-10
7.97853e-11
-1.33557e-10
1.00707e-10
-1.52525e-10
1.24368e-10
-1.71403e-10
1.49704e-10
-1.90086e-10
1.77387e-10
-2.08268e-10
2.06828e-10
-2.25572e-10
2.37836e-10
-2.41744e-10
2.70418e-10
-2.56372e-10
3.03899e-10
-2.6926e-10
3.3904e-10
-2.80307e-10
3.75888e-10
-2.91058e-10
4.13834e-10
-3.00472e-10
4.52483e-10
-3.08304e-10
4.91621e-10
-3.14459e-10
5.30979e-10
-3.19023e-10
5.70829e-10
-3.21955e-10
6.10878e-10
-3.23488e-10
6.50306e-10
-3.23539e-10
6.90403e-10
-3.22031e-10
7.30145e-10
-3.1927e-10
7.6891e-10
-3.15412e-10
8.07147e-10
-3.103e-10
8.4458e-10
-3.03553e-10
8.8107e-10
-2.95339e-10
9.16466e-10
-2.85844e-10
9.50424e-10
-2.7519e-10
9.83198e-10
-2.63441e-10
1.01448e-09
-2.50772e-10
1.04403e-09
-2.37114e-10
1.07182e-09
-2.22695e-10
1.09772e-09
-2.07315e-10
1.12166e-09
-1.90993e-10
1.14357e-09
-1.73833e-10
1.16359e-09
-1.56002e-10
1.18152e-09
-1.37598e-10
1.1969e-09
-1.18811e-10
1.21012e-09
-9.92832e-11
-7.96005e-11
1.22078e-09
1.1338e-12
-8.52817e-12
4.8249e-12
-2.71467e-11
1.16504e-11
-4.70304e-11
2.17567e-11
-6.76531e-11
3.45789e-11
-8.91247e-11
5.01227e-11
-1.11108e-10
6.83312e-11
-1.33309e-10
8.82584e-11
-1.55451e-10
1.10657e-10
-1.77024e-10
1.35831e-10
-1.98394e-10
1.62907e-10
-2.19243e-10
1.9264e-10
-2.3885e-10
2.24344e-10
-2.57623e-10
2.5799e-10
-2.75346e-10
2.93309e-10
-2.91739e-10
3.29623e-10
-3.06469e-10
3.6606e-10
-3.18731e-10
4.05228e-10
-3.30278e-10
4.45674e-10
-3.40636e-10
4.86942e-10
-3.4947e-10
5.28594e-10
-3.56535e-10
5.70501e-10
-3.61743e-10
6.12679e-10
-3.65114e-10
6.55112e-10
-3.66717e-10
6.96993e-10
-3.66658e-10
7.39232e-10
-3.64437e-10
7.80978e-10
-3.61451e-10
8.21884e-10
-3.57204e-10
8.62619e-10
-3.51046e-10
9.02371e-10
-3.43376e-10
9.40991e-10
-3.34171e-10
9.78362e-10
-3.23515e-10
1.01421e-09
-3.11516e-10
1.04866e-09
-2.98047e-10
1.08167e-09
-2.83603e-10
1.11268e-09
-2.68254e-10
1.14209e-09
-2.51756e-10
1.16955e-09
-2.34301e-10
1.1949e-09
-2.15894e-10
1.21802e-09
-1.96574e-10
1.2391e-09
-1.76434e-10
1.25785e-09
-1.55441e-10
1.27435e-09
-1.33978e-10
1.28805e-09
-1.12235e-10
-9.00672e-11
1.29928e-09
1.17938e-12
-1.05085e-11
5.3013e-12
-3.25033e-11
1.3109e-11
-5.53527e-11
2.40462e-11
-7.91379e-11
3.79933e-11
-1.03593e-10
5.48722e-11
-1.28435e-10
7.45833e-11
-1.5341e-10
9.64538e-11
-1.78301e-10
1.20339e-10
-2.02987e-10
1.47222e-10
-2.26747e-10
1.7664e-10
-2.49383e-10
2.08234e-10
-2.71048e-10
2.41984e-10
-2.91661e-10
2.77911e-10
-3.11145e-10
3.15723e-10
-3.29284e-10
3.55329e-10
-3.4568e-10
3.93259e-10
-3.59557e-10
4.34424e-10
-3.72104e-10
4.77118e-10
-3.83227e-10
5.20893e-10
-3.92877e-10
5.65139e-10
-4.00821e-10
6.09614e-10
-4.06804e-10
6.54269e-10
-4.10667e-10
6.99039e-10
-4.12395e-10
7.4378e-10
-4.12102e-10
7.87508e-10
-4.09818e-10
8.3123e-10
-4.06057e-10
8.74725e-10
-4.00633e-10
9.17655e-10
-3.93686e-10
9.59635e-10
-3.85128e-10
1.00037e-09
-3.74896e-10
1.03972e-09
-3.63012e-10
1.07767e-09
-3.49588e-10
1.11369e-09
-3.348e-10
1.14819e-09
-3.18559e-10
1.1809e-09
-3.01048e-10
1.21179e-09
-2.82452e-10
1.24071e-09
-2.62864e-10
1.26744e-09
-2.42301e-10
1.2918e-09
-2.20746e-10
1.31412e-09
-1.98224e-10
1.33368e-09
-1.74831e-10
1.35077e-09
-1.50854e-10
1.36514e-09
-1.26418e-10
-1.0152e-10
1.37698e-09
1.42512e-12
-1.22062e-11
6.17231e-12
-3.78242e-11
1.45688e-11
-6.4316e-11
2.63617e-11
-9.15054e-11
4.13898e-11
-1.19186e-10
5.95286e-11
-1.4709e-10
8.06534e-11
-1.74986e-10
1.03976e-10
-2.02686e-10
1.29932e-10
-2.30105e-10
1.58989e-10
-2.56459e-10
1.90348e-10
-2.816e-10
2.23878e-10
-3.05422e-10
2.59562e-10
-3.27914e-10
2.97596e-10
-3.49072e-10
3.37808e-10
-3.68845e-10
3.80562e-10
-3.86974e-10
4.20429e-10
-4.03009e-10
4.63624e-10
-4.16784e-10
5.08333e-10
-4.2865e-10
5.54355e-10
-4.3883e-10
6.01091e-10
-4.47284e-10
6.48196e-10
-4.53782e-10
6.95506e-10
-4.58069e-10
7.42796e-10
-4.59999e-10
7.90058e-10
-4.59637e-10
8.35753e-10
-4.57259e-10
8.8165e-10
-4.52879e-10
9.27168e-10
-4.46497e-10
9.72209e-10
-4.38416e-10
1.01635e-09
-4.28732e-10
1.05922e-09
-4.17341e-10
1.10059e-09
-4.04196e-10
1.14039e-09
-3.89387e-10
1.17828e-09
-3.73278e-10
1.21447e-09
-3.55267e-10
1.24868e-09
-3.35659e-10
1.28096e-09
-3.14743e-10
1.31122e-09
-2.92767e-10
1.3393e-09
-2.69833e-10
1.36494e-09
-2.45923e-10
1.38842e-09
-2.21018e-10
1.40882e-09
-1.95326e-10
1.42658e-09
-1.68717e-10
1.44162e-09
-1.41406e-10
-1.13592e-10
1.45398e-09
1.64347e-12
-1.41635e-11
6.87678e-12
-4.36504e-11
1.59319e-11
-7.39155e-11
2.8614e-11
-1.04727e-10
4.47433e-11
-1.35868e-10
6.41357e-11
-1.67055e-10
8.66456e-11
-1.9806e-10
1.11338e-10
-2.28709e-10
1.39355e-10
-2.58976e-10
1.70501e-10
-2.88057e-10
2.03955e-10
-3.15763e-10
2.39533e-10
-3.41903e-10
2.77183e-10
-3.66396e-10
3.1718e-10
-3.89238e-10
3.59554e-10
-4.10564e-10
4.04905e-10
-4.30469e-10
4.47387e-10
-4.48744e-10
4.92844e-10
-4.64085e-10
5.39565e-10
-4.76919e-10
5.8763e-10
-4.87563e-10
6.36645e-10
-4.96186e-10
6.86289e-10
-5.02762e-10
7.36297e-10
-5.07168e-10
7.86231e-10
-5.09285e-10
8.35918e-10
-5.09178e-10
8.83814e-10
-5.07237e-10
9.32002e-10
-5.02526e-10
9.79501e-10
-4.95071e-10
1.02647e-09
-4.85593e-10
1.07263e-09
-4.74459e-10
1.11755e-09
-4.61634e-10
1.1609e-09
-4.47086e-10
1.20233e-09
-4.30867e-10
1.24239e-09
-4.13505e-10
1.28044e-09
-3.93754e-10
1.31622e-09
-3.72053e-10
1.34982e-09
-3.48745e-10
1.38129e-09
-3.2417e-10
1.41057e-09
-2.986e-10
1.43743e-09
-2.7212e-10
1.46191e-09
-2.44716e-10
1.48337e-09
-2.16615e-10
1.50199e-09
-1.87328e-10
1.51767e-09
-1.57133e-10
-1.26314e-10
1.53048e-09
1.79993e-12
-1.62949e-11
7.46957e-12
-4.99148e-11
1.72004e-11
-8.4166e-11
3.07796e-11
-1.18806e-10
4.80212e-11
-1.53645e-10
6.86744e-11
-1.88355e-10
9.25617e-11
-2.22681e-10
1.18568e-10
-2.5643e-10
1.48574e-10
-2.89524e-10
1.81773e-10
-3.21416e-10
2.17415e-10
-3.51813e-10
2.55183e-10
-3.80493e-10
2.94927e-10
-4.07338e-10
3.36799e-10
-4.32167e-10
3.8094e-10
-4.5514e-10
4.28159e-10
-4.76516e-10
4.73784e-10
-4.98296e-10
5.219e-10
-5.15881e-10
5.70985e-10
-5.29889e-10
6.21195e-10
-5.40347e-10
6.72364e-10
-5.47852e-10
7.24272e-10
-5.52998e-10
7.76639e-10
-5.56245e-10
8.28927e-10
-5.58067e-10
8.80611e-10
-5.58698e-10
9.31373e-10
-5.59776e-10
9.82364e-10
-5.54606e-10
1.03201e-09
-5.4628e-10
1.08078e-09
-5.35463e-10
1.12876e-09
-5.22863e-10
1.1755e-09
-5.08463e-10
1.22068e-09
-4.92289e-10
1.26339e-09
-4.74389e-10
1.30598e-09
-4.55252e-10
1.34606e-09
-4.33683e-10
1.38361e-09
-4.09918e-10
1.4186e-09
-3.84424e-10
1.45119e-09
-3.57361e-10
1.48148e-09
-3.29042e-10
1.50938e-09
-2.99714e-10
1.53464e-09
-2.69479e-10
1.55742e-09
-2.38721e-10
1.57699e-09
-2.06517e-10
1.59337e-09
-1.73443e-10
-1.39602e-10
1.60664e-09
1.92473e-12
-1.85608e-11
8.02393e-12
-5.66224e-11
1.84404e-11
-9.51061e-11
3.28448e-11
-1.33701e-10
5.11805e-11
-1.72511e-10
7.31016e-11
-2.10969e-10
9.83812e-11
-2.48811e-10
1.25761e-10
-2.858e-10
1.57619e-10
-3.21795e-10
1.92821e-10
-3.56522e-10
2.30652e-10
-3.89713e-10
2.70609e-10
-4.21082e-10
3.12587e-10
-4.50718e-10
3.5635e-10
-4.78054e-10
4.02229e-10
-5.03012e-10
4.49013e-10
-5.25804e-10
4.98993e-10
-5.46663e-10
5.50587e-10
-5.65059e-10
6.03245e-10
-5.80943e-10
6.5635e-10
-5.9386e-10
7.09782e-10
-6.03736e-10
7.6345e-10
-6.10677e-10
8.17006e-10
-6.14773e-10
8.70487e-10
-6.16235e-10
9.21589e-10
-6.15406e-10
9.78533e-10
-6.1307e-10
1.03247e-09
-6.07611e-10
1.08467e-09
-5.99006e-10
1.13522e-09
-5.87566e-10
1.1849e-09
-5.73928e-10
1.23329e-09
-5.58111e-10
1.28014e-09
-5.40186e-10
1.32403e-09
-5.20219e-10
1.3691e-09
-4.98443e-10
1.41129e-09
-4.7457e-10
1.45068e-09
-4.48907e-10
1.48722e-09
-4.21422e-10
1.52102e-09
-3.92179e-10
1.55228e-09
-3.61273e-10
1.58109e-09
-3.28982e-10
1.6069e-09
-2.95552e-10
1.63112e-09
-2.60878e-10
1.65157e-09
-2.26223e-10
1.66874e-09
-1.90107e-10
-1.53243e-10
1.68252e-09
2.01942e-12
-2.09197e-11
8.58017e-12
-6.38171e-11
1.97237e-11
-1.06807e-10
3.47186e-11
-1.5026e-10
5.41782e-11
-1.93365e-10
7.73993e-11
-2.35832e-10
1.0415e-10
-2.77388e-10
1.33035e-10
-3.17571e-10
1.66592e-10
-3.55904e-10
2.03655e-10
-3.93531e-10
2.43526e-10
-4.2953e-10
2.85319e-10
-4.64636e-10
3.29631e-10
-4.98296e-10
3.757e-10
-5.29267e-10
4.23642e-10
-5.56695e-10
4.72115e-10
-5.80092e-10
5.24388e-10
-5.98025e-10
5.78249e-10
-6.17332e-10
6.3363e-10
-6.34575e-10
6.89506e-10
-6.49092e-10
7.45581e-10
-6.60481e-10
8.0178e-10
-6.68654e-10
8.57591e-10
-6.73525e-10
9.13052e-10
-6.75051e-10
9.6521e-10
-6.73155e-10
1.02515e-09
-6.68219e-10
1.08196e-09
-6.61802e-10
1.13677e-09
-6.52986e-10
1.1892e-09
-6.41711e-10
1.24082e-09
-6.28911e-10
1.29107e-09
-6.12507e-10
1.33974e-09
-5.92677e-10
1.38519e-09
-5.69626e-10
1.43216e-09
-5.43185e-10
1.4761e-09
-5.16958e-10
1.51711e-09
-4.8764e-10
1.55529e-09
-4.59769e-10
1.59061e-09
-4.29717e-10
1.62314e-09
-3.96719e-10
1.65295e-09
-3.61129e-10
1.67995e-09
-3.23897e-10
1.70404e-09
-2.85667e-10
1.72591e-09
-2.46562e-10
1.74374e-09
-2.07226e-10
-1.67172e-10
1.75812e-09
2.03849e-12
-2.41641e-11
9.13941e-12
-7.22295e-11
2.03908e-11
-1.2039e-10
3.63189e-11
-1.68084e-10
5.69428e-11
-2.14956e-10
8.15803e-11
-2.61215e-10
1.10079e-10
-3.06532e-10
1.41142e-10
-3.5055e-10
1.75543e-10
-3.92301e-10
2.14317e-10
-4.32639e-10
2.55041e-10
-4.71839e-10
2.98212e-10
-5.09096e-10
3.45038e-10
-5.43685e-10
3.94476e-10
-5.76195e-10
4.45994e-10
-6.06001e-10
4.99591e-10
-6.3227e-10
5.50041e-10
-6.53122e-10
6.05573e-10
-6.72918e-10
6.63022e-10
-6.9084e-10
7.21501e-10
-7.06323e-10
7.80288e-10
-7.1888e-10
8.39284e-10
-7.28268e-10
8.97951e-10
-7.34163e-10
9.56273e-10
-7.36123e-10
1.01103e-09
-7.33982e-10
1.07185e-09
-7.23731e-10
1.13053e-09
-7.15601e-10
1.18732e-09
-7.07188e-10
1.24086e-09
-6.96728e-10
1.29569e-09
-6.81324e-10
1.34897e-09
-6.63015e-10
1.40043e-09
-6.41747e-10
1.44909e-09
-6.17686e-10
1.49526e-09
-5.89407e-10
1.54203e-09
-5.58911e-10
1.58128e-09
-5.29948e-10
1.62148e-09
-4.97854e-10
1.65942e-09
-4.64396e-10
1.69431e-09
-4.28782e-10
1.72559e-09
-3.90911e-10
1.75342e-09
-3.51172e-10
1.7782e-09
-3.10029e-10
1.80016e-09
-2.67183e-10
1.8186e-09
-2.24325e-10
-1.80953e-10
1.83348e-09
2.20354e-12
-2.71872e-11
9.40728e-12
-8.07225e-11
2.13685e-11
-1.33653e-10
3.83985e-11
-1.85701e-10
5.99138e-11
-2.36976e-10
8.57694e-11
-2.87313e-10
1.15703e-10
-3.36526e-10
1.49097e-10
-3.84411e-10
1.84834e-10
-4.30939e-10
2.24638e-10
-4.74835e-10
2.67016e-10
-5.16311e-10
3.1249e-10
-5.55273e-10
3.60982e-10
-5.91998e-10
4.12758e-10
-6.26543e-10
4.67166e-10
-6.58563e-10
5.25536e-10
-6.87197e-10
5.76318e-10
-7.10803e-10
6.33104e-10
-7.31787e-10
6.92203e-10
-7.50168e-10
7.52839e-10
-7.66166e-10
8.14045e-10
-7.79053e-10
8.75786e-10
-7.88785e-10
9.37807e-10
-7.95033e-10
9.9928e-10
-7.97264e-10
1.06143e-09
-7.95057e-10
1.11934e-09
-7.88756e-10
1.17785e-09
-7.79853e-10
1.23582e-09
-7.68237e-10
1.2936e-09
-7.53888e-10
1.35071e-09
-7.36607e-10
1.40653e-09
-7.16197e-10
1.46022e-09
-6.92956e-10
1.5127e-09
-6.67456e-10
1.56036e-09
-6.41694e-10
1.60514e-09
-6.09437e-10
1.64709e-09
-5.74172e-10
1.68818e-09
-5.37913e-10
1.728e-09
-5.01e-10
1.76482e-09
-4.62801e-10
1.79768e-09
-4.2258e-10
1.8266e-09
-3.80172e-10
1.85285e-09
-3.35848e-10
1.87461e-09
-2.89816e-10
1.8934e-09
-2.4334e-10
-1.9612e-10
1.90891e-09
2.40791e-12
-2.98735e-11
9.98325e-12
-8.89009e-11
2.27796e-11
-1.47059e-10
4.05639e-11
-2.04152e-10
6.30128e-11
-2.60053e-10
8.99332e-11
-3.14648e-10
1.21102e-10
-3.67854e-10
1.55687e-10
-4.19647e-10
1.93769e-10
-4.70403e-10
2.35574e-10
-5.17961e-10
2.80006e-10
-5.62519e-10
3.27134e-10
-6.04051e-10
3.77135e-10
-6.42746e-10
4.30727e-10
-6.78963e-10
4.87639e-10
-7.12794e-10
5.50093e-10
-7.4378e-10
6.02616e-10
-7.71238e-10
6.61124e-10
-7.93941e-10
7.21685e-10
-8.13113e-10
7.84242e-10
-8.2901e-10
8.47578e-10
-8.41728e-10
9.11853e-10
-8.50937e-10
9.77014e-10
-8.56776e-10
1.04201e-09
-8.59076e-10
1.10758e-09
-8.57837e-10
1.16685e-09
-8.53522e-10
1.22717e-09
-8.44522e-10
1.28696e-09
-8.30915e-10
1.34688e-09
-8.13998e-10
1.40627e-09
-7.93938e-10
1.46405e-09
-7.70758e-10
1.51941e-09
-7.45065e-10
1.57178e-09
-7.18269e-10
1.62497e-09
-6.9545e-10
1.67188e-09
-6.61805e-10
1.71445e-09
-6.22872e-10
1.75568e-09
-5.81634e-10
1.79629e-09
-5.40083e-10
1.83464e-09
-4.98166e-10
1.86928e-09
-4.54954e-10
1.89973e-09
-4.09712e-10
1.92738e-09
-3.62344e-10
1.94931e-09
-3.13117e-10
1.96861e-09
-2.62929e-10
-2.11854e-10
1.9846e-09
2.56449e-12
-3.27693e-11
1.05562e-11
-9.74634e-11
2.4056e-11
-1.61061e-10
4.27227e-11
-2.23344e-10
6.62098e-11
-2.84133e-10
9.41788e-11
-3.43269e-10
1.26427e-10
-4.00685e-10
1.61611e-10
-4.56467e-10
2.02349e-10
-5.11302e-10
2.46487e-10
-5.62734e-10
2.93198e-10
-6.108e-10
3.42267e-10
-6.55219e-10
3.9383e-10
-6.96089e-10
4.48828e-10
-7.33881e-10
5.07578e-10
-7.69191e-10
5.72524e-10
-8.02438e-10
6.28547e-10
-8.33581e-10
6.89341e-10
-8.58549e-10
7.51835e-10
-8.78852e-10
8.16459e-10
-8.97437e-10
8.82047e-10
-9.06615e-10
9.48466e-10
-9.11756e-10
1.01588e-09
-9.14211e-10
1.08326e-09
-9.15502e-10
1.15075e-09
-9.16387e-10
1.21363e-09
-9.21364e-10
1.27745e-09
-9.11922e-10
1.33951e-09
-8.96802e-10
1.40144e-09
-8.7732e-10
1.46293e-09
-8.54326e-10
1.52201e-09
-8.28066e-10
1.5779e-09
-7.99591e-10
1.62574e-09
-7.70981e-10
1.68865e-09
-7.49682e-10
1.73982e-09
-7.15656e-10
1.7841e-09
-6.74685e-10
1.82501e-09
-6.296e-10
1.86537e-09
-5.83166e-10
1.90443e-09
-5.36447e-10
1.94056e-09
-4.89075e-10
1.97266e-09
-4.40207e-10
2.00176e-09
-3.89482e-10
2.0243e-09
-3.37181e-10
2.04419e-09
-2.83198e-10
-2.28119e-10
2.06059e-09
2.67491e-12
-3.58212e-11
1.10526e-11
-1.06382e-10
2.52208e-11
-1.75596e-10
4.48197e-11
-2.43256e-10
6.94178e-11
-3.09232e-10
9.84753e-11
-3.73314e-10
1.3175e-10
-4.35302e-10
1.67178e-10
-4.95176e-10
2.10503e-10
-5.53495e-10
2.57035e-10
-6.08821e-10
3.06367e-10
-6.60721e-10
3.57856e-10
-7.08562e-10
4.11319e-10
-7.52371e-10
4.67486e-10
-7.92498e-10
5.27081e-10
-8.29476e-10
5.9266e-10
-8.6404e-10
6.53386e-10
-9.00043e-10
7.17557e-10
-9.29244e-10
7.80397e-10
-9.52497e-10
8.52918e-10
-9.66602e-10
9.20881e-10
-9.7979e-10
9.88575e-10
-9.88198e-10
1.05539e-09
-9.92216e-10
1.12207e-09
-9.92439e-10
1.18405e-09
-9.90024e-10
1.25996e-09
-9.88164e-10
1.32781e-09
-9.79201e-10
1.39329e-09
-9.63971e-10
1.45751e-09
-9.43422e-10
1.52104e-09
-9.18934e-10
1.58081e-09
-8.91184e-10
1.63616e-09
-8.60839e-10
1.67579e-09
-8.29318e-10
1.75039e-09
-8.00943e-10
1.80712e-09
-7.65484e-10
1.85492e-09
-7.24564e-10
1.89641e-09
-6.78391e-10
1.93632e-09
-6.28853e-10
1.97532e-09
-5.7772e-10
2.01225e-09
-5.2561e-10
2.04563e-09
-4.7234e-10
2.07583e-09
-4.17691e-10
2.09962e-09
-3.61888e-10
2.12023e-09
-3.0404e-10
-2.44909e-10
2.13704e-09
2.78488e-12
-3.90063e-11
1.15351e-11
-1.15716e-10
2.63378e-11
-1.90776e-10
4.6817e-11
-2.64035e-10
7.24455e-11
-3.35302e-10
1.02655e-10
-4.04709e-10
1.37075e-10
-4.71614e-10
1.73002e-10
-5.35734e-10
2.183e-10
-5.97068e-10
2.67034e-10
-6.55898e-10
3.1913e-10
-7.11619e-10
3.73375e-10