/*--------------------------------*- C++ -*----------------------------------*\
  =========                 |
  \\      /  F ield         | OpenFOAM: The Open Source CFD Toolbox
   \\    /   O peration     | Website:  https://openfoam.org
    \\  /    A nd           | Version:  9
     \\/     M anipulation  |
\*---------------------------------------------------------------------------*/
FoamFile
{
    format      ascii;
    class       volVectorField;
    location    "0.1";
    object      U;
}
// * * * * * * * * * * * * * * * * * * * * * * * * * * * * * * * * * * * * * //

dimensions      [0 1 -1 0 0 0 0];

internalField   nonuniform List<vector> 
6400
(
(7.38838e-06 -6.94326e-06 0)
(2.93854e-05 -1.40004e-05 0)
(5.85211e-05 -1.39729e-05 0)
(7.9428e-05 -9.62865e-06 0)
(8.42535e-05 -3.41094e-06 0)
(6.95562e-05 3.48509e-06 0)
(3.42421e-05 1.04376e-05 0)
(-2.16539e-05 1.7127e-05 0)
(-9.7388e-05 2.33847e-05 0)
(-0.000191766 2.91287e-05 0)
(-0.000303361 3.43241e-05 0)
(-0.000430587 3.89548e-05 0)
(-0.000571783 4.30238e-05 0)
(-0.000725244 4.65363e-05 0)
(-0.000889262 4.95019e-05 0)
(-0.00106214 5.19404e-05 0)
(-0.00124221 5.38687e-05 0)
(-0.00142784 5.53029e-05 0)
(-0.00161745 5.6264e-05 0)
(-0.00180951 5.67701e-05 0)
(-0.00200253 5.68409e-05 0)
(-0.00219509 5.64998e-05 0)
(-0.00238586 5.5767e-05 0)
(-0.00257351 5.46614e-05 0)
(-0.00275684 5.32043e-05 0)
(-0.00293468 5.14162e-05 0)
(-0.00310592 4.93155e-05 0)
(-0.00326954 4.6922e-05 0)
(-0.00342456 4.42568e-05 0)
(-0.0035701 4.134e-05 0)
(-0.00370531 3.81895e-05 0)
(-0.00382943 3.48248e-05 0)
(-0.00394177 3.12668e-05 0)
(-0.00404169 2.75361e-05 0)
(-0.00412863 2.36522e-05 0)
(-0.0042021 1.96333e-05 0)
(-0.00426168 1.54996e-05 0)
(-0.00430702 1.12736e-05 0)
(-0.00433784 6.97691e-06 0)
(-0.00435394 2.63131e-06 0)
(-0.0043552 -1.74206e-06 0)
(-0.00434155 -6.12182e-06 0)
(-0.00431304 -1.04845e-05 0)
(-0.00426976 -1.48057e-05 0)
(-0.00421192 -1.90615e-05 0)
(-0.00413976 -2.3228e-05 0)
(-0.00405366 -2.72807e-05 0)
(-0.00395405 -3.11955e-05 0)
(-0.00384146 -3.49471e-05 0)
(-0.00371648 -3.85087e-05 0)
(-0.00357983 -4.1854e-05 0)
(-0.00343229 -4.49577e-05 0)
(-0.00327471 -4.77944e-05 0)
(-0.00310807 -5.03387e-05 0)
(-0.00293339 -5.25662e-05 0)
(-0.00275179 -5.44523e-05 0)
(-0.00256448 -5.59717e-05 0)
(-0.00237273 -5.70996e-05 0)
(-0.00217789 -5.78134e-05 0)
(-0.00198138 -5.80916e-05 0)
(-0.00178469 -5.7914e-05 0)
(-0.00158936 -5.7262e-05 0)
(-0.00139698 -5.61188e-05 0)
(-0.0012092 -5.44688e-05 0)
(-0.00102769 -5.2298e-05 0)
(-0.000854146 -4.95951e-05 0)
(-0.000690288 -4.63517e-05 0)
(-0.000537827 -4.25629e-05 0)
(-0.000398457 -3.82284e-05 0)
(-0.000273825 -3.33539e-05 0)
(-0.000165501 -2.79544e-05 0)
(-7.49337e-05 -2.20595e-05 0)
(-3.38083e-06 -1.57219e-05 0)
(4.81942e-05 -9.03777e-06 0)
(7.92964e-05 -2.18359e-06 0)
(9.0178e-05 4.51144e-06 0)
(8.22562e-05 1.04314e-05 0)
(5.90395e-05 1.43964e-05 0)
(2.89197e-05 1.41879e-05 0)
(6.81264e-06 6.81001e-06 0)
(1.4515e-05 -2.94694e-05 0)
(5.11076e-05 -5.04739e-05 0)
(8.86119e-05 -4.34147e-05 0)
(0.000101957 -1.88034e-05 0)
(7.55935e-05 1.51964e-05 0)
(1.70588e-06 5.35608e-05 0)
(-0.000123371 9.32516e-05 0)
(-0.000300538 0.00013237 0)
(-0.000528756 0.000169781 0)
(-0.000805686 0.000204763 0)
(-0.00112812 0.000236891 0)
(-0.00149229 0.000265907 0)
(-0.00189406 0.000291671 0)
(-0.00232907 0.000314121 0)
(-0.00279287 0.000333245 0)
(-0.00328095 0.000349072 0)
(-0.00378882 0.000361663 0)
(-0.00431206 0.000371091 0)
(-0.00484632 0.000377448 0)
(-0.00538738 0.000380835 0)
(-0.00593113 0.000381361 0)
(-0.00647364 0.000379147 0)
(-0.0070111 0.000374313 0)
(-0.00753988 0.000366981 0)
(-0.00805653 0.00035728 0)
(-0.00855775 0.00034534 0)
(-0.00904043 0.000331289 0)
(-0.00950167 0.000315257 0)
(-0.00993871 0.000297374 0)
(-0.010349 0.000277775 0)
(-0.0107302 0.000256589 0)
(-0.0110801 0.000233952 0)
(-0.0113967 0.000209999 0)
(-0.0116783 0.000184866 0)
(-0.0119232 0.000158691 0)
(-0.0121301 0.000131611 0)
(-0.0122977 0.000103766 0)
(-0.0124251 7.53024e-05 0)
(-0.0125116 4.63659e-05 0)
(-0.0125565 1.71039e-05 0)
(-0.0125595 -1.23321e-05 0)
(-0.0125205 -4.17885e-05 0)
(-0.0124395 -7.11081e-05 0)
(-0.0123169 -0.000100131 0)
(-0.0121533 -0.000128695 0)
(-0.0119494 -0.000156638 0)
(-0.0117062 -0.000183795 0)
(-0.0114251 -0.000209995 0)
(-0.0111074 -0.000235069 0)
(-0.010755 -0.000258846 0)
(-0.0103698 -0.000281154 0)
(-0.00995406 -0.000301823 0)
(-0.00951023 -0.000320687 0)
(-0.009041 -0.000337581 0)
(-0.00854931 -0.000352341 0)
(-0.00803829 -0.000364807 0)
(-0.00751133 -0.000374823 0)
(-0.006972 -0.000382241 0)
(-0.00642406 -0.00038692 0)
(-0.00587148 -0.00038873 0)
(-0.00531836 -0.000387554 0)
(-0.00476898 -0.000383285 0)
(-0.00422773 -0.000375832 0)
(-0.0036991 -0.000365118 0)
(-0.00318765 -0.000351087 0)
(-0.00269799 -0.000333707 0)
(-0.0022347 -0.000312973 0)
(-0.00180232 -0.000288918 0)
(-0.00140526 -0.000261616 0)
(-0.00104772 -0.000231205 0)
(-0.000733615 -0.000197902 0)
(-0.000466368 -0.000162044 0)
(-0.000248757 -0.00012414 0)
(-8.26061e-05 -8.49703e-05 0)
(3.16448e-05 -4.57462e-05 0)
(9.55449e-05 -8.37735e-06 0)
(0.000113403 2.40912e-05 0)
(9.35626e-05 4.67715e-05 0)
(5.19777e-05 5.19083e-05 0)
(1.41959e-05 2.88988e-05 0)
(1.40751e-05 -5.85765e-05 0)
(4.38089e-05 -8.83531e-05 0)
(6.00458e-05 -5.938e-05 0)
(3.43873e-05 6.9485e-06 0)
(-5.12433e-05 9.53972e-05 0)
(-0.000206963 0.000195412 0)
(-0.00043802 0.000299813 0)
(-0.000746101 0.000403825 0)
(-0.00113018 0.000504251 0)
(-0.00158728 0.000598977 0)
(-0.00211303 0.000686604 0)
(-0.00270213 0.000766234 0)
(-0.00334857 0.000837306 0)
(-0.00404592 0.000899501 0)
(-0.00478752 0.000952683 0)
(-0.00556654 0.000996838 0)
(-0.00637612 0.00103205 0)
(-0.00720945 0.00105846 0)
(-0.00805981 0.00107629 0)
(-0.00892061 0.00108579 0)
(-0.00978546 0.00108722 0)
(-0.0106481 0.0010809 0)
(-0.0115027 0.00106715 0)
(-0.0123434 0.00104629 0)
(-0.0131647 0.00101869 0)
(-0.0139615 0.000984697 0)
(-0.0147289 0.000944671 0)
(-0.0154621 0.000898978 0)
(-0.0161568 0.000847991 0)
(-0.016809 0.000792085 0)
(-0.0174148 0.000731639 0)
(-0.0179709 0.000667036 0)
(-0.018474 0.000598663 0)
(-0.0189213 0.000526912 0)
(-0.0193104 0.000452177 0)
(-0.0196389 0.00037486 0)
(-0.0199049 0.000295369 0)
(-0.020107 0.000214116 0)
(-0.0202439 0.000131524 0)
(-0.0203147 4.8018e-05 0)
(-0.0203189 -3.59678e-05 0)
(-0.0202563 -0.000119989 0)
(-0.020127 -0.000203596 0)
(-0.0199316 -0.000286331 0)
(-0.019671 -0.000367733 0)
(-0.0193464 -0.000447332 0)
(-0.0189595 -0.000524654 0)
(-0.0185123 -0.000599221 0)
(-0.0180072 -0.000670549 0)
(-0.0174471 -0.000738153 0)
(-0.0168349 -0.000801551 0)
(-0.0161743 -0.000860265 0)
(-0.0154693 -0.00091382 0)
(-0.014724 -0.000961751 0)
(-0.0139431 -0.0010036 0)
(-0.0131316 -0.00103893 0)
(-0.0122949 -0.00106731 0)
(-0.0114384 -0.00108833 0)
(-0.0105683 -0.00110162 0)
(-0.00969071 -0.00110682 0)
(-0.00881202 -0.00110362 0)
(-0.00793894 -0.00109174 0)
(-0.0070783 -0.00107096 0)
(-0.00623707 -0.0010411 0)
(-0.00542228 -0.00100205 0)
(-0.00464101 -0.000953783 0)
(-0.00390024 -0.000896345 0)
(-0.00320684 -0.00082991 0)
(-0.00256741 -0.000754795 0)
(-0.00198816 -0.000671504 0)
(-0.00147473 -0.000580789 0)
(-0.00103197 -0.00048375 0)
(-0.000663641 -0.000381972 0)
(-0.000371976 -0.000277743 0)
(-0.000157179 -0.000174383 0)
(-1.66792e-05 -7.67438e-05 0)
(5.56648e-05 8.06618e-06 0)
(7.07193e-05 6.97462e-05 0)
(4.73129e-05 9.36247e-05 0)
(1.45034e-05 5.91083e-05 0)
(9.82854e-06 -8.00266e-05 0)
(1.98144e-05 -0.000102432 0)
(-4.88491e-06 -3.40933e-05 0)
(-9.06805e-05 9.31406e-05 0)
(-0.00025545 0.000256802 0)
(-0.000509991 0.000440518 0)
(-0.000860137 0.000632535 0)
(-0.0013078 0.000824603 0)
(-0.00185184 0.00101093 0)
(-0.00248878 0.00118751 0)
(-0.00321337 0.00135154 0)
(-0.00401911 0.00150115 0)
(-0.00489856 0.0016351 0)
(-0.00584365 0.00175265 0)
(-0.00684587 0.00185338 0)
(-0.0078965 0.00193715 0)
(-0.00898669 0.00200401 0)
(-0.0101076 0.00205418 0)
(-0.0112504 0.00208798 0)
(-0.0124065 0.00210584 0)
(-0.0135675 0.00210825 0)
(-0.0147252 0.00209574 0)
(-0.0158716 0.00206891 0)
(-0.0169992 0.00202839 0)
(-0.0181007 0.00197482 0)
(-0.0191692 0.00190887 0)
(-0.0201979 0.00183124 0)
(-0.0211809 0.00174262 0)
(-0.0221121 0.00164374 0)
(-0.0229862 0.0015353 0)
(-0.0237982 0.00141805 0)
(-0.0245433 0.00129274 0)
(-0.0252175 0.0011601 0)
(-0.0258167 0.00102091 0)
(-0.0263377 0.00087593 0)
(-0.0267776 0.000725948 0)
(-0.0271337 0.000571759 0)
(-0.027404 0.000414169 0)
(-0.0275869 0.000253996 0)
(-0.0276812 9.2073e-05 0)
(-0.0276862 -7.07533e-05 0)
(-0.0276016 -0.000233621 0)
(-0.0274278 -0.000395655 0)
(-0.0271654 -0.000555967 0)
(-0.0268156 -0.000713661 0)
(-0.0263802 -0.000867826 0)
(-0.0258613 -0.00101754 0)
(-0.0252618 -0.00116189 0)
(-0.0245848 -0.00129993 0)
(-0.023834 -0.00143073 0)
(-0.0230137 -0.00155337 0)
(-0.0221287 -0.00166692 0)
(-0.0211841 -0.00177048 0)
(-0.0201857 -0.00186316 0)
(-0.0191396 -0.00194408 0)
(-0.0180525 -0.00201241 0)
(-0.0169315 -0.00206733 0)
(-0.015784 -0.0021081 0)
(-0.0146179 -0.002134 0)
(-0.0134414 -0.00214437 0)
(-0.0122629 -0.00213866 0)
(-0.0110914 -0.00211637 0)
(-0.00993562 -0.00207709 0)
(-0.00880482 -0.00202056 0)
(-0.00770812 -0.00194661 0)
(-0.00665469 -0.00185527 0)
(-0.00565356 -0.00174671 0)
(-0.00471351 -0.00162139 0)
(-0.00384292 -0.00148001 0)
(-0.00304962 -0.00132368 0)
(-0.00234063 -0.00115397 0)
(-0.00172186 -0.000973106 0)
(-0.00119782 -0.000784203 0)
(-0.000771113 -0.000591571 0)
(-0.000441887 -0.000401209 0)
(-0.000207157 -0.000221481 0)
(-6.0034e-05 -6.40291e-05 0)
(1.12532e-05 5.51608e-05 0)
(2.56337e-05 0.000114394 0)
(1.07603e-05 8.28072e-05 0)
(3.85489e-06 -8.55458e-05 0)
(-1.31945e-05 -7.7559e-05 0)
(-9.15068e-05 5.03364e-05 0)
(-0.000251849 0.000257471 0)
(-0.000509827 0.000514859 0)
(-0.000875763 0.000800653 0)
(-0.00135514 0.00109865 0)
(-0.00194955 0.00139701 0)
(-0.00265741 0.00168711 0)
(-0.00347468 0.00196277 0)
(-0.00439533 0.00221954 0)
(-0.00541183 0.00245433 0)
(-0.00651555 0.00266501 0)
(-0.00769705 0.00285022 0)
(-0.00894633 0.00300915 0)
(-0.010253 0.00314142 0)
(-0.0116066 0.00324702 0)
(-0.0129965 0.00332616 0)
(-0.0144122 0.00337928 0)
(-0.0158432 0.00340697 0)
(-0.0172792 0.00340996 0)
(-0.0187105 0.00338906 0)
(-0.0201274 0.00334518 0)
(-0.0215205 0.00327929 0)
(-0.0228809 0.00319241 0)
(-0.0242003 0.00308558 0)
(-0.0254705 0.00295991 0)
(-0.0266838 0.00281651 0)
(-0.0278332 0.00265652 0)
(-0.0289119 0.00248112 0)
(-0.0299138 0.00229147 0)
(-0.0308331 0.00208879 0)
(-0.0316647 0.00187428 0)
(-0.0324038 0.00164917 0)
(-0.0330462 0.00141473 0)
(-0.0335885 0.00117221 0)
(-0.0340273 0.00092291 0)
(-0.0343603 0.000668133 0)
(-0.0345853 0.000409209 0)
(-0.0347011 0.000147487 0)
(-0.0347067 -0.000115658 0)
(-0.0346018 -0.000378832 0)
(-0.0343867 -0.000640621 0)
(-0.0340625 -0.000899591 0)
(-0.0336305 -0.00115429 0)
(-0.033093 -0.00140325 0)
(-0.0324526 -0.00164498 0)
(-0.0317128 -0.00187801 0)
(-0.0308775 -0.00210082 0)
(-0.0299512 -0.00231193 0)
(-0.0289393 -0.00250985 0)
(-0.0278475 -0.0026931 0)
(-0.0266823 -0.00286024 0)
(-0.0254506 -0.00300983 0)
(-0.0241601 -0.00314051 0)
(-0.0228187 -0.00325094 0)
(-0.0214353 -0.00333984 0)
(-0.0200188 -0.00340603 0)
(-0.0185789 -0.00344839 0)
(-0.0171256 -0.00346593 0)
(-0.0156691 -0.00345776 0)
(-0.01422 -0.00342316 0)
(-0.0127892 -0.00336154 0)
(-0.0113877 -0.00327253 0)
(-0.0100265 -0.00315596 0)
(-0.00871643 -0.00301195 0)
(-0.00746838 -0.00284093 0)
(-0.00629271 -0.00264369 0)
(-0.00519933 -0.00242153 0)
(-0.00419738 -0.00217633 0)
(-0.00329502 -0.00191072 0)
(-0.00249912 -0.00162834 0)
(-0.00181487 -0.00133409 0)
(-0.00124535 -0.0010346 0)
(-0.000790996 -0.000738797 0)
(-0.000449004 -0.000458674 0)
(-0.00021265 -0.000210339 0)
(-7.04508e-05 -1.51394e-05 0)
(-5.39372e-06 9.88063e-05 0)
(5.17329e-06 9.18913e-05 0)
(-2.72677e-06 -7.22278e-05 0)
(-5.05961e-05 -5.99588e-06 0)
(-0.000190086 0.000204233 0)
(-0.000434237 0.000511299 0)
(-0.000794965 0.000880714 0)
(-0.00128115 0.00128585 0)
(-0.00189721 0.00170637 0)
(-0.00264385 0.00212696 0)
(-0.00351875 0.00253619 0)
(-0.00451708 0.00292555 0)
(-0.00563198 0.00328882 0)
(-0.00685499 0.00362151 0)
(-0.0081764 0.00392047 0)
(-0.00958556 0.00418358 0)
(-0.0110712 0.00440951 0)
(-0.0126215 0.0045976 0)
(-0.0142246 0.00474764 0)
(-0.0158683 0.00485984 0)
(-0.0175405 0.00493472 0)
(-0.0192293 0.00497303 0)
(-0.0209228 0.00497574 0)
(-0.0226097 0.00494396 0)
(-0.0242787 0.00487895 0)
(-0.025919 0.00478207 0)
(-0.0275204 0.00465474 0)
(-0.029073 0.00449848 0)
(-0.0305672 0.00431485 0)
(-0.0319944 0.00410545 0)
(-0.033346 0.00387193 0)
(-0.0346144 0.00361598 0)
(-0.0357921 0.00333931 0)
(-0.0368727 0.00304366 0)
(-0.0378499 0.0027308 0)
(-0.0387183 0.00240252 0)
(-0.0394731 0.00206066 0)
(-0.0401099 0.00170707 0)
(-0.0406253 0.00134362 0)
(-0.0410161 0.000972221 0)
(-0.0412801 0.00059482 0)
(-0.0414156 0.000213386 0)
(-0.0414217 -0.000170079 0)
(-0.0412979 -0.000553542 0)
(-0.0410448 -0.000934941 0)
(-0.0406634 -0.00131219 0)
(-0.0401555 -0.00168317 0)
(-0.0395236 -0.00204576 0)
(-0.0387708 -0.00239779 0)
(-0.0379013 -0.00273711 0)
(-0.0369196 -0.00306154 0)
(-0.0358311 -0.00336893 0)
(-0.0346418 -0.00365713 0)
(-0.0333587 -0.00392401 0)
(-0.0319891 -0.00416747 0)
(-0.0305413 -0.00438548 0)
(-0.029024 -0.00457604 0)
(-0.0274467 -0.00473727 0)
(-0.0258194 -0.00486734 0)
(-0.0241528 -0.00496456 0)
(-0.0224578 -0.00502738 0)
(-0.0207461 -0.00505439 0)
(-0.0190295 -0.00504438 0)
(-0.0173202 -0.00499634 0)
(-0.0156309 -0.00490952 0)
(-0.013974 -0.00478346 0)
(-0.0123621 -0.00461802 0)
(-0.0108078 -0.00441348 0)
(-0.00932339 -0.00417056 0)
(-0.00792058 -0.00389057 0)
(-0.00661061 -0.00357548 0)
(-0.00540381 -0.00322811 0)
(-0.0043094 -0.00285233 0)
(-0.00333512 -0.00245335 0)
(-0.00248695 -0.00203805 0)
(-0.00176864 -0.00161549 0)
(-0.00118126 -0.00119757 0)
(-0.00072277 -0.000799815 0)
(-0.00038733 -0.000442504 0)
(-0.000164668 -0.000151769 0)
(-4.10933e-05 3.88234e-05 0)
(-1.11544e-06 8.30564e-05 0)
(-9.39424e-06 -3.8836e-05 0)
(-8.96799e-05 0.000116354 0)
(-0.000294375 0.000433759 0)
(-0.000627752 0.000861807 0)
(-0.00109718 0.00136173 0)
(-0.00170944 0.00190289 0)
(-0.0024673 0.00246131 0)
(-0.00337009 0.0030185 0)
(-0.00441439 0.00356029 0)
(-0.0055944 0.00407593 0)
(-0.00690231 0.00455736 0)
(-0.00832866 0.00499863 0)
(-0.00986271 0.00539545 0)
(-0.0114927 0.00574486 0)
(-0.0132063 0.00604496 0)
(-0.0149903 0.00629467 0)
(-0.0168316 0.00649359 0)
(-0.0187167 0.00664186 0)
(-0.0206321 0.00674004 0)
(-0.0225646 0.00678906 0)
(-0.0245009 0.00679013 0)
(-0.0264281 0.00674467 0)
(-0.0283339 0.00665431 0)
(-0.0302061 0.00652082 0)
(-0.0320331 0.00634611 0)
(-0.0338037 0.00613218 0)
(-0.0355073 0.00588112 0)
(-0.037134 0.00559509 0)
(-0.0386743 0.0052763 0)
(-0.0401193 0.00492704 0)
(-0.0414609 0.00454962 0)
(-0.0426915 0.0041464 0)
(-0.0438043 0.0037198 0)
(-0.044793 0.00327226 0)
(-0.0456522 0.00280625 0)
(-0.0463771 0.00232431 0)
(-0.0469635 0.001829 0)
(-0.0474081 0.00132291 0)
(-0.0477083 0.000808701 0)
(-0.0478623 0.000289048 0)
(-0.0478689 -0.000233319 0)
(-0.0477277 -0.000755634 0)
(-0.0474394 -0.00127509 0)
(-0.047005 -0.00178885 0)
(-0.0464266 -0.00229404 0)
(-0.0457071 -0.00278777 0)
(-0.0448501 -0.00326711 0)
(-0.0438601 -0.00372914 0)
(-0.0427424 -0.00417091 0)
(-0.041503 -0.00458952 0)
(-0.0401489 -0.00498204 0)
(-0.0386877 -0.00534561 0)
(-0.0371278 -0.00567743 0)
(-0.0354785 -0.00597473 0)
(-0.0337496 -0.00623485 0)
(-0.0319519 -0.00645526 0)
(-0.0300965 -0.00663354 0)
(-0.0281954 -0.00676743 0)
(-0.026261 -0.00685488 0)
(-0.0243062 -0.00689404 0)
(-0.0223444 -0.00688335 0)
(-0.0203893 -0.00682152 0)
(-0.0184547 -0.00670761 0)
(-0.0165547 -0.00654109 0)
(-0.0147034 -0.00632191 0)
(-0.0129146 -0.00605052 0)
(-0.0112019 -0.00572804 0)
(-0.00957836 -0.00535634 0)
(-0.00805643 -0.00493818 0)
(-0.00664751 -0.00447745 0)
(-0.00536183 -0.00397934 0)
(-0.0042081 -0.00345072 0)
(-0.00319319 -0.00290052 0)
(-0.00232175 -0.00234025 0)
(-0.00159586 -0.00178466 0)
(-0.00101469 -0.00125258 0)
(-0.000573883 -0.000768009 0)
(-0.000265059 -0.00036115 0)
(-7.87058e-05 -6.98986e-05 0)
(-7.53901e-06 5.49555e-05 0)
(-1.58955e-05 1.48808e-05 0)
(-0.000128955 0.000291281 0)
(-0.000400476 0.000742125 0)
(-0.000825755 0.00131312 0)
(-0.00140719 0.00196236 0)
(-0.00214897 0.00265601 0)
(-0.00305178 0.00336702 0)
(-0.00411321 0.00407409 0)
(-0.00532844 0.00476055 0)
(-0.00669046 0.00541352 0)
(-0.00819032 0.00602314 0)
(-0.00981755 0.00658198 0)
(-0.0115603 0.00708462 0)
(-0.0134059 0.00752719 0)
(-0.0153406 0.00790715 0)
(-0.0173504 0.008223 0)
(-0.0194208 0.00847408 0)
(-0.0215373 0.00866043 0)
(-0.023685 0.00878265 0)
(-0.0258495 0.00884182 0)
(-0.0280163 0.00883938 0)
(-0.0301715 0.00877709 0)
(-0.0323012 0.00865698 0)
(-0.0343923 0.00848126 0)
(-0.0364318 0.00825234 0)
(-0.0384077 0.00797276 0)
(-0.0403082 0.00764519 0)
(-0.0421222 0.0072724 0)
(-0.0438394 0.00685723 0)
(-0.0454501 0.00640262 0)
(-0.0469452 0.00591155 0)
(-0.0483164 0.00538709 0)
(-0.0495561 0.00483234 0)
(-0.0506574 0.00425048 0)
(-0.0516143 0.00364473 0)
(-0.0524215 0.00301836 0)
(-0.0530745 0.00237468 0)
(-0.0535696 0.00171709 0)
(-0.0539038 0.00104901 0)
(-0.0540752 0.000373931 0)
(-0.0540824 -0.000304617 0)
(-0.0539253 -0.000983044 0)
(-0.0536042 -0.00165772 0)
(-0.0531206 -0.00232496 0)
(-0.0524767 -0.00298105 0)
(-0.0516756 -0.00362224 0)
(-0.0507215 -0.00424476 0)
(-0.0496191 -0.00484483 0)
(-0.0483745 -0.00541865 0)
(-0.0469942 -0.00596246 0)
(-0.0454858 -0.00647253 0)
(-0.0438579 -0.00694515 0)
(-0.0421197 -0.00737671 0)
(-0.0402814 -0.00776369 0)
(-0.0383538 -0.00810268 0)
(-0.0363487 -0.00839043 0)
(-0.0342784 -0.00862387 0)
(-0.032156 -0.00880013 0)
(-0.0299952 -0.00891662 0)
(-0.02781 -0.00897102 0)
(-0.0256152 -0.00896138 0)
(-0.0234257 -0.00888612 0)
(-0.0212567 -0.00874413 0)
(-0.0191235 -0.00853483 0)
(-0.0170415 -0.00825823 0)
(-0.0150258 -0.00791506 0)
(-0.0130911 -0.00750684 0)
(-0.0112518 -0.00703607 0)
(-0.00952141 -0.00650639 0)
(-0.00791237 -0.00592276 0)
(-0.00643599 -0.00529179 0)
(-0.00510202 -0.00462203 0)
(-0.0039184 -0.00392442 0)
(-0.00289092 -0.00321282 0)
(-0.00202298 -0.00250466 0)
(-0.00131534 -0.00182174 0)
(-0.000765581 -0.00119126 0)
(-0.000367643 -0.000646753 0)
(-0.000116648 -0.000229356 0)
(-1.38253e-05 7.24102e-06 0)
(-2.21268e-05 8.86227e-05 0)
(-0.000167576 0.000519072 0)
(-0.00050607 0.00113048 0)
(-0.00102406 0.0018671 0)
(-0.00171883 0.00268488 0)
(-0.00259178 0.00354755 0)
(-0.00364115 0.00442555 0)
(-0.00486254 0.00529518 0)
(-0.00624943 0.00613757 0)
(-0.00779338 0.00693787 0)
(-0.00948423 0.00768452 0)
(-0.0113103 0.00836871 0)
(-0.0132587 0.00898385 0)
(-0.0153155 0.00952521 0)
(-0.0174661 0.00998957 0)
(-0.0196954 0.010375 0)
(-0.0219876 0.0106805 0)
(-0.0243272 0.0109061 0)
(-0.0266984 0.0110523 0)
(-0.0290853 0.0111205 0)
(-0.0314727 0.0111122 0)
(-0.0338453 0.0110296 0)
(-0.0361882 0.0108751 0)
(-0.0384873 0.0106515 0)
(-0.0407286 0.0103616 0)
(-0.0428989 0.0100086 0)
(-0.0449857 0.00959571 0)
(-0.0469768 0.00912642 0)
(-0.0488612 0.00860426 0)
(-0.0506282 0.00803285 0)
(-0.052268 0.00741593 0)
(-0.0537717 0.00675731 0)
(-0.0551309 0.00606086 0)
(-0.0563383 0.00533055 0)
(-0.0573873 0.0045704 0)
(-0.0582721 0.00378451 0)
(-0.0589878 0.00297704 0)
(-0.0595305 0.00215221 0)
(-0.059897 0.00131431 0)
(-0.060085 0.000467708 0)
(-0.0600933 -0.000383177 0)
(-0.0599214 -0.00123386 0)
(-0.05957 -0.0020798 0)
(-0.0590405 -0.00291641 0)
(-0.0583354 -0.00373903 0)
(-0.0574581 -0.004543 0)
(-0.056413 -0.00532362 0)
(-0.0552054 -0.00607616 0)
(-0.0538416 -0.00679591 0)
(-0.052329 -0.00747818 0)
(-0.0506757 -0.00811833 0)
(-0.0488908 -0.00871177 0)
(-0.0469846 -0.00925402 0)
(-0.0449678 -0.0097407 0)
(-0.0428524 -0.0101676 0)
(-0.0406509 -0.0105307 0)
(-0.0383767 -0.0108263 0)
(-0.036044 -0.0110507 0)
(-0.0336674 -0.0112009 0)
(-0.0312623 -0.0112741 0)
(-0.0288444 -0.0112677 0)
(-0.0264298 -0.0111801 0)
(-0.024035 -0.0110099 0)
(-0.0216764 -0.0107564 0)
(-0.0193706 -0.0104197 0)
(-0.0171338 -0.010001 0)
(-0.0149821 -0.00950206 0)
(-0.0129307 -0.00892614 0)
(-0.0109944 -0.00827773 0)
(-0.00918667 -0.00756293 0)
(-0.00752005 -0.00678973 0)
(-0.00600539 -0.00596834 0)
(-0.00465185 -0.00511164 0)
(-0.00346659 -0.00423566 0)
(-0.00245459 -0.00336028 0)
(-0.00161851 -0.00250991 0)
(-0.000958134 -0.00171442 0)
(-0.000470017 -0.00100996 0)
(-0.000154053 -0.000440003 0)
(-1.98561e-05 -5.9862e-05 0)
(-2.80528e-05 0.000181842 0)
(-0.000205138 0.000799114 0)
(-0.00060982 0.00159862 0)
(-0.00122009 0.00252405 0)
(-0.00202823 0.00353001 0)
(-0.00303265 0.00457842 0)
(-0.00422903 0.00563776 0)
(-0.00561071 0.00668235 0)
(-0.00716931 0.00769141 0)
(-0.00889481 0.00864836 0)
(-0.0107756 0.00954009 0)
(-0.0127988 0.0103565 0)
(-0.0149502 0.0110899 0)
(-0.0172149 0.0117347 0)
(-0.0195771 0.012287 0)
(-0.0220207 0.0127446 0)
(-0.024529 0.013106 0)
(-0.0270852 0.0133712 0)
(-0.0296725 0.0135408 0)
(-0.0322742 0.0136162 0)
(-0.0348738 0.0135994 0)
(-0.0374552 0.0134927 0)
(-0.0400026 0.013299 0)
(-0.0425006 0.0130217 0)
(-0.0449346 0.012664 0)
(-0.0472904 0.0122299 0)
(-0.0495545 0.0117231 0)
(-0.0517142 0.011148 0)
(-0.0537574 0.0105086 0)
(-0.0556728 0.00980947 0)
(-0.05745 0.00905506 0)
(-0.0590793 0.00825 0)
(-0.0605519 0.00739901 0)
(-0.0618599 0.00650689 0)
(-0.0629962 0.00557853 0)
(-0.0639547 0.00461891 0)
(-0.0647301 0.0036331 0)
(-0.0653181 0.00262622 0)
(-0.0657154 0.0016035 0)
(-0.0659196 0.00057025 0)
(-0.0659293 -0.000468165 0)
(-0.065744 -0.00150629 0)
(-0.0653645 -0.00253861 0)
(-0.0647922 -0.00355955 0)
(-0.0640298 -0.00456346 0)
(-0.063081 -0.00554468 0)
(-0.0619503 -0.0064975 0)
(-0.0606436 -0.0074162 0)
(-0.0591676 -0.00829508 0)
(-0.05753 -0.00912845 0)
(-0.0557396 -0.0099107 0)
(-0.0538062 -0.0106363 0)
(-0.0517405 -0.0112998 0)
(-0.0495543 -0.0118959 0)
(-0.0472601 -0.0124197 0)
(-0.0448714 -0.0128661 0)
(-0.0424025 -0.0132308 0)
(-0.0398684 -0.0135095 0)
(-0.0372848 -0.0136984 0)
(-0.0346682 -0.0137941 0)
(-0.0320351 -0.0137939 0)
(-0.029403 -0.0136955 0)
(-0.0267892 -0.0134976 0)
(-0.0242113 -0.0131993 0)
(-0.021687 -0.0128009 0)
(-0.0192337 -0.0123037 0)
(-0.0168685 -0.01171 0)
(-0.0146078 -0.0110238 0)
(-0.0124675 -0.0102505 0)
(-0.0104623 -0.00939711 0)
(-0.00860583 -0.0084731 0)
(-0.00691032 -0.00749024 0)
(-0.00538627 -0.00646321 0)
(-0.00404241 -0.00541006 0)
(-0.00288548 -0.00435281 0)
(-0.00192026 -0.00331812 0)
(-0.00114894 -0.00233807 0)
(-0.000570811 -0.00145081 0)
(-0.00019048 -0.000701374 0)
(-2.55923e-05 -0.000145839 0)
(-3.36765e-05 0.000293857 0)
(-0.000241465 0.00113032 0)
(-0.000711045 0.00214555 0)
(-0.00141243 0.00328328 0)
(-0.00233304 0.00449735 0)
(-0.00346832 0.00574845 0)
(-0.00481129 0.00700359 0)
(-0.00635291 0.00823545 0)
(-0.00808276 0.00942168 0)
(-0.00998908 0.0105442 0)
(-0.0120587 0.0115885 0)
(-0.0142774 0.0125433 0)
(-0.0166297 0.0134 0)
(-0.0190995 0.0141522 0)
(-0.02167 0.0147954 0)
(-0.0243238 0.0153268 0)
(-0.0270434 0.015745 0)
(-0.0298109 0.0160496 0)
(-0.0326085 0.0162414 0)
(-0.0354187 0.0163219 0)
(-0.0382239 0.0162933 0)
(-0.041007 0.0161584 0)
(-0.0437515 0.0159206 0)
(-0.0464411 0.0155836 0)
(-0.0490602 0.0151514 0)
(-0.051594 0.0146285 0)
(-0.0540281 0.0140195 0)
(-0.0563491 0.0133293 0)
(-0.0585442 0.0125629 0)
(-0.0606015 0.0117255 0)
(-0.0625099 0.0108225 0)
(-0.0642592 0.00985925 0)
(-0.06584 0.00884148 0)
(-0.067244 0.00777485 0)
(-0.0684637 0.00666517 0)
(-0.0694926 0.00551836 0)
(-0.0703251 0.00434045 0)
(-0.0709567 0.00313753 0)
(-0.0713838 0.00191581 0)
(-0.0716039 0.000681607 0)
(-0.0716155 -0.000558701 0)
(-0.0714182 -0.00179864 0)
(-0.0710125 -0.00303164 0)
(-0.0704002 -0.00425108 0)
(-0.0695841 -0.00545029 0)
(-0.0685678 -0.0066225 0)
(-0.0673565 -0.00776097 0)
(-0.065956 -0.00885892 0)
(-0.0643736 -0.00990957 0)
(-0.0626175 -0.0109062 0)
(-0.0606968 -0.0118421 0)
(-0.0586219 -0.0127109 0)
(-0.0564043 -0.0135059 0)
(-0.0540561 -0.0142212 0)
(-0.0515908 -0.0148505 0)
(-0.0490225 -0.0153884 0)
(-0.0463664 -0.0158293 0)
(-0.0436383 -0.0161684 0)
(-0.040855 -0.0164012 0)
(-0.0380335 -0.0165238 0)
(-0.0351917 -0.016533 0)
(-0.0323478 -0.0164261 0)
(-0.0295203 -0.0162016 0)
(-0.0267278 -0.0158586 0)
(-0.0239891 -0.0153974 0)
(-0.0213226 -0.0148196 0)
(-0.0187466 -0.014128 0)
(-0.0162786 -0.0133272 0)
(-0.0139357 -0.0124233 0)
(-0.0117339 -0.0114246 0)
(-0.00968806 -0.0103417 0)
(-0.00781174 -0.00918791 0)
(-0.00611705 -0.00797953 0)
(-0.00461438 -0.00673643 0)
(-0.00331245 -0.00548252 0)
(-0.00221828 -0.00424636 0)
(-0.00133656 -0.00306179 0)
(-0.000669327 -0.00196849 0)
(-0.000225747 -0.0010125 0)
(-3.1035e-05 -0.000250052 0)
(-3.90262e-05 0.00042398 0)
(-0.000276532 0.00151137 0)
(-0.000809477 0.0027698 0)
(-0.00160039 0.00414344 0)
(-0.00263204 0.00558581 0)
(-0.003897 0.0070568 0)
(-0.00538556 0.00852232 0)
(-0.00708624 0.0099538 0)
(-0.0089865 0.0113276 0)
(-0.0110727 0.0126243 0)
(-0.01333 0.0138284 0)
(-0.0157427 0.0149275 0)
(-0.0182941 0.0159121 0)
(-0.0209667 0.016775 0)
(-0.0237427 0.0175114 0)
(-0.0266035 0.018118 0)
(-0.0295306 0.0185931 0)
(-0.0325051 0.0189364 0)
(-0.0355085 0.0191487 0)
(-0.0385219 0.0192316 0)
(-0.0415273 0.0191878 0)
(-0.0445065 0.0190203 0)
(-0.0474421 0.0187331 0)
(-0.0503171 0.0183304 0)
(-0.0531153 0.017817 0)
(-0.0558208 0.0171978 0)
(-0.0584188 0.0164783 0)
(-0.0608952 0.0156641 0)
(-0.0632364 0.014761 0)
(-0.0654301 0.0137752 0)
(-0.0674645 0.0127127 0)
(-0.0693291 0.0115801 0)
(-0.0710139 0.0103839 0)
(-0.0725101 0.0091306 0)
(-0.07381 0.00782711 0)
(-0.0749067 0.0064803 0)
(-0.0757943 0.00509719 0)
(-0.0764681 0.00368493 0)
(-0.0769244 0.00225074 0)
(-0.0771604 0.000801997 0)
(-0.0771745 -0.000653855 0)
(-0.0769664 -0.00210926 0)
(-0.0765366 -0.00355656 0)
(-0.0758869 -0.00498804 0)
(-0.07502 -0.00639589 0)
(-0.0739401 -0.00777227 0)
(-0.0726523 -0.00910928 0)
(-0.0711629 -0.010399 0)
(-0.0694793 -0.0116337 0)
(-0.0676101 -0.0128053 0)
(-0.065565 -0.0139063 0)
(-0.0633547 -0.0149289 0)
(-0.0609913 -0.0158657 0)
(-0.0584875 -0.0167095 0)
(-0.0558574 -0.0174533 0)
(-0.0531159 -0.0180905 0)
(-0.0502788 -0.018615 0)
(-0.0473628 -0.019021 0)
(-0.0443852 -0.0193033 0)
(-0.0413644 -0.0194574 0)
(-0.0383188 -0.0194796 0)
(-0.0352677 -0.019367 0)
(-0.0322305 -0.0191176 0)
(-0.029227 -0.0187305 0)
(-0.0262769 -0.0182061 0)
(-0.0233997 -0.0175462 0)
(-0.0206148 -0.0167541 0)
(-0.017941 -0.0158347 0)
(-0.0153965 -0.0147952 0)
(-0.0129986 -0.0136448 0)
(-0.0107637 -0.0123953 0)
(-0.00870676 -0.0110613 0)
(-0.00684156 -0.00966054 0)
(-0.00518033 -0.00821462 0)
(-0.00373384 -0.00674903 0)
(-0.00251142 -0.00529392 0)
(-0.00152034 -0.00388458 0)
(-0.000765309 -0.00256178 0)
(-0.000259828 -0.00137219 0)
(-3.62052e-05 -0.00037184 0)
(-4.41291e-05 0.000571539 0)
(-0.000310392 0.00194087 0)
(-0.000905105 0.00346971 0)
(-0.00178376 0.00510288 0)
(-0.00292476 0.00679387 0)
(-0.00431787 0.00850214 0)
(-0.00595068 0.0101928 0)
(-0.00780924 0.0118364 0)
(-0.00987881 0.0134081 0)
(-0.0121438 0.0148877 0)
(-0.0145876 0.0162585 0)
(-0.017193 0.0175074 0)
(-0.0199419 0.0186241 0)
(-0.0228154 0.0196008 0)
(-0.0257946 0.0204322 0)
(-0.0288598 0.0211148 0)
(-0.0319914 0.0216467 0)
(-0.0351696 0.0220275 0)
(-0.0383748 0.0222582 0)
(-0.0415875 0.0223407 0)
(-0.0447886 0.0222778 0)
(-0.0479592 0.0220733 0)
(-0.0510811 0.0217313 0)
(-0.0541366 0.0212568 0)
(-0.0571087 0.0206551 0)
(-0.0599809 0.0199321 0)
(-0.0627378 0.0190939 0)
(-0.0653646 0.0181469 0)
(-0.0678472 0.0170978 0)
(-0.0701728 0.0159536 0)
(-0.0723291 0.0147215 0)
(-0.074305 0.0134086 0)
(-0.0760903 0.0120226 0)
(-0.0776758 0.010571 0)
(-0.0790533 0.00906175 0)
(-0.0802157 0.00750268 0)
(-0.0811569 0.00590189 0)
(-0.081872 0.00426757 0)
(-0.0823569 0.00260805 0)
(-0.0826089 0.000931793 0)
(-0.0826264 -0.000752642 0)
(-0.0824088 -0.00243657 0)
(-0.0819567 -0.0041112 0)
(-0.0812718 -0.00576767 0)
(-0.0803573 -0.00739701 0)
(-0.0792171 -0.0089902 0)
(-0.0778566 -0.0105382 0)
(-0.0762824 -0.0120319 0)
(-0.0745021 -0.0134624 0)
(-0.0725246 -0.0148206 0)
(-0.0703601 -0.0160975 0)
(-0.0680197 -0.0172846 0)
(-0.0655157 -0.0183732 0)
(-0.0628617 -0.019355 0)
(-0.0600722 -0.0202222 0)
(-0.0571626 -0.020967 0)
(-0.0541496 -0.0215825 0)
(-0.0510504 -0.022062 0)
(-0.0478833 -0.0223996 0)
(-0.0446673 -0.0225903 0)
(-0.0414218 -0.0226297 0)
(-0.0381669 -0.0225144 0)
(-0.0349232 -0.0222423 0)
(-0.0317112 -0.0218123 0)
(-0.0285517 -0.0212248 0)
(-0.0254655 -0.0204817 0)
(-0.022473 -0.0195868 0)
(-0.0195942 -0.0185455 0)
(-0.0168488 -0.0173656 0)
(-0.0142553 -0.0160574 0)
(-0.0118315 -0.0146336 0)
(-0.00959416 -0.01311 0)
(-0.00755873 -0.0115059 0)
(-0.00573939 -0.00984412 0)
(-0.00414902 -0.00815157 0)
(-0.00279935 -0.00645976 0)
(-0.00170016 -0.00480512 0)
(-0.000858781 -0.00322925 0)
(-0.000292789 -0.00177919 0)
(-4.11338e-05 -0.000510568 0)
(-4.90145e-05 0.000735916 0)
(-0.000343148 0.00241746 0)
(-0.000998078 0.00424356 0)
(-0.00196269 0.00615979 0)
(-0.00321125 0.00811983 0)
(-0.00473083 0.0100829 0)
(-0.00650638 0.0120137 0)
(-0.00852147 0.0138819 0)
(-0.0107591 0.0156621 0)
(-0.0132017 0.0173332 0)
(-0.0158309 0.0188777 0)
(-0.0186278 0.0202817 0)
(-0.0215727 0.0215345 0)
(-0.0246456 0.0226278 0)
(-0.0278261 0.0235558 0)
(-0.0310936 0.0243148 0)
(-0.0344273 0.0249029 0)
(-0.0378065 0.0253199 0)
(-0.0412106 0.0255666 0)
(-0.0446193 0.0256454 0)
(-0.0480125 0.0255594 0)
(-0.0513708 0.0253129 0)
(-0.054675 0.0249106 0)
(-0.057907 0.0243581 0)
(-0.0610488 0.0236613 0)
(-0.0640837 0.022827 0)
(-0.0669953 0.0218619 0)
(-0.0697684 0.0207735 0)
(-0.0723886 0.0195692 0)
(-0.0748423 0.018257 0)
(-0.077117 0.016845 0)
(-0.0792011 0.0153413 0)
(-0.0810841 0.0137547 0)
(-0.0827564 0.0120936 0)
(-0.0842095 0.0103671 0)
(-0.0854361 0.00858395 0)
(-0.0864298 0.00675347 0)
(-0.0871854 0.00488491 0)
(-0.0876989 0.00298773 0)
(-0.0879673 0.00107152 0)
(-0.0879889 -0.000854013 0)
(-0.0877631 -0.00277901 0)
(-0.0872904 -0.00469351 0)
(-0.0865728 -0.00658744 0)
(-0.0856131 -0.00845066 0)
(-0.0844157 -0.0102729 0)
(-0.082986 -0.012044 0)
(-0.0813307 -0.0137536 0)
(-0.0794577 -0.0153914 0)
(-0.0773762 -0.0169473 0)
(-0.0750967 -0.0184112 0)
(-0.0726305 -0.0197732 0)