/*--------------------------------*- C++ -*----------------------------------*\
  =========                 |
  \\      /  F ield         | OpenFOAM: The Open Source CFD Toolbox
   \\    /   O peration     | Website:  https://openfoam.org
    \\  /    A nd           | Version:  7
     \\/     M anipulation  |
\*---------------------------------------------------------------------------*/
FoamFile
{
    version     2.0;
    format      ascii;
    class       volScalarField;
    location    "3.4";
    object      p;
}
// * * * * * * * * * * * * * * * * * * * * * * * * * * * * * * * * * * * * * //

dimensions      [1 -1 -2 0 0 0 0];

internalField   nonuniform List<scalar> 
64512
(
1
1
1
1
1
1
1
1
1
1
1
1
1
1
1
1
1
1
1
1
1
1
1
1
1
1
1
1
1
1
1
1
1
1
1
1
1
1
1
1
1
1
1
1
1
1
1
1
1
6.50413
10.3902
10.453
10.4997
10.5575
10.6153
10.6751
10.7352
10.7938
10.8495
10.9025
10.9542
11.0061
11.0581
11.1092
11.158
11.2035
11.2465
11.2891
11.3331
11.3786
11.4246
11.4678
11.5059
11.5397
11.5718
11.6032
11.6347
11.6677
11.7035
11.7417
11.7802
11.8165
11.8481
11.874
11.8955
11.9144
11.9328
11.9511
11.9695
11.9871
12.0038
12.0192
12.0328
12.0439
12.0518
12.0576
1
1
1
1
1
1
1
1
1
1
1
1
1
1
1
1
1
1
1
1
1
1
1
1
1
1
1
1
1
1
1
1
1
1
1
1
1
1
1
1
1
1
1
1
1
1
1
1
1
6.45497
10.3789
10.4527
10.498
10.5567
10.6146
10.6747
10.7347
10.7931
10.8489
10.9019
10.9536
11.0054
11.0574
11.1082
11.1567
11.202
11.2449
11.2874
11.3313
11.3767
11.4225
11.4655
11.5037
11.5378
11.5702
11.6019
11.6337
11.6668
11.7023
11.74
11.7779
11.8137
11.845
11.871
11.8926
11.9116
11.9298
11.9481
11.9662
11.9838
12.0004
12.0158
12.0294
12.0405
12.0483
12.0541
1
1
1
1
1
1
1
1
1
1
1
1
1
1
1
1
1
1
1
1
1
1
1
1
1
1
1
1
1
1
1
1
1
1
1
1
1
1
1
1
1
1
1
1
1
1
1
1
1
6.35617
10.3726
10.4474
10.4929
10.5533
10.6118
10.6723
10.7324
10.791
10.8467
10.8996
10.9513
11.0031
11.0551
11.1056
11.1537
11.1989
11.2416
11.284
11.3279
11.373
11.4186
11.4614
11.4998
11.5343
11.5672
11.5994
11.6316
11.6648
11.7001
11.7371
11.7743
11.8093
11.8402
11.8662
11.888
11.9071
11.9253
11.9432
11.961
11.9783
11.9949
12.0102
12.0239
12.035
12.0429
12.0487
1
1
1
1
1
1
1
1
1
1
1
1
1
1
1
1
1
1
1
1
1
1
1
1
1
1
1
1
1
1
1
1
1
1
1
1
1
1
1
1
1
1
1
1
1
1
1
1
1
6.21319
10.362
10.4418
10.4875
10.5494
10.608
10.669
10.7294
10.7881
10.8439
10.8966
10.9479
10.9994
11.0511
11.1011
11.1488
11.1938
11.2364
11.2786
11.3224
11.3671
11.4125
11.4552
11.494
11.5291
11.5627
11.5956
11.6281
11.6615
11.6963
11.7324
11.7684
11.8026
11.8331
11.8592
11.8813
11.9006
11.9186
11.9361
11.9534
11.9703
11.9867
12.002
12.0157
12.0267
12.0346
12.0404
1
1
1
1
1
1
1
1
1
1
1
1
1
1
1
1
1
1
1
1
1
1
1
1
1
1
1
1
1
1
1
1
1
1
1
1
1
1
1
1
1
1
1
1
1
1
1
1
1
6.02513
10.3452
10.4349
10.4817
10.5445
10.603
10.6644
10.7252
10.7843
10.8403
10.8927
10.9433
10.9941
11.0453
11.0947
11.1421
11.1871
11.2295
11.2716
11.3151
11.3593
11.4047
11.4473
11.4866
11.5225
11.5569
11.5903
11.6231
11.6563
11.6905
11.7255
11.7604
11.7936
11.8238
11.8502
11.8727
11.8923
11.9101
11.9271
11.9437
11.9602
11.9763
11.9915
12.005
12.0159
12.0237
12.0294
1
1
1
1
1
1
1
1
1
1
1
1
1
1
1
1
1
1
1
1
1
1
1
1
1
1
1
1
1
1
1
1
1
1
1
1
1
1
1
1
1
1
1
1
1
1
1
1
1
5.79189
10.3194
10.4277
10.4765
10.5393
10.5973
10.6588
10.7197
10.779
10.8354
10.8876
10.9375
10.9874
11.0377
11.0864
11.1333
11.1784
11.221
11.2628
11.3061
11.3499
11.3951
11.4379
11.4777
11.5145
11.5495
11.5834
11.6163
11.6491
11.6824
11.7162
11.7498
11.7821
11.8121
11.8388
11.8619
11.8817
11.8993
11.9157
11.9318
11.9478
11.9637
11.9787
11.9921
12.0028
12.0105
12.0161
1
1
1
1
1
1
1
1
1
1
1
1
1
1
1
1
1
1
1
1
1
1
1
1
1
1
1
1
1
1
1
1
1
1
1
1
1
1
1
1
1
1
1
1
1
1
1
1
1
5.51535
10.2797
10.4205
10.4721
10.5342
10.5914
10.6522
10.7126
10.7719
10.8285
10.881
10.9302
10.9792
11.0285
11.0766
11.1228
11.1679
11.2104
11.2521
11.2952
11.3388
11.3838
11.4268
11.4672
11.5048
11.5403
11.5745
11.6071
11.6394
11.6716
11.7041
11.7365
11.7681
11.798
11.8251
11.8487
11.8688
11.8862
11.902
11.9175
11.9332
11.9489
11.9638
11.9771
11.9878
11.9953
12.001
1
1
1
1
1
1
1
1
1
1
1
1
1
1
1
1
1
1
1
1
1
1
1
1
1
1
1
1
1
1
1
1
1
1
1
1
1
1
1
1
1
1
1
1
1
1
1
1
1
5.19988
10.2205
10.4141
10.4673
10.5281
10.585
10.6451
10.7045
10.763
10.8194
10.8719
10.9208
10.9692
11.0179
11.0655
11.1111
11.1561
11.1988
11.2404
11.2834
11.3269
11.3716
11.4147
11.4555
11.4938
11.5294
11.5635
11.5957
11.627
11.658
11.6893
11.7207
11.7517
11.7815
11.8089
11.833
11.8533
11.8705
11.8858
11.9008
11.9161
11.9315
11.9462
11.9592
11.9697
11.9772
11.9829
1
1
1
1
1
1
1
1
1
1
1
1
1
1
1
1
1
1
1
1
1
1
1
1
1
1
1
1
1
1
1
1
1
1
1
1
1
1
1
1
1
1
1
1
1
1
1
1
1
4.85248
10.1356
10.4074
10.4615
10.5211
10.5777
10.6371
10.6956
10.7529
10.8086
10.8608
10.9093
10.9571
11.0055
11.053
11.098
11.1428
11.1856
11.2272
11.2702
11.3136
11.3579
11.4013
11.4423
11.4811
11.5168
11.5507
11.5823
11.6128
11.6427
11.6729
11.7033
11.7338
11.7634
11.791
11.8152
11.8355
11.8524
11.8673
11.8818
11.8967
11.9117
11.9261
11.9388
11.9491
11.9565
11.9622
1
1
1
1
1
1
1
1
1
1
1
1
1
1
1
1
1
1
1
1
1
1
1
1
1
1
1
1
1
1
1
1
1
1
1
1
1
1
1
1
1
1
1
1
1
1
1
1
1
4.47832
10.0244
10.3987
10.4522
10.5119
10.5691
10.6283
10.686
10.7419
10.7962
10.8481
10.8964
10.9436
10.9917
11.0391
11.0839
11.1283
11.1712
11.2126
11.2554
11.2987
11.3423
11.3857
11.4267
11.4657
11.501
11.5345
11.5654
11.5951
11.624
11.6534
11.6833
11.7134
11.7427
11.7702
11.7943
11.8146
11.8314
11.8462
11.8605
11.875
11.8897
11.9037
11.9161
11.9264
11.9336
11.9393
1
1
1
1
1
1
1
1
1
1
1
1
1
1
1
1
1
1
1
1
1
1
1
1
1
1
1
1
1
1
1
1
1
1
1
1
1
1
1
1
1
1
1
1
1
1
1
1
1
4.07936
9.88522
10.3881
10.4402
10.5008
10.5588
10.6181
10.6755
10.7306
10.7836
10.835
10.8831
10.93
10.9778
11.0253
11.0702
11.1139
11.1569
11.1981
11.2404
11.2832
11.3258
11.3688
11.4091
11.4477
11.4823
11.5151
11.5451
11.574
11.6023
11.6313
11.6609
11.6905
11.7195
11.7465
11.7704
11.7906
11.8075
11.8224
11.8365
11.8507
11.865
11.8786
11.8906
11.9008
11.908
11.9137
1
1
1
1
1
1
1
1
1
1
1
1
1
1
1
1
1
1
1
1
1
1
1
1
1
1
1
1
1
1
1
1
1
1
1
1
1
1
1
1
1
1
1
1
1
1
1
1
1
3.65819
9.71224
10.3746
10.4247
10.4871
10.546
10.6054
10.6625
10.7172
10.7694
10.8201
10.8682
10.9147
10.9621
11.0098
11.0549
11.0981
11.1412
11.1823
11.2242
11.2665
11.3083
11.3508
11.3901
11.4281
11.4619
11.4937
11.5227
11.5508
11.5786
11.6071
11.6364
11.6655
11.6936
11.7199
11.7434
11.7635
11.7807
11.7957
11.8098
11.8237
11.8375
11.8506
11.8624
11.8725
11.8795
11.8851
1
1
1
1
1
1
1
1
1
1
1
1
1
1
1
1
1
1
1
1
1
1
1
1
1
1
1
1
1
1
1
1
1
1
1
1
1
1
1
1
1
1
1
1
1
1
1
1
1
3.22195
9.49869
10.3612
10.4081
10.4722
10.5311
10.5904
10.6472
10.7014
10.7533
10.8035
10.8519
10.8979
10.9449
10.9929
11.0383
11.0813
11.1243
11.1652
11.2065
11.2481
11.2889
11.3305
11.3688
11.4061
11.439
11.4699
11.4981
11.5257
11.5531
11.5812
11.6098
11.6381
11.6651
11.6904
11.7133
11.7334
11.7507
11.7659
11.7798
11.7933
11.8067
11.8194
11.8309
11.841
11.8479
11.8535
1
1
1
1
1
1
1
1
1
1
1
1
1
1
1
1
1
1
1
1
1
1
1
1
1
1
1
1
1
1
1
1
1
1
1
1
1
1
1
1
1
1
1
1
1
1
1
1
1
2.77432
9.22813
10.3562
10.3979
10.4611
10.518
10.5763
10.632
10.6857
10.7372
10.7872
10.8357
10.8817
10.9274
10.9745
11.0197
11.062
11.1044
11.145
11.1856
11.2266
11.2668
11.3076
11.3449
11.3815
11.4138
11.4437
11.4712
11.4984
11.5255
11.5531
11.5811
11.6083
11.6341
11.6583
11.6806
11.7004
11.7178
11.733
11.7467
11.7597
11.7725
11.7848
11.796
11.8061
11.8128
11.8183
1
1
1
1
1
1
1
1
1
1
1
1
1
1
1
1
1
1
1
1
1
1
1
1
1
1
1
1
1
1
1
1
1
1
1
1
1
1
1
1
1
1
1
1
1
1
1
1
1
2.33027
8.88366
10.3654
10.3889
10.4511
10.5048
10.5615
10.6166
10.6701
10.7212
10.7707
10.8188
10.8649
10.9101
10.9563
11.0012
11.0429
11.0842
11.1243
11.1638
11.2038
11.2428
11.2822
11.3182
11.3538
11.3854
11.4147
11.4419
11.4688
11.4957
11.5227
11.5498
11.5758
11.6003
11.6233
11.6448
11.6643
11.6817
11.6968
11.7102
11.7226
11.7347
11.7465
11.7576
11.7675
11.774
11.7794
1
1
1
1
1
1
1
1
1
1
1
1
1
1
1
1
1
1
1
1
1
1
1
1
1
1
1
1
1
1
1
1
1
1
1
1
1
1
1
1
1
1
1
1
1
1
1
1
1
1.90181
8.44997
10.3823
10.3927
10.4452
10.4932
10.5465
10.5998
10.6523
10.703
10.7519
10.7999
10.8469
10.8917
10.9374
10.9818
11.0231
11.0632
11.1026
11.1407
11.1793
11.2167
11.2545
11.2893
11.3238
11.355
11.3839
11.4108
11.4374
11.4637
11.4897
11.5154
11.54
11.5631
11.5851
11.606
11.6253
11.6427
11.6577
11.6706
11.6821
11.6933
11.7044
11.715
11.7244
11.7307
11.7359
1
1
1
1
1
1
1
1
1
1
1
1
1
1
1
1
1
1
1
1
1
1
1
1
1
1
1
1
1
1
1
1
1
1
1
1
1
1
1
1
1
1
1
1
1
1
1
1
1
1.52562
7.94668
10.4127
10.3776
10.4282
10.4732
10.5255
10.5797
10.6328
10.6835
10.7317
10.7785
10.8251
10.8703
10.9157
10.9599
11.001
11.0401
11.0789
11.1158
11.1533
11.189
11.225
11.2588
11.2921
11.3229
11.3514
11.3778
11.4035
11.4288
11.4535
11.4777
11.5009
11.5228
11.5437
11.5639
11.5829
11.6
11.6146
11.6269
11.6375
11.6477
11.658
11.668
11.677
11.6831
11.688
1
1
1
1
1
1
1
1
1
1
1
1
1
1
1
1
1
1
1
1
1
1
1
1
1
1
1
1
1
1
1
1
1
1
1
1
1
1
1
1
1
1
1
1
1
1
1
1
1
1.21238
7.34756
10.4004
10.3685
10.406
10.4515
10.5023
10.5547
10.607
10.658
10.7073
10.7549
10.8011
10.8461
10.891
10.9351
10.9764
11.0148
11.0528
11.0888
11.1252
11.1596
11.1937
11.2269
11.2591
11.2893
11.3171
11.3427
11.3672
11.3912
11.4145
11.437
11.4587
11.4793
11.4991
11.5184
11.5368
11.5535
11.5677
11.5793
11.5889
11.5979
11.6071
11.6162
11.6242
11.6297
11.6342
1
1
1
1
1
1
1
1
1
1
1
1
1
1
1
1
1
1
1
1
1
1
1
1
1
1
1
1
1
1
1
1
1
1
1
1
1
1
1
1
1
1
1
1
1
1
1
1
1
1.01069
6.69167
10.2991
10.318
10.3618
10.4157
10.4719
10.5294
10.5846
10.6359
10.6829
10.7283
10.7733
10.8182
10.8626
10.9065
10.9479
10.986
11.0231
11.0586
11.094
11.1278
11.1602
11.1929
11.224
11.2538
11.2807
11.3054
11.3285
11.351
11.3726
11.3935
11.4134
11.4323
11.4506
11.4687
11.4862
11.5023
11.5157
11.5265
11.5351
11.5429
11.551
11.5589
11.5661
11.571
11.575
1
1
1
1
1
1
1
1
1
1
1
1
1
1
1
1
1
1
1
1
1
1
1
1
1
1
1
1
1
1
1
1
1
1
1
1
1
1
1
1
1
1
1
1
1
1
1
1
1
1.00006
5.9233
10.1649
10.2751
10.3315
10.3906
10.4437
10.4974
10.5504
10.6017
10.6506
10.6968
10.7409
10.7852
10.8292
10.8733
10.9154
10.9537
10.9902
11.0255
11.0598
11.0933
11.1246
11.1565
11.1868
11.2159
11.2418
11.2655
11.2872
11.308
11.328
11.347
11.365
11.382
11.3985
11.415
11.4312
11.4462
11.4588
11.4686
11.4763
11.4829
11.4894
11.4954
11.5011
11.5049
11.5081
1
1
1
1
1
1
1
1
1
1
1
1
1
1
1
1
1
1
1
1
1
1
1
1
1
1
1
1
1
1
1
1
1
1
1
1
1
1
1
1
1
1
1
1
1
1
1
1
1
1
5.0788
9.98393
10.2278
10.2938
10.3621
10.4215
10.4782
10.5319
10.5819
10.6275
10.6699
10.7119
10.7536
10.7957
10.8382
10.8799
10.9185
10.9544
10.9891
11.0224
11.0557
11.0862
11.1172
11.1467
11.1751
11.1999
11.2224
11.2429
11.2623
11.2805
11.2976
11.3133
11.3281
11.3423
11.3567
11.371
11.3843
11.3955
11.4041
11.4105
11.4161
11.421
11.4251
11.4292
11.4319
11.4343
1
1
1
1
1
1
1
1
1
1
1
1
1
1
1
1
1
1
1
1
1
1
1
1
1
1
1
1
1
1
1
1
1
1
1
1
1
1
1
1
1
1
1
1
1
1
1
1
1
1
4.20408
9.74742
10.1957
10.2755
10.3383
10.3951
10.4498
10.503
10.5543
10.6012
10.644
10.6845
10.7241
10.7632
10.8025
10.843
10.8799
10.9151
10.9495
10.9815
11.0141
11.0445
11.0744
11.1033
11.1308
11.1547
11.1761
11.1954
11.2134
11.2299
11.2448
11.2581
11.2704
11.282
11.2937
11.3056
11.3167
11.3261
11.3334
11.3385
11.3427
11.3453
11.3469
11.3483
11.3491
11.3501
1
1
1
1
1
1
1
1
1
1
1
1
1
1
1
1
1
1
1
1
1
1
1
1
1
1
1
1
1
1
1
1
1
1
1
1
1
1
1
1
1
1
1
1
1
1
1
1
1
1
3.35669
9.39503
10.1957
10.2566
10.3239
10.3836
10.4363
10.4844
10.5304
10.5732
10.6137
10.6534
10.6924
10.7306
10.7684
10.8061
10.8437
10.8749
10.9075
10.9382
10.9696
10.9997
11.0284
11.0566
11.0828
11.1059
11.1261
11.1443
11.1609
11.1756
11.1884
11.1992
11.2086
11.2173
11.2258
11.2343
11.2424
11.2493
11.2543
11.2576
11.2595
11.2595
11.2588
11.2579
11.257
11.2569
1
1
1
1
1
1
1
1
1
1
1
1
1
1
1
1
1
1
1
1
1
1
1
1
1
1
1
1
1
1
1
1
1
1
1
1
1
1
1
1
1
1
1
1
1
1
1
1
1
1
2.54985
8.86721
10.2168
10.261
10.3175
10.3603
10.407
10.4575
10.5065
10.5499
10.5891
10.6254
10.6604
10.6956
10.7312
10.7669
10.8025
10.8362
10.8648
10.8934
10.9215
10.9511
10.9787
11.0057
11.0307
11.053
11.0722
11.0892
11.1044
11.1173
11.128
11.1362
11.1426
11.1478
11.1524
11.1569
11.1613
11.1651
11.1677
11.1688
11.1677
11.1644
11.1598
11.1549
11.151
11.1487
1
1
1
1
1
1
1
1
1
1
1
1
1
1
1
1
1
1
1
1
1
1
1
1
1
1
1
1
1
1
1
1
1
1
1
1
1
1
1
1
1
1
1
1
1
1
1
1
1
1
1.77897
8.24923
10.3179
10.2439
10.2957
10.3404
10.3898
10.4372
10.4796
10.5199
10.5591
10.5964
10.6315
10.6645
10.6966
10.7289
10.7612
10.7925
10.8216
10.8473
10.8733
10.8996
10.9256
10.9511
10.9747
10.996
11.0141
11.0299
11.0434
11.0547
11.0633
11.0686
11.0717
11.0729
11.0732
11.073
11.0729
11.0725
11.071
11.0676
11.0619
11.0542
11.0457
11.0376
11.0314
11.0281
1
1
1
1
1
1
1
1
1
1
1
1
1
1
1
1
1
1
1
1
1
1
1
1
1
1
1
1
1
1
1
1
1
1
1
1
1
1
1
1
1
1
1
1
1
1
1
1
1
1
1.16612
7.41613
10.3784
10.2696
10.274
10.3038
10.3508
10.4011
10.4488
10.4916
10.5296
10.5648
10.5982
10.6306
10.6618
10.6923
10.7223
10.7508
10.7773
10.801
10.8224
10.846
10.8706
10.893
10.9148
10.9347
10.9516
10.966
10.9779
10.9876
10.9938
10.9961
10.9956
10.9924
10.9877
10.9821
10.9766
10.9708
10.964
10.9556
10.9449
10.9316
10.9167
10.9019
10.8902
10.8828
1
1
1
1
1
1
1
1
1
1
1
1
1
1
1
1
1
1
1
1
1
1
1
1
1
1
1
1
1
1
1
1
1
1
1
1
1
1
1
1
1
1
1
1
1
1
1
1
1
1
1.00412
6.46587
10.1583
10.1332
10.208
10.2631
10.3164
10.3638
10.4109
10.4575
10.4971
10.5316
10.564
10.5955
10.6254
10.654
10.6821
10.709
10.7336
10.7552
10.7739
10.7913
10.8124
10.8333
10.8521
10.8695
10.8849
10.8976
10.9076
10.9154
10.9189
10.9182
10.9135
10.9057
10.8954
10.8838
10.872
10.8594
10.8453
10.8285
10.8084
10.7855
10.7619
10.7409
10.7255
10.7178
1
1
1
1
1
1
1
1
1
1
1
1
1
1
1
1
1
1
1
1
1
1
1
1
1
1
1
1
1
1
1
1
1
1
1
1
1
1
1
1
1
1
1
1
1
1
1
1
1
1
1
5.31066
9.90521
10.091
10.177
10.2324
10.2861
10.337
10.3828
10.4198
10.4568
10.4929
10.5258
10.5568
10.5862
10.614
10.6406
10.6657
10.6885
10.7084
10.7251
10.7396
10.7545
10.7716
10.7877
10.8018
10.8146
10.8251
10.8328
10.8381
10.8386
10.8346
10.8255
10.8125
10.7961
10.7778
10.7584
10.7371
10.7132
10.6861
10.6555
10.6225
10.5878
10.553
10.5234
10.5038
1
1
1
1
1
1
1
1
1
1
1
1
1
1
1
1
1
1
1
1
1
1
1
1
1
1
1
1
1
1
1
1
1
1
1
1
1
1
1
1
1
1
1
1
1
1
1
1
1
1
1
4.20522
9.59954
10.0374
10.1232
10.2019
10.2571
10.3021
10.3418
10.3812
10.4181
10.4507
10.483
10.5142
10.5436
10.5711
10.5967
10.6204
10.6419
10.66
10.6749
10.6869
10.6979
10.7105
10.7225
10.7327
10.7419
10.7493
10.7541
10.7562
10.7528
10.745
10.731
10.7125
10.6894
10.6635
10.635
10.6034
10.5674
10.5264
10.4789
10.4247
10.3667
10.312
10.2685
10.2504
1
1
1
1
1
1
1
1
1
1
1
1
1
1
1
1
1
1
1
1
1
1
1
1
1
1
1
1
1
1
1
1
1
1
1
1
1
1
1
1
1
1
1
1
1
1
1
1
1
1
1
3.13393
9.07682
10.018
10.123
10.195
10.2419
10.28
10.3121
10.3452
10.3769
10.4083
10.439
10.4682
10.4969
10.5242
10.5495
10.5722
10.5926
10.6097
10.6231
10.6332
10.6408
10.6488
10.6572
10.663
10.6678
10.6713
10.6728
10.6702
10.6625
10.6499
10.6306
10.6059
10.5754
10.5409
10.5019
10.4576
10.4061
10.3461
10.2768
10.1999
10.1182
10.0355
9.94821
9.87497
1
1
1
1
1
1
1
1
1
1
1
1
1
1
1
1
1
1
1
1
1
1
1
1
1
1
1
1
1
1
1
1
1
1
1
1
1
1
1
1
1
1
1
1
1
1
1
1
1
1
1
2.06216
8.34241
10.1662
10.1364
10.1654
10.1997
10.2386
10.2778
10.3119
10.3426
10.3701
10.3956
10.4217
10.4482
10.4741
10.4987
10.5209
10.5403
10.5566
10.5691
10.5776
10.5825
10.5862
10.5904
10.5923
10.5924
10.5913
10.5887
10.5806
10.5681
10.5497
10.5245
10.4927
10.4542
10.4098
10.3586
10.2993
10.2294
10.1475
10.0511
9.93712
9.79759
9.6325
9.47029
9.35448
1
1
1
1
1
1
1
1
1
1
1
1
1
1
1
1
1
1
1
1
1
1
1
1
1
1
1
1
1
1
1
1
1
1
1
1
1
1
1
1
1
1
1
1
1
1
1
1
1
1
1
1.19385
7.4413
10.2858
10.145
10.1218
10.1536
10.1986
10.2399
10.2744
10.3052
10.333
10.3575
10.3792
10.401
10.4241
10.4467
10.4673
10.4854
10.5009
10.5123
10.5196
10.5224
10.523
10.5225
10.5203
10.516
10.5102
10.5018
10.4889
10.4706
10.4459
10.4137
10.374
10.3265
10.2709
10.2059
10.1297
10.0387
9.92925
9.79509
9.62886
9.42518
9.18234
8.92234
8.75314
1
1
1
1
1
1
1
1
1
1
1
1
1
1
1
1
1
1
1
1
1
1
1
1
1
1
1
1
1
1
1
1
1
1
1
1
1
1
1
1
1
1
1
1
1
1
1
1
1
1
1
1.0043
6.29179
9.994
9.98932
10.0613
10.1088
10.1559
10.2006
10.2362
10.267
10.2936
10.3172
10.338
10.3571
10.376
10.3952
10.4132
10.4292
10.4429
10.453
10.4589
10.4601
10.4577
10.4534
10.447
10.438
10.4268
10.4125
10.3941
10.3701
10.3387
10.299
10.2506
10.1929
10.125
10.045
9.95004
9.83514
9.69478
9.51991
9.29913
9.00405
8.56556
7.73061
5.7733
1
1
1
1
1
1
1
1
1
1
1
1
1
1
1
1
1
1
1
1
1
1
1
1
1
1
1
1
1
1
1
1
1
1
1
1
1
1
1
1
1
1
1
1
1
1
1
1
1
1
1
0.999974
4.87207
9.62688
9.93916
10.0354
10.081
10.1193
10.1596
10.1947
10.2253
10.2512
10.2738
10.2938
10.3117
10.3285
10.3445
10.3597
10.373
10.3839
10.3924
10.3962
10.3957
10.3907
10.3829
10.3724
10.3586
10.342
10.322
10.2976
10.2675
10.2295
10.1818
10.1241
10.0552
9.97403
9.8778
9.76297
9.62305
9.44974
9.2299
8.93844
8.53221
7.89223
6.93404
4.73229
1
1
1
1
1
1
1
1
1
1
1
1
1
1
1
1
1
1
1
1
1
1
1
1
1
1
1
1
1
1
1
1
1
1
1
1
1
1
1
1
1
1
1
1
1
1
1
1
1
1
1
0.999994
3.55616
9.18908
9.93749
10.0051
10.058
10.0989
10.1224
10.1501
10.1791
10.2051
10.2275
10.247
10.2642
10.2796
10.2934
10.3057
10.3161
10.324
10.3303
10.3316
10.3291
10.3214
10.3103
10.2958
10.2777
10.2557
10.2298
10.1992
10.1624
10.1175
10.062
9.99477
9.91443
9.81958
9.7069
9.57192
9.40695
9.20167
8.93782
8.59074
8.09649
7.44366
6.18097
4.34823
1
1
1
1
1
1
1
1
1
1
1
1
1
1
1
1
1
1
1
1
1
1
1
1
1
1
1
1
1
1
1
1
1
1
1
1
1
1
1
1
1
1
1
1
1
1
1
1
1
1
1
0.999999
2.26425
8.44136
10.0211
10.0013
10.0293
10.0596
10.087
10.1142
10.1396
10.163
10.1835
10.2011
10.2165
10.23
10.2416
10.2516
10.2594
10.2645
10.2675
10.2666
10.2617
10.2513
10.2365
10.2177
10.1952
10.1684
10.1368
10.1
10.0564
10.0042
9.94086
9.86435
9.77266
9.66427
9.53537
9.3811
9.19226
8.95922
8.65849
8.27157
7.72924
6.98801
5.75535
4.26429
1
1
1
1
1
1
1
1
1
1
1
1
1
1
1
1
1
1
1
1
1
1
1
1
1
1
1
1
1
1
1
1
1
1
1
1
1
1
1
1
1
1
1
1
1
1
1
1
1
1
1
1
1.22336
7.46594
10.1556
10.0279
9.99199
10.0116
10.0464
10.074
10.0985
10.12
10.1383
10.1537
10.1672
10.1786
10.1882
10.1961
10.2015
10.204
10.2039
10.2003
10.1929
10.1798
10.1613
10.1382
10.111
10.0796
10.0429
10.0001
9.94963
9.88973
9.81804
9.73269
9.63062
9.50996
9.36603
9.19455
8.98482
8.7282
8.4014
7.98147
7.42609
6.64803
5.55459
4.35632
1
1
1
1
1
1
1
1
1
1
1
1
1
1
1
1
1
1
1
1
1
1
1
1
1
1
1
1
1
1
1
1
1
1
1
1
1
1
1
1
1
1
1
1
1
1
1
1
1
1
1
1
1.00541
6.12945
9.79852
9.84934
9.9157
9.95606
9.99819
10.0284
10.0542
10.0755
10.0925
10.1062
10.1178
10.1269
10.1344
10.1402
10.1432
10.1434
10.1399
10.1335
10.1236
10.1082
10.0862
10.0588
10.0265
9.98992
9.94816
9.89966
9.84246
9.77517
9.69544
9.60161
9.49007
9.35887
9.2016
9.01531
8.7888
8.51334
8.16982
7.73234
7.17637
6.42371
5.49876
4.50343
1
1
1
1
1
1
1
1
1
1
1
1
1
1
1
1
1
1
1
1
1
1
1
1
1
1
1
1
1
1
1
1
1
1
1
1
1
1
1
1
1
1
1
1
1
1
1
1
1
1
1
1
0.999957
4.51871
9.39548
9.8089
9.89482
9.93695
9.95905
9.98502
10.0096
10.0301
10.0462
10.0585
10.068
10.0747
10.0799
10.0834
10.0839
10.0815
10.0751
10.0658
10.053
10.035
10.0101
9.97885
9.94175
9.89979
9.85292
9.79908
9.73582
9.66163
9.57424
9.4723
9.35198
9.21157
9.04388
8.84574
8.60694
8.31865
7.96616
7.52636
6.97549
6.29481
5.50703
4.64286
1
1
1
1
1
1
1
1
1
1
1
1
1
1
1
1
1
1
1
1
1
1
1
1
1
1
1
1
1
1
1
1
1
1
1
1
1
1
1
1
1
1
1
1
1
1
1
1
1
1
1
1
0.999989
2.9611
8.81682
9.85555
9.8852
9.90025
9.92074
9.9445
9.96569
9.98426
9.99905
10.01
10.0177
10.0221
10.025
10.0262
10.0242
10.0192
10.0102
9.99783
9.98194
9.96129
9.93395
9.89949
9.85814
9.81071
9.75797
9.69848
9.62949
9.54915
9.45506
9.34598
9.21833
9.0696
8.89403
8.68716
8.4403
8.14489
7.79092
7.35786
6.82736
6.21704
5.5296
4.77759
1
1
1
1
1
1
1
1
1
1
1
1
1
1
1
1
1
1
1
1
1
1
1
1
1
1
1
1
1
1
1
1
1
1
1
1
1
1
1
1
1
1
1
1
1
1
1
1
1
1
1
1
0.999998
1.63915
7.99817
9.94759
9.84828
9.84361
9.87763
9.90354
9.92323
9.93986
9.95284
9.96218
9.968
9.96988
9.9703
9.969
9.96448
9.95674
9.94512
9.9297
9.91059
9.8869
9.8569
9.81947
9.7744
9.72236
9.66392
9.59884
9.5247
9.43916
9.33945
9.22413
9.09023
8.93457
8.7529
8.53995
8.28919
7.99177
7.6423
7.2212
6.72384
6.17366
5.56045
4.90273
1
1
1
1
1
1
1
1
1
1
1
1
1
1
1
1
1
1
1
1
1
1
1
1
1
1
1
1
1
1
1
1
1
1
1
1
1
1
1
1
1
1
1
1
1
1
1
1
1
1
1
1
1
1.04601
6.62169
9.8318
9.77288
9.79206
9.82889
9.85712
9.87709
9.89308
9.90519
9.91367
9.91745
9.91746
9.9156
9.91188
9.90496
9.89442
9.88014
9.86168
9.83938
9.81256
9.77992
9.73987
9.69155
9.63555
9.57206
9.50127
9.42173
9.33137
9.22697
9.10657
8.96754
8.80681
8.62103
8.40466
8.15272
7.85679
7.51819
7.11215
6.64986
6.15309
5.59624
5.02387
1
1
1
1
1
1
1
1
1
1
1
1
1
1
1
1
1
1
1
1
1
1
1
1
1
1
1
1
1
1
1
1
1
1
1
1
1
1
1
1
1
1
1
1
1
1
1
1
1
1
1
1
1
1.00008
4.80264
9.34291
9.67474
9.75894
9.80161
9.81753
9.83251
9.84639
9.85749
9.86467
9.86666
9.86492
9.86079
9.85464
9.84547
9.83232
9.81546
9.79408
9.76866
9.73875
9.70336
9.6607
9.60937
9.54953
9.48153
9.40606
9.32161
9.22701
9.11887
8.99454
8.8514
8.68695
8.4986
8.28134
8.03055
7.73862
7.41553
7.0228
6.59753
6.14919
5.6357
5.13038
1
1
1
1
1
1
1
1
1
1
1
1
1
1
1
1
1
1
1
1
1
1
1
1
1
1
1
1
1
1
1
1
1
1
1
1
1
1
1
1
1
1
1
1
1
1
1
1
1
1
1
1
1
0.999999
3.01707
8.82713
9.74786
9.75865
9.76228
9.77475
9.79019
9.80228
9.81195
9.8172
9.8175
9.81378
9.80719
9.79835
9.7867
9.77104
9.7515
9.72735
9.69871
9.6656
9.62728
9.58209
9.52822
9.46537
9.39353
9.31383
9.22516
9.12642
9.01462
8.88713
8.74103
8.5743
8.38484
8.16865
7.92138
7.63746
7.32565
6.94899
6.56725
6.15073
5.67095
5.21948
1
1
1
1
1
1
1
1
1
1
1
1
1
1
1
1
1
1
1
1
1
1
1
1
1
1
1
1
1
1
1
1
1
1
1
1
1
1
1
1
1
1
1
1
1
1
1
1
1
1
1
1
1
1
1.55497
7.92902
9.87524
9.73197
9.70146
9.72269
9.74239
9.75475
9.76374
9.768
9.76721
9.76189
9.75319
9.74181
9.72772
9.70981
9.68772
9.6611
9.62961
9.59351
9.55228
9.50463
9.44857
9.38331
9.30834
9.22453
9.13192
9.02981
8.91489
8.78501
8.63706
8.46933
8.27989
8.0659
7.82408
7.55021
7.24532
6.8938
6.54704
6.14702
5.70929
5.30162
1
1
1
1
1
1
1
1
1
1
1
1
1
1
1
1
1
1
1
1
1
1
1
1
1
1
1
1
1
1
1
1
1
1
1
1
1
1
1
1
1
1
1
1
1
1
1
1
1
1
1
1
1
1
1.03208
6.41299
9.58371
9.58882
9.6354
9.66937
9.69212
9.70597
9.71514
9.71917
9.71768
9.71103
9.70035
9.68642
9.66968
9.64931
9.62477
9.59582
9.56172
9.52276
9.47848
9.42809
9.36985
9.30267
9.22553
9.13875
9.04257
8.93691
8.81933
8.68774
8.5386
8.37103
8.1829
7.97201
7.73661
7.47188
7.17694
6.85543
6.52536
6.14133
5.75655
5.37834
1
1
1
1
1
1
1
1
1
1
1
1
1
1
1
1
1
1
1
1
1
1
1
1
1
1
1
1
1
1
1
1
1
1
1
1
1
1
1
1
1
1
1
1
1
1
1
1
1
1
1
1
1
1
0.99998
4.43388
9.13348
9.53107
9.60876
9.6427
9.65551
9.66216
9.66797
9.67026
9.66755
9.65963
9.64721
9.63102
9.61176
9.58898
9.56213
9.53103
9.49466
9.45317
9.4061
9.35305
9.29275
9.22405
9.14548
9.05672
8.95763
8.84834
8.72782
8.59495
8.44592
8.2796
8.0937
7.88634
7.65757
7.40243
7.12224
6.8206
6.50088
6.14513
5.80469
5.44025
1
1
1
1
1
1
1
1
1
1
1
1
1
1
1
1
1
1
1
1
1
1
1
1
1
1
1
1
1
1
1
1
1
1
1
1
1
1
1
1
1
1
1
1
1
1
1
1
1
1
1
1
1
1
0.99999
2.5074
8.48871
9.63291
9.60776
9.60684
9.61554
9.62121
9.62377
9.62333
9.61866
9.60914
9.59489
9.57649
9.55469
9.52937
9.50019
9.467
9.42858
9.38488
9.33529
9.27966
9.21703
9.14667
9.06697
8.97706
8.87616
8.76423
8.64118
8.50662
8.358
8.19403
8.01184
7.80752
7.587
7.34097
7.0713
6.7868
6.48764
6.16121
5.83924
5.4857
1
1
1
1
1
1
1
1
1
1
1
1
1
1
1
1
1
1
1
1
1
1
1
1
1
1
1
1
1
1
1
1
1
1
1
1
1
1
1
1
1
1
1
1
1
1
1
1
1
1
1
1
1
1
0.999998
1.20303
7.23542
9.70894
9.58271
9.55432
9.5651
9.57379
9.57566
9.57416
9.56831
9.55777
9.54227
9.52215
9.49821
9.47049
9.4391
9.40388
9.36353
9.31787
9.26607
9.20812
9.14335
9.07137
8.99072
8.9002
8.79839
8.68497
8.5601
8.42402
8.27542
8.11361
7.93599
7.73575
7.52333
7.28261
7.0261
6.76764
6.47715
6.16478
5.85942
5.53354
1
1
1
1
1
1
1
1
1
1
1
1
1
1
1
1
1
1
1
1
1
1
1
1
1
1
1
1
1
1
1
1
1
1
1
1
1
1
1
1
1
1
1
1
1
1
1
1
1
1
1
1
1
1
1
1.00361
5.3925
9.22919
9.42221
9.49906
9.52639
9.52945
9.52841
9.52503
9.51775
9.50611
9.48948
9.46792
9.44213
9.41222
9.37866
9.34141
9.29924
9.25189
9.19829
9.13833
9.0716
8.99794
8.91609
8.825
8.72293
8.60928
8.48389
8.34714
8.19868
8.03839
7.86469
7.6701
7.46519
7.2306
6.99273
6.74495
6.45417
6.17174
5.88765
5.58745
1
1
1
1
1
1
1
1
1
1
1
1
1
1
1
1
1
1
1
1
1
1
1
1
1
1
1
1
1
1
1
1
1
1
1
1
1
1
1
1
1
1
1
1
1
1
1
1
1
1
1
1
1
1
1
0.999961
3.19903
8.72206
9.49112
9.48973
9.49088
9.49274
9.48849
9.48107
9.47087
9.45706
9.43873
9.41552
9.38782
9.35573
9.31995
9.28054
9.23649
9.18754
9.1324
9.07078
9.0023
8.92702
8.84391
8.75225
8.65024
8.53721
8.41244
8.27601
8.12822
7.96881
7.79775
7.60878
7.41117
7.18713
6.96213
6.71276
6.44202
6.19044
5.91258
5.62958
1
1
1
1
1
1
1
1
1
1
1
1
1
1
1
1
1
1
1
1
1
1
1
1
1
1
1
1
1
1
1
1
1
1
1
1
1
1
1
1
1
1
1
1
1
1
1
1
1
1
1
1
1
1
1
0.99999
1.4627
7.73244
9.61929
9.47544
9.43789
9.43999
9.4374
9.43027
9.42005
9.40554
9.3864
9.36231
9.33326
9.29961
9.26196
9.22057
9.17471
9.12418
9.06772
9.00486
8.93502
8.85828
8.77387
8.68157
8.57968
8.46771
8.3445
8.2096
8.06378
7.90512
7.73565
7.55221
7.36199
7.14725
6.93061
6.69055
6.44625
6.20098
5.92851
5.6682
1
1
1
1
1
1
1
1
1
1
1
1
1
1
1
1
1
1
1
1
1
1
1
1
1
1
1
1
1
1
1
1
1
1
1
1
1
1
1
1
1
1
1
1
1
1
1
1
1
1
1
1
1
1
1
0.999998
1.02046
5.96914
9.22396
9.32668
9.38301
9.39664
9.38748
9.37996
9.36939
9.35441
9.33488
9.31012
9.28008
9.24522
9.2059
9.16264
9.11501
9.06287
9.00513
8.94128
8.87043
8.79251
8.70686
8.61381
8.51201
8.40117
8.27984
8.14718
8.00444
7.84652
7.67924
7.5011
7.31395
7.10889
6.90484
6.67728
6.44411
6.19942
5.95012
5.71009
1
1
1
1
1
1
1
1
1
1
1
1
1
1
1
1
1
1
1
1
1
1
1
1
1
1
1
1
1
1
1
1
1
1
1
1
1
1
1
1
1
1
1
1
1
1
1
1
1
1
1
1
1
1
1
1
0.999915
3.60997
8.7566
9.34932
9.35782
9.35457
9.34985
9.34047
9.32565
9.30722
9.28558
9.25926
9.22798
9.19201
9.15121
9.10622
9.05686
9.00306
8.944
8.87925
8.80765
8.72895
8.6425
8.54885
8.44714
8.33726
8.21786
8.08792
7.94882
7.79252
7.62932
7.4543
7.26844
7.07791
6.88259
6.66004
6.43617
6.20682
5.98045
5.74694
1
1
1
1
1
1
1
1
1
1
1
1
1
1
1
1
1
1
1
1
1
1
1
1
1
1
1
1
1
1
1
1
1
1
1
1
1
1
1
1
1
1
1
1
1
1
1
1
1
1
1
1
1
1
1
1
0.999977
1.64718
7.91217
9.47937
9.34559
9.31
9.29948
9.29024
9.2749
9.25623
9.23408
9.20752
9.17582
9.13939
9.09777
9.05153
9.00078
8.94553
8.88517
8.81953
8.74731
8.66817
8.58134
8.48735
8.3858
8.27649
8.15869
8.03102
7.89496
7.74189
7.58369
7.41074
7.23067
7.05233
6.85403
6.64099
6.43546
6.22119
6.00083
5.76853
1
1
1
1
1
1
1
1
1
1
1
1
1
1
1
1
1
1
1
1
1
1
1
1
1
1
1
1
1
1
1
1
1
1
1
1
1
1
1
1
1
1
1
1
1
1
1
1
1
1
1
1
1
1
1
1
0.999996
1.03837
6.13548
9.13606
9.21162
9.24872
9.25544
9.24361
9.22566
9.20617
9.18328
9.15628
9.12453
9.0877
9.04557
8.99836
8.9464
8.8898
8.82812
8.76148
8.68867
8.60928
8.52262
8.42878
8.32764
8.21893
8.1027
7.97657
7.84339
7.6949
7.54149
7.37234
7.20103
7.02407
6.82633
6.63222
6.43766
6.22944
6.01176
5.78941
1
1
1
1
1
1
1
1
1
1
1
1
1
1
1
1
1
1
1
1
1
1
1
1
1
1
1
1
1
1
1
1
1
1
1
1
1
1
1
1
1
1
1
1
1
1
1
1
1
1
1
1
1
1
1
1
1
0.999971
3.62693
8.65963
9.22372
9.22167
9.2088
9.20319
9.18683
9.16452
9.13833
9.10885
9.07576
9.03785
8.99498
8.94696
8.89396
8.83624
8.77344
8.70581
8.63233
8.55281
8.46636
8.37302
8.27258
8.16465
8.04971
7.92434
7.79332
7.64992
7.50111
7.33796
7.17319
6.99546
6.80847
6.6272
6.43393
6.22869
6.02082
5.81754
1
1
1
1
1
1
1
1
1
1
1
1
1
1
1
1
1
1
1
1
1
1
1
1
1
1
1
1
1
1
1
1
1
1
1
1
1
1
1
1
1
1
1
1
1
1
1
1
1
1
1
1
1
1
1
1
1
0.999987
1.5671
7.77227
9.36644
9.2173
9.18061
9.15525
9.13866
9.11519
9.08882
9.05925
9.02587
8.98771
8.94448
8.89607
8.84242
8.78384
8.72023
8.65189
8.57788
8.4982
8.41236
8.31961
8.22001
8.11379
7.99995
7.87549
7.74631
7.60804
7.46339
7.30673
7.14618
6.97318
6.79794
6.61908
6.42641
6.23176
6.03761
5.84639
1
1
1
1
1
1
1
1
1
1
1
1
1
1
1
1
1
1
1
1
1
1
1
1
1
1
1
1
1
1
1
1
1
1
1
1
1
1
1
1
1
1
1
1
1
1
1
1
1
1
1
1
1
1
1
1
1
0.999998
1.02892
5.89144
8.98089
9.05723
9.09445
9.11006
9.09348
9.06759
9.04102
9.01129
8.97766
8.93915
8.89561
8.8469
8.79283
8.73356
8.6693
8.60038
8.52593
8.44614
8.36035
8.26853
8.1699
8.06491
7.95186
7.82953
7.70232
7.56856
7.42671
7.27537
7.12013
6.9558
6.78667
6.60688
6.42229
6.24168
6.05482
5.86553
1
1
1
1
1
1
1
1
1
1
1
1
1
1
1
1
1
1
1
1
1
1
1
1
1
1
1
1
1
1
1
1
1
1
1
1
1
1
1
1
1
1
1
1
1
1
1
1
1
1
1
1
1
1
1
1
1
1
0.999933
3.26228
8.4406
9.1073
9.0965
9.0715
9.05082
9.02889
9.00198
8.96939
8.93321
8.89282
8.84816
8.79878
8.74423
8.68462
8.61998
8.55079
8.47617
8.39663
8.31102
8.21966
8.12248
8.01842
7.90695
7.7875
7.66274
7.53225
7.3921
7.24623
7.09756
6.93994
6.77306
6.5975
6.42507
6.25308
6.06839
5.88105
1
1
1
1
1
1
1
1
1
1
1
1
1
1
1
1
1
1
1
1
1
1
1
1
1
1
1
1
1
1
1
1
1
1
1
1
1
1
1
1
1
1
1
1
1
1
1
1
1
1
1
1
1
1
1
1
1
1
0.99998
1.35229
7.32271
9.2366
9.0864
9.03234
9.00071
8.9839
8.95623
8.92289
8.88653
8.8459
8.80114
8.75176
8.69738
8.63788
8.57308
8.50366
8.42883
8.34928
8.26392
8.17294
8.07621
7.97362
7.86451
7.74768
7.62584
7.4972
7.35936
7.21972
7.0757
6.9206
6.75835
6.5929
6.42939
6.25971
6.07539
5.89649
1
1
1
1
1
1
1
1
1
1
1
1
1
1
1
1
1
1
1
1
1
1
1
1
1
1
1
1
1
1
1
1
1
1
1
1
1
1
1
1
1
1
1
1
1
1
1
1
1
1
1
1
1
1
1
1
1
1
0.999997
1.01087
5.21876
8.77273
8.90128
8.94578
8.96126
8.94444
8.91293
8.87857
8.8416
8.80064
8.75546
8.70606
8.65181
8.59265
8.52815
8.45889
8.38426
8.30481
8.2199
8.12947
8.03345
7.93179
7.82473
7.71052
7.59157
7.46465
7.33075
7.19599
7.05358
6.90136
6.74746
6.59062
6.43081
6.26257
6.08273
5.91525
1
1
1
1
1
1
1
1
1
1
1
1
1
1
1
1
1
1
1
1
1
1
1
1
1
1
1
1
1
1
1
1
1
1
1
1
1
1
1
1
1
1
1
1
1
1
1
1
1
1
1
1
1
1
1
1
1
1
1
0.999938
2.56579
8.16135
8.95487
8.95578
8.94703
8.91017
8.87327
8.83886
8.8019
8.75966
8.7135
8.66339
8.60892
8.54974
8.4853
8.416
8.34142
8.26202
8.17752
8.08761
7.99247
7.89195
7.7861
7.6744
7.55797
7.43373
7.30455
7.17252
7.03103
6.8847
6.73897
6.58493
6.42664
6.26403
6.09429
5.93659
1
1
1
1
1
1
1
1
1
1
1
1
1
1
1
1
1
1
1
1
1
1
1
1
1
1
1
1
1
1
1
1
1
1
1
1
1
1
1
1
1
1
1
1
1
1
1
1
1
1
1
1
1
1
1
1
1
1
1
0.999984
1.18355
6.55273
8.96919
8.93034
8.90452
8.86086
8.82591
8.79553
8.75904
8.71672
8.67031
8.62035
8.56626
8.5076
8.44388
8.37523
8.30127
8.22233
8.1383
8.04893
7.95454
7.85523
7.75038
7.64057
7.52631
7.40532
7.28001
7.15001
7.01128
6.87137
6.7299
6.57641
6.42292
6.26927
6.109
5.95582
1
1
1
1
1
1
1
1
1
1
1
1
1
1
1
1
1
1
1
1
1
1
1
1
1
1
1
1
1
1
1
1
1
1
1
1
1
1
1
1
1
1
1
1
1
1
1
1
1
1
1
1
1
1
1
1
1
1
1
0.999997
1.00244
3.90955
8.44682
8.8499
8.83675
8.80081
8.78765
8.7635
8.72466
8.67976
8.63206
8.58122
8.5266
8.46749
8.4038
8.33534
8.26178
8.18332
8.09992
8.01138
7.91803
7.81997
7.71643
7.6083
7.49616
7.37787
7.25522
7.12809
6.99389
6.85853
6.71825
6.56717
6.42212
6.2763
6.12051
5.96725
1
1
1
1
1
1
1
1
1
1
1
1
1
1
1