/*--------------------------------*- C++ -*----------------------------------*\
  =========                 |
  \\      /  F ield         | OpenFOAM: The Open Source CFD Toolbox
   \\    /   O peration     | Website:  https://openfoam.org
    \\  /    A nd           | Version:  7
     \\/     M anipulation  |
\*---------------------------------------------------------------------------*/
FoamFile
{
    version     2.0;
    format      ascii;
    class       volScalarField;
    location    "1.5";
    object      rho;
}
// * * * * * * * * * * * * * * * * * * * * * * * * * * * * * * * * * * * * * //

dimensions      [1 -3 0 0 0 0 0];

internalField   nonuniform List<scalar> 
64512
(
1.40001
1.40001
1.40001
1.40001
1.40001
1.40001
1.40001
1.40001
1.40001
1.40001
1.40001
1.40001
1.40001
1.40001
1.40001
1.40001
1.40001
1.40001
1.40001
1.40001
1.40001
1.40001
1.40001
1.40001
1.40001
1.40001
1.40001
1.40001
1.40001
1.40001
1.40001
1.40001
1.40001
1.40001
1.40001
1.40001
1.40001
1.40001
1.40001
1.40001
1.40001
1.40001
1.40001
1.40001
1.40001
1.40001
1.40001
1.40001
1.40001
1.40001
1.40001
2.91074
5.30836
5.4597
5.45516
5.46316
5.47455
5.4933
5.51964
5.55196
5.58608
5.61675
5.6422
5.66425
5.68373
5.70084
5.7164
5.73197
5.74805
5.7637
5.77836
5.79011
5.79742
5.80204
5.80952
5.82258
5.83942
5.85765
5.87587
5.89074
5.89814
5.89807
5.89564
5.8964
5.902
5.91129
5.9215
5.9296
5.93331
5.92972
5.91499
5.88599
5.84252
5.79572
5.7657
5.75721
1.40001
1.40001
1.40001
1.40001
1.40001
1.40001
1.40001
1.40001
1.40001
1.40001
1.40001
1.40001
1.40001
1.40001
1.40001
1.40001
1.40001
1.40001
1.40001
1.40001
1.40001
1.40001
1.40001
1.40001
1.40001
1.40001
1.40001
1.40001
1.40001
1.40001
1.40001
1.40001
1.40001
1.40001
1.40001
1.40001
1.40001
1.40001
1.40001
1.40001
1.40001
1.40001
1.40001
1.40001
1.40001
1.40001
1.40001
1.40001
1.40001
1.40001
1.40001
2.89355
5.29284
5.46113
5.45589
5.46349
5.47425
5.49277
5.51922
5.55201
5.58651
5.6176
5.64354
5.66563
5.68428
5.70038
5.71533
5.73085
5.74748
5.76381
5.77872
5.79019
5.7969
5.80111
5.80865
5.82215
5.83919
5.85704
5.87448
5.8888
5.89639
5.89696
5.89523
5.89647
5.90196
5.91057
5.92004
5.92779
5.93161
5.9287
5.91509
5.88682
5.84315
5.79512
5.76319
5.75323
1.40001
1.40001
1.40001
1.40001
1.40001
1.40001
1.40001
1.40001
1.40001
1.40001
1.40001
1.40001
1.40001
1.40001
1.40001
1.40001
1.40001
1.40001
1.40001
1.40001
1.40001
1.40001
1.40001
1.40001
1.40001
1.40001
1.40001
1.40001
1.40001
1.40001
1.40001
1.40001
1.40001
1.40001
1.40001
1.40001
1.40001
1.40001
1.40001
1.40001
1.40001
1.40001
1.40001
1.40001
1.40001
1.40001
1.40001
1.40001
1.40001
1.40001
1.40001
2.85812
5.27632
5.46089
5.456
5.46344
5.47374
5.49184
5.51812
5.55122
5.58623
5.61803
5.64475
5.66696
5.68455
5.69938
5.7133
5.72844
5.74563
5.76291
5.77853
5.79007
5.79628
5.7999
5.80725
5.82109
5.8384
5.85585
5.87248
5.88619
5.89393
5.89516
5.89438
5.89634
5.90175
5.90943
5.91766
5.92453
5.92833
5.92657
5.91482
5.88773
5.84379
5.79394
5.75923
5.74682
1.40001
1.40001
1.40001
1.40001
1.40001
1.40001
1.40001
1.40001
1.40001
1.40001
1.40001
1.40001
1.40001
1.40001
1.40001
1.40001
1.40001
1.40001
1.40001
1.40001
1.40001
1.40001
1.40001
1.40001
1.40001
1.40001
1.40001
1.40001
1.40001
1.40001
1.40001
1.40001
1.40001
1.40001
1.40001
1.40001
1.40001
1.40001
1.40001
1.40001
1.40001
1.40001
1.40001
1.40001
1.40001
1.40001
1.40001
1.40001
1.40001
1.40001
1.40001
2.80186
5.25726
5.46024
5.45631
5.46403
5.47437
5.49207
5.51773
5.5506
5.58582
5.61829
5.64573
5.66806
5.68472
5.69829
5.71098
5.72539
5.74285
5.76094
5.77741
5.78934
5.79542
5.79866
5.80559
5.8193
5.83653
5.85357
5.86959
5.88284
5.8908
5.8928
5.89309
5.89578
5.90104
5.9077
5.91451
5.92029
5.92401
5.92357
5.9139
5.888
5.8436
5.79156
5.75369
5.73847
1.40001
1.40001
1.40001
1.40001
1.40001
1.40001
1.40001
1.40001
1.40001
1.40001
1.40001
1.40001
1.40001
1.40001
1.40001
1.40001
1.40001
1.40001
1.40001
1.40001
1.40001
1.40001
1.40001
1.40001
1.40001
1.40001
1.40001
1.40001
1.40001
1.40001
1.40001
1.40001
1.40001
1.40001
1.40001
1.40001
1.40001
1.40001
1.40001
1.40001
1.40001
1.40001
1.40001
1.40001
1.40001
1.40001
1.40001
1.40001
1.40001
1.40001
1.40001
2.7254
5.23482
5.45997
5.45711
5.46461
5.47505
5.49203
5.51657
5.54876
5.58376
5.61703
5.64543
5.66825
5.68457
5.69721
5.70857
5.7219
5.73915
5.75763
5.77487
5.78765
5.7942
5.79751
5.8039
5.81684
5.83349
5.85011
5.86588
5.87898
5.8873
5.89015
5.89141
5.89462
5.89968
5.90541
5.91091
5.91558
5.91914
5.91979
5.91185
5.88709
5.84207
5.78792
5.74728
5.72952
1.40001
1.40001
1.40001
1.40001
1.40001
1.40001
1.40001
1.40001
1.40001
1.40001
1.40001
1.40001
1.40001
1.40001
1.40001
1.40001
1.40001
1.40001
1.40001
1.40001
1.40001
1.40001
1.40001
1.40001
1.40001
1.40001
1.40001
1.40001
1.40001
1.40001
1.40001
1.40001
1.40001
1.40001
1.40001
1.40001
1.40001
1.40001
1.40001
1.40001
1.40001
1.40001
1.40001
1.40001
1.40001
1.40001
1.40001
1.40001
1.40001
1.40001
1.40001
2.63275
5.20411
5.45777
5.45661
5.46519
5.47613
5.49294
5.51713
5.54889
5.58344
5.61668
5.64495
5.66759
5.68362
5.69561
5.70575
5.71808
5.73489
5.75336
5.77109
5.78484
5.79231
5.79619
5.80216
5.81398
5.82956
5.84563
5.8614
5.87473
5.8836
5.8872
5.88906
5.89249
5.89737
5.90246
5.90697
5.91082
5.91411
5.91525
5.90825
5.88397
5.83839
5.7828
5.74053
5.72112
1.40001
1.40001
1.40001
1.40001
1.40001
1.40001
1.40001
1.40001
1.40001
1.40001
1.40001
1.40001
1.40001
1.40001
1.40001
1.40001
1.40001
1.40001
1.40001
1.40001
1.40001
1.40001
1.40001
1.40001
1.40001
1.40001
1.40001
1.40001
1.40001
1.40001
1.40001
1.40001
1.40001
1.40001
1.40001
1.40001
1.40001
1.40001
1.40001
1.40001
1.40001
1.40001
1.40001
1.40001
1.40001
1.40001
1.40001
1.40001
1.40001
1.40001
1.40001
2.52714
5.16153
5.45468
5.45703
5.46571
5.47731
5.49479
5.51919
5.55029
5.58395
5.61651
5.64407
5.66595
5.68166
5.69299
5.70203
5.71372
5.73015
5.74851
5.76647
5.78098
5.78941
5.79407
5.79988
5.81072
5.82516
5.84055
5.85634
5.87005
5.87953
5.88383
5.88606
5.88942
5.89404
5.89868
5.9025
5.90578
5.90887
5.91004
5.90306
5.87829
5.83212
5.77614
5.73387
5.71409
1.40001
1.40001
1.40001
1.40001
1.40001
1.40001
1.40001
1.40001
1.40001
1.40001
1.40001
1.40001
1.40001
1.40001
1.40001
1.40001
1.40001
1.40001
1.40001
1.40001
1.40001
1.40001
1.40001
1.40001
1.40001
1.40001
1.40001
1.40001
1.40001
1.40001
1.40001
1.40001
1.40001
1.40001
1.40001
1.40001
1.40001
1.40001
1.40001
1.40001
1.40001
1.40001
1.40001
1.40001
1.40001
1.40001
1.40001
1.40001
1.40001
1.40001
1.40001
2.41109
5.10918
5.45363
5.45689
5.46699
5.47902
5.49706
5.52146
5.55145
5.58428
5.61637
5.64305
5.66421
5.67916
5.68888
5.69673
5.70804
5.72452
5.74316
5.76139
5.77641
5.78553
5.79085
5.79675
5.80708
5.82074
5.8355
5.85113
5.86505
5.87493
5.8798
5.88229
5.88542
5.88965
5.89386
5.89731
5.90025
5.90327
5.90429
5.89645
5.87034
5.8234
5.76806
5.72727
5.70836
1.40001
1.40001
1.40001
1.40001
1.40001
1.40001
1.40001
1.40001
1.40001
1.40001
1.40001
1.40001
1.40001
1.40001
1.40001
1.40001
1.40001
1.40001
1.40001
1.40001
1.40001
1.40001
1.40001
1.40001
1.40001
1.40001
1.40001
1.40001
1.40001
1.40001
1.40001
1.40001
1.40001
1.40001
1.40001
1.40001
1.40001
1.40001
1.40001
1.40001
1.40001
1.40001
1.40001
1.40001
1.40001
1.40001
1.40001
1.40001
1.40001
1.40001
1.40001
2.28417
5.0398
5.45573
5.45764
5.46756
5.47919
5.4981
5.52269
5.55187
5.58461
5.61563
5.64238
5.66283
5.67592
5.68338
5.68986
5.70079
5.71775
5.73716
5.75584
5.77113
5.78054
5.78628
5.7925
5.80294
5.81636
5.83061
5.8458
5.85964
5.86964
5.87491
5.87764
5.88056
5.8843
5.88805
5.89108
5.89381
5.89694
5.89773
5.88861
5.86076
5.81314
5.75896
5.72057
5.70345
1.40001
1.40001
1.40001
1.40001
1.40001
1.40001
1.40001
1.40001
1.40001
1.40001
1.40001
1.40001
1.40001
1.40001
1.40001
1.40001
1.40001
1.40001
1.40001
1.40001
1.40001
1.40001
1.40001
1.40001
1.40001
1.40001
1.40001
1.40001
1.40001
1.40001
1.40001
1.40001
1.40001
1.40001
1.40001
1.40001
1.40001
1.40001
1.40001
1.40001
1.40001
1.40001
1.40001
1.40001
1.40001
1.40001
1.40001
1.40001
1.40001
1.40001
1.40001
2.14457
4.95828
5.46058
5.45865
5.46963
5.4813
5.49998
5.52337
5.55201
5.58288
5.61402
5.6409
5.66073
5.67204
5.67723
5.68207
5.69234
5.70987
5.73023
5.74954
5.765
5.77447
5.78044
5.78714
5.79816
5.81183
5.82578
5.84035
5.85379
5.86362
5.86898
5.87187
5.87471
5.87796
5.88109
5.88363
5.88626
5.88949
5.89012
5.87986
5.85048
5.80232
5.7493
5.71329
5.69824
1.40001
1.40001
1.40001
1.40001
1.40001
1.40001
1.40001
1.40001
1.40001
1.40001
1.40001
1.40001
1.40001
1.40001
1.40001
1.40001
1.40001
1.40001
1.40001
1.40001
1.40001
1.40001
1.40001
1.40001
1.40001
1.40001
1.40001
1.40001
1.40001
1.40001
1.40001
1.40001
1.40001
1.40001
1.40001
1.40001
1.40001
1.40001
1.40001
1.40001
1.40001
1.40001
1.40001
1.40001
1.40001
1.40001
1.40001
1.40001
1.40001
1.40001
1.40001
1.99448
4.85863
5.46617
5.46059
5.47176
5.48326
5.5003
5.52244
5.5487
5.57909
5.60943
5.6369
5.65684
5.66708
5.67047
5.67367
5.68322
5.7012
5.72247
5.74256
5.75831
5.76786
5.77391
5.78095
5.79246
5.80646
5.8203
5.83431
5.84731
5.85681
5.86197
5.86492
5.86783
5.87077
5.87329
5.87516
5.87753
5.88068
5.88121
5.87031
5.84013
5.79168
5.73941
5.70483
5.69138
1.40001
1.40001
1.40001
1.40001
1.40001
1.40001
1.40001
1.40001
1.40001
1.40001
1.40001
1.40001
1.40001
1.40001
1.40001
1.40001
1.40001
1.40001
1.40001
1.40001
1.40001
1.40001
1.40001
1.40001
1.40001
1.40001
1.40001
1.40001
1.40001
1.40001
1.40001
1.40001
1.40001
1.40001
1.40001
1.40001
1.40001
1.40001
1.40001
1.40001
1.40001
1.40001
1.40001
1.40001
1.40001
1.40001
1.40001
1.40001
1.40001
1.40001
1.40001
1.84626
4.73357
5.46934
5.46226
5.47347
5.48593
5.50025
5.51926
5.54337
5.57117
5.60132
5.62956
5.65023
5.66035
5.66279
5.66484
5.67388
5.69204
5.71387
5.73462
5.75081
5.76065
5.76686
5.77408
5.78574
5.79995
5.81389
5.82769
5.84049
5.84948
5.85408
5.85678
5.85974
5.86259
5.86465
5.86582
5.86768
5.87044
5.87087
5.86001
5.83008
5.78188
5.72978
5.69511
5.68227
1.40001
1.40001
1.40001
1.40001
1.40001
1.40001
1.40001
1.40001
1.40001
1.40001
1.40001
1.40001
1.40001
1.40001
1.40001
1.40001
1.40001
1.40001
1.40001
1.40001
1.40001
1.40001
1.40001
1.40001
1.40001
1.40001
1.40001
1.40001
1.40001
1.40001
1.40001
1.40001
1.40001
1.40001
1.40001
1.40001
1.40001
1.40001
1.40001
1.40001
1.40001
1.40001
1.40001
1.40001
1.40001
1.40001
1.40001
1.40001
1.40001
1.40001
1.40001
1.70687
4.58099
5.47329
5.4632
5.4712
5.48249
5.49683
5.51409
5.53578
5.562
5.59161
5.62024
5.64179
5.65238
5.65459
5.65586
5.66439
5.68235
5.70442
5.72581
5.7427
5.75319
5.75967
5.76682
5.77808
5.79218
5.80624
5.82014
5.83302
5.84133
5.84503
5.84713
5.85003
5.85308
5.85512
5.85586
5.85711
5.85913
5.85928
5.84896
5.82025
5.77283
5.72036
5.68409
5.67072
1.40001
1.40001
1.40001
1.40001
1.40001
1.40001
1.40001
1.40001
1.40001
1.40001
1.40001
1.40001
1.40001
1.40001
1.40001
1.40001
1.40001
1.40001
1.40001
1.40001
1.40001
1.40001
1.40001
1.40001
1.40001
1.40001
1.40001
1.40001
1.40001
1.40001
1.40001
1.40001
1.40001
1.40001
1.40001
1.40001
1.40001
1.40001
1.40001
1.40001
1.40001
1.40001
1.40001
1.40001
1.40001
1.40001
1.40001
1.40001
1.40001
1.40001
1.40001
1.58078
4.40808
5.47539
5.45857
5.46489
5.47644
5.49152
5.50932
5.53014
5.55452
5.58239
5.61007
5.63178
5.64321
5.64607
5.64726
5.6554
5.67271
5.69449
5.7161
5.73368
5.74512
5.75217
5.75925
5.76984
5.78341
5.79742
5.81147
5.82435
5.83198
5.83471
5.83607
5.83881
5.84228
5.84474
5.84546
5.84609
5.84713
5.84663
5.83692
5.81
5.76372
5.71054
5.6717
5.65695
1.40001
1.40001
1.40001
1.40001
1.40001
1.40001
1.40001
1.40001
1.40001
1.40001
1.40001
1.40001
1.40001
1.40001
1.40001
1.40001
1.40001
1.40001
1.40001
1.40001
1.40001
1.40001
1.40001
1.40001
1.40001
1.40001
1.40001
1.40001
1.40001
1.40001
1.40001
1.40001
1.40001
1.40001
1.40001
1.40001
1.40001
1.40001
1.40001
1.40001
1.40001
1.40001
1.40001
1.40001
1.40001
1.40001
1.40001
1.40001
1.40001
1.40001
1.40001
1.44912
4.18859
5.47124
5.4552
5.46017
5.46882
5.4823
5.49943
5.5204
5.54477
5.57233
5.59986
5.6221
5.6347
5.63849
5.63968
5.64715
5.66354
5.68481
5.70638
5.72446
5.7367
5.74417
5.75099
5.76079
5.77368
5.78759
5.80196
5.81473
5.82172
5.82345
5.82384
5.82609
5.82981
5.83282
5.83396
5.83434
5.83447
5.83314
5.82392
5.79877
5.75372
5.69979
5.65826
5.64187
1.40001
1.40001
1.40001
1.40001
1.40001
1.40001
1.40001
1.40001
1.40001
1.40001
1.40001
1.40001
1.40001
1.40001
1.40001
1.40001
1.40001
1.40001
1.40001
1.40001
1.40001
1.40001
1.40001
1.40001
1.40001
1.40001
1.40001
1.40001
1.40001
1.40001
1.40001
1.40001
1.40001
1.40001
1.40001
1.40001
1.40001
1.40001
1.40001
1.40001
1.40001
1.40001
1.40001
1.40001
1.40001
1.40001
1.40001
1.40001
1.40001
1.40001
1.40001
1.4016
3.91898
5.42742
5.4247
5.43681
5.45266
5.47027
5.48999
5.51224
5.53674
5.56389
5.59138
5.61449
5.62846
5.63299
5.63368
5.63976
5.65457
5.67465
5.69548
5.71369
5.72673
5.73499
5.74197
5.75148
5.76402
5.77766
5.79197
5.80416
5.81026
5.81103
5.81056
5.81222
5.81599
5.81951
5.82147
5.82214
5.8217
5.81946
5.81022
5.78607
5.74183
5.68729
5.64365
5.62592
1.40001
1.40001
1.40001
1.40001
1.40001
1.40001
1.40001
1.40001
1.40001
1.40001
1.40001
1.40001
1.40001
1.40001
1.40001
1.40001
1.40001
1.40001
1.40001
1.40001
1.40001
1.40001
1.40001
1.40001
1.40001
1.40001
1.40001
1.40001
1.40001
1.40001
1.40001
1.40001
1.40001
1.40001
1.40001
1.40001
1.40001
1.40001
1.40001
1.40001
1.40001
1.40001
1.40001
1.40001
1.40001
1.40001
1.40001
1.40001
1.40001
1.40001
1.40001
1.40001
3.59785
5.37665
5.40418
5.42021
5.43821
5.45801
5.48009
5.50445
5.53037
5.55782
5.58514
5.60824
5.62269
5.62755
5.62783
5.63289
5.64645
5.66542
5.68518
5.7032
5.71675
5.72569
5.73282
5.7419
5.75379
5.76702
5.78072
5.79192
5.79712
5.79729
5.7964
5.79761
5.80118
5.8049
5.80755
5.80864
5.80803
5.80501
5.79533
5.77143
5.72763
5.67286
5.62814
5.6099
1.40001
1.40001
1.40001
1.40001
1.40001
1.40001
1.40001
1.40001
1.40001
1.40001
1.40001
1.40001
1.40001
1.40001
1.40001
1.40001
1.40001
1.40001
1.40001
1.40001
1.40001
1.40001
1.40001
1.40001
1.40001
1.40001
1.40001
1.40001
1.40001
1.40001
1.40001
1.40001
1.40001
1.40001
1.40001
1.40001
1.40001
1.40001
1.40001
1.40001
1.40001
1.40001
1.40001
1.40001
1.40001
1.40001
1.40001
1.40001
1.40001
1.40001
1.40001
1.40001
3.25859
5.3169
5.3883
5.40765
5.42843
5.44953
5.47221
5.4967
5.52288
5.55027
5.57771
5.60162
5.61767
5.62385
5.62434
5.62826
5.63996
5.65734
5.67585
5.6935
5.70716
5.71639
5.72328
5.73153
5.74239
5.75495
5.76792
5.77836
5.78301
5.78278
5.78146
5.78205
5.7849
5.78828
5.79141
5.79317
5.79304
5.78974
5.77947
5.75515
5.71127
5.65636
5.61134
5.59328
1.40001
1.40001
1.40001
1.40001
1.40001
1.40001
1.40001
1.40001
1.40001
1.40001
1.40001
1.40001
1.40001
1.40001
1.40001
1.40001
1.40001
1.40001
1.40001
1.40001
1.40001
1.40001
1.40001
1.40001
1.40001
1.40001
1.40001
1.40001
1.40001
1.40001
1.40001
1.40001
1.40001
1.40001
1.40001
1.40001
1.40001
1.40001
1.40001
1.40001
1.40001
1.40001
1.40001
1.40001
1.40001
1.40001
1.40001
1.40001
1.40001
1.40001
1.40001
1.40001
2.90043
5.23971
5.38747
5.40328
5.42351
5.44335
5.46591
5.49084
5.51727
5.54383
5.57042
5.59465
5.61244
5.62074
5.62237
5.62553
5.63521
5.65072
5.66791
5.68484
5.69818
5.70723
5.71332
5.72017
5.72948
5.74114
5.75338
5.76316
5.76736
5.76682
5.76521
5.76529
5.76737
5.77009
5.77339
5.77582
5.77635
5.77296
5.7621
5.73706
5.69281
5.6378
5.5929
5.5756
1.40001
1.40001
1.40001
1.40001
1.40001
1.40001
1.40001
1.40001
1.40001
1.40001
1.40001
1.40001
1.40001
1.40001
1.40001
1.40001
1.40001
1.40001
1.40001
1.40001
1.40001
1.40001
1.40001
1.40001
1.40001
1.40001
1.40001
1.40001
1.40001
1.40001
1.40001
1.40001
1.40001
1.40001
1.40001
1.40001
1.40001
1.40001
1.40001
1.40001
1.40001
1.40001
1.40001
1.40001
1.40001
1.40001
1.40001
1.40001
1.40001
1.40001
1.40001
1.40001
2.54383
5.11763
5.40242
5.41134
5.42619
5.4426
5.46344
5.4875
5.51318
5.5384
5.5634
5.58721
5.60655
5.61767
5.6214
5.62418
5.63135
5.64412
5.65971
5.67577
5.68889
5.69793
5.70329
5.7082
5.71527
5.72532
5.73658
5.74593
5.75007
5.74963
5.74797
5.74758
5.74886
5.75064
5.75358
5.75624
5.75714
5.75378
5.74256
5.71699
5.67238
5.61718
5.57227
5.55588
1.40001
1.40001
1.40001
1.40001
1.40001
1.40001
1.40001
1.40001
1.40001
1.40001
1.40001
1.40001
1.40001
1.40001
1.40001
1.40001
1.40001
1.40001
1.40001
1.40001
1.40001
1.40001
1.40001
1.40001
1.40001
1.40001
1.40001
1.40001
1.40001
1.40001
1.40001
1.40001
1.40001
1.40001
1.40001
1.40001
1.40001
1.40001
1.40001
1.40001
1.40001
1.40001
1.40001
1.40001
1.40001
1.40001
1.40001
1.40001
1.40001
1.40001
1.40001
1.40001
2.18988
4.9533
5.43478
5.4302
5.4381
5.44744
5.46389
5.48487
5.50878
5.53237
5.55554
5.57848
5.59889
5.61269
5.61886
5.62177
5.6268
5.63667
5.65051
5.66586
5.67912
5.68835
5.69298
5.69576
5.70009
5.70788
5.71782
5.72686
5.73118
5.73106
5.72936
5.72854
5.72907
5.72965
5.73163
5.73382
5.73462
5.73129
5.72012
5.69468
5.65017
5.59477
5.5495
5.53385
1.40001
1.40001
1.40001
1.40001
1.40001
1.40001
1.40001
1.40001
1.40001
1.40001
1.40001
1.40001
1.40001
1.40001
1.40001
1.40001
1.40001
1.40001
1.40001
1.40001
1.40001
1.40001
1.40001
1.40001
1.40001
1.40001
1.40001
1.40001
1.40001
1.40001
1.40001
1.40001
1.40001
1.40001
1.40001
1.40001
1.40001
1.40001
1.40001
1.40001
1.40001
1.40001
1.40001
1.40001
1.40001
1.40001
1.40001
1.40001
1.40001
1.40001
1.40001
1.40001
1.8549
4.76493
5.47589
5.44291
5.44866
5.45236
5.46408
5.48181
5.50277
5.52416
5.54555
5.56731
5.58805
5.60402
5.61286
5.61675
5.62056
5.628
5.63995
5.65423
5.66755
5.67723
5.68169
5.68262
5.68406
5.68918
5.69737
5.70593
5.71049
5.71073
5.70887
5.70761
5.70747
5.70691
5.7077
5.70897
5.70911
5.70555
5.69463
5.6698
5.6257
5.56996
5.52376
5.5083
1.40001
1.40001
1.40001
1.40001
1.40001
1.40001
1.40001
1.40001
1.40001
1.40001
1.40001
1.40001
1.40001
1.40001
1.40001
1.40001
1.40001
1.40001
1.40001
1.40001
1.40001
1.40001
1.40001
1.40001
1.40001
1.40001
1.40001
1.40001
1.40001
1.40001
1.40001
1.40001
1.40001
1.40001
1.40001
1.40001
1.40001
1.40001
1.40001
1.40001
1.40001
1.40001
1.40001
1.40001
1.40001
1.40001
1.40001
1.40001
1.40001
1.40001
1.40001
1.40001
1.56785
4.46373
5.48458
5.4476
5.45181
5.45442
5.46121
5.47333
5.4911
5.51144
5.53298
5.55491
5.57568
5.59219
5.60224
5.60702
5.61067
5.61693
5.62745
5.64047
5.65357
5.66363
5.66817
5.66756
5.66666
5.6691
5.67534
5.68314
5.68786
5.68846
5.68654
5.68496
5.68423
5.68233
5.68156
5.68152
5.68014
5.67558
5.66478
5.64103
5.598
5.54239
5.49537
5.47992
1.40001
1.40001
1.40001
1.40001
1.40001
1.40001
1.40001
1.40001
1.40001
1.40001
1.40001
1.40001
1.40001
1.40001
1.40001
1.40001
1.40001
1.40001
1.40001
1.40001
1.40001
1.40001
1.40001
1.40001
1.40001
1.40001
1.40001
1.40001
1.40001
1.40001
1.40001
1.40001
1.40001
1.40001
1.40001
1.40001
1.40001
1.40001
1.40001
1.40001
1.40001
1.40001
1.40001
1.40001
1.40001
1.40001
1.40001
1.40001
1.40001
1.40001
1.40001
1.40001
1.40922
4.07213
5.41812
5.41147
5.43182
5.4416
5.44941
5.46163
5.47954
5.49968
5.52057
5.54156
5.56144
5.57789
5.58915
5.59551
5.59985
5.60554
5.61439
5.62519
5.63713
5.64704
5.65168
5.65025
5.64781
5.64798
5.65235
5.65917
5.66377
5.66442
5.66228
5.66034
5.65887
5.6556
5.65328
5.65153
5.64832
5.64243
5.63131
5.6083
5.56615
5.51055
5.46274
5.44676
1.40001
1.40001
1.40001
1.40001
1.40001
1.40001
1.40001
1.40001
1.40001
1.40001
1.40001
1.40001
1.40001
1.40001
1.40001
1.40001
1.40001
1.40001
1.40001
1.40001
1.40001
1.40001
1.40001
1.40001
1.40001
1.40001
1.40001
1.40001
1.40001
1.40001
1.40001
1.40001
1.40001
1.40001
1.40001
1.40001
1.40001
1.40001
1.40001
1.40001
1.40001
1.40001
1.40001
1.40001
1.40001
1.40001
1.40001
1.40001
1.40001
1.40001
1.40001
1.40001
1.40006
3.60194
5.32721
5.38144
5.40453
5.41896
5.43057
5.44559
5.46446
5.48453
5.50468
5.52475
5.54358
5.55946
5.57098
5.57814
5.5832
5.58929
5.5978
5.60779
5.61926
5.62876
5.63275
5.63015
5.62616
5.62467
5.62773
5.63368
5.63807
5.63859
5.63614
5.63374
5.63138
5.62692
5.62307
5.61924
5.61363
5.60526
5.59248
5.56934
5.52805
5.47325
5.42577
5.40982
1.40001
1.40001
1.40001
1.40001
1.40001
1.40001
1.40001
1.40001
1.40001
1.40001
1.40001
1.40001
1.40001
1.40001
1.40001
1.40001
1.40001
1.40001
1.40001
1.40001
1.40001
1.40001
1.40001
1.40001
1.40001
1.40001
1.40001
1.40001
1.40001
1.40001
1.40001
1.40001
1.40001
1.40001
1.40001
1.40001
1.40001
1.40001
1.40001
1.40001
1.40001
1.40001
1.40001
1.40001
1.40001
1.40001
1.40001
1.40001
1.40001
1.40001
1.40001
1.40001
1.40001
3.13019
5.20164
5.35626
5.38955
5.40717
5.42018
5.43495
5.45273
5.47169
5.49051
5.50928
5.52659
5.54099
5.55152
5.55858
5.56415
5.57113
5.57994
5.58951
5.60028
5.60885
5.61168
5.60788
5.60286
5.60046
5.60245
5.60729
5.6112
5.61138
5.60847
5.60531
5.60173
5.59613
5.59066
5.58444
5.57619
5.56492
5.54974
5.52538
5.4838
5.42889
5.38154
5.36488
1.40001
1.40001
1.40001
1.40001
1.40001
1.40001
1.40001
1.40001
1.40001
1.40001
1.40001
1.40001
1.40001
1.40001
1.40001
1.40001
1.40001
1.40001
1.40001
1.40001
1.40001
1.40001
1.40001
1.40001
1.40001
1.40001
1.40001
1.40001
1.40001
1.40001
1.40001
1.40001
1.40001
1.40001
1.40001
1.40001
1.40001
1.40001
1.40001
1.40001
1.40001
1.40001
1.40001
1.40001
1.40001
1.40001
1.40001
1.40001
1.40001
1.40001
1.40001
1.40001
1.40001
2.66824
5.06391
5.34453
5.37402
5.39573
5.41045
5.42487
5.44152
5.46012
5.47868
5.49666
5.51253
5.52475
5.53297
5.53883
5.54464
5.55281
5.56211
5.57146
5.58114
5.58855
5.59007
5.5848
5.57875
5.57563
5.57661
5.58002
5.58306
5.58269
5.57913
5.57484
5.56971
5.56283
5.55565
5.54689
5.53535
5.52004
5.50055
5.47285
5.42985
5.37509
5.32882
5.31287
1.40001
1.40001
1.40001
1.40001
1.40001
1.40001
1.40001
1.40001
1.40001
1.40001
1.40001
1.40001
1.40001
1.40001
1.40001
1.40001
1.40001
1.40001
1.40001
1.40001
1.40001
1.40001
1.40001
1.40001
1.40001
1.40001
1.40001
1.40001
1.40001
1.40001
1.40001
1.40001
1.40001
1.40001
1.40001
1.40001
1.40001
1.40001
1.40001
1.40001
1.40001
1.40001
1.40001
1.40001
1.40001
1.40001
1.40001
1.40001
1.40001
1.40001
1.40001
1.40001
1.40001
2.17636
4.88418
5.41534
5.40047
5.41139
5.41943
5.42854
5.44031
5.45517
5.47117
5.48686
5.50054
5.5101
5.51566
5.51969
5.5253
5.53422
5.54413
5.55328
5.56196
5.56816
5.56838
5.56189
5.55463
5.55043
5.5501
5.55176
5.55356
5.55241
5.54804
5.5424
5.53548
5.52689
5.51773
5.5061
5.49024
5.47021
5.44632
5.41497
5.36923
5.31139
5.26227
5.24293
1.40001
1.40001
1.40001
1.40001
1.40001
1.40001
1.40001
1.40001
1.40001
1.40001
1.40001
1.40001
1.40001
1.40001
1.40001
1.40001
1.40001
1.40001
1.40001
1.40001
1.40001
1.40001
1.40001
1.40001
1.40001
1.40001
1.40001
1.40001
1.40001
1.40001
1.40001
1.40001
1.40001
1.40001
1.40001
1.40001
1.40001
1.40001
1.40001
1.40001
1.40001
1.40001
1.40001
1.40001
1.40001
1.40001
1.40001
1.40001
1.40001
1.40001
1.40001
1.40001
1.40001
1.70364
4.66181
5.49127
5.43682
5.42525
5.4235
5.4272
5.43742
5.45192
5.46702
5.48104
5.4927
5.49976
5.50247
5.5038
5.5076
5.51579
5.52594
5.53459
5.5426
5.54807
5.54712
5.53983
5.53131
5.52552
5.52348
5.52301
5.52294
5.52058
5.51497
5.50774
5.49882
5.48804
5.47618
5.46113
5.44041
5.41429
5.38376
5.34549
5.29276
5.22921
5.17617
5.15774
1.40001
1.40001
1.40001
1.40001
1.40001
1.40001
1.40001
1.40001
1.40001
1.40001
1.40001
1.40001
1.40001
1.40001
1.40001
1.40001
1.40001
1.40001
1.40001
1.40001
1.40001
1.40001
1.40001
1.40001
1.40001
1.40001
1.40001
1.40001
1.40001
1.40001
1.40001
1.40001
1.40001
1.40001
1.40001
1.40001
1.40001
1.40001
1.40001
1.40001
1.40001
1.40001
1.40001
1.40001
1.40001
1.40001
1.40001
1.40001
1.40001
1.40001
1.40001
1.40001
1.40001
1.42179
4.20445
5.4222
5.39579
5.41501
5.42175
5.42848
5.43926
5.45041
5.46251
5.47488
5.48559
5.49185
5.49334
5.49276
5.4937
5.49902
5.50786
5.51532
5.52276
5.52775
5.5263
5.51893
5.50938
5.50174
5.49725
5.49404
5.49144
5.48709
5.47951
5.47059
5.45962
5.44644
5.43104
5.41135
5.38495
5.35115
5.31219
5.26741
5.20795
5.13485
5.06614
5.02763
1.40001
1.40001
1.40001
1.40001
1.40001
1.40001
1.40001
1.40001
1.40001
1.40001
1.40001
1.40001
1.40001
1.40001
1.40001
1.40001
1.40001
1.40001
1.40001
1.40001
1.40001
1.40001
1.40001
1.40001
1.40001
1.40001
1.40001
1.40001
1.40001
1.40001
1.40001
1.40001
1.40001
1.40001
1.40001
1.40001
1.40001
1.40001
1.40001
1.40001
1.40001
1.40001
1.40001
1.40001
1.40001
1.40001
1.40001
1.40001
1.40001
1.40001
1.40001
1.40001
1.40001
1.4001
3.57937
5.24689
5.35316
5.3919
5.40551
5.41398
5.42582
5.43817
5.45116
5.46427
5.47537
5.48257
5.48523
5.48486
5.48395
5.48557
5.49083
5.49634
5.5024
5.50649
5.5049
5.49803
5.48791
5.47851
5.47163
5.46531
5.45973
5.45275
5.44269
5.43123
5.418
5.40194
5.38198
5.35607
5.32252
5.28117
5.23297
5.17538
5.09737
4.99454
4.89709
4.84168
1.40001
1.40001
1.40001
1.40001
1.40001
1.40001
1.40001
1.40001
1.40001
1.40001
1.40001
1.40001
1.40001
1.40001
1.40001
1.40001
1.40001
1.40001
1.40001
1.40001
1.40001
1.40001
1.40001
1.40001
1.40001
1.40001
1.40001
1.40001
1.40001
1.40001
1.40001
1.40001
1.40001
1.40001
1.40001
1.40001
1.40001
1.40001
1.40001
1.40001
1.40001
1.40001
1.40001
1.40001
1.40001
1.40001
1.40001
1.40001
1.40001
1.40001
1.40001
1.40001
1.40001
1.4
3.01102
5.11585
5.33155
5.36759
5.38911
5.40276
5.41229
5.42362
5.43627
5.4489
5.46009
5.46859
5.47367
5.47557
5.47508
5.47435
5.47579
5.47814
5.48168
5.48434
5.48256
5.47636
5.4662
5.45545
5.44627
5.43689
5.42785
5.41752
5.40448
5.39003
5.37397
5.3544
5.32908
5.29579
5.2535
5.20294
5.14327
5.06806
4.9678
4.83763
4.69363
4.60345
1.40001
1.40001
1.40001
1.40001
1.40001
1.40001
1.40001
1.40001
1.40001
1.40001
1.40001
1.40001
1.40001
1.40001
1.40001
1.40001
1.40001
1.40001
1.40001
1.40001
1.40001
1.40001
1.40001
1.40001
1.40001
1.40001
1.40001
1.40001
1.40001
1.40001
1.40001
1.40001
1.40001
1.40001
1.40001
1.40001
1.40001
1.40001
1.40001
1.40001
1.40001
1.40001
1.40001
1.40001
1.40001
1.40001
1.40001
1.40001
1.40001
1.40001
1.40001
1.40001
1.40001
1.40001
2.42189
4.93151
5.35051
5.35983
5.37245
5.38373
5.39481
5.40695
5.41959
5.43187
5.44265
5.45126
5.45779
5.46216
5.46329
5.46191
5.46073
5.45986
5.46016
5.46065
5.45837
5.45262
5.44281
5.4312
5.41985
5.40784
5.39542
5.38162
5.3654
5.34757
5.3279
5.30392
5.27241
5.23096
5.17878
5.11711
5.04421
4.95088
4.8199
4.61833
4.24059
3.34359
1.40001
1.40001
1.40001
1.40001
1.40001
1.40001
1.40001
1.40001
1.40001
1.40001
1.40001
1.40001
1.40001
1.40001
1.40001
1.40001
1.40001
1.40001
1.40001
1.40001
1.40001
1.40001
1.40001
1.40001
1.40001
1.40001
1.40001
1.40001
1.40001
1.40001
1.40001
1.40001
1.40001
1.40001
1.40001
1.40001
1.40001
1.40001
1.40001
1.40001
1.40001
1.40001
1.40001
1.40001
1.40001
1.40001
1.40001
1.40001
1.40001
1.40001
1.40001
1.40001
1.40001
1.40001
1.84685
4.75798
5.40982
5.36738
5.36555
5.37267
5.38174
5.39087
5.40157
5.41285
5.42308
5.43162
5.43907
5.44518
5.44771
5.44651
5.44393
5.4406
5.43769
5.43538
5.43214
5.42635
5.41698
5.40494
5.39179
5.37755
5.36209
5.34498
5.32543
5.30377
5.2796
5.25037
5.21227
5.16256
5.10032
5.02605
4.93706
4.81889
4.64695
4.36941
3.93121
2.9269
1.40001
1.40001
1.40001
1.40001
1.40001
1.40001
1.40001
1.40001
1.40001
1.40001
1.40001
1.40001
1.40001
1.40001
1.40001
1.40001
1.40001
1.40001
1.40001
1.40001
1.40001
1.40001
1.40001
1.40001
1.40001
1.40001
1.40001
1.40001
1.40001
1.40001
1.40001
1.40001
1.40001
1.40001
1.40001
1.40001
1.40001
1.40001
1.40001
1.40001
1.40001
1.40001
1.40001
1.40001
1.40001
1.40001
1.40001
1.40001
1.40001
1.40001
1.40001
1.40001
1.40001
1.40001
1.4466
4.26335
5.40278
5.37516
5.37422
5.37315
5.37495
5.37817
5.38509
5.39452
5.40428
5.41272
5.42031
5.42677
5.42952
5.42819
5.42456
5.41973
5.41462
5.40958
5.40469
5.39809
5.38856
5.37602
5.36147
5.3452
5.32707
5.30705
5.28423
5.25845
5.22919
5.19416
5.14945
5.09202
5.0202
4.93317
4.82665
4.68826
4.48328
4.20134
3.64034
2.79748
1.40001
1.40001
1.40001
1.40001
1.40001
1.40001
1.40001
1.40001
1.40001
1.40001
1.40001
1.40001
1.40001
1.40001
1.40001
1.40001
1.40001
1.40001
1.40001
1.40001
1.40001
1.40001
1.40001
1.40001
1.40001
1.40001
1.40001
1.40001
1.40001
1.40001
1.40001
1.40001
1.40001
1.40001
1.40001
1.40001
1.40001
1.40001
1.40001
1.40001
1.40001
1.40001
1.40001
1.40001
1.40001
1.40001
1.40001
1.40001
1.40001
1.40001
1.40001
1.40001
1.40001
1.40001
1.4003
3.54508
5.21537
5.33164
5.35956
5.36673
5.36668
5.36796
5.37174
5.37832
5.3868
5.39498
5.40213
5.40788
5.41002
5.40792
5.403
5.39705
5.39065
5.3836
5.37701
5.36889
5.35819
5.34486
5.32906
5.31081
5.2903
5.26758
5.24153
5.21149
5.17685
5.1359
5.08499
5.02091
4.94056
4.84232
4.71954
4.56418
4.34151
4.02569
3.48209
2.79927
1.40001
1.40001
1.40001
1.40001
1.40001
1.40001
1.40001
1.40001
1.40001
1.40001
1.40001
1.40001
1.40001
1.40001
1.40001
1.40001
1.40001
1.40001
1.40001
1.40001
1.40001
1.40001
1.40001
1.40001
1.40001
1.40001
1.40001
1.40001
1.40001
1.40001
1.40001
1.40001
1.40001
1.40001
1.40001
1.40001
1.40001
1.40001
1.40001
1.40001
1.40001
1.40001
1.40001
1.40001
1.40001
1.40001
1.40001
1.40001
1.40001
1.40001
1.40001
1.40001
1.40001
1.40001
1.4
2.87477
5.06601
5.32617
5.34718
5.35759
5.35959
5.35952
5.36138
5.36581
5.37256
5.37974
5.38594
5.39059
5.39179
5.3882
5.38126
5.37355
5.36575
5.35725
5.34906
5.33939
5.32724
5.31248
5.2952
5.27513
5.25228
5.22674
5.19741
5.16313
5.12319
5.07664
5.02025
4.95073
4.86355
4.75607
4.62127
4.4488
4.21906
3.88966
3.41095
2.8671
1.40001
1.40001
1.40001
1.40001
1.40001
1.40001
1.40001
1.40001
1.40001
1.40001
1.40001
1.40001
1.40001
1.40001
1.40001
1.40001
1.40001
1.40001
1.40001
1.40001
1.40001
1.40001
1.40001
1.40001
1.40001
1.40001
1.40001
1.40001
1.40001
1.40001
1.40001
1.40001
1.40001
1.40001
1.40001
1.40001
1.40001
1.40001
1.40001
1.40001
1.40001
1.40001
1.40001
1.40001
1.40001
1.40001
1.40001
1.40001
1.40001
1.40001
1.40001
1.40001
1.40001
1.40001
1.4
2.18659
4.86489
5.36627
5.3492
5.34766
5.34708
5.34827
5.35124
5.35551
5.36086
5.36616
5.37076
5.37412
5.37447
5.36961
5.36043
5.35039
5.34088
5.33082
5.32105
5.31004
5.29655
5.28035
5.26135
5.2392
5.21368
5.18489
5.15199
5.11371
5.06901
5.01753
4.95655
4.8826
4.79037
4.6758
4.53293
4.35062
4.11721
3.79692
3.38976
2.9408
1.40001
1.40001
1.40001
1.40001
1.40001
1.40001
1.40001
1.40001
1.40001
1.40001
1.40001
1.40001
1.40001
1.40001
1.40001
1.40001
1.40001
1.40001
1.40001
1.40001
1.40001
1.40001
1.40001
1.40001
1.40001
1.40001
1.40001
1.40001
1.40001
1.40001
1.40001
1.40001
1.40001
1.40001
1.40001
1.40001
1.40001
1.40001
1.40001