/*--------------------------------*- C++ -*----------------------------------*\
  =========                 |
  \\      /  F ield         | OpenFOAM: The Open Source CFD Toolbox
   \\    /   O peration     | Website:  https://openfoam.org
    \\  /    A nd           | Version:  7
     \\/     M anipulation  |
\*---------------------------------------------------------------------------*/
FoamFile
{
    version     2.0;
    format      ascii;
    class       volVectorField;
    location    "2.8";
    object      U;
}
// * * * * * * * * * * * * * * * * * * * * * * * * * * * * * * * * * * * * * //

dimensions      [0 1 -1 0 0 0 0];

internalField   nonuniform List<vector> 
64512
(
(3 7.14591e-17 0)
(3 1.62413e-16 0)
(3 1.48464e-16 0)
(3 6.34955e-17 0)
(3 -1.13972e-16 0)
(3 -3.1908e-16 0)
(3 -5.47443e-16 0)
(3 -4.20386e-16 0)
(3 -5.16612e-16 0)
(3 -7.28262e-16 0)
(3 -4.56867e-16 0)
(3 -1.41768e-16 0)
(3 3.99992e-16 0)
(3 7.85829e-16 0)
(3 -4.67861e-16 0)
(3 -1.06498e-15 0)
(3 -6.57066e-16 0)
(3 -9.61103e-16 0)
(3 -9.35595e-16 0)
(3 1.42879e-16 0)
(3 5.423e-18 0)
(3 -2.51013e-16 0)
(3 2.05037e-16 0)
(3 3.57487e-16 0)
(3 5.59856e-16 0)
(3 2.97956e-16 0)
(3 -2.62174e-18 0)
(3 -2.87821e-16 0)
(3 -2.80159e-16 0)
(3 -2.87671e-16 0)
(3 -9.19616e-17 0)
(3 2.15023e-16 0)
(3 6.86962e-16 0)
(3 1.00475e-15 0)
(3 5.63688e-16 0)
(3 5.36064e-16 0)
(3 4.07051e-16 0)
(3 2.81658e-16 0)
(3 -1.89369e-16 0)
(3 -2.66589e-16 0)
(3 -6.87147e-16 0)
(3 -1.46328e-15 0)
(3 -2.59059e-16 0)
(3 6.83767e-16 0)
(3 6.02528e-16 0)
(3 1.36561e-16 0)
(3 -5.44539e-16 0)
(3 -7.45154e-17 0)
(3 -4.02918e-16 0)
(1.50992 0.00393703 0)
(0.787246 0.00287505 0)
(0.748221 0.00882364 0)
(0.730049 0.0069623 0)
(0.713304 0.00587886 0)
(0.699682 0.00544001 0)
(0.687642 0.00561336 0)
(0.67562 0.00600041 0)
(0.662311 0.00652606 0)
(0.646672 0.00721006 0)
(0.628428 0.00787869 0)
(0.608553 0.00818788 0)
(0.589073 0.00760094 0)
(0.572239 0.00633721 0)
(0.558551 0.00551254 0)
(0.546419 0.00565819 0)
(0.533688 0.00645669 0)
(0.518914 0.00750558 0)
(0.501956 0.00837679 0)
(0.484112 0.00832751 0)
(0.467459 0.00743447 0)
(0.452773 0.00680846 0)
(0.438815 0.00700967 0)
(0.42403 0.00761901 0)
(0.408012 0.00798591 0)
(0.391022 0.00789029 0)
(0.373694 0.00770657 0)
(0.356466 0.00772501 0)
(0.339355 0.00788476 0)
(0.322287 0.00807027 0)
(0.305126 0.00822695 0)
(0.287811 0.0083346 0)
(0.270473 0.00839745 0)
(0.253386 0.00845019 0)
(0.236776 0.00850288 0)
(0.220599 0.00854694 0)
(0.204505 0.00860022 0)
(0.188002 0.0087146 0)
(0.17064 0.00891189 0)
(0.152156 0.00912475 0)
(0.132784 0.00933624 0)
(0.112961 0.00954776 0)
(0.0924223 0.00975471 0)
(0.0720715 0.00998956 0)
(0.051458 0.0102219 0)
(0.0307234 0.0103321 0)
(0.0102613 0.0104425 0)
(3 -2.10207e-17 0)
(3 5.62418e-17 0)
(3 -2.07904e-16 0)
(3 -2.82588e-16 0)
(3 -5.74392e-16 0)
(3 -7.11259e-16 0)
(3 -3.87234e-16 0)
(3 -1.24838e-16 0)
(3 -3.55559e-16 0)
(3 -3.14777e-16 0)
(3 -8.18695e-17 0)
(3 -4.92592e-16 0)
(3 -6.13213e-19 0)
(3 -1.11135e-16 0)
(3 -3.25715e-16 0)
(3 -1.08508e-15 0)
(3 -9.18899e-16 0)
(3 -6.79865e-16 0)
(3 -6.02064e-16 0)
(3 1.92451e-16 0)
(3 -7.01911e-17 0)
(3 -3.04962e-16 0)
(3 2.41125e-16 0)
(3 9.93072e-16 0)
(3 1.03126e-15 0)
(3 1.02217e-15 0)
(3 9.21785e-16 0)
(3 8.05291e-16 0)
(3 6.10043e-16 0)
(3 5.09485e-17 0)
(3 -1.07678e-16 0)
(3 1.09871e-16 0)
(3 7.16232e-16 0)
(3 2.03499e-15 0)
(3 1.64036e-15 0)
(3 5.79885e-16 0)
(3 -1.67306e-16 0)
(3 -1.25681e-16 0)
(3 -1.26363e-16 0)
(3 -4.56232e-16 0)
(3 -1.20775e-15 0)
(3 -2.14242e-15 0)
(3 -4.37168e-16 0)
(3 1.34799e-15 0)
(3 6.41766e-16 0)
(3 -5.34147e-16 0)
(3 -1.36327e-15 0)
(3 -1.17699e-15 0)
(3 -3.15348e-16 0)
(1.5198 0.0193331 0)
(0.784175 0.0141356 0)
(0.744891 0.0249112 0)
(0.727588 0.0209984 0)
(0.710168 0.0178021 0)
(0.695569 0.0153866 0)
(0.682926 0.0152553 0)
(0.670809 0.0165505 0)
(0.657747 0.0184418 0)
(0.642671 0.0207192 0)
(0.625246 0.0228095 0)
(0.606262 0.023825 0)
(0.587332 0.0225393 0)
(0.570382 0.0193039 0)
(0.555946 0.0166822 0)
(0.542985 0.0165561 0)
(0.529864 0.0186518 0)
(0.515116 0.0217056 0)
(0.498514 0.0242792 0)
(0.481138 0.024337 0)
(0.464787 0.0221513 0)
(0.449863 0.0204946 0)
(0.435505 0.0209766 0)
(0.420565 0.0226572 0)
(0.404621 0.0236406 0)
(0.38788 0.0233594 0)
(0.370756 0.0229098 0)
(0.353548 0.0230544 0)
(0.336315 0.0235571 0)
(0.3191 0.0240824 0)
(0.301871 0.0245065 0)
(0.284599 0.0248042 0)
(0.267373 0.0250115 0)
(0.250409 0.0252302 0)
(0.2339 0.0254618 0)
(0.217828 0.0256478 0)
(0.201887 0.0258237 0)
(0.185616 0.0261494 0)
(0.168559 0.0267131 0)
(0.150443 0.0273461 0)
(0.131463 0.0280195 0)
(0.112008 0.0287109 0)
(0.0917937 0.0293817 0)
(0.071723 0.0301237 0)
(0.0513194 0.0308516 0)
(0.0307088 0.0312233 0)
(0.0103051 0.0316302 0)
(3 -1.30414e-16 0)
(3 -6.05155e-17 0)
(3 -2.18973e-16 0)
(3 -1.27394e-15 0)
(3 -1.56733e-15 0)
(3 -1.23175e-15 0)
(3 -4.77734e-16 0)
(3 -3.64622e-16 0)
(3 -4.34867e-16 0)
(3 -3.08368e-16 0)
(3 -1.38673e-16 0)
(3 9.10062e-17 0)
(3 5.43984e-16 0)
(3 4.46084e-16 0)
(3 7.81932e-18 0)
(3 -6.81446e-16 0)
(3 -7.70771e-16 0)
(3 -1.86457e-16 0)
(3 -5.24261e-16 0)
(3 -5.82399e-16 0)
(3 1.19395e-16 0)
(3 1.12837e-15 0)
(3 1.32193e-15 0)
(3 1.50738e-15 0)
(3 8.89207e-16 0)
(3 6.41831e-16 0)
(3 6.15857e-16 0)
(3 9.82741e-16 0)
(3 1.55622e-15 0)
(3 1.33229e-15 0)
(3 1.63612e-16 0)
(3 6.06948e-16 0)
(3 1.19576e-15 0)
(3 1.52152e-15 0)
(3 1.5401e-15 0)
(3 9.66957e-16 0)
(3 9.72605e-16 0)
(3 8.08135e-16 0)
(3 9.09569e-17 0)
(3 -1.94612e-15 0)
(3 -2.52102e-15 0)
(3 -2.20409e-15 0)
(3 -1.40474e-15 0)
(3 -1.33688e-15 0)
(3 -1.45258e-15 0)
(3 -1.76531e-15 0)
(3 -1.58422e-15 0)
(3 -1.97544e-15 0)
(3 -9.32747e-16 0)
(1.54689 0.033632 0)
(0.785703 0.0254013 0)
(0.746427 0.0394513 0)
(0.730071 0.0352373 0)
(0.711833 0.0313712 0)
(0.695356 0.0276034 0)
(0.680761 0.0264165 0)
(0.667519 0.0277193 0)
(0.654197 0.0304261 0)
(0.639535 0.0339738 0)
(0.623009 0.037323 0)
(0.605152 0.0390409 0)
(0.587165 0.0374637 0)
(0.570525 0.0330194 0)
(0.555496 0.0290963 0)
(0.541435 0.0286579 0)
(0.527472 0.0316401 0)
(0.512394 0.0362416 0)
(0.495861 0.0400524 0)
(0.47876 0.0400676 0)
(0.462696 0.0368521 0)
(0.447541 0.0344156 0)
(0.432715 0.0351568 0)
(0.417519 0.037755 0)
(0.401502 0.0392755 0)
(0.384875 0.038863 0)
(0.367872 0.0382675 0)
(0.350627 0.0385996 0)
(0.333191 0.0394141 0)
(0.315692 0.0401939 0)
(0.298224 0.0408018 0)
(0.280829 0.0412332 0)
(0.263575 0.0415421 0)
(0.246605 0.0418723 0)
(0.230057 0.0422075 0)
(0.213919 0.0424531 0)
(0.197956 0.0426811 0)
(0.181778 0.0431655 0)
(0.164959 0.0440506 0)
(0.147228 0.0450592 0)
(0.128723 0.0461582 0)
(0.109762 0.0473131 0)
(0.0900333 0.0484675 0)
(0.0704485 0.0497842 0)
(0.0504908 0.0511051 0)
(0.0302556 0.0518483 0)
(0.010204 0.052684 0)
(3 6.88436e-17 0)
(3 1.63483e-16 0)
(3 3.97895e-17 0)
(3 -4.91256e-16 0)
(3 -5.25393e-16 0)
(3 -6.5742e-16 0)
(3 -8.09676e-16 0)
(3 -8.37064e-16 0)
(3 -6.66788e-16 0)
(3 -3.29505e-16 0)
(3 9.79898e-17 0)
(3 5.24351e-16 0)
(3 2.6308e-16 0)
(3 2.73839e-17 0)
(3 -6.27809e-16 0)
(3 -9.77369e-16 0)
(3 -5.48238e-16 0)
(3 -5.99011e-16 0)
(3 1.0574e-16 0)
(3 2.67019e-16 0)
(3 2.55028e-16 0)
(3 2.57638e-16 0)
(3 8.26808e-16 0)
(3 5.93959e-16 0)
(3 3.36364e-16 0)
(3 7.38666e-17 0)
(3 -4.26289e-16 0)
(3 2.03254e-16 0)
(3 1.38974e-15 0)
(3 1.45402e-15 0)
(3 1.28956e-15 0)
(3 1.67919e-15 0)
(3 1.68652e-15 0)
(3 1.18027e-15 0)
(3 6.16192e-16 0)
(3 5.85617e-16 0)
(3 1.06597e-15 0)
(3 8.79725e-16 0)
(3 -7.72171e-16 0)
(3 -1.54827e-15 0)
(3 -2.13257e-15 0)
(3 -2.66609e-15 0)
(3 -3.12198e-15 0)
(3 -2.89371e-15 0)
(3 -2.34747e-15 0)
(3 -2.10567e-15 0)
(3 -1.64044e-15 0)
(3 -1.41441e-15 0)
(3 -1.26272e-15 0)
(1.58657 0.0460558 0)
(0.788716 0.0359594 0)
(0.74959 0.0518887 0)
(0.73385 0.0491091 0)
(0.715138 0.0458722 0)
(0.697314 0.0413958 0)
(0.681058 0.0388021 0)
(0.666636 0.0394503 0)
(0.653102 0.0423986 0)
(0.638994 0.0467192 0)
(0.623524 0.0509502 0)
(0.606863 0.0532346 0)
(0.589763 0.051796 0)
(0.573288 0.0469837 0)
(0.557662 0.042328 0)
(0.542569 0.0416469 0)
(0.527772 0.0452529 0)
(0.512414 0.0509972 0)
(0.495978 0.0556191 0)
(0.479103 0.0555323 0)
(0.463175 0.0516315 0)
(0.447652 0.048731 0)
(0.432283 0.0497757 0)
(0.416796 0.0531811 0)
(0.400646 0.0551648 0)
(0.384046 0.0546484 0)
(0.367041 0.0539914 0)
(0.349632 0.0545713 0)
(0.33187 0.0557028 0)
(0.313964 0.0566956 0)
(0.296138 0.0574323 0)
(0.278511 0.0579546 0)
(0.261128 0.0583383 0)
(0.244048 0.0587588 0)
(0.227328 0.0591711 0)
(0.210945 0.0594383 0)
(0.194725 0.0596612 0)
(0.17836 0.0602142 0)
(0.161482 0.0612925 0)
(0.143855 0.0625257 0)
(0.125592 0.0639146 0)
(0.106972 0.0654349 0)
(0.0876463 0.0670244 0)
(0.0685821 0.0689299 0)
(0.049181 0.070904 0)
(0.0294809 0.0721012 0)
(0.00999526 0.0734733 0)
(3 -6.65566e-18 0)
(3 2.70481e-17 0)
(3 -3.38754e-17 0)
(3 1.52811e-16 0)
(3 8.69629e-17 0)
(3 8.84222e-17 0)
(3 -1.02947e-17 0)
(3 -3.08272e-16 0)
(3 -4.72533e-16 0)
(3 -1.30796e-16 0)
(3 8.38164e-16 0)
(3 5.90746e-16 0)
(3 -2.93272e-16 0)
(3 -6.65075e-16 0)
(3 -7.23592e-16 0)
(3 6.77389e-17 0)
(3 4.61047e-16 0)
(3 7.40552e-16 0)
(3 1.39285e-15 0)
(3 1.95128e-15 0)
(3 1.15331e-15 0)
(3 -1.30512e-16 0)
(3 -5.00332e-16 0)
(3 -3.60512e-16 0)
(3 2.01597e-16 0)
(3 4.66844e-16 0)
(3 6.28948e-16 0)
(3 9.91792e-16 0)
(3 6.38271e-16 0)
(3 7.08626e-16 0)
(3 9.3072e-16 0)
(3 2.05463e-15 0)
(3 2.1661e-15 0)
(3 1.88601e-15 0)
(3 -2.56712e-16 0)
(3 -1.06476e-16 0)
(3 -7.99589e-16 0)
(3 -9.18499e-16 0)
(3 -9.3568e-16 0)
(3 -7.31867e-16 0)
(3 -1.05098e-15 0)
(3 -2.0476e-15 0)
(3 -3.2478e-15 0)
(3 -2.98711e-15 0)
(3 -2.44542e-15 0)
(3 -1.89438e-15 0)
(3 -1.81225e-15 0)
(3 -1.40746e-15 0)
(3 8.41828e-16 0)
(1.63743 0.0571785 0)
(0.791969 0.04583 0)
(0.751397 0.0634546 0)
(0.735631 0.0631596 0)
(0.716546 0.0611816 0)
(0.697969 0.0566209 0)
(0.680828 0.0524012 0)
(0.665594 0.0514996 0)
(0.652046 0.0539893 0)
(0.63872 0.0586148 0)
(0.624435 0.0634891 0)
(0.608915 0.0665013 0)
(0.592497 0.0658308 0)
(0.57602 0.0614628 0)
(0.559904 0.0564845 0)
(0.544074 0.0553641 0)
(0.528813 0.0591862 0)
(0.51359 0.0655795 0)
(0.497609 0.0706241 0)
(0.481133 0.0704741 0)
(0.465394 0.0662233 0)
(0.449629 0.0631194 0)
(0.433921 0.0645135 0)
(0.418356 0.0686524 0)
(0.40224 0.0710773 0)
(0.385769 0.0705336 0)
(0.368806 0.0699245 0)
(0.351267 0.070819 0)
(0.333209 0.0722913 0)
(0.314902 0.0734879 0)
(0.296695 0.0743313 0)
(0.27879 0.0749243 0)
(0.261227 0.0753719 0)
(0.243983 0.0758836 0)
(0.227022 0.0763888 0)
(0.210288 0.0767099 0)
(0.19365 0.0769631 0)
(0.176869 0.0775907 0)
(0.159649 0.0788068 0)
(0.141804 0.0801412 0)
(0.123448 0.0816532 0)
(0.104857 0.0833593 0)
(0.0856605 0.085228 0)
(0.0669153 0.0876201 0)
(0.0479488 0.0902169 0)
(0.0287151 0.0918868 0)
(0.00978117 0.0938441 0)
(3 -9.37361e-17 0)
(3 1.61403e-16 0)
(3 4.34253e-16 0)
(3 7.42732e-16 0)
(3 6.39495e-16 0)
(3 4.55578e-16 0)
(3 -1.47668e-16 0)
(3 -1.49907e-16 0)
(3 -2.79328e-16 0)
(3 -2.60579e-16 0)
(3 -2.94107e-16 0)
(3 2.57848e-16 0)
(3 3.90331e-17 0)
(3 3.009e-16 0)
(3 9.84256e-16 0)
(3 1.70989e-15 0)
(3 2.10201e-15 0)
(3 2.20046e-15 0)
(3 2.04066e-15 0)
(3 1.94118e-15 0)
(3 1.44297e-15 0)
(3 7.68947e-16 0)
(3 1.77581e-16 0)
(3 4.46979e-17 0)
(3 5.86027e-16 0)
(3 1.62246e-15 0)
(3 1.90694e-15 0)
(3 1.50756e-15 0)
(3 1.42322e-15 0)
(3 1.75425e-15 0)
(3 2.02711e-15 0)
(3 2.15692e-15 0)
(3 1.72388e-15 0)
(3 9.01188e-16 0)
(3 -4.0014e-16 0)
(3 -1.02169e-15 0)
(3 -1.41655e-15 0)
(3 -1.92132e-15 0)
(3 -1.89038e-15 0)
(3 -1.67987e-15 0)
(3 -1.8789e-15 0)
(3 -1.6948e-15 0)
(3 -1.56457e-15 0)
(3 -1.8908e-15 0)
(3 -1.23089e-15 0)
(3 -1.29806e-15 0)
(3 -1.74178e-15 0)
(3 -6.97034e-16 0)
(3 -3.24551e-15 0)
(1.6999 0.0687493 0)
(0.795677 0.0562876 0)
(0.751751 0.0745492 0)
(0.73651 0.0768744 0)
(0.717628 0.076317 0)
(0.698958 0.0723679 0)
(0.681406 0.0669647 0)
(0.665448 0.0641256 0)
(0.651421 0.0654801 0)
(0.638401 0.0699409 0)
(0.624808 0.0752865 0)
(0.609924 0.0792547 0)
(0.59376 0.0798101 0)
(0.577093 0.0763532 0)
(0.560658 0.0713326 0)
(0.544475 0.0696197 0)
(0.529102 0.0731734 0)
(0.514324 0.0797606 0)
(0.498959 0.0850075 0)
(0.482865 0.0850173 0)
(0.46711 0.080803 0)
(0.451006 0.0777187 0)
(0.434936 0.0794688 0)
(0.419277 0.0842437 0)
(0.403182 0.0870737 0)
(0.386827 0.0865736 0)
(0.369936 0.0860867 0)
(0.352395 0.0873062 0)
(0.334273 0.089085 0)
(0.315881 0.09043 0)
(0.29764 0.0913315 0)
(0.279781 0.0919741 0)
(0.262311 0.0924952 0)
(0.245117 0.0931337 0)
(0.228063 0.093789 0)
(0.211051 0.094239 0)
(0.193984 0.094601 0)
(0.176702 0.0953549 0)
(0.159 0.0967055 0)
(0.140761 0.0980725 0)
(0.122124 0.0995848 0)
(0.103359 0.101318 0)
(0.0841432 0.103305 0)
(0.0655397 0.106036 0)
(0.0468916 0.109171 0)
(0.0280347 0.111275 0)
(0.0095878 0.113804 0)
(3 3.63081e-17 0)
(3 6.9173e-17 0)
(3 5.91323e-16 0)
(3 6.9891e-16 0)
(3 5.59298e-16 0)
(3 4.04993e-16 0)
(3 6.90042e-17 0)
(3 -4.14651e-16 0)
(3 -3.73136e-16 0)
(3 -3.70878e-16 0)
(3 -5.84497e-16 0)
(3 -4.54509e-16 0)
(3 3.26503e-16 0)
(3 1.14908e-15 0)
(3 1.96791e-15 0)
(3 2.43602e-15 0)
(3 1.98552e-15 0)
(3 1.4071e-15 0)
(3 1.09631e-15 0)
(3 1.11785e-15 0)
(3 1.70376e-15 0)
(3 1.61157e-15 0)
(3 1.71621e-15 0)
(3 1.65168e-15 0)
(3 1.24611e-15 0)
(3 1.12899e-15 0)
(3 6.22521e-16 0)
(3 4.64348e-16 0)
(3 1.0789e-15 0)
(3 2.43135e-15 0)
(3 2.36234e-15 0)
(3 1.15996e-15 0)
(3 -4.52203e-17 0)
(3 6.15103e-18 0)
(3 3.36153e-16 0)
(3 9.02666e-17 0)
(3 -8.17664e-16 0)
(3 -2.10798e-15 0)
(3 -2.61344e-15 0)
(3 -3.0443e-15 0)
(3 -3.13997e-15 0)
(3 -2.47096e-15 0)
(3 -1.22923e-15 0)
(3 -1.32612e-15 0)
(3 -2.18484e-15 0)
(3 -1.80179e-15 0)
(3 -2.08792e-15 0)
(3 -6.78767e-16 0)
(3 -1.56175e-15 0)
(1.77764 0.081417 0)
(0.801588 0.068043 0)
(0.751626 0.0852785 0)
(0.737147 0.090123 0)
(0.718566 0.0909131 0)
(0.700219 0.087984 0)
(0.682693 0.082171 0)
(0.666277 0.0775371 0)
(0.651547 0.0773328 0)
(0.638255 0.0812361 0)
(0.624785 0.0868483 0)
(0.610146 0.0917812 0)
(0.594086 0.0937 0)
(0.577335 0.0913559 0)
(0.560911 0.0864145 0)
(0.544744 0.0839293 0)
(0.529383 0.0868987 0)
(0.514967 0.0934184 0)
(0.499993 0.0989062 0)
(0.483988 0.0994369 0)
(0.467935 0.0955857 0)
(0.451441 0.0926376 0)
(0.435094 0.0946647 0)
(0.419501 0.0999087 0)
(0.403654 0.103056 0)
(0.387675 0.102622 0)
(0.371164 0.102277 0)
(0.353973 0.10379 0)
(0.336164 0.105822 0)
(0.318052 0.107264 0)
(0.300089 0.108191 0)
(0.282496 0.108888 0)
(0.265238 0.109538 0)
(0.248129 0.110402 0)
(0.230964 0.11133 0)
(0.213626 0.112035 0)
(0.196059 0.112617 0)
(0.17819 0.113574 0)
(0.159911 0.115085 0)
(0.141171 0.116452 0)
(0.122138 0.117882 0)
(0.103065 0.119526 0)
(0.0837037 0.121494 0)
(0.0650354 0.1244 0)
(0.0464795 0.127956 0)
(0.0277527 0.130414 0)
(0.00952855 0.133455 0)
(3 -2.79324e-17 0)
(3 -4.14382e-16 0)
(3 -3.74095e-16 0)
(3 -6.37417e-16 0)
(3 -3.85995e-16 0)
(3 1.59911e-17 0)
(3 -4.89981e-17 0)
(3 -1.33991e-16 0)
(3 -3.5603e-16 0)
(3 -5.25863e-16 0)
(3 -3.0059e-16 0)
(3 2.63544e-16 0)
(3 8.65689e-16 0)
(3 1.63933e-15 0)
(3 1.72075e-15 0)
(3 1.99171e-15 0)
(3 1.20095e-15 0)
(3 8.06626e-16 0)
(3 8.87141e-16 0)
(3 9.08081e-16 0)
(3 1.94754e-15 0)
(3 2.5512e-15 0)
(3 2.9415e-15 0)
(3 3.73765e-15 0)
(3 2.68645e-15 0)
(3 2.02001e-15 0)
(3 1.26137e-15 0)
(3 5.11581e-16 0)
(3 5.06752e-16 0)
(3 1.1252e-15 0)
(3 1.12557e-16 0)
(3 -7.16877e-16 0)
(3 -6.64259e-16 0)
(3 -3.04927e-16 0)
(3 -9.21773e-17 0)
(3 -8.86031e-16 0)
(3 -1.35713e-15 0)
(3 -2.04759e-15 0)
(3 -3.06908e-15 0)
(3 -3.12727e-15 0)
(3 -2.67239e-15 0)
(3 -2.85299e-15 0)
(3 -2.92958e-15 0)
(3 -3.25478e-15 0)
(3 -2.9382e-15 0)
(3 -2.72221e-15 0)
(3 -2.86724e-15 0)
(3 -9.22997e-16 0)
(3 -2.96547e-15 0)
(1.87479 0.0945275 0)
(0.811114 0.0815685 0)
(0.751472 0.0957153 0)
(0.73815 0.102935 0)
(0.719978 0.104771 0)
(0.702293 0.102974 0)
(0.685069 0.0974726 0)
(0.668538 0.0916303 0)
(0.653186 0.0898055 0)
(0.639319 0.0928898 0)
(0.62566 0.098566 0)
(0.611064 0.104327 0)
(0.595091 0.107468 0)
(0.578329 0.106202 0)
(0.561923 0.10148 0)
(0.545796 0.098238 0)
(0.530357 0.10045 0)
(0.516153 0.106766 0)
(0.501489 0.112615 0)
(0.485616 0.113932 0)
(0.469427 0.110612 0)
(0.45286 0.10778 0)
(0.436559 0.109898 0)
(0.421284 0.115362 0)
(0.405861 0.118686 0)
(0.390354 0.118302 0)
(0.374293 0.118089 0)
(0.357535 0.119844 0)
(0.34012 0.122068 0)
(0.322336 0.123579 0)
(0.304605 0.124564 0)
(0.287118 0.125429 0)
(0.269813 0.126396 0)
(0.252484 0.127716 0)
(0.234905 0.129143 0)
(0.216965 0.130283 0)
(0.198665 0.131195 0)
(0.18002 0.13239 0)
(0.161018 0.134037 0)
(0.141688 0.135334 0)
(0.122233 0.136589 0)
(0.102886 0.138045 0)
(0.0834319 0.139892 0)
(0.0647241 0.142846 0)
(0.0462462 0.146727 0)
(0.0275976 0.149463 0)
(0.00951755 0.152959 0)
(3 1.57174e-16 0)
(3 4.48361e-16 0)
(3 2.34416e-16 0)
(3 1.71073e-16 0)
(3 3.05076e-16 0)
(3 1.25768e-16 0)
(3 -3.88546e-17 0)
(3 1.55523e-16 0)
(3 3.84954e-16 0)
(3 5.81111e-17 0)
(3 -4.7311e-17 0)
(3 8.65073e-16 0)
(3 9.50233e-16 0)
(3 1.29657e-15 0)
(3 1.39629e-15 0)
(3 1.67119e-15 0)
(3 1.62179e-15 0)
(3 7.45703e-16 0)
(3 3.29189e-16 0)
(3 1.18296e-15 0)
(3 1.50773e-15 0)
(3 2.15623e-15 0)
(3 2.38732e-15 0)
(3 2.89716e-15 0)
(3 3.39798e-15 0)
(3 3.16255e-15 0)
(3 3.0498e-15 0)
(3 2.2535e-15 0)
(3 1.15999e-15 0)
(3 -4.01173e-16 0)
(3 2.0402e-17 0)
(3 -1.10976e-15 0)
(3 -9.09936e-16 0)
(3 -1.092e-15 0)
(3 -6.48555e-16 0)
(3 -3.59073e-16 0)
(3 -5.85472e-16 0)
(3 -1.32527e-15 0)
(3 -1.95821e-15 0)
(3 -2.22264e-15 0)
(3 -2.29258e-15 0)
(3 -2.45819e-15 0)
(3 -4.02609e-15 0)
(3 -4.0242e-15 0)
(3 -3.7235e-15 0)
(3 -3.56092e-15 0)
(3 -3.33204e-15 0)
(3 -1.45461e-15 0)
(3 -4.31973e-15 0)
(1.99361 0.106258 0)
(0.825127 0.0971823 0)
(0.750887 0.10594 0)
(0.739057 0.115043 0)
(0.721463 0.117826 0)
(0.704742 0.117054 0)
(0.688053 0.112399 0)
(0.671804 0.106049 0)
(0.656135 0.102776 0)
(0.641709 0.104857 0)
(0.627889 0.110394 0)
(0.613415 0.116776 0)
(0.597617 0.120971 0)
(0.580884 0.120753 0)
(0.564419 0.116416 0)
(0.548267 0.112521 0)
(0.532646 0.113859 0)
(0.518488 0.119839 0)
(0.504132 0.126117 0)
(0.488425 0.128357 0)
(0.472216 0.125642 0)
(0.455708 0.122864 0)
(0.439484 0.124897 0)
(0.424418 0.130417 0)
(0.409208 0.133904 0)
(0.39385 0.133667 0)
(0.377895 0.133666 0)
(0.361231 0.135711 0)
(0.343861 0.1382 0)
(0.326016 0.139916 0)
(0.308086 0.14115 0)
(0.290257 0.142384 0)
(0.27251 0.14384 0)
(0.254704 0.145728 0)
(0.236659 0.147696 0)
(0.218285 0.149243 0)
(0.199591 0.150411 0)
(0.180592 0.15175 0)
(0.161286 0.153441 0)
(0.141727 0.154587 0)
(0.122147 0.155602 0)
(0.102754 0.156821 0)
(0.0833242 0.158486 0)
(0.0646311 0.16139 0)
(0.046211 0.165514 0)
(0.0275722 0.168455 0)
(0.00955368 0.172349 0)
(3 -1.28931e-16 0)
(3 1.00454e-16 0)
(3 3.30578e-16 0)
(3 3.24218e-16 0)
(3 6.68568e-16 0)
(3 6.45517e-16 0)
(3 1.04365e-15 0)
(3 1.08711e-15 0)
(3 1.48682e-15 0)
(3 1.00789e-15 0)
(3 2.16489e-16 0)
(3 2.26819e-16 0)
(3 7.24711e-16 0)
(3 1.30307e-15 0)
(3 1.75203e-15 0)
(3 1.83608e-15 0)
(3 2.02329e-15 0)
(3 1.79154e-15 0)
(3 1.39471e-15 0)
(3 1.10907e-15 0)
(3 1.42136e-15 0)
(3 1.13687e-15 0)
(3 8.36034e-16 0)
(3 6.5203e-16 0)
(3 4.67962e-16 0)
(3 3.09394e-16 0)
(3 1.17452e-15 0)
(3 7.72754e-16 0)
(3 2.70073e-16 0)
(3 -6.75005e-16 0)
(3 -1.24629e-15 0)
(3 -1.19724e-15 0)
(3 -1.18648e-15 0)
(3 -6.59689e-16 0)
(3 1.44172e-16 0)
(3 2.39751e-16 0)
(3 -9.9838e-17 0)
(3 -6.90157e-16 0)
(3 -1.8397e-15 0)
(3 -2.10094e-15 0)
(3 -2.42651e-15 0)
(3 -2.04437e-15 0)
(3 -2.77102e-15 0)
(3 -3.01764e-15 0)
(3 -3.46453e-15 0)
(3 -3.04627e-15 0)
(3 -2.08219e-15 0)
(3 -1.50885e-15 0)
(3 -1.22692e-15 0)
(2.13195 0.115702 0)
(0.843197 0.115929 0)
(0.749233 0.116331 0)
(0.738149 0.126336 0)
(0.721337 0.130185 0)
(0.70532 0.130521 0)
(0.689074 0.126959 0)
(0.673203 0.120764 0)
(0.657504 0.11638 0)
(0.642669 0.117251 0)
(0.628707 0.122392 0)
(0.614444 0.129205 0)
(0.598962 0.134338 0)
(0.582443 0.13514 0)
(0.566059 0.131357 0)
(0.550046 0.126981 0)
(0.534401 0.127362 0)
(0.520268 0.132883 0)
(0.506344 0.1396 0)
(0.490932 0.142799 0)
(0.474799 0.140751 0)
(0.458384 0.138015 0)
(0.442192 0.139879 0)
(0.427209 0.145404 0)
(0.412048 0.149118 0)
(0.39664 0.14913 0)
(0.380639 0.149377 0)
(0.363973 0.151712 0)
(0.346609 0.154489 0)
(0.328719 0.156473 0)
(0.31066 0.158029 0)
(0.292617 0.159676 0)
(0.274612 0.161621 0)
(0.256565 0.164045 0)
(0.238323 0.166503 0)
(0.219794 0.168402 0)
(0.200964 0.169774 0)
(0.181814 0.171225 0)
(0.162338 0.172957 0)
(0.14262 0.17398 0)
(0.122931 0.174795 0)
(0.103462 0.175825 0)
(0.0839733 0.177327 0)
(0.0651625 0.180131 0)
(0.0466312 0.184446 0)
(0.0278125 0.187518 0)
(0.00967448 0.191743 0)
(3 -1.33396e-16 0)
(3 -5.57849e-16 0)
(3 -5.30623e-16 0)
(3 -1.7323e-16 0)
(3 -3.61736e-16 0)
(3 4.81433e-16 0)
(3 6.70778e-16 0)
(3 1.08554e-15 0)
(3 1.11183e-15 0)
(3 6.40696e-16 0)
(3 4.81907e-16 0)
(3 3.76465e-16 0)
(3 1.15135e-15 0)
(3 1.46925e-15 0)
(3 1.43275e-15 0)
(3 1.11474e-15 0)
(3 6.86142e-16 0)
(3 3.28827e-16 0)
(3 2.75042e-16 0)
(3 5.0213e-16 0)
(3 6.93987e-16 0)
(3 4.47721e-16 0)
(3 2.58904e-16 0)
(3 6.70012e-17 0)
(3 -6.40604e-16 0)
(3 -1.17596e-16 0)
(3 8.47075e-17 0)
(3 -2.64511e-16 0)
(3 -7.87604e-16 0)
(3 -1.43071e-15 0)
(3 -1.9195e-15 0)
(3 -7.81556e-16 0)
(3 -4.54318e-16 0)
(3 -1.95982e-16 0)
(3 -5.4454e-17 0)
(3 -3.5332e-16 0)
(3 -4.62083e-16 0)
(3 -8.47551e-16 0)
(3 -1.13512e-15 0)
(3 -4.26423e-16 0)
(3 -6.85261e-17 0)
(3 -1.92222e-16 0)
(3 -7.38825e-16 0)
(3 -1.33495e-15 0)
(3 -1.79149e-15 0)
(3 -1.77935e-15 0)
(3 -1.93227e-15 0)
(3 -1.55785e-15 0)
(3 -4.97235e-15 0)
(2.2879 0.121989 0)
(0.866773 0.136736 0)
(0.750266 0.127996 0)
(0.738327 0.137796 0)
(0.722233 0.142284 0)
(0.70708 0.143718 0)
(0.691585 0.141028 0)
(0.676282 0.135363 0)
(0.660639 0.130335 0)
(0.645294 0.129981 0)
(0.630875 0.134502 0)
(0.616609 0.141499 0)
(0.6014 0.147384 0)
(0.58519 0.149126 0)
(0.568981 0.146035 0)
(0.553136 0.141387 0)
(0.537433 0.140827 0)
(0.523114 0.145815 0)
(0.509409 0.152928 0)
(0.494176 0.157097 0)
(0.47801 0.155806 0)
(0.461608 0.153124 0)
(0.445367 0.154757 0)
(0.430379 0.160261 0)
(0.415195 0.164278 0)
(0.399647 0.164625 0)
(0.383525 0.165131 0)
(0.366796 0.167749 0)
(0.349394 0.170843 0)
(0.331431 0.173171 0)
(0.31324 0.175129 0)
(0.295012 0.177234 0)
(0.276816 0.179663 0)
(0.258642 0.182582 0)
(0.240372 0.185474 0)
(0.221897 0.187664 0)
(0.203153 0.18919 0)
(0.18405 0.190734 0)
(0.164538 0.192535 0)
(0.144714 0.193512 0)
(0.124894 0.194225 0)
(0.105266 0.195165 0)
(0.085574 0.196567 0)
(0.0664641 0.199255 0)
(0.0476063 0.20372 0)
(0.0283834 0.206866 0)
(0.00989923 0.211345 0)
(3 5.805e-17 0)
(3 -1.88256e-16 0)
(3 -3.44846e-16 0)
(3 1.21531e-16 0)
(3 1.07913e-16 0)
(3 4.99103e-16 0)
(3 1.91929e-17 0)
(3 -1.174e-15 0)
(3 -1.05732e-15 0)
(3 -4.39306e-17 0)
(3 5.37108e-16 0)
(3 5.2376e-16 0)
(3 5.70434e-16 0)
(3 5.76278e-16 0)
(3 4.11099e-16 0)
(3 -6.74094e-16 0)
(3 -1.17514e-15 0)
(3 -5.8103e-16 0)
(3 -2.79005e-16 0)
(3 -9.01052e-17 0)
(3 -1.1884e-16 0)
(3 -2.34017e-16 0)
(3 -1.08711e-16 0)
(3 -9.85571e-17 0)
(3 -3.05328e-16 0)
(3 -8.89536e-16 0)
(3 -7.65308e-16 0)
(3 -5.745e-16 0)
(3 -1.07492e-15 0)
(3 -1.15691e-15 0)
(3 4.27662e-16 0)
(3 7.75764e-16 0)
(3 -1.30698e-16 0)
(3 -6.35519e-16 0)
(3 -1.28105e-15 0)
(3 -1.13046e-15 0)
(3 -3.61814e-16 0)
(3 -1.62932e-16 0)
(3 7.45147e-16 0)
(3 1.48943e-15 0)
(3 1.66914e-15 0)
(3 1.20881e-15 0)
(3 6.37421e-16 0)
(3 4.68264e-16 0)
(3 2.99293e-16 0)
(3 9.58792e-18 0)
(3 -2.92231e-16 0)
(3 -1.2403e-15 0)
(3 -3.64657e-15 0)
(2.45573 0.121406 0)
(0.898004 0.155837 0)
(0.756032 0.141164 0)
(0.742588 0.149849 0)
(0.726714 0.154058 0)
(0.712447 0.156087 0)
(0.697613 0.154439 0)
(0.682401 0.149821 0)
(0.666546 0.144813 0)
(0.650446 0.143443 0)
(0.635178 0.147126 0)
(0.62065 0.153944 0)
(0.605693 0.160234 0)
(0.589856 0.162744 0)
(0.573699 0.160514 0)
(0.557629 0.155986 0)
(0.541457 0.154671 0)
(0.52647 0.159098 0)
(0.512564 0.166487 0)
(0.497372 0.171511 0)
(0.48116 0.17097 0)
(0.464773 0.168322 0)
(0.448462 0.169665 0)
(0.433421 0.175144 0)
(0.418195 0.179552 0)
(0.402511 0.180311 0)
(0.386338 0.181057 0)
(0.36968 0.183909 0)
(0.352422 0.187313 0)
(0.334585 0.190014 0)
(0.316457 0.192403 0)
(0.298231 0.194956 0)
(0.280016 0.19781 0)
(0.261872 0.201138 0)
(0.243712 0.204379 0)
(0.225399 0.206802 0)
(0.206805 0.208463 0)
(0.187756 0.210145 0)
(0.168162 0.212123 0)
(0.14813 0.213215 0)
(0.128036 0.213987 0)
(0.108088 0.214972 0)
(0.0880386 0.216366 0)
(0.0684611 0.218945 0)
(0.0490841 0.223527 0)
(0.0292672 0.226724 0)
(0.0102313 0.231401 0)
(3 3.92554e-17 0)
(3 -1.55738e-16 0)
(3 -2.44322e-16 0)
(3 -4.08232e-16 0)
(3 -4.5874e-16 0)
(3 -4.68835e-16 0)
(3 -4.36334e-16 0)
(3 -7.85315e-16 0)
(3 -3.78205e-16 0)
(3 2.05572e-17 0)
(3 -4.75116e-17 0)
(3 -1.09884e-16 0)
(3 -9.28357e-16 0)
(3 -1.1396e-15 0)
(3 -1.36846e-15 0)
(3 -6.53934e-16 0)
(3 -3.31306e-16 0)
(3 1.7972e-17 0)
(3 2.60623e-16 0)
(3 -4.866e-17 0)
(3 -2.13514e-16 0)
(3 -8.01818e-16 0)
(3 -4.91016e-16 0)
(3 -8.83093e-16 0)
(3 -8.2505e-16 0)
(3 -2.08872e-16 0)
(3 2.18782e-16 0)
(3 7.9377e-16 0)
(3 1.74786e-16 0)
(3 6.3258e-16 0)
(3 1.36194e-15 0)
(3 1.45192e-15 0)
(3 8.89691e-16 0)
(3 -3.87698e-16 0)
(3 -2.05571e-15 0)
(3 -2.23886e-15 0)
(3 -2.22697e-15 0)
(3 -1.35661e-17 0)
(3 8.65666e-16 0)
(3 6.28322e-16 0)
(3 4.35021e-16 0)
(3 9.2668e-17 0)
(3 4.01126e-17 0)
(3 7.26961e-16 0)
(3 1.11695e-15 0)
(3 8.52743e-16 0)
(3 5.79775e-16 0)
(3 6.05193e-16 0)
(3 -1.3998e-15 0)
(2.61751 0.116225 0)
(0.933409 0.174056 0)
(0.764191 0.154914 0)
(0.751419 0.161863 0)
(0.735783 0.16482 0)
(0.721959 0.167267 0)
(0.707171 0.167202 0)
(0.69174 0.164188 0)
(0.675501 0.159915 0)
(0.658759 0.157814 0)
(0.642639 0.160343 0)
(0.62769 0.166466 0)
(0.612769 0.172789 0)
(0.596932 0.176136 0)
(0.580243 0.175228 0)
(0.563337 0.171368 0)
(0.546392 0.169453 0)
(0.530605 0.173066 0)
(0.516508 0.180344 0)
(0.501557 0.18594 0)
(0.485407 0.186135 0)
(0.468932 0.183582 0)
(0.452376 0.184616 0)
(0.437112 0.19005 0)
(0.421818 0.194874 0)
(0.406075 0.196048 0)
(0.389974 0.19695 0)
(0.373492 0.199963 0)
(0.356443 0.203676 0)
(0.338745 0.206809 0)
(0.320669 0.209687 0)
(0.302445 0.212703 0)
(0.284237 0.215941 0)
(0.266173 0.219606 0)
(0.248176 0.223141 0)
(0.23005 0.225783 0)
(0.211589 0.227623 0)
(0.192545 0.229543 0)
(0.172803 0.231846 0)
(0.152479 0.233228 0)
(0.132015 0.234213 0)
(0.11165 0.235359 0)
(0.0911419 0.23683 0)
(0.0709833 0.239331 0)
(0.0509437 0.244018 0)
(0.0304048 0.24729 0)
(0.0106522 0.252155 0)
(3 2.67456e-17 0)
(3 2.42439e-17 0)
(3 2.03116e-18 0)
(3 -3.30448e-16 0)
(3 -1.95941e-16 0)
(3 -2.25376e-16 0)
(3 -6.58493e-17 0)
(3 3.42108e-16 0)
(3 3.19473e-16 0)
(3 -8.43451e-17 0)
(3 -2.46316e-16 0)
(3 -8.11178e-18 0)
(3 -3.44178e-16 0)
(3 -3.67337e-16 0)
(3 -9.10008e-16 0)
(3 -1.67095e-16 0)
(3 4.52906e-16 0)
(3 1.36553e-16 0)
(3 -3.29461e-17 0)
(3 -5.3298e-16 0)
(3 -7.42434e-16 0)
(3 -1.34809e-15 0)
(3 -1.91369e-15 0)
(3 -1.70689e-15 0)
(3 -1.50872e-15 0)
(3 -2.79757e-16 0)
(3 1.65946e-16 0)
(3 8.26268e-16 0)
(3 1.32558e-15 0)
(3 1.71877e-15 0)
(3 2.06374e-15 0)
(3 1.80826e-15 0)
(3 8.86068e-16 0)
(3 -2.72755e-16 0)
(3 -1.03919e-15 0)
(3 -1.99165e-15 0)
(3 -1.05035e-15 0)
(3 -5.23657e-16 0)
(3 -5.96887e-16 0)
(3 -1.01077e-15 0)
(3 -8.73969e-16 0)
(3 -8.72769e-16 0)
(3 -4.03731e-16 0)
(3 4.33008e-16 0)
(3 9.56622e-16 0)
(3 1.70901e-15 0)
(3 2.18915e-15 0)
(3 2.1519e-15 0)
(3 7.63132e-17 0)
(2.77145 0.104091 0)
(0.978931 0.1864 0)
(0.775013 0.164706 0)
(0.763927 0.172017 0)
(0.747861 0.175484 0)
(0.733881 0.178834 0)
(0.719157 0.179866 0)
(0.703761 0.178367 0)
(0.68748 0.175144 0)
(0.670478 0.172642 0)
(0.653606 0.173925 0)
(0.637824 0.179145 0)
(0.622356 0.185554 0)
(0.606005 0.190059 0)
(0.588587 0.190693 0)
(0.570984 0.187643 0)
(0.553631 0.185021 0)
(0.537307 0.18742 0)
(0.522939 0.194198 0)
(0.508054 0.200277 0)
(0.491634 0.201458 0)
(0.474674 0.199216 0)
(0.457601 0.199891 0)
(0.441925 0.205126 0)
(0.426505 0.210258 0)
(0.410635 0.21183 0)
(0.394431 0.21288 0)
(0.377887 0.216069 0)
(0.360827 0.220148 0)
(0.343135 0.223759 0)
(0.325115 0.227113 0)
(0.307022 0.230514 0)
(0.289016 0.234024 0)
(0.271208 0.237927 0)
(0.25346 0.241719 0)
(0.235499 0.244625 0)
(0.217065 0.246754 0)
(0.197892 0.249065 0)
(0.177878 0.251862 0)
(0.157146 0.253708 0)
(0.136196 0.255045 0)
(0.115295 0.256445 0)
(0.0942322 0.258065 0)
(0.0734284 0.260519 0)
(0.0526976 0.265298 0)
(0.0314795 0.268655 0)
(0.0110341 0.273701 0)
(3 -1.45547e-16 0)
(3 -6.47663e-18 0)
(3 3.00216e-16 0)
(3 7.26988e-16 0)
(3 7.01986e-16 0)
(3 2.77468e-16 0)
(3 5.4494e-16 0)
(3 4.60144e-16 0)
(3 1.64553e-16 0)
(3 6.35956e-16 0)
(3 1.23603e-15 0)
(3 7.72094e-16 0)
(3 7.36777e-16 0)
(3 5.5274e-17 0)
(3 -2.66786e-16 0)
(3 -3.99783e-16 0)
(3 -5.80786e-16 0)
(3 -3.46801e-16 0)
(3 -6.48197e-16 0)
(3 -7.78323e-16 0)
(3 -9.83783e-16 0)
(3 -1.46197e-15 0)
(3 -1.82195e-15 0)
(3 -1.32461e-15 0)
(3 -7.33252e-16 0)
(3 -9.99169e-16 0)
(3 -5.99182e-16 0)
(3 3.82298e-17 0)
(3 1.39267e-15 0)
(3 1.12697e-15 0)
(3 2.67083e-16 0)
(3 1.29092e-16 0)
(3 -1.50707e-16 0)
(3 -8.03651e-16 0)
(3 -6.02483e-16 0)
(3 -8.44256e-16 0)
(3 -9.02162e-16 0)
(3 -1.12896e-15 0)
(3 -9.32306e-16 0)
(3 -7.85843e-16 0)
(3 -4.76322e-16 0)
(3 6.30923e-16 0)
(3 1.10429e-15 0)
(3 1.06116e-15 0)
(3 1.08099e-15 0)
(3 1.6603e-15 0)
(3 2.07812e-15 0)
(3 1.23029e-15 0)
(3 6.67257e-16 0)
(2.90054 0.0718465 0)
(1.02798 0.196122 0)
(0.782154 0.172264 0)
(0.77468 0.181906 0)
(0.760203 0.185715 0)
(0.746621 0.189133 0)
(0.732012 0.19135 0)
(0.716708 0.191591 0)
(0.700613 0.189837 0)
(0.683714 0.187714 0)
(0.666448 0.18822 0)
(0.649853 0.192598 0)
(0.633787 0.199002 0)
(0.617143 0.204447 0)
(0.5995 0.206316 0)
(0.581642 0.204029 0)
(0.564047 0.20087 0)
(0.54708 0.202078 0)
(0.531985 0.208333 0)
(0.516799 0.215016 0)
(0.499936 0.217357 0)
(0.482428 0.215496 0)
(0.464796 0.215635 0)
(0.448513 0.22045 0)
(0.432702 0.225834 0)
(0.41636 0.227923 0)
(0.399699 0.229187 0)
(0.38285 0.232512 0)
(0.365712 0.236852 0)
(0.348119 0.240792 0)
(0.330316 0.24446 0)
(0.312484 0.248126 0)
(0.294707 0.25185 0)
(0.277057 0.25601 0)
(0.259366 0.260151 0)
(0.241338 0.263462 0)
(0.222716 0.266033 0)
(0.203267 0.268881 0)
(0.182909 0.272316 0)
(0.161728 0.274768 0)
(0.140249 0.276563 0)
(0.11876 0.278282 0)
(0.0970936 0.280098 0)
(0.0756381 0.282514 0)
(0.0542484 0.287358 0)
(0.032416 0.290774 0)