/*--------------------------------*- C++ -*----------------------------------*\
  =========                 |
  \\      /  F ield         | OpenFOAM: The Open Source CFD Toolbox
   \\    /   O peration     | Website:  https://openfoam.org
    \\  /    A nd           | Version:  9
     \\/     M anipulation  |
\*---------------------------------------------------------------------------*/
FoamFile
{
    format      ascii;
    class       volVectorField;
    location    "17";
    object      U;
}
// * * * * * * * * * * * * * * * * * * * * * * * * * * * * * * * * * * * * * //

dimensions      [0 1 -1 0 0 0 0];

internalField   nonuniform List<vector> 
8500
(
(-0.00677315 0.00269999 0)
(-0.0302981 0.00465153 -6.93167e-23)
(-0.0636677 0.00516319 -3.81161e-24)
(-0.092918 0.00504741 7.22453e-37)
(-0.122104 0.00480468 -1.06408e-23)
(-0.144591 0.00428882 8.86011e-24)
(-0.171243 0.00440037 -6.01029e-23)
(-0.18539 0.00326123 -9.33686e-23)
(-0.210455 0.00463357 -8.56359e-23)
(-0.223236 0.00272093 -4.46027e-24)
(-0.00706682 0.00804213 2.00223e-22)
(-0.0305226 0.0138725 6.47637e-23)
(-0.0634562 0.0154055 2.59969e-22)
(-0.0920689 0.0150599 0)
(-0.120562 0.0143276 0)
(-0.141881 0.0127796 1.78673e-23)
(-0.167721 0.0130916 4.51845e-23)
(-0.179698 0.00966173 9.96687e-23)
(-0.203715 0.0137701 6.4425e-23)
(-0.213327 0.00791862 1.78468e-23)
(-0.00764561 0.0132134 -1.7793e-22)
(-0.0309698 0.0228495 0)
(-0.0630442 0.0253968 -2.44645e-22)
(-0.090392 0.0248263 0)
(-0.117514 0.0235908 -4.26221e-23)
(-0.136515 0.0210149 3.54894e-23)
(-0.160768 0.0214515 0)
(-0.16843 0.0157125 0)
(-0.190485 0.0225288 0)
(-0.193968 0.0124089 0)
(-0.00849302 0.018108 3.57688e-22)
(-0.0316364 0.0314269 -2.60053e-22)
(-0.0624522 0.0349739 -6.13474e-23)
(-0.0879286 0.0341862 -3.82582e-22)
(-0.113027 0.0324204 -3.84307e-22)
(-0.128595 0.0288393 3.58323e-23)
(-0.150546 0.0292501 -2.99181e-23)
(-0.151789 0.0212299 3.47038e-22)
(-0.171193 0.0307033 -1.59195e-25)
(-0.165934 0.0158066 3.5292e-22)
(-0.00958592 0.0226322 -3.57687e-22)
(-0.0325171 0.0394598 -3.36075e-22)
(-0.061708 0.04398 9.22895e-23)
(-0.0847359 0.0429836 5.10607e-22)
(-0.107187 0.0406417 -4.34056e-23)
(-0.118265 0.0361173 5.69167e-22)
(-0.137249 0.0362426 0)
(-0.130005 0.0260911 -3.9755e-22)
(-0.146312 0.0381513 -8.51649e-23)
(-0.130022 0.0178782 -4.90414e-22)
(-0.0108962 0.026708 9.01562e-23)
(-0.0336041 0.0468172 5.58941e-22)
(-0.0608432 0.0522652 -4.32053e-22)
(-0.0808824 0.0510703 -3.35928e-25)
(-0.100083 0.0480806 -3.87403e-22)
(-0.105689 0.0427362 1.4366e-22)
(-0.121058 0.0421634 -6.00826e-23)
(-0.103262 0.0302408 4.96951e-22)
(-0.116209 0.0447819 -8.49527e-23)
(-0.0866081 0.0186972 2.80614e-22)
(-0.012393 0.0302759 4.51673e-23)
(-0.0348876 0.0533851 0)
(-0.0598878 0.0596891 -1.59824e-24)
(-0.0764401 0.0583066 0)
(-0.0917856 0.0545668 6.87085e-22)
(-0.0910303 0.0486078 -5.69561e-22)
(-0.102073 0.0467212 0)
(-0.0716399 0.0337082 -1.35379e-24)
(-0.0810222 0.0503988 0)
(-0.0350803 0.0189017 0)
(-0.0140448 0.0332967 -7.28218e-22)
(-0.0363541 0.0590693 -7.52127e-23)
(-0.0588638 0.0661235 5.57373e-22)
(-0.0714732 0.064562 1.03362e-22)
(-0.082323 0.0599392 -6.90914e-22)
(-0.0744174 0.0536697 -4.26341e-22)
(-0.0802173 0.049582 -6.0343e-23)
(-0.0350734 0.036659 4.92697e-22)
(-0.0405893 0.0543374 -8.51361e-23)
(0.0266122 0.0196133 7.10885e-23)
(-0.0158218 0.0357525 8.19788e-22)
(-0.037986 0.0637966 -6.04456e-22)
(-0.0577779 0.0714558 -1.86781e-22)
(-0.0660232 0.0697143 1.0305e-22)
(-0.0716493 0.0640521 6.90783e-22)
(-0.0559083 0.0578994 6.42562e-22)
(-0.0550878 0.0503591 -6.04545e-23)
(0.00678017 0.039285 9.83732e-23)
(0.00512333 0.0561051 -1.70746e-22)
(0.102953 0.0212851 7.19302e-23)
(-0.017698 0.0376458 7.36384e-22)
(-0.0397591 0.0675157 6.04785e-22)
(-0.0566131 0.0755925 -8.76236e-22)
(-0.0600902 0.0736498 -1.03355e-22)
(-0.0595998 0.0667703 0)
(-0.0354492 0.0613327 0)
(-0.0259554 0.04894 0)
(0.0551543 0.0416817 -1.56157e-21)
(0.0558522 0.0549901 -7.12079e-22)
(0.198035 0.0247944 5.49126e-22)
(-0.0196524 0.0389977 -1.4771e-21)
(-0.0416398 0.0701977 0)
(-0.0553188 0.0784633 2.00583e-21)
(-0.0536138 0.0762665 8.29706e-22)
(-0.0458365 0.0679666 8.63736e-23)
(-0.0126251 0.0639045 0)
(0.0081579 0.0456238 -9.87099e-22)
(0.111452 0.0443818 7.79214e-22)
(0.113783 0.0495893 7.12069e-22)
(0.314076 0.0311081 -5.49106e-22)
(-0.0216695 0.0398449 8.3369e-22)
(-0.0435802 0.0718351 -7.63135e-23)
(-0.0537977 0.0800246 -1.00464e-21)
(-0.0464507 0.077483 -9.33912e-22)
(-0.0299412 0.0676837 0)
(0.0135201 0.0653342 1.14314e-21)
(0.0491306 0.0408853 9.42597e-25)
(0.176569 0.0482619 6.72255e-22)
(0.184782 0.0402819 7.98224e-22)
(0.449921 0.0393694 -5.4445e-22)
(-0.0237392 0.0402359 3.5139e-26)
(-0.0455129 0.0724398 1.30747e-21)
(-0.0518885 0.0802613 -1.26345e-22)
(-0.0382598 0.0772124 7.28752e-22)
(-0.0113979 0.0660638 4.35434e-22)
(0.0442286 0.0654274 2.89846e-22)
(0.0999588 0.0356055 9.84472e-22)
(0.251056 0.0530898 -8.73616e-22)
(0.27764 0.031219 -5.42806e-22)
(0.599406 0.0483822 4.0124e-22)
(-0.0258557 0.0402266 0)
(-0.0473439 0.0720408 -1.07688e-21)
(-0.049375 0.0791968 -1.26836e-22)
(-0.0284953 0.0753991 1.51799e-24)
(0.0106899 0.0631866 6.94796e-22)
(0.0810917 0.0641201 -9.99062e-22)
(0.163957 0.0314757 9.78264e-22)
(0.335668 0.0573021 -9.9804e-23)
(0.398939 0.0283992 0)
(0.751848 0.0581069 0)
(-0.0280151 0.0398755 9.46192e-23)
(-0.0489408 0.0706827 -1.24233e-21)
(-0.0459541 0.0768943 0)
(-0.0164383 0.072113 -1.03086e-22)
(0.0376075 0.0592149 8.67126e-23)
(0.126352 0.0613157 0)
(0.24358 0.0305746 -9.80019e-22)
(0.432111 0.0598354 -7.72937e-22)
(0.545927 0.0350045 1.68644e-22)
(0.89479 0.0692277 -1.41725e-22)
(-0.0302094 0.039234 -9.50492e-23)
(-0.0501318 0.068429 1.32035e-21)
(-0.0411912 0.0734325 0)
(-0.00114523 0.0675365 -9.40468e-22)
(0.070997 0.0545149 8.67426e-23)
(0.182827 0.0573843 -1.14374e-21)
(0.339315 0.0341972 -1.18697e-22)
(0.542339 0.0621734 8.72266e-22)
(0.704933 0.0494535 0)
(1.01765 0.0814909 1.08311e-21)
(-0.0324175 0.038343 -1.44496e-21)
(-0.0506998 0.0653532 -7.84937e-23)
(-0.0345108 0.0689157 -1.27245e-22)
(0.0186049 0.0619451 1.0525e-22)
(0.1129 0.0497034 -1.38482e-21)
(0.253462 0.0536478 1.14373e-21)
(0.449267 0.0422892 9.63174e-22)
(0.664926 0.0674169 7.72723e-22)
(0.857751 0.0678815 1.33416e-21)
(1.1144 0.0934261 -9.47471e-22)
(-0.0346032 0.0372325 1.54059e-21)
(-0.0503678 0.0615261 0)
(-0.0251973 0.0634895 1.15546e-21)
(0.0443113 0.0557015 -1.05524e-22)
(0.165626 0.0456204 2.76868e-21)
(0.340248 0.0521935 0)
(0.569384 0.0541144 -9.63154e-22)
(0.79236 0.0770531 -1.97498e-24)
(0.989831 0.0870445 -1.49604e-21)
(1.18429 0.103611 1.36066e-22)
(-0.0367105 0.0359181 0)
(-0.0487978 0.0570183 1.2692e-21)
(-0.0123894 0.0573356 -1.02788e-21)
(0.0777084 0.0492867 0)
(0.231355 0.0433368 -1.38385e-21)
(0.442607 0.0550477 0)
(0.693537 0.0689204 9.47582e-22)
(0.913661 0.0900124 -7.70717e-22)
(1.09416 0.10508 -1.27793e-21)
(1.23042 0.111132 -1.03593e-21)
(-0.0386564 0.0343992 -1.95331e-22)
(-0.0455905 0.0519024 -1.10886e-21)
(0.00492321 0.0506738 0)
(0.120677 0.0433722 0)
(0.31138 0.0440976 0)
(0.556416 0.0631104 -1.41511e-22)
(0.814164 0.0857044 -9.4956e-22)
(1.01968 0.10444 -9.72179e-23)
(1.17044 0.120909 1.27793e-21)
(1.25823 0.115296 1.16541e-21)
(-0.0403291 0.0326633 0)
(-0.0402849 0.0462508 -1.2868e-21)
(0.0278998 0.043775 0)
(0.175028 0.0389224 0)
(0.405112 0.0490174 0)
(0.674647 0.0758051 1.40606e-22)
(0.924214 0.103109 -1.16066e-21)
(1.10583 0.119005 9.05774e-23)
(1.22255 0.133387 9.12689e-22)
(1.27455 0.115639 9.99486e-22)
(-0.0416016 0.0307028 0)
(-0.0323447 0.0401211 1.2868e-21)
(0.0578423 0.0370082 -1.04904e-21)
(0.242048 0.0372053 0)
(0.509354 0.0585434 -1.38141e-21)
(0.789509 0.0915939 0)
(1.01906 0.119973 9.28238e-22)
(1.17165 0.13266 -7.42501e-22)
(1.25623 0.141562 -1.2215e-21)
(1.29794 0.125903 -9.94793e-22)
(-0.0423307 0.0284997 1.63618e-21)
(-0.0211658 0.0335585 0)
(0.0961458 0.030941 9.19005e-22)
(0.321813 0.0395172 1.07546e-22)
(0.618637 0.0721393 2.76278e-21)
(0.894726 0.108806 0)
(1.09694 0.135619 -9.06369e-22)
(1.21937 0.144431 -1.47296e-21)
(1.28003 0.14943 -1.02387e-21)
(1.30636 0.131719 -5.2003e-24)
(-0.0423414 0.0260232 -1.73783e-21)
(-0.00606888 0.0266229 8.34348e-23)
(0.144124 0.0264528 1.30723e-22)
(0.412558 0.0466336 -1.08123e-22)
(0.726716 0.088568 -1.38137e-21)
(0.986604 0.126167 1.11389e-21)
(1.15831 0.149671 9.06365e-22)
(1.25311 0.154812 7.30462e-22)
(1.29364 0.15563 1.16907e-21)
(1.30898 0.137374 -1.03436e-21)
(-0.0414413 0.0232422 1.02984e-22)
(0.013731 0.0194196 1.25404e-21)
(0.202665 0.0247352 0)
(0.510632 0.058381 -7.51957e-22)
(0.82828 0.106498 -8.76086e-23)
(1.06383 0.142883 -1.11388e-21)
(1.20508 0.162193 1.08702e-22)
(1.27554 0.163758 6.12174e-22)
(1.30086 0.161174 0)
(1.30849 0.142302 9.20489e-22)
(-0.0394215 0.0201259 -1.06204e-22)
(0.0391242 0.0121866 -1.33857e-21)
(0.27177 0.0270175 0)
(0.611283 0.0737709 1.00996e-22)
(0.919861 0.124905 -8.7837e-23)
(1.12676 0.158575 0)
(1.23947 0.173306 -8.68287e-22)
(1.2896 0.171631 -7.03162e-22)
(1.3034 0.166071 -1.34631e-22)
(1.3049 0.146815 -1.13251e-22)
(-0.0360425 0.0166437 0)
(0.0710386 0.00542421 -1.54226e-21)
(0.350208 0.0340708 1.38313e-22)
(0.709843 0.0915651 -5.26672e-24)
(0.999803 0.143148 -6.88935e-22)
(1.17666 0.173113 -1.21949e-21)
(1.26382 0.183228 9.79294e-22)
(1.29741 0.178647 0)
(1.30266 0.170596 0)
(1.30027 0.151143 0)
(-0.0310062 0.0127745 2.31202e-24)
(0.110281 -2.01352e-06 1.29304e-21)
(0.435545 0.0458523 1.4002e-22)
(0.802654 0.110739 9.73925e-22)
(1.06778 0.160877 6.00652e-22)
(1.21517 0.186515 -1.19161e-22)
(1.2802 0.192175 8.45457e-22)
(1.3007 0.185055 -5.71361e-22)
(1.29981 0.174883 -6.42653e-22)
(1.2945 0.155354 5.16638e-22)
(-0.0239296 0.00853046 8.02194e-22)
(0.157302 -0.00290229 9.0271e-23)
(0.524588 0.0616069 -1.11882e-21)
(0.887382 0.130599 -8.7731e-22)
(1.12427 0.177921 0)
(1.24405 0.198882 1.07455e-21)
(1.29039 0.200366 -1.61161e-23)
(1.30074 0.191042 7.35977e-22)
(1.29546 0.179046 4.49393e-22)
(1.28828 0.159532 -4.09512e-22)
(-0.0143408 0.00399392 -1.84623e-21)
(0.211972 -0.00201714 0)
(0.614023 0.0803101 2.25404e-21)
(0.962867 0.150724 7.70742e-22)
(1.17024 0.194222 8.84526e-23)
(1.26496 0.210352 0)
(1.29586 0.207994 -8.22617e-22)
(1.29848 0.196761 6.24204e-22)
(1.29015 0.183162 4.85482e-22)
(1.28163 0.163713 -3.83075e-22)
(-0.00170796 -0.000638846 9.34054e-22)
(0.273467 0.00359547 7.28647e-22)
(0.700935 0.101066 -1.27368e-21)
(1.02879 0.170884 1.14523e-22)
(1.20681 0.209787 0)
(1.27935 0.221078 0)
(1.29773 0.21523 0)
(1.29457 0.202322 -1.23094e-21)
(1.28414 0.187282 -4.85486e-22)
(1.27472 0.167913 3.83057e-22)
(0.0144869 -0.00501381 8.64356e-22)
(0.340358 0.014271 -7.22865e-22)
(0.783067 0.123246 7.41898e-23)
(1.08535 0.190971 0)
(1.23518 0.224666 6.69108e-22)
(1.28849 0.231208 4.44626e-22)
(1.29691 0.22221 5.10951e-23)
(1.28947 0.207803 -5.38134e-23)
(1.27763 0.191435 1.16294e-22)
(1.26759 0.172138 -4.70341e-23)
(0.0346206 -0.00859402 -9.81109e-22)
(0.410849 0.0297259 9.14312e-23)
(0.858859 0.146432 5.87634e-22)
(1.13304 0.210922 -1.64013e-22)
(1.25649 0.238926 -5.01901e-22)
(1.29342 0.240879 -6.31846e-22)
(1.29403 0.229037 4.99926e-23)
(1.28349 0.213253 3.03733e-22)
(1.27072 0.195634 0)
(1.26024 0.176379 -4.19291e-23)
(0.0588532 -0.0107121 -6.35413e-23)
(0.483038 0.0492867 0)
(0.927376 0.170332 6.09665e-24)
(1.17251 0.230683 0)
(1.27179 0.252643 6.52428e-22)
(1.29498 0.250209 -4.8494e-22)
(1.28959 0.235786 0)
(1.27682 0.2187 9.8336e-24)
(1.26348 0.199881 0)
(1.25269 0.180624 0)
(0.0871137 -0.0106746 -1.26995e-22)
(0.555115 0.0721894 8.29993e-22)
(0.98819 0.194732 -6.69703e-22)
(1.20445 0.250194 1.10895e-22)
(1.28201 0.265895 -2.98048e-22)
(1.29385 0.259293 -5.19167e-23)
(1.28391 0.242501 0)
(1.26959 0.224156 2.10418e-22)
(1.25592 0.204169 5.42017e-23)
(1.2449 0.184853 1.55527e-22)
(0.119095 -0.00788533 -5.34503e-22)
(0.625472 0.0977668 -3.35124e-22)
(1.04124 0.219474 -1.10301e-22)
(1.22957 0.269394 4.42844e-22)
(1.28794 0.27875 3.66355e-23)
(1.29054 0.268202 4.73005e-22)
(1.27724 0.249208 0)
(1.26187 0.229615 -2.54038e-22)
(1.24805 0.208482 4.72939e-23)
(1.23688 0.189046 -3.42966e-22)
(0.154289 -0.00195332 -5.34501e-22)
(0.69273 0.125492 3.48303e-22)
(1.08674 0.244435 -4.1587e-24)
(1.24857 0.288224 -5.1559e-22)
(1.29025 0.291269 -2.72689e-22)
(1.28545 0.276988 -2.67419e-23)
(1.26973 0.255912 2.23284e-23)
(1.25369 0.235065 2.83651e-22)
(1.23988 0.212801 -2.36154e-24)
(1.22861 0.193176 1.11604e-22)
(0.192047 0.00725943 -2.75195e-22)
(0.755752 0.154941 0)
(1.12504 0.26951 -3.00832e-22)
(1.26209 0.306633 0)
(1.2895 0.303493 -3.43453e-22)
(1.27888 0.285678 2.96493e-23)
(1.26149 0.262603 0)
(1.24507 0.240483 0)
(1.23139 0.217103 0)
(1.22007 0.197216 0)
(0.231625 0.0196651 2.41366e-22)
(0.813636 0.185737 1.16794e-22)
(1.1566 0.294589 3.00834e-22)
(1.27075 0.324586 0)
(1.28613 0.315449 0)
(1.27105 0.294281 -1.23813e-23)
(1.25257 0.269259 4.76859e-23)
(1.23601 0.245843 5.46942e-23)
(1.22258 0.22136 5.07604e-23)
(1.21128 0.201134 -8.41276e-24)
(0.272232 0.0350295 -4.36481e-24)
(0.865749 0.217515 -1.0931e-22)
(1.18186 0.319555 5.00925e-24)
(1.2751 0.342063 5.94114e-24)
(1.28049 0.327151 -9.08902e-24)
(1.26209 0.302789 3.46172e-24)
(1.24302 0.275849 -4.16239e-23)
(1.22652 0.251112 -5.11161e-23)
(1.21344 0.225537 -3.84121e-23)
(1.20224 0.204894 1.55756e-24)
(0.313068 0.0530541 0)
(0.911771 0.249934 -1.10175e-22)
(1.20123 0.344285 -3.41537e-24)
(1.27561 0.359048 6.95299e-24)
(1.27287 0.338595 1.24857e-37)
(1.25214 0.311175 -8.79243e-38)
(1.23285 0.282334 -3.74235e-23)
(1.21659 0.256255 -4.47444e-23)
(1.20394 0.229591 -3.53805e-23)
(1.19299 0.208464 0)
(0.353351 0.0734238 3.16152e-22)
(0.951611 0.282704 9.03408e-23)
(1.21508 0.368665 3.00002e-22)
(1.27269 0.375512 -1.35726e-23)
(1.26351 0.34976 0)
(1.24124 0.3194 1.06228e-23)
(1.22208 0.288668 2.4525e-23)
(1.2062 0.261233 4.81174e-23)
(1.1941 0.233475 2.73702e-23)
(1.1835 0.211819 6.73266e-24)
(0.392339 0.0958404 -2.81752e-22)
(0.985272 0.315564 0)
(1.2238 0.392571 -2.83596e-22)
(1.2667 0.391419 0)
(1.25256 0.360611 -2.88541e-23)
(1.22946 0.327416 2.40256e-23)
(1.21071 0.294805 0)
(1.19536 0.266004 0)
(1.18392 0.237148 0)
(1.17373 0.214943 0)
(0.429348 0.120028 5.58524e-22)
(1.01284 0.348277 -3.58884e-22)
(1.22776 0.415879 -6.90296e-23)
(1.25794 0.406723 -2.83845e-22)
(1.24017 0.371098 -2.64235e-22)
(1.21684 0.335166 1.85091e-23)
(1.19874 0.30069 -1.54543e-23)
(1.18405 0.270521 1.30221e-22)
(1.17343 0.240582 2.15473e-24)
(1.16362 0.217811 9.69389e-23)
(0.463765 0.145721 -5.58525e-22)
(1.03447 0.380616 -4.33496e-22)
(1.22732 0.438463 9.62472e-23)
(1.24667 0.421373 3.39495e-22)
(1.22646 0.381162 -1.63354e-23)
(1.20339 0.342585 2.85428e-22)
(1.18616 0.306272 0)
(1.17227 0.274726 -1.48451e-22)
(1.16266 0.243768 -2.32485e-23)
(1.15313 0.220419 -1.22767e-22)
(0.495061 0.172649 1.33009e-22)
(1.05034 0.412364 7.40701e-22)
(1.22277 0.460191 -4.3308e-22)
(1.23314 0.435309 -8.22974e-23)
(1.2115 0.390736 -1.98474e-22)
(1.18914 0.349607 4.32747e-23)
(1.17299 0.311492 -2.57932e-23)
(1.16006 0.278555 1.44934e-22)
(1.15162 0.246686 -2.41517e-23)
(1.14236 0.22277 6.60458e-23)
(0.5228 0.200521 6.73369e-23)
(1.06064 0.443306 0)
(1.21443 0.480931 2.68106e-23)
(1.21753 0.448461 0)
(1.19536 0.399742 3.96695e-22)
(1.17411 0.35616 -2.58984e-22)
(1.15925 0.31629 0)
(1.14748 0.281968 -1.68999e-23)
(1.14022 0.24927 0)
(1.13141 0.224773 0)
(0.546636 0.229025 -1.03457e-21)
(1.06561 0.473227 -8.02445e-23)
(1.20257 0.500549 5.28447e-22)
(1.20001 0.460753 6.08902e-23)
(1.17808 0.408093 -4.1156e-22)
(1.15837 0.362169 -1.46305e-22)
(1.14499 0.320603 -2.01594e-23)
(1.13453 0.284937 8.5081e-23)
(1.12844 0.251482 -1.73045e-23)
(1.12028 0.226408 9.52767e-24)
(0.566318 0.257826 1.15169e-21)
(1.06547 0.501903 -6.94461e-22)
(1.18743 0.518906 -1.53337e-22)
(1.18071 0.472099 7.52495e-23)
(1.15978 0.415702 3.23039e-22)
(1.14198 0.367555 2.22635e-22)
(1.13022 0.324374 -1.71646e-23)
(1.12121 0.287429 -1.93903e-23)
(1.11632 0.253276 -2.40982e-23)
(1.10897 0.227631 8.71252e-24)
(0.581683 0.28657 9.54788e-22)
(1.06046 0.52911 6.74026e-22)
(1.16926 0.535853 -6.45536e-22)
(1.15981 0.482404 -6.83581e-23)
(1.14059 0.422493 0)
(1.12491 0.372235 0)
(1.11493 0.327547 0)
(1.10754 0.289403 -2.19209e-22)
(1.10389 0.254622 -5.31068e-23)
(1.09752 0.228409 2.4706e-23)
(0.59265 0.314898 -1.85892e-21)
(1.05085 0.55463 0)
(1.14825 0.551224 1.37908e-21)
(1.13751 0.491573 3.639e-22)
(1.12054 0.428385 0)
(1.10717 0.376136 0)
(1.09918 0.330055 -1.10174e-22)
(1.09354 0.290817 9.12683e-23)
(1.0912 0.255483 5.31073e-23)
(1.08593 0.228712 -2.4705e-23)
(0.599219 0.342444 1.00224e-21)
(1.03693 0.578261 -8.05308e-23)
(1.12464 0.564849 -6.50906e-22)
(1.11395 0.499485 -3.98412e-22)
(1.09963 0.433297 2.86446e-23)
(1.08881 0.379191 1.45782e-22)
(1.08301 0.331842 5.10493e-23)
(1.07923 0.29163 1.25061e-23)
(1.07827 0.255827 -2.86478e-24)
(1.07424 0.228509 2.01161e-23)
(0.601462 0.368842 -1.17698e-23)
(1.01901 0.599812 9.81415e-22)
(1.09872 0.576613 -8.59662e-23)
(1.08914 0.505978 2.1151e-22)
(1.07796 0.437153 1.02207e-22)
(1.06991 0.381331 -3.9812e-23)
(1.06646 0.33285 5.29613e-23)
(1.06466 0.291802 -1.70789e-23)
(1.06514 0.255619 -1.24248e-23)
(1.06249 0.227773 -1.41714e-23)
(0.599521 0.393727 0)
(0.997383 0.619048 -8.60904e-22)
(1.07074 0.586424 -7.42859e-23)
(1.0632 0.510926 -6.69995e-23)
(1.0556 0.439847 -1.04601e-22)
(1.05051 0.382493 -7.43139e-23)
(1.0496 0.33303 -5.15574e-23)
(1.04986 0.291298 0)
(1.05185 0.254823 0)
(1.05072 0.226469 0)
(0.593598 0.416778 8.38124e-23)
(0.972146 0.635632 -6.9779e-22)
(1.04106 0.594224 0)
(1.03629 0.514252 -8.06878e-23)
(1.03262 0.441291 9.36638e-24)
(1.0307 0.382618 0)
(1.03247 0.332334 4.61793e-23)
(1.03488 0.290084 1.02863e-22)
(1.03841 0.253405 -2.13735e-23)
(1.03895 0.224551 1.79524e-23)
(0.583916 0.437775 -6.15009e-23)
(0.943537 0.649273 7.48277e-22)
(1.00991 0.599867 0)
(1.00853 0.515915 -1.05196e-22)
(1.00913 0.441401 2.50718e-24)
(1.01054 0.381647 1.44436e-22)
(1.01514 0.33072 1.70604e-23)
(1.01977 0.288127 -1.17143e-22)
(1.02486 0.25133 0)
(1.02724 0.221981 -2.19809e-22)
(0.570685 0.45649 -8.52893e-22)
(0.912031 0.659853 -4.14721e-23)
(0.977478 0.603151 -9.18927e-24)
(0.980081 0.515846 7.60113e-24)
(0.985224 0.440102 1.95735e-22)
(0.990127 0.379528 -1.44437e-22)
(0.997668 0.328154 -2.09433e-22)
(1.00455 0.285395 -1.83647e-22)
(1.01125 0.24857 -3.13443e-22)
(1.01572 0.21875 1.92398e-22)
(0.554031 0.472567 9.0342e-22)
(0.878181 0.667352 0)
(0.943983 0.603948 -1.4676e-23)
(0.951089 0.513977 2.41054e-24)
(0.961 0.437336 -4.97302e-22)
(0.969537 0.376215 0)
(0.980121 0.324602 2.09434e-22)
(0.989255 0.281853 -4.06689e-23)
(0.997681 0.245098 3.56059e-22)
(1.00467 0.214898 -3.57882e-23)
(0.53418 0.485597 0)
(0.842372 0.671618 1.12387e-22)
(0.909628 0.602193 1.17619e-23)
(0.921708 0.510241 0)
(0.936574 0.43305 3.01568e-22)
(0.948862 0.371669 0)
(0.962553 0.32004 -3.19616e-22)
(0.973946 0.27746 2.24319e-22)
(0.984322 0.240874 4.32829e-22)
(0.994381 0.210493 3.4056e-22)
(0.511611 0.495408 -2.88505e-23)
(0.804948 0.672513 -8.87062e-23)
(0.874644 0.597826 0)
(0.892095 0.504575 0)
(0.912063 0.427203 0)
(0.928193 0.365862 5.16208e-23)
(0.945025 0.314448 2.33503e-22)
(0.95871 0.272189 3.60025e-23)
(0.971365 0.235839 -4.32832e-22)
(0.984753 0.205482 -3.82416e-22)
(0.486741 0.501829 0)
(0.766255 0.669923 2.00762e-22)
(0.839269 0.590804 0)
(0.86241 0.496931 0)
(0.887589 0.419765 0)
(0.907623 0.358769 -6.05061e-23)
(0.927611 0.30781 5.28896e-22)
(0.943671 0.266047 -1.20748e-22)
(0.958894 0.230007 -4.17052e-22)
(0.975117 0.19837 -4.2023e-22)
(0.459981 0.504729 0)
(0.726653 0.663769 -2.00763e-22)
(0.803746 0.581101 4.46237e-22)
(0.83282 0.487271 0)
(0.863278 0.410715 7.27847e-22)
(0.887247 0.350376 0)
(0.910401 0.300114 -4.28936e-22)
(0.92894 0.259045 3.83395e-22)
(0.946657 0.223834 5.45803e-22)
(0.964197 0.193238 4.18901e-22)
(0.431744 0.504015 -3.80786e-22)
(0.686504 0.654004 0)
(0.768319 0.568706 -3.80579e-22)
(0.803494 0.475575 -5.43129e-23)
(0.839256 0.400043 -1.56018e-21)
(0.867166 0.340675 0)
(0.893486 0.291345 5.35223e-22)
(0.914586 0.251108 3.7725e-23)
(0.934773 0.216603 5.79198e-22)
(0.9537 0.186655 2.40289e-24)
(0.402438 0.499634 4.18509e-22)
(0.646175 0.64061 -3.09642e-23)
(0.733231 0.553627 -7.8124e-23)
(0.774604 0.461837 -6.46224e-23)
(0.815654 0.387751 8.32336e-22)
(0.847479 0.329669 -7.4478e-22)
(0.876949 0.28152 -5.35226e-22)
(0.900611 0.242334 -4.21125e-22)
(0.923083 0.208795 -6.54399e-22)
(0.943188 0.179849 6.06946e-22)
(0.372468 0.491574 -5.08093e-23)
(0.606027 0.623602 -7.87276e-22)
(0.698723 0.535892 0)
(0.74632 0.446066 5.65094e-22)
(0.792601 0.373852 6.21885e-23)
(0.828292 0.317369 7.44784e-22)
(0.86088 0.270641 -7.39205e-23)
(0.887087 0.232673 -4.31354e-22)
(0.911734 0.200201 0)
(0.932976 0.172345 -5.41498e-22)
(0.342231 0.479857 5.90508e-23)
(0.566418 0.603023 8.28987e-22)
(0.665029 0.515544 0)
(0.718814 0.428288 -1.31904e-23)
(0.770226 0.35837 6.89882e-23)
(0.809705 0.303797 0)
(0.845356 0.258734 6.84213e-22)
(0.874048 0.222179 4.93228e-22)
(0.900745 0.190956 9.38035e-23)
(0.923117 0.164303 -7.87922e-23)
(0.312114 0.464548 0)
(0.527694 0.578945 1.26192e-21)
(0.632379 0.492648 -1.11694e-22)
(0.692253 0.408547 6.73722e-23)
(0.748658 0.341341 6.12211e-22)
(0.791823 0.288982 1.05795e-21)
(0.830457 0.245821 -7.76434e-22)
(0.861556 0.210858 0)
(0.890186 0.181037 0)
(0.913693 0.155681 0)
(0.282491 0.445745 2.43222e-24)
(0.490192 0.551468 -1.04697e-21)
(0.600997 0.467284 1.25251e-22)
(0.6668 0.386898 -8.7593e-22)
(0.728022 0.322812 -5.30357e-22)
(0.774743 0.272965 1.79614e-22)
(0.816258 0.23194 -7.81747e-22)
(0.849666 0.198749 5.15311e-22)
(0.88011 0.170485 5.54685e-22)
(0.904759 0.146512 -4.31844e-22)
(0.253721 0.423584 -7.38958e-22)
(0.454232 0.520716 -8.22349e-23)
(0.571097 0.439552 1.15506e-21)
(0.642616 0.363413 9.02695e-22)
(0.70844 0.302842 0)
(0.758562 0.255793 -1.00932e-21)
(0.802832 0.217128 -4.10279e-23)
(0.838432 0.185883 -6.63231e-22)
(0.870571 0.15932 -3.88938e-22)
(0.89636 0.136818 3.43617e-22)
(0.226142 0.398248 1.77225e-21)
(0.420112 0.486827 0)
(0.542884 0.409564 -2.39472e-21)
(0.61985 0.33818 -7.90074e-22)
(0.690031 0.2815 -9.34871e-23)
(0.743372 0.237524 0)
(0.790251 0.201435 8.14675e-22)
(0.82791 0.172303 -6.47115e-22)
(0.86162 0.147573 -4.90505e-22)
(0.888537 0.126628 3.73927e-22)
(0.20007 0.369957 -9.3311e-22)
(0.388108 0.44996 -8.22236e-22)
(0.516558 0.377448 1.39462e-21)
(0.59865 0.311299 -1.28176e-22)
(0.672907 0.258867 0)
(0.729261 0.218224 0)
(0.77858 0.184913 0)
(0.818154 0.15805 1.31927e-21)
(0.853307 0.135279 4.90506e-22)
(0.881324 0.115977 -3.73927e-22)
(0.175774 0.338932 -9.69962e-22)
(0.358488 0.410327 8.19155e-22)
(0.492312 0.343348 8.62458e-23)
(0.579151 0.282885 0)
(0.657173 0.235033 -8.07117e-22)
(0.71631 0.197967 -5.37747e-22)
(0.767883 0.167622 -5.96729e-23)
(0.809212 0.143175 1.04344e-22)
(0.845676 0.122476 -1.30198e-22)
(0.874752 0.104903 5.19067e-23)
(0.153493 0.305379 1.10124e-21)
(0.331506 0.36818 -1.10513e-22)
(0.470319 0.307428 -9.04087e-22)
(0.561481 0.253065 2.00929e-22)
(0.642928 0.210097 6.00908e-22)
(0.704596 0.176832 7.65015e-22)
(0.758219 0.149628 -6.17755e-23)
(0.801131 0.12773 -3.37263e-22)
(0.838772 0.109206 0)
(0.868847 0.0934481 4.87148e-23)
(0.133452 0.269525 7.55274e-23)
(0.307388 0.323783 0)
(0.450733 0.269868 -2.85178e-23)
(0.545756 0.221978 0)
(0.63026 0.184167 -8.63072e-22)
(0.694187 0.154908 6.47922e-22)
(0.749639 0.131 0)
(0.793956 0.11177 8.97853e-24)
(0.832634 0.095517 0)
(0.863633 0.0816555 0)
(0.11586 0.231628 1.56637e-22)
(0.286336 0.277408 -1.06768e-21)
(0.433689 0.230861 8.48057e-22)
(0.532079 0.189772 -1.45672e-22)
(0.619249 0.15736 3.73659e-22)
(0.685146 0.132287 1.0234e-22)
(0.742191 0.111814 0)
(0.787726 0.095357 -2.7839e-22)
(0.827299 0.0814578 -7.40593e-23)
(0.85913 0.0695718 -2.13777e-22)
(0.100905 0.191972 6.70065e-22)
(0.268522 0.229333 -1.58356e-21)
(0.419305 0.190612 1.4585e-22)
(0.52054 0.156606 -6.08896e-22)
(0.609964 0.129799 -6.83485e-23)
(0.677527 0.109067 -6.63439e-22)
(0.735919 0.0921485 0)
(0.782476 0.0785561 3.8072e-22)
(0.822799 0.0670816 -6.78767e-23)
(0.855354 0.0572436 4.87857e-22)
(0.0887463 0.150853 -6.70066e-22)
(0.254092 0.179851 5.80926e-22)
(0.407677 0.149335 -1.00794e-22)
(0.511217 0.122642 7.14262e-22)
(0.602465 0.101612 3.91841e-22)
(0.671375 0.0853512 4.05633e-23)
(0.730856 0.0720871 -3.38682e-23)
(0.778237 0.0614348 -4.26355e-22)
(0.819163 0.052445 3.86198e-24)
(0.852317 0.044718 -1.62061e-22)
(0.0795123 0.108583 3.50644e-22)
(0.243166 0.129262 0)
(0.398887 0.10725 4.14025e-22)
(0.504169 0.088053 0)
(0.596798 0.0729346 5.49942e-23)
(0.666728 0.0612459 -4.57912e-23)
(0.727033 0.0517147 0)
(0.775034 0.0440625 0)
(0.816414 0.0376055 0)
(0.850031 0.032043 0)
(0.0733014 0.0654834 -3.07176e-22)
(0.235832 0.0778777 -1.18224e-22)
(0.392993 0.0645835 -4.14025e-22)
(0.499445 0.053013 0)
(0.592999 0.043903 0)
(0.663614 0.0368602 2.06984e-23)
(0.724471 0.0311186 -8.25566e-23)
(0.772888 0.0265098 -9.78589e-23)
(0.81457 0.0226211 -9.11748e-23)
(0.848503 0.0192651 1.47069e-23)
(0.0701794 0.0218836 -5.56108e-24)
(0.23215 0.0260127 1.27538e-22)
(0.390036 0.0215669 -5.70051e-24)
(0.497075 0.0177013 1.96655e-23)
(0.591094 0.0146581 -7.74648e-24)
(0.662052 0.0123056 0)
(0.723187 0.0103879 6.52745e-23)
(0.771812 0.0088487 9.78589e-23)
(0.813645 0.00755 6.92726e-23)
(0.847738 0.0064281 1.03334e-23)
(0.0701794 -0.0218836 -5.56108e-24)
(0.23215 -0.0260127 1.27538e-22)
(0.390036 -0.0215669 -5.70051e-24)
(0.497075 -0.0177013 1.96655e-23)
(0.591094 -0.0146581 -7.74648e-24)
(0.662052 -0.0123056 0)
(0.723187 -0.0103879 5.75029e-23)
(0.771812 -0.0088487 1.04364e-22)
(0.813645 -0.00755 7.36652e-23)
(0.847738 -0.0064281 0)
(0.0733014 -0.0654834 -3.94112e-22)
(0.235832 -0.0778777 -1.53338e-22)
(0.392993 -0.0645835 -4.38878e-22)
(0.499445 -0.053013 2.05577e-23)
(0.592999 -0.043903 0)
(0.663614 -0.0368602 -2.06984e-23)
(0.724471 -0.0311186 -4.79924e-23)
(0.772888 -0.0265098 -9.78589e-23)
(0.81457 -0.0226211 -5.61554e-23)
(0.848503 -0.0192651 -1.47069e-23)
(0.0795123 -0.108583 3.50644e-22)
(0.243166 -0.129262 0)
(0.398887 -0.10725 4.14025e-22)
(0.504169 -0.088053 0)
(0.596798 -0.0729346 5.49942e-23)
(0.666728 -0.0612459 -4.57912e-23)
(0.727033 -0.0517147 0)
(0.775034 -0.0440625 0)
(0.816414 -0.0376055 0)
(0.850031 -0.032043 0)
(0.0887463 -0.150853 -6.70066e-22)
(0.254092 -0.179851 4.53744e-22)
(0.407677 -0.149335 1.00794e-22)
(0.511217 -0.122642 4.89105e-22)
(0.602465 -0.101612 5.12274e-22)
(0.671375 -0.0853512 -4.05633e-23)
(0.730856 -0.0720871 3.38682e-23)
(0.778237 -0.0614348 -3.35086e-22)
(0.819163 -0.052445 -3.86198e-24)
(0.852317 -0.044718 -2.72074e-22)
(0.100905 -0.191972 6.70065e-22)
(0.268522 -0.229333 5.48895e-22)
(0.419305 -0.190612 -1.4585e-22)
(0.52054 -0.156606 -5.94469e-22)
(0.609964 -0.129799 4.97697e-23)
(0.677527 -0.109067 -6.63439e-22)
(0.735919 -0.0921485 0)
(0.782476 -0.0785561 3.8072e-22)
(0.822799 -0.0670816 6.78767e-23)
(0.855354 -0.0572436 3.73833e-22)
(0.11586 -0.231628 -1.56637e-22)
(0.286336 -0.277408 1.06768e-21)
(0.433689 -0.230861 6.637e-22)
(0.532079 -0.189772 1.45672e-22)
(0.619249 -0.15736 4.66956e-22)
(0.685146 -0.132287 -1.49479e-22)
(0.742191 -0.111814 6.52657e-23)
(0.787726 -0.095357 -4.54969e-22)
(0.827299 -0.0814578 7.40593e-23)
(0.85913 -0.0695718 -2.13777e-22)
(0.133452 -0.269525 -7.55274e-23)
(0.307388 -0.323783 0)
(0.450733 -0.269868 -2.85178e-23)
(0.545756 -0.221978 0)
(0.63026 -0.184167 -8.63072e-22)
(0.694187 -0.154908 6.47922e-22)
(0.749639 -0.131 0)
(0.793956 -0.11177 8.97853e-24)
(0.832634 -0.095517 0)
(0.863633 -0.0816555 0)
(0.153493 -0.305379 1.10124e-21)
(0.331506 -0.36818 1.10513e-22)
(0.470319 -0.307428 -6.36304e-22)
(0.561481 -0.253065 -1.30059e-22)
(0.642928 -0.210097 1.01333e-21)
(0.704596 -0.176832 4.53421e-22)
(0.758219 -0.149628 6.17755e-23)
(0.801131 -0.12773 -4.21343e-22)
(0.838772 -0.109206 7.05282e-23)
(0.868847 -0.0934481 -4.87148e-23)
(0.175774 -0.338932 -1.23252e-21)
(0.358488 -0.410327 8.2532e-22)
(0.492312 -0.343348 7.73059e-23)
(0.579151 -0.282885 -1.35287e-22)
(0.657173 -0.235033 -8.07117e-22)
(0.71631 -0.197967 -6.80685e-22)
(0.767883 -0.167622 5.96729e-23)
(0.809212 -0.143175 -5.87424e-23)
(0.845676 -0.122476 1.30198e-22)
(0.874752 -0.104903 -5.19067e-23)
(0.20007 -0.369957 -9.3311e-22)
(0.388108 -0.44996 -8.22236e-22)
(0.516558 -0.377448 1.08471e-21)
(0.59865 -0.311299 1.28176e-22)
(0.672907 -0.258867 0)
(0.729261 -0.218224 0)
(0.77858 -0.184913 0)
(0.818154 -0.15805 1.31927e-21)
(0.853307 -0.135279 4.90506e-22)
(0.881324 -0.115977 -3.73927e-22)
(0.226142 -0.398248 1.77225e-21)
(0.420112 -0.486827 0)
(0.542884 -0.409564 -2.39472e-21)
(0.61985 -0.33818 -9.02699e-22)
(0.690031 -0.2815 0)
(0.743372 -0.237524 0)
(0.790251 -0.201435 8.14675e-22)
(0.82791 -0.172303 -6.47115e-22)
(0.86162 -0.147573 -4.90505e-22)
(0.888537 -0.126628 3.73927e-22)
(0.253721 -0.423584 -9.3932e-22)
(0.454232 -0.520716 8.22349e-23)
(0.571097 -0.439552 1.15506e-21)
(0.642616 -0.363413 1.00852e-21)
(0.70844 -0.302842 -8.78468e-23)
(0.758562 -0.255793 -1.00932e-21)
(0.802832 -0.217128 -4.10279e-23)
(0.838432 -0.185883 -5.18474e-22)
(0.870571 -0.15932 -5.10363e-22)
(0.89636 -0.136818 3.43617e-22)
(0.282491 -0.445745 -2.43222e-24)
(0.490192 -0.551468 -1.20573e-21)
(0.600997 -0.467284 -1.25251e-22)
(0.6668 -0.386898 -6.78702e-22)
(0.728022 -0.322812 -5.40869e-22)
(0.774743 -0.272965 -1.83553e-22)
(0.816258 -0.23194 -7.65533e-22)
(0.849666 -0.198749 6.66389e-22)
(0.88011 -0.170485 3.44613e-22)
(0.904759 -0.146512 -2.55392e-22)
(0.312114 -0.464548 0)
(0.527694 -0.578945 9.90784e-22)
(0.632379 -0.492648 1.11694e-22)
(0.692253 -0.408547 6.73722e-23)
(0.748658 -0.341341 6.12211e-22)
(0.791823 -0.288982 8.37052e-22)
(0.830457 -0.245821 -6.77051e-22)
(0.861556 -0.210858 7.11895e-23)
(0.890186 -0.181037 0)
(0.913693 -0.155681 0)
(0.342231 -0.479857 -5.90508e-23)
(0.566418 -0.603023 8.28987e-22)
(0.665029 -0.515544 0)
(0.718814 -0.428288 1.5303e-22)
(0.770226 -0.35837 -6.89882e-23)
(0.809705 -0.303797 0)
(0.845356 -0.258734 6.84213e-22)
(0.874048 -0.222179 4.93228e-22)
(0.900745 -0.190956 -9.38035e-23)
(0.923117 -0.164303 7.87922e-23)
(0.372468 -0.491574 5.08093e-23)