/*--------------------------------*- C++ -*----------------------------------*\
  =========                 |
  \\      /  F ield         | OpenFOAM: The Open Source CFD Toolbox
   \\    /   O peration     | Website:  https://openfoam.org
    \\  /    A nd           | Version:  9
     \\/     M anipulation  |
\*---------------------------------------------------------------------------*/
FoamFile
{
    format      ascii;
    class       volScalarField;
    location    "2.2";
    object      p;
}
// * * * * * * * * * * * * * * * * * * * * * * * * * * * * * * * * * * * * * //

dimensions      [0 2 -2 0 0 0 0];

internalField   nonuniform List<scalar> 
8500
(
-0.359545
-0.370916
-0.363663
-0.352532
-0.33399
-0.309224
-0.278784
-0.241461
-0.203539
-0.157291
-0.360953
-0.371884
-0.364577
-0.353395
-0.33491
-0.310246
-0.279951
-0.24278
-0.205158
-0.158409
-0.363747
-0.373802
-0.366389
-0.355101
-0.336718
-0.312255
-0.282261
-0.245348
-0.208327
-0.160597
-0.36788
-0.376641
-0.369062
-0.35761
-0.339367
-0.315184
-0.285638
-0.249055
-0.212909
-0.163767
-0.373285
-0.380355
-0.372549
-0.360865
-0.342785
-0.318948
-0.289954
-0.253759
-0.218709
-0.167796
-0.379878
-0.384889
-0.376787
-0.364797
-0.346885
-0.323431
-0.295068
-0.259291
-0.225492
-0.172535
-0.387563
-0.390179
-0.381709
-0.369328
-0.351568
-0.328509
-0.300815
-0.265459
-0.232991
-0.177821
-0.396233
-0.396159
-0.387237
-0.374375
-0.356738
-0.334054
-0.307027
-0.27207
-0.240932
-0.183481
-0.405777
-0.402756
-0.393301
-0.37986
-0.362294
-0.33994
-0.313537
-0.278936
-0.249043
-0.189346
-0.41609
-0.409882
-0.399838
-0.385707
-0.368142
-0.346053
-0.320191
-0.28588
-0.257073
-0.195255
-0.427074
-0.417482
-0.406765
-0.391848
-0.374203
-0.35229
-0.32685
-0.29275
-0.264796
-0.201061
-0.438598
-0.42551
-0.41403
-0.398227
-0.380408
-0.358566
-0.333397
-0.299417
-0.272019
-0.206633
-0.450583
-0.433897
-0.421583
-0.404796
-0.386701
-0.364809
-0.339731
-0.305773
-0.27858
-0.211861
-0.462946
-0.44259
-0.429382
-0.411519
-0.39304
-0.370967
-0.345777
-0.31174
-0.284354
-0.216659
-0.475615
-0.451548
-0.437393
-0.418371
-0.399393
-0.376994
-0.351472
-0.317256
-0.289245
-0.220983
-0.488523
-0.460733
-0.44559
-0.425331
-0.405737
-0.382858
-0.356769
-0.322279
-0.293182
-0.22482
-0.501613
-0.470112
-0.45395
-0.432382
-0.412052
-0.388528
-0.361634
-0.326783
-0.296079
-0.228059
-0.514833
-0.479654
-0.462452
-0.439511
-0.418318
-0.393974
-0.366044
-0.330764
-0.297797
-0.230426
-0.528134
-0.48933
-0.471076
-0.446699
-0.424513
-0.399164
-0.36999
-0.334233
-0.298263
-0.232552
-0.541469
-0.499107
-0.479795
-0.453923
-0.430606
-0.404059
-0.373458
-0.337146
-0.297887
-0.238708
-0.554787
-0.508949
-0.488581
-0.461152
-0.436558
-0.40861
-0.376413
-0.339336
-0.297467
-0.253943
-0.568031
-0.518817
-0.497393
-0.468343
-0.442318
-0.412759
-0.378803
-0.3407
-0.296573
-0.259284
-0.581139
-0.528661
-0.506184
-0.475442
-0.447823
-0.416443
-0.380578
-0.341172
-0.29514
-0.260378
-0.594039
-0.538423
-0.514892
-0.482383
-0.452999
-0.419592
-0.381685
-0.340759
-0.293213
-0.259333
-0.606646
-0.548036
-0.523445
-0.489084
-0.45776
-0.422134
-0.382073
-0.339481
-0.290743
-0.256747
-0.618865
-0.55742
-0.531756
-0.495453
-0.462012
-0.42399
-0.381692
-0.337354
-0.287685
-0.253017
-0.630589
-0.566485
-0.539727
-0.501384
-0.46565
-0.42508
-0.380494
-0.334393
-0.28401
-0.248425
-0.641697
-0.575129
-0.547245
-0.50676
-0.468567
-0.425327
-0.378434
-0.330608
-0.279698
-0.243141
-0.652057
-0.583239
-0.554187
-0.511458
-0.47065
-0.42465
-0.375469
-0.326005
-0.274733
-0.237261
-0.661526
-0.59069
-0.56042
-0.515345
-0.471786
-0.422974
-0.371564
-0.320585
-0.269104
-0.230835
-0.66995
-0.597349
-0.565799
-0.518285
-0.471862
-0.42023
-0.366685
-0.314347
-0.262803
-0.223884
-0.677168
-0.603073
-0.570177
-0.520138
-0.47077
-0.416351
-0.360804
-0.307289
-0.255823
-0.216412
-0.683014
-0.607713
-0.573397
-0.520766
-0.468406
-0.411281
-0.353897
-0.299405
-0.248159
-0.208413
-0.687317
-0.611115
-0.575303
-0.520033
-0.464677
-0.404969
-0.345946
-0.290691
-0.239806
-0.199879
-0.689903
-0.61312
-0.57574
-0.517811
-0.459495
-0.397371
-0.336934
-0.281143
-0.23076
-0.190799
-0.6906
-0.61357
-0.574552
-0.513976
-0.452784
-0.388455
-0.326852
-0.27076
-0.22102
-0.181167
-0.689241
-0.612308
-0.571592
-0.508417
-0.444481
-0.378194
-0.315695
-0.259539
-0.210585
-0.170975
-0.685662
-0.60918
-0.56672
-0.501034
-0.434534
-0.366572
-0.303462
-0.247483
-0.199457
-0.160221
-0.67971
-0.60404
-0.559807
-0.491742
-0.422904
-0.35358
-0.290156
-0.234595
-0.187641
-0.148906
-0.671244
-0.596749
-0.550738
-0.48047
-0.409565
-0.33922
-0.275787
-0.220883
-0.175145
-0.137037
-0.660134
-0.587183
-0.539415
-0.467164
-0.394504
-0.3235
-0.260369
-0.206356
-0.161976
-0.124628
-0.646268
-0.57523
-0.525754
-0.451788
-0.377723
-0.306438
-0.243922
-0.191029
-0.148144
-0.111685
-0.629554
-0.560794
-0.509695
-0.434324
-0.359237
-0.288059
-0.22647
-0.174922
-0.133675
-0.0981819
-0.609919
-0.5438
-0.491197
-0.414771
-0.339071
-0.268399
-0.208043
-0.158055
-0.118635
-0.0840804
-0.587313
-0.524193
-0.470241
-0.393148
-0.317267
-0.247501
-0.188668
-0.140434
-0.103095
-0.0694832
-0.561711
-0.501939
-0.446832
-0.369492
-0.293878
-0.225414
-0.168384
-0.12209
-0.0869044
-0.0545868
-0.533113
-0.477031
-0.420997
-0.343857
-0.268966
-0.202182
-0.147256
-0.103225
-0.0700544
-0.0392972
-0.501544
-0.449484
-0.392787
-0.316316
-0.242606
-0.177865
-0.125367
-0.0837367
-0.0527064
-0.0236252
-0.46706
-0.419339
-0.362276
-0.286961
-0.214887
-0.152604
-0.102703
-0.0636791
-0.0349073
-0.00760743
-0.42974
-0.386663
-0.329571
-0.255896
-0.185901
-0.126427
-0.0793738
-0.0431099
-0.0166979
0.00871247
-0.389693
-0.351558
-0.294809
-0.223213
-0.155758
-0.0994232
-0.0554488
-0.0220872
0.0018755
0.0252855
-0.347059
-0.314166
-0.258108
-0.189028
-0.124587
-0.0716919
-0.0310028
-0.00067452
0.0207632
0.0420574
-0.302006
-0.274658
-0.21943
-0.153639
-0.0925032
-0.0433341
-0.00611745
0.0210604
0.0399125
0.0589677
-0.254707
-0.233183
-0.179116
-0.117089
-0.0596406
-0.0144569
0.0191202
0.0430457
0.0592666
0.0759473
-0.205322
-0.18982
-0.137515
-0.0795378
-0.0261405
0.0148275
0.0446186
0.0652058
0.078765
0.092918
-0.154165
-0.14487
-0.0947166
-0.0411702
0.00785031
0.0444024
0.0702819
0.0874619
0.0983479
0.109796
-0.101547
-0.0985248
-0.0509269
-0.00217698
0.0421812
0.0741471
0.0960106
0.109736
0.117969
0.126483
-0.0476815
-0.0510671
-0.00638281
0.0372469
0.0766971
0.103937
0.121702
0.131959
0.1376
0.142787
0.00714346
-0.00276597
0.0386749
0.0769018
0.11124
0.133645
0.147251
0.154061
0.157143
0.158338
0.0626133
0.0461022
0.0839999
0.116584
0.145648
0.16314
0.172556
0.175953
0.176296
0.172734
0.118404
0.0952495
0.12934
0.156086
0.179758
0.192294
0.197518
0.197514
0.19467
0.186249
0.174185
0.14438
0.174437
0.195203
0.213409
0.220978
0.222031
0.218633
0.212883
0.201555
0.229617
0.193192
0.219033
0.233727
0.246437
0.249061
0.245989
0.239204
0.23059
0.217114
0.284359
0.241383
0.26287
0.271453
0.278681
0.276418
0.269288
0.259155
0.247694
0.232322
0.338066
0.288648
0.305692
0.308179
0.309983
0.302921
0.291826
0.278414
0.264173
0.247001
0.390397
0.334687
0.347246
0.343708
0.340188
0.328449
0.313504
0.296904
0.27998
0.26108
0.441015
0.379202
0.387288
0.377846
0.369144
0.352882
0.334225
0.31455
0.295059
0.274493
0.489592
0.421906
0.425578
0.410407
0.396706
0.376105
0.353898
0.331281
0.30935
0.287178
0.535808
0.462519
0.461888
0.441213
0.422735
0.398008
0.372432
0.347026
0.322797
0.29908
0.579357
0.500775
0.496001
0.470094
0.447099
0.418486
0.389745
0.361718
0.335344
0.310156
0.619949
0.53642
0.52771
0.496892
0.469671
0.437439
0.405756
0.375295
0.346938
0.320363
0.657313
0.569219
0.556825
0.521456
0.490337
0.454777
0.420391
0.387696
0.35753
0.329662
0.691195
0.598952
0.583168
0.543651
0.508988
0.470412
0.433582
0.398866
0.367071
0.338021
0.721366
0.625421
0.606582
0.563352
0.525529
0.484269
0.445265
0.408756
0.375519
0.345406
0.747622
0.648449
0.626922
0.580449
0.539871
0.496278
0.455387
0.417319
0.382836
0.35179
0.769783
0.667881
0.644065
0.594847
0.551941
0.50638
0.463897
0.424517
0.388986
0.357148
0.787697
0.683585
0.657908
0.606463
0.561674
0.514523
0.470756
0.430317
0.393942
0.36146
0.801241
0.695458
0.668364
0.615234
0.56902
0.520666
0.475929
0.43469
0.39768
0.364709
0.810323
0.703418
0.67537
0.621108
0.573939
0.524779
0.479392
0.437618
0.400181
0.366882
0.814879
0.707411
0.678885
0.624054
0.576404
0.526841
0.481128
0.439085
0.401435
0.367971
0.814879
0.707411
0.678885
0.624054
0.576404
0.526841
0.481128
0.439085
0.401435
0.367971
0.810323
0.703418
0.67537
0.621108
0.573939
0.524779
0.479392
0.437618
0.400181
0.366882
0.801241
0.695458
0.668364
0.615234
0.56902
0.520666
0.475929
0.43469
0.39768
0.364709
0.787697
0.683585
0.657908
0.606463
0.561674
0.514523
0.470756
0.430317
0.393942
0.36146
0.769783
0.667881
0.644065
0.594847
0.551941
0.50638
0.463897
0.424517
0.388986
0.357148
0.747622
0.648449
0.626922
0.580449
0.539871
0.496278
0.455387
0.417319
0.382836
0.35179
0.721366
0.625421
0.606582
0.563352
0.525529
0.484269
0.445265
0.408756
0.375519
0.345406
0.691195
0.598952
0.583168
0.543651
0.508988
0.470412
0.433582
0.398866
0.367071
0.338021
0.657313
0.569219
0.556825
0.521456
0.490337
0.454777
0.420391
0.387696
0.35753
0.329662
0.619949
0.53642
0.52771
0.496892
0.469671
0.437439
0.405756
0.375295
0.346938
0.320363
0.579357
0.500775
0.496001
0.470094
0.447099
0.418486
0.389745
0.361718
0.335344
0.310156
0.535808
0.462519
0.461888
0.441213
0.422735
0.398008
0.372432
0.347026
0.322797
0.29908
0.489592
0.421906
0.425578
0.410407
0.396706
0.376105
0.353898
0.331281
0.30935
0.287178
0.441015
0.379202
0.387288
0.377846
0.369144
0.352882
0.334225
0.31455
0.295059
0.274493
0.390397
0.334687
0.347246
0.343708
0.340188
0.328449
0.313504
0.296904
0.27998
0.26108
0.338066
0.288648
0.305692
0.308179
0.309983
0.302921
0.291826
0.278414
0.264173
0.247001
0.284359
0.241383
0.26287
0.271453
0.278681
0.276418
0.269288
0.259155
0.247694
0.232322
0.229617
0.193192
0.219033
0.233727
0.246437
0.249061
0.245989
0.239204
0.23059
0.217114
0.174185
0.14438
0.174437
0.195203
0.213409
0.220978
0.222031
0.218633
0.212883
0.201555
0.118404
0.0952495
0.12934
0.156086
0.179758
0.192294
0.197518
0.197514
0.19467
0.186249
0.0626133
0.0461022
0.0839999
0.116584
0.145648
0.16314
0.172556
0.175953
0.176296
0.172734
0.00714346
-0.00276596
0.0386749
0.0769018
0.11124
0.133645
0.147251
0.154061
0.157143
0.158338
-0.0476815
-0.0510671
-0.00638281
0.0372469
0.0766971
0.103937
0.121702
0.131959
0.1376
0.142787
-0.101547
-0.0985248
-0.0509269
-0.00217698
0.0421812
0.0741471
0.0960106
0.109736
0.117969
0.126483
-0.154165
-0.14487
-0.0947166
-0.0411702
0.00785031
0.0444024
0.0702819
0.0874619
0.0983479
0.109796
-0.205322
-0.18982
-0.137515
-0.0795378
-0.0261405
0.0148275
0.0446186
0.0652058
0.078765
0.092918
-0.254707
-0.233183
-0.179116
-0.117089
-0.0596406
-0.0144569
0.0191202
0.0430457
0.0592666
0.0759473
-0.302006
-0.274658
-0.21943
-0.153639
-0.0925032
-0.0433341
-0.00611745
0.0210604
0.0399124
0.0589677
-0.347059
-0.314166
-0.258108
-0.189028
-0.124587
-0.0716919
-0.0310028
-0.000674521
0.0207632
0.0420574
-0.389693
-0.351558
-0.294809
-0.223213
-0.155758
-0.0994232
-0.0554488
-0.0220872
0.0018755
0.0252855
-0.42974
-0.386663
-0.329571
-0.255896
-0.185901
-0.126427
-0.0793738
-0.0431099
-0.0166979
0.00871247
-0.46706
-0.419339
-0.362276
-0.286961
-0.214887
-0.152604
-0.102703
-0.0636791
-0.0349073
-0.00760744
-0.501544
-0.449484
-0.392787
-0.316316
-0.242606
-0.177865
-0.125367
-0.0837367
-0.0527064
-0.0236252
-0.533113
-0.477031
-0.420997
-0.343857
-0.268966
-0.202182
-0.147256
-0.103225
-0.0700544
-0.0392972
-0.561711
-0.501939
-0.446832
-0.369492
-0.293878
-0.225414
-0.168384
-0.12209
-0.0869044
-0.0545868
-0.587313
-0.524193
-0.470241
-0.393148
-0.317267
-0.247501
-0.188668
-0.140434
-0.103095
-0.0694832
-0.609919
-0.5438
-0.491197
-0.414771
-0.339071
-0.268399
-0.208043
-0.158055
-0.118635
-0.0840804
-0.629554
-0.560794
-0.509695
-0.434324
-0.359237
-0.288059
-0.22647
-0.174922
-0.133675
-0.0981819
-0.646268
-0.57523
-0.525754
-0.451788
-0.377723
-0.306438
-0.243922
-0.191029
-0.148144
-0.111685
-0.660134
-0.587183
-0.539415
-0.467164
-0.394504
-0.3235
-0.260369
-0.206356
-0.161976
-0.124628
-0.671244
-0.596749
-0.550738
-0.48047
-0.409565
-0.33922
-0.275787
-0.220883
-0.175145
-0.137037
-0.67971
-0.60404
-0.559807
-0.491742
-0.422904
-0.35358
-0.290156
-0.234595
-0.187641
-0.148906
-0.685662
-0.60918
-0.56672
-0.501034
-0.434534
-0.366572
-0.303462
-0.247483
-0.199457
-0.160221
-0.689241
-0.612308
-0.571592
-0.508417
-0.444481
-0.378194
-0.315695
-0.259539
-0.210585
-0.170975
-0.6906
-0.61357
-0.574552
-0.513976
-0.452784
-0.388455
-0.326852
-0.27076
-0.22102
-0.181167
-0.689903
-0.61312
-0.57574
-0.517811
-0.459495
-0.397371
-0.336934
-0.281143
-0.23076
-0.190799
-0.687317
-0.611115
-0.575303
-0.520033
-0.464677
-0.404969
-0.345946
-0.290691
-0.239806
-0.199879
-0.683014
-0.607713
-0.573397
-0.520766
-0.468406
-0.411281
-0.353897
-0.299405
-0.248159
-0.208413
-0.677168
-0.603073
-0.570177
-0.520138
-0.47077
-0.416351
-0.360804
-0.307289
-0.255823
-0.216412
-0.66995
-0.597349
-0.565799
-0.518285
-0.471862
-0.42023
-0.366685
-0.314347
-0.262803
-0.223884
-0.661526
-0.59069
-0.56042
-0.515345
-0.471786
-0.422974
-0.371564
-0.320585
-0.269104
-0.230835
-0.652057
-0.583239
-0.554187
-0.511458
-0.47065
-0.42465
-0.375469
-0.326005
-0.274733
-0.237261
-0.641697
-0.575129
-0.547245
-0.50676
-0.468567
-0.425327
-0.378434
-0.330608
-0.279698
-0.243141
-0.630589
-0.566485
-0.539727
-0.501384
-0.46565
-0.42508
-0.380494
-0.334393
-0.28401
-0.248425
-0.618865
-0.55742
-0.531756
-0.495453
-0.462012
-0.42399
-0.381692
-0.337354
-0.287685
-0.253017
-0.606646
-0.548036
-0.523445
-0.489084
-0.45776
-0.422134
-0.382073
-0.339481
-0.290743
-0.256747
-0.594039
-0.538423
-0.514892
-0.482383
-0.452999
-0.419592
-0.381685
-0.340759
-0.293213
-0.259333
-0.581139
-0.528661
-0.506184
-0.475442
-0.447823
-0.416443
-0.380578
-0.341172
-0.29514
-0.260378
-0.568031
-0.518817
-0.497393
-0.468343
-0.442318
-0.412759
-0.378803
-0.3407
-0.296573
-0.259284
-0.554787
-0.508949
-0.488581
-0.461152
-0.436558
-0.40861
-0.376413
-0.339336
-0.297467
-0.253943
-0.541469
-0.499107
-0.479795
-0.453923
-0.430606
-0.404059
-0.373458
-0.337146
-0.297887
-0.238708
-0.528134
-0.48933
-0.471076
-0.446699
-0.424513
-0.399164
-0.36999
-0.334233
-0.298263
-0.232552
-0.514833
-0.479654
-0.462452
-0.439511
-0.418318
-0.393974
-0.366044
-0.330764
-0.297797
-0.230426
-0.501613
-0.470112
-0.45395
-0.432382
-0.412052
-0.388528
-0.361634
-0.326783
-0.296079
-0.228059
-0.488523
-0.460733
-0.44559
-0.425331
-0.405737
-0.382858
-0.356769
-0.322279
-0.293182
-0.22482
-0.475615
-0.451548
-0.437393
-0.418371
-0.399393
-0.376994
-0.351472
-0.317256
-0.289245
-0.220983
-0.462946
-0.44259
-0.429382
-0.411519
-0.39304
-0.370967
-0.345777
-0.31174
-0.284354
-0.216659
-0.450583
-0.433897
-0.421583
-0.404796
-0.386701
-0.364809
-0.339731
-0.305773
-0.27858
-0.211861
-0.438598
-0.42551
-0.41403
-0.398227
-0.380408
-0.358566
-0.333397
-0.299417
-0.272019
-0.206633
-0.427074
-0.417482
-0.406765
-0.391848
-0.374203
-0.35229
-0.32685
-0.29275
-0.264796
-0.201061
-0.41609
-0.409882
-0.399838
-0.385707
-0.368142
-0.346053
-0.320191
-0.28588
-0.257073
-0.195255
-0.405777
-0.402756
-0.393301
-0.37986
-0.362294
-0.33994
-0.313537
-0.278936
-0.249043
-0.189346
-0.396233
-0.396159
-0.387237
-0.374375
-0.356738
-0.334054
-0.307027
-0.27207
-0.240932
-0.183481
-0.387563
-0.390179
-0.381709
-0.369328
-0.351568
-0.328509
-0.300815
-0.265459
-0.232991
-0.177821
-0.379878
-0.384889
-0.376787
-0.364797
-0.346885
-0.323431
-0.295068
-0.259291
-0.225492
-0.172535
-0.373285
-0.380355
-0.372549
-0.360865
-0.342785
-0.318948
-0.289954
-0.253759
-0.218709
-0.167796
-0.36788
-0.376641
-0.369062
-0.35761
-0.339367
-0.315184
-0.285638
-0.249055
-0.212909
-0.163767
-0.363747
-0.373802
-0.366389
-0.355101
-0.336718
-0.312255
-0.282261
-0.245348
-0.208327
-0.160597
-0.360953
-0.371884
-0.364577
-0.353395
-0.33491
-0.310246
-0.279951
-0.24278
-0.205158
-0.158409
-0.359545
-0.370916
-0.363663
-0.352532
-0.33399
-0.309224
-0.278784
-0.241461
-0.203539
-0.157291
-0.133447
-0.115328
-0.0966111
-0.0783418
-0.0606902
-0.0440002
-0.0286849
-0.0150901
-0.00348291
0.0059667
0.0132088
0.0183194
0.0214885
0.0229946
0.023168
0.0223506
0.0208621
0.0189757
0.0169031
0.0148018
0.0127646
0.0108706
0.00910995
0.00757323
0.00609383
0.00497203
0.00359342
0.00302504
0.0012677
0.00178261
-0.135527
-0.117211
-0.098263
-0.0798572
-0.062073
-0.0452455
-0.0297948
-0.0160669
-0.00433033
0.00524266
0.0125998
0.017815
0.0210771
0.022664
0.0229057
0.022145
0.0207026
0.0188531
0.0168094
0.0147306
0.0127107
0.0108299
0.00907928
0.00755021
0.00607666
0.00495905
0.00358443
0.00301815
0.0012647
0.0017781
-0.139595
-0.120895
-0.101502
-0.0828329
-0.0647912
-0.0476962
-0.0319818
-0.0179943
-0.00600451
0.00381028
0.0113933
0.0168146
0.0202602
0.0220066
0.0223838
0.0217358
0.0203849
0.0186086
0.0166226
0.0145886
0.0126031
0.0107487
0.00901807
0.00750426
0.0060424
0.00493322
0.00356653
0.00300439
0.00125872
0.00176911
-0.14547
-0.12622
-0.106203
-0.0871622
-0.0687528
-0.0512752
-0.0351823
-0.0208209
-0.00846542
0.00170005
0.00961184
0.0153343
0.0190492
0.0210303
0.0216075
0.0211262
0.0199113
0.0182438
0.0163436
0.0143764
0.0124423
0.0106272
0.00892655
0.00743554
0.00599117
0.00489475
0.00353984
0.0029838
0.00124978
0.00175568
-0.152887
-0.132969
-0.112192
-0.0926932
-0.0738276
-0.0558728
-0.039306
-0.0244741
-0.0116558
-0.00104434
0.00728794
0.0133976
0.0174604
0.0197465
0.0205846
0.0203216
0.0192853
0.0177611
0.0159741
0.0140951
0.0122291
0.0104661
0.00880508
0.0073443
0.00592316
0.00484384
0.00350456
0.00295642
0.0012379
0.0017379
-0.161514
-0.140877
-0.11925
-0.0992382
-0.0798548
-0.0613539
-0.044241
-0.0288633
-0.0155044
-0.00436813
0.00446242
0.0110342
0.015515
0.0181698
0.019325
0.0193286
0.0185113
0.0171635
0.0155161
0.0137462
0.0119643
0.0102659
0.00865411
0.00723086
0.00583861
0.00478063
0.00346095
0.00292232
0.00122314
0.00171586
-0.17098
-0.149646
-0.127132
-0.106584
-0.0866522
-0.0675647
-0.0498599
-0.0338848
-0.019929
-0.00820803
0.00118279
0.00827874
0.0132377
0.0163174
0.0178406
0.0181551
0.0175947
0.0164545
0.014972
0.0133312
0.0116492
0.0100275
0.00847422
0.00709561
0.00573779
0.00470526
0.00340935
0.00288158
0.00120554
0.00168969
-0.180901
-0.158958
-0.135578
-0.114505
-0.0940254
-0.074341
-0.0560257
-0.0394271
-0.0248407
-0.0124949
-0.00249859
0.00516988
0.0106562
0.0142089
0.0161449
0.0168103
0.0165417
0.0156385
0.0143448
0.0128522
0.011285
0.00975178
0.00826605
0.00693903
0.00562106
0.00461788
0.00334874
0.00283417
0.00118517
0.00165954
-0.190907
-0.168494
-0.144324
-0.122771
-0.101777
-0.081515
-0.0625981
-0.0453747
-0.0301468
-0.0171561
-0.00652633
0.00174884
0.00780058
0.0118655
0.0142527
0.0153045
0.0153592
0.0147199
0.0136374
0.0123112
0.0108734
0.00943978
0.00803034
0.00676165
0.00548882
0.0045188
0.003277
0.00277996
0.0011621
0.00162559
-0.200659
-0.177947
-0.153115
-0.13116
-0.109713
-0.0889216
-0.069438
-0.0516128
-0.0357543
-0.0221181
-0.0108436
-0.00194159
0.00470218
0.00930982
0.0121798
0.0136489
0.0140546
0.013704
0.0128535
0.0117107
0.0104158
0.00909265
0.00776792
0.00656403
0.00534144
0.00440859
0.00320029
0.00271935
0.00113639
0.00158804
-0.209867
-0.187035
-0.161713
-0.139465
-0.117652
-0.096404
-0.0764125
-0.0580302
-0.0415724
-0.0273082
-0.0153936
-0.00585806
0.0013933
0.00656524
0.00994287
0.0118549
0.0126359
0.0125961
0.0119967
0.0110532
0.00991408
0.00871163
0.00747967
0.00634683
0.00517943
0.00428718
0.00311216
0.00265275
0.00110818
0.00154711
-0.218297
-0.195516
-0.16991
-0.147498
-0.125427
-0.103817
-0.0833977
-0.0645225
-0.0475144
-0.032656
-0.0201204
-0.00995728
-0.00209342
0.00365579
0.00755914
0.00993451
0.0111115
0.0114018
0.0110709
0.0103413
0.0093701
0.00829806
0.00716656
0.00611074
0.00500326
0.00415519
0.00301975
0.00258062
0.00107743
0.00150305
-0.225777
-0.203188
-0.177524
-0.155097
-0.132889
-0.111032
-0.0902809
-0.0709933
-0.0534994
-0.038095
-0.0249703
-0.0141971
-0.00572588
0.000605181
0.00504559
0.00789968
0.00948983
0.0101266
0.0100797
0.00957762
0.00878566
0.00785321
0.0068295
0.00585643
0.00481348
0.00401315
0.00292174
0.00250733
0.00104384
0.00145609
-0.232193
-0.209903
-0.184411
-0.162126
-0.139915
-0.117936
-0.0969646
-0.0773583
-0.0594556
-0.0435649
-0.0298944
-0.018539
-0.00947457
-0.00256484
0.00241772
0.0057611
0.00777799
0.00877549
0.00902641
0.00876438
0.00816229
0.0073782
0.00646934
0.00558453
0.00461057
0.00386131
0.00281675
0.0024255
0.00100751
0.00140647
-0.237506
-0.215569
-0.19047
-0.16848
-0.146402
-0.124438
-0.103366
-0.0835439
-0.0653188
-0.0490109
-0.0348467
-0.0229449
-0.0133092
-0.00583067
-0.000306478
0.00353225
0.00598593
0.00735612
0.00791639
0.00790535
0.0075027
0.00687495
0.00608746
0.00529603
0.00439526
0.00370008
0.002705
0.00233757
0.000975785
0.00135456
-0.241722
-0.220136
-0.195613
-0.174063
-0.15225
-0.130442
-0.109395
-0.0894669
-0.0710121
-0.0543622
-0.0397626
-0.0273578
-0.0171801
-0.00915038
-0.00309255
0.00124072
0.00413522
0.00588502
0.00676223
0.0070098
0.00681362
0.00634832
0.00568731
0.00499335
0.00416922
0.00353054
0.00258733
0.00224549
0.000935581
0.00130072
-0.244811
-0.22351
-0.199748
-0.17879
-0.157379
-0.135874
-0.114981
-0.0950569
-0.076466
-0.0595524
-0.0445819
-0.0317253
-0.0210448
-0.0124912
-0.0059168
-0.00109751
0.00223576
0.00436761
0.00556708
0.00607981
0.00609665
0.00579961
0.00526997
0.00467735
0.00393309
0.00335318
0.00246416
0.00214937
0.000893964
0.00124532
-0.246991
-0.225898
-0.203134
-0.182887
-0.162001
-0.140927
-0.120301
-0.100481
-0.0818445
-0.0647456
-0.0494699
-0.0362134
-0.0250659
-0.0160083
-0.00892244
-0.00360996
0.000178307
0.00271383
0.00425901
0.00505957
0.00531004
0.0051986
0.00481425
0.00433363
0.00367739
0.00316205
0.00233197
0.00204703
0.000850287
0.00118824
-0.249253
-0.227849
-0.205902
-0.186274
-0.166023
-0.145549
-0.12536
-0.105813
-0.0872789
-0.0701161
-0.0546267
-0.0410308
-0.0294509
-0.0199009
-0.0122935
-0.0064597
-0.00217535
0.000811456
0.00275048
0.00388206
0.00440266
0.0045068
0.00429199
0.00394237
0.00338897
0.00294872
0.00218574
0.00193576
0.000802672
0.00112972
-0.248586
-0.22518
-0.204608
-0.185857
-0.166617
-0.147116
-0.12769
-0.108692
-0.090505
-0.0735013
-0.058005
-0.0442672
-0.0324567
-0.0226193
-0.0146905
-0.00852172
-0.00390817
-0.000613565
0.00160069
0.00296905
0.00368694
0.00395134
0.00386469
0.00361512
0.00314234
0.00276091
0.00205425
0.00183199
0.00075688
0.00107407
-0.234224
-0.222875
-0.205842
-0.187054
-0.16757
-0.14771
-0.127857
-0.108431
-0.0898437
-0.0724857
-0.056702
-0.0427598
-0.0308151
-0.0209255
-0.0130401
-0.00700586
-0.00259559
0.00045968
0.00243153
0.00357901
0.00411084
0.00422691
0.00402829
0.00369611
0.00316955
0.00274894
0.00203035
0.00178898
0.000737406
0.00103216
-0.221218
-0.212456
-0.197766
-0.180615
-0.162616
-0.144046
-0.125307
-0.106842
-0.0890616
-0.0723568
-0.0570708
-0.0434761
-0.0317512
-0.0219739
-0.0141135
-0.00803915
-0.003546
-0.000384376
0.00170246
0.00296298
0.00359998
0.00380897
0.00369181
0.00342634
0.00295985
0.00258212
0.00191287
0.00169122
0.000696499
0.000979703
-0.210198
-0.201477
-0.188095
-0.172566
-0.156135
-0.139029
-0.121642
-0.104401
-0.0877
-0.0719084
-0.0573583
-0.0443191
-0.0329777
-0.0234254
-0.0156524
-0.00955597
-0.00496242
-0.00165254
0.000604713
0.00203806
0.00283839
0.00319287
0.00320322
0.00304233
0.00266781
0.00235656
0.00175762
0.00156766
0.00064558
0.000918927
-0.200172
-0.1914
-0.178905
-0.164779
-0.149738
-0.133957
-0.117818
-0.101727
-0.0860508
-0.0711413
-0.057317
-0.0448411
-0.0339025
-0.0246033
-0.016953
-0.0108742
-0.00622115
-0.00280179
-0.00040816
0.00117007
0.00211223
0.00259646
0.0027236
0.00266018
0.00237384
0.00212661
0.0015982
0.00143913
0.00059295
0.000853942
-0.190225
-0.181612
-0.169835
-0.156981
-0.143253
-0.128743
-0.113818
-0.0988534
-0.08419
-0.0701586
-0.0570637
-0.0451615
-0.0346419
-0.0256168
-0.0181136
-0.0120786
-0.00739171
-0.00388644
-0.00137668
0.000330097
0.00140172
0.0020068
0.00224483
0.00227514
0.00207521
0.00189102
0.00143388
0.00130554
0.000538269
0.000784859
-0.179995
-0.171838
-0.160733
-0.149051
-0.136587
-0.123321
-0.109596
-0.095758
-0.0821173
-0.0689809
-0.0566372
-0.0453337
-0.0352601
-0.0265366
-0.0192067
-0.0132387
-0.00853767
-0.0049619
-0.00234726
-0.000519417
0.000677302
0.00140126
0.00175002
0.00187496
0.00176328
0.00164395
0.00126085
0.00116467
0.000480291
0.000711449
-0.169505
-0.16205
-0.151647
-0.141054
-0.1298
-0.117739
-0.105188
-0.092463
-0.0798437
-0.0676106
-0.056034
-0.0453509
-0.0357489
-0.0273541
-0.0202243
-0.0143479
-0.00965376
-0.00602445
-0.00331755
-0.00137727
-6.06837e-05
0.000779619
0.00123858
0.00145893
0.00143728
0.0013848
0.00107849
0.00101622
0.000418564
0.000633927
-0.158854
-0.152254
-0.14262
-0.133052
-0.122947
-0.112048
-0.100634
-0.0889984
-0.0773874
-0.0660554
-0.0552531
-0.0452054
-0.0360955
-0.0280537
-0.0211495
-0.0153897
-0.0107249
-0.00706101
-0.00427677
-0.00223494
-0.000805775
0.000146592
0.000713785
0.00102928
0.00109855
0.00111445
0.000887139
0.000860545
0.000352879
0.000552687
-0.148149
-0.142476
-0.13368
-0.125087
-0.116073
-0.106288
-0.0959706
-0.0853906
-0.0747669
-0.0643261
-0.0542986
-0.0448957
-0.0362944
-0.028627
-0.0219725
-0.0163536
-0.0117412
-0.00806261
-0.00521727
-0.00308623
-0.00155317
-0.000494232
0.000178169
0.000587777
0.000748179
0.000833649
0.000687065
0.000698006
0.000282997
0.000468177
-0.137504
-0.132766
-0.124858
-0.1172
-0.109215
-0.100492
-0.0912264
-0.0816646
-0.0720007
-0.0624349
-0.0531767
-0.0444227
-0.0363425
-0.0290681
-0.0226856
-0.0172314
-0.0126942
-0.0090216
-0.0061324
-0.00392562
-0.00229852
-0.00113956
-0.000365903
0.000136087
0.000387202
0.000543149
0.000478542
0.00052898
0.000208679
0.000380906
-0.127029
-0.123187
-0.116191
-0.109428
-0.102409
-0.094694
-0.0864312
-0.077845
-0.0691075
-0.0603947
-0.0518946
-0.0437888
-0.0362381
-0.0293721
-0.0232819
-0.018015
-0.0135757
-0.00993003
-0.00701508
-0.00474711
-0.00303699
-0.00178563
-0.000915663
-0.000323782
1.69356e-05
0.000243906
0.000261998
0.000353965
0.000129745
0.000291451
-0.116822
-0.113803
-0.107717
-0.101808
-0.095693
-0.0889256
-0.0816129
-0.0739556
-0.0661067
-0.0582194
-0.0504612
-0.0429982
-0.035981
-0.0295354
-0.0237553
-0.0186968
-0.0143776
-0.01078
-0.00785798
-0.00554434
-0.0037633
-0.00242825
-0.00146792
-0.000789455
-0.000360991
-6.28849e-05
3.80491e-05
0.00017359
4.60943e-05
0.000200452
-0.106962
-0.104675
-0.0994736
-0.0943733
-0.0890974
-0.083216
-0.0767979
-0.0700199
-0.0630178
-0.0559242
-0.0488872
-0.0420569
-0.0355732
-0.0295566
-0.0241016
-0.0192707
-0.0150926
-0.0115638
-0.0086539
-0.00631082
-0.00447191
-0.00306289
-0.00201913
-0.00125823
-0.000744657
-0.000375792
-0.000192492
-1.13868e-05
-4.22731e-05
0.000108604
-0.0975094
-0.0958593
-0.0914949
-0.0871533
-0.0826525
-0.0775931
-0.0720117
-0.066061
-0.0598608
-0.0535257
-0.0471848
-0.0409731
-0.0350188
-0.0294362
-0.0243183
-0.0197319
-0.0157146
-0.0122749
-0.00939598
-0.00704014
-0.00515717
-0.00368479
-0.00256545
-0.00172711
-0.00113185
-0.000693152
-0.000428603
-0.000200075
-0.000135235
1.66342e-05
-0.0885084
-0.0873999
-0.0838121
-0.080175
-0.0763855
-0.0720832
-0.0672789
-0.0621017
-0.0566564
-0.0510413
-0.0453684
-0.0397572
-0.0343245
-0.029177
-0.024405
-0.0200776
-0.0162388
-0.0129071
-0.0100779
-0.00772611
-0.0058134
-0.00428901
-0.00310281
-0.00219283
-0.00152007
-0.00101307
-0.00066904
-0.000391447
-0.000232526
-7.47099e-05
-0.0799876
-0.0793328
-0.0764521
-0.0734623
-0.0703213
-0.0667112
-0.0626237
-0.0581651
-0.0534261
-0.0484904
-0.043454
-0.0384219
-0.0334991
-0.0287843
-0.0243637
-0.0203067
-0.0166619
-0.0134559
-0.0106941
-0.00836299
-0.0064351
-0.00487061
-0.00362694
-0.00265189
-0.00190657
-0.00133341
-0.000912328
-0.000584343
-0.000333707
-0.000164691
-0.0719639
-0.0716846
-0.0694379
-0.0670368
-0.0644828
-0.0615014
-0.0580702
-0.0542749
-0.0501925
-0.0458936
-0.0414598
-0.0369822
-0.0325543
-0.028266
-0.0241987
-0.0204204
-0.0169826
-0.0139179
-0.0112401
-0.00894572
-0.00701713
-0.00542474
-0.00413352
-0.00310063
-0.00228838
-0.00165186
-0.00115677
-0.000777468
-0.000438155
-0.000252592
-0.064446
-0.0644744
-0.0627889
-0.0609179
-0.0588918
-0.0564771
-0.0536428
-0.0504554
-0.0469793
-0.0432735
-0.0394062
-0.0354557
-0.0315042
-0.0276328
-0.023917
-0.0204224
-0.0172017
-0.0142916
-0.0117128
-0.00947008
-0.00755485
-0.00594679
-0.00461829
-0.0035353
-0.00266233
-0.00196588
-0.00140044
-0.000969404
-0.000545072
-0.000337715
-0.0574372
-0.0577162
-0.0565219
-0.0551238
-0.0535689
-0.0516617
-0.0493659
-0.0467317
-0.0438116
-0.0406541
-0.0373155
-0.0338622
-0.0303656
-0.026898
-0.0235283
-0.0203189
-0.017322
-0.0145773
-0.0121103
-0.00993298
-0.00804438
-0.00643259
-0.00507714
-0.00395217
-0.00302517
-0.00227281
-0.00164124
-0.0011586
-0.000653484
-0.000419387
-0.0509387
-0.05142
-0.0506519
-0.0496719
-0.0485346
-0.0470784
-0.0452647
-0.04313
-0.040716
-0.0380614
-0.0352123
-0.0322241
-0.029158
-0.0260775
-0.0230449
-0.0201185
-0.0173491
-0.0147773
-0.0124327
-0.0103326
-0.00848272
-0.00687854
-0.00550626
-0.00434759
-0.00337357
-0.00256988
-0.00187688
-0.0013434
-0.00076225
-0.000496966
-0.0449513
-0.0455946
-0.0451929
-0.0445794
-0.0438091
-0.0427505
-0.041365
-0.0396776
-0.0377201
-0.0355231
-0.0331232
-0.0305661
-0.0279033
-0.0251902
-0.0224822
-0.0198328
-0.0172906
-0.0148963
-0.0126818
-0.0106686
-0.00886799
-0.00728176
-0.00590229
-0.00471813
-0.00370427
-0.00285423
-0.00210493
-0.00152204
-0.000870078
-0.000569841
-0.0394769
-0.0402483
-0.0401589
-0.0398636
-0.0394132
-0.038702
-0.0376933
-0.0364027
-0.0348534
-0.0330686
-0.0310769
-0.028915
-0.0266261
-0.0242574
-0.0218579
-0.0194759
-0.017157
-0.0149412
-0.0128614
-0.0109423
-0.00919951
-0.00764026
-0.00626242
-0.00506065
-0.00401408
-0.00312301
-0.00232288
-0.00169265
-0.000975543
-0.000637421
-0.0345194
-0.0353906
-0.0355649
-0.0355431
-0.0353686
-0.0349579
-0.0342774
-0.0333349
-0.0321466
-0.030729
-0.0291038
-0.0273001
-0.0253534
-0.0233033