/*--------------------------------*- C++ -*----------------------------------*\
  =========                 |
  \\      /  F ield         | OpenFOAM: The Open Source CFD Toolbox
   \\    /   O peration     | Website:  https://openfoam.org
    \\  /    A nd           | Version:  9
     \\/     M anipulation  |
\*---------------------------------------------------------------------------*/
FoamFile
{
    format      ascii;
    class       volScalarField;
    location    "23.4";
    object      p;
}
// * * * * * * * * * * * * * * * * * * * * * * * * * * * * * * * * * * * * * //

dimensions      [0 2 -2 0 0 0 0];

internalField   nonuniform List<scalar> 
8500
(
-0.306846
-0.311083
-0.311934
-0.31371
-0.315838
-0.316129
-0.319968
-0.316403
-0.322732
-0.315529
-0.307113
-0.311289
-0.312133
-0.313877
-0.316038
-0.316224
-0.320268
-0.316336
-0.323147
-0.315407
-0.30764
-0.311694
-0.312524
-0.314204
-0.31643
-0.316402
-0.320857
-0.316184
-0.32397
-0.315163
-0.308414
-0.312287
-0.313094
-0.314674
-0.316996
-0.316643
-0.321716
-0.315919
-0.325188
-0.314795
-0.309416
-0.313053
-0.313823
-0.315265
-0.31771
-0.31692
-0.322808
-0.315503
-0.326776
-0.314302
-0.310621
-0.313973
-0.31469
-0.315949
-0.318537
-0.317206
-0.324077
-0.314902
-0.32869
-0.313666
-0.312006
-0.315026
-0.315667
-0.316698
-0.319432
-0.317479
-0.325448
-0.314086
-0.330874
-0.31283
-0.313541
-0.316189
-0.316727
-0.317483
-0.320342
-0.317723
-0.326824
-0.313045
-0.333239
-0.311786
-0.3152
-0.317442
-0.317839
-0.318276
-0.32121
-0.317937
-0.328088
-0.311862
-0.335326
-0.310751
-0.316961
-0.318764
-0.318977
-0.319058
-0.321979
-0.318135
-0.329018
-0.310755
-0.337094
-0.30933
-0.318802
-0.32014
-0.320116
-0.319812
-0.322591
-0.318409
-0.329489
-0.309619
-0.338492
-0.307697
-0.320713
-0.321558
-0.321235
-0.320532
-0.322939
-0.318797
-0.329516
-0.308534
-0.339097
-0.306341
-0.322686
-0.323014
-0.322325
-0.321234
-0.323052
-0.31917
-0.329099
-0.307822
-0.338366
-0.30581
-0.324725
-0.324506
-0.323377
-0.321896
-0.322986
-0.319478
-0.328165
-0.30764
-0.335907
-0.306114
-0.326841
-0.326043
-0.324405
-0.322498
-0.322787
-0.319698
-0.326784
-0.307904
-0.331712
-0.306423
-0.329062
-0.327631
-0.325446
-0.323048
-0.322507
-0.319641
-0.325082
-0.308241
-0.326292
-0.305641
-0.33142
-0.329292
-0.326529
-0.323576
-0.322223
-0.319268
-0.323144
-0.308264
-0.320289
-0.303259
-0.333957
-0.331058
-0.327689
-0.324124
-0.321994
-0.318603
-0.320935
-0.307781
-0.313948
-0.299306
-0.336722
-0.332964
-0.32897
-0.324728
-0.321824
-0.317756
-0.318363
-0.306717
-0.307195
-0.294205
-0.339771
-0.335051
-0.330424
-0.325413
-0.321673
-0.316846
-0.315411
-0.304928
-0.300073
-0.288726
-0.343161
-0.337369
-0.332101
-0.326179
-0.321515
-0.315909
-0.312154
-0.302188
-0.293204
-0.283354
-0.346934
-0.339988
-0.33404
-0.327011
-0.321385
-0.314882
-0.308673
-0.298452
-0.287024
-0.276752
-0.351166
-0.342959
-0.336245
-0.327918
-0.321337
-0.313642
-0.304998
-0.29399
-0.280818
-0.269936
-0.355922
-0.346347
-0.338679
-0.328984
-0.321365
-0.312083
-0.301127
-0.288939
-0.274609
-0.263083
-0.361262
-0.350203
-0.341289
-0.330341
-0.321378
-0.310147
-0.297014
-0.2835
-0.268286
-0.256145
-0.367255
-0.35454
-0.34408
-0.332061
-0.321252
-0.307807
-0.292639
-0.277765
-0.261828
-0.249187
-0.373975
-0.359305
-0.347169
-0.334063
-0.320889
-0.30506
-0.287985
-0.271795
-0.255235
-0.242142
-0.381492
-0.364402
-0.350759
-0.336143
-0.32021
-0.301911
-0.283044
-0.265613
-0.248494
-0.235009
-0.389849
-0.369727
-0.355035
-0.338086
-0.319146
-0.298364
-0.277809
-0.259222
-0.2416
-0.227747
-0.399018
-0.37522
-0.360035
-0.339738
-0.317628
-0.294413
-0.272269
-0.252611
-0.234535
-0.220337
-0.408882
-0.380895
-0.365574
-0.341004
-0.315594
-0.29004
-0.266406
-0.245762
-0.22728
-0.212752
-0.419212
-0.386831
-0.371262
-0.341808
-0.312989
-0.285216
-0.260199
-0.238653
-0.219812
-0.204971
-0.429677
-0.393125
-0.376609
-0.34206
-0.309772
-0.279903
-0.253618
-0.23126
-0.212108
-0.196971
-0.439957
-0.39984
-0.381157
-0.341644
-0.305903
-0.274066
-0.246632
-0.223555
-0.204145
-0.188734
-0.449748
-0.406938
-0.384555
-0.34043
-0.301341
-0.267669
-0.239209
-0.21551
-0.195901
-0.180243
-0.458795
-0.414245
-0.386585
-0.338281
-0.296039
-0.26068
-0.231315
-0.207098
-0.187356
-0.17148
-0.466895
-0.421433
-0.387146
-0.335072
-0.289947
-0.253065
-0.222921
-0.198292
-0.178488
-0.162432
-0.473889
-0.428042
-0.386225
-0.330703
-0.283012
-0.244791
-0.213997
-0.18907
-0.16928
-0.153092
-0.47965
-0.433547
-0.383852
-0.325105
-0.275179
-0.235824
-0.20452
-0.179411
-0.159717
-0.143471
-0.484069
-0.437472
-0.380004
-0.318232
-0.2664
-0.226131
-0.194464
-0.169297
-0.149786
-0.133592
-0.487047
-0.439483
-0.374561
-0.310038
-0.256633
-0.215683
-0.183813
-0.158712
-0.139475
-0.123473
-0.488475
-0.439302
-0.367431
-0.300479
-0.245843
-0.204456
-0.172551
-0.14764
-0.128776
-0.113089
-0.488224
-0.43673
-0.358553
-0.289517
-0.234002
-0.19243
-0.160663
-0.13607
-0.117699
-0.102378
-0.486135
-0.431632
-0.347881
-0.277128
-0.22109
-0.17959
-0.148137
-0.123992
-0.106286
-0.0912601
-0.48202
-0.423917
-0.335366
-0.263311
-0.207095
-0.165923
-0.13496
-0.111408
-0.0945837
-0.0797179
-0.475674
-0.413528
-0.32097
-0.248072
-0.192004
-0.151424
-0.121139
-0.0983585
-0.0825647
-0.0678907
-0.466878
-0.400429
-0.304671
-0.231408
-0.175801
-0.136116
-0.106712
-0.0849263
-0.0701171
-0.0558607
-0.455422
-0.384606
-0.286463
-0.213318
-0.158496
-0.120062
-0.0917476
-0.0710828
-0.0572513
-0.0436324
-0.441113
-0.366056
-0.266339
-0.193822
-0.140175
-0.103317
-0.0762026
-0.0568404
-0.0440136
-0.031212
-0.42379
-0.344798
-0.244287
-0.173008
-0.120987
-0.0857878
-0.0601165
-0.0422132
-0.0304515
-0.0186134
-0.403336
-0.320893
-0.220308
-0.151029
-0.100871
-0.0675274
-0.043529
-0.0272257
-0.0166078
-0.0058635
-0.379686
-0.294466
-0.19449
-0.127854
-0.0798718
-0.0485957
-0.0264839
-0.0119106
-0.00252357
0.00700073
-0.352827
-0.26568
-0.167022
-0.103402
-0.0580493
-0.0290587
-0.00902904
0.00369254
0.0117614
0.0199351
-0.322809
-0.234564
-0.138042
-0.0777907
-0.0354705
-0.00898644
0.00878128
0.0195398
0.0262106
0.0328948
-0.289751
-0.200874
-0.107929
-0.0511626
-0.0122098
0.011546
0.0268865
0.0355859
0.0407929
0.0458364
-0.253829
-0.16491
-0.0766391
-0.0236674
0.0116459
0.0324586
0.0452217
0.0517893
0.0554762
0.0586892
-0.21514
-0.127082
-0.0442263
0.00454848
0.0359967
0.0536664
0.0637215
0.0681161
0.070205
0.0712798
-0.173659
-0.0880149
-0.0108212
0.0333426
0.0607314
0.0750796
0.082324
0.084533
0.0848669
0.0832716
-0.129869
-0.0478695
0.0233964
0.062572
0.0857306
0.0966053
0.100968
0.10098
0.0992871
0.0943751
-0.0841272
-0.00683836
0.0582223
0.0920874
0.110868
0.118148
0.119586
0.117348
0.113303
0.104909
-0.0368146
0.034841
0.0934367
0.121732
0.136014
0.13961
0.138094
0.133495
0.12686
0.116189
0.0116663
0.0769046
0.128811
0.151342
0.161034
0.160892
0.156393
0.149311
0.140163
0.128
0.0608964
0.119071
0.164109
0.180748
0.185793
0.181887
0.17439
0.164763
0.15326
0.139854
0.110444
0.161047
0.199095
0.209775
0.210152
0.202486
0.191988
0.179804
0.166095
0.151573
0.159872
0.202535
0.23353
0.238247
0.233973
0.222581
0.2091
0.194389
0.178597
0.162977
0.20874
0.243233
0.267179
0.265987
0.257119
0.242059
0.225638
0.208459
0.190699
0.173969
0.256611
0.282842
0.299809
0.29282
0.279452
0.260813
0.241521
0.221952
0.202332
0.18447
0.303055
0.32107
0.331192
0.318575
0.300838
0.278736
0.256665
0.234805
0.213433
0.19442
0.347652
0.357637
0.361112
0.343082
0.321147
0.295725
0.270991
0.246956
0.223942
0.20377
0.389993
0.392283
0.38936
0.366181
0.340254
0.311681
0.284422
0.258341
0.2338
0.212478
0.429702
0.42475
0.415736
0.387717
0.358039
0.326511
0.296887
0.268903
0.242954
0.220504
0.466479
0.454751
0.440053
0.407543
0.374389
0.340125
0.308316
0.278586
0.251351
0.227815
0.50003
0.482029
0.462134
0.425525
0.389201
0.352443
0.318645
0.287337
0.258944
0.234381
0.530062
0.506367
0.481819
0.441538
0.402379
0.363391
0.327817
0.295108
0.265689
0.240175
0.556314
0.527581
0.498965
0.455474
0.413838
0.372902
0.33578
0.301855
0.271547
0.245176
0.578553
0.545508
0.513448
0.467236
0.423505
0.380918
0.342487
0.307539
0.276483
0.249366
0.596584
0.560014
0.525163
0.476744
0.431315
0.387391
0.347901
0.312126
0.280468
0.25273
0.610249
0.57099
0.534025
0.483933
0.437217
0.392282
0.351989
0.315591
0.283478
0.255261
0.619426
0.578353
0.539968
0.488753
0.441174
0.395558
0.354728
0.317913
0.285494
0.25695
0.624035
0.582049
0.542951
0.491171
0.443159
0.397202
0.356101
0.319077
0.286506
0.257795
0.624035
0.582049
0.542951
0.491171
0.443159
0.397202
0.356101
0.319077
0.286506
0.257795
0.619426
0.578353
0.539968
0.488753
0.441174
0.395558
0.354728
0.317913
0.285494
0.25695
0.610249
0.57099
0.534025
0.483933
0.437217
0.392282
0.351989
0.315591
0.283478
0.255261
0.596584
0.560014
0.525163
0.476744
0.431315
0.387391
0.347901
0.312126
0.280468
0.25273
0.578553
0.545508
0.513448
0.467236
0.423505
0.380918
0.342487
0.307539
0.276483
0.249366
0.556314
0.527581
0.498965
0.455474
0.413838
0.372902
0.33578
0.301855
0.271547
0.245176
0.530062
0.506367
0.481819
0.441538
0.402379
0.363391
0.327817
0.295108
0.265689
0.240175
0.50003
0.482029
0.462134
0.425525
0.389201
0.352443
0.318645
0.287337
0.258944
0.234381
0.466479
0.454751
0.440053
0.407543
0.374389
0.340125
0.308316
0.278586
0.251351
0.227815
0.429702
0.42475
0.415736
0.387717
0.358039
0.326511
0.296887
0.268903
0.242954
0.220504
0.389993
0.392283
0.38936
0.366181
0.340254
0.311681
0.284422
0.258341
0.2338
0.212478
0.347652
0.357637
0.361112
0.343082
0.321147
0.295725
0.270991
0.246956
0.223942
0.20377
0.303055
0.32107
0.331192
0.318575
0.300838
0.278736
0.256665
0.234805
0.213433
0.19442
0.256611
0.282842
0.299809
0.29282
0.279452
0.260813
0.241521
0.221952
0.202332
0.18447
0.20874
0.243233
0.267179
0.265987
0.257119
0.242059
0.225638
0.208459
0.190699
0.173969
0.159872
0.202535
0.23353
0.238247
0.233973
0.222581
0.2091
0.194389
0.178597
0.162977
0.110444
0.161047
0.199095
0.209775
0.210152
0.202486
0.191988
0.179804
0.166095
0.151573
0.0608964
0.119071
0.164109
0.180748
0.185793
0.181887
0.17439
0.164763
0.15326
0.139854
0.0116663
0.0769046
0.128811
0.151342
0.161034
0.160892
0.156393
0.149311
0.140163
0.128
-0.0368146
0.034841
0.0934367
0.121732
0.136014
0.13961
0.138094
0.133495
0.12686
0.116189
-0.0841272
-0.00683835
0.0582223
0.0920875
0.110868
0.118148
0.119586
0.117348
0.113303
0.104909
-0.129869
-0.0478694
0.0233964
0.062572
0.0857306
0.0966053
0.100968
0.10098
0.0992871
0.0943751
-0.173659
-0.0880148
-0.0108212
0.0333426
0.0607314
0.0750797
0.082324
0.084533
0.084867
0.0832716
-0.21514
-0.127082
-0.0442263
0.00454849
0.0359967
0.0536664
0.0637216
0.0681161
0.070205
0.0712798
-0.253829
-0.16491
-0.0766391
-0.0236674
0.0116459
0.0324586
0.0452217
0.0517893
0.0554762
0.0586892
-0.289751
-0.200874
-0.107929
-0.0511626
-0.0122098
0.011546
0.0268865
0.0355859
0.0407929
0.0458364
-0.322809
-0.234564
-0.138042
-0.0777907
-0.0354705
-0.00898643
0.00878129
0.0195398
0.0262106
0.0328948
-0.352827
-0.26568
-0.167022
-0.103402
-0.0580493
-0.0290586
-0.00902903
0.00369255
0.0117614
0.0199351
-0.379686
-0.294466
-0.19449
-0.127854
-0.0798718
-0.0485957
-0.0264839
-0.0119106
-0.00252357
0.00700074
-0.403336
-0.320893
-0.220308
-0.151029
-0.100871
-0.0675274
-0.043529
-0.0272257
-0.0166078
-0.0058635
-0.42379
-0.344798
-0.244287
-0.173008
-0.120987
-0.0857877
-0.0601165
-0.0422132
-0.0304515
-0.0186134
-0.441113
-0.366056
-0.266339
-0.193822
-0.140175
-0.103317
-0.0762026
-0.0568404
-0.0440136
-0.031212
-0.455422
-0.384606
-0.286463
-0.213318
-0.158496
-0.120062
-0.0917476
-0.0710828
-0.0572513
-0.0436324
-0.466878
-0.400429
-0.304671
-0.231408
-0.175801
-0.136116
-0.106712
-0.0849263
-0.0701171
-0.0558607
-0.475674
-0.413528
-0.32097
-0.248072
-0.192004
-0.151424
-0.121139
-0.0983585
-0.0825647
-0.0678907
-0.48202
-0.423917
-0.335366
-0.263311
-0.207095
-0.165923
-0.13496
-0.111408
-0.0945837
-0.0797179
-0.486135
-0.431632
-0.347881
-0.277128
-0.22109
-0.17959
-0.148137
-0.123992
-0.106286
-0.0912601
-0.488224
-0.43673
-0.358553
-0.289517
-0.234002
-0.19243
-0.160663
-0.13607
-0.117699
-0.102378
-0.488475
-0.439302
-0.367431
-0.300479
-0.245843
-0.204456
-0.172551
-0.14764
-0.128776
-0.113089
-0.487047
-0.439483
-0.374561
-0.310038
-0.256633
-0.215683
-0.183813
-0.158712
-0.139475
-0.123473
-0.484069
-0.437472
-0.380004
-0.318232
-0.2664
-0.226131
-0.194464
-0.169297
-0.149786
-0.133592
-0.47965
-0.433547
-0.383852
-0.325105
-0.275179
-0.235824
-0.20452
-0.179411
-0.159717
-0.143471
-0.473889
-0.428042
-0.386225
-0.330703
-0.283012
-0.244791
-0.213997
-0.18907
-0.16928
-0.153092
-0.466895
-0.421433
-0.387146
-0.335072
-0.289947
-0.253065
-0.222921
-0.198292
-0.178488
-0.162432
-0.458795
-0.414245
-0.386585
-0.338281
-0.296039
-0.26068
-0.231315
-0.207098
-0.187356
-0.17148
-0.449748
-0.406938
-0.384555
-0.34043
-0.301341
-0.267669
-0.239209
-0.21551
-0.195901
-0.180243
-0.439957
-0.39984
-0.381157
-0.341644
-0.305903
-0.274066
-0.246632
-0.223555
-0.204145
-0.188734
-0.429677
-0.393125
-0.376609
-0.342059
-0.309772
-0.279903
-0.253618
-0.23126
-0.212108
-0.196971
-0.419212
-0.38683
-0.371262
-0.341808
-0.312989
-0.285216
-0.260199
-0.238653
-0.219812
-0.204971
-0.408882
-0.380895
-0.365574
-0.341004
-0.315594
-0.29004
-0.266406
-0.245762
-0.22728
-0.212752
-0.399018
-0.37522
-0.360035
-0.339738
-0.317628
-0.294413
-0.272269
-0.252611
-0.234535
-0.220337
-0.389849
-0.369727
-0.355035
-0.338086
-0.319146
-0.298364
-0.277809
-0.259222
-0.2416
-0.227747
-0.381492
-0.364402
-0.350759
-0.336143
-0.32021
-0.301911
-0.283044
-0.265613
-0.248494
-0.235009
-0.373975
-0.359305
-0.347169
-0.334063
-0.320889
-0.30506
-0.287985
-0.271795
-0.255235
-0.242142
-0.367255
-0.35454
-0.34408
-0.332061
-0.321252
-0.307807
-0.292639
-0.277765
-0.261828
-0.249187
-0.361262
-0.350203
-0.341289
-0.330341
-0.321378
-0.310147
-0.297014
-0.2835
-0.268286
-0.256145
-0.355922
-0.346347
-0.338679
-0.328984
-0.321365
-0.312083
-0.301127
-0.288939
-0.274609
-0.263083
-0.351166
-0.342959
-0.336245
-0.327918
-0.321337
-0.313642
-0.304998
-0.29399
-0.280818
-0.269936
-0.346934
-0.339988
-0.33404
-0.327011
-0.321385
-0.314882
-0.308673
-0.298452
-0.287024
-0.276752
-0.343161
-0.337369
-0.332101
-0.326179
-0.321515
-0.315909
-0.312154
-0.302188
-0.293204
-0.283354
-0.339771
-0.335051
-0.330424
-0.325413
-0.321673
-0.316846
-0.315411
-0.304928
-0.300073
-0.288726
-0.336722
-0.332964
-0.32897
-0.324728
-0.321824
-0.317756
-0.318363
-0.306717
-0.307195
-0.294204
-0.333957
-0.331058
-0.327689
-0.324124
-0.321994
-0.318603
-0.320934
-0.307781
-0.313948
-0.299306
-0.33142
-0.329292
-0.326529
-0.323576
-0.322223
-0.319268
-0.323144
-0.308264
-0.320289
-0.303259
-0.329062
-0.327631
-0.325446
-0.323048
-0.322507
-0.319641
-0.325082
-0.308241
-0.326292
-0.30564
-0.326841
-0.326043
-0.324405
-0.322498
-0.322787
-0.319698
-0.326784
-0.307904
-0.331712
-0.306423
-0.324725
-0.324506
-0.323377
-0.321896
-0.322986
-0.319478
-0.328165
-0.30764
-0.335907
-0.306114
-0.322686
-0.323014
-0.322325
-0.321234
-0.323051
-0.31917
-0.329099
-0.307822
-0.338365
-0.30581
-0.320713
-0.321558
-0.321235
-0.320532
-0.322939
-0.318797
-0.329516
-0.308534
-0.339097
-0.306341
-0.318802
-0.32014
-0.320116
-0.319812
-0.322591
-0.318409
-0.329489
-0.309619
-0.338492
-0.307697
-0.316961
-0.318764
-0.318977
-0.319058
-0.321979
-0.318135
-0.329018
-0.310755
-0.337094
-0.30933
-0.3152
-0.317442
-0.317839
-0.318276
-0.32121
-0.317937
-0.328088
-0.311862
-0.335326
-0.310751
-0.313541
-0.316189
-0.316727
-0.317483
-0.320342
-0.317723
-0.326824
-0.313045
-0.333239
-0.311786
-0.312006
-0.315026
-0.315667
-0.316698
-0.319432
-0.317479
-0.325448
-0.314086
-0.330874
-0.31283
-0.310621
-0.313973
-0.31469
-0.315949
-0.318537
-0.317206
-0.324077
-0.314902
-0.32869
-0.313666
-0.309416
-0.313053
-0.313823
-0.315265
-0.31771
-0.31692
-0.322808
-0.315503
-0.326776
-0.314302
-0.308414
-0.312287
-0.313094
-0.314674
-0.316996
-0.316643
-0.321716
-0.315919
-0.325188
-0.314795
-0.30764
-0.311694
-0.312524
-0.314204
-0.31643
-0.316402
-0.320857
-0.316184
-0.32397
-0.315163
-0.307113
-0.311289
-0.312133
-0.313877
-0.316038
-0.316224
-0.320268
-0.316336
-0.323147
-0.315407
-0.306846
-0.311083
-0.311934
-0.31371
-0.315838
-0.316129
-0.319968
-0.316403
-0.322732
-0.315529
-0.323185
-0.314018
-0.315671
-0.308757
-0.306198
-0.299864
-0.295291
-0.288684
-0.28179
-0.271945
-0.257768
-0.236327
-0.20603
-0.164543
-0.114997
-0.0668743
-0.029835
-0.00639914
0.00539154
0.00971667
0.00976151
0.00837436
0.00614774
0.00448184
0.00278831
0.00199452
0.0012423
0.000801986
0.000448225
0.000488045
-0.323418
-0.31414
-0.315747
-0.308843
-0.306255
-0.299926
-0.295354
-0.288774
-0.281923
-0.272148
-0.258056
-0.23671
-0.206522
-0.165103
-0.115538
-0.0672992
-0.0301585
-0.00663073
0.00522693
0.00960234
0.00968007
0.00831905
0.00610881
0.00445538
0.00276915
0.00198155
0.00123395
0.000795627
0.000444144
0.00048575
-0.323857
-0.314365
-0.315893
-0.309006
-0.306366
-0.300046
-0.295473
-0.288944
-0.282158
-0.272531
-0.258601
-0.237437
-0.207462
-0.16617
-0.116556
-0.0681594
-0.0308012
-0.00709667
0.00489369
0.00937013
0.009515
0.00820685
0.0060302
0.00440196
0.0027307
0.00195548
0.00121718
0.000782945
0.000436034
0.000481148
-0.324452
-0.314665
-0.316097
-0.309231
-0.30652
-0.300214
-0.295634
-0.289179
-0.282506
-0.273055
-0.259352
-0.238439
-0.208756
-0.167689
-0.117994
-0.0694001
-0.0317558
-0.00780164
0.00438478
0.00901373
0.00926237
0.00803495
0.00591053
0.00432068
0.00267274
0.00191607
0.00119184
0.000764015
0.000424008
0.000474214
-0.325128
-0.314986
-0.316343
-0.309495
-0.306712
-0.300419
-0.295835
-0.289447
-0.282894
-0.273666
-0.260235
-0.239634
-0.210331
-0.169463
-0.119822
-0.0709876
-0.0330127
-0.00875084
0.00369193
0.00852557
0.00891741
0.00779994
0.00574809
0.00421044
0.00259502
0.00186302
0.00115778
0.000738952
0.00040822
0.000464932
-0.325807
-0.315313
-0.316596
-0.309792
-0.306913
-0.300643
-0.296028
-0.289751
-0.2833
-0.274313
-0.261193
-0.240919
-0.21201
-0.171505
-0.12191
-0.0728789
-0.0345593
-0.00994723
0.00280763
0.00789857
0.00847547
0.00749848
0.0055412
0.00407012
0.00249732
0.00179606
0.00111482
0.000707904
0.000388857
0.000453301
-0.32647
-0.315512
-0.316866
-0.310054
-0.307141
-0.300892
-0.296279
-0.290033
-0.283703
-0.274945
-0.262128
-0.242228
-0.213766
-0.173639
-0.124202
-0.0750319
-0.0363818
-0.0113881
0.00172739
0.00712787
0.00793322
0.00712805
0.00528857
0.00389887
0.00237953
0.001715
0.00106284
0.000671059
0.000366133
0.000439354
-0.326827
-0.315774
-0.316999
-0.310358
-0.307313
-0.301082
-0.296443
-0.290312
-0.284047
-0.275518
-0.263009
-0.243476
-0.215477
-0.175808
-0.126625
-0.077406
-0.0384609
-0.0130689
0.00045223
0.00621223
0.00728959
0.00668739
0.00498963
0.00369624
0.00224177
0.00161981
0.00100178
0.000628633
0.000340273
0.000423165
-0.326833
-0.315974
-0.316998
-0.310618
-0.307403
-0.301356
-0.296599
-0.290534
-0.284332
-0.275997
-0.263777
-0.244611
-0.217088
-0.177938
-0.129123
-0.0799625
-0.0407742
-0.0149778
-0.00101183
0.00515418
0.00654599
0.00617695
0.00464472
0.00346234
0.00208435
0.00151064
0.000931692
0.000580871
0.00031151
0.000404856
-0.326444
-0.316041
-0.316859
-0.310783
-0.307517
-0.301448
-0.296693
-0.290693
-0.284522
-0.276349
-0.264398
-0.245586
-0.218544
-0.179976
-0.131648
-0.0826643
-0.0432959
-0.0170971
-0.00265363
0.00396026
0.00570641
0.00559894
0.00425513
0.00319791
0.0019079
0.00138786
0.000852755
0.000528042
0.000280071
0.000384597
-0.325375
-0.315964
-0.316505
-0.310811
-0.307408
-0.301557
-0.296715
-0.290759
-0.284599
-0.276551
-0.264841
-0.246365
-0.219805
-0.181882
-0.134161
-0.0854764
-0.045997
-0.0194047
-0.00445747
0.0026406
0.00477732
0.00495714
0.00382308
0.00290428
0.00171328
0.00125206
0.00076527
0.000470432
0.000246181
0.000362597
-0.323437
-0.315635
-0.315888
-0.31065
-0.307253
-0.301476
-0.296613
-0.290705
-0.284535
-0.276577
-0.26508
-0.246925
-0.220845
-0.183625
-0.136629
-0.0883662
-0.0488469
-0.0218751
-0.00640433
0.00120799
0.0037668
0.00425663
0.00335156
0.00258327
0.00150158
0.00110404
0.00066966
0.000408337
0.000210054
0.000339094
-0.320662
-0.314903
-0.314973
-0.310194
-0.30675
-0.301247
-0.296366
-0.290499
-0.284305
-0.276406
-0.265093
-0.247249
-0.221651
-0.185186
-0.139029
-0.0913037
-0.0518142
-0.0244808
-0.00847319
-0.000323043
0.00268387
0.00350339
0.00284415
0.00223712
0.00127407
0.000944724
0.000566456
0.000342067
0.000171893
0.000314344
-0.31745
-0.31356
-0.313656
-0.309436
-0.306185
-0.300739
-0.295899
-0.2901
-0.283883
-0.27602
-0.264869
-0.247331
-0.222217
-0.186556
-0.141344
-0.0942619
-0.0548682
-0.0271938
-0.0106423
-0.00193725
0.00153824
0.00270387
0.00230473
0.0018683
0.00103216
0.000775158
0.000456267
0.000271934
0.000131892
0.000288605
-0.314031
-0.311555
-0.311874
-0.30826
-0.305133
-0.30006
-0.295235
-0.289494
-0.283251
-0.275407
-0.264402
-0.247171
-0.222554
-0.187735
-0.143561
-0.0972177
-0.0579797
-0.029987
-0.0128901
-0.00361961
0.000339726
0.00186468
0.00173726
0.00147938
0.000777298
0.000596438
0.000339761
0.000198259
9.0235e-05
0.000262131
-0.310309
-0.308947
-0.309556
-0.306623
-0.303763
-0.298872
-0.29422
-0.288617
-0.282384
-0.274561
-0.263695
-0.246781
-0.222673
-0.188741
-0.145676
-0.100151
-0.061122
-0.0328358
-0.0151976
-0.00535611
-0.000901815
0.000992695
0.00114595
0.00107307
0.000510987
0.000409714
0.00021766
0.000121375
4.70971e-05
0.000235154
-0.306425
-0.305704
-0.306712
-0.304563
-0.3021
-0.297712
-0.293068
-0.287546
-0.281312
-0.273503
-0.262772
-0.246187
-0.22261
-0.189595
-0.147692
-0.103051
-0.064277
-0.0357196
-0.0175458
-0.00713174
-0.00217612
9.42072e-05
0.000535099
0.000652255
0.000234844
0.000216107
9.06767e-05
4.15959e-05
2.63603e-06
0.000207882
-0.302322
-0.301915
-0.303276
-0.301885
-0.299815
-0.295757
-0.291337
-0.286098
-0.279966
-0.272213
-0.261635
-0.245406
-0.222389
-0.190322
-0.149604
-0.105888
-0.0674024
-0.0386004
-0.0199087
-0.00893241
-0.00347739
-0.000828792
-9.43184e-05
0.000218224
-5.02732e-05
1.62118e-05
-4.07862e-05
-4.08844e-05
-4.3037e-05
0.000180479
-0.298049
-0.297847
-0.299685
-0.299173
-0.297653
-0.294135
-0.289948
-0.284676
-0.278559
-0.270838
-0.260399
-0.244521
-0.222064
-0.190924
-0.151417
-0.108659
-0.0705146
-0.0415088
-0.0223185
-0.0107804
-0.00481604
-0.00177792
-0.000745815
-0.00023136
-0.00034524
-0.000189861
-0.000176524
-0.000125857
-8.98065e-05
0.000153115
-0.294029
-0.292979
-0.294839
-0.295126
-0.29421
-0.29124
-0.287246
-0.282556
-0.276694
-0.269127
-0.258925
-0.243525
-0.221776
-0.191728
-0.153474
-0.111719
-0.0738656
-0.0445666
-0.0247981
-0.0126534
-0.00615805
-0.00272775
-0.00139843
-0.000685291
-0.000644643
-0.000398034
-0.000313886
-0.000212031
-0.000137238
0.000126135
-0.288829
-0.289197
-0.291251
-0.292153
-0.291706
-0.289298
-0.28592
-0.280849
-0.274981
-0.267415
-0.257214
-0.241927
-0.220406
-0.190854
-0.153403
-0.112512
-0.0752798
-0.0462338
-0.0263994
-0.0140217
-0.0072294
-0.00353051
-0.00196673
-0.00108587
-0.000914358
-0.000587531
-0.000439042
-0.000291543
-0.000181448
0.000101702
-0.283129
-0.28428
-0.286531
-0.287945
-0.287839
-0.285672
-0.282121
-0.277862
-0.272165
-0.264615
-0.25437
-0.23914
-0.217834
-0.188855
-0.152409
-0.112693
-0.0763647
-0.0477624
-0.0279654
-0.0154025
-0.00832394
-0.00435829
-0.00255694
-0.00150389
-0.00119275
-0.00077996
-0.000565693
-0.000370821
-0.000223921
7.83333e-05
-0.277149
-0.278912
-0.281408
-0.283377
-0.283719
-0.282019
-0.27912
-0.27474
-0.269128
-0.261576
-0.251285
-0.23613
-0.215074
-0.18671
-0.151302
-0.112788
-0.0773949
-0.0492741
-0.0295473
-0.0168191
-0.0094619
-0.00522821
-0.00318238
-0.00194962
-0.00149021
-0.000985108
-0.000700956
-0.000455289
-0.000268621
5.4007e-05
-0.270915
-0.273316
-0.276081
-0.278574
-0.279379
-0.278127
-0.27543
-0.271377
-0.265881
-0.258351
-0.248043
-0.232999
-0.212234
-0.184523
-0.150181
-0.112882
-0.0784347
-0.0508063
-0.0311583
-0.0182702
-0.0106348
-0.00612928
-0.00383296
-0.0024148
-0.00180183
-0.00120026
-0.000843032
-0.00054419
-0.000315566
2.88916e-05
-0.264377
-0.267521
-0.27057
-0.273539
-0.2748
-0.273964
-0.271596
-0.267783
-0.262416
-0.254932
-0.244635
-0.229736
-0.2093
-0.182277
-0.149023
-0.112956
-0.0794707
-0.0523515
-0.0327956
-0.0197549
-0.011842
-0.0070612
-0.00450871
-0.0028996
-0.0021278
-0.00142553
-0.000991989
-0.000637625
-0.000364818
3.0234e-06
-0.257581
-0.261551
-0.264899
-0.268298
-0.270008
-0.269589
-0.267554
-0.263978
-0.258756
-0.251339
-0.24108
-0.226355
-0.206284
-0.179979
-0.147831
-0.113004
-0.0804933
-0.0539003
-0.0344519
-0.0212687
-0.0130816
-0.00802337
-0.00520987
-0.00340449
-0.00246858
-0.0016612
-0.001148
-0.000735709
-0.000416408
-2.35532e-05
-0.2506
-0.255436
-0.259103
-0.262892
-0.265043
-0.26504
-0.263328
-0.259997
-0.254932
-0.247602
-0.237406
-0.222885
-0.203212
-0.177648
-0.146613
-0.113027
-0.081498
-0.0554458
-0.0361211
-0.0228067
-0.0143502
-0.00901392
-0.00593554
-0.00392902
-0.00282407
-0.00190722
-0.00131102
-0.000838431
-0.000470341
-5.07746e-05
-0.243487
-0.249202
-0.253212
-0.257357
-0.259937
-0.260343
-0.258952
-0.255869
-0.250971
-0.243748
-0.233643
-0.219353
-0.200107
-0.175301
-0.145379
-0.113026
-0.0824808
-0.0569818
-0.0377967
-0.0243637
-0.0156445
-0.0100306
-0.00668444
-0.00447239
-0.00319392
-0.00216339
-0.00148092
-0.000945729
-0.000526613
-7.8571e-05
-0.236291
-0.242873
-0.247249
-0.251719
-0.254712
-0.255521
-0.254451
-0.251618
-0.246897
-0.239803
-0.229814
-0.215781
-0.196988
-0.172951
-0.144135
-0.113002
-0.0834375
-0.058502
-0.0394727
-0.0259345
-0.0169606
-0.0110709
-0.00745513
-0.00503373
-0.00357772
-0.00242948
-0.00165753
-0.00105751
-0.000585204
-0.00010687
-0.229062
-0.23647
-0.241233
-0.246003
-0.249389
-0.250595
-0.249845
-0.247264
-0.242732
-0.235787
-0.225942
-0.21219
-0.193871
-0.17061
-0.142887
-0.112954
-0.0843641
-0.0600004
-0.0411429
-0.0275138
-0.0182947
-0.0121321
-0.00824599
-0.00561202
-0.00397495
-0.00270519
-0.00184063
-0.00117365
-0.000646079
-0.000135595
-0.221844
-0.23002
-0.235186
-0.240233
-0.243988
-0.245582
-0.245153
-0.242828
-0.238495
-0.231719
-0.222044
-0.208594
-0.190769
-0.168287
-0.141639
-0.112883
-0.0852572
-0.0614715
-0.0428012
-0.0290962
-0.0196425
-0.0132114
-0.00905515
-0.00620602
-0.00438495
-0.00299011
-0.00202995
-0.00129396
-0.000709183
-0.000164667
-0.214683
-0.22355
-0.229128
-0.234435
-0.238529
-0.2405
-0.240392
-0.238326
-0.234203
-0.227616
-0.218136
-0.20501
-0.187695
-0.165991
-0.140396
-0.112789
-0.0861137
-0.0629099
-0.0444417
-0.030676
-0.0209997
-0.0143055
-0.00988047
-0.0068143
-0.00480686
-0.00328372
-0.00222513
-0.00141822
-0.000774436
-0.000193999
-0.207621
-0.21709
-0.22308
-0.228633
-0.233035
-0.235368
-0.23558
-0.233777
-0.229873
-0.223492
-0.214233
-0.201449
-0.184657
-0.163727
-0.139161
-0.112672
-0.0869306
-0.0643107
-0.0460585
-0.0322476
-0.0223616
-0.0154107
-0.0107195
-0.00743518
-0.00523965
-0.00358537
-0.00242575
-0.00154614
-0.000841726
-0.000223503
-0.200701
-0.21067
-0.217067
-0.222852
-0.227531
-0.230206
-0.230735
-0.229198
-0.225522
-0.219365
-0.210348
-0.197923
-0.181665
-0.161501
-0.137937
-0.112533
-0.0877057
-0.0656691
-0.0476458
-0.0338051
-0.0237231
-0.0165232
-0.0115695
-0.0080667
-0.00568208
-0.00389424
-0.00263127
-0.00167734
-0.000910907
-0.000253081
-0.193959
-0.204322
-0.21111
-0.217118
-0.222041
-0.225036
-0.225878
-0.22461
-0.221169
-0.21525
-0.206497
-0.194444
-0.178727
-0.15932
-0.136728
-0.112372
-0.0884367
-0.0669806
-0.0491977
-0.0353423
-0.0250788
-0.0176386
-0.0124273
-0.0087066
-0.00613263
-0.00420934
-0.00284104
-0.0018114
-0.000981791
-0.000282632
-0.187426
-0.198079
-0.205235
-0.211455
-0.216592
-0.219882
-0.22103
-0.220032
-0.216833
-0.211164
-0.202692
-0.191025
-0.175851
-0.157189
-0.135536
-0.11219
-0.0891218
-0.0682409
-0.0507084
-0.036853
-0.0264228
-0.0187522
-0.0132891
-0.00935223
-0.00658951
-0.00452947
-0.00305429
-0.00194778
-0.00105414
-0.000312044
-0.181134
-0.191977
-0.199469
-0.20589
-0.211215
-0.214772
-0.216214
-0.215487
-0.212535
-0.207125
-0.19895
-0.187677
-0.173048
-0.155115
-0.134367
-0.111989
-0.0897598
-0.0694459
-0.0521719
-0.0383304
-0.0277489
-0.0198585
-0.014151
-0.0100005
-0.00705059
-0.00485319
-0.00327006
-0.00208585
-0.00112764
-0.000341199
-0.175108
-0.186049
-0.193841
-0.20045
-0.20594
-0.209736
-0.211458
-0.210999
-0.208299
-0.203155
-0.195287
-0.184414
-0.170326
-0.153103
-0.133223
-0.111771
-0.0903495
-0.0705916
-0.0535823
-0.0397676
-0.0290502
-0.0209517
-0.0150082
-0.010648
-0.00751336
-0.00517878
-0.00348725
-0.00222484
-0.00120194
-0.000369964
-0.169376
-0.180333
-0.188381
-0.195163
-0.200799
-0.204806
-0.206789
-0.206595
-0.204149
-0.199275
-0.191722
-0.181251
-0.167697
-0.151161
-0.13211
-0.111537
-0.0908902
-0.0716744
-0.0549333
-0.0411572
-0.0303194
-0.0220253
-0.0158555
-0.0112907
-0.00797491
-0.00550422
-0.0037045
-0.00236387
-0.00127658
-0.000398194
-0.16396
-0.174862
-0.183123
-0.190062
-0.195826
-0.200017
-0.202241
-0.202305
-0.200111
-0.19551
-0.188274
-0.178204
-0.165172
-0.149296
-0.131033
-0.111292
-0.0913817
-0.0726907
-0.0562188
-0.0424917
-0.0315485
-0.0230721
-0.016687
-0.0119239
-0.00843187
-0.00582713
-0.00392027
-0.00250191
-0.00135103
-0.000425728
-0.158884
-0.169673
-0.178101
-0.185181
-0.191059
-0.195408
-0.19785
-0.19816
-0.196217
-0.191886
-0.184966
-0.17529
-0.162763
-0.14752
-0.129998
-0.111039
-0.0918242
-0.0736369
-0.0574325
-0.0437629
-0.0327289
-0.0240843
-0.0174959
-0.0125425
-0.00888036
-0.00614478
-0.00413272
-0.00263777
-0.00142463
-0.000452382
-0.154171
-0.164801
-0.173352
-0.180554
-0.186533
-0.191018
-0.193654
-0.194196
-0.192497
-0.188431
-0.181822
-0.172529
-0.160487
-0.14584
-0.129013
-0.110781
-0.0922182
-0.0745099
-0.0585676
-0.0449623
-0.0338515
-0.0250532
-0.018275
-0.0131406
-0.00931594
-0.00645397
-0.00433974
-0.00277005
-0.00149664
-0.00047795
-0.149843
-0.160281
-0.168913
-0.17622
-0.182288
-0.186889
-0.189695
-0.190451
-0.188987
-0.185178
-0.178868
-0.169942
-0.158359
-0.14427
-0.128085
-0.110523
-0.0925647
-0.0753063
-0.0596172
-0.0460808
-0.0349063
-0.0259694
-0.019016
-0.0137117
-0.00973358
-0.0067511
-0.00453889
-0.00289719
-0.00156617
-0.000502197
-0.145924
-0.156149
-0.164826
-0.17222
-0.178368
-0.183066