/*--------------------------------*- C++ -*----------------------------------*\
  =========                 |
  \\      /  F ield         | OpenFOAM: The Open Source CFD Toolbox
   \\    /   O peration     | Website:  https://openfoam.org
    \\  /    A nd           | Version:  9
     \\/     M anipulation  |
\*---------------------------------------------------------------------------*/
FoamFile
{
    format      ascii;
    class       volVectorField;
    location    "52.8";
    object      U;
}
// * * * * * * * * * * * * * * * * * * * * * * * * * * * * * * * * * * * * * //

dimensions      [0 1 -1 0 0 0 0];

internalField   nonuniform List<vector> 
8500
(
(-0.00648234 0.00259407 0)
(-0.0291128 0.00447385 -6.17681e-23)
(-0.0611405 0.00493659 -3.3964e-24)
(-0.0889354 0.0047724 6.43754e-37)
(-0.11633 0.00445571 -9.47358e-24)
(-0.136738 0.00385361 7.88819e-24)
(-0.160626 0.0038005 -5.34333e-23)
(-0.171477 0.00249258 -8.26979e-23)
(-0.191735 0.00351857 -7.57078e-23)
(-0.198831 0.00124137 -3.92722e-24)
(-0.00677605 0.0077245 1.78229e-22)
(-0.0293705 0.0133358 5.77157e-23)
(-0.06102 0.0147203 2.3167e-22)
(-0.088259 0.0142305 0)
(-0.115072 0.01328 0)
(-0.134504 0.0114805 1.58919e-23)
(-0.157827 0.011312 4.01644e-23)
(-0.16696 0.00739351 8.82716e-23)
(-0.186707 0.0104953 5.70049e-23)
(-0.191587 0.00356424 1.57178e-23)
(-0.00735522 0.012701 -1.5838e-22)
(-0.0298822 0.0219768 0)
(-0.0607834 0.0242804 -2.18014e-22)
(-0.086915 0.023479 0)
(-0.11257 0.0218979 -3.79524e-23)
(-0.130043 0.0189317 3.16011e-23)
(-0.152234 0.0186198 0)
(-0.157886 0.0121278 0)
(-0.176653 0.0173763 0)
(-0.177122 0.00550132 0)
(-0.00820399 0.0174276 3.18504e-22)
(-0.0306403 0.030255 -2.31827e-22)
(-0.0604391 0.0334703 -5.46804e-23)
(-0.08492 0.0323787 -3.41035e-22)
(-0.108843 0.0301663 -3.42498e-22)
(-0.123371 0.0260946 3.18831e-23)
(-0.143854 0.025564 -2.66207e-23)
(-0.14417 0.0166099 3.07569e-22)
(-0.161547 0.024112 1.89526e-26)
(-0.155408 0.00685419 3.10027e-22)
(-0.00930003 0.0218185 -3.18504e-22)
(-0.0316338 0.0380369 -2.9972e-22)
(-0.059998 0.0421471 8.22754e-23)
(-0.0822975 0.0407909 4.55152e-22)
(-0.103915 0.0379345 -3.87705e-23)
(-0.114513 0.0328623 5.06722e-22)
(-0.13268 0.0319482 0)
(-0.125666 0.0207827 -3.52299e-22)
(-0.141289 0.0306671 -7.51659e-23)
(-0.126222 0.00753658 -4.30699e-22)
(-0.0106161 0.0258008 8.03341e-23)
(-0.032848 0.0452003 4.98397e-22)
(-0.0594716 0.0501722 -3.85333e-22)
(-0.0790763 0.0485795 -2.95992e-25)
(-0.0978045 0.0450442 -3.45501e-22)
(-0.103504 0.0391347 1.28107e-22)
(-0.118678 0.0375271 -5.35011e-23)
(-0.10217 0.024615 4.40647e-22)
(-0.115657 0.0369885 -7.53384e-23)
(-0.0889042 0.00769488 2.46699e-22)
(-0.012122 0.0293172 4.02513e-23)
(-0.0342655 0.0516367 0)
(-0.0588685 0.0574128 -1.56668e-24)
(-0.075286 0.0556115 0)
(-0.0905123 0.0513327 6.12694e-22)
(-0.090381 0.0448211 -5.07217e-22)
(-0.101754 0.0420005 0)
(-0.073423 0.0281087 -1.12438e-24)
(-0.0843035 0.0428583 0)
(-0.0420602 0.00793886 0)
(-0.0137867 0.0323281 -6.49393e-22)
(-0.0358653 0.0572538 -6.71144e-23)
(-0.0581899 0.0637445 4.97262e-22)
(-0.0709498 0.0617584 9.22233e-23)
(-0.0820022 0.0566384 -6.16558e-22)
(-0.075163 0.0498449 -3.79876e-22)
(-0.0816901 0.0450073 -5.37916e-23)
(-0.0391353 0.0313514 4.37176e-22)
(-0.0467683 0.0475503 -7.56494e-23)
(0.0167223 0.00931657 6.2516e-23)
(-0.0155803 0.0348121 7.31103e-22)
(-0.0376227 0.0619768 -5.39705e-22)
(-0.0574239 0.0690546 -1.66723e-22)
(-0.0660729 0.0668958 9.19811e-23)
(-0.0721765 0.0608089 6.1649e-22)
(-0.0578252 0.0541601 5.72677e-22)
(-0.0580171 0.0461368 -5.39237e-23)
(0.001068 0.0345239 8.75019e-23)
(-0.00284491 0.0502593 -1.5167e-22)
(0.0914228 0.0123415 6.38091e-23)
(-0.0174763 0.0367661 6.57379e-22)
(-0.0395072 0.0657499 5.40026e-22)
(-0.0565382 0.0732461 -7.82682e-22)
(-0.0606266 0.0709041 -9.22906e-23)
(-0.0608381 0.0637025 0)
(-0.0382545 0.0577683 0)
(-0.0299474 0.045183 0)
(0.0482271 0.0376467 -1.38502e-21)
(0.0471966 0.0501028 -6.36669e-22)
(0.18575 0.0175724 4.84022e-22)
(-0.0194524 0.0382036 -1.31903e-21)
(-0.0414804 0.0685367 0)
(-0.0554719 0.0762414 1.792e-21)
(-0.0545297 0.0736721 7.41279e-22)
(-0.0476451 0.0651936 7.7161e-23)
(-0.0160577 0.0606053 0)
(0.00351724 0.0423539 -8.82747e-22)
(0.103685 0.0410581 6.91132e-22)
(0.105007 0.045753 6.3666e-22)
(0.301326 0.0254928 -4.84004e-22)
(-0.0214918 0.0391531 7.44744e-22)
(-0.0434914 0.0703201 -6.82052e-23)
(-0.0541232 0.0779868 -8.97742e-22)
(-0.0476252 0.0751053 -8.34411e-22)
(-0.0321628 0.065279 0)
(0.00964494 0.0624153 1.02035e-21)
(0.0440797 0.0381436 5.1766e-25)
(0.168256 0.0455625 5.95864e-22)
(0.175851 0.0374293 7.14548e-22)
(0.436572 0.0352233 -4.79729e-22)
(-0.0235824 0.0396543 4.56049e-26)
(-0.045472 0.0711015 1.16977e-21)
(-0.052334 0.0784543 -1.12996e-22)
(-0.039594 0.0751122 6.51583e-22)
(-0.0138681 0.0640512 3.8954e-22)
(0.0400649 0.0629753 2.59466e-22)
(0.0945171 0.0334073 8.80424e-22)
(0.242359 0.0510241 -7.75317e-22)
(0.267993 0.0290528 -4.87263e-22)
(0.58541 0.0455303 3.52388e-22)
(-0.0257163 0.0397548 0)
(-0.0473294 0.0708986 -9.63473e-22)
(-0.0498893 0.0776497 -1.13493e-22)
(-0.0299238 0.0736288 1.63009e-24)
(0.00806389 0.0615929 6.2133e-22)
(0.0767203 0.0621925 -8.92001e-22)
(0.157981 0.0297447 8.75021e-22)
(0.326571 0.055957 -8.89558e-23)
(0.387937 0.0265542 0)
(0.737528 0.0563693 0)
(-0.0278875 0.0395061 8.47253e-23)
(-0.0489364 0.0697446 -1.11276e-21)
(-0.0464975 0.0756208 0)
(-0.0179204 0.0706957 -9.19633e-23)
(0.0348355 0.0580516 7.75686e-23)
(0.121726 0.0599496 0)
(0.236851 0.0291867 -8.76907e-22)
(0.422377 0.0592229 -6.85903e-22)
(0.533482 0.0333243 1.49866e-22)
(0.880749 0.0684795 -1.25944e-22)
(-0.0300872 0.0389554 -8.5169e-23)
(-0.0501259 0.067691 1.18267e-21)
(-0.0417479 0.0724382 0)
(-0.00268178 0.066472 -8.41464e-22)
(0.0680043 0.0537545 7.76118e-23)
(0.177752 0.0565696 -1.02215e-21)
(0.331655 0.0330791 -1.05793e-22)
(0.531666 0.0621152 7.74434e-22)
(0.691725 0.0480756 0)
(1.0045 0.0816288 9.54039e-22)
(-0.0322949 0.0381403 -1.29654e-21)
(-0.0506875 0.064802 -7.03844e-23)
(-0.035089 0.0681949 -1.13946e-22)
(0.0169584 0.0612201 9.42506e-23)
(0.109529 0.0492875 -1.2389e-21)
(0.247636 0.0532987 1.02214e-21)
(0.440602 0.0414412 8.61015e-22)
(0.653332 0.0676794 6.85843e-22)
(0.844828 0.0670457 1.18888e-21)
(1.10258 0.0944407 -8.34658e-22)
(-0.0344747 0.0370888 1.38229e-21)
(-0.0503545 0.061144 0)
(-0.0258292 0.0630246 1.0357e-21)
(0.0424449 0.0552921 -9.45289e-23)
(0.161653 0.045471 2.47695e-21)
(0.333396 0.0521506 0)
(0.559815 0.0535589 -8.60997e-22)
(0.780377 0.0775541 -1.83612e-24)
(0.978062 0.0869267 -1.3322e-21)
(1.17383 0.105467 1.20472e-22)
(-0.036572 0.0358169 0)
(-0.0487985 0.0567842 1.13963e-21)
(-0.0131329 0.0571019 -9.21413e-22)
(0.0754654 0.0491555 0)
(0.226534 0.0433644 -1.23804e-21)
(0.434632 0.0551566 0)
(0.683391 0.0686812 8.45935e-22)
(0.902072 0.0908108 -6.83979e-22)
(1.08394 0.105756 -1.13326e-21)
(1.22113 0.113715 -9.09777e-22)
(-0.0385061 0.0343259 -1.75565e-22)
(-0.0456296 0.0517936 -9.95517e-22)
(0.00398529 0.0506422 0)
(0.117866 0.0434653 0)
(0.305525 0.0442119 0)
(0.5475 0.0632987 -1.26328e-22)
(0.803945 0.0858297 -8.48025e-22)
(1.00911 0.105607 -8.65148e-23)
(1.16172 0.122367 1.13325e-21)
(1.24985 0.118448 1.02343e-21)
(-0.0401681 0.0326065 0)
(-0.0403953 0.0462464 -1.15711e-21)
(0.0266625 0.0439142 0)
(0.171448 0.0391639 0)
(0.398183 0.0491515 0)
(0.665209 0.0760975 1.25435e-22)
(0.914422 0.103653 -1.03396e-21)
(1.09656 0.120572 7.97596e-23)
(1.21505 0.135541 8.04989e-22)
(1.26695 0.119044 8.76589e-22)
(-0.0414343 0.0306548 0)
(-0.0325669 0.0402042 1.1571e-21)
(0.0561822 0.0372836 -9.424e-22)
(0.237533 0.0374997 0)
(0.501519 0.0586856 -1.23571e-21)
(0.780045 0.0920667 0)
(1.01003 0.120955 8.26951e-22)
(1.16365 0.134634 -6.57243e-22)
(1.24963 0.144184 -1.07757e-21)
(1.29173 0.129629 -8.71701e-22)
(-0.0421645 0.0284569 1.47742e-21)
(-0.0215475 0.0337185 0)
(0.0939274 0.0313092 8.25678e-22)
(0.316297 0.0397762 9.65368e-23)
(0.610238 0.0723382 2.47134e-21)
(0.885644 0.109529 0)
(1.08882 0.13702 -8.0542e-22)
(1.21246 0.146752 -1.30287e-21)
(1.27432 0.152389 -8.99354e-22)
(1.301 0.135711 -5.29282e-24)
(-0.042186 0.0259855 -1.56915e-21)
(-0.00666542 0.0268557 7.52965e-23)
(0.141216 0.0268537 1.17402e-22)
(0.406118 0.0468171 -9.71054e-23)
(0.718148 0.0888985 -1.23563e-21)
(0.978154 0.127176 9.92877e-22)
(1.1511 0.151434 8.05416e-22)
(1.24712 0.157412 6.45633e-22)
(1.2886 0.158835 1.02664e-21)
(1.30425 0.141481 -8.99942e-22)
(-0.0413081 0.023213 9.30559e-23)
(0.0128559 0.0197249 1.13191e-21)
(0.198968 0.0250944 0)
(0.503488 0.0585161 -6.7485e-22)
(0.819881 0.107021 -7.84859e-23)
(1.05612 0.144175 -9.92869e-22)
(1.1987 0.164251 9.61254e-23)
(1.27028 0.166569 5.38676e-22)
(1.29636 0.164531 0)
(1.30428 0.146489 8.01085e-22)
(-0.0393236 0.0201115 -9.62446e-23)
(0.0378981 0.01256 -1.20829e-21)
(0.267251 0.0272677 0)
(0.603731 0.0739271 9.00887e-23)
(0.911857 0.125648 -7.87106e-23)
(1.11979 0.160122 0)
(1.23381 0.175594 -7.68093e-22)
(1.28492 0.174586 -6.19136e-22)
(1.29932 0.169525 -1.17103e-22)
(1.30106 0.151013 -9.85064e-23)
(-0.035995 0.0166529 0)
(0.0693848 0.00584707 -1.39538e-21)
(0.344921 0.0341836 1.24901e-22)
(0.702177 0.0918104 -5.21339e-24)
(0.992313 0.144111 -6.16187e-22)
(1.17037 0.174874 -1.08413e-21)
(1.25876 0.185684 8.66558e-22)
(1.29318 0.181693 0)
(1.29891 0.174094 0)
(1.29675 0.155317 0)
(-0.0310287 0.0128174 2.28913e-24)
(0.108128 0.000428536 1.17055e-21)
(0.429624 0.0458521 1.2659e-22)
(0.795103 0.111115 8.74696e-22)
(1.06084 0.16204 5.37028e-22)
(1.2095 0.188448 -1.04453e-22)
(1.27563 0.194746 7.45807e-22)
(1.29683 0.188144 -4.98868e-22)
(1.29633 0.178389 -5.5621e-22)
(1.29124 0.159471 4.44209e-22)
(-0.024048 0.0086163 7.3191e-22)
(0.154601 -0.0025261 8.20686e-23)
(0.51822 0.0615527 -1.01131e-21)
(0.880098 0.131122 -7.89094e-22)
(1.11789 0.179256 0)
(1.23892 0.200942 9.54479e-22)
(1.28623 0.203004 -1.57956e-23)
(1.29716 0.194138 6.42762e-22)
(1.29221 0.182529 3.88896e-22)
(1.28524 0.163568 -3.51636e-22)
(-0.0145879 0.00412847 -1.68549e-21)
(0.208708 -0.00176036 0)
(0.607401 0.0802634 2.03884e-21)
(0.955936 0.151389 6.935e-22)
(1.16437 0.195695 7.93439e-23)
(1.26027 0.2125 0)
(1.29201 0.210663 -7.23356e-22)
(1.29512 0.199834 5.41995e-22)
(1.28709 0.186599 4.17041e-22)
(1.27879 0.16765 -3.25918e-22)
(-0.00212256 -0.000456515 8.5359e-22)
(0.269665 0.00368848 6.63087e-22)
(0.694232 0.10107 -1.15259e-21)
(1.02225 0.171675 1.0344e-22)
(1.20142 0.211367 0)
(1.27504 0.223277 0)
(1.29415 0.217898 0)
(1.2914 0.205349 -1.06685e-21)
(1.28125 0.190656 -4.17045e-22)
(1.27207 0.171736 3.25903e-22)
(0.0138669 -0.00479569 7.93637e-22)
(0.336081 0.0141908 -6.57357e-22)
(0.776422 0.12332 6.74412e-23)
(1.07921 0.191865 0)
(1.2302 0.226321 5.96983e-22)
(1.28449 0.233429 3.92615e-22)
(1.29353 0.224851 4.49118e-23)
(1.28646 0.210768 -4.39559e-23)
(1.27489 0.19473 9.92963e-23)
(1.26509 0.175837 -3.99174e-23)
(0.0337638 -0.0083639 -9.00349e-22)
(0.406182 0.0294954 8.32337e-23)
(0.852373 0.146583 5.33797e-22)
(1.12729 0.211895 -1.47552e-22)
(1.25188 0.240628 -4.47802e-22)
(1.28968 0.243096 -5.57585e-22)
(1.29083 0.231632 4.38277e-23)
(1.28062 0.216143 2.62799e-22)
(1.26812 0.19884 0)
(1.2579 0.179946 -3.49226e-23)
(0.0577377 -0.0105027 -5.84858e-23)
(0.478075 0.0489437 0)
(0.921115 0.170555 6.16986e-24)
(1.16712 0.231713 0)
(1.26749 0.254366 5.80645e-22)
(1.29146 0.2524 -4.25858e-22)
(1.28654 0.238319 0)
(1.27408 0.221505 9.68976e-24)
(1.26099 0.202989 0)
(1.25047 0.184054 0)
(0.0857296 -0.0105218 -1.16898e-22)
(0.549949 0.0717708 7.59899e-22)
(0.982191 0.195018 -6.09207e-22)
(1.1994 0.251261 9.99352e-23)
(1.27798 0.267616 -2.66462e-22)
(1.29051 0.261439 -4.46651e-23)
(1.28099 0.244962 0)
(1.26696 0.226867 1.79989e-22)
(1.25355 0.207172 4.57635e-23)
(1.24282 0.188142 1.27614e-22)
(0.117444 -0.00782056 -4.94049e-22)
(0.620188 0.0972997 -3.06284e-22)
(1.03553 0.219809 -1.00264e-22)
(1.22483 0.270481 3.99109e-22)
(1.28415 0.280452 3.22258e-23)
(1.28736 0.270291 4.14091e-22)
(1.27443 0.251587 0)
(1.25934 0.232229 -2.13816e-22)
(1.24579 0.211376 3.89655e-23)
(1.23491 0.192191 -2.80237e-22)
(0.152384 -0.00199729 -4.94048e-22)
(0.687407 0.124993 3.19382e-22)
(1.0813 0.244804 -4.10487e-24)
(1.24411 0.289316 -4.63776e-22)
(1.28667 0.292934 -2.41475e-22)
(1.28241 0.279008 -2.30937e-23)
(1.26703 0.258202 1.92823e-23)
(1.25125 0.237576 2.38432e-22)
(1.23772 0.215582 -2.32049e-24)
(1.22674 0.196176 9.07299e-23)
(0.189908 0.00709891 -2.54992e-22)
(0.750458 0.154421 0)
(1.11988 0.269898 -2.74167e-22)
(1.2579 0.307717 0)
(1.28609 0.305108 -3.03424e-22)
(1.27596 0.28762 2.59695e-23)
(1.25888 0.264799 0)
(1.24273 0.24289 0)
(1.22933 0.219769 0)
(1.2183 0.200071 0)
(0.229279 0.019391 2.23685e-22)
(0.808429 0.185201 1.07514e-22)
(1.1517 0.294983 2.74169e-22)
(1.26679 0.325649 0)
(1.28288 0.317005 0)
(1.26823 0.29614 -1.05676e-23)
(1.25005 0.271359 4.01562e-23)
(1.23376 0.248144 4.47257e-23)
(1.2206 0.22391 4.04122e-23)
(1.20959 0.203845 -6.67796e-24)
(0.269708 0.0346508 -4.0496e-24)
(0.860671 0.216968 -1.00554e-22)
(1.17721 0.319943 4.58935e-24)
(1.27134 0.343093 5.27038e-24)
(1.27738 0.328638 -7.98295e-24)
(1.25938 0.30456 3.00434e-24)
(1.24058 0.277851 -3.48612e-23)
(1.22435 0.253306 -4.1773e-23)
(1.21153 0.227971 -3.06423e-23)
(1.20063 0.207464 1.134e-24)
(0.3104 0.052582 0)
(0.906846 0.249378 -1.01457e-22)
(1.19681 0.344657 -3.01306e-24)
(1.27204 0.360035 6.27379e-24)
(1.26989 0.340006 1.09178e-37)
(1.24951 0.312855 -7.50269e-38)
(1.23049 0.284236 -3.06948e-23)
(1.2145 0.258342 -3.54506e-23)
(1.20212 0.23191 -2.71337e-23)
(1.19145 0.210893 0)
(0.350572 0.0728688 2.93535e-22)
(0.946855 0.282138 8.31591e-23)
(1.21088 0.369013 2.72014e-22)
(1.2693 0.376449 -1.22185e-23)
(1.26064 0.351092 0)
(1.2387 0.320989 8.82394e-24)
(1.2198 0.290471 2.00436e-23)
(1.20419 0.263214 3.81996e-23)
(1.19235 0.23568 2.11733e-23)
(1.18204 0.214111 5.00977e-24)
(0.389484 0.0952105 -2.61646e-22)
(0.980696 0.314987 0)
(1.21982 0.392886 -2.57244e-22)
(1.26346 0.392299 0)
(1.2498 0.36186 -2.44976e-23)
(1.22701 0.328912 2.03982e-23)
(1.2085 0.296508 0)
(1.19342 0.267881 0)
(1.18223 0.239239 0)
(1.17235 0.217096 0)
(0.42645 0.119329 5.18463e-22)
(1.00845 0.347685 -3.30402e-22)
(1.22398 0.416155 -6.24598e-23)
(1.25485 0.40754 -2.49241e-22)
(1.23751 0.372264 -2.24954e-22)
(1.21446 0.33657 1.49301e-23)
(1.19661 0.302296 -1.2466e-23)
(1.18217 0.272296 9.57307e-23)
(1.17179 0.242558 2.11679e-24)
(1.16231 0.219824 6.28429e-23)
(0.460855 0.144957 -5.18463e-22)
(1.03027 0.380005 -3.97237e-22)
(1.22372 0.438695 8.6461e-23)
(1.24372 0.422124 2.96981e-22)
(1.2239 0.382243 -1.20591e-23)
(1.20109 0.343898 2.28134e-22)
(1.1841 0.307781 0)
(1.17046 0.276402 -1.09047e-22)
(1.16108 0.245627 -1.50967e-23)
(1.15189 0.222314 -7.51315e-23)
(0.492168 0.171822 1.23062e-22)
(1.04632 0.411732 6.80014e-22)
(1.21936 0.460375 -3.87596e-22)
(1.23031 0.435991 -7.16915e-23)
(1.20903 0.391732 -1.59649e-22)
(1.18692 0.350831 2.91098e-23)
(1.171 0.312906 -1.98467e-23)
(1.15832 0.280136 9.58974e-23)
(1.1501 0.24843 -1.59401e-23)
(1.14117 0.224601 3.88232e-23)
(0.519948 0.199635 6.23621e-23)
(1.05681 0.442651 0)
(1.21119 0.481066 2.66055e-23)
(1.21483 0.449073 0)
(1.19298 0.400655 3.27361e-22)
(1.17196 0.357297 -2.01838e-22)
(1.15733 0.317611 0)
(1.1458 0.283454 -1.68319e-23)
(1.13876 0.250907 0)
(1.13025 0.226494 0)
(0.543847 0.228083 -9.55391e-22)
(1.06196 0.472545 -7.23199e-23)
(1.19949 0.500632 4.7018e-22)
(1.19741 0.461294 5.04298e-23)
(1.1758 0.408924 -3.25357e-22)
(1.1563 0.363222 -1.03689e-22)
(1.14315 0.321835 -1.42411e-23)
(1.13291 0.28633 3.62764e-23)
(1.12703 0.253017 -9.12091e-24)
(1.11915 0.228031 2.7467e-24)
(0.563611 0.256833 1.06272e-21)
(1.06201 0.501194 -6.3073e-22)
(1.18451 0.518936 -1.34068e-22)
(1.17823 0.47257 6.46874e-23)
(1.15757 0.416451 2.54108e-22)
(1.13998 0.368528 1.58706e-22)
(1.12844 0.325519 -1.12605e-23)
(1.11965 0.288733 -2.90046e-23)
(1.11497 0.254714 -7.81403e-24)
(1.10788 0.22915 1.89589e-24)
(0.579071 0.285533 8.76279e-22)
(1.05718 0.528373 6.10448e-22)
(1.16649 0.535832 -5.56085e-22)
(1.15743 0.482809 -5.7838e-23)
(1.13846 0.423163 0)
(1.12299 0.373129 0)
(1.11322 0.328609 0)
(1.10603 0.29062 -6.31249e-23)
(1.10259 0.255967 1.19081e-23)
(1.09646 0.229832 -2.95442e-23)
(0.590145 0.313821 -1.70227e-21)
(1.04775 0.553864 0)
(1.14563 0.551153 1.17518e-21)
(1.13524 0.491914 2.80782e-22)
(1.11849 0.428981 0)
(1.10532 0.376952 0)
(1.09753 0.331038 -1.65676e-23)
(1.09208 0.291949 1.32866e-23)
(1.08995 0.256739 -1.19082e-23)
(1.08491 0.23004 2.9543e-23)
(0.596829 0.341336 9.14446e-22)
(1.03399 0.577466 -7.26037e-23)
(1.12217 0.564728 -5.49173e-22)
(1.11177 0.499768 -3.04966e-22)
(1.09767 0.433822 2.00723e-23)
(1.08704 0.379933 3.31669e-23)
(1.08142 0.332748 5.08733e-23)
(1.07783 0.292682 -5.55443e-23)
(1.07707 0.256997 -7.58656e-23)
(1.07325 0.229749 7.4285e-23)
(0.599193 0.367711 -1.1684e-23)
(1.01626 0.598993 8.49337e-22)
(1.09638 0.57644 -7.3209e-23)
(1.08707 0.506207 1.39273e-22)
(1.07608 0.437612 4.26547e-23)
(1.0682 0.382003 -6.76949e-23)
(1.06494 0.333684 -4.04018e-23)
(1.06331 0.292778 7.04127e-23)
(1.06398 0.256707 -9.34532e-23)
(1.06154 0.228929 -5.47603e-23)
(0.597378 0.392579 0)
(0.99481 0.618219 -7.51833e-22)
(1.06852 0.586197 -6.15919e-23)
(1.06122 0.511101 -6.67203e-23)
(1.05379 0.440245 -3.66391e-23)
(1.04887 0.383099 2.40567e-23)
(1.04813 0.333795 -1.44592e-22)
(1.04856 0.2922 0)
(1.05072 0.255835 0)
(1.04979 0.227545 0)
(0.591584 0.415612 7.42301e-23)
(0.969753 0.634798 -5.74734e-22)
(1.03894 0.593953 0)
(1.0344 0.514373 -7.01862e-23)
(1.0309 0.441632 8.74613e-25)
(1.02913 0.38316 0)
(1.03106 0.333033 1.39278e-22)
(1.03363 0.290915 1.80299e-22)
(1.03733 0.254343 -3.75102e-23)
(1.03806 0.225551 3.15063e-23)
(0.582034 0.436596 -5.20607e-23)
(0.941303 0.648431 6.17471e-22)
(1.00792 0.599565 0)
(1.00674 0.515985 -1.30138e-23)
(1.00749 0.441688 -5.95915e-24)
(1.00904 0.38213 2.56079e-22)
(1.01378 0.331358 2.86444e-23)
(1.01856 0.288892 -2.04275e-22)
(1.02382 0.252198 0)
(1.02638 0.222908 -3.27854e-22)
(0.568943 0.45531 -7.11332e-22)
(0.909942 0.659001 -3.37671e-23)
(0.975601 0.602823 3.19912e-24)
(0.97838 0.515869 -2.64623e-24)
(0.983652 0.440341 3.30199e-22)
(0.98869 0.379956 -2.56082e-22)
(0.996367 0.328733 -3.02075e-22)
(1.00339 0.286098 -2.60893e-22)
(1.01025 0.249372 -4.42542e-22)
(1.01489 0.21961 2.8695e-22)
(0.55243 0.471401 7.52471e-22)
(0.876235 0.666496 0)
(0.942219 0.603596 -1.25936e-22)
(0.949477 0.513959 1.26204e-23)
(0.959502 0.43753 -7.65895e-22)
(0.968163 0.376593 0)
(0.978874 0.325127 3.02077e-22)
(0.988144 0.282497 -4.05781e-23)
(0.996711 0.245837 5.0126e-22)
(1.00386 0.215694 -4.93096e-23)
(0.532707 0.484446 0)
(0.840564 0.670763 -8.25952e-24)
(0.907973 0.601821 1.1068e-22)
(0.920182 0.510185 0)
(0.935148 0.433202 4.35697e-22)
(0.94755 0.372 0)
(0.961359 0.320513 -4.11983e-22)
(0.972879 0.278048 3.01475e-22)
(0.983387 0.241554 5.61709e-22)
(0.9936 0.211228 4.48433e-22)
(0.510262 0.494278 -1.03884e-23)
(0.803273 0.671665 1.67869e-23)
(0.873094 0.597439 0)
(0.890651 0.504488 0)
(0.910707 0.427319 0)
(0.926941 0.366149 6.54619e-23)
(0.943882 0.314873 3.02793e-22)
(0.957686 0.272726 4.56459e-23)
(0.970466 0.236464 -5.61713e-22)
(0.983993 0.206161 -5.03758e-22)
(0.485511 0.500728 0)
(0.764708 0.669086 3.20274e-22)
(0.837819 0.590407 0)
(0.861047 0.496816 0)
(0.886301 0.419848 0)
(0.906429 0.359017 -7.43254e-23)
(0.926518 0.308191 6.44056e-22)
(0.942689 0.266534 -1.49591e-22)
(0.958026 0.230579 -5.13562e-22)
(0.974375 0.198995 -5.28095e-22)
(0.458866 0.503661 0)
(0.725227 0.662948 -3.20276e-22)
(0.802391 0.580697 5.43677e-22)
(0.831534 0.487134 0)
(0.862055 0.410768 8.60761e-22)
(0.886109 0.350588 0)
(0.909355 0.300454 -5.21051e-22)
(0.927999 0.259486 4.60229e-22)
(0.945821 0.224356 6.745e-22)
(0.963474 0.193815 5.26727e-22)
(0.430736 0.502984 -5.26449e-22)
(0.685195 0.653203 0)
(0.767056 0.568299 -4.65881e-22)
(0.802283 0.47542 -6.43537e-23)
(0.838096 0.400071 -1.82574e-21)
(0.866081 0.340854 0)
(0.892485 0.291646 6.27109e-22)
(0.913683 0.251507 3.76555e-23)
(0.933968 0.217078 6.91678e-22)
(0.953001 0.187184 2.43915e-24)
(0.401532 0.498646 5.73214e-22)
(0.644975 0.639834 -3.83867e-23)
(0.732054 0.553222 -9.0227e-23)
(0.773464 0.461668 -7.46337e-23)
(0.814554 0.387758 9.6498e-22)
(0.846446 0.32982 -8.54862e-22)
(0.875992 0.281787 -6.27113e-22)
(0.899744 0.242693 -4.9789e-22)
(0.922307 0.209226 -7.82935e-22)
(0.942512 0.180331 7.28089e-22)
(0.371658 0.490631 -5.98096e-23)
(0.60493 0.622854 -8.97414e-22)
(0.697627 0.535492 0)
(0.745248 0.445887 6.34819e-22)
(0.791558 0.37384 7.04612e-23)
(0.827307 0.317494 8.54867e-22)
(0.859964 0.270876 -8.5379e-23)
(0.886254 0.232995 -4.98403e-22)
(0.910986 0.200591 0)
(0.932323 0.172784 -6.49195e-22)
(0.34151 0.478964 6.80373e-23)
(0.565417 0.602307 9.46513e-22)
(0.66401 0.515153 0)
(0.717805 0.428104 -2.3311e-23)
(0.769238 0.358343 7.72441e-23)
(0.808768 0.303899 0)
(0.84448 0.25894 7.75803e-22)
(0.873248 0.222467 5.69867e-22)
(0.900024 0.191308 1.09835e-22)
(0.922486 0.164702 -9.22582e-23)
(0.311477 0.463707 0)
(0.526783 0.578264 1.39321e-21)
(0.631432 0.492269 -1.2372e-22)
(0.691304 0.408359 6.72093e-23)
(0.747721 0.341302 6.78069e-22)
(0.790929 0.289064 1.18131e-21)
(0.829617 0.246001 -8.79472e-22)
(0.860787 0.211114 0)
(0.88949 0.181354 0)
(0.913082 0.156041 0)
(0.28193 0.444959 2.41594e-24)
(0.489365 0.550825 -1.15641e-21)
(0.600117 0.466921 1.37242e-22)
(0.665908 0.386711 -9.65195e-22)
(0.727132 0.322764 -5.87989e-22)
(0.77389 0.273029 1.93184e-22)
(0.815452 0.232095 -8.73178e-22)
(0.848925 0.198976 5.82224e-22)
(0.879438 0.170768 6.34799e-22)
(0.904167 0.146836 -4.99069e-22)
(0.25323 0.422855 -8.00917e-22)
(0.453482 0.520114 -8.9505e-23)
(0.570278 0.439206 1.25058e-21)
(0.641776 0.36323 9.8176e-22)
(0.707595 0.302788 0)
(0.757747 0.255843 -1.11885e-21)
(0.802059 0.217263 -4.09544e-23)
(0.837718 0.186084 -7.49264e-22)
(0.869921 0.159572 -4.45021e-22)
(0.895786 0.137108 3.97388e-22)
(0.225715 0.397578 1.91363e-21)
(0.419432 0.486269 0)
(0.542122 0.40924 -2.58557e-21)
(0.619059 0.338004 -8.59261e-22)
(0.689228 0.281442 -1.01687e-22)
(0.742592 0.237562 0)
(0.789507 0.20155 9.06027e-22)
(0.827221 0.172479 -7.23507e-22)
(0.860991 0.147797 -5.54548e-22)
(0.88798 0.126886 4.27667e-22)
(0.199699 0.369348 -1.00367e-21)
(0.387492 0.449448 -8.79929e-22)
(0.515848 0.377148 1.50186e-21)
(0.597902 0.311132 -1.38029e-22)
(0.672141 0.258808 0)
(0.728513 0.218252 0)
(0.777863 0.185012 0)
(0.817487 0.158204 1.47202e-21)
(0.852696 0.135475 5.5455e-22)
(0.880782 0.116205 -4.27666e-22)
(0.175455 0.338386 -1.03131e-21)
(0.357929 0.409863 8.76851e-22)
(0.491649 0.343073 9.21837e-23)
(0.578443 0.282729 0)
(0.656442 0.234974 -8.72567e-22)
(0.715591 0.197986 -5.85484e-22)
(0.767191 0.167705 -6.53711e-23)
(0.808565 0.143308 1.1385e-22)
(0.845083 0.122647 -1.46199e-22)
(0.874223 0.105103 5.86246e-23)
(0.153218 0.304895 1.17137e-21)
(0.330997 0.367766 -1.17707e-22)
(0.469697 0.307181 -9.63373e-22)
(0.560808 0.252923 2.15683e-22)
(0.642227 0.210041 6.50006e-22)
(0.703903 0.176845 8.3321e-22)
(0.757548 0.149697 -6.74699e-23)
(0.800503 0.127843 -3.75438e-22)
(0.838194 0.109354 0)
(0.868331 0.0936208 5.54248e-23)
(0.133216 0.269104 7.98939e-23)
(0.306924 0.323422 0)
(0.450148 0.26965 -2.84566e-23)
(0.545114 0.221851 0)
(0.629586 0.184115 -9.28413e-22)
(0.693517 0.154916 7.02414e-22)
(0.748987 0.131057 0)
(0.793344 0.111865 8.96537e-24)
(0.83207 0.0956422 0)
(0.863128 0.0818025 0)
(0.115657 0.231271 1.65355e-22)
(0.285909 0.2771 -1.12854e-21)
(0.433135 0.230674 9.01342e-22)
(0.531464 0.189663 -1.55485e-22)
(0.618597 0.157314 4.02257e-22)
(0.684496 0.132292 1.09116e-22)
(0.741557 0.11186 0)
(0.787128 0.0954356 -3.06991e-22)
(0.826746 0.0815617 -8.20542e-23)
(0.858634 0.0696943 -2.40621e-22)
(0.100729 0.191679 7.04842e-22)
(0.268126 0.22908 -1.67303e-21)
(0.418777 0.190458 1.54721e-22)
(0.519948 0.156514 -6.48099e-22)
(0.609332 0.12976 -7.24059e-23)
(0.676892 0.109069 -7.17904e-22)
(0.735298 0.0921849 0)
(0.78189 0.0786191 4.18832e-22)
(0.822256 0.0671654 -7.58679e-23)
(0.854865 0.0573426 5.48253e-22)
(0.0885918 0.150624 -7.04842e-22)
(0.253722 0.179653 6.1311e-22)
(0.40717 0.149214 -1.06699e-22)
(0.510642 0.12257 7.60831e-22)
(0.601848 0.101581 4.204e-22)
(0.670754 0.0853522 4.39672e-23)
(0.730246 0.0721145 -3.67103e-23)
(0.77766 0.061483 -4.6923e-22)
(0.818628 0.0525094 3.86267e-24)
(0.851835 0.0447943 -1.82192e-22)
(0.079374 0.10842 3.67996e-22)
(0.242814 0.129121 0)
(0.398395 0.107163 4.3763e-22)
(0.503608 0.0880011 0)
(0.596192 0.0729115 5.90746e-23)
(0.666116 0.0612462 -4.91887e-23)
(0.726431 0.0517339 0)
(0.774465 0.0440965 0)
(0.815885 0.0376511 0)
(0.849554 0.0320971 0)
(0.0731739 0.0653857 -3.22359e-22)
(0.235493 0.0777929 -1.2447e-22)
(0.392512 0.0645313 -4.3763e-22)
(0.498893 0.0529819 0)
(0.592402 0.0438891 0)
(0.663009 0.0368604 2.23997e-23)
(0.723875 0.0311301 -8.96627e-23)
(0.772323 0.0265303 -1.07383e-22)
(0.814045 0.0226485 -1.01162e-22)
(0.848029 0.0192975 1.63845e-23)
(0.0700573 0.0218513 -5.83203e-24)
(0.231817 0.0259849 1.34228e-22)
(0.38956 0.0215498 -6.07102e-24)
(0.496527 0.0176912 2.08892e-23)
(0.5905 0.0146538 -8.25515e-24)
(0.661451 0.0123059 0)
(0.722594 0.010392 7.09602e-23)
(0.771249 0.00885572 1.07383e-22)
(0.813121 0.00755931 7.67633e-23)
(0.847265 0.00643908 1.15911e-23)
(0.0700573 -0.0218503 -5.83203e-24)
(0.231817 -0.0259836 1.34228e-22)
(0.38956 -0.0215486 -6.07102e-24)
(0.496527 -0.0176901 2.08892e-23)
(0.5905 -0.0146528 -8.25515e-24)
(0.66145 -0.012305 0)
(0.722594 -0.0103911 6.24776e-23)
(0.771249 -0.00885497 1.14483e-22)
(0.813121 -0.00755863 8.16552e-23)
(0.847265 -0.00643846 0)
(0.0731739 -0.0653847 -4.13634e-22)
(0.235492 -0.0777916 -1.61367e-22)
(0.392511 -0.0645301 -4.63961e-22)
(0.498893 -0.0529808 2.17798e-23)
(0.592402 -0.0438881 0)
(0.663009 -0.0368595 -2.23997e-23)
(0.723875 -0.0311293 -5.22576e-23)
(0.772323 -0.0265295 -1.07383e-22)
(0.814045 -0.0226478 -6.21482e-23)
(0.848029 -0.0192969 -1.63845e-23)
(0.0793739 -0.108419 3.67996e-22)
(0.242814 -0.12912 0)
(0.398395 -0.107162 4.3763e-22)
(0.503608 -0.088 0)
(0.596192 -0.0729106 5.90746e-23)
(0.666116 -0.0612453 -4.91887e-23)
(0.726431 -0.0517331 0)
(0.774465 -0.0440958 0)
(0.815884 -0.0376504 0)
(0.849554 -0.0320964 0)
(0.0885917 -0.150624 -7.04843e-22)
(0.253722 -0.179652 4.7877e-22)
(0.40717 -0.149212 1.06699e-22)
(0.510642 -0.122569 5.20969e-22)
(0.601847 -0.10158 5.48978e-22)
(0.670753 -0.0853513 -4.39672e-23)
(0.730246 -0.0721137 3.67103e-23)
(0.77766 -0.0614823 -3.68435e-22)
(0.818628 -0.0525087 -3.86267e-24)
(0.851835 -0.0447936 -3.05624e-22)
(0.100729 -0.191678 7.04842e-22)
(0.268126 -0.229079 5.81149e-22)
(0.418776 -0.190456 -1.54721e-22)
(0.519948 -0.156513 -6.33699e-22)
(0.609332 -0.129759 5.38621e-23)
(0.676892 -0.109068 -7.17904e-22)
(0.735298 -0.0921841 0)
(0.78189 -0.0786184 4.18832e-22)
(0.822256 -0.0671647 7.58679e-23)
(0.854865 -0.0573419 4.20805e-22)
(0.115657 -0.23127 -1.65355e-22)
(0.285909 -0.277099 1.12854e-21)
(0.433135 -0.230673 7.05137e-22)
(0.531464 -0.189662 1.55485e-22)
(0.618597 -0.157313 5.03742e-22)
(0.684495 -0.132291 -1.63124e-22)
(0.741557 -0.111859 7.09542e-23)
(0.787128 -0.0954349 -5.02632e-22)
(0.826746 -0.0815611 8.20543e-23)
(0.858634 -0.0696937 -2.40621e-22)
(0.133215 -0.269103 -7.9894e-23)
(0.306923 -0.323421 0)
(0.450148 -0.269648 -2.84565e-23)
(0.545114 -0.22185 0)
(0.629585 -0.184114 -9.28414e-22)
(0.693517 -0.154915 7.02414e-22)
(0.748987 -0.131056 0)
(0.793344 -0.111864 8.96535e-24)
(0.832069 -0.0956415 0)
(0.863127 -0.0818019 0)
(0.153218 -0.304894 1.17137e-21)
(0.330997 -0.367765 1.17707e-22)
(0.469697 -0.307179 -6.77799e-22)
(0.560808 -0.252922 -1.39901e-22)
(0.642227 -0.21004 1.09513e-21)
(0.703903 -0.176845 4.9435e-22)
(0.757548 -0.149696 6.747e-23)
(0.800503 -0.127842 -4.69056e-22)
(0.838194 -0.109353 7.85279e-23)
(0.868331 -0.0936202 -5.54248e-23)
(0.175454 -0.338385 -1.31142e-21)
(0.357929 -0.409861 8.83012e-22)
(0.491648 -0.343072 8.32604e-23)
(0.578443 -0.282728 -1.45124e-22)
(0.656441 -0.234973 -8.72567e-22)
(0.715591 -0.197985 -7.42072e-22)
(0.767191 -0.167705 6.53711e-23)
(0.808565 -0.143307 -6.83171e-23)
(0.845082 -0.122646 1.46199e-22)
(0.874223 -0.105102 -5.86246e-23)
(0.199699 -0.369347 -1.00367e-21)
(0.387491 -0.449447 -8.7993e-22)
(0.515848 -0.377146 1.16813e-21)
(0.597902 -0.311131 1.38029e-22)
(0.672141 -0.258807 0)
(0.728513 -0.218251 0)
(0.777863 -0.185011 0)
(0.817487 -0.158203 1.47202e-21)
(0.852696 -0.135475 5.5455e-22)
(0.880782 -0.116205 -4.27667e-22)
(0.225714 -0.397577 1.91363e-21)
(0.419432 -0.486268 0)
(0.542122 -0.409239 -2.58558e-21)
(0.619058 -0.338003 -9.81765e-22)
(0.689227 -0.281441 0)
(0.742592 -0.237561 0)
(0.789507 -0.20155 9.06028e-22)
(0.827221 -0.172478 -7.23507e-22)
(0.860991 -0.147796 -5.54548e-22)
(0.88798 -0.126885 4.27667e-22)
(0.253229 -0.422854 -1.01899e-21)
(0.453481 -0.520113 8.95052e-23)
(0.570278 -0.439205 1.25058e-21)
(0.641775 -0.363229 1.09748e-21)
(0.707595 -0.302787 -9.60593e-23)
(0.757746 -0.255842 -1.11885e-21)
(0.802058 -0.217262 -4.09544e-23)
(0.837717 -0.186083 -5.854e-22)
(0.869921 -0.159571 -5.82474e-22)
(0.895786 -0.137107 3.97388e-22)
(0.28193 -0.444958 -2.41591e-24)
(0.489365 -0.550824 -1.32969e-21)
(0.600116 -0.466919 -1.37242e-22)
(0.665908 -0.38671 -7.48147e-22)
(0.727132 -0.322763 -5.98502e-22)
(0.773889 -0.273028 -2.11073e-22)
(0.815452 -0.232095 -8.56953e-22)
(0.848924 -0.198975 7.52435e-22)
(0.879438 -0.170768 3.92692e-22)
(0.904167 -0.146836 -2.95708e-22)
(0.311476 -0.463706 0)
(0.526783 -0.578262 1.09289e-21)
(0.631431 -0.492268 1.2372e-22)
(0.691304 -0.408358 6.72092e-23)
(0.74772 -0.341301 6.7807e-22)
(0.790928 -0.289063 9.32992e-22)
(0.829617 -0.246 -7.68634e-22)
(0.860786 -0.211114 8.07635e-23)
(0.88949 -0.181353 0)
(0.913082 -0.15604 0)
(0.34151 -0.478963 -6.80376e-23)
(0.565417 -0.602305 9.46516e-22)
(0.664009 -0.515152 0)
(0.717805 -0.428103 1.62802e-22)
(0.769237 -0.358342 -7.72442e-23)
(0.808767 -0.303898 0)
(0.844479 -0.258939 7.75804e-22)
(0.873248 -0.222466 5.69868e-22)
(0.900023 -0.191307 -1.09835e-22)
(0.922485 -0.164701 9.22583e-23)
(0.371657 -0.49063 5.98099e-23)