/*--------------------------------*- C++ -*----------------------------------*\
  =========                 |
  \\      /  F ield         | OpenFOAM: The Open Source CFD Toolbox
   \\    /   O peration     | Website:  https://openfoam.org
    \\  /    A nd           | Version:  9
     \\/     M anipulation  |
\*---------------------------------------------------------------------------*/
FoamFile
{
    format      ascii;
    class       volVectorField;
    location    "6.1";
    object      U;
}
// * * * * * * * * * * * * * * * * * * * * * * * * * * * * * * * * * * * * * //

dimensions      [0 1 -1 0 0 0 0];

internalField   nonuniform List<vector> 
8500
(
(-0.020607 0.00762703 0)
(-0.0834678 0.0120501 -7.68577e-23)
(-0.167869 0.0133558 -4.26691e-24)
(-0.245491 0.0136309 8.49343e-37)
(-0.32382 0.0136538 -1.34741e-23)
(-0.39626 0.0131458 1.12193e-23)
(-0.466995 0.0125798 -8.27823e-23)
(-0.520818 0.00971201 -1.35937e-22)
(-0.573094 0.00837227 -1.28436e-22)
(-0.589686 0.00113118 -6.71315e-24)
(-0.0209056 0.0225933 2.18523e-22)
(-0.0824684 0.0358282 7.19485e-23)
(-0.164668 0.039776 2.95369e-22)
(-0.239686 0.0405987 0)
(-0.314762 0.0406539 0)
(-0.382777 0.0390846 2.39725e-23)
(-0.448792 0.0374004 6.2766e-23)
(-0.495145 0.0287655 1.45231e-22)
(-0.541369 0.0248002 9.6471e-23)
(-0.547055 0.00307303 2.70294e-23)
(-0.021478 0.0367125 -1.94135e-22)
(-0.0805233 0.0586509 0)
(-0.158421 0.0653274 -2.77681e-22)
(-0.22834 0.0666916 0)
(-0.297101 0.0667389 -5.42414e-23)
(-0.356502 0.0639885 4.51645e-23)
(-0.413556 0.0612106 0)
(-0.445597 0.0468208 0)
(-0.481004 0.0403915 0)
(-0.466966 0.00428081 0)
(-0.0222768 0.0494736 3.94699e-22)
(-0.0777374 0.0799148 -2.91101e-22)
(-0.149422 0.0894489 -7.0275e-23)
(-0.211961 0.0913483 -4.525e-22)
(-0.271703 0.0913161 -4.76894e-22)
(-0.318752 0.0872414 4.85207e-23)
(-0.3634 0.0833361 -4.05123e-23)
(-0.375302 0.0634971 5.13777e-22)
(-0.396969 0.0548693 -2.19602e-24)
(-0.357299 0.00488746 5.56378e-22)
(-0.0232382 0.0604424 -3.94698e-22)
(-0.0742609 0.0990666 -3.80282e-22)
(-0.138096 0.111605 1.06694e-22)
(-0.191271 0.114039 6.06908e-22)
(-0.239767 0.113809 -5.44496e-23)
(-0.271373 0.108315 7.54346e-22)
(-0.301113 0.103056 0)
(-0.28825 0.0786013 -5.8987e-22)
(-0.294901 0.0681108 -1.34042e-22)
(-0.225882 0.00586209 -7.84825e-22)
(-0.0242885 0.0692859 1.00852e-22)
(-0.0702819 0.115621 6.29472e-22)
(-0.124968 0.131296 -4.97412e-22)
(-0.167169 0.134277 -2.94302e-24)
(-0.202734 0.133665 -4.90744e-22)
(-0.216637 0.126777 1.92301e-22)
(-0.229948 0.119568 -8.20565e-23)
(-0.189167 0.0919809 7.48202e-22)
(-0.180877 0.0796001 -1.2996e-22)
(-0.0792847 0.00893192 4.51681e-22)
(-0.0253527 0.0757904 5.07636e-23)
(-0.0660159 0.129179 0)
(-0.110641 0.148067 -3.87197e-24)
(-0.140687 0.151624 0)
(-0.162175 0.150367 8.60643e-22)
(-0.157117 0.142312 -7.56568e-22)
(-0.153373 0.131976 0)
(-0.0834875 0.103557 -1.07206e-24)
(-0.0618031 0.0875684 0)
(0.0754988 0.0150168 0)
(-0.0263632 0.0798719 -8.26777e-22)
(-0.0616934 0.139442 -8.63819e-23)
(-0.0957545 0.16152 6.44814e-22)
(-0.112938 0.165694 1.26666e-22)
(-0.119678 0.163431 -8.70928e-22)
(-0.0955315 0.154751 -5.65139e-22)
(-0.0746932 0.139342 -8.23815e-23)
(0.0233107 0.113124 7.41354e-22)
(0.0544606 0.0905023 -1.30313e-22)
(0.231899 0.0218926 1.14818e-22)
(-0.0272681 0.0815783 9.31205e-22)
(-0.0575457 0.146228 -6.90338e-22)
(-0.0809543 0.171324 -2.1856e-22)
(-0.085075 0.176153 1.21546e-22)
(-0.0767316 0.172387 8.65307e-22)
(-0.0344945 0.163919 8.54342e-22)
(0.00289958 0.141593 -8.21032e-23)
(0.127268 0.11989 1.44102e-22)
(0.1615 0.0878339 -2.65321e-22)
(0.382873 0.0261362 1.141e-22)
(-0.0280387 0.0810832 8.44504e-22)
(-0.0537909 0.149482 6.91542e-22)
(-0.0668438 0.177225 -1.01572e-21)
(-0.0582137 0.182669 -1.21804e-22)
(-0.0348352 0.177106 0)
(0.02412 0.169315 0)
(0.0765807 0.139243 0)
(0.224415 0.123258 -2.32129e-21)
(0.259056 0.0794102 -1.07455e-21)
(0.526077 0.025742 8.83883e-22)
(-0.0286746 0.0786696 -1.69665e-21)
(-0.0506187 0.149288 0)
(-0.0539653 0.179085 2.32785e-21)
(-0.0332437 0.184939 9.86128e-22)
(0.00454113 0.177563 1.04725e-22)
(0.0787183 0.17045 0)
(0.145625 0.132663 -1.33534e-21)
(0.311553 0.122874 1.1535e-21)
(0.353014 0.0665927 1.07453e-21)
(0.664173 0.0208253 -8.83848e-22)
(-0.0292074 0.0747058 9.58981e-22)
(-0.0481682 0.145864 -8.76962e-23)
(-0.0427534 0.176905 -1.16488e-21)
(-0.0108515 0.182799 -1.11154e-21)
(0.0404728 0.17355 0)
(0.128119 0.167056 1.46379e-21)
(0.21113 0.122841 2.17397e-23)
(0.389046 0.117521 9.70875e-22)
(0.453493 0.0520702 1.15564e-21)
(0.800147 0.013692 -8.46879e-22)
(-0.0296995 0.0696142 -3.09468e-25)
(-0.0465155 0.139566 1.49654e-21)
(-0.0334519 0.170832 -1.45209e-22)
(0.00857677 0.176286 8.51425e-22)
(0.072685 0.165059 5.19456e-22)
(0.172409 0.158713 3.46725e-22)
(0.27548 0.11134 1.32075e-21)
(0.462904 0.106552 -1.25617e-21)
(0.570091 0.0394181 -7.79618e-22)
(0.932221 0.00755117 6.35154e-22)
(-0.0302377 0.063836 0)
(-0.0456585 0.130865 -1.23205e-21)
(-0.0260505 0.161193 -1.45352e-22)
(0.0251614 0.165633 -6.53871e-24)
(0.10181 0.152462 8.36919e-22)
(0.213844 0.14533 -1.25924e-21)
(0.342812 0.0993608 1.27227e-21)
(0.543604 0.0918696 -1.34925e-22)
(0.704652 0.0315553 0)
(1.05381 0.004629 0)
(-0.0309215 0.0577956 1.08994e-22)
(-0.0454988 0.120318 -1.41574e-21)
(-0.0202226 0.148499 0)
(0.0397234 0.151317 -1.28862e-22)
(0.129766 0.136533 1.01415e-22)
(0.257202 0.12785 0)
(0.419078 0.0878646 -1.26545e-21)
(0.64065 0.0776257 -1.0604e-21)
(0.847973 0.0294682 2.37018e-22)
(1.15738 0.00528588 -1.99181e-22)
(-0.0318449 0.051867 -1.08765e-22)
(-0.0458214 0.108526 1.50502e-21)
(-0.0152635 0.133426 0)
(0.0539391 0.134094 -1.0837e-21)
(0.16004 0.118458 1.00488e-22)
(0.309456 0.108514 -1.38404e-21)
(0.510138 0.0785038 -1.55152e-22)
(0.755128 0.0678361 1.19024e-21)
(0.984749 0.0323797 0)
(1.23818 0.00850488 1.48472e-21)
(-0.0330749 0.0463461 -1.65502e-21)
(-0.0462769 0.0960856 -8.95903e-23)
(-0.0100537 0.116777 -1.44416e-22)
(0.0703946 0.114995 1.19452e-22)
(0.197545 0.0998041 -1.60079e-21)
(0.37785 0.0906161 1.38402e-21)
(0.618001 0.0733059 1.1942e-21)
(0.877781 0.0639641 1.01706e-21)
(1.10206 0.0387742 1.75409e-21)
(1.29568 0.0129271 -1.30468e-21)
(-0.0346291 0.0414317 1.76417e-21)
(-0.046371 0.0835443 0)
(-0.00307066 0.0994152 1.30107e-21)
(0.0924567 0.0952776 -1.19136e-22)
(0.247825 0.0825352 3.18883e-21)
(0.466614 0.0776582 0)
(0.73768 0.0733901 -1.19418e-21)
(0.995053 0.0649989 -2.31114e-23)
(1.19378 0.0472967 -1.9652e-21)
(1.33253 0.0173508 1.77437e-22)
(-0.0364578 0.0372164 0)
(-0.0454704 0.07135 1.43263e-21)
(0.00753241 0.0821868 -1.15704e-21)
(0.123928 0.0763786 0)
(0.315477 0.0689136 -1.58804e-21)
(0.574026 0.0718529 0)
(0.858787 0.0780467 1.14808e-21)
(1.0966 0.0692816 -9.93924e-22)
(1.25984 0.0570095 -1.61449e-21)
(1.35306 0.0210988 -1.29611e-21)
(-0.0384356 0.0336882 -2.2123e-22)
(-0.0428322 0.0598182 -1.25104e-21)
(0.0237903 0.0658427 0)
(0.168466 0.059903 0)
(0.402155 0.0610086 0)
(0.69222 0.0731622 -1.68139e-22)
(0.970867 0.0854414 -1.14597e-21)
(1.17801 0.0757135 -1.19248e-22)
(1.30377 0.0669763 1.61449e-21)
(1.36166 0.0226577 1.45478e-21)
(-0.0403667 0.0307466 0)
(-0.0376501 0.049108 -1.44885e-21)
(0.0477651 0.0510049 0)
(0.228776 0.0475798 0)
(0.505086 0.0598346 0)
(0.810635 0.0797593 1.65777e-22)
(1.06739 0.0940076 -1.38045e-21)
(1.23941 0.083625 1.12724e-22)
(1.33077 0.0753783 1.10529e-21)
(1.36344 0.022418 1.19634e-21)
(-0.0420068 0.0282303 0)
(-0.0290959 0.0392151 1.44884e-21)
(0.0813932 0.0382311 -1.17421e-21)
(0.305643 0.0409771 0)
(0.61747 0.0648117 -1.56289e-21)
(0.920421 0.0894389 0)
(1.1461 0.102965 1.10292e-21)
(1.28321 0.0920499 -8.89439e-22)
(1.34601 0.0809524 -1.4822e-21)
(1.36704 0.0389614 -1.18472e-21)
(-0.0430912 0.0259436 1.84819e-21)
(-0.0163452 0.0299969 0)
(0.126295 0.0281884 1.02873e-21)
(0.397163 0.040899 1.20326e-22)
(0.730972 0.0742447 3.12442e-21)
(1.0165 0.100592 0)
(1.20761 0.111958 -1.05824e-21)
(1.3128 0.0999822 -1.7519e-21)
(1.35416 0.0883252 -1.20084e-21)
(1.36333 0.0470187 -1.09002e-23)
(-0.0433515 0.0236757 -1.9628e-21)
(0.00143149 0.0212496 9.40773e-23)
(0.183468 0.0217879 1.46379e-22)
(0.498821 0.0469078 -1.21072e-22)
(0.838555 0.0863596 -1.56153e-21)
(1.09713 0.1123 1.27602e-21)
(1.25392 0.120707 1.05824e-21)
(1.33173 0.10793 8.62462e-22)
(1.35614 0.0942765 1.37088e-21)
(1.3571 0.0571931 -1.17039e-21)
(-0.0425205 0.02122 1.16124e-22)
(0.0251209 0.0128296 1.41309e-21)
(0.252871 0.0200262 0)
(0.604686 0.0575791 -8.43627e-22)
(0.935802 0.0999073 -9.85623e-23)
(1.16265 0.124068 -1.27602e-21)
(1.28758 0.129239 1.25646e-22)
(1.34251 0.115412 7.05318e-22)
(1.35436 0.100742 0)
(1.34967 0.0657952 1.04347e-21)
(-0.0403318 0.0183897 -1.1983e-22)
(0.0556297 0.00486548 -1.5084e-21)
(0.333099 0.0235214 0)
(0.709062 0.0713174 1.12365e-22)
(1.02071 0.11416 -9.88648e-23)
(1.21447 0.135665 0)
(1.31099 0.137498 -9.90897e-22)
(1.34744 0.122762 -8.1049e-22)
(1.34999 0.106824 -1.51362e-22)
(1.34105 0.0742596 -1.27317e-22)
(-0.0364865 0.0150443 0)
(0.0937807 -0.00206489 -1.73863e-21)
(0.421424 0.0321021 1.55704e-22)
(0.807627 0.0869424 -6.60719e-24)
(1.0929 0.128714 -7.7584e-22)
(1.25437 0.146979 -1.37965e-21)
(1.32634 0.145553 1.11689e-21)
(1.34815 0.129887 0)
(1.34393 0.113024 0)
(1.33234 0.0823669 0)
(-0.030615 0.0111043 2.67004e-24)
(0.140133 -0.00692416 1.45812e-21)
(0.514308 0.0448993 1.5775e-22)
(0.897726 0.103739 1.09535e-21)
(1.15293 0.143336 6.76518e-22)
(1.28423 0.157982 -1.30037e-22)
(1.33548 0.153438 9.53164e-22)
(1.3459 0.136944 -6.40855e-22)
(1.33689 0.119174 -7.11449e-22)
(1.32338 0.0902274 5.62801e-22)
(-0.0222557 0.00658392 9.05662e-22)
(0.194701 -0.00842505 1.01836e-22)
(0.608108 0.060821 -1.26229e-21)
(0.978085 0.121291 -9.86272e-22)
(1.20184 0.157882 0)
(1.30579 0.168687 1.21066e-21)
(1.33988 0.161228 -2.30111e-23)
(1.34161 0.14395 8.2532e-22)
(1.3292 0.125386 4.97786e-22)
(1.31451 0.0979297 -4.44716e-22)
(-0.010873 0.00163183 -2.08388e-21)
(0.256783 -0.00546315 0)
(0.699645 0.0789706 2.544e-21)
(1.04838 0.139365 8.66622e-22)
(1.24083 0.172276 9.93129e-23)
(1.32058 0.179137 0)
(1.34074 0.16898 -9.22475e-22)
(1.3359 0.150972 6.91865e-22)
(1.32116 0.131639 5.30623e-22)
(1.30567 0.105468 -4.10089e-22)
(0.00411056 -0.00344 1.05415e-21)
(0.325006 0.00249383 8.20708e-22)
(0.786466 0.0987652 -1.43765e-21)
(1.10883 0.157838 1.28987e-22)
(1.27119 0.186481 0)
(1.32993 0.189384 0)
(1.33894 0.176748 0)
(1.32922 0.158028 -1.36092e-21)
(1.31289 0.137951 -5.30628e-22)
(1.29692 0.112888 4.10071e-22)
(0.0231552 -0.00809825 9.73428e-22)
(0.39755 0.0153216 -8.14232e-22)
(0.866871 0.119845 8.36236e-23)
(1.15999 0.176624 0)
(1.29412 0.200486 7.46815e-22)
(1.33492 0.199486 4.94804e-22)
(1.33515 0.184573 5.68196e-23)
(1.32184 0.165138 -5.57653e-23)
(1.30447 0.144312 1.26027e-22)
(1.28821 0.12018 -5.05039e-23)
(0.0464932 -0.0116353 -1.10498e-21)
(0.472424 0.0324272 1.02974e-22)
(0.939827 0.141958 6.60735e-22)
(1.20253 0.195637 -1.83666e-22)
(1.31073 0.214296 -5.60259e-22)
(1.33644 0.209494 -7.02891e-22)
(1.32986 0.192479 5.54295e-23)
(1.31396 0.172302 3.3463e-22)
(1.29593 0.150715 0)
(1.27951 0.127352 -4.35935e-23)
(0.074141 -0.0132857 -7.13768e-23)
(0.547705 0.0530789 0)
(1.00484 0.164911 5.12973e-24)
(1.23719 0.214779 0)
(1.32201 0.227929 7.25584e-22)
(1.33519 0.21945 -5.37102e-22)
(1.32342 0.200474 0)
(1.30567 0.179513 1.17045e-23)
(1.28727 0.157143 0)
(1.27078 0.134391 0)
(0.105864 -0.0123526 -1.42506e-22)
(0.621667 0.0766282 9.3442e-22)
(1.06184 0.188547 -7.51086e-22)
(1.26471 0.233946 1.23814e-22)
(1.32879 0.241402 -3.32367e-22)
(1.33172 0.229388 -5.6603e-23)
(1.31606 0.208556 0)
(1.29703 0.186755 2.29996e-22)
(1.27846 0.163576 5.86049e-23)
(1.26198 0.141286 1.62979e-22)
(0.141205 -0.00833653 -5.97254e-22)
(0.692821 0.102571 -3.77912e-22)
(1.11099 0.212739 -1.2333e-22)
(1.28582 0.253037 4.93263e-22)
(1.33179 0.254733 4.02427e-23)
(1.32645 0.239325 5.22889e-22)
(1.30793 0.216707 0)
(1.28806 0.194005 -2.75686e-22)
(1.2695 0.169989 5.0091e-23)
(1.25307 0.148018 -3.59484e-22)
(0.179535 -0.00100613 -5.97253e-22)
(0.759924 0.130511 3.92092e-22)
(1.15268 0.237368 -4.88363e-24)
(1.3012 0.27196 -5.73897e-22)
(1.33159 0.267931 -3.02255e-22)
(1.31969 0.249268 -2.94081e-23)
(1.29915 0.224903 2.45546e-23)
(1.27877 0.201234 3.07572e-22)
(1.26035 0.176355 -2.98388e-24)
(1.24402 0.154566 1.16733e-22)
(0.220111 0.00961585 -3.06279e-22)
(0.821973 0.160097 0)
(1.18738 0.26231 -3.34336e-22)
(1.31148 0.290644 0)
(1.32867 0.280996 -3.80186e-22)
(1.31167 0.259207 3.27457e-23)
(1.28976 0.233112 0)
(1.26915 0.208408 0)
(1.25099 0.182645 0)
(1.2348 0.160907 0)
(0.262125 0.023332 2.68606e-22)
(0.878242 0.19098 1.30584e-22)
(1.21556 0.287428 3.34338e-22)
(1.31725 0.309037 0)
(1.3234 0.293921 0)
(1.30255 0.26912 -1.35904e-23)
(1.27981 0.241292 5.21846e-23)
(1.25917 0.215491 5.91765e-23)
(1.2414 0.188828 5.39629e-23)
(1.22541 0.167012 -8.87375e-24)
(0.304746 0.0398636 -4.84522e-24)
(0.928333 0.222813 -1.22223e-22)
(1.23762 0.31258 5.57684e-24)
(1.31901 0.327102 6.57169e-24)
(1.31609 0.306686 -1.00398e-23)
(1.29244 0.278972 3.81761e-24)
(1.26929 0.249398 -4.54906e-23)
(1.24883 0.222444 -5.52826e-23)
(1.23153 0.194862 -4.0938e-23)
(1.21586 0.17285 1.54856e-24)
(0.347155 0.0589077 0)
(0.972122 0.255298 -1.22588e-22)
(1.25395 0.337635 -3.75639e-24)
(1.3172 0.344791 7.69316e-24)
(1.30698 0.319258 1.37893e-37)
(1.28141 0.288717 -9.6752e-38)
(1.25823 0.25738 -4.09214e-23)
(1.2381 0.229226 -4.84297e-23)
(1.22139 0.200703 -3.77117e-23)
(1.20614 0.178386 0)
(0.388566 0.0801782 3.49814e-22)
(1.00959 0.288168 1.00581e-22)
(1.26496 0.36245 3.31414e-22)
(1.31217 0.362051 -1.50006e-23)
(1.29624 0.331594 0)
(1.26951 0.298301 1.16659e-23)
(1.2466 0.265185 2.67948e-23)
(1.22697 0.235795 5.21016e-23)
(1.21094 0.2063 2.9254e-23)
(1.19623 0.183604 7.10849e-24)
(0.428249 0.103416 -3.11702e-22)
(1.04081 0.321173 0)
(1.27103 0.386881 -3.13282e-22)
(1.30426 0.378823 0)
(1.28404 0.343637 -3.18394e-23)
(1.25678 0.30766 2.65114e-23)
(1.23442 0.272757 0)
(1.21542 0.242106 0)
(1.20022 0.211618 0)
(1.18604 0.188491 0)
(0.465541 0.128377 6.16594e-22)
(1.06592 0.35408 -3.96749e-22)
(1.27251 0.410788 -7.62421e-23)
(1.29374 0.395047 -3.13598e-22)
(1.27048 0.355321 -2.92256e-22)
(1.24324 0.316729 2.03929e-23)
(1.22166 0.28004 -1.70272e-23)
(1.20344 0.2481 1.42173e-22)
(1.18926 0.216641 2.60511e-24)
(1.17552 0.193043 1.01467e-22)
(0.499863 0.154812 -6.16595e-22)
(1.08509 0.386665 -4.777e-22)
(1.26972 0.434026 1.06223e-22)
(1.28086 0.410653 3.75156e-22)
(1.25565 0.366575 -1.84974e-23)
(1.2289 0.325436 3.16461e-22)
(1.20832 0.286975 0)
(1.19103 0.253709 -1.61886e-22)
(1.17807 0.221355 -2.47609e-23)
(1.16469 0.197276 -1.28448e-22)
(0.530729 0.182454 1.46653e-22)
(1.09853 0.418705 8.17532e-22)
(1.26297 0.456449 -4.77492e-22)
(1.26581 0.425566 -9.09815e-23)
(1.23961 0.37732 -2.21265e-22)
(1.21379 0.333707 4.93439e-23)
(1.19443 0.293501 -2.86243e-23)
(1.17823 0.258877 1.59677e-22)
(1.16657 0.225712 -2.63912e-23)
(1.15367 0.201112 6.94365e-23)
(0.557747 0.211005 7.41854e-23)
(1.10644 0.449978 0)
(1.25253 0.477912 2.92461e-23)
(1.24877 0.439702 0)
(1.22241 0.387467 4.40835e-22)
(1.19793 0.341462 -2.88421e-22)
(1.18001 0.299556 0)
(1.16509 0.263583 -1.75252e-23)
(1.15469 0.229657 0)
(1.14247 0.204539 0)
(0.580618 0.240144 -1.13889e-21)
(1.10906 0.480253 -8.84338e-23)
(1.23868 0.498267 5.83001e-22)
(1.22988 0.452974 6.78256e-23)
(1.20413 0.396923 -4.61461e-22)
(1.18141 0.348623 -1.65829e-22)
(1.16506 0.305071 -2.27035e-23)
(1.15159 0.267797 9.77209e-23)
(1.14247 0.233154 -1.93104e-23)
(1.13109 0.207502 1.00882e-23)
(0.599135 0.269521 1.26779e-21)
(1.10661 0.509298 -7.64241e-22)
(1.22164 0.517358 -1.69683e-22)
(1.20929 0.465284 8.3481e-23)
(1.18488 0.4056 3.62576e-22)
(1.16421 0.355106 2.51915e-22)
(1.14959 0.309993 -1.95636e-23)
(1.13773 0.271475 -1.82929e-23)
(1.12993 0.236169 -2.72278e-23)
(1.11955 0.209976 9.74619e-24)
(0.613178 0.298777 1.05081e-21)
(1.09934 0.536879 7.419e-22)
(1.2016 0.535014 -7.16376e-22)
(1.18718 0.476525 -7.61157e-23)
(1.16475 0.413421 0)
(1.14633 0.360832 0)
(1.13364 0.314257 0)
(1.12353 0.274576 -2.59136e-22)
(1.11711 0.23867 -6.4528e-23)
(1.10786 0.211926 3.02253e-23)
(0.622707 0.327541 -2.04631e-21)
(1.08754 0.562777 0)
(1.1788 0.551053 1.53439e-21)
(1.16373 0.486583 4.13701e-22)
(1.14375 0.420299 0)
(1.12778 0.365733 0)
(1.11723 0.317801 -1.38943e-22)
(1.10901 0.277059 1.10665e-22)
(1.10404 0.240624 6.45285e-23)
(1.09603 0.213328 -3.02242e-23)
(0.627756 0.35544 1.10367e-21)
(1.07148 0.586781 -8.87923e-23)
(1.15351 0.565334 -7.25994e-22)
(1.13898 0.495305 -4.53652e-22)
(1.12192 0.426155 3.31596e-23)
(1.10864 0.369736 1.86791e-22)
(1.10041 0.320568 5.28302e-23)
(1.09419 0.278884 2.78168e-23)
(1.09074 0.242 8.96467e-24)
(1.08411 0.214156 1.50762e-23)
(0.628431 0.3821 -1.28177e-23)
(1.05148 0.608657 1.08987e-21)
(1.126 0.577747 -9.58681e-23)
(1.113 0.502544 2.49446e-22)
(1.09933 0.430888 1.28389e-22)
(1.08896 0.372773 -3.24902e-23)
(1.08323 0.322503 7.91267e-23)
(1.07912 0.280014 -3.67276e-23)
(1.07725 0.242767 -1.95598e-25)
(1.07213 0.21439 -1.08139e-23)
(0.624899 0.407171 0)
(1.02771 0.628115 -9.5397e-22)
(1.09655 0.588195 -8.34519e-23)
(1.08593 0.508203 -7.02546e-23)
(1.07605 0.434399 -1.33317e-22)
(1.0688 0.37478 -1.08417e-22)
(1.06574 0.323556 -2.87367e-23)
(1.06383 0.280413 0)
(1.06359 0.242891 0)
(1.06011 0.214001 0)
(0.617375 0.430372 9.29907e-23)
(1.00036 0.644837 -7.85215e-22)
(1.06545 0.59656 0)
(1.0579 0.512212 -8.81798e-23)
(1.05219 0.436597 1.29675e-23)
(1.04824 0.375697 0)
(1.048 0.323681 2.25996e-23)
(1.04837 0.280049 8.86719e-23)
(1.0498 0.242341 -1.95834e-23)
(1.04811 0.21295 1.64485e-23)
(0.606083 0.451472 -6.89873e-23)
(0.969778 0.658598 8.41847e-22)
(1.0329 0.602667 0)
(1.02906 0.51451 -1.45778e-22)
(1.02782 0.437401 5.81959e-24)
(1.02735 0.375466 1.13956e-22)
(1.03007 0.322838 1.46985e-23)
(1.03277 0.278894 -1.00975e-22)
(1.03591 0.241085 0)
(1.03616 0.211196 -2.11631e-22)
(0.591192 0.47018 -9.648e-22)
(0.936461 0.669312 -4.70902e-23)
(0.999117 0.60634 -1.47105e-23)
(0.999555 0.515024 1.21682e-23)
(1.00304 0.43674 1.5434e-22)
(1.00621 0.374035 -1.13956e-22)
(1.01201 0.320992 -1.90586e-22)
(1.01708 0.276915 -1.71332e-22)
(1.02195 0.239096 -2.98421e-22)
(1.02439 0.208736 1.85068e-22)
(0.572859 0.486097 1.02217e-21)
(0.900882 0.676879 0)
(0.964303 0.607475 3.24302e-23)
(0.969537 0.513682 -1.72932e-24)
(0.977976 0.434554 -4.18237e-22)
(0.984914 0.371358 0)
(0.993881 0.318114 1.90587e-22)
(1.00133 0.27408 -4.15708e-23)
(1.00804 0.23635 3.39556e-22)
(1.0131 0.205611 -3.45439e-23)
(0.551434 0.498916 0)
(0.86341 0.681151 1.70906e-22)
(0.928676 0.605999 -3.03398e-23)
(0.939158 0.510412 0)
(0.952726 0.430794 2.63898e-22)
(0.963549 0.367399 0)
(0.975747 0.314179 -3.03663e-22)
(0.98556 0.270349 2.12906e-22)
(0.994333 0.232808 4.19844e-22)
(1.00259 0.201891 3.33652e-22)
(0.527361 0.508447 -3.88457e-23)
(0.824391 0.681991 -1.39021e-22)
(0.89247 0.601854 0)
(0.908577 0.505155 0)
(0.927413 0.425421 0)
(0.942209 0.36213 4.90705e-23)
(0.957666 0.30917 2.21399e-22)
(0.969873 0.265701 3.45635e-23)
(0.981037 0.228417 -4.19846e-22)
(0.99278 0.197523 -3.74759e-22)
(0.501057 0.514523 0)
(0.784178 0.67929 1.55437e-22)
(0.855925 0.594999 0)
(0.877958 0.49786 0)
(0.902163 0.418406 0)
(0.920989 0.355528 -5.81909e-23)
(0.939715 0.303075 5.12111e-22)
(0.954394 0.260144 -1.17385e-22)
(0.968238 0.223202 -4.08735e-22)
(0.982979 0.191041 -4.13504e-22)
(0.472938 0.517019 0)
(0.743131 0.672971 -1.55438e-22)
(0.819285 0.585408 4.20962e-22)
(0.847469 0.488494 0)
(0.877103 0.409729 7.03673e-22)
(0.899986 0.347582 0)
(0.921985 0.295879 -4.15657e-22)
(0.939239 0.253689 3.75242e-22)
(0.955679 0.217614 5.34547e-22)
(0.971872 0.186461 4.12598e-22)
(0.443416 0.515849 -3.24488e-22)
(0.701616 0.662989 0)
(0.782797 0.573074 -3.57984e-22)
(0.817281 0.477038 -5.20954e-23)
(0.852362 0.399383 -1.51483e-21)
(0.8793 0.338284 0)
(0.904569 0.287571 5.24373e-22)
(0.924477 0.246262 3.84334e-23)
(0.943476 0.210933 5.70581e-22)
(0.961136 0.180438 2.00903e-24)
(0.412904 0.510965 3.59413e-22)
(0.659998 0.649331 -2.86677e-23)
(0.746704 0.558008 -7.5846e-23)
(0.787568 0.463487 -6.27382e-23)
(0.828071 0.387373 8.11152e-22)
(0.859035 0.32764 -7.31287e-22)
(0.887552 0.27817 -5.24377e-22)
(0.910112 0.237962 -4.1368e-22)
(0.93148 0.20364 -6.44711e-22)
(0.950394 0.174168 6.01264e-22)
(0.381807 0.502359 -4.84975e-23)
(0.618641 0.632012 -7.66754e-22)
(0.711246 0.540237 0)
(0.758502 0.447856 5.55937e-22)
(0.804361 0.373712 6.10556e-23)
(0.839296 0.315663 7.31291e-22)
(0.871026 0.267678 -7.28592e-23)
(0.896214 0.228742 -4.26096e-22)
(0.919833 0.195528 0)
(0.93995 0.167171 -5.36288e-22)
(0.350523 0.490062 5.68934e-23)
(0.577901 0.611078 8.06567e-22)
(0.676661 0.519811 0)
(0.730257 0.430173 -1.0093e-23)
(0.781364 0.358428 6.80422e-23)
(0.820186 0.302377 0)
(0.855067 0.256126 6.76517e-22)
(0.88282 0.218656 4.87081e-22)
(0.908559 0.186736 9.29575e-23)
(0.929867 0.15961 -7.80812e-23)
(0.319439 0.474141 0)
(0.538126 0.586606 1.24727e-21)
(0.643178 0.496796 -1.10277e-22)
(0.703001 0.410482 6.91965e-23)
(0.75921 0.341559 6.06775e-22)
(0.80181 0.287813 1.04806e-21)
(0.839758 0.243536 -7.67791e-22)
(0.869992 0.207715 0)
(0.897728 0.17724 0)
(0.920228 0.151442 0)
(0.288926 0.454699 2.62196e-24)
(0.499652 0.5587 -1.03443e-21)
(0.611021 0.471274 1.24238e-22)
(0.676899 0.388845 -8.68457e-22)
(0.738025 0.323155 -5.25529e-22)
(0.784267 0.272014 1.8e-22)
(0.825174 0.229947 -7.75757e-22)
(0.857785 0.195956 5.11456e-22)
(0.887394 0.167084 5.50826e-22)
(0.911091 0.142701 -4.29346e-22)
(0.259343 0.431876 -7.34725e-22)
(0.4628 0.527486 -8.169e-23)
(0.580404 0.44335 1.15152e-21)
(0.652112 0.365336 8.99197e-22)
(0.717932 0.303278 0)
(0.767655 0.25503 -1.00193e-21)
(0.811389 0.215401 -4.18127e-23)
(0.846256 0.183415 -6.58256e-22)
(0.877614 0.15629 -3.86202e-22)
(0.902501 0.133409 3.41718e-22)
(0.231029 0.405857 1.76536e-21)
(0.427867 0.493106 0)
(0.551534 0.413138 -2.38988e-21)
(0.628791 0.340046 -7.86964e-22)
(0.699052 0.281999 -9.31653e-23)
(0.752067 0.236922 0)
(0.798476 0.199947 8.09535e-22)
(0.835461 0.170135 -6.43547e-22)
(0.868439 0.144891 -4.87904e-22)
(0.894501 0.123599 3.72319e-22)
(0.204296 0.376866 -9.31119e-22)
(0.395129 0.455723 -8.23207e-22)
(0.524609 0.380769 1.3932e-21)
(0.607084 0.313077 -1.2808e-22)
(0.681496 0.259401 0)
(0.737591 0.217757 0)
(0.786501 0.18364 0)
(0.825453 0.15616 1.31254e-21)
(0.859919 0.132922 4.87905e-22)
(0.887126 0.113306 -3.72319e-22)
(0.179416 0.345133 -9.72656e-22)
(0.364851 0.415545 8.20099e-22)
(0.499822 0.34639 8.63895e-23)
(0.587127 0.284547 0)
(0.665373 0.235577 -8.06195e-22)
(0.724311 0.197611 -5.36471e-22)
(0.775529 0.166542 -5.94754e-23)
(0.816282 0.141541 1.04348e-22)
(0.852101 0.120424 -1.29653e-22)
(0.880407 0.102571 5.16982e-23)
(0.156623 0.310866 1.10418e-21)
(0.337285 0.37283 -1.10837e-22)
(0.477348 0.310167 -9.06548e-22)
(0.569048 0.254588 2.01064e-22)
(0.650779 0.210629 6.00103e-22)
(0.712302 0.176567 7.63206e-22)
(0.765618 0.148721 -6.16182e-23)
(0.807998 0.126332 -3.35699e-22)
(0.845029 0.10744 0)
(0.874371 0.0914348 4.8589e-23)
(0.136139 0.274293 7.58982e-23)
(0.312659 0.327847 0)
(0.457342 0.272282 -2.9203e-23)
(0.552965 0.22334 0)
(0.637805 0.184668 -8.6335e-22)
(0.701634 0.154716 6.47173e-22)
(0.756821 0.130249 0)
(0.800643 0.110593 9.11708e-24)
(0.838744 0.0940211 0)
(0.869043 0.0799452 0)
(0.118171 0.235672 1.57548e-22)
(0.291172 0.28087 -1.07373e-21)
(0.439938 0.232934 8.51089e-22)
(0.53898 0.190955 -1.46022e-22)
(0.62653 0.157813 3.73656e-22)
(0.69237 0.132151 1.02635e-22)
(0.749188 0.111204 0)
(0.794257 0.0943863 -2.7754e-22)
(0.833282 0.0802169 -7.38432e-23)
(0.864441 0.06815 -2.13228e-22)
(0.102904 0.195286 6.74791e-22)
(0.272997 0.232181 -1.5928e-21)
(0.425254 0.192328 1.46476e-22)
(0.527185 0.157594 -6.10827e-22)
(0.617026 0.130189 -6.86594e-23)
(0.684564 0.108974 -6.6299e-22)
(0.742759 0.0916677 0)
(0.788878 0.077779 3.79827e-22)
(0.828676 0.0660834 -6.76983e-23)
(0.860583 0.0560978 4.86641e-22)
(0.0904973 0.153434 -6.74792e-22)
(0.25828 0.182076 5.84512e-22)
(0.413387 0.150682 -1.01296e-22)
(0.517655 0.123424 7.16382e-22)
(0.60935 0.101928 3.92264e-22)
(0.678263 0.0852906 4.05353e-23)
(0.737571 0.0717241 -3.38448e-23)
(0.784535 0.060841 -4.25354e-22)
(0.824955 0.0516792 3.85535e-24)
(0.857482 0.0438377 -1.61664e-22)
(0.081078 0.110428 3.53411e-22)
(0.247138 0.130857 0)
(0.404417 0.108219 4.16232e-22)
(0.510453 0.0886182 0)
(0.603551 0.0731661 5.50481e-23)
(0.673504 0.0612087 -4.58361e-23)
(0.733654 0.0514612 0)
(0.781254 0.043644 0)
(0.822142 0.0370642 0)
(0.855147 0.03142 0)
(0.0747439 0.0665915 -3.09604e-22)
(0.23966 0.0788362 -1.19051e-22)
(0.398403 0.0651675 -4.16232e-22)
(0.505626 0.0533549 0)
(0.599664 0.0440445 0)
(0.670315 0.0368404 2.0692e-23)
(0.731029 0.0309689 -8.24872e-23)
(0.779056 0.0262611 -9.7676e-23)
(0.820256 0.0222987 -9.09707e-23)
(0.853586 0.0188937 1.46745e-23)
(0.0715605 0.0222531 -5.60642e-24)
(0.235907 0.0263326 1.28445e-22)
(0.395386 0.021762 -5.71586e-24)
(0.503204 0.0178157 1.97413e-23)
(0.597715 0.0147057 -7.76904e-24)
(0.668716 0.0122994 0)
(0.729713 0.0103384 6.52105e-23)
(0.777953 0.00876616 9.7676e-23)
(0.819309 0.00744291 6.91165e-23)
(0.852804 0.00630468 1.03139e-23)
(0.0715605 -0.0222531 -5.60642e-24)
(0.235907 -0.0263326 1.28445e-22)
(0.395386 -0.021762 -5.71586e-24)
(0.503204 -0.0178157 1.97413e-23)
(0.597715 -0.0147057 -7.76904e-24)
(0.668716 -0.0122994 0)
(0.729713 -0.0103384 5.74493e-23)
(0.777953 -0.00876616 1.04172e-22)
(0.819309 -0.00744291 7.34996e-23)
(0.852804 -0.00630468 0)
(0.0747439 -0.0665915 -3.97218e-22)
(0.23966 -0.0788362 -1.54431e-22)
(0.398403 -0.0651675 -4.412e-22)
(0.505626 -0.0533549 2.06526e-23)
(0.599664 -0.0440445 0)
(0.670315 -0.0368404 -2.0692e-23)
(0.731029 -0.0309689 -4.79338e-23)
(0.779056 -0.0262611 -9.7676e-23)
(0.820256 -0.0222987 -5.60284e-23)
(0.853586 -0.0188937 -1.46745e-23)
(0.081078 -0.110428 3.53411e-22)
(0.247138 -0.130857 0)
(0.404417 -0.108219 4.16232e-22)
(0.510453 -0.0886182 0)
(0.603551 -0.0731661 5.50481e-23)
(0.673504 -0.0612087 -4.58361e-23)
(0.733654 -0.0514612 0)
(0.781254 -0.043644 0)
(0.822142 -0.0370642 0)
(0.855147 -0.03142 0)
(0.0904973 -0.153434 -6.74792e-22)
(0.25828 -0.182076 4.56596e-22)
(0.413387 -0.150682 1.01296e-22)
(0.517655 -0.123424 4.90548e-22)
(0.60935 -0.101928 5.12983e-22)
(0.678263 -0.0852906 -4.05353e-23)
(0.737571 -0.0717241 3.38448e-23)
(0.784535 -0.060841 -3.34301e-22)
(0.824955 -0.0516792 -3.85535e-24)
(0.857482 -0.0438377 -2.71436e-22)
(0.102904 -0.195286 6.74791e-22)
(0.272997 -0.232181 5.51693e-22)
(0.425254 -0.192328 -1.46476e-22)
(0.527185 -0.157594 -5.96101e-22)
(0.617026 -0.130189 4.96962e-23)
(0.684564 -0.108974 -6.6299e-22)
(0.742759 -0.0916677 0)
(0.788878 -0.077779 3.79827e-22)
(0.828676 -0.0660834 6.76983e-23)
(0.860583 -0.0560978 3.72917e-22)
(0.118171 -0.235672 -1.57548e-22)
(0.291172 -0.28087 1.07373e-21)
(0.439938 -0.232934 6.66141e-22)
(0.53898 -0.190955 1.46022e-22)
(0.62653 -0.157813 4.66766e-22)
(0.69237 -0.132151 -1.49064e-22)
(0.749188 -0.111204 6.51738e-23)
(0.794257 -0.0943863 -4.53604e-22)
(0.833282 -0.0802169 7.38432e-23)
(0.864441 -0.06815 -2.13228e-22)
(0.136139 -0.274293 -7.58982e-23)
(0.312659 -0.327847 0)
(0.457342 -0.272282 -2.9203e-23)
(0.552965 -0.22334 0)
(0.637805 -0.184668 -8.6335e-22)
(0.701634 -0.154716 6.47173e-22)
(0.756821 -0.130249 0)
(0.800643 -0.110593 9.11708e-24)
(0.838744 -0.0940211 0)
(0.869043 -0.0799452 0)
(0.156623 -0.310866 1.10418e-21)
(0.337285 -0.37283 1.10837e-22)
(0.477348 -0.310167 -6.38088e-22)
(0.569048 -0.254588 -1.30076e-22)
(0.650779 -0.210629 1.01229e-21)
(0.712302 -0.176567 4.52205e-22)
(0.765618 -0.148721 6.16182e-23)
(0.807998 -0.126332 -4.19461e-22)
(0.845029 -0.10744 7.02615e-23)
(0.874371 -0.0914348 -4.8589e-23)
(0.179416 -0.345133 -1.2357e-21)
(0.364851 -0.415545 8.2632e-22)
(0.499822 -0.34639 7.72589e-23)
(0.587127 -0.284547 -1.35367e-22)
(0.665373 -0.235577 -8.06195e-22)
(0.724311 -0.197611 -6.78936e-22)
(0.775529 -0.166542 5.94753e-23)
(0.816282 -0.141541 -5.80286e-23)
(0.852101 -0.120424 1.29653e-22)
(0.880407 -0.102571 -5.16982e-23)
(0.204296 -0.376866 -9.31118e-22)
(0.395129 -0.455723 -8.23207e-22)
(0.524609 -0.380769 1.08352e-21)
(0.607084 -0.313077 1.2808e-22)
(0.681496 -0.259401 0)
(0.737591 -0.217757 0)
(0.786501 -0.18364 0)
(0.825453 -0.15616 1.31254e-21)
(0.859919 -0.132922 4.87905e-22)
(0.887126 -0.113306 -3.72319e-22)
(0.231029 -0.405857 1.76536e-21)
(0.427867 -0.493106 0)
(0.551534 -0.413138 -2.38988e-21)
(0.628791 -0.340046 -8.99201e-22)
(0.699052 -0.281999 0)
(0.752067 -0.236922 0)
(0.798476 -0.199947 8.09535e-22)
(0.835461 -0.170135 -6.43546e-22)
(0.868439 -0.144891 -4.87903e-22)
(0.894501 -0.123599 3.72319e-22)
(0.259343 -0.431876 -9.33758e-22)
(0.4628 -0.527486 8.169e-23)
(0.580404 -0.44335 1.15152e-21)
(0.652112 -0.365336 1.00447e-21)
(0.717932 -0.303278 -8.73878e-23)
(0.767655 -0.25503 -1.00193e-21)
(0.811389 -0.215401 -4.18127e-23)
(0.846256 -0.183415 -5.1448e-22)
(0.877614 -0.15629 -5.06805e-22)
(0.902501 -0.133409 3.41718e-22)
(0.288926 -0.454699 -2.62196e-24)
(0.499652 -0.5587 -1.19243e-21)
(0.611021 -0.471274 -1.24238e-22)
(0.676899 -0.388845 -6.72695e-22)
(0.738025 -0.323155 -5.36038e-22)
(0.784267 -0.272014 -1.80199e-22)
(0.825174 -0.229947 -7.59674e-22)
(0.857785 -0.195956 6.61275e-22)
(0.887394 -0.167084 3.42178e-22)
(0.911091 -0.142701 -2.54091e-22)
(0.319439 -0.474141 0)
(0.538126 -0.586606 9.79581e-22)
(0.643178 -0.496796 1.10277e-22)
(0.703001 -0.410482 6.91965e-23)
(0.75921 -0.341559 6.06775e-22)
(0.80181 -0.287813 8.29431e-22)
(0.839758 -0.243536 -6.69456e-22)
(0.869992 -0.207715 7.04799e-23)
(0.897728 -0.17724 0)
(0.920228 -0.151442 0)
(0.350523 -0.490062 -5.68933e-23)
(0.577901 -0.611078 8.06567e-22)
(0.676661 -0.519811 0)
(0.730257 -0.430173 1.53849e-22)
(0.781364 -0.358428 -6.80422e-23)
(0.820186 -0.302377 0)
(0.855067 -0.256126 6.76517e-22)
(0.88282 -0.218656 4.87081e-22)
(0.908559 -0.186736 -9.29575e-23)
(0.929867 -0.15961 7.80812e-23)
(0.381807 -0.502359 4.84975e-23)
(0.618641 -0.632012 -8.46373e-22)
(0.711246 -0.540237 0)
(0.758502 -0.447856 7.03044e-22)
(0.804361 -0.373712 -6.10556e-23)
(0.839296 -0.315663 7.31291e-22)