/*--------------------------------*- C++ -*----------------------------------*\
  =========                 |
  \\      /  F ield         | OpenFOAM: The Open Source CFD Toolbox
   \\    /   O peration     | Website:  https://openfoam.org
    \\  /    A nd           | Version:  7
     \\/     M anipulation  |
\*---------------------------------------------------------------------------*/
FoamFile
{
    version     2.0;
    format      ascii;
    class       volScalarField;
    location    "1";
    object      p;
}
// * * * * * * * * * * * * * * * * * * * * * * * * * * * * * * * * * * * * * //

dimensions      [1 -1 -2 0 0 0 0];

internalField   nonuniform List<scalar> 
1575
(
1
1
1
1
1
1
1
1
5.50074
10.9475
11.2722
11.5694
11.8152
11.985
12.0832
1
1
1
1
1
1
1
1
5.21682
10.7721
11.1773
11.4495
11.6689
11.7929
11.8797
1
1
1
1
1
1
1
1
4.61437
10.5186
11.0439
11.3043
11.5205
11.6294
11.6305
1
1
1
1
1
1
1
1
3.77023
10.0801
10.866
11.0589
11.1784
11.1424
11.1932
1
1
1
1
1
1
1
1
2.71721
9.32994
10.6843
10.7856
10.8785
10.7666
10.9006
1
1
1
1
1
1
1
1
1.6708
8.21531
10.4596
10.3983
10.2789
9.57678
7.70526
1
1
1
1
1
1
1
1
1.05423
6.44715
9.91284
9.79268
9.44735
8.6774
6.82972
1
1
1
1
1
1
1
1
1.00031
4.10098
9.14973
9.37999
8.98993
8.16392
6.40972
1
1
1
1
1
1
1
1
0.999999
1.87003
7.88194
9.15271
8.52541
7.67731
6.23273
1
1
1
1
1
1
1
1
1
1.0644
5.53888
8.57118
8.08794
7.31631
6.23005
1
1
1
1
1
1
1
1
1
1.00028
2.41538
7.42249
8.05836
7.23646
6.28599
1
1
1
1
1
1
1
1
1
1
1.13705
5.09589
7.80708
7.127
6.26661
1
1
1
1
1
1
1
1
1
1
1.00153
2.04969
6.374
7.21077
6.36791
1
1
1
1
1
1
1
1
1
1
1
1.0742
3.58096
6.67043
6.42648
1
1
1
1
1
1
1
1
1
1
1
1.00078
1.4341
4.737
6.4039
1
1
1
1
1
1
1
1
1
1
1
1
1.01476
2.04373
5.14315
1
1
1
1
1
1
1
1
1
1
1
1
1.00009
1.0756
2.56294
1
1
1
1
1
1
1
1
1
1
1
1
1
1.00102
1.17175
1
1
1
1
1
1
1
1
1
1
1
1
1
1
1.0037
1
1
1
1
1
1
1
1
1
1
1
1
1
1
1.00002
1
1
1
1
1
1
1
1
1
1
1
1
1
1
1
1
1
1
1
1
1
1
1
1
1
1
1
1
1
1
1
1
1
1
1
1
1
1
1
1
1
1
1
1
1
1
1
1
1
1
1
1
1
1
1
1
1
1
1
1
1
1
1
1
1
1
1
1
1
1
1
1
1
1
1
1.93055
0.688651
0.396744
0.315914
0.327012
0.433988
0.599348
0.7618
0.930165
1.07589
1.1566
1.20166
1.21338
1.20518
1.18706
1.18379
1.164
1.13376
1.12859
1.12038
1.09506
1.06466
1.03864
1.01195
0.976226
0.955979
0.949415
0.941052
0.932174
0.924671
0.918504
0.912945
0.90566
0.887586
0.855416
0.831256
0.822771
0.818146
0.815796
0.816792
0.822824
0.829329
0.830874
0.834446
0.841191
0.847515
0.85321
0.860488
0.86925
0.878394
0.886346
0.895428
0.893589
0.881627
0.879663
0.883163
0.894738
0.921936
0.938253
0.952509
3.22669
1.73587
1.2758
1.01982
0.796588
0.765566
0.736324
0.714994
0.739494
0.80055
0.877464
0.958831
1.02738
1.06385
1.08003
1.08858
1.09494
1.0936
1.09906
1.09454
1.0743
1.04996
1.03011
1.01014
0.985797
0.973786
0.969001
0.960971
0.949797
0.936608
0.922933
0.910068
0.897213
0.880269
0.858552
0.842952
0.835185
0.831236
0.829371
0.828651
0.829179
0.828928
0.825521
0.827379
0.833344
0.842435
0.852743
0.859562
0.866339
0.872821
0.878033
0.884877
0.885486
0.878893
0.880237
0.88765
0.903266
0.927201
0.938845
0.950983
4.14687
2.75993
1.96857
1.56434
1.26024
1.04776
0.934067
0.813417
0.726034
0.74818
0.8003
0.86364
0.91635
0.962158
0.993877
1.01223
1.04531
1.07289
1.09991
1.11409
1.10491
1.08528
1.05638
1.01868
0.984656
0.973142
0.967382
0.958878
0.946557
0.931838
0.918609
0.905746
0.888852
0.866471
0.84943
0.841043
0.836505
0.835895
0.841084
0.847614
0.849076
0.841977
0.826109
0.81544
0.817067
0.823943
0.838474
0.852492
0.861086
0.868181
0.872755
0.870693
0.863259
0.859507
0.865841
0.88093
0.902747
0.922646
0.928786
0.935571
4.64719
3.50951
2.71654
2.15101
1.72801
1.42665
1.26213
1.13159
0.953094
0.885399
0.859298
0.825634
0.815636
0.830302
0.861773
0.892975
0.931932
0.973433
1.00858
1.03005
1.04187
1.04543
1.03762
1.02503
1.01698
1.00801
0.993843
0.977913
0.959421
0.937507
0.9163
0.901876
0.887248
0.868005
0.851907
0.842198
0.837237
0.837589
0.842787
0.846456
0.844807
0.835576
0.819725
0.810416
0.810545
0.814151
0.825337
0.840214
0.854208
0.867046
0.875424
0.878421
0.87506
0.869407
0.871862
0.885763
0.905276
0.918202
0.919429
0.920554
5.05777
4.04956
3.27074
2.6882
2.21577
1.84774
1.59099
1.38267
1.1844
1.05764
0.991974
0.911083
0.827031
0.810599
0.825651
0.84609
0.850089
0.872771
0.907691
0.936445
0.962386
0.973366
0.972212
0.978104
0.999388
1.01628
1.01606
1.0115
0.999325
0.975353
0.93745
0.898956
0.872749
0.855044
0.841967
0.838594
0.843604
0.851251
0.854613
0.848355
0.836245
0.816942
0.80786
0.812526
0.821733
0.837744
0.862538
0.888117
0.918062
0.953927
0.975363
0.975613
0.962924
0.953962
0.958455
0.972387
0.984069
0.982058
0.966958
0.945264
5.29843
4.42825
3.70858
3.12705
2.6086
2.20884
1.9415
1.71724
1.47108
1.27672
1.18627
1.10424
0.991967
0.906628
0.903728
0.884735
0.848307
0.824475
0.826318
0.834461
0.852061
0.871604
0.897709
0.921509
0.95316
0.973827
0.973745
0.978911
0.987395
0.983255
0.960154
0.921109
0.888406
0.865725
0.847627
0.839784
0.843117
0.850717
0.85729
0.856262
0.855314
0.869443
0.898037
0.938919
0.989153
1.04947
1.10536
1.15255
1.20839
1.26556
1.30566
1.31169
1.29076
1.26149
1.25734
1.25958
1.25088
1.22763
1.19405
1.12572
5.43959
4.68127
4.024
3.47631
2.99429
2.55856
2.22624
1.986
1.75675
1.54939
1.41263
1.29947
1.15968
1.02354
0.984358
0.947436
0.886238
0.826724
0.818713
0.828398
0.82095
0.813056
0.820865
0.845382
0.875385
0.904616
0.914884
0.931783
0.95425
0.95407
0.943985
0.927004
0.913535
0.901066
0.884798
0.871577
0.878154
0.905854
0.95322
1.02245
1.10242
1.18791
1.27285
1.34826
1.41907
1.46725
1.48878
1.51196
1.535
1.5477
1.57613
1.60539
1.59469
1.58036
1.59343
1.59684
1.57126
1.53794
1.51011
1.42344
5.62403
4.92342
4.31412
3.78185
3.28356
2.8594
2.53992
2.27056
2.00015
1.75243
1.60449
1.50528
1.38786
1.22301
1.12014
1.06768
1.00053
0.909147
0.884428
0.881606
0.857285
0.82299
0.808505
0.801985
0.798175
0.805817
0.821077
0.844515
0.890384
0.908161
0.912586
0.917096
0.928332
0.947188
0.982578
1.04489
1.14147
1.25679
1.37356
1.48204
1.57277
1.62944
1.65396
1.67534
1.69091
1.67757
1.65107
1.63657
1.62126
1.60643
1.62699
1.67062
1.68003
1.67723
1.68397
1.68514
1.66144
1.63092
1.62804
1.5723
5.73923
5.07383
4.48721
3.98814
3.55078
3.13382
2.75654
2.48675
2.26544
2.03665
1.80063
1.66081
1.55466
1.41651
1.29814
1.22226
1.13919
1.01283
0.946084
0.930546
0.90032
0.855174
0.813779
0.810647
0.801089
0.770841
0.765323
0.771246
0.796154
0.834348
0.881315
0.946363
1.05142
1.20235
1.38567
1.5529
1.67997
1.73823
1.77767
1.81563
1.82258
1.80648
1.76377
1.72844
1.70219
1.6647
1.62043
1.59066
1.56978
1.55104
1.56757
1.61786
1.63601
1.63295
1.63099
1.63063
1.61378
1.58614
1.57521
1.57526
5.97203
5.30456
4.72288
4.20548
3.75439
3.3793
3.03501
2.70307
2.43911
2.2341
2.02032
1.85197
1.73184
1.58157
1.43288
1.35083
1.27412
1.17132
1.07667
1.03933
0.9958
0.935727
0.881882
0.86084
0.832505
0.788875
0.774056
0.782018
0.810675
0.888506
1.04036
1.25722
1.48009
1.67374
1.82212
1.90839
1.92024
1.89168
1.86696
1.85713
1.8303
1.78405
1.71223
1.66299
1.63045
1.59195
1.54404
1.5104
1.49267
1.47411
1.46451
1.4936
1.52223
1.5296
1.53187
1.52859
1.51212
1.49416
1.48031
1.52452
5.97209
5.57492
4.96872
4.43736
4.00546
3.62766
3.25765
2.91411
2.66411
2.45902
2.22142
2.00107
1.8848
1.76821
1.62716
1.5145
1.41586
1.29215
1.19981
1.15508
1.1089
1.03588
0.959513
0.915036
0.877551
0.832756
0.845604
0.91542
1.08353
1.30627
1.54241
1.72028
1.82188
1.88103
1.89458
1.87594
1.84241
1.78629
1.75163
1.75836
1.74205
1.66626
1.57992
1.54662
1.53624
1.52202
1.48448
1.44992
1.43175
1.41435
1.39143
1.38654
1.39973
1.4133
1.42932
1.4354
1.42217
1.42121
1.45909
1.50306
5.1354
5.61634
5.27493
4.69384
4.19601
3.85803
3.51729
3.14717
2.84905
2.64903
2.43904
2.22904
2.04747
1.89243
1.75747
1.65979
1.57449
1.46201
1.33507
1.26698
1.20494
1.12874
1.06972
1.03481
1.06422
1.15891
1.34474
1.59311
1.79123
1.91702
1.94221
1.93467
1.9098
1.86777
1.8101
1.75325
1.69956
1.63675
1.59458
1.58883
1.55883
1.48624
1.45337
1.44112
1.44136
1.43771
1.40977
1.37891
1.36283
1.35617
1.33849
1.32084
1.32069
1.33407
1.34084
1.35765
1.37625
1.37018
1.35512
1.34281
2.85956
4.96754
5.30434
5.01682
4.48812
4.05636
3.72107
3.35935
3.08151
2.86041
2.6248
2.39841
2.23065
2.0806
1.91869
1.79249
1.70131
1.58026
1.46541
1.3951
1.34442
1.27152
1.29987
1.42161
1.69879
1.99756
2.21371
2.30297
2.31517
2.24435
2.10882
1.98682
1.90019
1.81288
1.7091
1.62121
1.5585
1.4955
1.44705
1.4295
1.39539
1.35114
1.31306
1.29346
1.28751
1.2846
1.27287
1.24812
1.22701
1.21774
1.20362
1.18718
1.17647
1.17798
1.18337
1.18928
1.20915
1.23349
1.2451
1.24207
1.26171
2.95753
4.74112
5.01642
4.80075
4.35092
3.9528
3.57862
3.27064
3.0329
2.81932
2.61533
2.42621
2.24544
2.06557
1.93874
1.85932
1.74504
1.58363
1.54119
1.62222
1.82726
2.14759
2.49283
2.78115
2.82597
2.80137
2.71018
2.56157
2.36464
2.17553
2.02619
1.90312
1.79211
1.69366
1.60637
1.52505
1.43913
1.38203
1.35346
1.31455
1.27035
1.23888
1.2164
1.20206
1.18621
1.16884
1.15007
1.12313
1.09733
1.08673
1.08393
1.07755
1.07001
1.07491
1.08222
1.09171
1.10376
1.12319
1.14593
1.00761
1.31271
2.89218
4.46382
4.80495
4.66092
4.26468
3.81381
3.50775
3.2595
2.96545
2.75854
2.62594
2.4574
2.2563
2.02837
1.97595
1.95458
1.99086
2.22155
2.6866
3.12923
3.31228
3.41753
3.32354
3.15685
2.98513
2.77674
2.54704
2.3294
2.15485
2.01727
1.89487
1.78063
1.68621
1.61222
1.53503
1.45198
1.39398
1.34874
1.30118
1.25645
1.217
1.18778
1.16196
1.13026
1.1076
1.08409
1.05512
1.01659
0.993515
0.985849
0.984529
0.975064
0.962421
0.954232
0.949431
0.949237
0.960553
1.00054
1.00004
1.01034
1.3143
2.678
4.24299
4.59818
4.52161
4.1735
3.73872
3.48448
3.18215
2.93103
2.76779
2.60166
2.44271
2.29231
2.36844
2.73526
3.314
3.93242
4.20983
4.23358
4.07233
3.8617
3.62928
3.39055
3.0945
2.80483
2.56726
2.38959
2.24663
2.10991
1.96946
1.83346
1.71784
1.63434
1.57677
1.53863
1.48867
1.41707
1.35322
1.30431
1.25896
1.20225
1.138
1.09662
1.07679
1.05354
1.02011
0.981883
0.954078
0.943984
0.937332
0.927203
0.9052
0.876573
0.864666
0.857381
0.857324
0.887066
1
1.00007
1.01073
1.26426
2.46855
3.98654
4.323
4.33825
4.08994
3.75814
3.41639
3.08402
2.94324
2.82982
2.93127
3.37749
4.08489
4.87701
5.1052
4.9465
4.73028
4.47944
4.15042
3.83305
3.50954
3.19254
2.95008
2.76892
2.60151
2.4396
2.28486
2.13526
1.99066
1.86894
1.77733
1.69988
1.62098
1.5347
1.4472
1.37242
1.31284
1.26211
1.2168
1.17217
1.1279
1.09789
1.07231
1.04024
1.00148
0.960589
0.939449
0.929935
0.921933
0.910424
0.888609
0.854407
0.839319
0.833089
0.828389
0.83877
1
1
1.00007
1.00873
1.2029
2.23874
3.53511
4.14286
4.19762
4.02946
3.78935
3.51117
3.6195
4.13141
5.1108
5.94318
6.46007
6.46652
6.19549
5.72577
5.25588
4.694
4.14491
3.72885
3.4136
3.14973
2.95529
2.79779
2.63631
2.47411
2.32397
2.18217
2.04889
1.93437
1.83823
1.74801
1.65351
1.55332
1.45923
1.38057
1.31703
1.26252
1.21355
1.17114
1.13784
1.10725
1.07315
1.03522
0.992775
0.955053
0.938378
0.928616
0.918666
0.906215
0.883959
0.848882
0.831965
0.825531
0.81982
0.825021
1
1
1
1.00006
1.00567
1.14845
1.88547
3.19455
3.82733
4.25836
4.71911
5.43136
6.21977
6.86887
7.20231
6.97788
6.83697
6.54236
6.00551
5.42219
4.92399
4.52543
4.22285
3.91845
3.62763
3.37406
3.15962
2.97249
2.80165
2.64387
2.49354
2.34418
2.2027
2.0783
1.96853
1.86503
1.76286
1.66279
1.56881
1.48328
1.40811
1.34297
1.2876
1.24408
1.20874
1.17249
1.13071
1.08287
1.03311
1.00009
0.983181
0.969522
0.955691
0.939813
0.914592
0.876281
0.857005
0.849329
0.843317
0.839157
1
1
1
1
1.00003
1.00362
1.08666
1.67913
3.31956
5.55662
7.89682
10.1234
10.9151
10.6002
9.84784
8.56516
7.30555
6.32232
5.62007
5.09643
4.66879
4.35593
4.07095
3.78311
3.51304
3.26209
3.03299
2.83051
2.65961
2.51244
2.37149
2.22733
2.0892
1.96695
1.85833
1.75908
1.66402
1.56972
1.47982
1.39835
1.32682
1.26413
1.21031
1.16735
1.13254
1.09976
1.06237
1.01737
0.970008
0.937358
0.920585
0.908019
0.895509
0.880993
0.857527
0.822113
0.804861
0.797349
0.791448
0.785757
)
;

boundaryField
{
    inlet
    {
        type            fixedValue;
        value           uniform 1;
    }
    outlet
    {
        type            zeroGradient;
    }
    bottom
    {
        type            symmetryPlane;
    }
    top
    {
        type            symmetryPlane;
    }
    obstacle
    {
        type            zeroGradient;
    }
    defaultFaces
    {
        type            empty;
    }
}


// ************************************************************************* //
