/*--------------------------------*- C++ -*----------------------------------*\
  =========                 |
  \\      /  F ield         | OpenFOAM: The Open Source CFD Toolbox
   \\    /   O peration     | Website:  https://openfoam.org
    \\  /    A nd           | Version:  7
     \\/     M anipulation  |
\*---------------------------------------------------------------------------*/
FoamFile
{
    version     2.0;
    format      ascii;
    class       volVectorField;
    location    "1";
    object      U;
}
// * * * * * * * * * * * * * * * * * * * * * * * * * * * * * * * * * * * * * //

dimensions      [0 1 -1 0 0 0 0];

internalField   nonuniform List<vector> 
1575
(
(3 -4.42141e-17 0)
(3 1.11813e-16 0)
(3 2.70325e-16 0)
(3 6.37623e-17 0)
(3 1.98582e-17 0)
(3 3.47854e-16 0)
(3 1.68811e-16 0)
(3 -4.35296e-16 0)
(1.2676 0.0246149 0)
(0.667896 0.0249237 0)
(0.568149 0.0427385 0)
(0.459751 0.0499783 0)
(0.345828 0.0559055 0)
(0.216655 0.0610116 0)
(0.0820916 0.070495 0)
(3 -1.29601e-16 0)
(3 -1.87065e-16 0)
(3 -5.66521e-18 0)
(3 1.47589e-16 0)
(3 4.25646e-16 0)
(3 7.72689e-16 0)
(3 6.04413e-16 0)
(3 -4.81796e-16 0)
(1.31883 0.11975 0)
(0.657211 0.109012 0)
(0.542175 0.13732 0)
(0.432949 0.154789 0)
(0.32148 0.171268 0)
(0.200603 0.188934 0)
(0.0782713 0.222617 0)
(3 -4.65924e-17 0)
(3 -6.00869e-16 0)
(3 -5.59406e-16 0)
(3 -2.40628e-16 0)
(3 4.43773e-18 0)
(3 -2.98786e-16 0)
(3 -7.58937e-16 0)
(3 -5.90567e-16 0)
(1.48659 0.217073 0)
(0.682661 0.202135 0)
(0.546754 0.239421 0)
(0.430107 0.263571 0)
(0.312781 0.286714 0)
(0.192744 0.314434 0)
(0.0705415 0.365996 0)
(3 -1.78973e-16 0)
(3 -5.11157e-16 0)
(3 -7.22489e-16 0)
(3 -1.17497e-15 0)
(3 -1.06246e-15 0)
(3 -6.59841e-16 0)
(3 -1.01119e-16 0)
(3 -5.57267e-16 0)
(1.77979 0.302954 0)
(0.735979 0.309066 0)
(0.57476 0.34859 0)
(0.46766 0.37798 0)
(0.364229 0.404487 0)
(0.256824 0.437179 0)
(0.12987 0.525795 0)
(3 -5.33504e-17 0)
(3 -5.9979e-17 0)
(3 2.05666e-17 0)
(3 -2.19757e-16 0)
(3 -7.88117e-17 0)
(3 -2.05839e-16 0)
(3 6.73105e-16 0)
(3 5.47531e-16 0)
(2.23578 0.343385 0)
(0.830948 0.426396 0)
(0.652574 0.45348 0)
(0.566332 0.472705 0)
(0.467577 0.507971 0)
(0.325983 0.60565 0)
(0.184801 0.816592 0)
(3 3.25935e-16 0)
(3 4.68672e-16 0)
(3 4.84288e-16 0)
(3 4.54078e-16 0)
(3 1.76442e-16 0)
(3 2.37081e-16 0)
(3 6.1105e-16 0)
(3 2.79417e-16 0)
(2.84399 0.204109 0)
(1.03487 0.506145 0)
(0.784758 0.50132 0)
(0.709293 0.541643 0)
(0.621916 0.623305 0)
(0.55414 0.791305 0)
(0.660192 1.10089 0)
(3 1.36095e-16 0)
(3 7.04085e-16 0)
(3 5.08515e-16 0)
(3 5.40021e-16 0)
(3 3.35012e-16 0)
(3 3.47775e-16 0)
(3 2.80546e-16 0)
(3 1.30872e-16 0)
(3.04912 0.0177477 0)
(1.31108 0.522869 0)
(0.863343 0.602399 0)
(0.775328 0.65281 0)
(0.735914 0.746033 0)
(0.780659 0.866963 0)
(1.02913 1.01475 0)
(3 -5.44386e-17 0)
(3 6.72597e-17 0)
(3 1.22363e-16 0)
(3 1.95082e-17 0)
(3 -1.98943e-16 0)
(3 -2.21671e-16 0)
(3 -6.33485e-17 0)
(3 3.49876e-17 0)
(3.00181 5.6528e-05 0)
(1.83675 0.551447 0)
(0.948538 0.713019 0)
(0.850084 0.73059 0)
(0.861252 0.794386 0)
(0.958422 0.875346 0)
(1.22614 0.964382 0)
(3 -8.72856e-17 0)
(3 -5.01794e-16 0)
(3 -6.63681e-16 0)
(3 -3.63751e-16 0)
(3 -6.90425e-17 0)
(3 7.04776e-17 0)
(3 2.58965e-16 0)
(3 -1.41886e-16 0)
(3 -1.04787e-07 0)
(2.79829 0.295819 0)
(1.18618 0.757772 0)
(0.981797 0.762095 0)
(1.00748 0.792879 0)
(1.09781 0.85604 0)
(1.31674 0.908943 0)
(3 1.7594e-17 0)
(3 1.61129e-16 0)
(3 2.18543e-16 0)
(3 6.39386e-16 0)
(3 9.41486e-16 0)
(3 1.07824e-15 0)
(3 5.34609e-16 0)
(3 1.66092e-16 0)
(3 -7.59904e-08 0)
(3.05592 0.0178316 0)
(1.61473 0.747988 0)
(1.07094 0.860584 0)
(1.10299 0.867756 0)
(1.19634 0.89174 0)
(1.37366 0.904018 0)
(3 3.19565e-17 0)
(3 6.22044e-17 0)
(3 4.17918e-16 0)
(3 6.20697e-17 0)
(3 6.75892e-17 0)
(3 4.88573e-16 0)
(3 7.23894e-16 0)
(3 9.44808e-16 0)
(3 -1.19265e-08 0)
(3.00148 0.0002421 0)
(2.6176 0.49465 0)
(1.27502 0.907678 0)
(1.19867 0.87989 0)
(1.29914 0.874817 0)
(1.43693 0.873903 0)
(3 -1.60691e-17 0)
(3 -2.07782e-16 0)
(3 -1.41621e-16 0)
(3 -2.49869e-16 0)
(3 -4.96132e-16 0)
(3 -2.51355e-16 0)
(3 1.31359e-16 0)
(3 8.59295e-16 0)
(3 -1.00211e-09 0)
(3 2.58785e-07 0)
(3.0587 0.0444584 0)
(1.80531 0.817819 0)
(1.28727 0.937015 0)
(1.36387 0.927937 0)
(1.47499 0.917394 0)
(3 -1.41377e-16 0)
(3 -5.39141e-17 0)
(3 -4.62178e-17 0)
(3 -9.97104e-17 0)
(3 -6.03239e-16 0)
(3 -8.36707e-16 0)
(3 -4.83718e-16 0)
(3 5.41576e-16 0)
(3 -1.07952e-11 0)
(3 -5.13553e-08 0)
(3.00236 0.00124534 0)
(2.77494 0.390752 0)
(1.55787 0.96434 0)
(1.42014 0.934338 0)
(1.53825 0.915709 0)
(3 1.08006e-16 0)
(3 1.7404e-16 0)
(3 3.74082e-16 0)
(3 4.52383e-18 0)
(3 -6.75348e-16 0)
(3 -7.39954e-16 0)
(3 -5.51453e-16 0)
(3 1.33188e-17 0)
(3 -3.37552e-14 0)
(3 -2.14624e-08 0)
(3 2.99287e-06 0)
(3.02142 0.0275831 0)
(2.26083 0.744893 0)
(1.53886 0.981847 0)
(1.55334 0.974697 0)
(3 2.04522e-16 0)
(3 1.0823e-16 0)
(3 1.01668e-16 0)
(3 2.58768e-16 0)
(3 -2.07934e-16 0)
(3 -3.85119e-16 0)
(3 -2.64424e-16 0)
(3 -3.39574e-16 0)
(3 -3.93712e-16 0)
(3 -3.0182e-09 0)
(3 -2.25414e-09 0)
(3.00034 0.000708363 0)
(2.96516 0.169465 0)
(1.98317 0.873582 0)
(1.63132 0.987117 0)
(3 -2.48899e-16 0)
(3 -1.35286e-16 0)
(3 -7.87566e-17 0)
(3 3.25132e-16 0)
(3 4.18447e-16 0)
(3 4.55121e-16 0)
(3 1.09511e-16 0)
(3 -9.6121e-17 0)
(3 -5.75625e-16 0)
(3 -5.44561e-11 0)
(3 -4.84816e-10 0)
(3 1.25098e-06 0)
(3.00272 0.00914645 0)
(2.74229 0.396571 0)
(1.91218 0.928065 0)
(3 -1.45121e-16 0)
(3 -2.82982e-16 0)
(3 -2.85578e-16 0)
(3 1.10078e-17 0)
(3 9.58504e-16 0)
(3 1.41909e-15 0)
(3 1.19124e-15 0)
(3 5.93198e-16 0)
(3 -1.99471e-16 0)
(3 -8.04988e-14 0)
(3 -1.42983e-11 0)
(3 3.7902e-10 0)
(3 7.37966e-05 0)
(2.99716 0.0362318 0)
(2.55023 0.553902 0)
(3 1.48985e-16 0)
(3 -9.54679e-17 0)
(3 -1.54341e-16 0)
(3 -3.43867e-16 0)
(3 9.45333e-17 0)
(3 5.08102e-16 0)
(3 3.09448e-16 0)
(3 -1.52916e-16 0)
(3 4.779e-16 0)
(3 2.25322e-15 0)
(3 -4.20641e-14 0)
(3 -2.09949e-13 0)
(3 6.52577e-08 0)
(2.99995 0.000788209 0)
(2.97296 0.0772444 0)
(3 8.9098e-17 0)
(3 2.77436e-16 0)
(3 1.90818e-16 0)
(3 5.75179e-17 0)
(3 8.80433e-17 0)
(3 -4.53005e-16 0)
(3 -3.93319e-16 0)
(3 -2.24388e-16 0)
(3 1.13412e-15 0)
(3 1.68967e-15 0)
(3 3.4087e-16 0)
(3 -1.92885e-13 0)
(3 1.2203e-11 0)
(3 1.60554e-06 0)
(2.99961 0.00269605 0)
(3 -2.1151e-16 0)
(3 -6.4611e-17 0)
(3 1.39284e-17 0)
(3 2.06029e-16 0)
(3 5.8188e-16 0)
(3 6.84628e-16 0)
(3 4.79784e-16 0)
(3 4.5105e-16 0)
(3 3.49935e-16 0)
(3 4.34477e-16 0)
(3 -4.00808e-17 0)
(3 -4.87377e-14 0)
(3 -9.1741e-14 0)
(3 7.37562e-10 0)
(3 9.46315e-06 0)
(3 -3.55498e-17 0)
(3 5.59723e-17 0)
(3 4.20241e-16 0)
(3 4.24621e-16 0)
(3 6.63375e-16 0)
(3 4.17234e-16 0)
(3 -1.87663e-16 0)
(3 -1.11272e-16 0)
(3 -3.88416e-16 0)
(3 -6.75343e-16 0)
(3 -1.01015e-15 0)
(3 -3.49016e-15 0)
(3 -3.63987e-14 0)
(3 1.15365e-14 0)
(3 7.63784e-09 0)
(3 7.01765e-17 0)
(3 -2.17086e-17 0)
(3 2.64672e-16 0)
(3 5.61851e-16 0)
(3 1.73452e-16 0)
(3 -4.87283e-16 0)
(3 -1.11071e-15 0)
(3 -1.34706e-15 0)
(3 -8.41983e-16 0)
(3 -8.0891e-16 0)
(3 -8.50911e-16 0)
(3 -7.29824e-16 0)
(3 -4.1698e-15 0)
(3 -6.22763e-15 0)
(3 7.60966e-13 0)
(3 -1.1372e-16 0)
(3 -2.47107e-16 0)
(3 -1.81094e-16 0)
(3 -3.70037e-16 0)
(3 -8.83003e-16 0)
(3 -7.99803e-16 0)
(3 -5.06551e-16 0)
(3 -3.29672e-16 0)
(3 -2.70721e-16 0)
(3 1.14805e-16 0)
(3 5.98408e-16 0)
(3 3.09624e-16 0)
(3 9.32542e-16 0)
(3 -1.33724e-15 0)
(3 -2.47104e-15 0)
(3 -3.44173e-17 0)
(3 -4.97043e-17 0)
(3 -2.44345e-16 0)
(3 -6.31184e-16 0)
(3 -9.83339e-16 0)
(3 -9.06607e-16 0)
(3 -2.38493e-16 0)
(3 6.6582e-16 0)
(3 1.03642e-15 0)
(3 9.17121e-16 0)
(3 1.18769e-15 0)
(3 1.59191e-15 0)
(3 1.14108e-15 0)
(3 3.65389e-16 0)
(3 -1.32327e-15 0)
(3 2.81558e-17 0)
(3 6.5448e-17 0)
(3 -1.34005e-16 0)
(3 -1.78474e-16 0)
(3 -1.20166e-16 0)
(3 -4.48102e-16 0)
(3 -3.54132e-16 0)
(3 6.0817e-17 0)
(3 9.95707e-16 0)
(3 8.5776e-16 0)
(3 1.26251e-15 0)
(3 1.246e-15 0)
(3 8.37242e-16 0)
(3 4.78983e-16 0)
(3 3.94878e-16 0)
(1.60113 1.20208 0)
(2.14167 1.13071 0)
(2.557 1.00214 0)
(2.69682 0.676627 0)
(2.69049 0.316961 0)
(2.6631 0.0186482 0)
(2.55629 -0.25024 0)
(2.55647 -0.264831 0)
(2.5471 -0.201175 0)
(2.53111 -0.210534 0)
(2.55013 -0.184543 0)
(2.60394 -0.123877 0)
(2.62486 -0.0931878 0)
(2.62238 -0.0772666 0)
(2.60411 -0.0511223 0)
(2.60733 -0.0484211 0)
(2.62726 -0.0413749 0)
(2.65919 -0.0168016 0)
(2.69051 0.00173542 0)
(2.70663 0.00394913 0)
(2.73227 -0.000710835 0)
(2.76638 -0.00246327 0)
(2.78862 0.00546077 0)
(2.79027 0.0117017 0)
(2.77685 0.0105934 0)
(2.78224 0.0060467 0)
(2.80003 0.00240508 0)
(2.82159 -0.000792148 0)
(2.84556 -0.0012585 0)
(2.86625 -0.000753383 0)
(2.88239 -0.000846242 0)
(2.89935 -0.00346181 0)
(2.91865 -0.00777094 0)
(2.93683 -0.0109766 0)
(2.94126 -0.00630936 0)
(2.94279 0.00257695 0)
(2.95146 0.00720815 0)
(2.95941 0.0101012 0)
(2.96325 0.0127227 0)
(2.96021 0.0145249 0)
(2.95161 0.0136817 0)
(2.94312 0.0120258 0)
(2.93061 0.00975461 0)
(2.92086 0.00896409 0)
(2.90628 0.00661101 0)
(2.89302 0.00570095 0)
(2.88072 0.0091575 0)
(2.86792 0.0127997 0)
(2.85344 0.013683 0)
(2.83899 0.0110851 0)
(2.82857 0.00471832 0)
(2.82799 0.0012257 0)
(2.80957 -0.00119406 0)
(2.7932 -0.000255279 0)
(2.7833 0.00146159 0)
(2.77774 0.00162572 0)
(2.78469 0.00301943 0)
(2.80533 0.000230657 0)
(2.81692 0.00334415 0)
(2.80331 0.00333671 0)
(1.78788 0.968209 0)
(2.27358 0.698657 0)
(2.55477 0.255146 0)
(2.6903 0.0177814 0)
(2.76273 -0.184669 0)
(2.75235 -0.462792 0)
(2.69232 -0.573604 0)
(2.74955 -0.538352 0)
(2.7067 -0.376635 0)
(2.67732 -0.228336 0)
(2.64653 -0.168953 0)
(2.64454 -0.126376 0)
(2.6478 -0.0890177 0)
(2.62003 -0.0546792 0)
(2.61797 -0.0290746 0)
(2.63184 -0.0254342 0)
(2.64873 -0.0124672 0)
(2.66066 0.0283956 0)
(2.68692 0.0449029 0)
(2.70256 0.0403182 0)
(2.72578 0.0279632 0)
(2.75476 0.0222435 0)
(2.77874 0.0278957 0)
(2.78651 0.0229654 0)
(2.77906 0.00364971 0)
(2.78821 -0.00869565 0)
(2.80623 -0.0156794 0)
(2.82542 -0.0206613 0)
(2.85068 -0.0198378 0)
(2.87583 -0.0144139 0)
(2.89775 -0.00891721 0)
(2.92014 -0.0118981 0)
(2.94114 -0.0235273 0)
(2.95269 -0.0342046 0)
(2.95114 -0.0280253 0)
(2.95185 -0.01256 0)
(2.96084 -0.00305775 0)
(2.97176 0.00415495 0)
(2.97966 0.0137839 0)
(2.98017 0.0273504 0)
(2.9725 0.0372062 0)
(2.95918 0.0346802 0)
(2.94023 0.0242753 0)
(2.93048 0.0205416 0)
(2.91655 0.0155237 0)
(2.90523 0.00877078 0)
(2.89517 0.0133218 0)
(2.88359 0.0235855 0)
(2.87122 0.0290551 0)
(2.85701 0.0306707 0)
(2.84205 0.0264776 0)
(2.8302 0.0158608 0)
(2.8184 -0.00340841 0)
(2.80169 -0.00418748 0)
(2.79254 -0.00265929 0)
(2.79113 -0.00247161 0)
(2.80144 -0.000295568 0)
(2.81806 -0.000962492 0)
(2.82518 0.0037688 0)
(2.81169 0.00410876 0)
(1.70564 0.917066 0)
(2.02939 0.815309 0)
(2.308 0.566151 0)
(2.53399 0.236937 0)
(2.6239 0.146951 0)
(2.68232 0.00602035 0)
(2.71666 -0.186637 0)
(2.75369 -0.190106 0)
(2.7776 -0.252432 0)
(2.7692 -0.277331 0)
(2.75683 -0.312673 0)
(2.76597 -0.305476 0)
(2.75027 -0.236027 0)
(2.71895 -0.171963 0)
(2.70321 -0.119368 0)
(2.71127 -0.0933392 0)
(2.70957 -0.0566636 0)
(2.69968 0.0153959 0)
(2.71372 0.0483792 0)
(2.7326 0.0345388 0)
(2.7442 0.0221164 0)
(2.75912 0.00714583 0)
(2.77574 0.00551417 0)
(2.78617 0.00821303 0)
(2.78647 0.00333668 0)
(2.80589 -0.00311011 0)
(2.82485 -0.0111206 0)
(2.84106 -0.0182863 0)
(2.86224 -0.0172334 0)
(2.88615 -0.00821642 0)
(2.90789 0.00129466 0)
(2.92686 0.00519755 0)
(2.94094 0.00578251 0)
(2.94544 0.00113038 0)
(2.94802 -0.00471984 0)
(2.95715 -0.00650596 0)
(2.96893 -0.00603408 0)
(2.9801 -0.00295436 0)
(2.98998 0.00286472 0)
(2.99662 0.0117001 0)
(2.99891 0.0222941 0)
(2.99189 0.0311604 0)
(2.97016 0.0388825 0)
(2.95007 0.0430385 0)
(2.94351 0.0436375 0)
(2.93337 0.0407592 0)
(2.92743 0.0363877 0)
(2.92158 0.0393698 0)
(2.91096 0.0414548 0)
(2.89809 0.0401426 0)
(2.88532 0.0364749 0)
(2.87272 0.0372655 0)
(2.85228 0.0304061 0)
(2.83134 0.0247656 0)
(2.82056 0.0154371 0)
(2.82326 0.00683376 0)
(2.83583 0.0148584 0)
(2.84598 0.0123337 0)
(2.84804 0.022276 0)
(2.83682 0.0248356 0)
(1.62736 0.891807 0)
(1.91605 0.778097 0)
(2.15012 0.610301 0)
(2.3073 0.474714 0)
(2.43319 0.364804 0)
(2.57446 0.177555 0)
(2.6638 -0.0604345 0)
(2.70969 -0.128595 0)
(2.73913 -0.148478 0)
(2.80089 -0.26799 0)
(2.79575 -0.381742 0)
(2.84833 -0.386698 0)
(2.83803 -0.322208 0)
(2.82197 -0.253689 0)
(2.78962 -0.222338 0)
(2.77236 -0.202049 0)
(2.76624 -0.162534 0)
(2.75682 -0.0915934 0)
(2.75892 -0.0548677 0)
(2.76503 -0.042474 0)
(2.77567 -0.0200914 0)
(2.77751 -0.00457148 0)
(2.77717 0.0205053 0)
(2.78544 0.0478096 0)
(2.80178 0.0452794 0)
(2.81968 0.0430699 0)
(2.83528 0.0381493 0)
(2.8508 0.023249 0)
(2.86631 0.0116079 0)
(2.88519 0.0107276 0)
(2.90549 0.00444952 0)
(2.92121 -0.0118221 0)
(2.93011 -0.0248885 0)
(2.94021 -0.0238798 0)
(2.95348 -0.0153547 0)
(2.9662 -0.00820859 0)
(2.97666 0.00250314 0)
(2.98599 0.0199826 0)
(2.99714 0.0376015 0)
(3.0081 0.0473998 0)
(3.01601 0.0495856 0)
(3.0129 0.0440311 0)
(2.99529 0.0367152 0)
(2.98335 0.038552 0)
(2.98139 0.0408583 0)
(2.97865 0.0460244 0)
(2.97458 0.0542831 0)
(2.96813 0.0596653 0)
(2.9585 0.0575487 0)
(2.94576 0.0487052 0)
(2.93548 0.0310516 0)
(2.92915 0.0173296 0)
(2.91464 0.0126685 0)
(2.88978 0.0215463 0)
(2.87303 0.0298423 0)
(2.87016 0.0338139 0)
(2.87893 0.0414305 0)
(2.88198 0.0304492 0)
(2.88289 0.0343887 0)
(2.87306 0.0330907 0)
(1.59804 0.876979 0)
(1.80954 0.810643 0)
(2.01516 0.686907 0)
(2.18711 0.55131 0)
(2.31776 0.458303 0)
(2.43831 0.340331 0)
(2.53661 0.176762 0)
(2.61586 0.0551456 0)
(2.67277 0.0181446 0)
(2.71794 -0.0603778 0)
(2.74238 -0.187383 0)
(2.77891 -0.21358 0)
(2.81199 -0.184687 0)
(2.80373 -0.207286 0)
(2.80051 -0.229322 0)
(2.81892 -0.257885 0)
(2.81643 -0.240407 0)
(2.80323 -0.191616 0)
(2.78867 -0.142327 0)
(2.78738 -0.12581 0)
(2.79545 -0.103094 0)
(2.79925 -0.0689477 0)
(2.79309 -0.0307432 0)
(2.80162 -0.00725774 0)
(2.82154 0.0146299 0)
(2.83585 0.0437323 0)
(2.83828 0.0559267 0)
(2.84596 0.0553255 0)
(2.85584 0.0475718 0)
(2.8716 0.0390734 0)
(2.8929 0.0319046 0)
(2.9133 0.0114539 0)
(2.92832 -0.0221895 0)
(2.93754 -0.037908 0)
(2.95355 -0.0303324 0)
(2.97183 -0.0135145 0)
(2.98431 0.00871719 0)
(2.99518 0.0321752 0)
(3.00881 0.0508817 0)
(3.02132 0.060628 0)
(3.02591 0.0606302 0)
(3.0163 0.0518186 0)
(3.01014 0.0342444 0)
(3.00924 0.0268866 0)
(3.01117 0.0174449 0)
(3.01267 0.0167938 0)
(3.01334 0.0200543 0)
(3.00739 0.0117304 0)
(2.99583 -0.0041663 0)
(2.98047 -0.0412462 0)
(2.98552 -0.0765963 0)
(2.98196 -0.0753029 0)
(2.97075 -0.0620922 0)
(2.95337 -0.0424696 0)
(2.93478 -0.0321086 0)
(2.92958 -0.0286307 0)
(2.93209 -0.0154327 0)
(2.93291 -0.0202433 0)
(2.92845 -0.00871376 0)
(2.92366 0.00814695 0)
(1.61303 0.850164 0)
(1.78465 0.802796 0)
(1.9464 0.724713 0)
(2.08261 0.6427 0)
(2.21337 0.557841 0)
(2.35166 0.426037 0)
(2.44252 0.2804 0)
(2.49964 0.231975 0)
(2.55206 0.220795 0)
(2.63481 0.114101 0)
(2.69253 -0.0566337 0)
(2.7191 -0.131595 0)
(2.75517 -0.122393 0)
(2.78755 -0.168988 0)
(2.80968 -0.245594 0)
(2.8032 -0.30225 0)
(2.83606 -0.288709 0)
(2.83786 -0.234481 0)
(2.82643 -0.202418 0)
(2.81798 -0.193622 0)
(2.81365 -0.172395 0)
(2.81057 -0.129328 0)
(2.80728 -0.0865947 0)
(2.81004 -0.0677728 0)
(2.82415 -0.049462 0)
(2.83985 -0.0128019 0)
(2.84153 0.0127288 0)
(2.85091 0.0261316 0)
(2.85614 0.0412714 0)
(2.86032 0.0463241 0)
(2.87181 0.0499298 0)
(2.8921 0.0370792 0)
(2.91375 0.00975583 0)
(2.93214 -0.0103364 0)
(2.95287 -0.0133874 0)
(2.9745 -0.00231131 0)
(2.98989 0.010768 0)
(3.00175 0.0205912 0)
(3.01476 0.0154613 0)
(3.01661 0.00848928 0)
(3.01037 -0.0116296 0)
(3.00583 -0.0290256 0)
(3.00418 -0.0582265 0)
(3.00681 -0.0902655 0)
(3.01007 -0.123682 0)
(3.01442 -0.151208 0)
(3.01479 -0.18217 0)
(3.00842 -0.212037 0)
(2.98827 -0.255998 0)
(2.97638 -0.317339 0)
(2.99475 -0.355882 0)
(3.01229 -0.353089 0)
(3.01402 -0.334609 0)
(3.00969 -0.282383 0)
(3.01019 -0.247137 0)
(3.00036 -0.22247 0)
(2.9904 -0.219436 0)
(2.99099 -0.214833 0)
(2.99057 -0.207164 0)
(3.01583 -0.161263 0)
(1.60874 0.88942 0)
(1.74271 0.846544 0)
(1.87769 0.783683 0)
(2.02586 0.688447 0)
(2.14331 0.613843 0)
(2.22452 0.553106 0)
(2.32971 0.43402 0)
(2.43481 0.306043 0)
(2.51215 0.25543 0)
(2.56984 0.211687 0)
(2.61758 0.104941 0)
(2.64778 0.0268628 0)
(2.69142 0.0170262 0)
(2.73303 -0.0162807 0)
(2.7649 -0.112579 0)
(2.76115 -0.177789 0)
(2.78718 -0.168934 0)
(2.80901 -0.164586 0)
(2.81072 -0.177327 0)
(2.81487 -0.201386 0)
(2.82569 -0.208864 0)
(2.83806 -0.190352 0)
(2.83706 -0.157853 0)
(2.82816 -0.117982 0)
(2.83382 -0.0942757 0)
(2.84103 -0.0572153 0)
(2.84904 -0.0181085 0)
(2.8599 -0.0122463 0)
(2.86129 0.00601394 0)
(2.86343 0.0136611 0)
(2.86842 0.0274183 0)
(2.88196 0.0388483 0)
(2.90024 0.0363771 0)
(2.91961 0.0269104 0)
(2.94164 0.0255367 0)
(2.96524 0.0141063 0)
(2.98403 -0.00757272 0)
(2.98289 -0.0568872 0)
(2.98237 -0.111504 0)
(2.9722 -0.177257 0)
(2.95888 -0.250331 0)
(2.94957 -0.317811 0)
(2.9501 -0.370818 0)
(2.96001 -0.411075 0)
(2.97049 -0.437706 0)
(2.97387 -0.459673 0)
(2.9756 -0.473903 0)
(2.97935 -0.473172 0)
(2.96734 -0.497688 0)
(2.9648 -0.54333 0)
(2.97939 -0.562695 0)
(3.00972 -0.542603 0)
(3.01723 -0.525108 0)
(3.02753 -0.483244 0)
(3.04555 -0.439448 0)
(3.0468 -0.419896 0)
(3.04794 -0.423709 0)
(3.05487 -0.431618 0)
(3.05331 -0.437494 0)
(3.09523 -0.400846 0)
(1.64199 0.888316 0)
(1.74768 0.850781 0)
(1.87153 0.789623 0)
(1.9798 0.738238 0)
(2.07676 0.689351 0)
(2.19188 0.592336 0)
(2.28785 0.484739 0)
(2.34487 0.435936 0)
(2.40275 0.406651 0)
(2.49027 0.327633 0)
(2.56094 0.206502 0)
(2.58716 0.12867 0)
(2.62574 0.125197 0)
(2.65711 0.12776 0)
(2.70609 0.0326852 0)
(2.7283 -0.0882266 0)
(2.75218 -0.11428 0)
(2.7784 -0.135037 0)
(2.8088 -0.172311 0)
(2.81867 -0.224638 0)
(2.82921 -0.246895 0)
(2.86126 -0.225823 0)
(2.86403 -0.177263 0)
(2.84981 -0.158681 0)
(2.8603 -0.145957 0)
(2.87127 -0.127809 0)
(2.8783 -0.0898621 0)
(2.88211 -0.0647457 0)
(2.87732 -0.0547647 0)
(2.86636 -0.0186064 0)
(2.87791 -0.00613903 0)
(2.88757 0.00772117 0)
(2.90289 0.0112249 0)
(2.91133 -0.00356684 0)
(2.91224 -0.038925 0)
(2.90384 -0.109093 0)
(2.89082 -0.209724 0)
(2.88023 -0.324966 0)
(2.87794 -0.431698 0)
(2.87915 -0.52102 0)
(2.89035 -0.572796 0)
(2.8945 -0.599039 0)
(2.89951 -0.617164 0)
(2.91597 -0.607864 0)
(2.93235 -0.616303 0)
(2.94084 -0.61592 0)
(2.95245 -0.605995 0)
(2.96583 -0.591963 0)
(2.97563 -0.591851 0)
(2.98361 -0.600976 0)
(2.99529 -0.606929 0)
(3.01427 -0.58229 0)
(3.02479 -0.54036 0)
(3.04078 -0.505839 0)
(3.06173 -0.479714 0)
(3.0748 -0.476552 0)
(3.08208 -0.490865 0)
(3.09149 -0.501198 0)
(3.09023 -0.521032 0)
(3.10775 -0.500062 0)
(1.65179 0.939335 0)
(1.75302 0.896861 0)
(1.8572 0.843181 0)
(1.96249 0.782436 0)
(2.05697 0.725055 0)
(2.13933 0.669918 0)
(2.22154 0.59435 0)
(2.31121 0.502206 0)
(2.37764 0.4323 0)
(2.42771 0.40912 0)
(2.46912 0.358979 0)
(2.53408 0.247794 0)
(2.58041 0.187417 0)
(2.62555 0.167143 0)
(2.67098 0.10131 0)
(2.68645 0.0297977 0)
(2.70642 0.0159965 0)
(2.72858 0.00993557 0)
(2.77773 -0.0486643 0)
(2.7967 -0.115483 0)
(2.80885 -0.142574 0)
(2.83794 -0.12253 0)
(2.84753 -0.12605 0)
(2.85752 -0.151233 0)
(2.86396 -0.175442 0)
(2.89684 -0.168925 0)
(2.90878 -0.148256 0)
(2.91043 -0.134245 0)
(2.90083 -0.122484 0)
(2.88227 -0.0882809 0)
(2.87556 -0.0908876 0)
(2.88714 -0.0941864 0)
(2.88644 -0.134599 0)
(2.85425 -0.226291 0)
(2.80829 -0.34367 0)
(2.77401 -0.459444 0)
(2.77173 -0.545316 0)
(2.78532 -0.608458 0)
(2.82063 -0.640534 0)
(2.85245 -0.64961 0)
(2.87875 -0.672282 0)
(2.88915 -0.668488 0)
(2.90063 -0.662727 0)
(2.9076 -0.65679 0)
(2.92121 -0.653616 0)
(2.9399 -0.647172 0)
(2.96354 -0.622314 0)
(2.99548 -0.597387 0)
(3.01974 -0.583927 0)
(3.03523 -0.576876 0)
(3.0475 -0.576043 0)
(3.05168 -0.54729 0)
(3.05902 -0.497543 0)
(3.07406 -0.469765 0)
(3.09054 -0.454437 0)
(3.10683 -0.4513 0)
(3.11199 -0.469617 0)
(3.11382 -0.486457 0)
(3.11069 -0.517259 0)
(3.09619 -0.487577 0)
(1.67781 0.969937 0)
(1.77971 0.916116 0)
(1.86639 0.870432 0)
(1.94057 0.839581 0)
(2.03084 0.78435 0)
(2.12679 0.702853 0)
(2.19745 0.645329 0)
(2.23867 0.615688 0)
(2.30866 0.548462 0)
(2.39468 0.456338 0)
(2.45336 0.395442 0)
(2.48262 0.352297 0)
(2.5135 0.314229 0)
(2.55614 0.290155 0)
(2.62131 0.216018 0)
(2.66404 0.109822 0)
(2.68674 0.0698139 0)
(2.70844 0.0797145 0)
(2.73978 0.0511609 0)
(2.78241 -0.0271831 0)
(2.80358 -0.0775544 0)
(2.8267 -0.073018 0)
(2.84871 -0.108192 0)
(2.86645 -0.169309 0)
(2.87638 -0.201461 0)
(2.90338 -0.204224 0)
(2.92319 -0.180838 0)
(2.91958 -0.17865 0)
(2.90792 -0.18755 0)
(2.88619 -0.222897 0)
(2.8553 -0.334386 0)
(2.83332 -0.45965 0)
(2.81027 -0.540782 0)
(2.76996 -0.602731 0)
(2.73559 -0.660926 0)
(2.75299 -0.68924 0)
(2.78421 -0.723449 0)
(2.80793 -0.713116 0)
(2.84672 -0.695329 0)
(2.87743 -0.670586 0)
(2.89292 -0.657673 0)
(2.91209 -0.645194 0)
(2.93149 -0.628634 0)
(2.95146 -0.615302 0)
(2.96508 -0.612891 0)
(2.9789 -0.605926 0)
(3.00318 -0.577399 0)
(3.04219 -0.54683 0)
(3.06961 -0.528852 0)
(3.08831 -0.522438 0)
(3.0985 -0.522411 0)
(3.09945 -0.511549 0)
(3.0939 -0.473531 0)
(3.10519 -0.440556 0)
(3.123 -0.429516 0)
(3.13611 -0.435902 0)
(3.13518 -0.45559 0)
(3.12763 -0.471745 0)
(3.1176 -0.470649 0)
(3.098 -0.438007 0)
(1.73452 0.997881 0)
(1.78135 0.971484 0)
(1.8697 0.915689 0)
(1.95634 0.857148 0)
(2.02681 0.8097 0)
(2.09958 0.762124 0)
(2.17199 0.714308 0)
(2.23442 0.65651 0)
(2.29516 0.585117 0)
(2.34591 0.538495 0)
(2.39054 0.516195 0)
(2.45063 0.447673 0)
(2.51151 0.349066 0)
(2.54675 0.308603 0)
(2.59006 0.280294 0)
(2.63049 0.217438 0)
(2.65255 0.191205 0)
(2.67273 0.176044 0)
(2.72998 0.104612 0)
(2.75637 0.0362685 0)
(2.77628 0.0278629 0)
(2.79375 0.0490281 0)
(2.83386 0.00823644 0)
(2.859 -0.0749347 0)
(2.86534 -0.110699 0)
(2.88364 -0.125157 0)
(2.8814 -0.157205 0)
(2.86948 -0.233568 0)
(2.82607 -0.370872 0)
(2.77455 -0.554337 0)
(2.74623 -0.716576 0)
(2.75633 -0.800637 0)
(2.7457 -0.831083 0)
(2.74407 -0.799711 0)
(2.75406 -0.787904 0)
(2.79643 -0.778695 0)
(2.81859 -0.776868 0)
(2.84134 -0.758805 0)
(2.8648 -0.720026 0)
(2.90085 -0.663759 0)
(2.91128 -0.630573 0)
(2.93487 -0.611345 0)
(2.95794 -0.583677 0)
(2.9887 -0.571052 0)
(3.00953 -0.556786 0)
(3.02004 -0.548725 0)
(3.03839 -0.531697 0)
(3.07129 -0.499185 0)
(3.09912 -0.480319 0)
(3.12034 -0.467434 0)
(3.1267 -0.460301 0)
(3.12452 -0.456306 0)
(3.11652 -0.438079 0)
(3.12395 -0.411618 0)
(3.14288 -0.398673 0)
(3.15433 -0.389953 0)
(3.14999 -0.38083 0)
(3.13701 -0.382439 0)
(3.12799 -0.376033 0)
(3.11493 -0.369791 0)
(1.94067 0.948113 0)
(1.82806 1.00062 0)
(1.87195 0.972 0)
(1.94275 0.923218 0)
(2.0227 0.860129 0)
(2.10878 0.777273 0)
(2.16586 0.746622 0)
(2.19757 0.740436 0)
(2.25999 0.67747 0)
(2.34173 0.575102 0)
(2.39776 0.520782 0)
(2.42715 0.515033 0)
(2.4563 0.478545 0)
(2.50634 0.414318 0)
(2.57346 0.333793 0)
(2.61721 0.256216 0)
(2.64065 0.233785 0)
(2.65767 0.251527 0)
(2.67909 0.230021 0)
(2.7282 0.146952 0)
(2.76019 0.0964364 0)
(2.784 0.102317 0)
(2.83134 0.0457735 0)
(2.83166 -0.0204788 0)
(2.81626 -0.112834 0)
(2.80339 -0.239971 0)
(2.76257 -0.40164 0)
(2.73291 -0.545764 0)
(2.66472 -0.737814 0)
(2.68936 -0.796733 0)
(2.67928 -0.886466 0)
(2.70581 -0.905345 0)
(2.72245 -0.886415 0)
(2.75164 -0.839874 0)
(2.79599 -0.798824 0)
(2.84223 -0.777152 0)
(2.87411 -0.769759 0)
(2.89883 -0.753405 0)
(2.93176 -0.712449 0)
(2.9574 -0.643411 0)
(2.95757 -0.617812 0)
(2.97667 -0.590168 0)
(3.01125 -0.562849 0)
(3.02295 -0.548353 0)
(3.04016 -0.53008 0)
(3.04904 -0.513919 0)
(3.05857 -0.500976 0)
(3.08734 -0.468909 0)
(3.11 -0.447898 0)
(3.13399 -0.433505 0)
(3.13946 -0.423365 0)
(3.14199 -0.415792 0)
(3.14144 -0.403051 0)
(3.1436 -0.378361 0)
(3.15454 -0.356896 0)
(3.16989 -0.357283 0)
(3.17006 -0.331228 0)
(3.1655 -0.300836 0)
(3.16932 -0.275131 0)
(3.12802 -0.274363 0)
(2.45908 0.633759 0)
(1.99578 0.953521 0)
(1.91771 0.996347 0)
(1.94821 0.971845 0)
(2.0219 0.911708 0)
(2.09374 0.844452 0)
(2.14548 0.812688 0)
(2.207 0.76369 0)
(2.27504 0.685067 0)
(2.31273 0.644538 0)
(2.3423 0.636436 0)
(2.40376 0.583901 0)
(2.47074 0.479647 0)
(2.5027 0.442454 0)
(2.52225 0.437643 0)
(2.56941 0.379466 0)
(2.60685 0.329216 0)
(2.64011 0.316352 0)
(2.69085 0.258698 0)
(2.7179 0.181032 0)
(2.7292 0.185791 0)
(2.76459 0.173156 0)
(2.74753 0.0849687 0)
(2.72657 -0.0895511 0)
(2.67238 -0.336564 0)
(2.65176 -0.509412 0)
(2.61881 -0.657287 0)
(2.60414 -0.75046 0)
(2.64599 -0.793877 0)
(2.66789 -0.822484 0)
(2.69954 -0.848778 0)
(2.72996 -0.847771 0)
(2.76842 -0.822931 0)
(2.81128 -0.785927 0)
(2.85615 -0.742623 0)
(2.89767 -0.713722 0)
(2.92683 -0.713391 0)
(2.94558 -0.709803 0)
(2.97265 -0.681514 0)
(2.99982 -0.634654 0)
(3.01145 -0.601405 0)
(3.02987 -0.584465 0)
(3.04762 -0.56365 0)
(3.06251 -0.53743 0)
(3.07846 -0.5177 0)
(3.10357 -0.486894 0)
(3.10843 -0.469766 0)
(3.12075 -0.445815 0)
(3.14409 -0.417489 0)
(3.16149 -0.394972 0)
(3.16572 -0.382674 0)
(3.17286 -0.367381 0)
(3.17809 -0.351151 0)
(3.18604 -0.339087 0)
(3.19115 -0.305964 0)
(3.20112 -0.289362 0)
(3.20294 -0.263831 0)
(3.20091 -0.252101 0)
(3.19154 -0.227635 0)
(3.1538 -0.207621 0)
(2.94151 0.118699 0)
(2.44491 0.660633 0)
(2.05684 0.945043 0)
(1.99302 0.991876 0)
(2.01496 0.969818 0)
(2.07893 0.911762 0)
(2.16026 0.838679 0)
(2.20541 0.814019 0)
(2.24839 0.77016 0)
(2.30825 0.698458 0)
(2.35868 0.648416 0)
(2.39864 0.618711 0)
(2.43413 0.583253 0)
(2.47338 0.54136 0)
(2.52859 0.476655 0)
(2.57495 0.409696 0)
(2.59466 0.376193 0)
(2.61821 0.39361 0)
(2.65897 0.374062 0)
(2.68028 0.28775 0)
(2.67449 0.15776 0)
(2.66177 0.0111268 0)
(2.58965 -0.214097 0)
(2.57438 -0.406914 0)
(2.56148 -0.566794 0)
(2.55125 -0.680363 0)
(2.59496 -0.695932 0)
(2.62064 -0.695167 0)
(2.664 -0.711857 0)
(2.71693 -0.723896 0)
(2.76383 -0.721088 0)
(2.79896 -0.707587 0)
(2.83128 -0.689868 0)
(2.86959 -0.669321 0)
(2.91153 -0.652641 0)
(2.95342 -0.635355 0)
(2.98686 -0.635436 0)
(2.99652 -0.637128 0)
(3.01435 -0.605888 0)
(3.02609 -0.573488 0)
(3.0376 -0.553234 0)
(3.05682 -0.537458 0)
(3.06329 -0.528812 0)
(3.0713 -0.519887 0)
(3.09259 -0.509066 0)
(3.11391 -0.49206 0)
(3.13212 -0.469194 0)
(3.14001 -0.454989 0)
(3.14492 -0.436334 0)
(3.16708 -0.41193 0)
(3.18253 -0.401183 0)
(3.19688 -0.383472 0)
(3.20286 -0.353239 0)
(3.21624 -0.326193 0)
(3.22873 -0.297416 0)
(3.2327 -0.271143 0)
(3.23311 -0.257053 0)
(3.22752 -0.237873 0)
(3.22044 -0.220409 0)
(3.18772 -0.175814 0)
(2.99873 0.00542253 0)
(2.9278 0.139823 0)
(2.45264 0.662066 0)
(2.12234 0.930669 0)
(2.06352 0.983044 0)
(2.07887 0.967006 0)
(2.13788 0.917635 0)
(2.19775 0.868475 0)
(2.26991 0.777239 0)
(2.30263 0.7468 0)
(2.31716 0.747761 0)
(2.38118 0.691978 0)
(2.44534 0.594674 0)
(2.48659 0.546977 0)
(2.50765 0.558852 0)
(2.51679 0.53367 0)
(2.57042 0.466961 0)
(2.59604 0.402754 0)
(2.59477 0.283571 0)
(2.58834 0.0995649 0)
(2.55312 -0.0972518 0)
(2.48519 -0.320071 0)
(2.46149 -0.498227 0)
(2.49941 -0.578263 0)
(2.52383 -0.645916 0)
(2.5736 -0.651394 0)
(2.6167 -0.644428 0)
(2.66393 -0.629666 0)
(2.71012 -0.62 0)
(2.75748 -0.613438 0)
(2.80612 -0.593333 0)
(2.84286 -0.569234 0)
(2.8658 -0.555953 0)
(2.88728 -0.545063 0)
(2.91616 -0.537751 0)
(2.95012 -0.532492 0)
(2.97976 -0.535132 0)
(2.99667 -0.532024 0)
(3.00695 -0.513127 0)
(3.01988 -0.492385 0)
(3.03803 -0.475928 0)
(3.06023 -0.462103 0)
(3.07996 -0.45046 0)
(3.09261 -0.453008 0)
(3.10027 -0.458869 0)
(3.11329 -0.447985 0)
(3.12682 -0.426779 0)
(3.1359 -0.409386 0)
(3.14431 -0.403538 0)
(3.16193 -0.38996 0)
(3.19282 -0.381208 0)
(3.20365 -0.374524 0)
(3.21749 -0.36284 0)
(3.22242 -0.353746 0)
(3.2283 -0.326692 0)
(3.23541 -0.303114 0)
(3.23891 -0.293183 0)
(3.23712 -0.277265 0)
(3.23773 -0.269647 0)
(3.21614 -0.233175 0)
(2.99999 2.67468e-05 0)
(2.99813 0.00728055 0)
(2.92365 0.14035 0)
(2.48451 0.640579 0)
(2.21913 0.894277 0)
(2.13204 0.96983 0)
(2.13239 0.969226 0)
(2.17025 0.935397 0)
(2.23847 0.865007 0)
(2.29592 0.793908 0)
(2.33359 0.767915 0)
(2.39197 0.72179 0)
(2.43511 0.661749 0)
(2.46438 0.63705 0)
(2.48832 0.615062 0)
(2.51454 0.552827 0)
(2.51696 0.443217 0)
(2.51139 0.253627 0)
(2.45907 -0.0191987 0)
(2.47066 -0.212268 0)
(2.432 -0.379806 0)
(2.46653 -0.444237 0)
(2.48698 -0.476302 0)
(2.51643 -0.494621 0)
(2.56693 -0.492857 0)
(2.62297 -0.48367 0)
(2.68036 -0.470784 0)
(2.71855 -0.460142 0)
(2.74893 -0.465086 0)
(2.79374 -0.468073 0)
(2.84379 -0.460308 0)
(2.8827 -0.450146 0)
(2.90741 -0.448594 0)
(2.92363 -0.449006 0)
(2.94098 -0.448835 0)
(2.96487 -0.449314 0)
(2.99036 -0.448183 0)
(3.00816 -0.436611 0)
(3.01794 -0.426796 0)
(3.03308 -0.414655 0)
(3.0521 -0.398388 0)
(3.06981 -0.389432 0)
(3.09071 -0.38737 0)
(3.11856 -0.390119 0)
(3.13398 -0.39224 0)
(3.13791 -0.370709 0)
(3.14375 -0.34829 0)
(3.15081 -0.332165 0)
(3.16504 -0.32461 0)
(3.1739 -0.326627 0)
(3.18535 -0.324339 0)
(3.19462 -0.322988 0)
(3.20114 -0.316803 0)
(3.20531 -0.311598 0)
(3.20721 -0.302084 0)
(3.21097 -0.286228 0)
(3.21539 -0.282847 0)
(3.21664 -0.276928 0)
(3.22324 -0.265649 0)
(3.21874 -0.219332 0)
(3 2.85913e-08 0)
(2.99999 4.20733e-05 0)
(2.99795 0.0071726 0)
(2.92304 0.129645 0)
(2.58663 0.567818 0)
(2.29073 0.865418 0)
(2.1707 0.973928 0)
(2.17558 0.971053 0)
(2.21634 0.933552 0)
(2.29205 0.852623 0)
(2.34688 0.810973 0)
(2.39677 0.777222 0)
(2.43195 0.712453 0)
(2.45064 0.684297 0)
(2.4468 0.570909 0)
(2.44146 0.339429 0)
(2.40598 0.0398214 0)
(2.40195 -0.179108 0)
(2.35344 -0.354072 0)
(2.37182 -0.457222 0)
(2.41022 -0.466178 0)
(2.44438 -0.463065 0)
(2.49589 -0.447697 0)
(2.55153 -0.409407 0)
(2.59874 -0.378945 0)
(2.63112 -0.36251 0)
(2.67189 -0.33306 0)
(2.7151 -0.325479 0)
(2.7581 -0.333865 0)
(2.79213 -0.334432 0)
(2.81251 -0.323172 0)
(2.82693 -0.312974 0)
(2.84797 -0.313563 0)
(2.87975 -0.321306 0)
(2.91329 -0.325557 0)
(2.94077 -0.319765 0)
(2.96062 -0.31099 0)
(2.97794 -0.314047 0)
(2.99357 -0.319667 0)
(3.00665 -0.31344 0)
(3.02228 -0.300685 0)
(3.04118 -0.2962 0)
(3.06198 -0.301902 0)
(3.07995 -0.306735 0)
(3.09645 -0.301887 0)
(3.1072 -0.288952 0)
(3.11099 -0.278292 0)
(3.11562 -0.268165 0)
(3.12204 -0.269432 0)
(3.13091 -0.266399 0)
(3.15598 -0.263439 0)
(3.16986 -0.261114 0)
(3.17887 -0.256061 0)
(3.18601 -0.252049 0)
(3.18729 -0.244566 0)