/*--------------------------------*- C++ -*----------------------------------*\
  =========                 |
  \\      /  F ield         | OpenFOAM: The Open Source CFD Toolbox
   \\    /   O peration     | Website:  https://openfoam.org
    \\  /    A nd           | Version:  9
     \\/     M anipulation  |
\*---------------------------------------------------------------------------*/
FoamFile
{
    format      ascii;
    class       surfaceScalarField;
    location    "47.6";
    object      phi;
}
// * * * * * * * * * * * * * * * * * * * * * * * * * * * * * * * * * * * * * //

dimensions      [0 3 -1 0 0 0 0];

internalField   nonuniform List<scalar> 
16735
(
-0.00298949
0.00298897
5.19776e-07
-0.00897794
0.00598766
7.82782e-07
-0.0168447
0.00786599
7.39044e-07
-0.0258653
0.00902005
5.64127e-07
-0.0359317
0.0100661
2.7948e-07
-0.0464652
0.0105337
-1.64233e-07
-0.0585566
0.0120923
-9.02324e-07
-0.0695181
0.0109635
-2.00195e-06
-0.0842638
0.0147494
-3.65207e-06
0.0111126
-5.97204e-06
-0.0953705
-0.00293827
0.00592724
-0.00883129
0.0118807
-0.0165615
0.0155962
-0.0253957
0.0178542
-0.0352125
0.019883
-0.0454019
0.020723
-0.0570489
0.0237394
-0.0673665
0.021281
-0.0813973
0.0287802
0.0209659
-0.0912506
-0.002838
0.00876524
-0.00854307
0.0175858
-0.0160033
0.0230565
-0.0244678
0.0263187
-0.0337867
0.0292019
-0.0432938
0.0302302
-0.0540432
0.0344888
-0.0630845
0.0303223
-0.0756977
0.0413934
0.0283625
-0.0830943
-0.002693
0.0114582
-0.00812323
0.023016
-0.015186
0.0301193
-0.0231039
0.0342365
-0.0316788
0.0377769
-0.0401776
0.038729
-0.0495576
0.0438687
-0.0567061
0.0374708
-0.0672092
0.0518966
0.032191
-0.0710378
-0.00250946
0.0139677
-0.00758619
0.0280927
-0.0141328
0.0366659
-0.0213363
0.04144
-0.0289251
0.0453657
-0.0361064
0.0459103
-0.0436154
0.0513777
-0.0482649
0.0421203
-0.055943
0.0595747
0.031459
-0.055211
-0.00229524
0.0162629
-0.00695024
0.0327477
-0.0128718
0.0425874
-0.0192062
0.0477745
-0.0255718
0.0517313
-0.031148
0.0514865
-0.0362436
0.0564732
-0.0377879
0.0436646
-0.0418097
0.0635964
0.0252862
-0.0356369
-0.00205948
0.0183224
-0.00623674
0.036925
-0.0114361
0.0477868
-0.0167608
0.0530991
-0.0216719
0.0566425
-0.0253802
0.0551947
-0.0274679
0.0585609
-0.0253084
0.0415051
-0.0245398
0.0628279
0.0129018
-0.0121554
-0.00181218
0.0201346
-0.00546906
0.0405819
-0.00986255
0.0521803
-0.0140499
0.0572865
-0.0172796
0.0598721
-0.0188805
0.0567956
-0.0172986
0.056979
-0.0109233
0.0351297
-0.00351538
0.05542
-0.00701842
0.0164049
-0.00156369
0.0216983
-0.00467126
0.0436894
-0.00818844
0.0556974
-0.0111213
0.0602193
-0.0124408
0.0611916
-0.0117084
0.0560633
-0.00566125
0.0509319
0.00546904
0.0239995
0.0205934
0.0402957
-0.0375547
0.0511297
-0.0013241
0.0230224
-0.00386648
0.0462318
-0.00644914
0.0582801
-0.00801368
0.0617839
-0.00717828
0.0603562
-0.0038986
0.0527836
0.00717196
0.0398613
0.0243082
0.00686326
0.0490281
0.0155757
-0.0811651
0.0926385
-0.00110258
0.024125
-0.00307518
0.0482044
-0.00467449
0.0598794
-0.00475185
0.0618613
-0.00144638
0.0570508
0.00488388
0.0464533
0.0214489
0.0232963
0.0450669
-0.0167547
0.0820267
-0.0213841
-0.140409
0.141271
-0.000906659
0.0250316
-0.00231292
0.0496107
-0.00288405
0.0604505
-0.00135009
0.0603273
0.00458392
0.0511168
0.0148526
0.0361847
0.0377921
0.000356814
0.0686214
-0.0475841
0.119838
-0.0726002
-0.216496
0.195924
-0.000741607
0.0257732
-0.00158829
0.0504573
-0.00107792
0.0599402
0.00229554
0.0569538
0.0111863
0.042226
0.0262156
0.0211554
0.0565315
-0.0299591
0.0963262
-0.0873788
0.16279
-0.139064
-0.307456
0.253749
-0.000609896
0.0263831
-0.00090113
0.0507486
0.000747433
0.0582916
0.00621074
0.0514905
0.0185576
0.0298791
0.0395312
0.00018175
0.0780251
-0.068453
0.129249
-0.138602
0.210474
-0.220289
-0.407576
0.310595
-0.000511864
0.026895
-0.000238877
0.0504756
0.00262995
0.0554228
0.0104834
0.0436371
0.0269318
0.0134307
0.0553101
-0.0281966
0.102638
-0.115781
0.167008
-0.202973
0.260435
-0.313715
-0.50912
0.361978
-0.000438455
0.0273335
0.000417264
0.0496199
0.00466778
0.0511723
0.0153076
0.0329972
0.0366484
-0.00791007
0.0738573
-0.0654055
0.130586
-0.17251
0.207512
-0.279899
0.308047
-0.41425
-0.60522
0.404147
-0.000378658
0.0277121
0.00110811
0.0481331
0.00696339
0.045317
0.0209422
0.0190185
0.0481577
-0.0351256
0.0951562
-0.112404
0.161353
-0.238706
0.247561
-0.366107
0.348374
-0.515063
-0.691727
0.43488
-0.000320143
0.0280323
0.00188535
0.0459276
0.00965262
0.0375497
0.0276935
0.000977546
0.0618983
-0.0693303
0.118825
-0.169331
0.193218
-0.313099
0.283625
-0.456513
0.37826
-0.609699
-0.76723
0.453764
-0.000246106
0.0282784
0.00280872
0.0428728
0.0128954
0.027463
0.0358696
-0.0219966
0.0780604
-0.111521
0.14396
-0.23523
0.22362
-0.392758
0.312758
-0.545652
0.396989
-0.693929
-0.832266
0.462025
-0.000136324
0.0284147
0.00394457
0.0387919
0.0168682
0.0145394
0.0457089
-0.0508374
0.0963393
-0.162151
0.169033
-0.307924
0.250073
-0.473798
0.333411
-0.628991
0.405614
-0.766132
-0.888924
0.462272
3.07209e-05
0.028384
0.00536323
0.0334594
0.021751
-0.00184835
0.0572827
-0.0863691
0.115853
-0.220721
0.192182
-0.384254
0.270864
-0.55248
0.34555
-0.703677
0.407144
-0.827726
-0.944923
0.463143
0.000248588
0.0281354
0.0071391
0.0265689
0.027702
-0.0224113
0.0703851
-0.129052
0.135288
-0.285624
0.211783
-0.460749
0.285265
-0.625962
0.350308
-0.76872
0.405198
-0.882616
-0.993509
0.453784
0.000555573
0.0275798
0.00934978
0.0177747
0.0348062
-0.0478677
0.0844753
-0.178721
0.153226
-0.354374
0.226858
-0.534382
0.29345
-0.692554
0.349881
-0.825151
0.397546
-0.93028
-1.03477
0.43881
0.000961957
0.0266178
0.0120725
0.00666414
0.0430082
-0.0788034
0.0987333
-0.234446
0.168497
-0.424138
0.237123
-0.603008
0.296286
-0.751717
0.344951
-0.873815
0.386497
-0.971827
-1.07172
0.423444
0.00147911
0.0251387
0.015374
-0.00723074
0.0520694
-0.115499
0.112224
-0.2946
0.180401
-0.492315
0.242835
-0.665442
0.294661
-0.803543
0.336691
-0.915845
0.373215
-1.00835
-1.10466
0.406153
0.00212098
0.0230178
0.0192845
-0.0243943
0.061585
-0.157799
0.124099
-0.357114
0.188711
-0.556928
0.244499
-0.72123
0.289523
-0.848567
0.325944
-0.952266
0.358227
-1.04063
-1.13451
0.388076
0.00290902
0.0201087
0.0237662
-0.0452515
0.071045
-0.205078
0.133763
-0.419832
0.193545
-0.61671
0.242735
-0.77042
0.28167
-0.887502
0.313377
-0.983972
0.342158
-1.06941
-1.16167
0.369315
0.00387604
0.0162327
0.0287005
-0.0700759
0.0799025
-0.25628
0.140926
-0.480856
0.195219
-0.671003
0.238166
-0.813367
0.271769
-0.921105
0.299512
-1.01172
0.325285
-1.09519
-1.18642
0.350038
0.00506221
0.0111705
0.0339028
-0.0989165
0.0876579
-0.310035
0.145563
-0.538761
0.194142
-0.719581
0.231357
-0.850583
0.260344
-0.950091
0.284717
-1.03609
0.30786
-1.11833
-1.20895
0.330397
0.00649882
0.00467167
0.0391553
-0.131573
0.0939531
-0.364833
0.147815
-0.592624
0.190743
-0.762509
0.222799
-0.882639
0.247803
-0.975095
0.269265
-1.05755
0.290028
-1.13909
-1.22937
0.31044
0.00818575
-0.00351408
0.0442353
-0.167623
0.0986111
-0.419209
0.147909
-0.641922
0.185436
-0.800035
0.212899
-0.910101
0.234454
-0.996651
0.253346
-1.07644
0.271895
-1.15764
-1.24771
0.290241
0.0100787
-0.0135928
0.0489264
-0.20647
0.101605
-0.471887
0.14611
-0.686427
0.178589
-0.832515
0.201986
-0.933498
0.220528
-1.01519
0.237096
-1.09301
0.253536
-1.17408
-1.26401
0.269835
0.0120975
-0.0256903
0.0530255
-0.247398
0.103004
-0.521865
0.142686
-0.726109
0.170523
-0.860353
0.190324
-0.953299
0.206195
-1.03106
0.220613
-1.10743
0.235007
-1.18848
-1.27827
0.249266
0.0141468
-0.0398371
0.0563612
-0.289613
0.102934
-0.568438
0.137895
-0.76107
0.161508
-0.883966
0.178117
-0.969908
0.191581
-1.04453
0.203966
-1.11982
0.216352
-1.20086
-1.29048
0.228565
0.016139
-0.0559761
0.0588152
-0.332289
0.101548
-0.611171
0.131975
-0.791497
0.151765
-0.903755
0.165525
-0.983668
0.176778
-1.05578
0.187206
-1.13024
0.197606
-1.21126
-1.30065
0.207768
0.0180032
-0.0739793
0.0603318
-0.374617
0.09901
-0.649849
0.12514
-0.817627
0.141474
-0.92009
0.152669
-0.994863
0.161858
-1.06497
0.170377
-1.13876
0.178802
-1.21969
-1.30875
0.186907
0.0196807
-0.09366
0.0609112
-0.415848
0.0954812
-0.684419
0.117577
-0.839723
0.130786
-0.933298
0.139642
-1.00372
0.146872
-1.0722
0.153513
-1.1454
0.15997
-1.22614
-1.31479
0.166015
0.0211189
-0.114779
0.0605928
-0.455322
0.0911142
-0.714941
0.109452
-0.85806
0.119821
-0.943667
0.126519
-1.01042
0.131865
-1.07755
0.136648
-1.15019
0.141139
-1.23064
-1.31878
0.145124
0.0222673
-0.137046
0.059435
-0.49249
0.0860474
-0.741553
0.100902
-0.872915
0.108676
-0.951442
0.113355
-1.0151
0.11687
-1.08106
0.119807
-1.15312
0.122339
-1.23317
-1.32071
0.12427
0.0230828
-0.160129
0.0575236
-0.52693
0.0804072
-0.764437
0.0920444
-0.884552
0.097431
-0.956828
0.100196
-1.01786
0.101917
-1.08278
0.103016
-1.15422
0.103597
-1.23375
-1.32061
0.103494
0.0235366
-0.183666
0.0550382
-0.558432
0.0743118
-0.783711
0.0829749
-0.893215
0.0861467
-0.96
0.0870779
-1.01879
0.087032
-1.08274
0.0862978
-1.15349
0.0849415
-1.23239
-1.31852
0.0828498
0.023617
-0.207283
0.0520445
-0.586859
0.0678659
-0.799532
0.0737724
-0.899121
0.0748733
-0.961101
0.0740316
-1.01795
0.0722379
-1.08094
0.0696764
-1.15092
0.0663949
-1.22911
-1.31442
0.0623025
0.0233291
-0.230612
0.0486143
-0.612145
0.0611599
-0.812078
0.0645034
-0.902465
0.0636504
-0.960248
0.0610825
-1.01538
0.0575569
-1.07742
0.0531774
-1.14655
0.0479742
-1.22391
-1.30832
0.0418694
0.0226941
-0.253306
0.0448213
-0.634272
0.0542735
-0.82153
0.0552225
-0.903414
0.0525102
-0.957536
0.0482531
-1.01113
0.0430091
-1.07217
0.0368264
-1.14036
0.029724
-1.2168
-1.30017
0.021576
0.0217454
-0.275051
0.040736
-0.653262
0.0472579
-0.828052
0.0459733
-0.902129
0.0414795
-0.953042
0.0355636
-1.00521
0.0286132
-1.06522
0.0206375
-1.13239
0.0117081
-1.20788
-1.28983
0.00136452
0.0205236
-0.295575
0.0364239
-0.669163
0.0401704
-0.831798
0.0367923
-0.898751
0.0305813
-0.946831
0.0230314
-0.997659
0.0143871
-1.05658
0.00458787
-1.12259
-0.0060608
-1.19723
-1.2775
-0.0183891
0.0190723
-0.314647
0.0319455
-0.682036
0.0330642
-0.832917
0.0277104
-0.893397
0.0198337
-0.938954
0.0106663
-0.988492
0.000315925
-1.04623
-0.011123
-1.11115
-0.0237123
-1.18464
-1.26334
-0.0378674
0.0174339
-0.332081
0.0273552
-0.691957
0.0259829
-0.831544
0.018754
-0.886169
0.00924323
-0.929443
-0.00152902
-0.97772
-0.0134236
-1.03433
-0.0265797
-1.09799
-0.0410652
-1.17015
-1.24733
-0.0570786
0.0156485
-0.34773
0.0227014
-0.69901
0.0189627
-0.827806
0.0099438
-0.87715
-0.0012027
-0.918297
-0.0134029
-0.96552
-0.026962
-1.02078
-0.041806
-1.08315
-0.0581228
-1.15384
-1.22948
-0.075976
0.0137527
-0.361482
0.0180265
-0.703284
0.0120315
-0.821811
0.00127166
-0.86639
-0.01127
-0.905755
-0.0250897
-0.9517
-0.0402528
-1.00561
-0.0567676
-1.06663
-0.0748654
-1.13574
-1.2098
-0.0945406
0.0117799
-0.373262
0.0133677
-0.704872
0.00520012
-0.813643
-0.00711717
-0.854072
-0.021176
-0.891696
-0.0365428
-0.936333
-0.0532792
-0.988876
-0.0714396
-1.04847
-0.0912777
-1.1159
-1.18834
-0.112743
0.00976043
-0.383023
0.00875989
-0.703871
-0.00150551
-0.803378
-0.0153303
-0.840248
-0.0308645
-0.876162
-0.0477437
-0.919454
-0.0660251
-0.970594
-0.0858005
-1.0287
-0.107341
-1.09436
-1.16511
-0.130564
0.00771929
-0.390742
0.0042433
-0.700395
-0.00789475
-0.79124
-0.0233413
-0.824801
-0.0403183
-0.859185
-0.058678
-0.901094
-0.078475
-0.950797
-0.099832
-1.00734
-0.123038
-1.07115
-1.14017
-0.147979
0.00567528
-0.396417
-7.86616e-05
-0.694641
-0.0141536
-0.777165
-0.0311354
-0.807819
-0.0495266
-0.840794
-0.0693334
-0.881287
-0.0906144
-0.929516
-0.113518
-0.984437
-0.138352
-1.04632
-1.11356
-0.164968
0.00364646
-0.400064
-0.00464118
-0.686354
-0.0202507
-0.761555
-0.038698
-0.789372
-0.0584779
-0.821014
-0.0796981
-0.860067
-0.102429
-0.906785
-0.126843
-0.960024
-0.153266
-1.0199
-1.08532
-0.181504
0.00166923
-0.401733
-0.00894403
-0.67574
-0.0261675
-0.744332
-0.04602
-0.769519
-0.0671618
-0.799872
-0.0897608
-0.837468
-0.113906
-0.88264
-0.139793
-0.934137
-0.167763
-0.991925
-1.05552
-0.197561
-0.000219226
-0.401514
-0.013079
-0.662881
-0.0318943
-0.725517
-0.0530967
-0.748317
-0.0755686
-0.7774
-0.0995105
-0.813526
-0.125033
-0.857117
-0.152358
-0.906812
-0.181826
-0.962457
-1.0242
-0.213143
-0.00234743
-0.399166
-0.0170628
-0.648165
-0.0374183
-0.705161
-0.0599222
-0.725813
-0.0836892
-0.753633
-0.108937
-0.788279
-0.135801
-0.830252
-0.16454
-0.878074
-0.195449
-0.931547
-0.991435
-0.228218
-0.00432678
-0.394839
-0.0208937
-0.631598
-0.042728
-0.683327
-0.0664907
-0.70205
-0.0915149
-0.728609
-0.118029
-0.761765
-0.146202
-0.802079
-0.17633
-0.847946
-0.208585
-0.899292
-0.95747
-0.24255
-0.00621955
-0.38862
-0.0245689
-0.613249
-0.0478172
-0.660078
-0.0727967
-0.677071
-0.0990378
-0.702368
-0.126778
-0.734025
-0.156226
-0.772632
-0.187684
-0.816488
-0.221244
-0.865733
-0.922707
-0.256007
-0.00803211
-0.380588
-0.0280851
-0.593196
-0.0526814
-0.635482
-0.0788347
-0.650918
-0.106251
-0.674952
-0.135177
-0.705099
-0.165856
-0.741952
-0.198547
-0.783797
-0.232958
-0.831321
-0.885749
-0.269916
-0.00976476
-0.370823
-0.0314392
-0.571522
-0.057317
-0.609604
-0.0846
-0.623635
-0.113147
-0.646406
-0.143216
-0.675029
-0.17507
-0.710099
-0.208879
-0.749987
-0.244551
-0.79565
-0.847203
-0.283097
-0.0114161
-0.359407
-0.0346281
-0.54831
-0.0617212
-0.582511
-0.0900879
-0.595268
-0.11972
-0.616774
-0.150888
-0.64386
-0.183868
-0.677119
-0.218821
-0.715035
-0.25587
-0.758601
-0.807321
-0.295752
-0.0129842
-0.346423
-0.0376491
-0.523645
-0.0658914
-0.554269
-0.0952942
-0.565865
-0.125963
-0.586105
-0.158181
-0.611643
-0.192227
-0.643073
-0.228267
-0.678995
-0.266537
-0.720331
-0.766174
-0.307685
-0.0144669
-0.331956
-0.0404998
-0.497612
-0.0698256
-0.524943
-0.100215
-0.535476
-0.131872
-0.554448
-0.165088
-0.578427
-0.200153
-0.608008
-0.237251
-0.641896
-0.276678
-0.680904
-0.723881
-0.318971
-0.0158618
-0.316094
-0.043178
-0.470296
-0.0735217
-0.494599
-0.104846
-0.504151
-0.137439
-0.521855
-0.171601
-0.544265
-0.207628
-0.571981
-0.245731
-0.603794
-0.286234
-0.640401
-0.680515
-0.3296
-0.0171665
-0.298927
-0.045682
-0.44178
-0.0769779
-0.463303
-0.109185
-0.471944
-0.14266
-0.488379
-0.177712
-0.509213
-0.214649
-0.535044
-0.253702
-0.564741
-0.29521
-0.598892
-0.636148
-0.339577
-0.018378
-0.280549
-0.04801
-0.412148
-0.0801925
-0.431121
-0.113227
-0.43891
-0.14753
-0.454077
-0.183416
-0.473326
-0.221206
-0.497254
-0.261147
-0.5248
-0.303592
-0.556447
-0.590847
-0.348894
-0.0194924
-0.261057
-0.0501607
-0.38148
-0.0831638
-0.398118
-0.11697
-0.405104
-0.152043
-0.419004
-0.188706
-0.436663
-0.227289
-0.458671
-0.268059
-0.48403
-0.311371
-0.513135
-0.544677
-0.35754
-0.0205029
-0.240554
-0.052132
-0.349851
-0.085891
-0.364359
-0.12041
-0.370585
-0.156195
-0.383219
-0.193575
-0.399284
-0.232892
-0.419353
-0.274426
-0.442496
-0.318536
-0.469025
-0.497708
-0.365505
-0.0213951
-0.219159
-0.053923
-0.317323
-0.0883735
-0.329908
-0.123547
-0.335412
-0.159983
-0.346783
-0.198018
-0.361248
-0.238008
-0.379363
-0.280242
-0.400263
-0.325078
-0.424189
-0.450008
-0.372778
-0.022214
-0.196945
-0.0555357
-0.284001
-0.0906111
-0.294833
-0.126376
-0.299647
-0.163402
-0.309757
-0.20203
-0.32262
-0.24263
-0.338763
-0.285497
-0.357396
-0.330988
-0.378698
-0.401648
-0.379348
-0.0229592
-0.173986
-0.056971
-0.249989
-0.092603
-0.259201
-0.128896
-0.263354
-0.16645
-0.272203
-0.205608
-0.283461
-0.246752
-0.297619
-0.290185
-0.313964
-0.336258
-0.332624
-0.352702
-0.385204
-0.0236185
-0.150367
-0.0582283
-0.21538
-0.0943482
-0.223081
-0.131105
-0.226598
-0.169122
-0.234185
-0.208747
-0.243837
-0.25037
-0.255995
-0.2943
-0.270034
-0.340882
-0.286042
-0.303245
-0.390339
-0.0241873
-0.12618
-0.0593072
-0.18026
-0.095846
-0.186542
-0.133001
-0.189443
-0.171418
-0.195768
-0.211443
-0.203812
-0.253478
-0.213961
-0.297834
-0.225677
-0.344853
-0.239023
-0.253353
-0.394744
-0.0246631
-0.101517
-0.0602071
-0.144716
-0.0970954
-0.149654
-0.134583
-0.151955
-0.173334
-0.157017
-0.213694
-0.163453
-0.256073
-0.171582
-0.300784
-0.180966
-0.348163
-0.191645
-0.203102
-0.398415
-0.0250447
-0.0764723
-0.0609275
-0.108833
-0.0980957
-0.112486
-0.13585
-0.1142
-0.17487
-0.117998
-0.215498
-0.122825
-0.258152
-0.128928
-0.303146
-0.135972
-0.350811
-0.14398
-0.152566
-0.401346
-0.0253314
-0.051141
-0.0614681
-0.0726963
-0.0988465
-0.0751072
-0.136802
-0.076245
-0.176022
-0.078777
-0.216852
-0.0819952
-0.259713
-0.0860665
-0.304919
-0.0907654
-0.352796
-0.0961039
-0.101822
-0.403539
-0.0255227
-0.0256183
-0.0618286
-0.0363904
-0.0993472
-0.0375886
-0.137436
-0.0381559
-0.176791
-0.0394221
-0.217755
-0.0410312
-0.260754
-0.0430677
-0.306102
-0.0454179
-0.354119
-0.0480869
-0.0509439
-0.404997
-0.0256184
1.05114e-07
-0.0620089
1.35122e-07
-0.0995976
1.28047e-07
-0.137754
1.18163e-07
-0.177176
1.08928e-07
-0.218207
1.00065e-07
-0.261275
9.18621e-08
-0.306693
8.44182e-08
-0.35478
7.76908e-08
7.13074e-08
-0.405724
-0.0256184
0.0256185
-0.0620089
0.0363906
-0.0995976
0.0375889
-0.137754
0.0381562
-0.177176
0.0394223
-0.218207
0.0410314
-0.261275
0.0430679
-0.306693
0.045418
-0.35478
0.048087
0.050944
-0.405724
-0.0255227
0.0511412
-0.0618286
0.0726965
-0.0993472
0.0751075
-0.137436
0.0762452
-0.176791
0.0787772
-0.217755
0.0819954
-0.260754
0.0860667
-0.306102
0.0907656
-0.354119
0.0961041
0.101822
-0.404997
-0.0253314
0.0764725
-0.0614681
0.108833
-0.0988465
0.112486
-0.136802
0.1142
-0.176022
0.117998
-0.216852
0.122825
-0.259713
0.128928
-0.304919
0.135972
-0.352796
0.143981
0.152566
-0.403539
-0.0250447
0.101517
-0.0609275
0.144716
-0.0980957
0.149654
-0.13585
0.151955
-0.17487
0.157017
-0.215498
0.163453
-0.258152
0.171582
-0.303146
0.180966
-0.350811
0.191645
0.203102
-0.401346
-0.0246631
0.12618
-0.0602071
0.18026
-0.0970954
0.186542
-0.134583
0.189443
-0.173335
0.195768
-0.213694
0.203812
-0.256073
0.213961
-0.300784
0.225678
-0.348163
0.239024
0.253354
-0.398415
-0.0241873
0.150368
-0.0593072
0.21538
-0.095846
0.223081
-0.133001
0.226598
-0.171418
0.234186
-0.211443
0.243837
-0.253478
0.255996
-0.297834
0.270034
-0.344853
0.286042
0.303245
-0.394745
-0.0236185
0.173986
-0.0582283
0.24999
-0.0943482
0.259201
-0.131105
0.263354
-0.169122
0.272203
-0.208747
0.283462
-0.25037
0.297619
-0.2943
0.313964
-0.340882
0.332625
0.352702
-0.390339
-0.0229592
0.196945
-0.056971
0.284001
-0.092603
0.294833
-0.128896
0.299647
-0.16645
0.309757
-0.205608
0.32262
-0.246752
0.338763
-0.290185
0.357396
-0.336258
0.378698
0.401648
-0.385204
-0.022214
0.219159
-0.0555357
0.317323
-0.0906111
0.329909
-0.126376
0.335412
-0.163402
0.346783
-0.20203
0.361249
-0.24263
0.379363
-0.285497
0.400263
-0.330988
0.424189
0.450008
-0.379348
-0.0213951
0.240554
-0.053923
0.349851
-0.0883736
0.364359
-0.123547
0.370585
-0.159983
0.383219
-0.198018
0.399284
-0.238008
0.419353
-0.280242
0.442496
-0.325078
0.469026
0.497708
-0.372778
-0.0205029
0.261057
-0.052132
0.38148
-0.085891
0.398118
-0.12041
0.405104
-0.156195
0.419004
-0.193575
0.436663
-0.232892
0.458671
-0.274426
0.48403
-0.318536
0.513135
0.544678
-0.365505
-0.0194924
0.28055
-0.0501607
0.412148
-0.0831638
0.431121
-0.11697
0.43891
-0.152043
0.454077
-0.188706
0.473326
-0.227289
0.497254
-0.268059
0.5248
-0.311371
0.556447
0.590847
-0.35754
-0.018378
0.298928
-0.0480101
0.441781
-0.0801925
0.463304
-0.113227
0.471945
-0.14753
0.48838
-0.183416
0.509213
-0.221206
0.535044
-0.261147
0.564742
-0.303592
0.598892
0.636148
-0.348894
-0.0171665
0.316094
-0.045682
0.470296
-0.0769779
0.4946
-0.109185
0.504151
-0.14266
0.521855
-0.177712
0.544265
-0.214649
0.571981
-0.253702
0.603794
-0.29521
0.640401
0.680515
-0.339577
-0.0158618
0.331956
-0.043178
0.497612
-0.0735218
0.524943
-0.104846
0.535476
-0.137439
0.554448
-0.171601
0.578427
-0.207628
0.608008
-0.245731
0.641896
-0.286234
0.680904
0.723881
-0.3296
-0.0144669
0.346423
-0.0404998
0.523645
-0.0698256
0.554269
-0.100215
0.565865
-0.131872
0.586105
-0.165088
0.611643
-0.200153
0.643073
-0.237251
0.678995
-0.276678
0.720331
0.766174
-0.318971
-0.0129842
0.359407
-0.0376491
0.54831
-0.0658915
0.582512
-0.0952943
0.595268
-0.125963
0.616774
-0.158181
0.643861
-0.192227
0.677119
-0.228267
0.715035
-0.266537
0.758601
0.807321
-0.307685
-0.0114161
0.370823
-0.0346281
0.571522
-0.0617212
0.609605
-0.090088
0.623635
-0.11972
0.646406
-0.150888
0.675029
-0.183868
0.710099
-0.218821
0.749987
-0.25587
0.79565
0.847204
-0.295752
-0.00976477
0.380588
-0.0314392
0.593196
-0.057317
0.635483
-0.0846
0.650918
-0.113147
0.674952
-0.143216
0.705099
-0.17507
0.741953
-0.208879
0.783797
-0.244551
0.831321
0.885749
-0.283097
-0.00803212
0.38862
-0.0280851
0.613249
-0.0526814
0.660079
-0.0788348
0.677071
-0.106251
0.702368
-0.135177
0.734025
-0.165856
0.772632
-0.198547
0.816488
-0.232958
0.865733
0.922707
-0.269916
-0.00621956
0.39484
-0.0245689
0.631599
-0.0478173
0.683327
-0.0727967
0.702051
-0.0990379
0.728609
-0.126778
0.761765
-0.156226
0.802079
-0.187684
0.847946
-0.221244
0.899292
0.95747
-0.256007
-0.00432679
0.399166
-0.0208937
0.648166
-0.042728
0.705161
-0.0664908
0.725813
-0.091515
0.753634
-0.118029
0.788279
-0.146202
0.830253
-0.17633
0.878074
-0.208585
0.931548
0.991435
-0.24255
-0.00234744
0.401514
-0.0170628
0.662881
-0.0374183
0.725517
-0.0599223
0.748317
-0.0836893
0.777401
-0.108937
0.813527
-0.135801
0.857117
-0.16454
0.906812
-0.195449
0.962457
1.0242
-0.228219
-0.000219238
0.401733
-0.0130791
0.675741
-0.0318943
0.744332
-0.0530968
0.76952
-0.0755687
0.799873
-0.0995105
0.837468
-0.125033
0.88264
-0.152358
0.934137
-0.181827
0.991925
1.05552
-0.213143
0.00166922
0.400064
-0.00894406
0.686354
-0.0261675
0.761556
-0.0460201
0.789372
-0.0671619
0.821014
-0.0897608
0.860067
-0.113906
0.906785
-0.139793
0.960024
-0.167763
1.0199
1.08532
-0.197561
0.00364645
0.396417
-0.0046412
0.694642
-0.0202507
0.777165
-0.0386981
0.80782
-0.0584779
0.840794
-0.0796981
0.881288
-0.102429
0.929516
-0.126843
0.984438
-0.153267
1.04632
1.11356
-0.181504
0.00567527
0.390742
-7.86948e-05
0.700396
-0.0141537
0.79124
-0.0311354
0.824801
-0.0495266
0.859185
-0.0693335
0.901094
-0.0906145
0.950797
-0.113518
1.00734
-0.138352
1.07115
1.14017
-0.164968
0.00771928
0.383023
0.00424328
0.703872
-0.00789479
0.803378
-0.0233414
0.840248
-0.0403183
0.876162
-0.0586781
0.919454
-0.0784751
0.970594
-0.0998321
1.0287
-0.123038
1.09436
1.16511
-0.147979
0.00976042
0.373263
0.00875987
0.704872
-0.00150555
0.813644
-0.0153304
0.854073
-0.0308646
0.891697
-0.0477437
0.936333
-0.0660251
0.988876
-0.0858006
1.04847
-0.107341
1.1159
1.18834
-0.130564
0.0117799
0.361483
0.0133676
0.703285
0.00520007
0.821811
-0.00711723
0.86639
-0.0211761
0.905755
-0.0365429
0.9517
-0.0532793
1.00561
-0.0714397
1.06663
-0.0912778
1.13574
1.2098
-0.112743
0.0137527
0.34773
0.0180265
0.699011
0.0120315
0.827806
0.00127159
0.87715
-0.0112701
0.918297
-0.0250898
0.96552
-0.0402529
1.02078
-0.0567677
1.08315
-0.0748655
1.15384
1.22948
-0.0945407
0.0156485
0.332081
0.0227014
0.691958
0.0189627
0.831545
0.00994373
0.886169
-0.00120278
0.929444
-0.013403
0.97772
-0.0269621
1.03433
-0.0418062
1.09799
-0.0581229
1.17015
1.24733
-0.0759761
0.0174339
0.314648
0.0273552
0.682037
0.0259829
0.832917
0.0187539
0.893398
0.00924315
0.938954
-0.00152912
0.988492
-0.0134237
1.04623
-0.0265798
1.11115
-0.0410653
1.18464
1.26334
-0.0570787
0.0190723
0.295575
0.0319455
0.669163
0.0330642
0.831799
0.0277103
0.898752
0.0198336
0.946831
0.0106662
0.99766
0.000315807
1.05658
-0.0111231
1.12259
-0.0237124
1.19723
1.2775
-0.0378675
0.0205236
0.275052
0.0364239
0.653263
0.0401704
0.828052
0.0367923
0.90213
0.0305812
0.953042
0.0230313
1.00521
0.014387
1.06522
0.00458773
1.13239
-0.00606094
1.20788
1.28983
-0.0183893
0.0217454
0.253306
0.0407359
0.634273
0.0472578
0.82153
0.0459733
0.903414
0.0414794
0.957536
0.0355635
1.01113
0.028613
1.07217
0.0206374
1.14036
0.0117079
1.2168
1.30017
0.00136435
0.0226941
0.230612
0.0448213
0.612145
0.0542734
0.812078
0.0552224
0.902465
0.0525101
0.960248
0.048253
1.01538
0.043009
1.07742
0.0368263
1.14655
0.0297239
1.22391
1.30832
0.0215758
0.0233291
0.207283
0.0486143
0.58686
0.0611599
0.799533
0.0645034
0.899122
0.0636503
0.961101
0.0610824
1.01795
0.0575568
1.08094
0.0531772
1.15092
0.0479741
1.22911
1.31442
0.0418692
0.023617
0.183666
0.0520445
0.558433
0.0678659
0.783711
0.0737724
0.893215
0.0748732
0.960001
0.0740314
1.01879
0.0722377
1.08274
0.0696763
1.15349
0.0663947
1.23239
1.31852
0.0623023
0.0235367
0.160129
0.0550382
0.526931
0.0743118
0.764438
0.0829748
0.884552
0.0861466
0.956829
0.0870777
1.01786
0.0870318
1.08278
0.0862976
1.15422
0.0849413
1.23375
1.32061
0.0828496
0.0230828
0.137047
0.0575236
0.49249
0.0804072
0.741554
0.0920443
0.872915
0.0974308
0.951442
0.100196
1.0151
0.101917
1.08106
0.103015
1.15312
0.103596
1.23317
1.32071
0.103494
0.0222673
0.114779
0.0594351
0.455323
0.0860474
0.714942
0.100902
0.858061
0.108676
0.943668
0.113355
1.01042
0.11687
1.07755
0.119806
1.15019
0.122338
1.23064
1.31878
0.124269
0.0211189
0.0936603
0.0605929
0.415849
0.0911142
0.68442
0.109452
0.839724
0.119821
0.933299
0.126519
1.00372
0.131865
1.0722
0.136647
1.1454
0.141139
1.22614
1.3148
0.145123
0.0196808
0.0739796
0.0609112
0.374618
0.0954812
0.64985
0.117577
0.817627
0.130786
0.92009
0.139642
0.994863
0.146872
1.06497
0.153513
1.13876
0.15997
1.21969
1.30875
0.166014
0.0180032
0.0559764
0.0603319
0.33229
0.0990101
0.611172
0.12514
0.791498
0.141474
0.903756
0.152668
0.983669
0.161858
1.05578
0.170377
1.13024
0.178802
1.21126
1.30065
0.186907
0.0161391
0.0398373
0.0588153
0.289613
0.101548
0.568439
0.131975
0.761071
0.151764
0.883967
0.165525
0.969909
0.176778
1.04453
0.187206
1.11982
0.197606
1.20086
1.29048
0.207768
0.0141468
0.0256905
0.0563613
0.247399
0.102934
0.521866
0.137895
0.72611
0.161508
0.860353
0.178117
0.9533
0.191581
1.03106
0.203966
1.10743
0.216352
1.18848
1.27827
0.228565
0.0120975
0.013593
0.0530256
0.206471
0.103004
0.471888
0.142686
0.686428
0.170523
0.832516
0.190324
0.933499
0.206195
1.01519
0.220613
1.09301
0.235007
1.17408
1.26401
0.249265
0.0100788
0.00351421
0.0489264
0.167623
0.101605
0.41921
0.14611
0.641923
0.178589
0.800037
0.201986
0.910102
0.220528
0.996652
0.237096
1.07644
0.253536
1.15764
1.24771
0.269835
0.00818578
-0.00467156
0.0442354
0.131574
0.0986112
0.364834
0.147909
0.592625
0.185436
0.76251
0.212898
0.88264
0.234454
0.975096
0.253346
1.05755
0.271894
1.13909
1.22937
0.29024
0.00649884
-0.0111704
0.0391554
0.098917
0.0939532
0.310036
0.147816
0.538762
0.190743
0.719582
0.222799
0.850584
0.247803
0.950092
0.269265
1.03609
0.290027
1.11833
1.20896
0.310439
0.00506222
-0.0162326
0.0339029
0.0700763
0.0876581
0.256281
0.145564
0.480857
0.194142
0.671004
0.231357
0.813368
0.260344
0.921106
0.284717
1.01172
0.30786
1.09519
1.18642
0.330396
0.00387605
-0.0201087
0.0287005
0.0452518
0.0799027
0.205079
0.140927
0.419833
0.195219
0.616712
0.238166
0.770422
0.271768
0.887503
0.299512
0.983973
0.325285
1.06942
1.16167
0.350037
0.00290903
-0.0230177
0.0237663
0.0243945
0.0710452
0.1578
0.133763
0.357115
0.193545
0.556929
0.242735
0.721231
0.28167
0.848569
0.313376
0.952267
0.342157
1.04063
1.13451
0.369314
0.00212099
-0.0251387
0.0192846
0.00723094
0.0615852
0.115499
0.124099
0.294602
0.188712
0.492317
0.244499
0.665444
0.289523
0.803545
0.325943
0.915847
0.358226
1.00835
1.10466
0.388075
0.00147913
-0.0266178
0.0153741
-0.006664
0.0520696
0.0788039
0.112224
0.234447
0.180401
0.424139
0.242835
0.60301
0.294661
0.751719
0.336691
0.873817
0.373214
0.971829
1.07172
0.406153
0.000961977
-0.0275798
0.0120726
-0.0177746
0.0430084
0.0478681
0.0987336
0.178722
0.168497
0.354375
0.237123
0.534384
0.296287
0.692556
0.344951
0.825153
0.386497
0.930282
1.03478
0.423443
0.000555599
-0.0281354
0.00934988
-0.0265689
0.0348064
0.0224115
0.0844757
0.129053
0.153226
0.285625
0.226859
0.460751
0.293451
0.625964
0.349881
0.768723
0.397545
0.882618
0.993512
0.438809
0.00024862
-0.028384
0.00713921
-0.0334595
0.0277023
0.00184846
0.0703855
0.0863696
0.135288
0.220722
0.211784
0.384255
0.285265
0.552482
0.350308
0.70368
0.405197
0.827728
0.944926
0.453783
3.07588e-05
-0.0284148
0.00536336
-0.0387921
0.0217512
-0.0145394
0.0572831
0.0508377
0.115853
0.162152
0.192183
0.307926
0.270865
0.4738
0.345551
0.628994
0.407144
0.766135
0.888928
0.463142
-0.000136271
-0.0282785
0.00394472
-0.0428731
0.0168684
-0.0274632
0.0457093
0.0219968
0.09634
0.111522
0.169034
0.235232
0.250074
0.392761
0.333412
0.545656
0.405614
0.693933
0.83227
0.462272
-0.000246046
-0.0280325
0.00280888
-0.045928
0.0128957
-0.03755
0.0358701
-0.000977522
0.078061
0.0693308
0.143961
0.169332
0.223621
0.313101
0.312759
0.456517
0.396989
0.609703
0.767234
0.462025
-0.000320077
-0.0277124
0.00188554
-0.0481336
0.00965295
-0.0453174
0.027694
-0.0190186
0.061899
0.0351258
0.118826
0.112405
0.193219
0.238708
0.283626
0.36611
0.378261
0.515068
0.691731
0.453764
-0.000378587
-0.0273338
0.0011083
-0.0496205
0.00696373
-0.0511728
0.0209427
-0.0329976
0.0481584
0.00791014
0.0951572
0.0654062
0.161354
0.172511
0.247562
0.279902
0.348375
0.414256
0.605226
0.43488
-0.000438381
-0.0268954
0.00041746
-0.0504763
0.00466812
-0.0554235
0.0153082
-0.0436376
0.0366491
-0.0134308
0.0738583
0.0281971
0.130587
0.115782
0.207514
0.202975
0.308048
0.313721
0.509126
0.404148
-0.00051179
-0.0263836
-0.000238679
-0.0507494
0.00263029
-0.0582925
0.0104839
-0.0514912
0.0269325
-0.0298795
0.0553111
-0.000181533
0.102639
0.0684542
0.16701
0.138605
0.260437
0.220295
0.407583
0.36198
-0.000609821
-0.0257738
-0.000900939
-0.0504583
0.000747753
-0.0599412
0.00621122
-0.0569547
0.0185582
-0.0422265
0.0395321
-0.0211554
0.0780263
0.0299601
0.12925
0.0873805
0.210476
0.139069
0.307463
0.310596
-0.000741535
-0.0250323
-0.00158811
-0.0496117
-0.00107762
-0.0604517
0.00229597
-0.0603283
0.0111869
-0.0511174
0.0262164
-0.0361849
0.0565325
-0.000356044
0.0963276
0.0475855
0.162791
0.0726047
0.216503
0.253751
-0.000906592
-0.0241257
-0.00231276
-0.0482056
-0.00288378
-0.0598806
-0.00134973
-0.0618623
0.0045844
-0.0570515
0.0148532
-0.0464537
0.0377929
-0.0232957
0.0686225
0.0167559
0.119839
0.021388
0.140416
0.195926
-0.00110251
-0.0230232
-0.00307503
-0.0462331
-0.00467426
-0.0582814
-0.00475154
-0.061785
-0.00144598