/*--------------------------------*- C++ -*----------------------------------*\
  =========                 |
  \\      /  F ield         | OpenFOAM: The Open Source CFD Toolbox
   \\    /   O peration     | Website:  https://openfoam.org
    \\  /    A nd           | Version:  9
     \\/     M anipulation  |
\*---------------------------------------------------------------------------*/
FoamFile
{
    format      ascii;
    class       volVectorField;
    location    "49.4";
    object      U;
}
// * * * * * * * * * * * * * * * * * * * * * * * * * * * * * * * * * * * * * //

dimensions      [0 1 -1 0 0 0 0];

internalField   nonuniform List<vector> 
8500
(
(-0.0064828 0.00259011 0)
(-0.0291148 0.00446572 -6.20183e-23)
(-0.0611447 0.00492604 -3.41015e-24)
(-0.0889417 0.00476029 6.4634e-37)
(-0.116338 0.00444194 -9.51135e-24)
(-0.136749 0.00383811 7.91964e-24)
(-0.160641 0.003783 -5.36435e-23)
(-0.171494 0.00247362 -8.30276e-23)
(-0.191757 0.00349903 -7.60032e-23)
(-0.198856 0.00122235 -3.94274e-24)
(-0.00677646 0.00772097 1.7896e-22)
(-0.0293725 0.0133284 5.79492e-23)
(-0.0610243 0.0147105 2.32604e-22)
(-0.0882656 0.0142192 0)
(-0.115082 0.0132671 0)
(-0.134515 0.011466 1.59548e-23)
(-0.157842 0.0112957 4.03221e-23)
(-0.166977 0.00737575 8.86234e-23)
(-0.186728 0.0104775 5.72265e-23)
(-0.191612 0.00354671 1.57798e-23)
(-0.00735558 0.0126979 -1.5903e-22)
(-0.0298842 0.0219701 0)
(-0.0607878 0.0242714 -2.18893e-22)
(-0.0869217 0.0234686 0)
(-0.112579 0.0218861 -3.81034e-23)
(-0.130054 0.0189182 3.17269e-23)
(-0.152249 0.0186048 0)
(-0.157903 0.0121112 0)
(-0.176673 0.0173601 0)
(-0.177144 0.0054851 0)
(-0.00820432 0.017425 3.19804e-22)
(-0.0306422 0.030249 -2.32761e-22)
(-0.0604434 0.0334622 -5.49003e-23)
(-0.0849265 0.0323691 -3.42399e-22)
(-0.108852 0.0301554 -3.43857e-22)
(-0.123382 0.0260822 3.20089e-23)
(-0.143868 0.0255502 -2.67257e-23)
(-0.144184 0.0165944 3.08799e-22)
(-0.161566 0.0240973 1.90883e-26)
(-0.155426 0.00683899 3.11263e-22)
(-0.00930035 0.0218164 -3.19804e-22)
(-0.0316356 0.0380317 -3.00921e-22)
(-0.0600022 0.0421398 8.26053e-23)
(-0.0823037 0.0407823 4.56972e-22)
(-0.103923 0.0379245 -3.89215e-23)
(-0.114523 0.0328509 5.08734e-22)
(-0.132693 0.0319353 0)
(-0.125678 0.0207681 -3.53704e-22)
(-0.141304 0.0306536 -7.54601e-23)
(-0.126236 0.00752207 -4.32427e-22)
(-0.0106164 0.0257992 8.06592e-23)
(-0.0328498 0.0451959 5.00398e-22)
(-0.0594756 0.0501658 -3.86873e-22)
(-0.0790821 0.0485717 -2.9603e-25)
(-0.0978124 0.0450352 -3.46861e-22)
(-0.103513 0.0391242 1.2861e-22)
(-0.118689 0.0375152 -5.37112e-23)
(-0.102179 0.0246011 4.42402e-22)
(-0.115668 0.036976 -7.56328e-23)
(-0.0889119 0.00768078 2.47687e-22)
(-0.0121224 0.0293161 4.04138e-23)
(-0.0342672 0.0516331 0)
(-0.0588722 0.0574072 -1.56681e-24)
(-0.0752913 0.0556046 0)
(-0.0905193 0.0513245 6.15111e-22)
(-0.0903883 0.0448114 -5.09229e-22)
(-0.101763 0.0419892 0)
(-0.0734285 0.0280955 -1.12485e-24)
(-0.084311 0.0428464 0)
(-0.0420611 0.00792498 0)
(-0.0137871 0.0323275 -6.51994e-22)
(-0.0358669 0.0572509 -6.73813e-23)
(-0.0581933 0.0637397 4.99241e-22)
(-0.0709544 0.0617523 9.25873e-23)
(-0.0820081 0.056631 -6.18976e-22)
(-0.0751685 0.0498361 -3.81385e-22)
(-0.0816967 0.0449964 -5.40016e-23)
(-0.0391367 0.0313387 4.3893e-22)
(-0.0467712 0.0475386 -7.59437e-23)
(0.0167294 0.00930288 6.2762e-23)
(-0.0155808 0.0348119 7.34029e-22)
(-0.0376241 0.0619746 -5.41841e-22)
(-0.0574268 0.0690506 -1.67383e-22)
(-0.0660768 0.0668905 9.2345e-23)
(-0.0721812 0.0608021 6.18908e-22)
(-0.0578287 0.054152 5.74941e-22)
(-0.0580211 0.0461262 -5.41337e-23)
(0.00107108 0.0345117 8.78521e-23)
(-0.00284316 0.0502472 -1.52258e-22)
(0.0914395 0.0123282 6.40559e-23)
(-0.0174768 0.0367662 6.59981e-22)
(-0.0395085 0.0657483 5.42161e-22)
(-0.0565407 0.0732428 -7.85762e-22)
(-0.0606296 0.0708994 -9.26546e-23)
(-0.0608414 0.0636963 0)
(-0.0382559 0.0577609 0)
(-0.0299483 0.0451725 0)
(0.0482351 0.0376351 -1.39063e-21)
(0.0472034 0.0500895 -6.39022e-22)
(0.185778 0.0175597 4.85991e-22)
(-0.019453 0.038204 -1.32423e-21)
(-0.0414816 0.0685357 0)
(-0.055474 0.0762388 1.79904e-21)
(-0.0545319 0.073668 7.44192e-22)
(-0.0476468 0.0651879 7.74632e-23)
(-0.0160567 0.0605986 0)
(0.00352013 0.0423433 -8.86109e-22)
(0.103698 0.0410472 6.93937e-22)
(0.10502 0.045738 6.39013e-22)
(0.301366 0.0254803 -4.85972e-22)
(-0.0214925 0.0391538 7.47671e-22)
(-0.0434926 0.0703196 -6.84722e-23)
(-0.0541248 0.0779846 -9.01262e-22)
(-0.0476264 0.0751018 -8.37687e-22)
(-0.0321627 0.0652737 0)
(0.00964866 0.0624091 1.02437e-21)
(0.0440872 0.038133 5.17558e-25)
(0.168276 0.0455523 5.98319e-22)
(0.175873 0.037413 7.17195e-22)
(0.436623 0.0352101 -4.81698e-22)
(-0.0235831 0.0396551 4.56309e-26)
(-0.045473 0.0711014 1.17431e-21)
(-0.0523351 0.0784526 -1.13436e-22)
(-0.039594 0.0751091 6.54132e-22)
(-0.013866 0.0640462 3.91052e-22)
(0.0400718 0.0629695 2.60472e-22)
(0.0945305 0.0333969 8.83785e-22)
(0.242385 0.0510141 -7.78474e-22)
(0.268027 0.029037 -4.89028e-22)
(0.585468 0.0455158 3.53864e-22)
(-0.025717 0.0397558 0)
(-0.0473303 0.0708988 -9.67212e-22)
(-0.0498898 0.0776483 -1.13933e-22)
(-0.0299226 0.073626 1.63039e-24)
(0.00806835 0.061588 6.23748e-22)
(0.0767308 0.0621871 -8.95523e-22)
(0.158001 0.0297348 8.78381e-22)
(0.326604 0.0559463 -8.9307e-23)
(0.387984 0.0265404 0)
(0.737589 0.0563535 0)
(-0.0278883 0.0395072 8.50507e-23)
(-0.0489371 0.069745 -1.11704e-21)
(-0.0464973 0.0756197 0)
(-0.0179178 0.0706931 -9.23272e-23)
(0.0348428 0.0580468 7.78709e-23)
(0.121741 0.0599439 0)
(0.236879 0.0291777 -8.80268e-22)
(0.422418 0.0592111 -6.8871e-22)
(0.53354 0.0333123 1.50453e-22)
(0.880807 0.0684624 -1.26437e-22)
(-0.030088 0.0389565 -8.54945e-23)
(-0.0501264 0.0676915 1.18721e-21)
(-0.0417471 0.0724373 0)
(-0.00267759 0.0664695 -8.44742e-22)
(0.0680148 0.0537498 7.79142e-23)
(0.177772 0.0565634 -1.02618e-21)
(0.33169 0.033071 -1.06213e-22)
(0.531714 0.0621029 7.77592e-22)
(0.691785 0.048064 0)
(1.00455 0.0816104 9.57976e-22)
(-0.0322957 0.0381414 -1.30143e-21)
(-0.0506878 0.0648025 -7.06516e-23)
(-0.0350872 0.0681941 -1.14387e-22)
(0.0169646 0.0612176 9.46148e-23)
(0.109543 0.0492827 -1.24374e-21)
(0.247663 0.0532922 1.02616e-21)
(0.440644 0.0414336 8.64375e-22)
(0.653384 0.0676674 6.88649e-22)
(0.844884 0.0670329 1.19357e-21)
(1.10263 0.0944208 -8.38104e-22)
(-0.0344756 0.0370899 1.3875e-21)
(-0.0503545 0.0611446 0)
(-0.0258264 0.0630238 1.03966e-21)
(0.0424534 0.0552895 -9.48932e-23)
(0.161671 0.0454664 2.48662e-21)
(0.333429 0.0521442 0)
(0.559861 0.0535513 -8.64357e-22)
(0.78043 0.077542 -1.8368e-24)
(0.978111 0.086912 -1.33748e-21)
(1.17387 0.105446 1.20964e-22)
(-0.0365729 0.0358179 0)
(-0.0487981 0.0567846 1.1439e-21)
(-0.0131289 0.057101 -9.24936e-22)
(0.0754768 0.0491528 0)
(0.226558 0.0433599 -1.24288e-21)
(0.434671 0.0551506 0)
(0.683439 0.0686734 8.49292e-22)
(0.902121 0.090798 -6.86784e-22)
(1.08398 0.10574 -1.13794e-21)
(1.22115 0.113693 -9.13706e-22)
(-0.0385069 0.0343268 -1.76216e-22)
(-0.0456288 0.0517939 -9.99259e-22)
(0.00399077 0.0506411 0)
(0.117881 0.0434624 0)
(0.305554 0.0442077 0)
(0.547542 0.0632929 -1.26831e-22)
(0.803992 0.0858211 -8.51383e-22)
(1.00915 0.105593 -8.68657e-23)
(1.16175 0.122349 1.13794e-21)
(1.24987 0.118425 1.02785e-21)
(-0.0401688 0.0326073 0)
(-0.0403939 0.0462465 -1.16138e-21)
(0.0266698 0.0439128 0)
(0.171466 0.0391609 0)
(0.398217 0.0491477 0)
(0.665254 0.0760915 1.25938e-22)
(0.914466 0.103643 -1.03815e-21)
(1.0966 0.120557 8.01084e-23)
(1.21508 0.135521 8.08502e-22)
(1.26696 0.119021 8.8052e-22)
(-0.0414349 0.0306555 0)
(-0.0325648 0.0402039 1.16138e-21)
(0.0561916 0.0372819 -9.45924e-22)
(0.237556 0.0374969 0)
(0.501557 0.0586821 -1.24054e-21)
(0.780088 0.0920601 0)
(1.01007 0.120944 8.30305e-22)
(1.16368 0.134618 -6.60042e-22)
(1.24965 0.144164 -1.08226e-21)
(1.29174 0.129606 -8.7563e-22)
(-0.042165 0.0284574 1.48263e-21)
(-0.0215446 0.0337179 0)
(0.0939393 0.0313072 8.28762e-22)
(0.316323 0.0397737 9.69011e-23)
(0.610277 0.0723345 2.48101e-21)
(0.885684 0.109521 0)
(1.08886 0.137007 -8.08771e-22)
(1.21249 0.146735 -1.30847e-21)
(1.27433 0.152369 -9.0345e-22)
(1.30101 0.135689 -5.29435e-24)
(-0.0421863 0.0259859 -1.57469e-21)
(-0.00666141 0.0268547 7.55639e-23)
(0.141231 0.0268516 1.17843e-22)
(0.406148 0.0468149 -9.74697e-23)
(0.718187 0.0888942 -1.24047e-21)
(0.97819 0.127167 9.96897e-22)
(1.15113 0.151421 8.08767e-22)
(1.24714 0.157394 6.48431e-22)
(1.28861 0.158815 1.03132e-21)
(1.30426 0.141458 -9.04358e-22)
(-0.0413082 0.0232132 9.33817e-23)
(0.0128612 0.0197235 1.13593e-21)
(0.198986 0.0250924 0)
(0.503521 0.0585141 -6.774e-22)
(0.819919 0.107015 -7.87881e-23)
(1.05615 0.144165 -9.96889e-22)
(1.19873 0.164237 9.65435e-23)
(1.2703 0.166552 5.41121e-22)
(1.29637 0.164512 0)
(1.30428 0.146467 8.0501e-22)
(-0.0393234 0.0201115 -9.65706e-23)
(0.0379049 0.0125582 -1.21257e-21)
(0.267272 0.027266 0)
(0.603765 0.0739249 9.04528e-23)
(0.911892 0.125642 -7.90128e-23)
(1.11982 0.160111 0)
(1.23383 0.17558 -7.71439e-22)
(1.28494 0.174569 -6.21931e-22)
(1.29933 0.169506 -1.17687e-22)
(1.30107 0.150993 -9.89976e-23)
(-0.0359945 0.0166527 0)
(0.0693934 0.00584497 -1.40019e-21)
(0.344945 0.0341824 1.25341e-22)
(0.702211 0.0918077 -5.2132e-24)
(0.992345 0.144104 -6.18602e-22)
(1.1704 0.174863 -1.08864e-21)
(1.25878 0.185669 8.70323e-22)
(1.2932 0.181676 0)
(1.29892 0.174076 0)
(1.29676 0.155297 0)
(-0.0310278 0.012817 2.28923e-24)
(0.108139 0.00042634 1.17456e-21)
(0.429651 0.0458512 1.2703e-22)
(0.795136 0.111112 8.77973e-22)
(1.06087 0.162032 5.39142e-22)
(1.20953 0.188436 -1.04952e-22)
(1.27565 0.194731 7.49151e-22)
(1.29684 0.188127 -5.0131e-22)
(1.29634 0.178371 -5.5913e-22)
(1.29125 0.159452 4.46662e-22)
(-0.0240466 0.00861569 7.34194e-22)
(0.154614 -0.0025281 8.23362e-23)
(0.518248 0.061552 -1.01484e-21)
(0.880129 0.131118 -7.92007e-22)
(1.11792 0.179247 0)
(1.23894 0.20093 9.58492e-22)
(1.28624 0.20299 -1.57969e-23)
(1.29717 0.194121 6.45902e-22)
(1.29222 0.182512 3.90941e-22)
(1.28525 0.163549 -3.53597e-22)
(-0.014586 0.00412764 -1.69071e-21)
(0.208723 -0.00176189 0)
(0.60743 0.0802626 2.0459e-21)
(0.955965 0.151384 6.96049e-22)
(1.1644 0.195686 7.96458e-23)
(1.26029 0.212488 0)
(1.29202 0.210649 -7.26698e-22)
(1.29513 0.199818 5.44785e-22)
(1.2871 0.186583 4.19377e-22)
(1.2788 0.167633 -3.27879e-22)
(-0.00211986 -0.000457544 8.56201e-22)
(0.269683 0.00368763 6.65228e-22)
(0.694261 0.101069 -1.15656e-21)
(1.02228 0.17167 1.03804e-22)
(1.20144 0.211358 0)
(1.27506 0.223265 0)
(1.29416 0.217884 0)
(1.29141 0.205334 -1.07243e-21)
(1.28125 0.19064 -4.1938e-22)
(1.27207 0.171719 3.27864e-22)
(0.0138705 -0.00479685 7.95922e-22)
(0.336101 0.0141907 -6.59497e-22)
(0.776451 0.123319 6.76617e-23)
(1.07923 0.191859 0)
(1.23022 0.226312 5.99394e-22)
(1.28451 0.233417 3.94368e-22)
(1.29354 0.224838 4.51207e-23)
(1.28647 0.210754 -4.43034e-23)
(1.2749 0.194715 9.98801e-23)
(1.2651 0.175821 -4.01627e-23)
(0.0337684 -0.00836508 -9.0296e-22)
(0.406203 0.0294958 8.35013e-23)
(0.8524 0.146581 5.3556e-22)
(1.12731 0.211889 -1.48098e-22)
(1.25189 0.240618 -4.4961e-22)
(1.2897 0.243084 -5.60089e-22)
(1.29084 0.231619 4.40365e-23)
(1.28063 0.216129 2.64194e-22)
(1.26812 0.198826 0)
(1.2579 0.179931 -3.51673e-23)
(0.0577433 -0.0105038 -5.86491e-23)
(0.478096 0.0489446 0)
(0.921141 0.170553 6.16939e-24)
(1.16714 0.231707 0)
(1.26751 0.254357 5.83054e-22)
(1.29148 0.252388 -4.2786e-22)
(1.28655 0.238307 0)
(1.27408 0.221492 9.69009e-24)
(1.261 0.202976 0)
(1.25048 0.18404 0)
(0.0857364 -0.0105226 -1.17224e-22)
(0.549971 0.071772 7.62175e-22)
(0.982216 0.195015 -6.11189e-22)
(1.19942 0.251255 1.00299e-22)
(1.278 0.267607 -2.67517e-22)
(1.29052 0.261429 -4.49148e-23)
(1.281 0.24495 0)
(1.26697 0.226855 1.81034e-22)
(1.25356 0.207159 4.60555e-23)
(1.24282 0.188128 1.28593e-22)
(0.117452 -0.00782095 -4.95355e-22)
(0.62021 0.0973011 -3.07221e-22)
(1.03555 0.219806 -1.00594e-22)
(1.22485 0.270475 4.00562e-22)
(1.28417 0.280443 3.2376e-23)
(1.28737 0.270281 4.16092e-22)
(1.27444 0.251575 0)
(1.25934 0.232217 -2.15209e-22)
(1.2458 0.211363 3.9257e-23)
(1.23491 0.192178 -2.82441e-22)
(0.152393 -0.0019972 -4.95354e-22)
(0.68743 0.124995 3.20319e-22)
(1.08133 0.244801 -4.10512e-24)
(1.24413 0.28931 -4.65502e-22)
(1.28668 0.292925 -2.42528e-22)
(1.28242 0.278998 -2.32186e-23)
(1.26704 0.258191 1.93866e-23)
(1.25126 0.237565 2.39999e-22)
(1.23773 0.21557 -2.32072e-24)
(1.22674 0.196164 9.14644e-23)
(0.189918 0.00709949 -2.55645e-22)
(0.750481 0.154422 0)
(1.1199 0.269895 -2.75047e-22)
(1.25791 0.307711 0)
(1.28611 0.3051 -3.04777e-22)
(1.27597 0.287611 2.60946e-23)
(1.25888 0.264789 0)
(1.24273 0.242879 0)
(1.22933 0.219758 0)
(1.2183 0.20006 0)
(0.229289 0.019392 2.24256e-22)
(0.80845 0.185202 1.07815e-22)
(1.15171 0.294981 2.75049e-22)
(1.2668 0.325643 0)
(1.28289 0.316997 0)
(1.26824 0.296131 -1.063e-23)
(1.25005 0.271349 4.04166e-23)
(1.23377 0.248133 4.50738e-23)
(1.2206 0.223899 4.07766e-23)
(1.20959 0.203834 -6.7392e-24)
(0.269719 0.0346523 -4.0598e-24)
(0.860692 0.21697 -1.00839e-22)
(1.17723 0.319941 4.60311e-24)
(1.27136 0.343087 5.29304e-24)
(1.27739 0.328631 -8.02052e-24)
(1.25939 0.304551 3.01997e-24)
(1.24059 0.277841 -3.50955e-23)
(1.22436 0.253296 -4.20994e-23)
(1.21154 0.227961 -3.09157e-23)
(1.20064 0.207453 1.14926e-24)
(0.310411 0.0525839 0)
(0.906866 0.24938 -1.01741e-22)
(1.19683 0.344655 -3.02675e-24)
(1.27205 0.36003 6.29648e-24)
(1.2699 0.339999 1.09712e-37)
(1.24952 0.312847 -7.54705e-38)
(1.2305 0.284227 -3.0929e-23)
(1.2145 0.258333 -3.57768e-23)
(1.20212 0.2319 -2.74252e-23)
(1.19146 0.210884 0)
(0.350584 0.072871 2.94269e-22)
(0.946874 0.282139 8.33931e-23)
(1.2109 0.36901 2.72947e-22)
(1.26931 0.376444 -1.22639e-23)
(1.26065 0.351085 0)
(1.23871 0.320981 8.88631e-24)
(1.21981 0.290463 2.01997e-23)
(1.20419 0.263205 3.85476e-23)
(1.19235 0.23567 2.1392e-23)
(1.18204 0.214102 5.07099e-24)
(0.389496 0.095213 -2.62298e-22)
(0.980714 0.314988 0)
(1.21983 0.392884 -2.58123e-22)
(1.26348 0.392294 0)
(1.24981 0.361854 -2.46476e-23)
(1.22702 0.328905 2.05231e-23)
(1.20851 0.2965 0)
(1.19342 0.267873 0)
(1.18223 0.23923 0)
(1.17235 0.217088 0)
(0.426462 0.119332 5.19766e-22)
(1.00847 0.347686 -3.31337e-22)
(1.224 0.416153 -6.26793e-23)
(1.25486 0.407536 -2.50418e-22)
(1.23752 0.372258 -2.26305e-22)
(1.21447 0.336563 1.50548e-23)
(1.19661 0.302289 -1.25701e-23)
(1.18218 0.272288 9.69481e-23)
(1.1718 0.24255 2.11696e-24)
(1.16232 0.219816 6.40661e-23)
(0.460867 0.144959 -5.19767e-22)
(1.03028 0.380007 -3.98437e-22)
(1.22374 0.438693 8.67899e-23)
(1.24373 0.42212 2.98429e-22)
(1.22391 0.382238 -1.22088e-23)
(1.2011 0.343892 2.30129e-22)
(1.18411 0.307774 0)
(1.17047 0.276395 -1.10439e-22)
(1.16109 0.245619 -1.5388e-23)
(1.1519 0.222306 -7.68435e-23)
(0.49218 0.171825 1.23388e-22)
(1.04634 0.411734 6.82016e-22)
(1.21937 0.460374 -3.8913e-22)
(1.23032 0.435987 -7.20535e-23)
(1.20904 0.391727 -1.60998e-22)
(1.18693 0.350825 2.96081e-23)
(1.17101 0.3129 -2.00548e-23)
(1.15832 0.280129 9.7636e-23)
(1.1501 0.248423 -1.62317e-23)
(1.14117 0.224594 3.98016e-23)
(0.519959 0.199638 6.25248e-23)
(1.05683 0.442653 0)
(1.2112 0.481064 2.66064e-23)
(1.21484 0.44907 0)
(1.19299 0.40065 3.2976e-22)
(1.17197 0.357292 -2.03832e-22)
(1.15734 0.317605 0)
(1.1458 0.283447 -1.68321e-23)
(1.13876 0.2509 0)
(1.13025 0.226488 0)
(0.543858 0.228087 -9.57993e-22)
(1.06198 0.472547 -7.25861e-23)
(1.1995 0.50063 4.72152e-22)
(1.19742 0.461291 5.07911e-23)
(1.1758 0.40892 -3.28354e-22)
(1.1563 0.363217 -1.05184e-22)
(1.14315 0.321829 -1.44491e-23)
(1.13291 0.286324 3.80144e-23)
(1.12704 0.25301 -9.41243e-24)
(1.11915 0.228025 2.99123e-24)
(0.563621 0.256837 1.06565e-21)
(1.06202 0.501196 -6.32861e-22)
(1.18453 0.518935 -1.34725e-22)
(1.17824 0.472567 6.50492e-23)
(1.15758 0.416448 2.56505e-22)
(1.13999 0.368523 1.60949e-22)
(1.12845 0.325514 -1.14685e-23)
(1.11965 0.288727 -2.86574e-23)
(1.11497 0.254708 -8.39677e-24)
(1.10788 0.229143 2.14059e-24)
(0.579081 0.285536 8.78878e-22)
(1.0572 0.528376 6.12578e-22)
(1.1665 0.535831 -5.59147e-22)
(1.15744 0.482807 -5.81996e-23)
(1.13846 0.423159 0)
(1.123 0.373124 0)
(1.11322 0.328604 0)
(1.10604 0.290614 -6.86865e-23)
(1.1026 0.255961 9.57744e-24)
(1.09646 0.229826 -2.75876e-23)
(0.590155 0.313825 -1.70747e-21)
(1.04776 0.553866 0)
(1.14564 0.551152 1.18218e-21)
(1.13525 0.491912 2.83671e-22)
(1.11849 0.428977 0)
(1.10533 0.376948 0)
(1.09753 0.331033 -1.98918e-23)
(1.09209 0.291944 1.60673e-23)
(1.08995 0.256734 -9.57751e-24)
(1.08491 0.230035 2.75865e-23)
(0.596839 0.341341 9.17368e-22)
(1.034 0.577468 -7.28699e-23)
(1.12218 0.564727 -5.5267e-22)
(1.11178 0.499766 -3.08216e-22)
(1.09767 0.433819 2.03719e-23)
(1.08704 0.379929 3.71506e-23)
(1.08142 0.332744 5.08739e-23)
(1.07783 0.292677 -5.31117e-23)
(1.07707 0.256992 -7.32438e-23)
(1.07326 0.229744 7.23286e-23)
(0.599202 0.367716 -1.16843e-23)
(1.01627 0.598995 8.53851e-22)
(1.09639 0.57644 -7.36463e-23)
(1.08708 0.506205 1.41798e-22)
(1.07608 0.43761 4.47495e-23)
(1.06821 0.381999 -6.66999e-23)
(1.06494 0.333681 -3.70784e-23)
(1.06331 0.292773 6.72851e-23)
(1.06398 0.256703 -9.05404e-23)
(1.06154 0.228924 -5.32933e-23)
(0.597387 0.392583 0)
(0.99482 0.618222 -7.55551e-22)
(1.06853 0.586197 -6.2029e-23)
(1.06123 0.5111 -6.67214e-23)
(1.0538 0.440243 -3.90328e-23)
(1.04888 0.383095 2.05714e-23)
(1.04813 0.333791 -1.4127e-22)
(1.04857 0.292196 0)
(1.05073 0.25583 0)
(1.0498 0.22754 0)
(0.591592 0.415616 7.4554e-23)
(0.969762 0.634801 -5.78977e-22)
(1.03895 0.593953 0)
(1.03441 0.514371 -7.05477e-23)
(1.0309 0.44163 1.17382e-24)
(1.02913 0.383157 0)
(1.03106 0.33303 1.35956e-22)
(1.03364 0.290912 1.7752e-22)
(1.03733 0.254339 -3.69279e-23)
(1.03806 0.225547 3.10172e-23)
(0.582042 0.4366 -5.23841e-23)
(0.941312 0.648433 6.21979e-22)
(1.00793 0.599566 0)
(1.00675 0.515984 -1.62585e-23)
(1.00749 0.441687 -5.66003e-24)
(1.00905 0.382128 2.52099e-22)
(1.01379 0.331355 2.82293e-23)
(1.01857 0.288889 -2.01149e-22)
(1.02382 0.252194 0)
(1.02638 0.222905 -3.23942e-22)
(0.56895 0.455314 -7.16181e-22)
(0.90995 0.659003 -3.40323e-23)
(0.975608 0.602823 2.76325e-24)
(0.978386 0.515868 -2.28569e-24)
(0.983657 0.44034 3.25417e-22)
(0.988695 0.379954 -2.52101e-22)
(0.996372 0.32873 -2.98754e-22)
(1.00339 0.286095 -2.58114e-22)
(1.01025 0.249368 -4.37883e-22)
(1.01489 0.219606 2.83527e-22)
(0.552436 0.471405 7.57643e-22)
(0.876242 0.666498 0)
(0.942226 0.603596 -1.22014e-22)
(0.949483 0.513958 1.226e-23)
(0.959507 0.437528 -7.56332e-22)
(0.968168 0.37659 0)
(0.978878 0.325124 2.98756e-22)
(0.988147 0.282494 -4.05784e-23)
(0.996714 0.245834 4.96018e-22)
(1.00386 0.215691 -4.88206e-23)
(0.532713 0.48445 0)
(0.84057 0.670766 -4.02636e-24)
(0.907979 0.601822 1.07194e-22)
(0.920187 0.510185 0)
(0.935153 0.433201 4.30916e-22)
(0.947554 0.371998 0)
(0.961363 0.320511 -4.08663e-22)
(0.972882 0.278045 2.98697e-22)
(0.98339 0.241551 5.5705e-22)
(0.993603 0.211225 4.44522e-22)
(0.510267 0.494282 -1.10334e-23)
(0.803279 0.671667 1.30831e-23)
(0.873099 0.59744 0)
(0.890656 0.504487 0)
(0.910711 0.427318 0)
(0.926945 0.366147 6.49648e-23)
(0.943886 0.314871 3.00303e-22)
(0.95769 0.272723 4.52986e-23)
(0.970469 0.236461 -5.57054e-22)
(0.983995 0.206158 -4.99358e-22)
(0.485516 0.500731 0)
(0.764714 0.669089 3.16045e-22)
(0.837824 0.590408 0)
(0.861051 0.496816 0)
(0.886305 0.419847 0)
(0.906433 0.359015 -7.38283e-23)
(0.926522 0.308189 6.39907e-22)
(0.942692 0.266532 -1.4855e-22)
(0.958029 0.230576 -5.10068e-22)
(0.974377 0.198993 -5.24183e-22)
(0.45887 0.503664 0)
(0.725232 0.662951 -3.16047e-22)
(0.802396 0.580698 5.40196e-22)
(0.831539 0.487134 0)
(0.862059 0.410768 8.55984e-22)
(0.886113 0.350586 0)
(0.909358 0.300452 -5.17732e-22)
(0.928002 0.259484 4.57451e-22)
(0.945824 0.224353 6.69842e-22)
(0.963476 0.193812 5.22815e-22)
(0.43074 0.502988 -5.21297e-22)
(0.685199 0.653206 0)
(0.76706 0.5683 -4.62835e-22)
(0.802287 0.47542 -6.39939e-23)
(0.8381 0.40007 -1.81619e-21)
(0.866085 0.340853 0)
(0.892489 0.291645 6.2379e-22)
(0.913686 0.251505 3.76558e-23)
(0.933971 0.217076 6.87602e-22)
(0.953004 0.187182 2.43901e-24)
(0.401535 0.498649 5.67741e-22)
(0.644979 0.639836 -3.81226e-23)
(0.732058 0.553223 -8.97922e-23)
(0.773468 0.461668 -7.42741e-23)
(0.814558 0.387757 9.60205e-22)
(0.84645 0.329818 -8.50887e-22)
(0.875995 0.281785 -6.23794e-22)
(0.899747 0.242691 -4.95113e-22)
(0.922309 0.209223 -7.78277e-22)
(0.942514 0.180329 7.23688e-22)
(0.371661 0.490634 -5.9488e-23)
(0.604934 0.622856 -8.93457e-22)
(0.697631 0.535492 0)
(0.745251 0.445887 6.32302e-22)
(0.791562 0.373839 7.01628e-23)
(0.827311 0.317493 8.50892e-22)
(0.859968 0.270874 -8.49643e-23)
(0.886257 0.232993 -4.95973e-22)
(0.910989 0.200589 0)
(0.932325 0.172782 -6.45283e-22)
(0.341513 0.478967 6.77158e-23)
(0.565421 0.602309 9.42292e-22)
(0.664013 0.515154 0)
(0.717809 0.428104 -2.29509e-23)
(0.769241 0.358342 7.69458e-23)
(0.808771 0.303898 0)
(0.844483 0.258938 7.72485e-22)
(0.873251 0.222465 5.6709e-22)
(0.900026 0.191306 1.09253e-22)
(0.922488 0.1647 -9.17692e-23)
(0.311479 0.46371 0)
(0.526787 0.578265 1.38846e-21)
(0.631435 0.492269 -1.23286e-22)
(0.691308 0.408359 6.72099e-23)
(0.747724 0.341301 6.75683e-22)
(0.790932 0.289063 1.17684e-21)
(0.82962 0.246 -8.7574e-22)
(0.860789 0.211113 0)
(0.889493 0.181352 0)
(0.913084 0.156039 0)
(0.281932 0.444961 2.41598e-24)
(0.489368 0.550827 -1.15246e-21)
(0.60012 0.466921 1.36807e-22)
(0.665911 0.386711 -9.61961e-22)
(0.727135 0.322763 -5.85901e-22)
(0.773893 0.273028 1.92688e-22)
(0.815455 0.232094 -8.69861e-22)
(0.848927 0.198975 5.79795e-22)
(0.87944 0.170767 6.31889e-22)
(0.904169 0.146835 -4.96624e-22)
(0.253231 0.422857 -7.9867e-22)
(0.453485 0.520115 -8.92415e-23)
(0.570281 0.439207 1.24711e-21)
(0.641779 0.36323 9.78886e-22)
(0.707598 0.302787 0)
(0.75775 0.255842 -1.11487e-21)
(0.802062 0.217262 -4.09547e-23)
(0.83772 0.186083 -7.46141e-22)
(0.869923 0.159571 -4.42984e-22)
(0.895788 0.137106 3.95432e-22)
(0.225716 0.39758 1.90849e-21)
(0.419435 0.48627 0)
(0.542125 0.40924 -2.57863e-21)
(0.619062 0.338004 -8.56747e-22)
(0.689231 0.281442 -1.01389e-22)
(0.742595 0.237561 0)
(0.789509 0.201549 9.0271e-22)
(0.827223 0.172477 -7.20731e-22)
(0.860993 0.147795 -5.5222e-22)
(0.887982 0.126885 4.25711e-22)
(0.199701 0.36935 -1.0011e-21)
(0.387494 0.449449 -8.77822e-22)
(0.515851 0.377148 1.49795e-21)
(0.597905 0.311132 -1.3767e-22)
(0.672144 0.258807 0)
(0.728516 0.218251 0)
(0.777866 0.185011 0)
(0.817489 0.158203 1.46647e-21)
(0.852698 0.135474 5.52221e-22)
(0.880784 0.116204 -4.25711e-22)
(0.175456 0.338387 -1.02907e-21)
(0.357931 0.409864 8.74744e-22)
(0.491651 0.343074 9.19667e-23)
(0.578446 0.282729 0)
(0.656444 0.234974 -8.70182e-22)
(0.715594 0.197985 -5.83747e-22)
(0.767193 0.167704 -6.51638e-23)
(0.808568 0.143307 1.13503e-22)
(0.845085 0.122646 -1.45617e-22)
(0.874225 0.105102 5.83801e-23)
(0.153219 0.304896 1.1688e-21)
(0.330999 0.367767 -1.17444e-22)
(0.469699 0.307181 -9.61204e-22)
(0.560811 0.252923 2.15144e-22)
(0.642229 0.21004 6.48218e-22)
(0.703905 0.176845 8.30728e-22)
(0.75755 0.149696 -6.72627e-23)
(0.800506 0.127842 -3.74051e-22)
(0.838196 0.109353 0)
(0.868333 0.0936197 5.51804e-23)
(0.133216 0.269105 7.97336e-23)
(0.306925 0.323423 0)
(0.45015 0.26965 -2.84567e-23)
(0.545117 0.221851 0)
(0.629588 0.184115 -9.26029e-22)
(0.69352 0.154916 7.00429e-22)
(0.74899 0.131056 0)
(0.793347 0.111864 8.96541e-24)
(0.832072 0.0956412 0)
(0.863129 0.0818015 0)
(0.115658 0.231272 1.65034e-22)
(0.28591 0.2771 -1.1263e-21)
(0.433137 0.230674 8.9939e-22)
(0.531466 0.189662 -1.55126e-22)
(0.6186 0.157313 4.01214e-22)
(0.684498 0.132291 1.08868e-22)
(0.741559 0.111859 0)
(0.78713 0.0954348 -3.0595e-22)
(0.826748 0.0815608 -8.17632e-23)
(0.858636 0.0696934 -2.39643e-22)
(0.10073 0.191679 7.0356e-22)
(0.268128 0.22908 -1.66974e-21)
(0.418779 0.190457 1.54395e-22)
(0.51995 0.156514 -6.46663e-22)
(0.609334 0.129759 -7.22569e-23)
(0.676895 0.109069 -7.15918e-22)
(0.7353 0.0921841 0)
(0.781892 0.0786183 4.17444e-22)
(0.822258 0.0671646 -7.55769e-23)
(0.854867 0.0573417 5.46053e-22)
(0.0885923 0.150625 -7.0356e-22)
(0.253723 0.179653 6.11926e-22)
(0.407172 0.149213 -1.06483e-22)
(0.510644 0.12257 7.59126e-22)
(0.60185 0.10158 4.19357e-22)
(0.670756 0.0853515 4.38431e-23)
(0.730248 0.0721138 -3.66067e-23)
(0.777662 0.0614823 -4.67669e-22)
(0.81863 0.0525086 3.86267e-24)
(0.851837 0.0447935 -1.81459e-22)
(0.0793745 0.10842 3.67355e-22)
(0.242816 0.129121 0)
(0.398397 0.107162 4.36763e-22)
(0.50361 0.0880005 0)
(0.596194 0.0729109 5.89256e-23)
(0.666119 0.0612455 -4.90647e-23)
(0.726434 0.0517332 0)
(0.774467 0.0440958 0)
(0.815887 0.0376504 0)
(0.849556 0.0320964 0)
(0.0731744 0.0653853 -3.21798e-22)
(0.235494 0.0777923 -1.2424e-22)
(0.392513 0.0645307 -4.36763e-22)
(0.498895 0.0529812 0)
(0.592404 0.0438885 0)
(0.663011 0.0368597 2.23377e-23)
(0.723878 0.0311295 -8.94037e-23)
(0.772325 0.0265296 -1.07036e-22)
(0.814047 0.0226479 -1.00798e-22)
(0.848031 0.0192969 1.63234e-23)
(0.0700578 0.0218507 -5.82201e-24)
(0.231818 0.025984 1.33982e-22)
(0.389562 0.021549 -6.05745e-24)
(0.49653 0.0176905 2.08443e-23)
(0.590503 0.0146531 -8.23653e-24)
(0.661453 0.0123052 0)
(0.722596 0.0103913 7.07529e-23)
(0.771251 0.00885514 1.07036e-22)
(0.813123 0.00755877 7.64905e-23)
(0.847267 0.00643858 1.15453e-23)
(0.0700578 -0.0218512 -5.82201e-24)
(0.231818 -0.0259846 1.33982e-22)
(0.389562 -0.0215496 -6.05745e-24)
(0.49653 -0.017691 2.08443e-23)
(0.590503 -0.0146535 -8.23653e-24)
(0.661453 -0.0123056 0)
(0.722596 -0.0103917 6.22963e-23)
(0.771251 -0.00885549 1.14114e-22)
(0.813123 -0.0075591 8.13641e-23)
(0.847267 -0.00643888 0)
(0.0731744 -0.0653858 -4.12913e-22)
(0.235494 -0.0777929 -1.6107e-22)
(0.392513 -0.0645312 -4.63039e-22)
(0.498895 -0.0529817 2.17349e-23)
(0.592404 -0.0438889 0)
(0.663011 -0.0368601 -2.23377e-23)
(0.723878 -0.0311299 -5.21021e-23)
(0.772325 -0.02653 -1.07036e-22)
(0.814047 -0.0226482 -6.193e-23)
(0.848031 -0.0192972 -1.63234e-23)
(0.0793745 -0.10842 3.67355e-22)
(0.242816 -0.129121 0)
(0.398397 -0.107163 4.36763e-22)
(0.503611 -0.088001 0)
(0.596194 -0.0729114 5.89256e-23)
(0.666119 -0.0612459 -4.90647e-23)
(0.726434 -0.0517336 0)
(0.774467 -0.0440962 0)
(0.815887 -0.0376507 0)
(0.849556 -0.0320967 0)
(0.0885924 -0.150625 -7.0356e-22)
(0.253723 -0.179654 4.77849e-22)
(0.407172 -0.149214 1.06483e-22)
(0.510644 -0.12257 5.19802e-22)
(0.60185 -0.101581 5.47637e-22)
(0.670756 -0.0853519 -4.38431e-23)
(0.730248 -0.0721142 3.66067e-23)
(0.777662 -0.0614826 -3.6722e-22)
(0.81863 -0.0525089 -3.86267e-24)
(0.851837 -0.0447938 -3.04402e-22)
(0.10073 -0.19168 7.0356e-22)
(0.268128 -0.229081 5.79964e-22)
(0.418779 -0.190458 -1.54395e-22)
(0.51995 -0.156514 -6.32263e-22)
(0.609334 -0.129759 5.3713e-23)
(0.676895 -0.109069 -7.15918e-22)
(0.7353 -0.0921845 0)
(0.781892 -0.0786187 4.17444e-22)
(0.822258 -0.0671649 7.55769e-23)
(0.854867 -0.057342 4.19094e-22)
(0.115658 -0.231272 -1.65034e-22)
(0.28591 -0.277101 1.1263e-21)
(0.433137 -0.230674 7.03618e-22)
(0.531467 -0.189663 1.55126e-22)
(0.6186 -0.157314 5.02401e-22)
(0.684498 -0.132291 -1.62627e-22)
(0.741559 -0.111859 7.07469e-23)
(0.78713 -0.0954351 -5.00897e-22)
(0.826748 -0.0815611 8.17632e-23)
(0.858636 -0.0696936 -2.39643e-22)
(0.133216 -0.269105 -7.97336e-23)
(0.306925 -0.323423 0)
(0.45015 -0.26965 -2.84568e-23)
(0.545117 -0.221851 0)
(0.629588 -0.184115 -9.26029e-22)
(0.69352 -0.154916 7.00429e-22)
(0.74899 -0.131056 0)
(0.793347 -0.111865 8.96542e-24)
(0.832072 -0.0956415 0)
(0.863129 -0.0818018 0)
(0.153219 -0.304897 1.1688e-21)
(0.330999 -0.367767 1.17444e-22)
(0.4697 -0.307181 -6.7628e-22)
(0.560811 -0.252923 -1.39542e-22)
(0.642229 -0.210041 1.09215e-21)
(0.703906 -0.176845 4.9286e-22)
(0.757551 -0.149697 6.72627e-23)
(0.800506 -0.127842 -4.6732e-22)
(0.838196 -0.109353 7.82368e-23)
(0.868333 -0.09362 -5.51804e-23)
(0.175456 -0.338388 -1.30853e-21)
(0.357931 -0.409864 8.80904e-22)
(0.491651 -0.343074 8.30433e-23)
(0.578446 -0.28273 -1.44765e-22)
(0.656444 -0.234974 -8.70182e-22)
(0.715594 -0.197986 -7.39837e-22)
(0.767194 -0.167705 6.51638e-23)
(0.808568 -0.143307 -6.79699e-23)
(0.845085 -0.122646 1.45617e-22)
(0.874225 -0.105102 -5.83801e-23)
(0.199701 -0.36935 -1.0011e-21)
(0.387494 -0.44945 -8.77822e-22)
(0.515851 -0.377148 1.16508e-21)
(0.597905 -0.311132 1.3767e-22)
(0.672144 -0.258808 0)
(0.728516 -0.218251 0)
(0.777866 -0.185011 0)
(0.817489 -0.158203 1.46647e-21)
(0.852698 -0.135474 5.52221e-22)
(0.880784 -0.116204 -4.25711e-22)
(0.225716 -0.39758 1.90849e-21)
(0.419435 -0.486271 0)
(0.542125 -0.409241 -2.57863e-21)
(0.619062 -0.338004 -9.7889e-22)
(0.689231 -0.281442 0)
(0.742595 -0.237561 0)
(0.78951 -0.20155 9.0271e-22)
(0.827224 -0.172478 -7.20731e-22)
(0.860993 -0.147796 -5.52219e-22)
(0.887982 -0.126885 4.25711e-22)
(0.253231 -0.422858 -1.0161e-21)
(0.453485 -0.520116 8.92414e-23)
(0.570281 -0.439207 1.24711e-21)
(0.641779 -0.363231 1.09425e-21)
(0.707599 -0.302788 -9.5761e-23)
(0.75775 -0.255842 -1.11487e-21)
(0.802062 -0.217262 -4.09547e-23)
(0.83772 -0.186083 -5.82971e-22)
(0.869924 -0.159571 -5.79854e-22)
(0.895789 -0.137106 3.95432e-22)
(0.281932 -0.444961 -2.41599e-24)
(0.489368 -0.550827 -1.3252e-21)
(0.60012 -0.466922 -1.36807e-22)
(0.665912 -0.386711 -7.45631e-22)
(0.727136 -0.322764 -5.96413e-22)
(0.773893 -0.273029 -2.10079e-22)
(0.815455 -0.232095 -8.53635e-22)
(0.848927 -0.198975 7.49311e-22)
(0.879441 -0.170767 3.90945e-22)
(0.904169 -0.146835 -2.94241e-22)
(0.311479 -0.46371 0)
(0.526787 -0.578266 1.08919e-21)
(0.631435 -0.49227 1.23286e-22)
(0.691308 -0.40836 6.72099e-23)
(0.747724 -0.341302 6.75683e-22)
(0.790932 -0.289063 9.29514e-22)
(0.82962 -0.246 -7.65316e-22)
(0.86079 -0.211113 8.04163e-23)
(0.889493 -0.181352 0)
(0.913084 -0.156039 0)
(0.341513 -0.478967 -6.77157e-23)
(0.565421 -0.602309 9.42291e-22)
(0.664013 -0.515154 0)
(0.717809 -0.428104 1.62443e-22)
(0.769241 -0.358343 -7.69457e-23)
(0.808771 -0.303898 0)
(0.844483 -0.258939 7.72485e-22)
(0.873251 -0.222465 5.6709e-22)
(0.900026 -0.191307 -1.09253e-22)
(0.922488 -0.1647 9.17692e-23)
(0.371661 -0.490634 5.94879e-23)
(0.604934 -0.622857 -9.91118e-22)
(0.697631 -0.535493 0)