/*--------------------------------*- C++ -*----------------------------------*\
  =========                 |
  \\      /  F ield         | OpenFOAM: The Open Source CFD Toolbox
   \\    /   O peration     | Website:  https://openfoam.org
    \\  /    A nd           | Version:  9
     \\/     M anipulation  |
\*---------------------------------------------------------------------------*/
FoamFile
{
    format      ascii;
    class       volScalarField;
    location    "57";
    object      p;
}
// * * * * * * * * * * * * * * * * * * * * * * * * * * * * * * * * * * * * * //

dimensions      [0 2 -2 0 0 0 0];

internalField   nonuniform List<scalar> 
8500
(
-0.275726
-0.279939
-0.280774
-0.282521
-0.284605
-0.284851
-0.288601
-0.284977
-0.291143
-0.283829
-0.275991
-0.280142
-0.280972
-0.282688
-0.284803
-0.284945
-0.288898
-0.284913
-0.291555
-0.283715
-0.276514
-0.280544
-0.28136
-0.283012
-0.285192
-0.285123
-0.289483
-0.284767
-0.292376
-0.283487
-0.277281
-0.281134
-0.281925
-0.283478
-0.285754
-0.285364
-0.290337
-0.284512
-0.293593
-0.28314
-0.278275
-0.281895
-0.28265
-0.284066
-0.286464
-0.285642
-0.291424
-0.284109
-0.295183
-0.282671
-0.279471
-0.282809
-0.283511
-0.284747
-0.287287
-0.285931
-0.292692
-0.283524
-0.297106
-0.282062
-0.280846
-0.283856
-0.284483
-0.285494
-0.28818
-0.286208
-0.294064
-0.282726
-0.299305
-0.281253
-0.282371
-0.285013
-0.285538
-0.286277
-0.28909
-0.286459
-0.295446
-0.281705
-0.30169
-0.280235
-0.284021
-0.28626
-0.286647
-0.287071
-0.28996
-0.28668
-0.296721
-0.280532
-0.303822
-0.279216
-0.285773
-0.287578
-0.287783
-0.287854
-0.290734
-0.286887
-0.297672
-0.279437
-0.305624
-0.277822
-0.287607
-0.28895
-0.28892
-0.288612
-0.291354
-0.287166
-0.298165
-0.278316
-0.307052
-0.276207
-0.28951
-0.290365
-0.290039
-0.289335
-0.291716
-0.287562
-0.298214
-0.277239
-0.307703
-0.274846
-0.291478
-0.291818
-0.291131
-0.290041
-0.291842
-0.287947
-0.297816
-0.276527
-0.307029
-0.274297
-0.293512
-0.293309
-0.292186
-0.290708
-0.291788
-0.288266
-0.296907
-0.276342
-0.304636
-0.274588
-0.295624
-0.294844
-0.293216
-0.291316
-0.291599
-0.2885
-0.295549
-0.276606
-0.300504
-0.27492
-0.297841
-0.29643
-0.294258
-0.291871
-0.291329
-0.288458
-0.293867
-0.276953
-0.295131
-0.274198
-0.300195
-0.298089
-0.295342
-0.292403
-0.291051
-0.288099
-0.291948
-0.276996
-0.289161
-0.271896
-0.302728
-0.299852
-0.296502
-0.292953
-0.290826
-0.287445
-0.289764
-0.276539
-0.282852
-0.268032
-0.305487
-0.301755
-0.297781
-0.293558
-0.29066
-0.286604
-0.287221
-0.275509
-0.276135
-0.263023
-0.30853
-0.303837
-0.299231
-0.294242
-0.290514
-0.285699
-0.284298
-0.273767
-0.269054
-0.25765
-0.311911
-0.306149
-0.300903
-0.295007
-0.29036
-0.284769
-0.281068
-0.271086
-0.262227
-0.252402
-0.315674
-0.308759
-0.302835
-0.295837
-0.290231
-0.283752
-0.277614
-0.267412
-0.256099
-0.245884
-0.319895
-0.31172
-0.305032
-0.296743
-0.290185
-0.282528
-0.273968
-0.263009
-0.249948
-0.239146
-0.324636
-0.315094
-0.307458
-0.297804
-0.290216
-0.28099
-0.270129
-0.258014
-0.243796
-0.232363
-0.329959
-0.318936
-0.310062
-0.299152
-0.290235
-0.279079
-0.266051
-0.252627
-0.237529
-0.225489
-0.335933
-0.323257
-0.312846
-0.300862
-0.290121
-0.276767
-0.261712
-0.246941
-0.231125
-0.218591
-0.342632
-0.328008
-0.315924
-0.302859
-0.289771
-0.27405
-0.257094
-0.241017
-0.224583
-0.211602
-0.350125
-0.333092
-0.319498
-0.304939
-0.289111
-0.270932
-0.252191
-0.23488
-0.217888
-0.20452
-0.358454
-0.338407
-0.323753
-0.306887
-0.288068
-0.267417
-0.246992
-0.22853
-0.211039
-0.197306
-0.367597
-0.34389
-0.328732
-0.308549
-0.286574
-0.263498
-0.241488
-0.221959
-0.204014
-0.189939
-0.377435
-0.349554
-0.334254
-0.309829
-0.284565
-0.259157
-0.23566
-0.215147
-0.196798
-0.182394
-0.387745
-0.355477
-0.339935
-0.310648
-0.281988
-0.254364
-0.229486
-0.208074
-0.189365
-0.174649
-0.398194
-0.361755
-0.345287
-0.310918
-0.2788
-0.249084
-0.222938
-0.200714
-0.181693
-0.166682
-0.408465
-0.368452
-0.349849
-0.310524
-0.27496
-0.243278
-0.215984
-0.193041
-0.17376
-0.158475
-0.418252
-0.375532
-0.353269
-0.309335
-0.270428
-0.236912
-0.208591
-0.185026
-0.165544
-0.15001
-0.427301
-0.382823
-0.355327
-0.307214
-0.265156
-0.229953
-0.200727
-0.176642
-0.157025
-0.141272
-0.435406
-0.390002
-0.355918
-0.304035
-0.259095
-0.222369
-0.192361
-0.167862
-0.148181
-0.132245
-0.442409
-0.396612
-0.355028
-0.299698
-0.252191
-0.214125
-0.183466
-0.158665
-0.138994
-0.122925
-0.448181
-0.402128
-0.352686
-0.294135
-0.244389
-0.205187
-0.174014
-0.149031
-0.129451
-0.113321
-0.452614
-0.406073
-0.348871
-0.287296
-0.235642
-0.195523
-0.163985
-0.13894
-0.119537
-0.103458
-0.455608
-0.408112
-0.343465
-0.279138
-0.225907
-0.185103
-0.153359
-0.128376
-0.109243
-0.0933527
-0.457054
-0.407966
-0.336372
-0.269616
-0.215149
-0.173904
-0.14212
-0.117325
-0.09856
-0.0829832
-0.456823
-0.405434
-0.327533
-0.258691
-0.203341
-0.161906
-0.130256
-0.105775
-0.0874972
-0.0722887
-0.454757
-0.400379
-0.316902
-0.24634
-0.190462
-0.149093
-0.117752
-0.0937158
-0.0760973
-0.061189
-0.45067
-0.392711
-0.304429
-0.232561
-0.1765
-0.135453
-0.104598
-0.0811501
-0.0644068
-0.0496609
-0.444355
-0.382371
-0.290076
-0.21736
-0.161441
-0.12098
-0.0907997
-0.0681167
-0.052401
-0.0378367
-0.435595
-0.369324
-0.273822
-0.200734
-0.145271
-0.105698
-0.0763972
-0.0546966
-0.0399674
-0.0258087
-0.42418
-0.353554
-0.255658
-0.182682
-0.127997
-0.0896685
-0.0614539
-0.0408682
-0.0271146
-0.0135831
-0.409916
-0.335059
-0.235581
-0.163225
-0.109703
-0.072951
-0.0459278
-0.0266412
-0.0138885
-0.0011665
-0.392643
-0.313858
-0.213577
-0.142449
-0.0905437
-0.0554465
-0.0298599
-0.0120289
-0.000337219
0.0114277
-0.372243
-0.290008
-0.189647
-0.120507
-0.0704571
-0.0372103
-0.0132905
0.00294421
0.0134964
0.0241727
-0.34865
-0.263638
-0.163874
-0.0973716
-0.0494882
-0.018302
0.00373678
0.0182456
0.0275711
0.0370321
-0.321852
-0.234916
-0.136447
-0.0729575
-0.0276953
0.00121225
0.0211742
0.0338355
0.041847
0.0499615
-0.291896
-0.203873
-0.107502
-0.047382
-0.0051456
0.0212623
0.0389675
0.04967
0.0562874
0.0629164
-0.258903
-0.170244
-0.0774328
-0.0207887
0.0180865
0.0417731
0.0570561
0.0657037
0.0708613
0.0758532
-0.223047
-0.134337
-0.0461886
0.00667251
0.0419146
0.0626647
0.0753752
0.0818952
0.0855364
0.0887013
-0.18443
-0.0965599
-0.0138211
0.0348552
0.0662384
0.083852
0.0938594
0.0982106
0.100257
0.101287
-0.143016
-0.0575453
0.0195399
0.0636169
0.0909471
0.105245
0.112447
0.114616
0.114911
0.113275
-0.0992923
-0.0174524
0.053715
0.0928147
0.115921
0.126752
0.131077
0.131053
0.129324
0.124374
-0.0536162
0.0235274
0.0884999
0.122299
0.141035
0.148276
0.149681
0.14741
0.143332
0.134905
-0.00636758
0.0651571
0.123675
0.151915
0.166158
0.169721
0.168175
0.163547
0.156883
0.146183
0.0420514
0.107173
0.159011
0.181496
0.191156
0.190985
0.186461
0.179353
0.17018
0.15799
0.0912218
0.149294
0.194274
0.210875
0.215893
0.211964
0.204446
0.194796
0.18327
0.169841
0.140713
0.191227
0.229226
0.239876
0.240232
0.232549
0.222032
0.209829
0.1961
0.181557
0.190086
0.232674
0.26363
0.268324
0.264035
0.252628
0.239133
0.224406
0.208597
0.192957
0.238903
0.273333
0.297249
0.296041
0.287163
0.272093
0.255661
0.238468
0.220693
0.203946
0.286726
0.312906
0.32985
0.322853
0.309479
0.290834
0.271534
0.251955
0.232321
0.214443
0.333125
0.351101
0.361208
0.348587
0.33085
0.308746
0.286669
0.264802
0.243418
0.22439
0.377681
0.387637
0.391104
0.373077
0.351145
0.325724
0.300987
0.276946
0.253922
0.233738
0.419984
0.422254
0.41933
0.396159
0.370239
0.34167
0.314411
0.288326
0.263777
0.242443
0.459658
0.454696
0.445686
0.417679
0.388011
0.35649
0.326869
0.298882
0.272927
0.250467
0.496405
0.484674
0.469985
0.437492
0.404351
0.370096
0.338291
0.30856
0.281321
0.257776
0.529929
0.511931
0.49205
0.455461
0.419153
0.382407
0.348615
0.317307
0.288911
0.26434
0.559937
0.536251
0.511721
0.471464
0.432323
0.393348
0.357782
0.325075
0.295653
0.270132
0.586168
0.557449
0.528856
0.48539
0.443776
0.402854
0.365741
0.331819
0.301509
0.275131
0.608391
0.575363
0.543329
0.497145
0.453436
0.410866
0.372445
0.3375
0.306443
0.27932
0.626408
0.589859
0.555036
0.506647
0.461241
0.417336
0.377856
0.342086
0.310426
0.282684
0.640063
0.600827
0.563892
0.513831
0.46714
0.422223
0.381942
0.345549
0.313435
0.285213
0.649233
0.608186
0.569832
0.518648
0.471095
0.425498
0.384679
0.34787
0.315451
0.286902
0.653839
0.611879
0.572813
0.521065
0.473078
0.427141
0.386052
0.349033
0.316462
0.287747
0.653839
0.611879
0.572813
0.521065
0.473078
0.427141
0.386052
0.349033
0.316462
0.287747
0.649233
0.608186
0.569832
0.518648
0.471095
0.425498
0.384679
0.34787
0.315451
0.286902
0.640063
0.600827
0.563892
0.513831
0.46714
0.422223
0.381942
0.345549
0.313435
0.285213
0.626409
0.589859
0.555036
0.506647
0.461241
0.417336
0.377856
0.342086
0.310427
0.282684
0.608391
0.575363
0.543329
0.497145
0.453436
0.410866
0.372445
0.3375
0.306444
0.27932
0.586169
0.557449
0.528856
0.48539
0.443776
0.402854
0.365741
0.331819
0.30151
0.275132
0.559938
0.536251
0.511722
0.471464
0.432324
0.393349
0.357783
0.325075
0.295654
0.270133
0.529929
0.511931
0.492051
0.455462
0.419154
0.382408
0.348616
0.317308
0.288911
0.26434
0.496406
0.484674
0.469986
0.437492
0.404352
0.370097
0.338292
0.308561
0.281321
0.257776
0.459659
0.454696
0.445687
0.41768
0.388012
0.356491
0.326869
0.298883
0.272927
0.250467
0.419985
0.422255
0.41933
0.39616
0.370239
0.341671
0.314412
0.288326
0.263778
0.242443
0.377682
0.387638
0.391105
0.373078
0.351146
0.325725
0.300988
0.276946
0.253923
0.233738
0.333126
0.351102
0.361209
0.348588
0.330851
0.308747
0.28667
0.264802
0.243419
0.224391
0.286727
0.312908
0.329851
0.322854
0.30948
0.290835
0.271535
0.251956
0.232322
0.214444
0.238904
0.273335
0.29725
0.296042
0.287164
0.272094
0.255662
0.238469
0.220694
0.203947
0.190088
0.232675
0.263631
0.268325
0.264036
0.25263
0.239134
0.224407
0.208598
0.192958
0.140714
0.191229
0.229228
0.239878
0.240234
0.23255
0.222033
0.20983
0.196102
0.181557
0.0912237
0.149296
0.194276
0.210877
0.215895
0.211966
0.204447
0.194797
0.183272
0.169842
0.0420534
0.107175
0.159013
0.181498
0.191157
0.190987
0.186463
0.179355
0.170181
0.157992
-0.00636533
0.0651592
0.123677
0.151917
0.166159
0.169723
0.168176
0.163549
0.156885
0.146184
-0.0536137
0.0235296
0.088502
0.122301
0.141037
0.148278
0.149682
0.147411
0.143333
0.134906
-0.0992895
-0.01745
0.0537173
0.0928168
0.115923
0.126754
0.131078
0.131054
0.129325
0.124376
-0.143013
-0.0575426
0.0195424
0.0636192
0.0909493
0.105247
0.112449
0.114618
0.114913
0.113276
-0.184427
-0.096557
-0.0138184
0.0348576
0.0662407
0.0838541
0.0938613
0.0982122
0.100259
0.101289
-0.223044
-0.134334
-0.0461857
0.00667509
0.041917
0.0626668
0.0753771
0.081897
0.0855379
0.0887026
-0.258899
-0.170241
-0.0774297
-0.0207859
0.0180891
0.0417753
0.0570581
0.0657056
0.0708629
0.0758546
-0.291892
-0.203869
-0.107498
-0.0473791
-0.00514294
0.0212647
0.0389696
0.0496719
0.0562891
0.0629179
-0.321847
-0.234912
-0.136444
-0.0729545
-0.0276925
0.00121474
0.0211764
0.0338374
0.0418487
0.049963
-0.348645
-0.263634
-0.163871
-0.0973683
-0.0494853
-0.0182994
0.00373909
0.0182476
0.0275729
0.0370336
-0.372238
-0.290004
-0.189643
-0.120504
-0.070454
-0.0372076
-0.0132881
0.0029463
0.0134982
0.0241743
-0.392637
-0.313853
-0.213573
-0.142446
-0.0905404
-0.0554437
-0.0298575
-0.0120268
-0.000335401
0.0114292
-0.40991
-0.335054
-0.235577
-0.163221
-0.1097
-0.0729481
-0.0459252
-0.026639
-0.0138867
-0.00116498
-0.424174
-0.353549
-0.255654
-0.182678
-0.127993
-0.0896654
-0.0614513
-0.040866
-0.0271127
-0.0135816
-0.435589
-0.369318
-0.273817
-0.20073
-0.145267
-0.105694
-0.0763945
-0.0546943
-0.0399656
-0.0258072
-0.444348
-0.382365
-0.290071
-0.217355
-0.161437
-0.120977
-0.0907969
-0.0681144
-0.0523991
-0.0378352
-0.450663
-0.392704
-0.304424
-0.232557
-0.176496
-0.13545
-0.104595
-0.0811477
-0.0644049
-0.0496595
-0.45475
-0.400372
-0.316896
-0.246335
-0.190458
-0.14909
-0.117749
-0.0937133
-0.0760954
-0.0611876
-0.456816
-0.405427
-0.327527
-0.258686
-0.203336
-0.161902
-0.130253
-0.105772
-0.0874953
-0.0722874
-0.457047
-0.407959
-0.336366
-0.26961
-0.215145
-0.1739
-0.142117
-0.117323
-0.0985582
-0.0829819
-0.4556
-0.408105
-0.343458
-0.279132
-0.225902
-0.1851
-0.153356
-0.128373
-0.109242
-0.0933514
-0.452607
-0.406066
-0.348865
-0.28729
-0.235637
-0.195519
-0.163982
-0.138937
-0.119536
-0.103457
-0.448173
-0.40212
-0.352679
-0.294129
-0.244384
-0.205183
-0.174011
-0.149028
-0.129449
-0.11332
-0.442401
-0.396604
-0.355021
-0.299692
-0.252185
-0.21412
-0.183462
-0.158663
-0.138993
-0.122924
-0.435398
-0.389993
-0.355911
-0.304028
-0.25909
-0.222364
-0.192358
-0.16786
-0.148179
-0.132245
-0.427292
-0.382815
-0.355319
-0.307207
-0.265151
-0.229949
-0.200723
-0.176639
-0.157023
-0.141271
-0.418244
-0.375523
-0.353261
-0.309328
-0.270422
-0.236907
-0.208587
-0.185024
-0.165543
-0.15001
-0.408456
-0.368443
-0.349841
-0.310517
-0.274954
-0.243273
-0.21598
-0.193039
-0.173759
-0.158475
-0.398185
-0.361747
-0.345279
-0.31091
-0.278793
-0.249078
-0.222934
-0.200711
-0.181692
-0.166682
-0.387736
-0.355468
-0.339927
-0.31064
-0.281982
-0.254358
-0.229482
-0.208071
-0.189364
-0.174649
-0.377426
-0.349546
-0.334246
-0.309821
-0.284558
-0.259151
-0.235656
-0.215144
-0.196797
-0.182395
-0.367588
-0.343881
-0.328723
-0.308541
-0.286566
-0.263491
-0.241483
-0.221956
-0.204013
-0.18994
-0.358445
-0.338398
-0.323744
-0.306878
-0.28806
-0.26741
-0.246987
-0.228527
-0.211038
-0.197307
-0.350116
-0.333084
-0.319489
-0.30493
-0.289102
-0.270925
-0.252185
-0.234877
-0.217888
-0.204522
-0.342623
-0.327999
-0.315915
-0.302849
-0.289763
-0.274042
-0.257088
-0.241014
-0.224582
-0.211604
-0.335924
-0.323248
-0.312837
-0.300853
-0.290111
-0.276759
-0.261705
-0.246937
-0.231124
-0.218594
-0.32995
-0.318927
-0.310053
-0.299142
-0.290225
-0.27907
-0.266044
-0.252623
-0.237529
-0.225493
-0.324627
-0.315086
-0.307449
-0.297794
-0.290205
-0.28098
-0.270121
-0.25801
-0.243796
-0.232367
-0.319886
-0.311711
-0.305023
-0.296733
-0.290174
-0.282518
-0.273959
-0.263004
-0.249947
-0.239151
-0.315665
-0.30875
-0.302825
-0.295827
-0.29022
-0.28374
-0.277605
-0.267406
-0.256098
-0.24589
-0.311902
-0.30614
-0.300893
-0.294997
-0.290348
-0.284757
-0.281058
-0.27108
-0.262225
-0.252409
-0.308521
-0.303829
-0.299222
-0.294232
-0.290502
-0.285687
-0.284287
-0.273761
-0.269052
-0.257659
-0.305479
-0.301747
-0.297772
-0.293547
-0.290648
-0.286592
-0.287209
-0.275501
-0.276132
-0.263032
-0.302719
-0.299844
-0.296492
-0.292943
-0.290814
-0.287431
-0.289752
-0.27653
-0.282848
-0.268041
-0.300187
-0.298081
-0.295333
-0.292392
-0.291039
-0.288086
-0.291936
-0.276986
-0.289156
-0.271905
-0.297833
-0.296422
-0.294249
-0.29186
-0.291317
-0.288444
-0.293854
-0.276943
-0.295126
-0.274206
-0.295617
-0.294836
-0.293207
-0.291306
-0.291588
-0.288487
-0.295536
-0.276596
-0.300499
-0.274928
-0.293505
-0.293302
-0.292177
-0.290698
-0.291777
-0.288253
-0.296895
-0.276331
-0.304631
-0.274595
-0.291472
-0.291811
-0.291123
-0.290032
-0.291832
-0.287934
-0.297804
-0.276517
-0.307024
-0.274303
-0.289505
-0.290359
-0.290032
-0.289326
-0.291706
-0.287551
-0.298203
-0.27723
-0.307698
-0.274852
-0.287602
-0.288944
-0.288913
-0.288604
-0.291345
-0.287156
-0.298155
-0.278309
-0.307048
-0.276213
-0.285768
-0.287573
-0.287777
-0.287847
-0.290727
-0.286878
-0.297663
-0.27943
-0.30562
-0.277829
-0.284017
-0.286256
-0.286642
-0.287065
-0.289953
-0.286672
-0.296713
-0.280526
-0.30382
-0.279223
-0.282367
-0.285009
-0.285534
-0.286272
-0.289084
-0.286452
-0.29544
-0.2817
-0.301689
-0.280242
-0.280843
-0.283853
-0.284479
-0.285489
-0.288175
-0.286202
-0.294059
-0.282722
-0.299306
-0.28126
-0.279469
-0.282806
-0.283508
-0.284743
-0.287283
-0.285926
-0.292688
-0.283521
-0.297107
-0.282069
-0.278273
-0.281892
-0.282647
-0.284063
-0.286461
-0.285638
-0.291421
-0.284107
-0.295184
-0.282678
-0.27728
-0.281132
-0.281923
-0.283476
-0.285752
-0.285361
-0.290335
-0.28451
-0.293594
-0.283146
-0.276513
-0.280543
-0.281358
-0.28301
-0.28519
-0.285121
-0.289482
-0.284766
-0.292377
-0.283491
-0.27599
-0.280142
-0.280971
-0.282686
-0.284802
-0.284944
-0.288897
-0.284912
-0.291556
-0.283718
-0.275726
-0.279938
-0.280774
-0.282521
-0.284604
-0.28485
-0.2886
-0.284977
-0.291143
-0.28383
-0.291158
-0.28154
-0.282456
-0.274418
-0.270109
-0.261286
-0.253242
-0.242389
-0.230966
-0.217455
-0.202693
-0.186474
-0.168746
-0.150559
-0.131312
-0.1128
-0.0946981
-0.0779739
-0.0635881
-0.0503018
-0.0404071
-0.0311022
-0.024593
-0.0186937
-0.0142336
-0.0103631
-0.00745819
-0.00430885
-0.00258275
2.37449e-05
-0.291396
-0.281673
-0.28255
-0.27453
-0.2702
-0.261395
-0.253351
-0.242513
-0.231099
-0.217601
-0.202845
-0.186626
-0.168883
-0.150672
-0.131395
-0.112858
-0.0947442
-0.0780216
-0.0636507
-0.0503752
-0.0404811
-0.0311611
-0.0246264
-0.0187029
-0.01423
-0.0103615
-0.00746815
-0.00432782
-0.00259505
1.99677e-05
-0.291845
-0.281924
-0.282737
-0.274753
-0.270394
-0.261609
-0.253564
-0.242747
-0.231344
-0.217865
-0.203115
-0.186898
-0.169136
-0.150899
-0.131584
-0.113012
-0.0948754
-0.0781411
-0.0637749
-0.0504976
-0.0405955
-0.0312532
-0.0246861
-0.0187351
-0.0142442
-0.0103742
-0.00748906
-0.00435421
-0.00261224
1.26824e-05
-0.292459
-0.282264
-0.283003
-0.27507
-0.270661
-0.261922
-0.253872
-0.243084
-0.231694
-0.218237
-0.203493
-0.18728
-0.169496
-0.151232
-0.131873
-0.113257
-0.0950933
-0.0783328
-0.0639619
-0.05067
-0.040751
-0.031379
-0.024773
-0.0187912
-0.0142774
-0.0104022
-0.00752139
-0.00438819
-0.00263423
1.78792e-06
-0.293168
-0.282637
-0.283328
-0.275448
-0.271012
-0.262308
-0.254262
-0.243506
-0.232132
-0.218702
-0.203965
-0.187758
-0.169953
-0.151661
-0.132252
-0.113591
-0.0953929
-0.0785962
-0.0642119
-0.0508937
-0.0409483
-0.0315399
-0.0248884
-0.0188728
-0.0143311
-0.0104466
-0.00756565
-0.00443006
-0.00266099
-1.28606e-05
-0.293889
-0.283025
-0.28367
-0.275878
-0.271392
-0.262759
-0.254702
-0.243999
-0.23264
-0.219245
-0.204518
-0.188319
-0.170487
-0.15217
-0.132723
-0.114007
-0.0957728
-0.0789309
-0.0645253
-0.0511704
-0.0411891
-0.031738
-0.0250342
-0.0189816
-0.0144069
-0.0105088
-0.0076224
-0.00448022
-0.00269255
-3.14293e-05
-0.294592
-0.283296
-0.284031
-0.276283
-0.27181
-0.263219
-0.2552
-0.244528
-0.233203
-0.219839
-0.205124
-0.188941
-0.171101
-0.152755
-0.133268
-0.114499
-0.09623
-0.0793362
-0.0649029
-0.0515022
-0.0414753
-0.0319758
-0.0252127
-0.0191196
-0.0145065
-0.0105898
-0.00769218
-0.00453911
-0.00272899
-5.40774e-05
-0.295016
-0.283607
-0.284271
-0.276716
-0.272173
-0.263718
-0.255673
-0.245099
-0.233782
-0.220479
-0.205778
-0.189615
-0.171764
-0.153399
-0.133882
-0.115063
-0.0967616
-0.0798118
-0.065345
-0.0518914
-0.0418089
-0.032256
-0.0254261
-0.0192886
-0.0146314
-0.0106908
-0.00777551
-0.00460721
-0.00277042
-8.09272e-05
-0.295071
-0.283874
-0.284352
-0.277113
-0.272474
-0.264186
-0.256143
-0.24566
-0.234371
-0.221128
-0.20645
-0.190318
-0.172469
-0.154094
-0.134558
-0.115693
-0.097365
-0.0803574
-0.0658523
-0.05234
-0.0421922
-0.0325811
-0.0256767
-0.0194904
-0.0147831
-0.0108126
-0.0078728
-0.00468494
-0.00281695
-0.000112039
-0.294737
-0.283993
-0.284295
-0.277396
-0.272709
-0.264591
-0.256562
-0.246193
-0.234938
-0.221773
-0.207125
-0.191036
-0.1732
-0.154826
-0.135287
-0.116383
-0.0980372
-0.0809723
-0.0664249
-0.0528499
-0.0426271
-0.0329532
-0.0259664
-0.0197263
-0.0149625
-0.0109557
-0.00798433
-0.00477261
-0.0028687
-0.00014739
-0.293726
-0.283967
-0.284012
-0.277536
-0.272799
-0.264904
-0.25691
-0.246669
-0.235461
-0.222386
-0.207782
-0.191751
-0.173946
-0.155586
-0.136061
-0.117129
-0.0987753
-0.0816557
-0.0670624
-0.0534221
-0.0431147
-0.033374
-0.0262966
-0.0199972
-0.0151703
-0.0111205
-0.00811022
-0.00487045
-0.00292573
-0.000186866
-0.291849
-0.283687
-0.283461
-0.277475
-0.27276
-0.265061
-0.257142
-0.247052
-0.235913
-0.222947
-0.208404
-0.192447
-0.174694
-0.156364
-0.136876
-0.117926
-0.0995759
-0.0824058
-0.0677639
-0.0540567
-0.0436553
-0.0338439
-0.0266678
-0.0203033
-0.0154066
-0.0113068
-0.00825043
-0.00497849
-0.00298808
-0.000230258
-0.28913
-0.283007
-0.282611
-0.277119
-0.272459
-0.265065
-0.257246
-0.247318
-0.236272
-0.223433
-0.208972
-0.19311
-0.175432
-0.157152
-0.137722
-0.118771
-0.100435
-0.0832203
-0.0685273
-0.0547525
-0.0442484
-0.0343626
-0.0270799
-0.0206441
-0.015671
-0.0115143
-0.00840467
-0.00509662
-0.0030557
-0.00027727
-0.285966
-0.281731
-0.281364
-0.276456
-0.271968
-0.264768
-0.257132
-0.247427
-0.236507
-0.223824
-0.209471
-0.193726
-0.176151
-0.157942
-0.138596
-0.119658
-0.101349
-0.084096
-0.0693497
-0.0555073
-0.0448922
-0.0349286
-0.0275317
-0.0210185
-0.0159627
-0.011742
-0.00857249
-0.00522455
-0.00312847
-0.000327537
-0.282593
-0.279794
-0.279663
-0.275401
-0.271148
-0.264372
-0.256863
-0.247378
-0.236607
-0.224103
-0.209886
-0.194284
-0.176842
-0.158728
-0.13949
-0.120582
-0.102312
-0.0850286
-0.0702272
-0.0563174
-0.045584
-0.0355393
-0.0280213
-0.0214249
-0.0162801
-0.0119889
-0.00875324
-0.00536186
-0.00320621
-0.000380641
-0.278929
-0.277269
-0.277437
-0.273882
-0.269917
-0.26337
-0.256239
-0.247094
-0.236536
-0.224255
-0.21021
-0.19478
-0.177499
-0.159504
-0.140399
-0.121539
-0.103318
-0.0860128
-0.0711549
-0.0571784
-0.0463205
-0.0361913
-0.0285463
-0.0218608
-0.0166217
-0.0122537
-0.00894609
-0.00550794
-0.00328864
-0.000436129
-0.275108
-0.274117
-0.274701
-0.271966
-0.268482
-0.262606
-0.255533
-0.246664
-0.236318
-0.224277
-0.210435
-0.195204
-0.178115
-0.160267
-0.141318
-0.122526
-0.104364
-0.0870445
-0.0721285
-0.0580858
-0.0470975
-0.0368808
-0.0291032
-0.0223234
-0.0169848
-0.0125346
-0.00914994
-0.00566201
-0.0033754
-0.000493558
-0.271071
-0.270428
-0.271381
-0.269433
-0.266392
-0.260886
-0.25425
-0.245892
-0.235891
-0.224161
-0.210572
-0.195574
-0.178707
-0.161024
-0.14225
-0.123537
-0.105441
-0.0881127
-0.0731366
-0.0590285
-0.0479063
-0.0376
-0.0296866
-0.0228085
-0.0173668
-0.0128298
-0.00936393
-0.00582352
-0.0034663
-0.000552582
-0.266866
-0.266465
-0.267921
-0.266885
-0.264454
-0.259594
-0.253342
-0.245131
-0.235368
-0.223917
-0.210586
-0.195832
-0.179212
-0.161723
-0.143149
-0.124541
-0.106529
-0.089206
-0.0741784
-0.060009
-0.0487532
-0.0383549
-0.0303021
-0.0233204
-0.0177706
-0.013141
-0.00958893
-0.00599275
-0.00356121
-0.00061274
-0.262911
-0.261707
-0.263211
-0.263016
-0.261274
-0.257094
-0.251182
-0.243818
-0.234598
-0.223604
-0.21065
-0.196225
-0.179906
-0.162633
-0.144262
-0.125753
-0.107799
-0.0904569
-0.0753382
-0.0610823
-0.0496627
-0.0391556
-0.0309473
-0.0238522
-0.0181869
-0.0134599
-0.00981787
-0.00616419
-0.00365711
-0.000672497
-0.257746
-0.257986
-0.259708
-0.26014
-0.258891
-0.255312
-0.250158
-0.242548
-0.233469
-0.222681
-0.209936
-0.195712
-0.179614
-0.162535
-0.144374
-0.126029
-0.108222
-0.0909838
-0.0759084
-0.0616845
-0.0502218
-0.0396891
-0.0314065
-0.0242518
-0.0185152
-0.0137222
-0.0100125
-0.00631341
-0.00374309
-0.000726782
-0.252101
-0.253139
-0.255064
-0.256015
-0.25513
-0.25185
-0.24662
-0.239878
-0.231251
-0.220821
-0.208411
-0.194491
-0.178717
-0.161923
-0.144069
-0.125975
-0.108393
-0.0913288
-0.0763448
-0.0621962
-0.0507171
-0.0401806
-0.0318379
-0.024632
-0.0188295
-0.0139737
-0.0101966
-0.00645509
-0.00382295
-0.00077801
-0.246188
-0.247844
-0.250023
-0.25154
-0.251132
-0.248351
-0.243772
-0.23724
-0.228916
-0.21882
-0.206741
-0.193132
-0.177696
-0.161204
-0.143674
-0.125852
-0.108511
-0.0916387
-0.0767584
-0.0626989
-0.0512108
-0.0406779
-0.0322784
-0.025023
-0.0191543
-0.0142343
-0.0103872
-0.00660225
-0.00390528
-0.000830967
-0.240028
-0.242329
-0.244789
-0.246846
-0.246935
-0.244663
-0.240474
-0.23438
-0.22643
-0.216694
-0.204973
-0.191699
-0.176623
-0.160453
-0.143264
-0.125729
-0.108638
-0.0919664
-0.0771936
-0.063227
-0.0517296
-0.0412006
-0.032742
-0.0254347
-0.0194969
-0.0145093
-0.0105885
-0.00675755
-0.00399203
-0.000886025
-0.233571
-0.236621
-0.239381
-0.241934
-0.24252
-0.240738
-0.236977
-0.231323
-0.223777
-0.214427
-0.203091
-0.190176
-0.175485
-0.159658
-0.142828
-0.125595
-0.108766
-0.092306
-0.0776465
-0.063778
-0.0522726
-0.0417483
-0.033229
-0.0258677
-0.0198576
-0.0147991
-0.0108009
-0.00692127
-0.00408337
-0.000943115
-0.226862
-0.230746
-0.233824
-0.236832
-0.237913
-0.236621
-0.233312
-0.228104
-0.220974
-0.212029
-0.201099
-0.188564
-0.174276
-0.158813
-0.142357
-0.125443
-0.108888
-0.0926502
-0.0781107
-0.0643464
-0.0528354
-0.0423174
-0.0337367
-0.0263198
-0.0202349
-0.0151026
-0.0110237
-0.00709295
-0.004179
-0.00100198
-0.219974
-0.224733
-0.228152
-0.23158
-0.233153
-0.232355
-0.229502
-0.224746
-0.218046
-0.209518
-0.199011
-0.186874
-0.173006
-0.157922
-0.141854
-0.125273
-0.109002
-0.0929964
-0.0785834
-0.064929
-0.0534154
-0.0429052
-0.0342631
-0.0267893
-0.0206277
-0.0154191
-0.0112563
-0.00727215
-0.00427867
-0.00106236
-0.212962
-0.218609
-0.222396
-0.226213
-0.22827
-0.227967
-0.22557
-0.221266
-0.215011
-0.206911
-0.196841
-0.185114
-0.171679
-0.15699
-0.141321
-0.125084
-0.109106
-0.0933422
-0.0790621
-0.065523
-0.0540103
-0.0435097
-0.0348064
-0.0272749
-0.0210347
-0.0157475
-0.0114982
-0.00745844
-0.00438215
-0.00112398
-0.205873
-0.212398
-0.216579
-0.220759
-0.223288
-0.223478
-0.221541
-0.217693
-0.211886
-0.204223
-0.1946
-0.183296
-0.170304
-0.156021
-0.140759
-0.124878
-0.109198
-0.0936853
-0.0795441
-0.0661254
-0.0546174
-0.0441281
-0.0353645
-0.0277746
-0.0214545
-0.016087
-0.0117488
-0.0076513
-0.00448919
-0.00118657
-0.198757
-0.206123
-0.210721
-0.215242
-0.218226
-0.218906
-0.217431
-0.214039
-0.208686
-0.201467
-0.192299
-0.181428
-0.168886
-0.155019
-0.140169
-0.124653
-0.109279
-0.0940229
-0.0800268
-0.066733
-0.0552341
-0.0447577
-0.0359353
-0.0282866
-0.0218856
-0.0164365
-0.0120072
-0.00785013
-0.00459945
-0.00124984
-0.19166
-0.199808
-0.204842
-0.209685
-0.213104
-0.214269
-0.213257
-0.210319
-0.205425
-0.198654
-0.189947
-0.179516
-0.167429
-0.153986
-0.139554
-0.12441
-0.109345
-0.0943527
-0.0805074
-0.0673428
-0.0558576
-0.0453958
-0.0365164
-0.0288089
-0.0223264
-0.0167946
-0.0122725
-0.00805426
-0.00471261
-0.00131347
-0.184625
-0.193482
-0.198964
-0.204114
-0.207942
-0.209582
-0.209034
-0.206549
-0.202113
-0.195796
-0.187553
-0.177568
-0.16594
-0.152927
-0.138914
-0.124148
-0.109396
-0.0946726
-0.0809834
-0.0679516
-0.056485
-0.0460395
-0.0371055
-0.0293393
-0.0227751
-0.0171601
-0.0125439
-0.00826293
-0.00482827
-0.00137715
-0.177696
-0.187172
-0.193106
-0.198552
-0.202761
-0.204863
-0.204776
-0.202741
-0.198764
-0.192901
-0.185125
-0.17559
-0.164422
-0.151845
-0.138252
-0.123867
-0.109432
-0.0949806
-0.0814525
-0.0685567
-0.0571138
-0.0466862
-0.0377
-0.0298758
-0.02323
-0.0175316
-0.0128203
-0.00847535
-0.00494604
-0.00144058
-0.170914
-0.180911
-0.187292
-0.193023
-0.197582
-0.200127
-0.200499
-0.19891
-0.195389
-0.18998
-0.182671
-0.17359
-0.162881
-0.150742
-0.137569
-0.123569
-0.10945
-0.0952749
-0.0819125
-0.0691551
-0.0577411
-0.0473328
-0.0382977
-0.030416
-0.0236892
-0.0179076
-0.0131006
-0.00869064
-0.00506547
-0.00150343
-0.164316
-0.174729
-0.181544
-0.187552
-0.192431
-0.195396
-0.196219
-0.195072
-0.192001
-0.187045
-0.180201
-0.171574
-0.161323
-0.149623
-0.136868
-0.123253
-0.109452
-0.0955539
-0.0823612
-0.0697443
-0.0583643
-0.0479768
-0.0388958
-0.0309577
-0.0241508
-0.0182865
-0.0133836
-0.00890786
-0.0051861
-0.0015654
-0.157933
-0.168659
-0.175885
-0.182161
-0.187331
-0.190691
-0.191954
-0.191241
-0.188615
-0.184107
-0.177724
-0.16955
-0.159754
-0.148491
-0.13615
-0.122921
-0.109437
-0.0958163
-0.0827968
-0.0703215
-0.0589805
-0.048615
-0.0394917
-0.0314985
-0.0246127
-0.0186666
-0.0136681
-0.00912599
-0.00530743
-0.00162617
-0.151794
-0.162735
-0.170342
-0.176876
-0.18231
-0.186034
-0.187723
-0.187437
-0.185246
-0.18118
-0.175251
-0.167528
-0.15818
-0.147353
-0.135421
-0.122574
-0.109405
-0.096061
-0.0832172
-0.0708841
-0.0595869
-0.0492445
-0.0400826
-0.0320357
-0.0250727
-0.0190462
-0.0139526
-0.00934391
-0.00542889
-0.00168544
-0.145925
-0.15699
-0.16494
-0.17172
-0.177395
-0.181454
-0.183548
-0.183678
-0.181912
-0.178279
-0.172796
-0.165517
-0.156609
-0.146212
-0.134683
-0.122214
-0.109357
-0.096287
-0.0836207
-0.0714294
-0.0601805
-0.0498622
-0.0406654
-0.0325666
-0.0255282
-0.019423
-0.0142357
-0.00956039
-0.00554988
-0.0017429
-0.140351
-0.15146
-0.159711
-0.166721
-0.172617
-0.176979
-0.179453
-0.179987
-0.178633
-0.175421
-0.170372
-0.163529
-0.155053
-0.145077
-0.133942
-0.121843
-0.109294
-0.0964935
-0.0840054
-0.0719546
-0.0607579
-0.0504644
-0.0412368
-0.033088
-0.0259768
-0.0197949
-0.0145156
-0.00977409
-0.00566969
-0.00179826
-0.135096
-0.146178
-0.154683
-0.161906
-0.168005
-0.17264
-0.175467
-0.176387
-0.17543
-0.172626
-0.167997
-0.161577
-0.153519
-0.143956
-0.133203
-0.121466
-0.109216
-0.0966802
-0.0843695
-0.072457
-0.0613159
-0.0510477
-0.041793
-0.0335966
-0.0264153
-0.0201594
-0.0147904
-0.00998351
-0.00578755
-0.00185121
-0.130179
-0.141177
-0.14989
-0.157308
-0.163591
-0.168469
-0.171619
-0.172904
-0.172328
-0.169914
-0.165687
-0.159677
-0.152023
-0.142856
-0.132473
-0.121085
-0.109127
-0.0968467
-0.0847111
-0.0729336
-0.0618507
-0.0516081
-0.0423302
-0.0340886
-0.0268406
-0.0205137
-0.0150581
-0.010187
-0.00590254
-0.00190145
-0.125623
-0.13649
-0.145365
-0.152957
-0.159409
-0.164503
-0.167944
-0.169569
-0.169353
-0.16731
-0.163465
-0.157845
-0.150576
-0.141789
-0.131759
-0.120706
-0.109027
-0.0969932
-0.0850285
-0.0733814
-0.0623583
-0.0521411
-0.0428438
-0.03456
-0.0272489
-0.0208545
-0.0153161
-0.0103827
-0.00601363
-0.00194868
-0.121448
-0.132151
-0.141143
-0.14889
-0.155494
-0.160777
-0.164476
-0.166414
-0.166534
-0.16484
-0.161354
-0.156101
-0.149195
-0.140767
-0.131071
-0.120334
-0.108921
-0.09712
-0.0853198
-0.0737974
-0.0628344
-0.0526423
-0.0433289
-0.035006
-0.0276361
-0.0211783
-0.0155618
-0.0105687
-0.00611966
-0.00199256
-0.117674
-0.128192
-0.137262
-0.145141
-0.151882
-0.157332
-0.161256
-0.163474
-0.163904
-0.162534
-0.159378
-0.154467
-0.147897
-0.139804
-0.130418
-0.119975
-0.108811
-0.0972276
-0.0855832
-0.0741782
-0.0632743
-0.0531064
-0.0437803
-0.0354217
-0.0279978
-0.0214813
-0.0157922
-0.0107426
-0.00621926