/*--------------------------------*- C++ -*----------------------------------*\
  =========                 |
  \\      /  F ield         | OpenFOAM: The Open Source CFD Toolbox
   \\    /   O peration     | Website:  https://openfoam.org
    \\  /    A nd           | Version:  9
     \\/     M anipulation  |
\*---------------------------------------------------------------------------*/
FoamFile
{
    format      ascii;
    class       surfaceScalarField;
    location    "57";
    object      phi;
}
// * * * * * * * * * * * * * * * * * * * * * * * * * * * * * * * * * * * * * //

dimensions      [0 3 -1 0 0 0 0];

internalField   nonuniform List<scalar> 
16735
(
-0.00298899
0.00298818
8.07593e-07
-0.0089765
0.0059843
3.21281e-06
-0.0168419
0.00785955
5.89506e-06
-0.0258609
0.0090103
8.70548e-06
-0.0359252
0.0100519
1.23553e-05
-0.0464562
0.010514
1.70114e-05
-0.0585441
0.0120642
2.36473e-05
-0.0695017
0.0109263
3.13658e-05
-0.0842413
0.0146986
4.09929e-05
0.0110489
5.15335e-05
-0.0953417
-0.00293782
0.005926
-0.00883002
0.0118765
-0.0165591
0.0155887
-0.0253919
0.0178431
-0.035207
0.019867
-0.0453943
0.0207013
-0.0570384
0.0237084
-0.0673532
0.021241
-0.0813794
0.0287248
0.0208978
-0.0912283
-0.00283764
0.00876364
-0.00854202
0.0175809
-0.0160014
0.023048
-0.0244647
0.0263065
-0.0337823
0.0291846
-0.0432881
0.0302071
-0.0540357
0.0344559
-0.0630756
0.030281
-0.0756862
0.0413353
0.0282927
-0.0830811
-0.00269272
0.0114564
-0.00812242
0.0230106
-0.0151845
0.0301101
-0.0231017
0.0342236
-0.0316759
0.0377588
-0.0401742
0.0387053
-0.0495534
0.0438352
-0.0567024
0.03743
-0.0672055
0.0518384
0.0321229
-0.0710356
-0.00250928
0.0139656
-0.00758566
0.028087
-0.0141319
0.0366563
-0.0213351
0.0414268
-0.0289237
0.0453475
-0.0361054
0.045887
-0.0436151
0.0513449
-0.048267
0.0420818
-0.0559477
0.0595191
0.031396
-0.0552208
-0.00229515
0.0162608
-0.00694999
0.0327418
-0.0128714
0.0425777
-0.019206
0.0477614
-0.0255721
0.0517136
-0.0311494
0.0514644
-0.0362472
0.0564427
-0.0377959
0.0436305
-0.041823
0.0635462
0.0252315
-0.0356586
-0.00205948
0.0183203
-0.00623677
0.0369191
-0.0114363
0.0477773
-0.0167615
0.0530865
-0.0216738
0.0566259
-0.025384
0.0551746
-0.0274753
0.058534
-0.0253218
0.041477
-0.0245615
0.0627859
0.012858
-0.012188
-0.00181226
0.0201325
-0.00546933
0.0405762
-0.00986325
0.0521712
-0.0140515
0.0572748
-0.0172829
0.0598572
-0.0188865
0.0567782
-0.0173095
0.056957
-0.0109413
0.0351088
-0.00354543
0.0553901
-0.00704827
0.0163608
-0.00156384
0.0216964
-0.00467173
0.0436841
-0.00818959
0.0556891
-0.0111236
0.0602089
-0.0124454
0.061179
-0.0117161
0.056049
-0.00567526
0.0509161
0.00544588
0.0239877
0.0205591
0.0402769
-0.0375659
0.0510767
-0.00132429
0.0230207
-0.00386712
0.0462269
-0.00645065
0.0582726
-0.00801665
0.0617749
-0.00718395
0.0603463
-0.00390763
0.0527727
0.00715645
0.039852
0.0242826
0.00686151
0.0489888
0.0155707
-0.0811549
0.0925777
-0.00110279
0.0241234
-0.00307591
0.0482
-0.00467624
0.0598729
-0.00475526
0.0618539
-0.00145301
0.057044
0.0048732
0.0464465
0.0214313
0.0232939
0.0450394
-0.0167465
0.0819836
-0.0213736
-0.140375
0.141204
-0.000906876
0.0250303
-0.00231371
0.0496068
-0.00288595
0.0604452
-0.00135374
0.0603217
0.00457704
0.0511133
0.0148411
0.0361824
0.0377728
0.000362172
0.0685918
-0.0475656
0.119791
-0.072573
-0.216437
0.195853
-0.000741806
0.0257721
-0.00158907
0.0504541
-0.00107988
0.059936
0.0022916
0.0569502
0.011179
0.0422259
0.0262031
0.0211583
0.0565106
-0.0299453
0.0962937
-0.0873486
0.16274
-0.139019
-0.307375
0.253677
-0.000610059
0.0263822
-0.000901862
0.0507459
0.000745538
0.0582886
0.00620676
0.051489
0.0185499
0.0298827
0.0395176
0.000190619
0.0780025
-0.0684303
0.129213
-0.138559
0.210422
-0.220228
-0.407479
0.310526
-0.000511977
0.0268942
-0.000239534
0.0504735
0.00262811
0.0554209
0.0104793
0.0436378
0.0269237
0.0134383
0.055295
-0.0281806
0.102613
-0.115749
0.16697
-0.202915
0.260382
-0.313641
-0.509013
0.361916
-0.00043852
0.0273327
0.000416701
0.0496182
0.00466599
0.0511717
0.0153034
0.0330003
0.0366397
-0.00789794
0.0738404
-0.0653813
0.130559
-0.172467
0.207472
-0.279828
0.307997
-0.414166
-0.605111
0.404095
-0.000378673
0.0277114
0.00110762
0.0481319
0.0069616
0.0453177
0.0209376
0.0190243
0.0481479
-0.0351083
0.0951374
-0.112371
0.161324
-0.238653
0.247522
-0.366027
0.348332
-0.514975
-0.691619
0.43484
-0.000320116
0.0280315
0.00188491
0.0459269
0.00965072
0.0375519
0.0276883
0.00098673
0.0618871
-0.069307
0.118805
-0.169288
0.193188
-0.313037
0.283591
-0.456429
0.378227
-0.609612
-0.767126
0.453735
-0.00024605
0.0282775
0.00280826
0.0428726
0.0128933
0.0274668
0.0358635
-0.0219835
0.0780474
-0.111491
0.143938
-0.235179
0.223592
-0.392691
0.312731
-0.545568
0.396965
-0.693846
-0.832169
0.462007
-0.000136258
0.0284138
0.00394404
0.0387923
0.0168656
0.0145453
0.0457015
-0.0508194
0.0963248
-0.162114
0.169012
-0.307866
0.250049
-0.473728
0.333391
-0.62891
0.405599
-0.766054
-0.888834
0.462264
3.07648e-05
0.028383
0.00536256
0.0334605
0.0217478
-0.00183995
0.057274
-0.0863456
0.115837
-0.220677
0.192162
-0.384192
0.270845
-0.55241
0.345536
-0.703602
0.407135
-0.827653
-0.944842
0.463143
0.000248602
0.0281344
0.00713821
0.0265709
0.0276981
-0.0223998
0.0703752
-0.129023
0.135272
-0.285574
0.211766
-0.460686
0.28525
-0.625894
0.350299
-0.768651
0.405195
-0.882548
-0.993436
0.453789
0.000555537
0.0275789
0.00934859
0.0177779
0.0348013
-0.0478526
0.0844646
-0.178686
0.153211
-0.35432
0.226844
-0.534319
0.29344
-0.69249
0.349877
-0.825087
0.397547
-0.930219
-1.03471
0.438818
0.000961854
0.026617
0.0120709
0.00666879
0.0430025
-0.0787841
0.0987224
-0.234406
0.168484
-0.424082
0.237113
-0.602947
0.296281
-0.751658
0.34495
-0.873757
0.386502
-0.97177
-1.07166
0.423454
0.00147893
0.0251381
0.015372
-0.00722424
0.0520629
-0.115475
0.112213
-0.294556
0.180391
-0.49226
0.242828
-0.665385
0.294658
-0.803488
0.336693
-0.915792
0.373221
-1.0083
-1.1046
0.406165
0.0021207
0.0230174
0.019282
-0.0243856
0.0615782
-0.157771
0.124089
-0.357067
0.188703
-0.556874
0.244494
-0.721176
0.289523
-0.848516
0.325948
-0.952217
0.358235
-1.04058
-1.13446
0.388089
0.00290864
0.0201087
0.0237633
-0.0452402
0.071038
-0.205046
0.133754
-0.419784
0.193539
-0.616658
0.242733
-0.77037
0.281672
-0.887455
0.313382
-0.983927
0.342167
-1.06937
-1.16162
0.369328
0.00387553
0.0162332
0.0286971
-0.0700618
0.0798958
-0.256245
0.14092
-0.480808
0.195215
-0.670954
0.238166
-0.813321
0.271772
-0.921062
0.299519
-1.01167
0.325296
-1.09515
-1.18637
0.350052
0.00506154
0.0111717
0.0338993
-0.0988995
0.0876519
-0.309997
0.145558
-0.538714
0.19414
-0.719535
0.231359
-0.85054
0.260349
-0.950051
0.284725
-1.03605
0.307871
-1.11829
-1.20891
0.330411
0.00649797
0.00467371
0.0391516
-0.131553
0.0939479
-0.364794
0.147812
-0.592578
0.190743
-0.762466
0.222802
-0.882599
0.247808
-0.975058
0.269274
-1.05752
0.290039
-1.13906
-1.22933
0.310454
0.00818472
-0.00351102
0.0442316
-0.1676
0.0986067
-0.419169
0.147907
-0.641879
0.185437
-0.799995
0.212902
-0.910065
0.23446
-0.996616
0.253355
-1.07641
0.271906
-1.15761
-1.24768
0.290255
0.0100776
-0.0135886
0.0489228
-0.206445
0.101601
-0.471847
0.146108
-0.686386
0.178591
-0.832478
0.20199
-0.933464
0.220535
-1.01516
0.237105
-1.09298
0.253548
-1.17405
-1.26398
0.26985
0.0120962
-0.0256848
0.0530223
-0.247371
0.103001
-0.521826
0.142686
-0.72607
0.170526
-0.860318
0.190329
-0.953268
0.206202
-1.03103
0.220622
-1.1074
0.235019
-1.18845
-1.27824
0.24928
0.0141454
-0.0398302
0.0563584
-0.289584
0.102932
-0.5684
0.137896
-0.761034
0.161511
-0.883934
0.178123
-0.969879
0.191588
-1.0445
0.203975
-1.11979
0.216363
-1.20083
-1.29046
0.228579
0.0161377
-0.0559679
0.0588128
-0.332259
0.101547
-0.611135
0.131976
-0.791463
0.151768
-0.903725
0.16553
-0.983641
0.176786
-1.05575
0.187216
-1.13022
0.197617
-1.21124
-1.30062
0.207782
0.0180019
-0.0739698
0.0603299
-0.374587
0.0990098
-0.649814
0.125142
-0.817595
0.141478
-0.920062
0.152674
-0.994837
0.161865
-1.06495
0.170386
-1.13874
0.178813
-1.21966
-1.30873
0.18692
0.0196795
-0.0936493
0.0609097
-0.415818
0.0954815
-0.684386
0.11758
-0.839693
0.13079
-0.933272
0.139648
-1.0037
0.14688
-1.07218
0.153523
-1.14538
0.159981
-1.22612
-1.31478
0.166028
0.0211177
-0.114767
0.0605919
-0.455292
0.091115
-0.714909
0.109454
-0.858033
0.119825
-0.943643
0.126525
-1.01039
0.131872
-1.07752
0.136656
-1.15017
0.14115
-1.23062
-1.31876
0.145136
0.0222663
-0.137033
0.0594345
-0.49246
0.0860486
-0.741523
0.100905
-0.872889
0.108681
-0.951419
0.113361
-1.01507
0.116878
-1.08104
0.119815
-1.1531
0.122349
-1.23315
-1.32069
0.124282
0.0230819
-0.160115
0.0575234
-0.526902
0.0804087
-0.764409
0.0920476
-0.884528
0.0974355
-0.956807
0.100202
-1.01784
0.101925
-1.08276
0.103024
-1.1542
0.103607
-1.23373
-1.32059
0.103506
0.0235359
-0.183651
0.0550383
-0.558404
0.0743136
-0.783684
0.0829782
-0.893192
0.0861513
-0.95998
0.0870837
-1.01877
0.0870391
-1.08272
0.0863062
-1.15347
0.0849513
-1.23238
-1.3185
0.0828611
0.0236164
-0.207267
0.0520449
-0.586833
0.0678679
-0.799507
0.0737758
-0.8991
0.0748779
-0.961082
0.0740373
-1.01793
0.0722448
-1.08093
0.0696846
-1.15091
0.0664043
-1.2291
-1.31441
0.0623133
0.0233287
-0.230596
0.048615
-0.612119
0.061162
-0.812054
0.0645069
-0.902445
0.0636549
-0.96023
0.0610882
-1.01537
0.0575637
-1.0774
0.0531853
-1.14653
0.0479834
-1.2239
-1.30831
0.0418797
0.0226939
-0.25329
0.0448222
-0.634247
0.0542757
-0.821508
0.055226
-0.903395
0.0525147
-0.957519
0.0482587
-1.01111
0.0430157
-1.07216
0.0368341
-1.14035
0.0297328
-1.21679
-1.30016
0.021586
0.0217453
-0.275035
0.040737
-0.653239
0.0472602
-0.828031
0.0459768
-0.902112
0.041484
-0.953026
0.0355691
-1.00519
0.0286196
-1.06521
0.0206449
-1.13238
0.0117164
-1.20787
-1.28982
0.00137427
0.0205237
-0.295559
0.0364251
-0.66914
0.0401728
-0.831779
0.0367958
-0.898735
0.0305857
-0.946816
0.0230367
-0.997646
0.0143933
-1.05657
0.00459508
-1.12258
-0.00605266
-1.19722
-1.27749
-0.0183804
0.0190725
-0.314632
0.0319468
-0.682015
0.0330667
-0.832898
0.0277138
-0.893382
0.019838
-0.93894
0.0106715
-0.988479
0.000322051
-1.04622
-0.0111162
-1.11114
-0.0237045
-1.18463
-1.26334
-0.0378589
0.0174342
-0.332066
0.0273566
-0.691937
0.0259854
-0.831527
0.0187574
-0.886154
0.00924745
-0.92943
-0.00152408
-0.977708
-0.0134178
-1.03432
-0.0265731
-1.09798
-0.0410578
-1.17014
-1.24733
-0.0570706
0.0156489
-0.347715
0.0227028
-0.698991
0.0189652
-0.82779
0.0099471
-0.877136
-0.00119871
-0.918284
-0.0133981
-0.965508
-0.0269564
-1.02077
-0.0417997
-1.08314
-0.0581157
-1.15383
-1.22947
-0.0759684
0.0137531
-0.361468
0.018028
-0.703266
0.0120339
-0.821796
0.00127494
-0.866377
-0.0112661
-0.905743
-0.0250851
-0.951689
-0.0402474
-1.0056
-0.0567615
-1.06663
-0.0748587
-1.13573
-1.2098
-0.0945334
0.0117804
-0.373248
0.0133691
-0.704854
0.00520254
-0.813629
-0.00711404
-0.85406
-0.0211722
-0.891685
-0.0365383
-0.936323
-0.0532741
-0.988867
-0.0714337
-1.04847
-0.0912713
-1.11589
-1.18833
-0.112736
0.00976095
-0.383009
0.00876135
-0.703855
-0.00150322
-0.803364
-0.0153273
-0.840236
-0.0308608
-0.876152
-0.0477393
-0.919445
-0.0660201
-0.970586
-0.085795
-1.02869
-0.107335
-1.09435
-1.16511
-0.130557
0.00771984
-0.390729
0.00424473
-0.70038
-0.00789248
-0.791227
-0.0233384
-0.82479
-0.0403147
-0.859175
-0.0586738
-0.901086
-0.0784703
-0.95079
-0.0998267
-1.00733
-0.123032
-1.07115
-1.14017
-0.147973
0.00567585
-0.396405
-7.6865e-05
-0.694627
-0.0141514
-0.777153
-0.0311325
-0.807809
-0.0495231
-0.840785
-0.0693294
-0.881279
-0.0906098
-0.92951
-0.113513
-0.984432
-0.138346
-1.04632
-1.11355
-0.164962
0.00364703
-0.400052
-0.00463974
-0.68634
-0.0202485
-0.761544
-0.0386952
-0.789362
-0.0584745
-0.821005
-0.0796942
-0.86006
-0.102425
-0.906779
-0.126838
-0.960019
-0.153261
-1.01989
-1.08532
-0.181498
0.00166977
-0.401722
-0.00894264
-0.675728
-0.0261654
-0.744321
-0.0460173
-0.76951
-0.0671586
-0.799864
-0.089757
-0.837461
-0.113902
-0.882634
-0.139788
-0.934133
-0.167758
-0.991922
-1.05552
-0.197555
-0.000218537
-0.401503
-0.0130777
-0.662869
-0.0318922
-0.725507
-0.0530941
-0.748309
-0.0755655
-0.777393
-0.0995069
-0.81352
-0.125029
-0.857112
-0.152354
-0.906808
-0.181822
-0.962454
-1.0242
-0.213138
-0.00234683
-0.399156
-0.0170614
-0.648154
-0.0374163
-0.705152
-0.0599197
-0.725805
-0.0836862
-0.753626
-0.108933
-0.788273
-0.135798
-0.830247
-0.164535
-0.87807
-0.195445
-0.931545
-0.991434
-0.228214
-0.00432619
-0.39483
-0.0208924
-0.631588
-0.0427261
-0.683318
-0.0664883
-0.702043
-0.0915121
-0.728603
-0.118026
-0.76176
-0.146199
-0.802074
-0.176326
-0.847943
-0.208581
-0.89929
-0.957469
-0.242545
-0.00621898
-0.388611
-0.0245676
-0.613239
-0.0478154
-0.66007
-0.0727943
-0.677064
-0.099035
-0.702362
-0.126775
-0.73402
-0.156222
-0.772627
-0.18768
-0.816485
-0.221239
-0.865731
-0.922706
-0.256003
-0.00803155
-0.380579
-0.0280839
-0.593187
-0.0526796
-0.635475
-0.0788325
-0.650911
-0.106248
-0.674946
-0.135174
-0.705094
-0.165852
-0.741949
-0.198543
-0.783794
-0.232954
-0.831319
-0.885749
-0.269912
-0.00976422
-0.370815
-0.031438
-0.571513
-0.0573153
-0.609597
-0.0845979
-0.623628
-0.113144
-0.6464
-0.143213
-0.675025
-0.175066
-0.710096
-0.208876
-0.749985
-0.244547
-0.795648
-0.847203
-0.283093
-0.0114156
-0.3594
-0.034627
-0.548302
-0.0617195
-0.582505
-0.0900859
-0.595262
-0.119717
-0.616769
-0.150885
-0.643856
-0.183865
-0.677116
-0.218818
-0.715032
-0.255866
-0.758599
-0.807321
-0.295749
-0.0129837
-0.346416
-0.037648
-0.523637
-0.0658898
-0.554263
-0.0952923
-0.56586
-0.125961
-0.5861
-0.158178
-0.611639
-0.192224
-0.64307
-0.228264
-0.678993
-0.266534
-0.720329
-0.766173
-0.307681
-0.0144664
-0.33195
-0.0404987
-0.497605
-0.0698241
-0.524938
-0.100213
-0.535471
-0.13187
-0.554444
-0.165086
-0.578423
-0.20015
-0.608006
-0.237248
-0.641894
-0.276675
-0.680903
-0.723881
-0.318968
-0.0158613
-0.316088
-0.043177
-0.470289
-0.0735203
-0.494594
-0.104844
-0.504147
-0.137437
-0.521851
-0.171598
-0.544262
-0.207626
-0.571978
-0.245728
-0.603792
-0.286231
-0.6404
-0.680515
-0.329597
-0.017166
-0.298922
-0.045681
-0.441775
-0.0769765
-0.463299
-0.109183
-0.47194
-0.142658
-0.488376
-0.17771
-0.50921
-0.214647
-0.535041
-0.253699
-0.56474
-0.295208
-0.598891
-0.636148
-0.339574
-0.0183775
-0.280545
-0.0480091
-0.412143
-0.0801911
-0.431117
-0.113225
-0.438906
-0.147528
-0.454074
-0.183414
-0.473324
-0.221203
-0.497252
-0.261145
-0.524798
-0.30359
-0.556446
-0.590847
-0.348891
-0.0194919
-0.261053
-0.0501597
-0.381475
-0.0831625
-0.398114
-0.116968
-0.405101
-0.152041
-0.419001
-0.188703
-0.436661
-0.227287
-0.458669
-0.268056
-0.484029
-0.311368
-0.513134
-0.544677
-0.357537
-0.0205025
-0.24055
-0.0521311
-0.349847
-0.0858897
-0.364355
-0.120409
-0.370582
-0.156193
-0.383217
-0.193572
-0.399281
-0.23289
-0.419351
-0.274424
-0.442495
-0.318533
-0.469025
-0.497708
-0.365503
-0.0213947
-0.219156
-0.0539221
-0.317319
-0.0883723
-0.329905
-0.123545
-0.335409
-0.159981
-0.346781
-0.198016
-0.361247
-0.238006
-0.379361
-0.280239
-0.400262
-0.325075
-0.424189
-0.450008
-0.372775
-0.0222136
-0.196942
-0.0555348
-0.283998
-0.0906099
-0.29483
-0.126374
-0.299644
-0.1634
-0.309755
-0.202028
-0.322618
-0.242628
-0.338762
-0.285494
-0.357395
-0.330986
-0.378697
-0.401648
-0.379345
-0.0229588
-0.173983
-0.0569701
-0.249987
-0.0926018
-0.259198
-0.128894
-0.263352
-0.166448
-0.272201
-0.205606
-0.28346
-0.24675
-0.297617
-0.290183
-0.313963
-0.336256
-0.332624
-0.352702
-0.385202
-0.0236182
-0.150365
-0.0582275
-0.215377
-0.0943471
-0.223079
-0.131103
-0.226596
-0.169121
-0.234184
-0.208745
-0.243836
-0.250368
-0.255994
-0.294298
-0.270033
-0.34088
-0.286042
-0.303245
-0.390337
-0.0241869
-0.126178
-0.0593064
-0.180258
-0.0958448
-0.18654
-0.132999
-0.189441
-0.171416
-0.195767
-0.211441
-0.203811
-0.253476
-0.21396
-0.297832
-0.225677
-0.344851
-0.239023
-0.253353
-0.394742
-0.0246627
-0.101516
-0.0602063
-0.144714
-0.0970942
-0.149652
-0.134582
-0.151954
-0.173333
-0.157016
-0.213692
-0.163452
-0.256071
-0.171581
-0.300782
-0.180966
-0.348161
-0.191644
-0.203101
-0.398413
-0.0250443
-0.0764712
-0.0609267
-0.108832
-0.0980946
-0.112485
-0.135849
-0.114199
-0.174868
-0.117997
-0.215496
-0.122824
-0.25815
-0.128927
-0.303144
-0.135971
-0.350808
-0.14398
-0.152566
-0.401344
-0.025331
-0.0511402
-0.0614673
-0.0726954
-0.0988453
-0.0751064
-0.1368
-0.0762443
-0.176021
-0.0787764
-0.21685
-0.0819947
-0.259711
-0.0860661
-0.304917
-0.090765
-0.352794
-0.0961036
-0.101822
-0.403537
-0.0255223
-0.0256179
-0.0618278
-0.0363899
-0.0993461
-0.0375882
-0.137435
-0.0381555
-0.17679
-0.0394217
-0.217753
-0.0410308
-0.260752
-0.0430674
-0.3061
-0.0454176
-0.354117
-0.0480866
-0.0509436
-0.404995
-0.025618
7.75519e-08
-0.0620081
1.79541e-07
-0.0995965
2.10739e-07
-0.137752
2.30412e-07
-0.177174
2.54974e-07
-0.218205
2.78895e-07
-0.261273
3.02434e-07
-0.306691
3.2303e-07
-0.354778
3.40391e-07
3.5324e-07
-0.405722
-0.025618
0.0256181
-0.0620081
0.0363903
-0.0995965
0.0375886
-0.137752
0.038156
-0.177174
0.0394222
-0.218205
0.0410314
-0.261273
0.043068
-0.306691
0.0454182
-0.354778
0.0480873
0.0509444
-0.405722
-0.0255223
0.0511404
-0.0618278
0.0726958
-0.0993461
0.0751069
-0.137435
0.0762448
-0.17679
0.0787769
-0.217753
0.0819952
-0.260752
0.0860667
-0.3061
0.0907657
-0.354117
0.0961043
0.101823
-0.404995
-0.025331
0.0764714
-0.0614673
0.108832
-0.0988453
0.112485
-0.1368
0.1142
-0.176021
0.117997
-0.21685
0.122825
-0.259711
0.128928
-0.304917
0.135972
-0.352794
0.143981
0.152566
-0.403537
-0.0250443
0.101516
-0.0609267
0.144714
-0.0980946
0.149653
-0.135849
0.151954
-0.174868
0.157016
-0.215496
0.163452
-0.25815
0.171582
-0.303144
0.180966
-0.350808
0.191645
0.203102
-0.401344
-0.0246627
0.126178
-0.0602062
0.180258
-0.0970942
0.186541
-0.134582
0.189442
-0.173333
0.195767
-0.213692
0.203812
-0.256071
0.21396
-0.300782
0.225677
-0.348161
0.239024
0.253354
-0.398412
-0.0241869
0.150365
-0.0593064
0.215378
-0.0958448
0.223079
-0.132999
0.226596
-0.171416
0.234184
-0.211441
0.243836
-0.253476
0.255995
-0.297832
0.270034
-0.344851
0.286042
0.303246
-0.394742
-0.0236181
0.173983
-0.0582275
0.249987
-0.094347
0.259199
-0.131103
0.263352
-0.169121
0.272202
-0.208745
0.28346
-0.250368
0.297618
-0.294297
0.313964
-0.34088
0.332625
0.352703
-0.390337
-0.0229588
0.196942
-0.0569701
0.283998
-0.0926017
0.29483
-0.128894
0.299645
-0.166448
0.309755
-0.205606
0.322619
-0.24675
0.338762
-0.290182
0.357396
-0.336256
0.378698
0.401649
-0.385202
-0.0222136
0.219156
-0.0555348
0.317319
-0.0906098
0.329905
-0.126374
0.335409
-0.1634
0.346781
-0.202028
0.361247
-0.242628
0.379362
-0.285494
0.400262
-0.330985
0.424189
0.450008
-0.379345
-0.0213947
0.24055
-0.053922
0.349847
-0.0883722
0.364356
-0.123545
0.370582
-0.159981
0.383217
-0.198016
0.399282
-0.238006
0.419352
-0.280239
0.442496
-0.325075
0.469025
0.497709
-0.372775
-0.0205024
0.261053
-0.052131
0.381475
-0.0858896
0.398114
-0.120409
0.405101
-0.156193
0.419001
-0.193572
0.436661
-0.23289
0.458669
-0.274424
0.484029
-0.318533
0.513135
0.544678
-0.365502
-0.0194919
0.280545
-0.0501597
0.412143
-0.0831624
0.431117
-0.116968
0.438907
-0.152041
0.454074
-0.188703
0.473324
-0.227287
0.497253
-0.268056
0.524799
-0.311368
0.556447
0.590847
-0.357537
-0.0183775
0.298922
-0.048009
0.441775
-0.080191
0.463299
-0.113225
0.471941
-0.147527
0.488376
-0.183414
0.50921
-0.221203
0.535042
-0.261145
0.56474
-0.303589
0.598892
0.636149
-0.348891
-0.017166
0.316088
-0.0456809
0.47029
-0.0769764
0.494594
-0.109183
0.504147
-0.142658
0.521851
-0.17771
0.544262
-0.214647
0.571979
-0.253699
0.603792
-0.295207
0.6404
0.680515
-0.339574
-0.0158613
0.331949
-0.0431769
0.497605
-0.0735202
0.524938
-0.104844
0.535471
-0.137437
0.554444
-0.171598
0.578424
-0.207625
0.608006
-0.245728
0.641895
-0.286231
0.680903
0.723881
-0.329597
-0.0144663
0.346416
-0.0404986
0.523637
-0.069824
0.554263
-0.100213
0.56586
-0.131869
0.586101
-0.165085
0.61164
-0.20015
0.64307
-0.237248
0.678994
-0.276675
0.72033
0.766174
-0.318968
-0.0129836
0.359399
-0.0376479
0.548302
-0.0658897
0.582505
-0.0952921
0.595262
-0.125961
0.616769
-0.158178
0.643857
-0.192224
0.677116
-0.228264
0.715033
-0.266534
0.7586
0.807321
-0.307681
-0.0114155
0.370815
-0.0346269
0.571513
-0.0617194
0.609597
-0.0900857
0.623629
-0.119717
0.646401
-0.150885
0.675025
-0.183865
0.710096
-0.218817
0.749985
-0.255866
0.795649
0.847204
-0.295748
-0.00976416
0.380579
-0.0314379
0.593187
-0.0573151
0.635475
-0.0845977
0.650911
-0.113144
0.674947
-0.143213
0.705094
-0.175066
0.741949
-0.208876
0.783795
-0.244547
0.83132
0.885749
-0.283093
-0.00803149
0.388611
-0.0280838
0.613239
-0.0526795
0.66007
-0.0788323
0.677064
-0.106248
0.702362
-0.135173
0.73402
-0.165852
0.772628
-0.198543
0.816486
-0.232954
0.865731
0.922707
-0.269911
-0.00621891
0.394829
-0.0245675
0.631588
-0.0478152
0.683318
-0.0727941
0.702043
-0.0990348
0.728603
-0.126775
0.76176
-0.156222
0.802075
-0.18768
0.847943
-0.221239
0.899291
0.95747
-0.256002
-0.00432612
0.399156
-0.0208922
0.648154
-0.0427259
0.705152
-0.0664881
0.725805
-0.0915118
0.753627
-0.118025
0.788273
-0.146198
0.830248
-0.176326
0.878071
-0.20858
0.931546
0.991434
-0.242545
-0.00234676
0.401502
-0.0170613
0.662868
-0.0374161
0.725507
-0.0599195
0.748309
-0.083686
0.777393
-0.108933
0.81352
-0.135797
0.857112
-0.164535
0.906808
-0.195444
0.962455
1.0242
-0.228213
-0.000218441
0.401721
-0.0130775
0.675727
-0.031892
0.744321
-0.0530939
0.76951
-0.0755653
0.799864
-0.0995066
0.837462
-0.125029
0.882635
-0.152354
0.934133
-0.181821
0.991923
1.05552
-0.213138
0.00166985
0.400051
-0.00894247
0.68634
-0.0261651
0.761544
-0.0460171
0.789362
-0.0671583
0.821006
-0.0897567
0.86006
-0.113901
0.906779
-0.139788
0.96002
-0.167758
1.01989
1.08532
-0.197555
0.00364711
0.396404
-0.00463956
0.694626
-0.0202483
0.777152
-0.038695
0.807809
-0.0584742
0.840785
-0.0796938
0.88128
-0.102424
0.92951
-0.126837
0.984433
-0.153261
1.04632
1.11355
-0.181498
0.00567594
0.390728
-7.66269e-05
0.700379
-0.0141511
0.791227
-0.0311322
0.82479
-0.0495228
0.859175
-0.069329
0.901086
-0.0906094
0.95079
-0.113512
1.00734
-0.138346
1.07115
1.14017
-0.164962
0.00771993
0.383008
0.00424493
0.703854
-0.0078922
0.803364
-0.023338
0.840236
-0.0403143
0.876152
-0.0586734
0.919445
-0.0784699
0.970587
-0.0998263
1.02869
-0.123031
1.09435
1.16511
-0.147973
0.00976105
0.373247
0.00876156
0.704853
-0.00150293
0.813629
-0.0153269
0.85406
-0.0308604
0.891685
-0.0477389
0.936324
-0.0660197
0.988868
-0.0857945
1.04847
-0.107334
1.11589
1.18833
-0.130557
0.0117805
0.361466
0.0133693
0.703265
0.00520286
0.821795
-0.00711366
0.866376
-0.0211718
0.905743
-0.0365379
0.95169
-0.0532736
1.0056
-0.0714333
1.06663
-0.0912709
1.13573
1.2098
-0.112736
0.0137532
0.347713
0.0180282
0.69899
0.0120343
0.827789
0.00127534
0.877135
-0.0112657
0.918284
-0.0250846
0.965509
-0.0402469
1.02077
-0.056761
1.08314
-0.0748582
1.15383
1.22947
-0.0945329
0.015649
0.332064
0.0227031
0.691936
0.0189656
0.831526
0.00994753
0.886153
-0.00119824
0.92943
-0.0133976
0.977708
-0.0269559
1.03432
-0.0417992
1.09798
-0.0581152
1.17015
1.24733
-0.0759679
0.0174343
0.31463
0.0273568
0.682013
0.0259858
0.832898
0.0187578
0.893381
0.00924796
0.93894
-0.00152355
0.988479
-0.0134172
1.04622
-0.0265726
1.11114
-0.0410573
1.18463
1.26334
-0.0570701
0.0190725
0.295557
0.0319471
0.669138
0.033067
0.831778
0.0277143
0.898734
0.0198385
0.946816
0.010672
0.997646
0.000322663
1.05657
-0.0111156
1.12258
-0.0237039
1.19722
1.27749
-0.0378584
0.0205238
0.275034
0.0364253
0.653237
0.0401732
0.82803
0.0367963
0.902111
0.0305863
0.953026
0.0230373
1.00519
0.0143939
1.06521
0.00459572
1.13238
-0.00605205
1.20787
1.28982
-0.0183798
0.0217454
0.253288
0.0407373
0.634245
0.0472606
0.821506
0.0459773
0.903394
0.0414846
0.957518
0.0355697
1.01111
0.0286202
1.07216
0.0206456
1.14035
0.0117171
1.21679
1.30016
0.00137487
0.022694
0.230594
0.0448225
0.612117
0.0542762
0.812053
0.0552265
0.902444
0.0525154
0.96023
0.0482594
1.01537
0.0430165
1.0774
0.0368348
1.14653
0.0297335
1.2239
1.30831
0.0215866
0.0233287
0.207266
0.0486152
0.58683
0.0611625
0.799505
0.0645075
0.899099
0.0636556
0.961082
0.0610889
1.01793
0.0575645
1.08093
0.0531861
1.15091
0.0479841
1.2291
1.31441
0.0418804
0.0236164
0.183649
0.0520452
0.558401
0.0678684
0.783682
0.0737764
0.893191
0.0748786
0.959979
0.0740381
1.01877
0.0722457
1.08272
0.0696854
1.15347
0.0664052
1.23238
1.31851
0.062314
0.0235359
0.160113
0.0550385
0.526899
0.0743141
0.764407
0.0829788
0.884526
0.0861521
0.956806
0.0870845
1.01784
0.08704
1.08276
0.0863071
1.1542
0.0849522
1.23373
1.3206
0.0828619
0.0230819
0.137031
0.0575236
0.492457
0.0804092
0.741521
0.0920482
0.872887
0.0974363
0.951418
0.100203
1.01507
0.101926
1.08104
0.103025
1.1531
0.103608
1.23315
1.3207
0.103507
0.0222662
0.114765
0.0594347
0.455289
0.086049
0.714907
0.100905
0.858031
0.108682
0.943642
0.113362
1.01039
0.116879
1.07752
0.119817
1.15017
0.12235
1.23062
1.31876
0.124283
0.0211177
0.0936473
0.060592
0.415814
0.0911154
0.684383
0.109455
0.839691
0.119826
0.933271
0.126526
1.00369
0.131874
1.07218
0.136658
1.14538
0.141151
1.22612
1.31478
0.145137
0.0196794
0.0739679
0.0609098
0.374584
0.0954819
0.649811
0.117581
0.817592
0.130791
0.92006
0.139649
0.994836
0.146881
1.06494
0.153524
1.13874
0.159982
1.21967
1.30873
0.166029
0.0180018
0.0559661
0.0603299
0.332256
0.0990101
0.611131
0.125142
0.79146
0.141479
0.903723
0.152675
0.98364
0.161866
1.05575
0.170387
1.13022
0.178815
1.21124
1.30062
0.186922
0.0161376
0.0398286
0.0588128
0.28958
0.101548
0.568396
0.131977
0.761031
0.151769
0.883931
0.165532
0.969877
0.176787
1.0445
0.187217
1.11979
0.197619
1.20084
1.29046
0.207783
0.0141453
0.0256832
0.0563582
0.247368
0.102933
0.521822
0.137896
0.726067
0.161512
0.860315
0.178124
0.953266
0.19159
1.03103
0.203977
1.1074
0.216365
1.18845
1.27824
0.228581
0.0120961
0.0135871
0.0530221
0.206442
0.103001
0.471842
0.142686
0.686382
0.170527
0.832475
0.19033
0.933462
0.206204
1.01516
0.220624
1.09298
0.235021
1.17405
1.26398
0.249282
0.0100774
0.00350971
0.0489226
0.167596
0.101601
0.419164
0.146109
0.641874
0.178592
0.799992
0.201992
0.910062
0.220536
0.996615
0.237107
1.07641
0.25355
1.15761
1.24768
0.269852
0.00818459
-0.00467489
0.0442313
0.13155
0.0986066
0.364789
0.147907
0.592574
0.185438
0.762462
0.212904
0.882596
0.234462
0.975056
0.253357
1.05751
0.271908
1.13906
1.22933
0.290257
0.00649785
-0.0111727
0.0391513
0.0988963
0.0939476
0.309992
0.147812
0.538709
0.190744
0.71953
0.222803
0.850537
0.24781
0.950049
0.269276
1.03605
0.290042
1.11829
1.20892
0.310457
0.00506141
-0.0162342
0.0338989
0.0700588
0.0876515
0.25624
0.145558
0.480802
0.19414
0.670948
0.23136
0.813317
0.260351
0.921059
0.284728
1.01167
0.307874
1.09515
1.18638
0.330414
0.0038754
-0.0201096
0.0286967
0.0452375
0.0798952
0.205041
0.14092
0.419778
0.195216
0.616652
0.238167
0.770365
0.271774
0.887451
0.299522
0.983924
0.325299
1.06937
1.16162
0.350055
0.0029085
-0.0230181
0.0237628
0.0243832
0.0710373
0.157767
0.133754
0.357061
0.193539
0.556867
0.242735
0.72117
0.281675
0.848511
0.313386
0.952214
0.342171
1.04058
1.13446
0.369332
0.00212054
-0.0251386
0.0192815
0.00722226
0.0615773
0.115471
0.124089
0.29455
0.188703
0.492252
0.244495
0.665378
0.289525
0.803482
0.325951
0.915787
0.358239
1.0083
1.1046
0.388093
0.00147874
-0.0266173
0.0153714
-0.00667041
0.0520619
0.0787802
0.112212
0.2344
0.18039
0.424074
0.242829
0.602939
0.294661
0.75165
0.336697
0.873751
0.373226
0.971767
1.07166
0.40617
0.000961636
-0.027579
0.0120703
-0.0177791
0.0430014
0.0478492
0.0987211
0.17868
0.168484
0.354312
0.237113
0.534309
0.296283
0.692481
0.344954
0.82508
0.386507
0.930214
1.03471
0.423459
0.000555292
-0.0281343
0.00934794
-0.0265717
0.0348002
0.0223969
0.0844631
0.129017
0.15321
0.285565
0.226844
0.460675
0.293442
0.625883
0.34988
0.768642
0.397552
0.882542
0.993436
0.438824
0.000248339
-0.0283826
0.00713754
-0.0334609
0.0276969
0.00183761
0.0703735
0.0863403
0.13527
0.220668
0.211765
0.38418
0.285251
0.552397
0.350303
0.70359
0.405201
0.827644
0.94484
0.453796
3.05105e-05
-0.0284131
0.00536188
-0.0387923
0.0217466
-0.0145471
0.0572723
0.0508146
0.115835
0.162106
0.192161
0.307854
0.270845
0.473712
0.345539
0.628896
0.407142
0.766041
0.888831
0.463151
-0.000136549
-0.0282766
0.0039434
-0.0428722
0.0168645
-0.0274682
0.0456999
0.0219792
0.0963225
0.111483
0.16901
0.235167
0.250048
0.392674
0.333393
0.545552
0.405605
0.693829
0.832163
0.462273
-0.000246312
-0.0280303
0.00280769
-0.0459263
0.0128923
-0.0375529
0.035862
-0.00099045
0.0780452
0.0692998
0.143936
0.169276
0.223591
0.313019
0.312732
0.45641
0.396971
0.60959
0.767117
0.462017
-0.000320337
-0.0277099
0.00188447
-0.0481311
0.00965003
-0.0453184
0.0276872
-0.0190277
0.0618853
0.0351018
0.118802
0.112359
0.193187
0.238635
0.283591
0.366006
0.378233
0.514948
0.691605
0.453745
-0.000378838
-0.0273311
0.00110734
-0.0496172
0.00696122
-0.0511723
0.020937
-0.0330034
0.0481468
0.00789198
0.0951356
0.06537
0.161322
0.172449
0.247522
0.279806
0.348335
0.414134
0.605091
0.434849
-0.000438617
-0.0268925
0.000416618
-0.0504725
0.00466599
-0.0554217
0.0153034
-0.0436409
0.0366394
-0.013444
0.0738395
0.0281699
0.130558
0.11573
0.207471
0.202893
0.308
0.313605
0.508987
0.404104
-0.000511999
-0.0263805
-0.000239401
-0.0507451
0.00262852
-0.0582896
0.01048
-0.0514923
0.0269245
-0.0298886
0.0552955
-0.000201028
0.102614
0.0684122
0.166969
0.138538
0.260384
0.220191
0.407445
0.361925
-0.00061
-0.0257705
-0.000901509
-0.0504536
0.000746377
-0.0599375
0.00620815
-0.0569541
0.0185518
-0.0422322
0.0395197
-0.0211689
0.0780049
0.029927
0.129215
0.0873279
0.210425
0.138981
0.307335
0.310535
-0.000741669
-0.0250288
-0.0015885
-0.0496067
-0.00107862
-0.0604474
0.0022937
-0.0603264
0.011182
-0.0511205
0.026207
-0.0361939
0.0565152
-0.000381274
0.096299
0.0475441
0.162745
0.0725344
0.216392
0.253688
-0.000906667
-0.0241221
-0.00231295
-0.0482004
-0.00288434
-0.059876
-0.00135112
-0.0618596
0.00458099
-0.0570526
0.0148466
-0.0464595
0.0377796
-0.0233143
0.0686008
0.016723
0.119801
0.0213345
0.140326
0.195867
-0.00110252
-0.0230196
-0.003075
-0.046228
-0.00467434
-0.0582767
-0.00475211
-0.0617819
-0.00144804