/*--------------------------------*- C++ -*----------------------------------*\
  =========                 |
  \\      /  F ield         | OpenFOAM: The Open Source CFD Toolbox
   \\    /   O peration     | Website:  https://openfoam.org
    \\  /    A nd           | Version:  9
     \\/     M anipulation  |
\*---------------------------------------------------------------------------*/
FoamFile
{
    format      ascii;
    class       volScalarField;
    location    "10.1";
    object      p;
}
// * * * * * * * * * * * * * * * * * * * * * * * * * * * * * * * * * * * * * //

dimensions      [0 2 -2 0 0 0 0];

internalField   nonuniform List<scalar> 
8500
(
-0.312273
-0.32037
-0.316386
-0.310666
-0.301319
-0.289553
-0.27645
-0.260383
-0.247424
-0.227572
-0.313135
-0.320949
-0.316892
-0.311077
-0.301678
-0.28986
-0.276737
-0.260522
-0.247731
-0.227252
-0.314851
-0.322102
-0.317899
-0.311892
-0.302388
-0.290468
-0.277323
-0.260851
-0.248281
-0.226615
-0.317402
-0.323816
-0.319393
-0.313099
-0.303437
-0.291366
-0.278202
-0.26135
-0.249068
-0.225668
-0.320764
-0.326075
-0.321358
-0.31468
-0.304805
-0.29253
-0.279207
-0.262084
-0.250109
-0.22443
-0.324905
-0.328854
-0.32377
-0.316613
-0.30647
-0.293952
-0.280443
-0.26292
-0.251377
-0.222924
-0.329785
-0.33213
-0.326603
-0.318872
-0.308401
-0.295597
-0.281889
-0.263844
-0.252837
-0.221183
-0.335362
-0.335874
-0.32983
-0.321429
-0.310571
-0.29743
-0.283503
-0.264852
-0.25445
-0.219249
-0.34159
-0.340055
-0.33342
-0.324257
-0.312954
-0.299423
-0.285248
-0.26593
-0.256165
-0.217176
-0.348428
-0.344636
-0.337346
-0.327327
-0.315522
-0.301549
-0.287091
-0.267067
-0.257927
-0.215031
-0.355849
-0.349573
-0.341575
-0.330614
-0.318248
-0.303785
-0.289002
-0.268255
-0.259672
-0.212892
-0.363748
-0.354881
-0.346081
-0.334095
-0.32111
-0.306111
-0.290951
-0.269491
-0.261329
-0.210845
-0.372112
-0.360503
-0.35084
-0.337752
-0.32409
-0.308512
-0.292911
-0.270778
-0.262821
-0.20898
-0.380904
-0.366411
-0.355831
-0.341568
-0.327175
-0.310975
-0.294861
-0.272119
-0.264066
-0.207389
-0.390079
-0.372583
-0.361036
-0.345532
-0.330355
-0.313492
-0.296779
-0.273522
-0.264983
-0.206179
-0.399598
-0.378995
-0.36644
-0.349636
-0.333623
-0.316057
-0.298651
-0.27499
-0.265492
-0.205459
-0.409423
-0.385628
-0.372029
-0.353874
-0.336976
-0.318664
-0.300462
-0.276525
-0.265487
-0.205205
-0.419517
-0.39246
-0.377791
-0.358241
-0.340409
-0.321304
-0.302207
-0.27814
-0.264813
-0.205114
-0.429844
-0.39947
-0.383713
-0.36273
-0.343917
-0.323963
-0.303891
-0.279852
-0.263405
-0.205855
-0.440363
-0.406635
-0.389782
-0.367332
-0.347488
-0.326619
-0.305507
-0.281583
-0.261649
-0.213133
-0.451031
-0.413932
-0.395979
-0.372034
-0.351103
-0.329236
-0.307015
-0.283057
-0.26028
-0.233213
-0.4618
-0.42133
-0.402282
-0.376814
-0.354734
-0.331768
-0.308351
-0.284059
-0.258756
-0.238678
-0.472615
-0.428794
-0.40866
-0.381642
-0.358343
-0.33416
-0.309449
-0.284469
-0.257007
-0.239283
-0.483411
-0.436283
-0.415075
-0.386479
-0.361877
-0.336349
-0.310237
-0.284257
-0.255037
-0.237884
-0.494116
-0.443747
-0.421479
-0.391271
-0.365274
-0.338261
-0.310637
-0.283402
-0.252706
-0.234916
-0.504645
-0.451127
-0.42781
-0.395954
-0.368457
-0.339815
-0.310566
-0.281878
-0.249897
-0.230742
-0.514904
-0.458352
-0.433999
-0.400449
-0.371337
-0.340921
-0.309938
-0.279658
-0.246529
-0.225674
-0.524784
-0.465344
-0.439958
-0.404665
-0.373814
-0.341484
-0.30867
-0.276712
-0.242546
-0.219905
-0.534167
-0.47201
-0.445591
-0.408498
-0.375778
-0.341404
-0.306682
-0.273011
-0.237904
-0.213546
-0.542922
-0.478248
-0.450786
-0.411832
-0.377112
-0.340582
-0.303899
-0.268528
-0.232573
-0.206652
-0.550907
-0.483943
-0.455422
-0.41454
-0.377696
-0.338917
-0.300255
-0.263236
-0.226532
-0.199243
-0.557972
-0.488971
-0.459365
-0.41649
-0.377405
-0.336315
-0.295688
-0.257113
-0.219768
-0.191322
-0.563955
-0.493197
-0.462472
-0.417541
-0.376118
-0.332687
-0.290146
-0.250139
-0.212275
-0.182881
-0.568691
-0.49648
-0.464593
-0.417553
-0.373714
-0.32795
-0.283586
-0.2423
-0.204048
-0.173909
-0.572008
-0.498669
-0.465574
-0.416381
-0.37008
-0.322035
-0.275972
-0.233584
-0.195089
-0.164396
-0.573732
-0.499611
-0.465257
-0.413888
-0.365113
-0.314877
-0.267278
-0.223986
-0.1854
-0.154333
-0.57369
-0.499148
-0.463485
-0.409939
-0.358719
-0.306428
-0.257487
-0.213504
-0.174987
-0.143715
-0.571712
-0.497124
-0.460106
-0.40441
-0.350815
-0.296647
-0.246587
-0.20214
-0.163858
-0.132542
-0.56763
-0.493384
-0.454972
-0.397187
-0.341334
-0.285508
-0.234576
-0.1899
-0.152022
-0.120816
-0.561289
-0.487778
-0.447947
-0.388171
-0.330224
-0.272995
-0.221459
-0.176795
-0.139493
-0.108545
-0.552542
-0.480165
-0.438905
-0.377278
-0.317445
-0.259102
-0.207246
-0.162839
-0.126285
-0.0957417
-0.541256
-0.470415
-0.427739
-0.364441
-0.302977
-0.243836
-0.191957
-0.14805
-0.112416
-0.0824218
-0.527316
-0.458411
-0.414355
-0.349612
-0.286812
-0.227215
-0.175616
-0.132452
-0.0979059
-0.0685965
-0.510626
-0.444053
-0.398684
-0.332763
-0.26896
-0.209266
-0.158254
-0.116072
-0.082781
-0.0542553
-0.491109
-0.427259
-0.380675
-0.313886
-0.249444
-0.190025
-0.139908
-0.098941
-0.0670903
-0.0393756
-0.468715
-0.407969
-0.360304
-0.292993
-0.228303
-0.169541
-0.120617
-0.0810757
-0.0508975
-0.0240403
-0.443416
-0.386146
-0.337566
-0.270115
-0.205591
-0.147866
-0.100422
-0.062511
-0.0341587
-0.00843468
-0.415213
-0.361779
-0.312486
-0.245304
-0.181373
-0.125061
-0.0793863
-0.0434241
-0.0168223
0.0074884
-0.384133
-0.33488
-0.28511
-0.218633
-0.155729
-0.101196
-0.0576052
-0.0237493
0.000967871
0.0237272
-0.350233
-0.30549
-0.255511
-0.190194
-0.128751
-0.0763808
-0.0350988
-0.0035507
0.0191537
0.0402435
-0.313596
-0.273674
-0.223794
-0.160089
-0.100538
-0.0506814
-0.0119576
0.0171098
0.0376888
0.0569899
-0.274337
-0.239534
-0.190105
-0.128414
-0.0712032
-0.0241926
0.0117376
0.0381683
0.056523
0.0739127
-0.232601
-0.203214
-0.154572
-0.095286
-0.0408751
0.00298164
0.0359042
0.0595563
0.0756027
0.090952
-0.188563
-0.164881
-0.117116
-0.0610446
-0.00968448
0.0307337
0.060454
0.0812013
0.094871
0.10804
-0.14239
-0.124673
-0.0781685
-0.0256932
0.0222305
0.0589497
0.0852941
0.103027
0.114267
0.125099
-0.0942492
-0.0827721
-0.0379853
0.0105922
0.0547219
0.0875117
0.110328
0.124955
0.133733
0.142049
-0.0445587
-0.0393408
0.003299
0.0476156
0.0876373
0.116297
0.135455
0.146907
0.153219
0.158788
0.00648887
0.00532916
0.0454673
0.0851813
0.12082
0.145181
0.160571
0.168812
0.172689
0.175116
0.0586348
0.0509684
0.08828
0.123089
0.154111
0.174033
0.185573
0.190601
0.192043
0.190695
0.111571
0.0973096
0.131492
0.161135
0.187346
0.202723
0.210358
0.212186
0.211012
0.205252
0.164975
0.144071
0.174852
0.19911
0.220361
0.23112
0.234824
0.233448
0.229261
0.219193
0.218519
0.190961
0.218103
0.236805
0.25299
0.259093
0.258867
0.254274
0.247327
0.234715
0.271865
0.237679
0.260984
0.274011
0.285069
0.286512
0.282377
0.274561
0.264879
0.250352
0.324672
0.283921
0.303235
0.310519
0.316433
0.313246
0.305251
0.294238
0.281828
0.265557
0.376592
0.329384
0.344596
0.346124
0.346922
0.33917
0.327388
0.31323
0.298149
0.280184
0.427284
0.373763
0.384812
0.380625
0.376378
0.36416
0.348687
0.331464
0.313799
0.294182
0.476405
0.416759
0.423633
0.413824
0.404648
0.388095
0.369053
0.348865
0.32872
0.307496
0.523622
0.45808
0.460815
0.445532
0.431584
0.410861
0.388394
0.365363
0.342856
0.320072
0.568612
0.497442
0.496126
0.475567
0.457044
0.432344
0.406622
0.380888
0.356152
0.331865
0.611063
0.534574
0.529343
0.503756
0.480895
0.45244
0.423652
0.395375
0.368556
0.342831
0.65068
0.569217
0.560255
0.529936
0.503007
0.471049
0.439406
0.408762
0.380015
0.352932
0.687185
0.601131
0.588667
0.553955
0.523265
0.488078
0.453808
0.420989
0.39048
0.362133
0.720319
0.630092
0.614398
0.575673
0.541558
0.503441
0.466791
0.432004
0.399906
0.370401
0.74985
0.655896
0.637285
0.594963
0.557788
0.517061
0.478293
0.441755
0.408251
0.377705
0.775565
0.678363
0.657181
0.611713
0.571868
0.528868
0.488258
0.450199
0.415477
0.384018
0.797283
0.697334
0.67396
0.625824
0.58372
0.538801
0.496638
0.457296
0.421552
0.389316
0.814847
0.712674
0.687513
0.637214
0.593281
0.54681
0.503392
0.463015
0.426445
0.393579
0.828132
0.724275
0.697755
0.645816
0.600497
0.552854
0.508487
0.467327
0.430136
0.396791
0.837043
0.732056
0.70462
0.651579
0.60533
0.5569
0.511898
0.470214
0.432606
0.398939
0.841514
0.73596
0.708063
0.654469
0.607754
0.558928
0.513607
0.47166
0.433844
0.400016
0.841514
0.73596
0.708063
0.654469
0.607754
0.558928
0.513607
0.47166
0.433844
0.400016
0.837043
0.732056
0.70462
0.651579
0.60533
0.5569
0.511898
0.470214
0.432606
0.398939
0.828132
0.724275
0.697755
0.645816
0.600497
0.552854
0.508487
0.467327
0.430136
0.396791
0.814847
0.712674
0.687513
0.637214
0.593281
0.54681
0.503392
0.463015
0.426445
0.393579
0.797283
0.697334
0.67396
0.625824
0.58372
0.538801
0.496638
0.457296
0.421552
0.389316
0.775565
0.678363
0.657181
0.611713
0.571868
0.528868
0.488258
0.450199
0.415478
0.384018
0.74985
0.655896
0.637285
0.594963
0.557788
0.517061
0.478293
0.441755
0.408251
0.377705
0.720319
0.630092
0.614398
0.575673
0.541558
0.503441
0.466791
0.432004
0.399906
0.370401
0.687185
0.601131
0.588667
0.553955
0.523265
0.488078
0.453808
0.420989
0.39048
0.362133
0.65068
0.569217
0.560255
0.529936
0.503007
0.471049
0.439406
0.408762
0.380015
0.352932
0.611064
0.534574
0.529343
0.503756
0.480895
0.45244
0.423652
0.395375
0.368556
0.342831
0.568612
0.497442
0.496126
0.475567
0.457045
0.432344
0.406622
0.380888
0.356153
0.331865
0.523622
0.45808
0.460815
0.445532
0.431584
0.410861
0.388394
0.365363
0.342856
0.320073
0.476405
0.416759
0.423633
0.413824
0.404648
0.388096
0.369053
0.348865
0.32872
0.307496
0.427284
0.373763
0.384812
0.380625
0.376378
0.36416
0.348687
0.331464
0.313799
0.294182
0.376593
0.329384
0.344596
0.346124
0.346922
0.33917
0.327388
0.31323
0.298149
0.280184
0.324672
0.283922
0.303235
0.310519
0.316433
0.313246
0.305252
0.294238
0.281828
0.265557
0.271866
0.237679
0.260984
0.274011
0.285069
0.286512
0.282377
0.274562
0.264879
0.250352
0.218519
0.190961
0.218103
0.236805
0.25299
0.259094
0.258867
0.254274
0.247327
0.234715
0.164975
0.144071
0.174852
0.19911
0.220361
0.231121
0.234824
0.233448
0.229261
0.219193
0.111571
0.0973097
0.131492
0.161135
0.187346
0.202724
0.210358
0.212186
0.211013
0.205252
0.0586349
0.0509685
0.0882801
0.12309
0.154111
0.174033
0.185573
0.190601
0.192043
0.190695
0.00648897
0.00532926
0.0454674
0.0851814
0.12082
0.145181
0.160571
0.168812
0.172689
0.175116
-0.0445586
-0.0393407
0.0032991
0.0476157
0.0876374
0.116298
0.135455
0.146907
0.153219
0.158788
-0.0942491
-0.082772
-0.0379852
0.0105924
0.054722
0.0875118
0.110328
0.124955
0.133733
0.14205
-0.14239
-0.124673
-0.0781684
-0.025693
0.0222306
0.0589498
0.0852943
0.103027
0.114268
0.125099
-0.188563
-0.164881
-0.117116
-0.0610445
-0.00968436
0.0307338
0.0604541
0.0812015
0.0948711
0.10804
-0.232601
-0.203214
-0.154571
-0.0952858
-0.040875
0.00298176
0.0359044
0.0595565
0.0756029
0.0909522
-0.274337
-0.239534
-0.190105
-0.128414
-0.0712031
-0.0241924
0.0117378
0.0381685
0.0565232
0.0739129
-0.313596
-0.273674
-0.223794
-0.160089
-0.100538
-0.0506813
-0.0119575
0.01711
0.037689
0.05699
-0.350233
-0.30549
-0.255511
-0.190193
-0.128751
-0.0763807
-0.0350986
-0.00355056
0.0191538
0.0402437
-0.384133
-0.33488
-0.28511
-0.218633
-0.155729
-0.101196
-0.0576051
-0.0237492
0.000968025
0.0237273
-0.415213
-0.361779
-0.312486
-0.245304
-0.181373
-0.125061
-0.0793862
-0.043424
-0.0168221
0.00748856
-0.443416
-0.386146
-0.337566
-0.270115
-0.205591
-0.147866
-0.100422
-0.0625108
-0.0341585
-0.00843452
-0.468715
-0.407969
-0.360303
-0.292993
-0.228303
-0.16954
-0.120617
-0.0810756
-0.0508974
-0.0240402
-0.491109
-0.427259
-0.380675
-0.313886
-0.249444
-0.190025
-0.139908
-0.0989409
-0.0670901
-0.0393754
-0.510626
-0.444053
-0.398684
-0.332763
-0.26896
-0.209266
-0.158254
-0.116072
-0.0827808
-0.0542551
-0.527316
-0.458411
-0.414355
-0.349612
-0.286812
-0.227215
-0.175615
-0.132452
-0.0979058
-0.0685963
-0.541256
-0.470415
-0.427738
-0.364441
-0.302977
-0.243836
-0.191957
-0.14805
-0.112416
-0.0824216
-0.552542
-0.480165
-0.438905
-0.377278
-0.317445
-0.259102
-0.207246
-0.162839
-0.126285
-0.0957415
-0.561289
-0.487778
-0.447947
-0.388171
-0.330224
-0.272994
-0.221458
-0.176795
-0.139492
-0.108545
-0.56763
-0.493384
-0.454972
-0.397187
-0.341334
-0.285508
-0.234576
-0.1899
-0.152022
-0.120816
-0.571711
-0.497124
-0.460106
-0.40441
-0.350815
-0.296647
-0.246587
-0.20214
-0.163857
-0.132542
-0.57369
-0.499148
-0.463485
-0.409939
-0.358719
-0.306428
-0.257486
-0.213504
-0.174987
-0.143715
-0.573732
-0.499611
-0.465257
-0.413888
-0.365113
-0.314877
-0.267278
-0.223986
-0.1854
-0.154333
-0.572007
-0.498669
-0.465574
-0.416381
-0.37008
-0.322034
-0.275972
-0.233584
-0.195088
-0.164396
-0.56869
-0.49648
-0.464593
-0.417553
-0.373714
-0.32795
-0.283585
-0.2423
-0.204048
-0.173909
-0.563955
-0.493197
-0.462471
-0.417541
-0.376118
-0.332686
-0.290146
-0.250139
-0.212274
-0.18288
-0.557972
-0.48897
-0.459365
-0.41649
-0.377405
-0.336315
-0.295688
-0.257113
-0.219768
-0.191321
-0.550907
-0.483943
-0.455422
-0.41454
-0.377696
-0.338917
-0.300255
-0.263236
-0.226532
-0.199243
-0.542922
-0.478248
-0.450786
-0.411831
-0.377112
-0.340581
-0.303899
-0.268527
-0.232573
-0.206652
-0.534167
-0.47201
-0.445591
-0.408498
-0.375777
-0.341404
-0.306681
-0.273011
-0.237904
-0.213546
-0.524784
-0.465344
-0.439958
-0.404665
-0.373813
-0.341484
-0.308669
-0.276711
-0.242546
-0.219905
-0.514904
-0.458352
-0.433998
-0.400449
-0.371337
-0.340921
-0.309938
-0.279658
-0.246529
-0.225674
-0.504645
-0.451127
-0.42781
-0.395954
-0.368457
-0.339815
-0.310566
-0.281878
-0.249897
-0.230742
-0.494116
-0.443747
-0.421479
-0.391271
-0.365274
-0.338261
-0.310637
-0.283402
-0.252706
-0.234916
-0.483411
-0.436283
-0.415075
-0.386479
-0.361877
-0.336349
-0.310237
-0.284257
-0.255037
-0.237884
-0.472615
-0.428794
-0.40866
-0.381642
-0.358343
-0.33416
-0.309449
-0.284469
-0.257007
-0.239283
-0.4618
-0.42133
-0.402282
-0.376814
-0.354734
-0.331768
-0.308351
-0.284059
-0.258756
-0.238677
-0.451031
-0.413932
-0.395979
-0.372034
-0.351103
-0.329236
-0.307015
-0.283057
-0.26028
-0.233213
-0.440363
-0.406635
-0.389782
-0.367332
-0.347488
-0.326619
-0.305507
-0.281583
-0.261649
-0.213133
-0.429844
-0.39947
-0.383713
-0.36273
-0.343917
-0.323963
-0.303891
-0.279852
-0.263405
-0.205855
-0.419517
-0.392459
-0.377791
-0.358241
-0.340409
-0.321304
-0.302207
-0.27814
-0.264813
-0.205114
-0.409423
-0.385628
-0.372029
-0.353874
-0.336976
-0.318664
-0.300461
-0.276525
-0.265487
-0.205205
-0.399598
-0.378995
-0.366439
-0.349636
-0.333623
-0.316057
-0.298651
-0.27499
-0.265492
-0.205459
-0.390079
-0.372583
-0.361036
-0.345532
-0.330355
-0.313492
-0.296779
-0.273522
-0.264983
-0.206179
-0.380904
-0.366411
-0.355831
-0.341568
-0.327175
-0.310975
-0.294861
-0.272119
-0.264066
-0.207389
-0.372112
-0.360503
-0.35084
-0.337752
-0.32409
-0.308512
-0.292911
-0.270778
-0.262821
-0.20898
-0.363748
-0.354881
-0.346081
-0.334095
-0.32111
-0.306111
-0.290951
-0.269491
-0.261329
-0.210845
-0.355849
-0.349573
-0.341575
-0.330614
-0.318248
-0.303785
-0.289002
-0.268255
-0.259672
-0.212892
-0.348428
-0.344636
-0.337346
-0.327327
-0.315522
-0.301549
-0.287091
-0.267067
-0.257927
-0.215031
-0.34159
-0.340055
-0.33342
-0.324256
-0.312954
-0.299423
-0.285248
-0.26593
-0.256165
-0.217176
-0.335362
-0.335874
-0.32983
-0.321429
-0.310571
-0.29743
-0.283503
-0.264852
-0.25445
-0.219249
-0.329785
-0.33213
-0.326603
-0.318872
-0.308401
-0.295597
-0.281889
-0.263844
-0.252837
-0.221183
-0.324904
-0.328854
-0.32377
-0.316613
-0.30647
-0.293952
-0.280443
-0.26292
-0.251377
-0.222924
-0.320764
-0.326075
-0.321358
-0.31468
-0.304805
-0.29253
-0.279207
-0.262084
-0.250109
-0.22443
-0.317402
-0.323816
-0.319393
-0.313099
-0.303437
-0.291366
-0.278202
-0.26135
-0.249068
-0.225668
-0.314851
-0.322102
-0.317899
-0.311892
-0.302388
-0.290468
-0.277323
-0.260851
-0.248281
-0.226615
-0.313135
-0.320949
-0.316892
-0.311077
-0.301678
-0.28986
-0.276737
-0.260522
-0.247731
-0.227252
-0.312273
-0.32037
-0.316386
-0.310666
-0.301319
-0.289553
-0.27645
-0.260383
-0.247424
-0.227572
-0.220599
-0.214039
-0.20703
-0.199867
-0.192419
-0.184695
-0.176728
-0.168535
-0.160134
-0.151552
-0.142818
-0.133965
-0.125031
-0.116058
-0.107089
-0.0981686
-0.0893425
-0.0806496
-0.0721379
-0.0638155
-0.0557792
-0.0478822
-0.0405405
-0.0328708
-0.0268092
-0.0183901
-0.0155526
-0.00308403
-0.00949344
0.0166358
-0.22108
-0.214399
-0.207303
-0.200115
-0.192645
-0.184902
-0.176921
-0.168715
-0.160304
-0.151713
-0.142969
-0.134108
-0.125166
-0.116185
-0.107209
-0.0982823
-0.0894499
-0.0807511
-0.0722339
-0.0639064
-0.0558654
-0.0479642
-0.0406181
-0.0329457
-0.0268773
-0.0184614
-0.0156044
-0.00316218
-0.00950599
0.0165206
-0.222035
-0.215114
-0.207847
-0.200606
-0.193093
-0.185312
-0.177302
-0.169072
-0.160641
-0.15203
-0.143269
-0.134391
-0.125434
-0.116438
-0.107448
-0.0985077
-0.0896628
-0.0809524
-0.0724243
-0.0640868
-0.0560366
-0.0481267
-0.040772
-0.0330941
-0.0270122
-0.0186029
-0.0157071
-0.00331702
-0.00953071
0.016292
-0.223447
-0.216176
-0.208654
-0.201336
-0.193757
-0.185919
-0.177865
-0.1696
-0.161136
-0.152498
-0.143711
-0.134809
-0.125828
-0.116811
-0.1078
-0.0988407
-0.0899776
-0.08125
-0.0727061
-0.0643536
-0.0562899
-0.0483674
-0.0409998
-0.0333137
-0.0272118
-0.018812
-0.0158589
-0.00354574
-0.00956691
0.0159536
-0.225286
-0.217575
-0.209716
-0.202293
-0.194628
-0.186712
-0.178599
-0.170286
-0.161782
-0.153106
-0.144285
-0.135351
-0.126341
-0.117296
-0.108259
-0.0992751
-0.0903887
-0.081639
-0.0730748
-0.0647029
-0.0566215
-0.0486824
-0.0412979
-0.0336011
-0.0274727
-0.0190853
-0.0160571
-0.00384425
-0.00961355
0.0155104
-0.227506
-0.219296
-0.211018
-0.203464
-0.195691
-0.187678
-0.179492
-0.171119
-0.162562
-0.153841
-0.14498
-0.136008
-0.126963
-0.117885
-0.108817
-0.0998033
-0.0908891
-0.0821133
-0.0735244
-0.0651293
-0.0570263
-0.049067
-0.0416617
-0.0339517
-0.0277908
-0.0194184
-0.0162984
-0.00420741
-0.00966931
0.0149691
-0.230044
-0.221311
-0.21254
-0.20483
-0.19693
-0.1888
-0.180524
-0.17208
-0.163462
-0.154688
-0.145779
-0.136765
-0.12768
-0.118565
-0.109463
-0.100416
-0.0914708
-0.0826652
-0.0740484
-0.0656264
-0.0574985
-0.0495157
-0.0420859
-0.0343604
-0.0281612
-0.0198059
-0.0165788
-0.00462922
-0.00973268
0.0143378
-0.232847
-0.223584
-0.214253
-0.206367
-0.198322
-0.190057
-0.181677
-0.17315
-0.164463
-0.155629
-0.146668
-0.137607
-0.12848
-0.119325
-0.110185
-0.101103
-0.0921244
-0.0832864
-0.0746389
-0.0661872
-0.0580314
-0.0500223
-0.0425645
-0.0348215
-0.0285784
-0.0202421
-0.0168938
-0.00510305
-0.00980198
0.0136255
-0.235851
-0.226066
-0.216123
-0.208044
-0.199841
-0.191422
-0.182925
-0.174305
-0.165541
-0.156643
-0.147627
-0.138517
-0.129346
-0.120151
-0.110973
-0.101854
-0.0928401
-0.083968
-0.0752878
-0.0668042
-0.0586179
-0.0505799
-0.043091
-0.0353286
-0.0290366
-0.0207209
-0.0172388
-0.00562191
-0.00987545
0.0128425
-0.238932
-0.228691
-0.218107
-0.209824
-0.201452
-0.192867
-0.184242
-0.175521
-0.166675
-0.157709
-0.148636
-0.139477
-0.130263
-0.121028
-0.111812
-0.102657
-0.0936074
-0.0847006
-0.0759865
-0.0674693
-0.0592507
-0.0511817
-0.0436589
-0.0358753
-0.0295298
-0.021236
-0.0176089
-0.00617864
-0.00995134
0.0119993
-0.241967
-0.231378
-0.220148
-0.21166
-0.203114
-0.194355
-0.185595
-0.176768
-0.167838
-0.158804
-0.149676
-0.14047
-0.131214
-0.121941
-0.11269
-0.1035
-0.0944159
-0.0854745
-0.0767263
-0.0681747
-0.0599221
-0.0518206
-0.0442613
-0.0364553
-0.0300518
-0.0217809
-0.0179992
-0.00676617
-0.010028
0.0111073
-0.244827
-0.234024
-0.222182
-0.213498
-0.204781
-0.195847
-0.18695
-0.178018
-0.169004
-0.159905
-0.150725
-0.141476
-0.132184
-0.122877
-0.113593
-0.104371
-0.0952552
-0.0862804
-0.0774984
-0.0689122
-0.0606249
-0.0524896
-0.0448918
-0.037062
-0.030597
-0.0223495
-0.018405
-0.00737765
-0.0101039
0.0101776
-0.247377
-0.236512
-0.224129
-0.215272
-0.206395
-0.197296
-0.188269
-0.179236
-0.170146
-0.160988
-0.151763
-0.142479
-0.133156
-0.123821
-0.11451
-0.105261
-0.0961151
-0.0871092
-0.0782947
-0.0696743
-0.0613517
-0.0531821
-0.0455439
-0.0376896
-0.0311595
-0.0229361
-0.0188218
-0.00800661
-0.0101778
0.00922144
-0.249479
-0.238708
-0.2259
-0.216908
-0.207893
-0.198652
-0.189511
-0.180392
-0.171236
-0.162032
-0.152772
-0.143461
-0.134116
-0.124761
-0.11543
-0.106157
-0.0969864
-0.0879525
-0.0791073
-0.0704538
-0.0620961
-0.0538918
-0.0462118
-0.0383323
-0.0317343
-0.0235352
-0.0192454
-0.00864707
-0.0102486
0.00824961
-0.251003
-0.240464
-0.227392
-0.218321
-0.209207
-0.199863
-0.190638
-0.181453
-0.172251
-0.163015
-0.153734
-0.144409
-0.135052
-0.125685
-0.11634
-0.107051
-0.0978604
-0.0888019
-0.0799288
-0.0712437
-0.0628514
-0.0546126
-0.0468898
-0.0389847
-0.0323164
-0.0241417
-0.019672
-0.00929348
-0.0103157
0.00727238
-0.251848
-0.241637
-0.228504
-0.219422
-0.210259
-0.20087
-0.191602
-0.182384
-0.173161
-0.163913
-0.154628
-0.145303
-0.135946
-0.126579
-0.11723
-0.107932
-0.0987263
-0.089648
-0.0807502
-0.072036
-0.0636104
-0.0553381
-0.0475719
-0.0396415
-0.0329009
-0.0247511
-0.0200982
-0.00994092
-0.0103787
0.00629915
-0.251969
-0.242097
-0.229124
-0.220091
-0.210948
-0.201596
-0.192348
-0.183142
-0.173934
-0.164704
-0.155438
-0.14613
-0.136789
-0.127434
-0.11809
-0.108792
-0.0995791
-0.0904866
-0.0815683
-0.072828
-0.0643708
-0.0560661
-0.0482564
-0.0403009
-0.0334863
-0.0253612
-0.0205226
-0.0105863
-0.010438
0.00533778
-0.250871
-0.241422
-0.229093
-0.220276
-0.211284
-0.202086
-0.192931
-0.183788
-0.174631
-0.165443
-0.156212
-0.146937
-0.137622
-0.128286
-0.118955
-0.109662
-0.100445
-0.0913408
-0.082403
-0.0736365
-0.0651465
-0.0568077
-0.0489517
-0.0409686
-0.0340767
-0.0259738
-0.0209463
-0.0112288
-0.0104934
0.00439456
-0.248938
-0.239935
-0.228765
-0.220178
-0.211374
-0.202388
-0.193367
-0.184317
-0.175233
-0.166106
-0.156928
-0.147697
-0.13842
-0.129114
-0.119804
-0.11052
-0.101305
-0.0921914
-0.0832356
-0.0744431
-0.0659196
-0.0575453
-0.0496411
-0.0416287
-0.0346577
-0.0265754
-0.0213589
-0.0118583
-0.0105429
0.00348018
-0.250206
-0.236584
-0.225794
-0.217342
-0.209058
-0.200692
-0.192154
-0.183475
-0.174685
-0.165793
-0.156805
-0.147732
-0.138587
-0.12939
-0.120168
-0.110956
-0.101794
-0.092719
-0.0837878
-0.0750086
-0.0664863
-0.0581097
-0.0501847
-0.0421714
-0.0351414
-0.0271025
-0.0217159
-0.0124361
-0.0105881
0.00261847
-0.216074
-0.227252
-0.224453
-0.21653
-0.208483
-0.200278
-0.191815
-0.183193
-0.174454
-0.165608
-0.156667
-0.14764
-0.138541
-0.129391
-0.120216
-0.111051
-0.101935
-0.0929053
-0.0840163
-0.0752782
-0.0667882
-0.0584486
-0.0505342
-0.0425628
-0.0354962
-0.0275353
-0.0220039
-0.0129305
-0.0106471
0.0018668
-0.213672
-0.219224
-0.217727
-0.21103
-0.20396
-0.196532
-0.188668
-0.180532
-0.172199
-0.163703
-0.155065
-0.146307
-0.137449
-0.128514
-0.119535
-0.110544
-0.101584
-0.0926913
-0.0839206
-0.075285
-0.0668767
-0.0586111
-0.0507391
-0.0428287
-0.0357481
-0.0278769
-0.0222114
-0.0133741
-0.0106351
0.00115649
-0.207835
-0.211656
-0.210713
-0.204952
-0.198645
-0.19191
-0.184647
-0.177029
-0.169151
-0.161057
-0.152781
-0.144349
-0.135788
-0.127126
-0.118395
-0.109631
-0.100875
-0.0921659
-0.0835559
-0.075062
-0.0667701
-0.0586105
-0.0508077
-0.0429844
-0.0359086
-0.0281521
-0.0223587
-0.0137942
-0.0105783
0.000436676
-0.202684
-0.204725
-0.203883
-0.198897
-0.193238
-0.18712
-0.18043
-0.173323
-0.165902
-0.15822
-0.150315
-0.142223
-0.133974
-0.125598
-0.117129
-0.108605
-0.100067
-0.091553
-0.0831155
-0.0747745
-0.0666094
-0.0585654
-0.0508398
-0.0431118
-0.0360456
-0.0284111
-0.0224906
-0.014207
-0.0105104
-0.000284554
-0.197557
-0.197962
-0.19691
-0.192609
-0.187564
-0.182037
-0.175922
-0.169342
-0.1624
-0.155155
-0.147649
-0.139921
-0.132005
-0.123936
-0.115748
-0.107481
-0.0991753
-0.0908709
-0.0826181
-0.0744407
-0.0664115
-0.0584911
-0.0508492
-0.0432218
-0.0361691
-0.0286598
-0.0226135
-0.0146129
-0.0104367
-0.00100027
-0.191646
-0.191062
-0.189723
-0.18601
-0.181555
-0.1766
-0.171059
-0.165021
-0.158583
-0.151801
-0.144722
-0.137387
-0.129833
-0.122095
-0.114213
-0.106224
-0.0981705
-0.0900931
-0.0820406
-0.0740407
-0.0661596
-0.058373
-0.0508236
-0.0433037
-0.0362705
-0.0288904
-0.0227226
-0.0150062
-0.0103568
-0.00170148
-0.184884
-0.183905
-0.182319
-0.179116
-0.175232
-0.170834
-0.165859
-0.160371
-0.154453
-0.148157
-0.141529
-0.134612
-0.127444
-0.120064
-0.112509
-0.10482
-0.097039
-0.0892069
-0.0813714
-0.0735637
-0.0658439
-0.0582023
-0.0507554
-0.0433506
-0.0363445
-0.0290974
-0.0228149
-0.0153814
-0.0102727
-0.00237828
-0.177375
-0.176423
-0.174692
-0.17195
-0.168624
-0.164771
-0.160353
-0.155417
-0.150028
-0.144234
-0.138077
-0.1316
-0.124841
-0.11784
-0.110635
-0.103266
-0.0957768
-0.0882078
-0.0806057
-0.073005
-0.0654598
-0.0579746
-0.0506408
-0.0433586
-0.0363883
-0.0292772
-0.0228894
-0.0157339
-0.0101873
-0.0030206
-0.169234
-0.168586
-0.166845
-0.164536
-0.161757
-0.158441
-0.154571
-0.150184
-0.14533
-0.140048
-0.134377
-0.128358
-0.122028
-0.115425
-0.108589
-0.101561
-0.094381
-0.0870925
-0.0797398
-0.0723607
-0.0650036
-0.0576861
-0.0504764
-0.0433244
-0.0363994
-0.0294265
-0.0229454
-0.0160592
-0.010104
-0.00361865
-0.160594
-0.160413
-0.158798
-0.156912
-0.154665
-0.15188
-0.148546
-0.144703
-0.140384
-0.13562
-0.130446
-0.124897
-0.119011
-0.112824
-0.106375
-0.0997033
-0.0928506
-0.0858587
-0.078771
-0.0716276
-0.0644719
-0.0573335
-0.050259
-0.0432448
-0.0363753
-0.0295421
-0.0229821
-0.0163529
-0.0100254
-0.00416376
-0.151604
-0.151961
-0.150588
-0.149123
-0.147391
-0.145127
-0.14232
-0.13901
-0.135221
-0.130976
-0.126302
-0.121233
-0.115802
-0.110045
-0.103997
-0.0976975
-0.0911869
-0.0845065
-0.0776981
-0.070804
-0.0638626
-0.0569143
-0.0499863
-0.0431171
-0.0363144
-0.0296215
-0.0229992
-0.0166114
-0.00995371
-0.00464857
-0.142408
-0.14331
-0.14227
-0.141225
-0.139986
-0.13823
-0.135936
-0.133146
-0.129878
-0.126147
-0.121974
-0.117389
-0.11242
-0.107101
-0.101465
-0.0955501
-0.0893943
-0.0830384
-0.0765224
-0.0698899
-0.063175
-0.0564273
-0.049657
-0.0429398
-0.0362154
-0.0296626
-0.0229967
-0.0168316
-0.00989088
-0.0050673
-0.133148
-0.134558
-0.133907
-0.133278
-0.132507
-0.13124
-0.129441
-0.127154
-0.124394
-0.121168
-0.117492
-0.113388
-0.108884
-0.104008
-0.0987925
-0.0932709
-0.0874802
-0.0814596
-0.0752471
-0.0688872
-0.0624099
-0.0558725
-0.0492707
-0.042712
-0.0360777
-0.0296642
-0.0229745
-0.0170114
-0.00983821
-0.00541622
-0.12395
-0.125805
-0.125571
-0.125346
-0.125012
-0.124209
-0.122885
-0.121082
-0.118812
-0.116077
-0.112888
-0.109261
-0.10522
-0.100788
-0.0959956
-0.0908731
-0.0854546
-0.0797777
-0.0738778
-0.0677998
-0.0615699
-0.0552516
-0.0488282
-0.042434
-0.0359016
-0.0296259
-0.0229333
-0.0171494
-0.00979637
-0.00569389
-0.114926
-0.117148
-0.117331
-0.117492
-0.117563
-0.117193
-0.116319
-0.114976
-0.113175
-0.110915
-0.108198
-0.105038
-0.101453
-0.0974636
-0.0930939
-0.0883726
-0.0833304
-0.0780026
-0.0724223
-0.0666334
-0.0606593
-0.0545674
-0.0483316
-0.0421069
-0.0356881
-0.0295478
-0.0228737
-0.0172455
-0.00976525
-0.00590132
-0.106169
-0.108676
-0.109258
-0.10978
-0.110219
-0.110248
-0.109794
-0.108885
-0.107529
-0.105721
-0.10346
-0.100754
-0.0976148
-0.0940597
-0.0901091
-0.0857876
-0.0811227
-0.0761469
-0.0708903
-0.0653959
-0.0596838
-0.0538242
-0.047784
-0.0417332
-0.0354387
-0.0294312
-0.0227964
-0.0173004
-0.00974403
-0.00604188
-0.0977521
-0.100467
-0.101415
-0.102266
-0.103036
-0.103427
-0.103361
-0.102856
-0.101919
-0.100539
-0.0987132
-0.0964424
-0.0937355
-0.0906044
-0.0870653
-0.0831389
-0.078849
-0.0742249
-0.0692937
-0.0640965
-0.0586509
-0.053028
-0.0471899
-0.0413161
-0.0351559
-0.0292781
-0.0227024
-0.0173161
-0.00973121
-0.00612108
-0.0897309
-0.0925871
-0.0938575
-0.0950042
-0.0960661
-0.0967824
-0.0970695
-0.0969374
-0.0963886
-0.0954111
-0.0939956
-0.0921403
-0.0898483
-0.0871271
-0.0839886
-0.0804492
-0.0765288
-0.072253
-0.0676462
-0.0627466
-0.0575697
-0.0521858
-0.0465546
-0.04086
-0.0348427
-0.0290913
-0.0225927
-0.0172954
-0.00972481
-0.00614616
-0.0821466
-0.0850874
-0.0866358
-0.0880418
-0.0893591
-0.0903619
-0.0909665
-0.0911741
-0.090983
-0.0903787
-0.0893481
-0.0878848
-0.0859875
-0.083659
-0.0809069
-0.0777431
-0.0741835
-0.0702499
-0.0659634
-0.0613592
-0.0564507
-0.0513063
-0.045885
-0.0403702
-0.0345026
-0.0288743
-0.0224685
-0.017242
-0.00972252
-0.00612556
-0.0750296
-0.0780104
-0.0797923
-0.0814219
-0.0829592
-0.0842117
-0.0850981
-0.0856116
-0.0857462
-0.0854848
-0.0848111
-0.0837143
-0.0821888
-0.080233
-0.0778499
-0.0750473
-0.0718367
-0.068236
-0.0642628
-0.059949
-0.0553062
-0.0503995
-0.0451888
-0.0398533
-0.0341403
-0.0286313
-0.0223311
-0.0171603
-0.00972196
-0.0060684
-0.0684037
-0.0713905
-0.0733645
-0.075184
-0.0769082
-0.0783754
-0.0795086
-0.0802942
-0.080722
-0.0807723
-0.0804259
-0.0796682
-0.0784894
-0.0768837
-0.0748496
-0.0723906
-0.0695141
-0.0662339
-0.0625641
-0.058533
-0.0541502
-0.049477
-0.0444753
-0.0393167
-0.0337608
-0.0283676
-0.0221823
-0.0170553
-0.00972096
-0.00598383
-0.0622895
-0.0652573
-0.0673865
-0.0693648
-0.0712456
-0.0728949
-0.0742413
-0.075266
-0.0759544
-0.0762849
-0.0762353
-0.0757878
-0.0749285
-0.0736477
-0.0719399
-0.0698041
-0.0672438
-0.0642686
-0.0608892
-0.0571299
-0.0529987
-0.0485521
-0.0437551
-0.0387694
-0.0333705
-0.0280889
-0.0220245
-0.0169322
-0.00971778
-0.00588054
-0.0567069
-0.0596381
-0.0618908
-0.0639997
-0.0660099
-0.0678114
-0.0693395
-0.0705713
-0.0714885
-0.0720672
-0.0722833
-0.0721157
-0.0715472
-0.0705642
-0.0691574
-0.0673217
-0.0650566
-0.0623677
-0.0592624
-0.0557609
-0.0518697
-0.0476401
-0.0430405
-0.0382214
-0.0329767
-0.0278019
-0.0218606
-0.0167967
-0.00971133
-0.00576638
-0.0516774
-0.0545608
-0.0569096
-0.0591244
-0.0612397
-0.0631665
-0.0648471
-0.0662556
-0.0673704
-0.068166
-0.0686162
-0.0686974
-0.0683893
-0.0676751
-0.0665414
-0.0649799
-0.0629859
-0.0605616
-0.0577107
-0.0544498
-0.0507835
-0.0467582
-0.0423456
-0.0376845
-0.0325879
-0.0275143
-0.0216945
-0.0166546
-0.00970136
-0.00564806
-0.0472255
-0.050055