/*--------------------------------*- C++ -*----------------------------------*\
  =========                 |
  \\      /  F ield         | OpenFOAM: The Open Source CFD Toolbox
   \\    /   O peration     | Website:  https://openfoam.org
    \\  /    A nd           | Version:  9
     \\/     M anipulation  |
\*---------------------------------------------------------------------------*/
FoamFile
{
    format      ascii;
    class       volVectorField;
    location    "10.1";
    object      U;
}
// * * * * * * * * * * * * * * * * * * * * * * * * * * * * * * * * * * * * * //

dimensions      [0 1 -1 0 0 0 0];

internalField   nonuniform List<vector> 
8500
(
(-0.00373848 0.00128974 0)
(-0.0141883 0.00191775 -6.5441e-23)
(-0.0267929 0.00170464 -3.6221e-24)
(-0.0348684 0.00103513 6.72252e-37)
(-0.0383087 0.000146092 -9.43182e-24)
(-0.0361276 -0.000848712 7.91058e-24)
(-0.0288477 -0.00187363 -4.97011e-23)
(-0.0154592 -0.00290325 -7.39074e-23)
(0.000742094 -0.00368496 -6.32551e-23)
(0.0231751 -0.00449668 -3.1899e-24)
(-0.00388748 0.00383835 1.83171e-22)
(-0.0141924 0.00569767 6.11555e-23)
(-0.0263297 0.00505373 2.45305e-22)
(-0.033782 0.00304966 0)
(-0.0364684 0.000393483 0)
(-0.033435 -0.00257538 1.51738e-23)
(-0.0252395 -0.0056318 3.69581e-23)
(-0.0108093 -0.00868604 7.87097e-23)
(0.00634166 -0.0110444 4.78538e-23)
(0.0302695 -0.0134248 1.27602e-23)
(-0.00417786 0.00629513 -1.62763e-22)
(-0.0141873 0.00931212 0)
(-0.02539 0.00822362 -2.31014e-22)
(-0.0315975 0.00489831 0)
(-0.0327797 0.000507786 -3.78543e-23)
(-0.0280464 -0.00438946 3.17489e-23)
(-0.0180212 -0.00943058 0)
(-0.0015288 -0.0144168 0)
(0.0175076 -0.0183482 0)
(0.0444164 -0.0221516 0)
(-0.0045946 0.00860146 3.30802e-22)
(-0.0141468 0.012655 -2.47816e-22)
(-0.0239467 0.0110994 -5.80602e-23)
(-0.0282916 0.00647509 -3.59479e-22)
(-0.0272261 0.000404777 -3.49698e-22)
(-0.0199577 -0.00634604 3.05065e-23)
(-0.00719355 -0.0133119 -2.56193e-23)
(0.0123571 -0.0200752 2.77753e-22)
(0.0341819 -0.0255287 2.23139e-24)
(0.0655188 -0.0305325 2.42567e-22)
(-0.00511563 0.0107026 -3.30802e-22)
(-0.0140318 0.0156266 -3.22438e-22)
(-0.0219597 0.0135732 8.73663e-23)
(-0.0238288 0.00768085 4.78031e-22)
(-0.0197828 7.02842e-06 -4.1093e-23)
(-0.00916686 -0.00848954 5.01948e-22)
(0.00723422 -0.0172641 0)
(0.0308246 -0.0256576 -3.16365e-22)
(0.0562813 -0.0325345 -6.05523e-23)
(0.0934217 -0.0384166 -3.33834e-22)
(-0.00571237 0.0125487 8.445e-23)
(-0.0137915 0.0181357 5.34473e-22)
(-0.0193756 0.0155462 -4.15069e-22)
(-0.0181617 0.00842592 1.30457e-24)
(-0.0104142 -0.000753878 -3.52458e-22)
(0.00434543 -0.0108568 1.28466e-22)
(0.0252346 -0.0212611 -5.16736e-23)
(0.0538133 -0.0311402 3.96182e-22)
(0.0837103 -0.0393172 -6.55124e-23)
(0.127913 -0.0456451 1.91844e-22)
(-0.00635045 0.0140965 4.27371e-23)
(-0.0133633 0.0201018 0)
(-0.0161285 0.0169321 -4.41063e-24)
(-0.0112307 0.00863294 0)
(0.00092345 -0.00193384 6.27441e-22)
(0.0206018 -0.0134785 -5.0457e-22)
(0.0467903 -0.0253103 0)
(0.081242 -0.036448 1.1675e-24)
(0.116338 -0.0458116 0)
(0.168714 -0.0520489 0)
(-0.00699049 0.0153099 -7.01814e-22)
(-0.0126744 0.0214565 -7.24634e-23)
(-0.0121399 0.0176587 5.38375e-22)
(-0.00296427 0.00823993 9.63287e-23)
(0.0142829 -0.00357299 -6.33225e-22)
(0.0396257 -0.0163667 -3.83462e-22)
(0.0718835 -0.0293976 -5.22627e-23)
(0.113015 -0.0415032 4.00614e-22)
(0.154 -0.0519363 -6.61402e-23)
(0.215471 -0.0574503 4.89681e-23)
(-0.00758921 0.0161609 7.90161e-22)
(-0.0116421 0.0221454 -5.96782e-22)
(-0.00731974 0.0176707 -1.81075e-22)
(0.00672096 0.00720279 1.00224e-22)
(0.0297266 -0.00569427 6.36268e-22)
(0.0614433 -0.0195134 5.7345e-22)
(0.10049 -0.0334827 -5.25994e-23)
(0.149015 -0.0462181 8.16461e-23)
(0.196498 -0.0575914 -1.26982e-22)
(0.267737 -0.0616682 5.09789e-23)
(-0.00809997 0.0166292 7.30141e-22)
(-0.0101765 0.0221306 5.95925e-22)
(-0.00156685 0.0169308 -8.67239e-22)
(0.0179192 0.00549737 -1.01297e-22)
(0.0473255 -0.00829986 0)
(0.0860831 -0.0228905 0)
(0.132579 -0.0375029 0)
(0.189096 -0.0504863 -1.29135e-21)
(0.243592 -0.0626531 -5.26799e-22)
(0.324957 -0.0645231 3.67055e-22)
(-0.00847104 0.016698 -1.47616e-21)
(-0.008182 0.0213947 0)
(0.00522865 0.0154229 1.98929e-21)
(0.0307344 0.00312236 8.09712e-22)
(0.0671576 -0.0113676 8.28545e-23)
(0.113574 -0.0264467 0)
(0.168106 -0.0413716 -8.33658e-22)
(0.233078 -0.0541826 6.47076e-22)
(0.295 -0.0669692 5.26795e-22)
(0.386464 -0.0658425 -3.67065e-22)
(-0.00864896 0.0163658 8.39219e-22)
(-0.00555327 0.019932 -7.824e-23)
(0.0131829 0.0131523 -1.001e-21)
(0.0452775 0.000101454 -9.09589e-22)
(0.0893044 -0.0148492 0)
(0.143938 -0.0301049 1.05203e-21)
(0.207011 -0.0449775 -5.61968e-24)
(0.280741 -0.0571649 5.72778e-22)
(0.350383 -0.0703565 6.01044e-22)
(0.451467 -0.0654705 -3.60129e-22)
(-0.00858422 0.015642 -1.41494e-24)
(-0.00218174 0.0177505 1.34047e-21)
(0.02242 0.0101477 -1.29537e-22)
(0.0616642 -0.00351527 7.26608e-22)
(0.113847 -0.018668 4.1844e-22)
(0.177191 -0.0337613 2.72728e-22)
(0.249205 -0.0481839 8.32549e-22)
(0.331811 -0.0592796 -7.38399e-22)
(0.409334 -0.0726006 -4.12659e-22)
(0.519056 -0.0632782 2.58327e-22)
(-0.00822398 0.0145373 0)
(0.00204107 0.0148816 -1.10806e-21)
(0.0330665 0.00646122 -1.3153e-22)
(0.0800113 -0.00765034 9.47749e-24)
(0.140861 -0.0227185 6.64559e-22)
(0.213329 -0.0372846 -9.30528e-22)
(0.294567 -0.0508303 8.43523e-22)
(0.38596 -0.060369 -8.58562e-23)
(0.471372 -0.0734608 0)
(0.588199 -0.0591789 0)
(-0.00751508 0.0130702 1.01101e-22)
(0.00722454 0.0113737 -1.30827e-21)
(0.045249 0.00216882 0)
(0.100432 -0.0121985 -9.32179e-23)
(0.170411 -0.0268665 8.63203e-23)
(0.252321 -0.040518 0)
(0.342925 -0.0527368 -8.50433e-22)
(0.442792 -0.0602802 -6.62997e-22)
(0.535925 -0.0726801 1.20697e-22)
(0.657765 -0.0531522 -1.01741e-22)
(-0.00640536 0.0112668 -1.01057e-22)
(0.0134771 0.00729151 1.39311e-21)
(0.0590905 -0.00263024 0)
(0.123029 -0.0170273 -9.50975e-22)
(0.202539 -0.03095 8.72663e-23)
(0.294104 -0.0432815 -1.0864e-21)
(0.394051 -0.0537099 -1.03305e-22)
(0.501846 -0.058876 7.4986e-22)
(0.602329 -0.0700017 0)
(0.726561 -0.045273 7.04626e-22)
(-0.00484389 0.00915959 -1.61555e-21)
(0.0209039 0.00271566 -8.66503e-23)
(0.0747066 -0.00781416 -1.32273e-22)
(0.147892 -0.0219786 1.10689e-22)
(0.237261 -0.0347828 -1.3824e-21)
(0.338565 -0.0453773 1.0864e-21)
(0.447646 -0.0535519 8.66272e-22)
(0.562592 -0.056045 6.70424e-22)
(0.669819 -0.0651775 1.07938e-21)
(0.793335 -0.0356881 -6.02596e-22)
(-0.00278141 0.00678674 1.71876e-21)
(0.0296041 -0.00225789 0)
(0.0922009 -0.01324 1.24261e-21)
(0.175088 -0.0268709 -1.12243e-22)
(0.274554 -0.0381584 2.77895e-21)
(0.385539 -0.046596 0)
(0.503333 -0.052074 -8.66265e-22)
(0.624453 -0.0517138 4.02052e-24)
(0.737531 -0.057952 -1.19977e-21)
(0.856707 -0.0245274 1.01495e-22)
(-0.000170736 0.00419178 0)
(0.0396688 -0.00751897 1.40318e-21)
(0.111661 -0.0187459 -1.10848e-21)
(0.204653 -0.0315031 0)
(0.314349 -0.0408562 -1.39655e-21)
(0.434795 -0.0467258 0)
(0.56066 -0.0491148 8.75932e-22)
(0.686829 -0.0458539 -6.74434e-22)
(0.804589 -0.0480606 -1.06869e-21)
(0.9155 -0.0121801 -7.18968e-22)
(0.00303258 0.00142313 -2.20045e-22)
(0.0511789 -0.0129445 -1.21845e-21)
(0.133153 -0.0241532 0)
(0.236589 -0.0356587 0)
(0.356523 -0.0426481 0)
(0.486032 -0.0455613 -1.35494e-22)
(0.619088 -0.0445561 -8.83991e-22)
(0.749103 -0.0384625 -8.89004e-23)
(0.870176 -0.035451 1.06868e-21)
(0.970379 -0.00114112 8.21782e-22)
(0.00686963 -0.00146613 0)
(0.0642015 -0.0183997 -1.45393e-21)
(0.156717 -0.02927 0)
(0.270857 -0.0391111 0)
(0.400894 -0.0433063 0)
(0.538874 -0.0429133 1.36389e-22)
(0.678002 -0.0383222 -1.10529e-21)
(0.810541 -0.0295288 7.52064e-23)
(0.933097 -0.0209796 7.91942e-22)
(1.0247 0.00295459 8.15312e-22)
(0.0113774 -0.00441858 0)
(0.0787885 -0.0237401 1.45393e-21)
(0.182365 -0.0338946 -1.18043e-21)
(0.307369 -0.0416301 0)
(0.447218 -0.0426114 -1.4552e-21)
(0.592875 -0.0386161 0)
(0.736736 -0.0303653 8.84493e-22)
(0.870262 -0.0190671 -6.87157e-22)
(0.991082 -0.00652958 -1.05642e-21)
(1.07868 0.00593969 -8.09777e-22)
(0.0165881 -0.00737269 1.98226e-21)
(0.0949733 -0.0288129 0)
(0.210074 -0.0378192 1.03634e-21)
(0.345989 -0.0429877 1.20569e-22)
(0.49519 -0.0403612 2.92496e-21)
(0.647534 -0.0325365 0)
(0.794614 -0.0206673 -8.90697e-22)
(0.927455 -0.00707216 -1.37455e-21)
(1.04384 0.00814888 -9.15678e-22)
(1.12663 0.0146112 -1.30477e-23)
(0.0225276 -0.0102631 -2.10181e-21)
(0.112769 -0.0334594 1.00361e-22)
(0.239782 -0.0408348 1.46145e-22)
(0.386527 -0.0429658 -1.22296e-22)
(0.544446 -0.0363792 -1.46976e-21)
(0.702308 -0.0245836 1.15462e-21)
(0.850981 -0.00925121 8.90694e-22)
(0.981428 0.00638604 6.87391e-22)
(1.09139 0.0232189 1.04219e-21)
(1.16782 0.0267793 -9.0316e-22)
(0.0292154 -0.0130208 1.21926e-22)
(0.132164 -0.0375165 1.45533e-21)
(0.271392 -0.0427355 0)
(0.428744 -0.0413627 -8.43482e-22)
(0.594574 -0.0305228 -9.66819e-23)
(0.75663 -0.0147153 -1.15462e-21)
(0.905217 0.00381048 1.07e-22)
(1.03162 0.021142 5.93248e-22)
(1.13372 0.0386328 0)
(1.20264 0.0406607 8.11307e-22)
(0.0366626 -0.0155738 -1.30794e-22)
(0.153125 -0.0408201 -1.55768e-21)
(0.304764 -0.0433232 0)
(0.47235 -0.0379999 1.05447e-22)
(0.645122 -0.0226891 -9.76957e-23)
(0.809929 -0.002941 0)
(0.956763 0.0183985 -8.91864e-22)
(1.0776 0.0369772 -6.83224e-22)
(1.17084 0.0542968 -1.2255e-22)
(1.23149 0.055334 -1.03317e-22)
(0.0448713 -0.0178476 0)
(0.175588 -0.043207 -1.80232e-21)
(0.339718 -0.0424127 1.62623e-22)
(0.51701 -0.0327277 -1.06112e-23)
(0.695606 -0.0128193 -7.60311e-22)
(0.861648 0.01068 -1.30757e-21)
(1.00513 0.0343546 1.00911e-21)
(1.11909 0.0536521 0)
(1.20283 0.0700925 0)
(1.25483 0.0702276 0)
(0.0538332 -0.0197658 7.24487e-24)
(0.199466 -0.044518 1.51865e-21)
(0.376036 -0.0398361 1.6499e-22)
(0.562355 -0.0254304 1.09948e-21)
(0.745534 -0.000900441 6.60795e-22)
(0.911265 0.026043 -1.40313e-22)
(1.04991 0.0514914 8.96105e-22)
(1.15593 0.070926 -5.75713e-22)
(1.22985 0.0858857 -6.06916e-22)
(1.27317 0.0849687 4.71319e-22)
(0.063529 -0.021251 9.85769e-22)
(0.224641 -0.0446008 1.09866e-22)
(0.413462 -0.0354472 -1.30477e-21)
(0.607982 -0.0160293 -9.99212e-22)
(0.794408 0.0130352 0)
(0.958304 0.0430043 1.16878e-21)
(1.09081 0.0696031 -6.85631e-24)
(1.18808 0.0885702 7.41903e-22)
(1.25216 0.101543 4.23707e-22)
(1.28706 0.0993256 -3.71856e-22)
(0.0739273 -0.0222261 -2.25063e-21)
(0.250967 -0.0433134 0)
(0.451708 -0.0291254 2.62384e-21)
(0.65347 -0.00448574 8.78786e-22)
(0.84175 0.028912 1.00876e-22)
(1.00236 0.06139 0)
(1.1276 0.0884758 -8.77602e-22)
(1.2156 0.106377 6.42718e-22)
(1.27004 0.116946 4.67226e-22)
(1.29702 0.113165 -3.48203e-22)
(0.084984 -0.0226153 1.13399e-21)
(0.278272 -0.0405269 8.46758e-22)
(0.490459 -0.0207792 -1.47779e-21)
(0.698388 0.00919871 1.32817e-22)
(0.887107 0.0466156 0)
(1.04308 0.0810038 0)
(1.16018 0.107897 0)
(1.23864 0.124165 -1.27164e-21)
(1.28384 0.131994 -4.67228e-22)
(1.30356 0.126419 3.48192e-22)
(0.096642 -0.0223459 1.02692e-21)
(0.306357 -0.036129 -8.35772e-22)
(0.529374 -0.0103489 8.64321e-23)
(0.742306 0.0249822 0)
(0.930067 0.0659978 7.68849e-22)
(1.08021 0.101636 5.04657e-22)
(1.1885 0.127661 5.69788e-23)
(1.25741 0.141778 -5.65296e-23)
(1.29393 0.146608 1.1342e-22)
(1.30713 0.139064 -4.42463e-23)
(0.108831 -0.0213494 -1.16312e-21)
(0.335 -0.0300269 1.04164e-22)
(0.568101 0.00219137 6.67904e-22)
(0.784804 0.0427847 -1.88391e-22)
(0.970264 0.0868829 -5.76608e-22)
(1.11355 0.12307 -7.15469e-22)
(1.21262 0.147579 5.61649e-23)
(1.27216 0.159089 3.15502e-22)
(1.30067 0.160732 0)
(1.30814 0.151101 -3.52553e-23)
(0.121467 -0.0195635 -7.36964e-23)
(0.36396 -0.0221501 0)
(0.606273 0.0168328 2.25771e-24)
(0.825481 0.0624903 0)
(1.00739 0.109074 7.58924e-22)
(1.14299 0.145092 -5.56235e-22)
(1.23262 0.167475 0)
(1.28316 0.175993 1.00047e-23)
(1.30441 0.174326 0)
(1.30694 0.162548 0)
(0.134455 -0.0169336 -1.43783e-22)
(0.392976 -0.0124527 9.2731e-22)
(0.643527 0.0335312 -7.57465e-22)
(0.863966 0.0839514 1.27431e-22)
(1.04118 0.132358 -3.45553e-22)
(1.16846 0.167489 -6.31386e-23)
(1.24867 0.187194 0)
(1.29071 0.192406 2.22511e-22)
(1.30549 0.187365 5.48032e-23)
(1.30386 0.173427 1.36688e-22)
(0.147687 -0.0134146 -5.94776e-22)
(0.421776 -0.000915903 -3.81614e-22)
(0.679502 0.0522079 -1.2423e-22)
(0.899921 0.106992 5.09373e-22)
(1.07144 0.156515 4.40591e-23)
(1.18998 0.190061 5.45052e-22)
(1.26094 0.206597 0)
(1.2951 0.208261 -2.64396e-22)
(1.30422 0.199832 4.34356e-23)
(1.29915 0.183763 -3.01102e-22)
(0.161045 -0.0089725 -5.94776e-22)
(0.450078 0.0124508 3.82148e-22)
(0.713848 0.0727507 -4.01224e-24)
(0.933046 0.131414 -5.93839e-22)
(1.09804 0.181316 -3.20076e-22)
(1.20759 0.212617 -3.03079e-23)
(1.26964 0.225563 2.54527e-23)
(1.29662 0.223507 2.93906e-22)
(1.30087 0.211719 -4.46522e-24)
(1.29304 0.193575 9.68666e-23)
(0.174403 -0.0035855 -2.95294e-22)
(0.477598 0.0276087 0)
(0.746234 0.0950164 -3.32996e-22)
(0.963086 0.156999 0)
(1.12088 0.206536 -4.03473e-22)
(1.22138 0.234979 3.47939e-23)
(1.275 0.243986 0)
(1.29554 0.238102 0)
(1.29569 0.22302 0)
(1.28572 0.20288 0)
(0.187625 0.00275428 2.59645e-22)
(0.50405 0.0444891 1.21231e-22)
(0.776355 0.118833 3.32996e-22)
(0.98983 0.183514 0)
(1.13991 0.231951 0)
(1.23149 0.256983 -1.39849e-23)
(1.27724 0.261775 5.27134e-23)
(1.29211 0.252011 5.5404e-23)
(1.28891 0.233729 4.5818e-23)
(1.27734 0.211685 -7.35757e-24)
(0.200574 0.01004 -4.54607e-24)
(0.529156 0.0629942 -1.1312e-22)
(0.80393 0.144003 5.33372e-24)
(1.01311 0.210717 6.86782e-24)
(1.15516 0.257342 -1.05875e-23)
(1.23806 0.278477 4.05464e-24)
(1.27659 0.278848 -4.54691e-23)
(1.28656 0.265205 -5.16203e-23)
(1.2807 0.243841 -3.51008e-23)
(1.26803 0.219995 8.93448e-25)
(0.213107 0.0182494 0)
(0.552649 0.0829974 -1.09681e-22)
(0.828712 0.170306 -4.08248e-24)
(1.03281 0.238359 7.80082e-24)
(1.16664 0.282498 1.46741e-37)
(1.24126 0.299321 -1.01112e-37)
(1.27328 0.295135 -4.00474e-23)
(1.27911 0.277658 -4.3455e-23)
(1.27123 0.253345 -3.03678e-23)
(1.2579 0.227806 0)
(0.225081 0.0273441 3.10943e-22)
(0.574275 0.104345 8.96002e-23)
(0.85049 0.197505 3.24539e-22)
(1.04884 0.266189 -1.51467e-23)
(1.17445 0.307218 0)
(1.24128 0.319389 1.17324e-23)
(1.26752 0.31057 2.60111e-23)
(1.26994 0.289344 4.69735e-23)
(1.26064 0.262231 2.41189e-23)
(1.24704 0.235108 5.26482e-24)
(0.236356 0.0372698 -2.76952e-22)
(0.593803 0.126859 0)
(0.869088 0.225347 -3.0644e-22)
(1.06118 0.293956 0)
(1.17868 0.331311 -3.29961e-23)
(1.23829 0.338564 2.76743e-23)
(1.25952 0.325098 0)
(1.25924 0.300239 0)
(1.24906 0.270482 0)
(1.23553 0.241889 0)
(0.246795 0.0479562 5.19258e-22)
(0.61102 0.150337 -3.3318e-22)
(0.88437 0.253567 -7.19002e-23)
(1.06981 0.321411 -3.19766e-22)
(1.17946 0.354594 -3.03094e-22)
(1.2325 0.356737 1.98107e-23)
(1.24948 0.338664 -1.66372e-23)
(1.24716 0.310318 1.1479e-22)
(1.23658 0.278078 3.94965e-24)
(1.22343 0.248127 5.24392e-23)
(0.256268 0.0593178 -5.19258e-22)
(0.625744 0.17456 -3.91858e-22)
(0.896237 0.281895 1.00415e-22)
(1.07478 0.348311 3.83838e-22)
(1.17694 0.376897 -1.54176e-23)
(1.2241 0.373812 3.07726e-22)
(1.23757 0.351219 0)
(1.23384 0.319554 -1.29953e-22)
(1.22332 0.285001 -1.3738e-23)
(1.21077 0.253792 -5.57507e-23)
(0.264654 0.0712546 1.17779e-22)
(0.637818 0.199288 6.79045e-22)
(0.904629 0.310056 -4.4813e-22)
(1.07615 0.374421 -9.00003e-23)
(1.17128 0.39806 -2.16687e-22)
(1.21328 0.389697 3.8168e-23)
(1.22397 0.362717 -2.63141e-23)
(1.21941 0.327918 1.06976e-22)
(1.20936 0.291243 -1.70019e-23)
(1.19759 0.258855 2.71842e-23)
(0.271845 0.083653 5.74622e-23)
(0.647119 0.224272 0)
(0.909523 0.337773 3.48022e-23)
(1.07403 0.399514 0)
(1.16265 0.417935 4.42752e-22)
(1.20023 0.404309 -2.7165e-22)
(1.20883 0.373113 0)
(1.20395 0.335369 -2.27568e-23)
(1.19479 0.296782 0)
(1.18399 0.263276 0)
(0.277744 0.096388 -8.28697e-22)
(0.653556 0.24925 -7.36688e-23)
(0.910933 0.364775 5.34725e-22)
(1.06853 0.423374 6.55232e-23)
(1.15125 0.436384 -4.38368e-22)
(1.18515 0.417573 -1.38374e-22)
(1.19232 0.382371 -1.85977e-23)
(1.18762 0.341882 2.6497e-23)
(1.17963 0.301568 -7.85139e-24)
(1.17005 0.267062 -2.44292e-24)
(0.282269 0.109324 9.22254e-22)
(0.657068 0.273957 -5.68116e-22)
(0.908907 0.390794 -1.49027e-22)
(1.0598 0.445798 7.72873e-23)
(1.13725 0.453281 3.4399e-22)
(1.1682 0.429419 2.10894e-22)
(1.17457 0.390445 -1.44864e-23)
(1.17053 0.347436 -4.45521e-23)
(1.16392 0.305572 -8.80474e-26)
(1.15578 0.270174 -2.51276e-24)
(0.285355 0.122318 6.88205e-22)
(0.657631 0.298122 5.57343e-22)
(0.903528 0.415571 -6.15916e-22)
(1.04801 0.466593 -6.84402e-23)
(1.12087 0.468509 0)
(1.14959 0.439781 0)
(1.15575 0.397295 0)
(1.15273 0.352004 -1.66105e-23)
(1.14775 0.308772 5.78569e-23)
(1.14123 0.272576 -8.33476e-23)
(0.286956 0.135218 -1.29773e-21)
(0.655252 0.321476 0)
(0.894907 0.438858 1.3002e-21)
(1.03334 0.485582 3.51439e-22)
(1.1023 0.481963 0)
(1.12948 0.448602 0)
(1.13596 0.402884 -3.163e-25)
(1.13433 0.355556 -1.63909e-23)
(1.13117 0.31114 -5.78574e-23)
(1.12642 0.274235 8.33443e-23)
(0.287042 0.147873 6.76384e-22)
(0.649973 0.343754 -5.6131e-23)
(0.883194 0.460422 -6.02498e-22)
(1.016 0.5026 -3.82334e-22)
(1.08175 0.493548 2.58786e-23)
(1.10805 0.455831 3.6308e-23)
(1.11534 0.407179 6.88039e-23)
(1.1154 0.358063 -1.03979e-22)
(1.11425 0.31265 -1.46405e-22)
(1.1114 0.275121 1.41309e-22)
(0.285604 0.160126 -3.58185e-24)
(0.64187 0.364698 6.71609e-22)
(0.868564 0.480049 -6.56202e-23)
(0.996164 0.517493 1.69231e-22)
(1.05942 0.503176 5.90598e-23)
(1.08548 0.461418 -9.33102e-23)
(1.09401 0.410151 -7.87494e-23)
(1.09604 0.359502 1.32363e-22)
(1.09703 0.31328 -1.76656e-22)
(1.09621 0.275201 -1.05795e-22)
(0.282654 0.171822 0)
(0.631058 0.384062 -5.78779e-22)
(0.851167 0.497521 -5.18206e-23)
(0.974089 0.530145 -8.4776e-23)
(1.03554 0.51077 -5.15945e-23)
(1.06191 0.465325 3.85571e-23)
(1.0721 0.411772 -2.18684e-22)
(1.07632 0.359849 0)
(1.07955 0.313007 0)
(1.08089 0.274446 0)
(0.278219 0.182807 3.69048e-23)
(0.617669 0.401625 -3.61102e-22)
(0.831192 0.512635 0)
(0.950026 0.540435 -8.82099e-23)
(1.01031 0.516276 7.90247e-25)
(1.03753 0.467517 0)
(1.04972 0.41202 2.09525e-22)
(1.05633 0.359087 2.75604e-22)
(1.06188 0.311814 -6.07611e-23)
(1.06546 0.272825 5.11584e-23)
(0.272335 0.19292 -2.30287e-23)
(0.601859 0.417175 3.80436e-22)
(0.8089 0.525242 0)
(0.924203 0.548251 -8.83326e-24)
(0.983929 0.519642 -8.01056e-24)
(1.0125 0.467968 3.48883e-22)
(1.027 0.410875 4.21345e-23)
(1.03616 0.357202 -3.11038e-22)
(1.04405 0.309687 0)
(1.04997 0.270304 -5.15624e-22)
(0.26507 0.202011 -6.80231e-23)
(0.583803 0.430495 -9.1616e-24)
(0.784546 0.535206 8.79922e-24)
(0.896858 0.55351 -7.36358e-24)
(0.956616 0.520827 4.25459e-22)
(0.986965 0.466655 -3.48885e-22)
(1.00406 0.408324 -4.25569e-22)
(1.01589 0.354183 -3.81674e-22)
(1.02612 0.306615 -6.63481e-22)
(1.03444 0.266848 4.50469e-22)
(0.256522 0.20996 7.89359e-23)
(0.5637 0.441403 0)
(0.758382 0.542395 -2.18053e-22)
(0.868239 0.556143 1.95456e-23)
(0.928574 0.519801 -9.86597e-22)
(0.961095 0.463566 0)
(0.981004 0.404356 4.25572e-22)
(0.995612 0.350027 -5.28224e-23)
(1.00813 0.302587 7.5196e-22)
(1.01894 0.262414 -7.4481e-23)
(0.24679 0.216645 0)
(0.541779 0.449745 -2.58112e-22)
(0.730672 0.546704 1.94698e-22)
(0.838599 0.556102 0)
(0.900008 0.516546 5.61138e-22)
(0.935042 0.458692 0)
(0.957964 0.398969 -5.69201e-22)
(0.97541 0.344734 4.34502e-22)
(0.990152 0.297592 8.20548e-22)
(1.00359 0.256954 6.78554e-22)
(0.235984 0.221953 5.43577e-23)
(0.518283 0.455389 2.12478e-22)
(0.701691 0.548049 0)
(0.808188 0.553353 0)
(0.871121 0.511054 0)
(0.90896 0.452035 8.83009e-23)
(0.93505 0.392166 4.19134e-22)
(0.955376 0.338312 6.38378e-23)
(0.972343 0.291662 -8.20553e-22)
(0.988502 0.250595 -7.63609e-22)
(0.224231 0.225785 0)
(0.493471 0.458227 5.83204e-22)
(0.671718 0.546372 0)
(0.77726 0.54788 0)
(0.842112 0.50333 0)
(0.882998 0.443603 -9.96604e-23)
(0.912375 0.383953 8.77614e-22)
(0.935623 0.330766 -2.10691e-22)
(0.954982 0.28488 -7.38187e-22)
(0.973663 0.243355 -7.76918e-22)
(0.211668 0.228058 0)
(0.467607 0.458175 -5.83206e-22)
(0.641037 0.541639 6.97423e-22)
(0.746063 0.539684 0)
(0.813176 0.493388 1.09821e-21)
(0.857302 0.433412 0)
(0.890048 0.374339 -7.09757e-22)
(0.916272 0.32207 6.39331e-22)
(0.938225 0.27723 9.70264e-22)
(0.959443 0.236803 7.78345e-22)
(0.198447 0.228707 -1.2369e-21)
(0.440967 0.455175 0)
(0.609933 0.533835 -6.00211e-22)
(0.714843 0.528782 -8.13545e-23)
(0.784504 0.481257 -2.32592e-21)
(0.832014 0.421486 0)
(0.868172 0.363342 8.44812e-22)
(0.89738 0.312241 4.83136e-23)
(0.921902 0.268596 9.81702e-22)
(0.945185 0.229656 9.57784e-25)
(0.184723 0.22768 1.31608e-21)
(0.41383 0.449196 -6.64768e-23)
(0.57869 0.522973 -1.11607e-22)
(0.683843 0.515209 -9.33989e-23)
(0.756283 0.466973 1.22771e-21)
(0.807273 0.407856 -1.11687e-21)
(0.846854 0.350987 -8.44817e-22)
(0.879027 0.301306 -6.87652e-22)
(0.906079 0.259023 -1.11303e-21)
(0.931258 0.221673 1.05117e-21)
(0.170659 0.224946 -9.18523e-23)
(0.386477 0.440233 -1.1469e-21)
(0.547587 0.509083 0)
(0.653298 0.499016 7.79832e-22)
(0.728691 0.450588 8.84047e-23)
(0.783216 0.392565 1.11688e-21)
(0.826197 0.337303 -1.15266e-22)
(0.861295 0.289287 -6.82481e-22)
(0.890828 0.248548 0)
(0.917813 0.212869 -9.3581e-22)
(0.156423 0.220491 1.10745e-22)
(0.359192 0.428308 1.22401e-21)
(0.516901 0.492223 0)
(0.623437 0.480269 -3.28395e-23)
(0.701904 0.432163 9.66007e-23)
(0.759971 0.375659 0)
(0.806301 0.322326 1.03189e-21)
(0.844262 0.276211 7.79414e-22)
(0.87621 0.237195 1.54996e-22)
(0.90493 0.203281 -1.30547e-22)
(0.142183 0.214318 0)
(0.332251 0.41347 1.70567e-21)
(0.4869 0.472469 -1.52853e-22)
(0.594479 0.45905 7.90741e-23)
(0.676088 0.411768 8.5342e-22)
(0.737664 0.357198 1.53001e-21)
(0.787263 0.3061 -1.16815e-21)
(0.828002 0.262109 0)
(0.862283 0.224986 0)
(0.892675 0.19293 0)
(0.128109 0.20645 -7.98874e-24)
(0.305929 0.395793 -1.43021e-21)
(0.457844 0.449919 1.67183e-22)
(0.566637 0.435458 -1.18062e-21)
(0.651403 0.389487 -7.41429e-22)
(0.716414 0.337244 2.47054e-22)
(0.769174 0.288675 -1.15117e-21)
(0.812586 0.247023 7.88097e-22)
(0.849101 0.211955 8.80585e-22)
(0.881102 0.181844 -7.01314e-22)
(0.114365 0.196926 -1.08431e-21)
(0.280488 0.375375 -1.16445e-22)
(0.429981 0.424692 1.49285e-21)
(0.540112 0.409603 1.19308e-21)
(0.628 0.365413 0)
(0.696336 0.315873 -1.44352e-21)
(0.75212 0.270109 -5.06905e-23)
(0.798081 0.230996 -1.01379e-21)
(0.836717 0.198136 -6.17604e-22)
(0.870257 0.170057 5.58952e-22)
(0.101114 0.185806 2.53111e-21)
(0.256183 0.352338 0)
(0.403547 0.396926 -3.07906e-21)
(0.515091 0.381613 -1.04294e-21)
(0.606021 0.339648 -1.25779e-22)
(0.677534 0.293164 0)
(0.736184 0.250465 1.19369e-21)
(0.78455 0.214082 -9.7219e-22)
(0.82518 0.183574 -7.62018e-22)
(0.860181 0.157608 5.96527e-22)
(0.0885128 0.173164 -1.3081e-21)
(0.233256 0.326829 -1.01866e-21)
(0.378765 0.366775 1.78492e-21)
(0.491754 0.351625 -1.66286e-22)
(0.585599 0.312306 0)
(0.66011 0.269207 0)
(0.721441 0.229815 0)
(0.772052 0.196338 1.97535e-21)
(0.814537 0.168314 7.6202e-22)
(0.850908 0.144543 -5.96527e-22)
(0.0767088 0.159091 -1.29159e-21)
(0.211932 0.299014 1.00746e-21)
(0.355841 0.334414 1.08322e-22)
(0.470264 0.319792 0)
(0.566856 0.283508 -1.08673e-21)
(0.644155 0.244098 -7.47737e-22)
(0.707963 0.208234 -8.48077e-23)
(0.760642 0.177826 1.50986e-22)
(0.80483 0.15241 -1.99435e-22)
(0.84247 0.130908 8.08247e-23)
(0.0658407 0.143694 1.45921e-21)
(0.192421 0.26908 -1.35499e-22)
(0.334966 0.300031 -1.13289e-21)
(0.450771 0.286275 2.6122e-22)
(0.549904 0.253383 8.10371e-22)
(0.629753 0.217938 1.0648e-21)
(0.695813 0.185804 -8.7367e-23)
(0.750369 0.158613 -5.0308e-22)
(0.796098 0.135916 0)
(0.834896 0.116758 7.71772e-23)
(0.0560356 0.127093 9.71747e-23)
(0.174913 0.237231 0)
(0.316311 0.263828 -3.11414e-23)
(0.433411 0.251248 0)
(0.534845 0.222069 -1.1529e-21)
(0.61698 0.190837 8.953e-22)
(0.68505 0.162614 0)
(0.741278 0.138772 1.09989e-23)
(0.788376 0.118894 0)
(0.828211 0.102145 0)
(0.0474084 0.109422 1.95091e-22)
(0.159579 0.203688 -1.27681e-21)
(0.30003 0.226021 1.05793e-21)
(0.418303 0.214892 -1.87112e-22)
(0.521768 0.18971 4.98128e-22)
(0.605904 0.162908 1.36646e-22)
(0.675727 0.138754 0)
(0.733409 0.118378 -4.08072e-22)
(0.781697 0.101407 -1.10398e-22)
(0.822438 0.0871268 -3.31516e-22)
(0.0400597 0.0908252 8.35679e-22)
(0.146568 0.168687 -1.8857e-21)
(0.286256 0.186839 1.80964e-22)
(0.405552 0.177398 -7.76276e-22)
(0.510751 0.156456 -8.82325e-23)
(0.596584 0.13427 -9.13913e-22)
(0.667888 0.11432 0)
(0.726798 0.0975112 5.5633e-22)
(0.776088 0.0835219 -1.03405e-22)
(0.817596 0.071763 7.54222e-22)
(0.0340754 0.0714574 -8.35679e-22)
(0.136005 0.132476 6.89882e-22)
(0.2751 0.146516 -1.24165e-22)
(0.395244 0.138963 9.13808e-22)
(0.501857 0.122463 5.21966e-22)
(0.589068 0.105046 5.63151e-23)
(0.66157 0.0894129 -4.72938e-23)
(0.721473 0.0762526 -6.23693e-22)
(0.771572 0.065307 4.43147e-24)
(0.813702 0.0561139 -2.50839e-22)
(0.029525 0.0514811 4.31588e-22)
(0.127992 0.0953127 0)
(0.266653 0.105299 5.10394e-22)
(0.387452 0.0997903 0)
(0.495141 0.0878903 7.37398e-23)
(0.583396 0.0753634 -6.18475e-23)
(0.656805 0.0641338 0)
(0.717458 0.054687 0)
(0.768168 0.0468337 0)
(0.81077 0.0402417 0)
(0.0264617 0.0310657 -3.7895e-22)
(0.122608 0.0574636 -1.38295e-22)
(0.260983 0.0634381 -5.10394e-22)
(0.382227 0.0600872 0)
(0.490642 0.0529014 0)
(0.579598 0.0453506 2.86574e-23)
(0.653615 0.0385876 -1.16217e-22)
(0.714772 0.0329008 -1.42342e-22)
(0.76589 0.0281748 -1.36765e-22)
(0.808809 0.0242093 2.23288e-23)
(0.0249211 0.0103848 -6.81586e-24)
(0.119902 0.0192006 1.49889e-22)
(0.258137 0.0211892 -7.31081e-24)
(0.379606 0.0200647 2.50371e-23)
(0.488385 0.0176617 -1.00854e-23)
(0.577694 0.015139 0)
(0.652017 0.0128804 9.21505e-23)
(0.713426 0.0109817 1.42342e-22)
(0.764749 0.00940405 1.03607e-22)
(0.807827 0.00808048 1.59315e-23)
(0.0249211 -0.0103848 -6.81586e-24)
(0.119902 -0.0192006 1.49889e-22)
(0.258137 -0.0211892 -7.31081e-24)
(0.379606 -0.0200647 2.50371e-23)
(0.488385 -0.0176617 -1.00854e-23)
(0.577694 -0.015139 0)
(0.652017 -0.0128804 8.10575e-23)
(0.713426 -0.0109817 1.5167e-22)
(0.764749 -0.00940405 1.10254e-22)
(0.807827 -0.00808048 0)
(0.0264617 -0.0310657 -4.84226e-22)
(0.122608 -0.0574636 -1.81144e-22)
(0.260983 -0.0634381 -5.41313e-22)
(0.382227 -0.0600872 2.58747e-23)
(0.490642 -0.0529014 0)
(0.579598 -0.0453506 -2.86574e-23)
(0.653615 -0.0385876 -6.80838e-23)
(0.714772 -0.0329008 -1.42342e-22)
(0.76589 -0.0281748 -8.37421e-23)
(0.808809 -0.0242093 -2.23288e-23)
(0.029525 -0.0514811 4.31588e-22)
(0.127992 -0.0953127 0)
(0.266653 -0.105299 5.10394e-22)
(0.387452 -0.0997903 0)
(0.495141 -0.0878903 7.37398e-23)
(0.583396 -0.0753634 -6.18475e-23)
(0.656805 -0.0641338 0)
(0.717458 -0.054687 0)
(0.768168 -0.0468337 0)
(0.81077 -0.0402417 0)
(0.0340754 -0.0714574 -8.35679e-22)
(0.136005 -0.132476 5.37382e-22)
(0.2751 -0.146516 1.24165e-22)
(0.395244 -0.138963 6.24947e-22)
(0.501857 -0.122463 6.79263e-22)
(0.589068 -0.105046 -5.63151e-23)
(0.66157 -0.0894129 4.72938e-23)
(0.721473 -0.0762526 -4.88968e-22)
(0.771572 -0.065307 -4.43147e-24)
(0.813702 -0.0561139 -4.20391e-22)
(0.0400597 -0.0908252 8.35679e-22)
(0.146568 -0.168687 6.5844e-22)
(0.286256 -0.186839 -1.80964e-22)
(0.405552 -0.177398 -7.62477e-22)
(0.510751 -0.156456 6.63789e-23)
(0.596584 -0.13427 -9.13913e-22)
(0.667888 -0.11432 0)
(0.726798 -0.0975112 5.5633e-22)
(0.776088 -0.0835219 1.03405e-22)
(0.817596 -0.071763 5.80041e-22)
(0.0474084 -0.109422 -1.95091e-22)
(0.159579 -0.203688 1.27681e-21)
(0.30003 -0.226021 8.26546e-22)
(0.418303 -0.214892 1.87112e-22)
(0.521768 -0.18971 6.28312e-22)
(0.605904 -0.162908 -2.08501e-22)
(0.675727 -0.138754 9.16011e-23)
(0.733409 -0.118378 -6.70301e-22)
(0.781697 -0.101407 1.10398e-22)
(0.822438 -0.0871268 -3.31516e-22)
(0.0560356 -0.127093 -9.71747e-23)
(0.174913 -0.237231 0)
(0.316311 -0.263828 -3.11414e-23)
(0.433411 -0.251248 0)
(0.534845 -0.222069 -1.1529e-21)
(0.61698 -0.190837 8.953e-22)
(0.68505 -0.162614 0)
(0.741278 -0.138772 1.09989e-23)
(0.788376 -0.118894 0)
(0.828211 -0.102145 0)
(0.0658407 -0.143694 1.45921e-21)
(0.192421 -0.26908 1.35499e-22)
(0.334966 -0.300031 -7.97777e-22)
(0.450771 -0.286275 -1.70435e-22)
(0.549904 -0.253383 1.3631e-21)
(0.629753 -0.217938 6.3265e-22)
(0.695813 -0.185804 8.7367e-23)
(0.750369 -0.158613 -6.29069e-22)
(0.796098 -0.135916 1.06082e-22)
(0.834896 -0.116758 -7.71772e-23)
(0.0767088 -0.159091 -1.62683e-21)
(0.211932 -0.299014 1.02986e-21)
(0.355841 -0.334414 9.9969e-23)
(0.470264 -0.319792 -1.7431e-22)
(0.566856 -0.283508 -1.08673e-21)
(0.644155 -0.244098 -9.49707e-22)
(0.707963 -0.208234 8.48077e-23)
(0.760642 -0.177826 -9.47873e-23)
(0.80483 -0.15241 1.99435e-22)
(0.84247 -0.130908 -8.08247e-23)
(0.0885128 -0.173164 -1.3081e-21)
(0.233256 -0.326829 -1.01866e-21)
(0.378765 -0.366775 1.38751e-21)
(0.491754 -0.351625 1.66286e-22)
(0.585599 -0.312306 0)
(0.66011 -0.269207 0)
(0.721441 -0.229815 0)
(0.772052 -0.196338 1.97535e-21)
(0.814537 -0.168314 7.6202e-22)
(0.850908 -0.144543 -5.96527e-22)
(0.101114 -0.185806 2.53111e-21)
(0.256183 -0.352338 0)
(0.403547 -0.396926 -3.07906e-21)
(0.515091 -0.381613 -1.19309e-21)
(0.606021 -0.339648 0)
(0.677534 -0.293164 0)
(0.736184 -0.250465 1.19369e-21)
(0.78455 -0.214082 -9.7219e-22)
(0.82518 -0.183574 -7.62018e-22)
(0.860181 -0.157608 5.96527e-22)
(0.114365 -0.196926 -1.36171e-21)
(0.280488 -0.375375 1.16445e-22)
(0.429981 -0.424692 1.49285e-21)
(0.540112 -0.409603 1.33526e-21)
(0.628 -0.365413 -1.19108e-22)
(0.696336 -0.315873 -1.44352e-21)
(0.75212 -0.270109 -5.06905e-23)
(0.798081 -0.230996 -7.90614e-22)
(0.836717 -0.198136 -8.05521e-22)
(0.870257 -0.170057 5.58952e-22)
(0.128109 -0.20645 7.98874e-24)
(0.305929 -0.395793 -1.61558e-21)
(0.457844 -0.449919 -1.67183e-22)
(0.566637 -0.435458 -9.13234e-22)
(0.651403 -0.389487 -7.5018e-22)
(0.716414 -0.337244 -2.76079e-22)
(0.769174 -0.288675 -1.13482e-21)
(0.812586 -0.247023 1.0163e-21)
(0.849101 -0.211955 5.42535e-22)
(0.881102 -0.181844 -4.16592e-22)
(0.142183 -0.214318 0)
(0.332251 -0.41347 1.34011e-21)
(0.4869 -0.472469 1.52853e-22)
(0.594479 -0.45905 7.90741e-23)
(0.676088 -0.411768 8.5342e-22)
(0.737664 -0.357198 1.20551e-21)
(0.787263 -0.3061 -1.02485e-21)
(0.828002 -0.262109 1.08662e-22)
(0.862283 -0.224986 0)
(0.892675 -0.19293 0)