/*--------------------------------*- C++ -*----------------------------------*\
  =========                 |
  \\      /  F ield         | OpenFOAM: The Open Source CFD Toolbox
   \\    /   O peration     | Website:  https://openfoam.org
    \\  /    A nd           | Version:  9
     \\/     M anipulation  |
\*---------------------------------------------------------------------------*/
FoamFile
{
    format      ascii;
    class       volScalarField;
    location    "44.8";
    object      p;
}
// * * * * * * * * * * * * * * * * * * * * * * * * * * * * * * * * * * * * * //

dimensions      [0 2 -2 0 0 0 0];

internalField   nonuniform List<scalar> 
8500
(
-0.282818
-0.287031
-0.287868
-0.289616
-0.291701
-0.291947
-0.295701
-0.292077
-0.298249
-0.290935
-0.283083
-0.287235
-0.288065
-0.289782
-0.291899
-0.292042
-0.295998
-0.292013
-0.298662
-0.290822
-0.283606
-0.287637
-0.288453
-0.290106
-0.292288
-0.292219
-0.296584
-0.291867
-0.299484
-0.290595
-0.284373
-0.288226
-0.289018
-0.290572
-0.29285
-0.29246
-0.297438
-0.291611
-0.300702
-0.290249
-0.285367
-0.288987
-0.289743
-0.291159
-0.29356
-0.292738
-0.298525
-0.291208
-0.302293
-0.28978
-0.286564
-0.289902
-0.290604
-0.291841
-0.294383
-0.293026
-0.299793
-0.290622
-0.304216
-0.289171
-0.287938
-0.290949
-0.291576
-0.292587
-0.295275
-0.293303
-0.301165
-0.289823
-0.306416
-0.288362
-0.289464
-0.292106
-0.292631
-0.29337
-0.296185
-0.293553
-0.302546
-0.288801
-0.3088
-0.287345
-0.291114
-0.293353
-0.29374
-0.294164
-0.297055
-0.293773
-0.303821
-0.287627
-0.310931
-0.286326
-0.292866
-0.29467
-0.294875
-0.294947
-0.297829
-0.29398
-0.304771
-0.286532
-0.312731
-0.284931
-0.2947
-0.296042
-0.296012
-0.295704
-0.298447
-0.294258
-0.305263
-0.28541
-0.314159
-0.283315
-0.296604
-0.297458
-0.297132
-0.296427
-0.298808
-0.294653
-0.30531
-0.284332
-0.314807
-0.281955
-0.298571
-0.298911
-0.298223
-0.297132
-0.298934
-0.295037
-0.304911
-0.28362
-0.31413
-0.281407
-0.300605
-0.300401
-0.299277
-0.297799
-0.298879
-0.295356
-0.304001
-0.283435
-0.311734
-0.281699
-0.302718
-0.301936
-0.300307
-0.298406
-0.29869
-0.29559
-0.302642
-0.2837
-0.307598
-0.282031
-0.304934
-0.303522
-0.301349
-0.298961
-0.298419
-0.295547
-0.300958
-0.284047
-0.302222
-0.281305
-0.307289
-0.305182
-0.302433
-0.299493
-0.29814
-0.295188
-0.299039
-0.284089
-0.29625
-0.278999
-0.309821
-0.306945
-0.303593
-0.300043
-0.297915
-0.294532
-0.296853
-0.283631
-0.289939
-0.275129
-0.312581
-0.308848
-0.304873
-0.300648
-0.297749
-0.293692
-0.294309
-0.2826
-0.283219
-0.270114
-0.315624
-0.31093
-0.306323
-0.301332
-0.297603
-0.292787
-0.291384
-0.280856
-0.276136
-0.264735
-0.319006
-0.313242
-0.307995
-0.302097
-0.297448
-0.291856
-0.288153
-0.278172
-0.269306
-0.25948
-0.322769
-0.315853
-0.309927
-0.302928
-0.29732
-0.290839
-0.284698
-0.274494
-0.263175
-0.252957
-0.32699
-0.318814
-0.312125
-0.303833
-0.297274
-0.289615
-0.281051
-0.270089
-0.257022
-0.246215
-0.331732
-0.322189
-0.314551
-0.304895
-0.297305
-0.288076
-0.27721
-0.265091
-0.250867
-0.239428
-0.337057
-0.326032
-0.317155
-0.306243
-0.297324
-0.286164
-0.27313
-0.259702
-0.244597
-0.232551
-0.343032
-0.330353
-0.31994
-0.307954
-0.297209
-0.283851
-0.268789
-0.254013
-0.23819
-0.22565
-0.349731
-0.335105
-0.323018
-0.309951
-0.296859
-0.281132
-0.26417
-0.248087
-0.231645
-0.218658
-0.357225
-0.34019
-0.326593
-0.312031
-0.296198
-0.278013
-0.259265
-0.241947
-0.224949
-0.211574
-0.365556
-0.345505
-0.330849
-0.313979
-0.295154
-0.274496
-0.254064
-0.235596
-0.218097
-0.204357
-0.3747
-0.350989
-0.335829
-0.315641
-0.293659
-0.270575
-0.248558
-0.229022
-0.211071
-0.196989
-0.38454
-0.356654
-0.341353
-0.31692
-0.291649
-0.266233
-0.242729
-0.222209
-0.203853
-0.189442
-0.39485
-0.362577
-0.347034
-0.317739
-0.289071
-0.261438
-0.236554
-0.215134
-0.196418
-0.181695
-0.4053
-0.368856
-0.352385
-0.318007
-0.285881
-0.256156
-0.230004
-0.207773
-0.188745
-0.173727
-0.415572
-0.375554
-0.356947
-0.317612
-0.28204
-0.250349
-0.223049
-0.200099
-0.180811
-0.165519
-0.42536
-0.382635
-0.360366
-0.316422
-0.277506
-0.243982
-0.215654
-0.192082
-0.172594
-0.157053
-0.434408
-0.389927
-0.362422
-0.3143
-0.272233
-0.237022
-0.207789
-0.183696
-0.164073
-0.148314
-0.442513
-0.397106
-0.363012
-0.311119
-0.26617
-0.229436
-0.199421
-0.174916
-0.155228
-0.139287
-0.449516
-0.403716
-0.362121
-0.306781
-0.259264
-0.22119
-0.190524
-0.165718
-0.146041
-0.129966
-0.455288
-0.409232
-0.359777
-0.301216
-0.251461
-0.212251
-0.181072
-0.156082
-0.136496
-0.120361
-0.45972
-0.413176
-0.355961
-0.294376
-0.242713
-0.202586
-0.171042
-0.14599
-0.126582
-0.110497
-0.462713
-0.415214
-0.350552
-0.286216
-0.232976
-0.192165
-0.160414
-0.135425
-0.116288
-0.100391
-0.464158
-0.415066
-0.343458
-0.276692
-0.222217
-0.180965
-0.149175
-0.124374
-0.105604
-0.0900214
-0.463926
-0.412532
-0.334617
-0.265765
-0.210407
-0.168965
-0.137309
-0.112823
-0.0945403
-0.0793263
-0.461859
-0.407474
-0.323984
-0.253412
-0.197526
-0.156151
-0.124805
-0.100763
-0.08314
-0.0682258
-0.457771
-0.399804
-0.311509
-0.239632
-0.183563
-0.14251
-0.111649
-0.0881963
-0.071449
-0.0566971
-0.451454
-0.389462
-0.297154
-0.224429
-0.168503
-0.128036
-0.0978501
-0.0751622
-0.0594427
-0.0448729
-0.442693
-0.376413
-0.280897
-0.207801
-0.152331
-0.112752
-0.0834465
-0.0617416
-0.0470085
-0.032845
-0.431275
-0.36064
-0.262732
-0.189747
-0.135055
-0.0967218
-0.0685022
-0.0479126
-0.0341551
-0.0206194
-0.417009
-0.342142
-0.242652
-0.170288
-0.116761
-0.080003
-0.0529753
-0.0336849
-0.0209286
-0.00820267
-0.399733
-0.320939
-0.220646
-0.149511
-0.0975996
-0.0624974
-0.0369066
-0.0190719
-0.00737683
0.00439162
-0.379331
-0.297086
-0.196714
-0.127567
-0.0775117
-0.0442601
-0.0203363
-0.00409821
0.00645723
0.0171368
-0.355735
-0.270714
-0.170939
-0.10443
-0.0565413
-0.0253506
-0.00330824
0.0112037
0.0205323
0.0299963
-0.328934
-0.241988
-0.14351
-0.0800137
-0.034747
-0.00583533
0.01413
0.0267942
0.0348085
0.0429259
-0.298976
-0.210941
-0.114563
-0.0544365
-0.0121959
0.0142157
0.031924
0.0426293
0.0492494
0.055881
-0.265979
-0.177309
-0.0844918
-0.0278415
0.0110375
0.0347275
0.0500134
0.0586636
0.0638236
0.0688179
-0.23012
-0.1414
-0.0532454
-0.000378712
0.0348669
0.0556201
0.0683332
0.0748556
0.078499
0.0816662
-0.1915
-0.10362
-0.0208757
0.0278056
0.059192
0.0768084
0.0868182
0.0911714
0.0932201
0.0942523
-0.150083
-0.0646031
0.0124874
0.0565688
0.0839019
0.0982027
0.105406
0.107578
0.107874
0.10624
-0.106355
-0.0245077
0.0466646
0.0857681
0.108877
0.11971
0.124037
0.124015
0.122287
0.11734
-0.0606762
0.0164746
0.0814515
0.115254
0.133992
0.141235
0.142641
0.140372
0.136296
0.127871
-0.0134245
0.0581067
0.116629
0.144871
0.159116
0.162681
0.161136
0.15651
0.149847
0.139148
0.0349975
0.100125
0.151967
0.174454
0.184115
0.183946
0.179423
0.172317
0.163145
0.150956
0.0841708
0.142248
0.187231
0.203834
0.208853
0.204926
0.197408
0.18776
0.176235
0.162807
0.133665
0.184183
0.222185
0.232836
0.233193
0.225511
0.214995
0.202793
0.189065
0.174523
0.183041
0.225632
0.25659
0.261285
0.256997
0.245591
0.232096
0.21737
0.201562
0.185923
0.23186
0.266293
0.29021
0.289003
0.280125
0.265057
0.248625
0.231433
0.213659
0.196912
0.279685
0.305868
0.322813
0.315817
0.302443
0.283798
0.264498
0.24492
0.225287
0.207409
0.326087
0.344064
0.354172
0.341552
0.323814
0.30171
0.279634
0.257767
0.236384
0.217357
0.370644
0.380602
0.384069
0.366042
0.34411
0.318689
0.293952
0.269911
0.246888
0.226704
0.412949
0.41522
0.412296
0.389125
0.363204
0.334636
0.307377
0.281291
0.256743
0.235409
0.452625
0.447663
0.438654
0.410646
0.380978
0.349456
0.319835
0.291848
0.265893
0.243434
0.489374
0.477642
0.462953
0.430459
0.397318
0.363063
0.331257
0.301527
0.274287
0.250743
0.522898
0.5049
0.485019
0.448429
0.412121
0.375374
0.341582
0.310274
0.281877
0.257307
0.552908
0.529221
0.504691
0.464432
0.425291
0.386315
0.350749
0.318041
0.28862
0.263099
0.57914
0.55042
0.521826
0.478359
0.436743
0.395821
0.358708
0.324785
0.294476
0.268099
0.601363
0.568335
0.5363
0.490114
0.446404
0.403833
0.365412
0.330467
0.29941
0.272287
0.619382
0.582831
0.548007
0.499616
0.454209
0.410303
0.370823
0.335053
0.303393
0.275651
0.633037
0.5938
0.556863
0.506801
0.460109
0.415191
0.374909
0.338516
0.306402
0.27818
0.642207
0.601159
0.562803
0.511618
0.464063
0.418466
0.377646
0.340837
0.308418
0.279869
0.646813
0.604852
0.565784
0.514035
0.466047
0.420108
0.379019
0.342
0.309429
0.280714
0.646813
0.604852
0.565784
0.514035
0.466047
0.420108
0.379019
0.342
0.309429
0.280714
0.642207
0.601159
0.562803
0.511618
0.464063
0.418466
0.377646
0.340837
0.308418
0.279869
0.633037
0.5938
0.556863
0.506801
0.460109
0.415191
0.374909
0.338516
0.306402
0.27818
0.619382
0.582831
0.548007
0.499616
0.45421
0.410303
0.370823
0.335053
0.303393
0.275651
0.601363
0.568335
0.5363
0.490114
0.446404
0.403834
0.365412
0.330467
0.29941
0.272287
0.57914
0.55042
0.521826
0.478359
0.436744
0.395821
0.358708
0.324785
0.294476
0.268099
0.552908
0.529222
0.504691
0.464432
0.425291
0.386315
0.350749
0.318041
0.28862
0.263099
0.522899
0.5049
0.485019
0.448429
0.412121
0.375374
0.341582
0.310274
0.281877
0.257307
0.489374
0.477642
0.462953
0.430459
0.397318
0.363063
0.331258
0.301527
0.274287
0.250743
0.452626
0.447663
0.438654
0.410646
0.380978
0.349456
0.319835
0.291849
0.265893
0.243434
0.412949
0.415221
0.412296
0.389125
0.363205
0.334636
0.307377
0.281292
0.256743
0.23541
0.370645
0.380602
0.38407
0.366042
0.34411
0.318689
0.293952
0.269911
0.246889
0.226705
0.326087
0.344064
0.354173
0.341552
0.323814
0.30171
0.279634
0.257767
0.236384
0.217357
0.279685
0.305869
0.322814
0.315817
0.302443
0.283799
0.264499
0.24492
0.225287
0.20741
0.23186
0.266294
0.290211
0.289004
0.280126
0.265057
0.248626
0.231433
0.213659
0.196912
0.183041
0.225632
0.25659
0.261285
0.256997
0.245592
0.232097
0.21737
0.201562
0.185923
0.133665
0.184184
0.222185
0.232837
0.233194
0.225511
0.214995
0.202794
0.189066
0.174523
0.0841714
0.142249
0.187232
0.203834
0.208854
0.204926
0.197408
0.18776
0.176235
0.162807
0.0349982
0.100126
0.151967
0.174455
0.184115
0.183946
0.179424
0.172317
0.163145
0.150957
-0.0134238
0.0581073
0.116629
0.144871
0.159116
0.162681
0.161136
0.15651
0.149848
0.139149
-0.0606755
0.0164752
0.081452
0.115255
0.133992
0.141236
0.142642
0.140373
0.136296
0.127871
-0.106355
-0.0245071
0.0466651
0.0857686
0.108878
0.119711
0.124037
0.124015
0.122287
0.11734
-0.150082
-0.0646024
0.012488
0.0565693
0.0839024
0.0982032
0.105407
0.107578
0.107875
0.10624
-0.191499
-0.10362
-0.0208751
0.0278061
0.0591925
0.0768089
0.0868186
0.0911718
0.0932205
0.0942527
-0.230119
-0.141399
-0.0532447
-0.000378154
0.0348674
0.0556206
0.0683336
0.074856
0.0784994
0.0816666
-0.265978
-0.177309
-0.0844912
-0.0278409
0.0110381
0.034728
0.0500139
0.058664
0.063824
0.0688183
-0.298975
-0.21094
-0.114562
-0.0544359
-0.0121954
0.0142162
0.0319245
0.0426297
0.0492498
0.0558814
-0.328933
-0.241987
-0.143509
-0.0800131
-0.0347464
-0.0058348
0.0141305
0.0267947
0.034809
0.0429263
-0.355735
-0.270713
-0.170938
-0.104429
-0.0565407
-0.0253501
-0.00330773
0.0112042
0.0205328
0.0299968
-0.37933
-0.297085
-0.196713
-0.127566
-0.077511
-0.0442595
-0.0203358
-0.00409771
0.0064577
0.0171373
-0.399732
-0.320938
-0.220645
-0.14951
-0.097599
-0.0624968
-0.036906
-0.0190714
-0.00737635
0.00439208
-0.417008
-0.342142
-0.242652
-0.170288
-0.11676
-0.0800024
-0.0529747
-0.0336843
-0.0209281
-0.00820221
-0.431274
-0.360639
-0.262731
-0.189747
-0.135054
-0.0967212
-0.0685017
-0.047912
-0.0341546
-0.0206189
-0.442692
-0.376412
-0.280897
-0.2078
-0.15233
-0.112751
-0.0834459
-0.061741
-0.047008
-0.0328445
-0.451453
-0.389461
-0.297153
-0.224428
-0.168502
-0.128035
-0.0978495
-0.0751617
-0.0594421
-0.0448724
-0.45777
-0.399803
-0.311508
-0.239631
-0.183562
-0.142509
-0.111649
-0.0881957
-0.0714484
-0.0566966
-0.461858
-0.407474
-0.323983
-0.253412
-0.197526
-0.15615
-0.124804
-0.100762
-0.0831394
-0.0682253
-0.463925
-0.412531
-0.334616
-0.265765
-0.210406
-0.168964
-0.137309
-0.112822
-0.0945397
-0.0793257
-0.464157
-0.415065
-0.343457
-0.276691
-0.222216
-0.180964
-0.149174
-0.124373
-0.105603
-0.0900208
-0.462712
-0.415213
-0.350551
-0.286215
-0.232976
-0.192165
-0.160414
-0.135425
-0.116287
-0.100391
-0.459719
-0.413175
-0.35596
-0.294375
-0.242712
-0.202585
-0.171041
-0.14599
-0.126582
-0.110496
-0.455287
-0.409231
-0.359776
-0.301215
-0.251461
-0.212251
-0.181071
-0.156082
-0.136496
-0.120361
-0.449515
-0.403715
-0.36212
-0.30678
-0.259263
-0.22119
-0.190524
-0.165717
-0.14604
-0.129965
-0.442512
-0.397105
-0.363011
-0.311119
-0.26617
-0.229435
-0.199421
-0.174915
-0.155227
-0.139286
-0.434407
-0.389926
-0.362421
-0.314299
-0.272232
-0.237021
-0.207788
-0.183696
-0.164072
-0.148313
-0.425359
-0.382634
-0.360365
-0.316421
-0.277505
-0.243981
-0.215653
-0.192081
-0.172593
-0.157053
-0.415571
-0.375553
-0.356946
-0.317611
-0.282039
-0.250348
-0.223048
-0.200098
-0.18081
-0.165518
-0.4053
-0.368855
-0.352385
-0.318006
-0.28588
-0.256156
-0.230003
-0.207772
-0.188744
-0.173726
-0.39485
-0.362576
-0.347033
-0.317738
-0.28907
-0.261438
-0.236553
-0.215133
-0.196417
-0.181695
-0.384539
-0.356653
-0.341352
-0.316919
-0.291648
-0.266232
-0.242728
-0.222208
-0.203852
-0.189442
-0.374699
-0.350988
-0.335828
-0.31564
-0.293658
-0.270574
-0.248557
-0.229021
-0.21107
-0.196988
-0.365556
-0.345504
-0.330849
-0.313978
-0.295153
-0.274495
-0.254063
-0.235595
-0.218096
-0.204356
-0.357224
-0.340189
-0.326592
-0.31203
-0.296197
-0.278012
-0.259264
-0.241946
-0.224948
-0.211573
-0.34973
-0.335104
-0.323018
-0.30995
-0.296858
-0.281131
-0.264169
-0.248086
-0.231644
-0.218657
-0.343031
-0.330352
-0.319939
-0.307953
-0.297208
-0.28385
-0.268788
-0.254012
-0.238188
-0.225649
-0.337056
-0.326031
-0.317155
-0.306243
-0.297323
-0.286163
-0.273129
-0.2597
-0.244596
-0.23255
-0.331731
-0.322188
-0.314551
-0.304894
-0.297304
-0.288075
-0.277209
-0.26509
-0.250865
-0.239427
-0.32699
-0.318813
-0.312124
-0.303832
-0.297273
-0.289613
-0.281049
-0.270087
-0.25702
-0.246214
-0.322769
-0.315852
-0.309926
-0.302927
-0.297319
-0.290838
-0.284697
-0.274493
-0.263173
-0.252956
-0.319005
-0.313241
-0.307994
-0.302096
-0.297448
-0.291855
-0.288152
-0.27817
-0.269304
-0.259478
-0.315623
-0.310929
-0.306322
-0.301332
-0.297602
-0.292786
-0.291383
-0.280854
-0.276134
-0.264733
-0.31258
-0.308847
-0.304872
-0.300647
-0.297748
-0.293691
-0.294307
-0.282598
-0.283217
-0.270112
-0.30982
-0.306944
-0.303592
-0.300042
-0.297914
-0.294531
-0.296852
-0.283628
-0.289936
-0.275126
-0.307288
-0.305181
-0.302432
-0.299492
-0.298139
-0.295186
-0.299038
-0.284086
-0.296247
-0.278996
-0.304933
-0.303522
-0.301349
-0.29896
-0.298418
-0.295545
-0.300957
-0.284044
-0.302219
-0.281302
-0.302717
-0.301935
-0.300306
-0.298406
-0.298689
-0.295589
-0.30264
-0.283697
-0.307595
-0.282027
-0.300605
-0.3004
-0.299277
-0.297798
-0.298878
-0.295354
-0.303999
-0.283433
-0.311731
-0.281696
-0.298571
-0.29891
-0.298222
-0.297131
-0.298933
-0.295036
-0.30491
-0.283617
-0.314127
-0.281403
-0.296603
-0.297457
-0.297131
-0.296426
-0.298807
-0.294652
-0.305309
-0.28433
-0.314804
-0.281951
-0.294699
-0.296042
-0.296012
-0.295703
-0.298446
-0.294257
-0.305261
-0.285408
-0.314155
-0.283311
-0.292865
-0.29467
-0.294875
-0.294946
-0.297828
-0.293978
-0.304769
-0.286529
-0.312728
-0.284927
-0.291113
-0.293352
-0.293739
-0.294163
-0.297054
-0.293772
-0.303819
-0.287625
-0.310928
-0.286322
-0.289463
-0.292106
-0.292631
-0.293369
-0.296184
-0.293552
-0.302545
-0.288799
-0.308798
-0.287341
-0.287938
-0.290948
-0.291576
-0.292587
-0.295274
-0.293302
-0.301163
-0.289822
-0.306413
-0.288359
-0.286563
-0.289901
-0.290604
-0.29184
-0.294382
-0.293025
-0.299792
-0.29062
-0.304214
-0.289169
-0.285366
-0.288987
-0.289742
-0.291159
-0.293559
-0.292737
-0.298524
-0.291207
-0.302291
-0.289778
-0.284373
-0.288226
-0.289018
-0.290572
-0.292849
-0.292459
-0.297437
-0.29161
-0.3007
-0.290247
-0.283605
-0.287637
-0.288453
-0.290105
-0.292287
-0.292219
-0.296583
-0.291866
-0.299483
-0.290593
-0.283083
-0.287235
-0.288065
-0.289781
-0.291899
-0.292041
-0.295998
-0.292012
-0.298662
-0.290821
-0.282818
-0.287031
-0.287868
-0.289615
-0.291701
-0.291947
-0.295701
-0.292077
-0.298249
-0.290934
-0.298273
-0.288657
-0.289584
-0.281544
-0.277247
-0.268414
-0.260379
-0.249489
-0.238068
-0.224463
-0.209703
-0.193294
-0.175555
-0.157108
-0.137713
-0.119056
-0.100443
-0.083941
-0.0686596
-0.05593
-0.0450952
-0.0362259
-0.029422
-0.0232335
-0.0191674
-0.0144179
-0.0123293
-0.00781923
-0.00595936
-0.000796653
-0.298514
-0.288794
-0.289684
-0.281666
-0.277348
-0.268528
-0.26049
-0.249607
-0.238187
-0.224587
-0.209828
-0.193422
-0.17568
-0.157229
-0.137824
-0.119157
-0.100529
-0.0840126
-0.0687204
-0.0559803
-0.045139
-0.0362624
-0.0294538
-0.0232578
-0.0191864
-0.0144317
-0.0123428
-0.00783243
-0.00597214
-0.000806265
-0.298966
-0.28905
-0.289879
-0.281897
-0.277552
-0.26875
-0.260707
-0.249838
-0.238421
-0.224831
-0.210074
-0.193672
-0.175923
-0.157465
-0.138042
-0.119355
-0.1007
-0.0841586
-0.0688454
-0.0560834
-0.0452272
-0.0363343
-0.0295156
-0.0233056
-0.0192249
-0.0144606
-0.0123707
-0.00785899
-0.00599706
-0.000825064
-0.299583
-0.289394
-0.290151
-0.282222
-0.277825
-0.26907
-0.261019
-0.250172
-0.23876
-0.225184
-0.210432
-0.194033
-0.176275
-0.157808
-0.138359
-0.119644
-0.100958
-0.084378
-0.0690346
-0.0562402
-0.0453611
-0.0364429
-0.0296084
-0.0233781
-0.0192835
-0.0145054
-0.0124126
-0.00789871
-0.00603317
-0.000852499
-0.300294
-0.289771
-0.290482
-0.282607
-0.278188
-0.269463
-0.261412
-0.250591
-0.23919
-0.225632
-0.210885
-0.194496
-0.176729
-0.158249
-0.138767
-0.120021
-0.101296
-0.0846695
-0.0692884
-0.0564522
-0.0455423
-0.0365903
-0.0297336
-0.0234767
-0.0193632
-0.014567
-0.0124685
-0.00795122
-0.00607915
-0.000887801
-0.301016
-0.290162
-0.290829
-0.283043
-0.278572
-0.26992
-0.261856
-0.251083
-0.239691
-0.226161
-0.211424
-0.195042
-0.177262
-0.158772
-0.139265
-0.120479
-0.10171
-0.085032
-0.0696071
-0.0567209
-0.0457727
-0.0367785
-0.0298927
-0.0236031
-0.0194648
-0.0146466
-0.0125379
-0.00801606
-0.00613338
-0.000930042
-0.301721
-0.290435
-0.291195
-0.283454
-0.279
-0.270385
-0.262359
-0.251609
-0.240249
-0.226742
-0.212018
-0.195655
-0.177874
-0.159372
-0.139836
-0.121011
-0.102199
-0.0854642
-0.0699918
-0.0570481
-0.0460546
-0.03701
-0.0300874
-0.0237591
-0.0195895
-0.0147452
-0.0126205
-0.0080926
-0.00619408
-0.000978198
-0.302144
-0.290748
-0.291437
-0.283892
-0.279366
-0.270888
-0.262834
-0.25218
-0.240823
-0.227374
-0.212662
-0.196322
-0.178538
-0.160032
-0.140473
-0.121612
-0.10276
-0.0859651
-0.0704431
-0.0574357
-0.0463903
-0.0372872
-0.0303196
-0.0239462
-0.0197382
-0.0148638
-0.0127157
-0.00818012
-0.00625941
-0.00103121
-0.302199
-0.291016
-0.291521
-0.284292
-0.279673
-0.271361
-0.263307
-0.25274
-0.241409
-0.228016
-0.213328
-0.197021
-0.179245
-0.160741
-0.141169
-0.122276
-0.103389
-0.0865342
-0.070962
-0.0578852
-0.0467818
-0.037612
-0.0305907
-0.0241659
-0.0199115
-0.0150029
-0.0128229
-0.00827774
-0.0063276
-0.00108803
-0.301863
-0.291136
-0.291464
-0.284576
-0.279908
-0.271768
-0.263728
-0.253273
-0.241974
-0.228656
-0.213998
-0.197737
-0.179979
-0.161489
-0.141914
-0.122997
-0.104083
-0.0871706
-0.0715489
-0.058398
-0.0472305
-0.0379862
-0.0309018
-0.024419
-0.0201099
-0.0151628
-0.0129413
-0.00838456
-0.006397
-0.00114767
-0.30085
-0.291108
-0.291181
-0.284717
-0.280003
-0.272082
-0.264077
-0.253748
-0.242495
-0.229266
-0.214653
-0.198452
-0.180727
-0.162264
-0.142701
-0.123769
-0.104841
-0.087873
-0.0722036
-0.0589745
-0.047737
-0.0384103
-0.0312534
-0.024706
-0.0203335
-0.0153435
-0.0130703
-0.00849958
-0.00646619
-0.00120923
-0.29897
-0.290827
-0.290629
-0.284654
-0.279958
-0.272238
-0.264309
-0.254129
-0.242946
-0.229825
-0.215273
-0.19915
-0.181476
-0.163055
-0.143524
-0.124589
-0.105659
-0.0886399
-0.0729251
-0.0596142
-0.0483011
-0.0388844
-0.0316454
-0.0250266
-0.020582
-0.0155443
-0.0132089
-0.00862185
-0.00653405
-0.0012719
-0.296248
-0.290144
-0.289777
-0.284295
-0.279662
-0.272238
-0.264412
-0.254394
-0.243305
-0.230309
-0.21584
-0.199816
-0.182214
-0.163855
-0.144375
-0.125452
-0.106532
-0.0894686
-0.0737112
-0.0603155
-0.0489215
-0.0394074
-0.032077
-0.02538
-0.0208546
-0.0157646
-0.0133564
-0.00875042
-0.00659971
-0.001335
-0.29308
-0.288864
-0.288525
-0.283627
-0.279156
-0.271942
-0.264295
-0.2545
-0.243541
-0.230699
-0.216339
-0.200435
-0.18293
-0.164655
-0.145249
-0.126352
-0.107458
-0.090356
-0.0745589
-0.0610758
-0.0495957
-0.0399772
-0.0325465
-0.0257648
-0.0211503
-0.0160031
-0.0135121
-0.00888442
-0.00666264
-0.00139794
-0.289703
-0.28692
-0.286819
-0.282565
-0.27834
-0.271527
-0.264022
-0.254448
-0.243639
-0.230978
-0.216754
-0.200998
-0.183617
-0.165449
-0.146139
-0.127286
-0.108431
-0.0912977
-0.0754637
-0.0618911
-0.0503202
-0.0405909
-0.0330517
-0.026179
-0.0214676
-0.0162586
-0.0136752
-0.00902306
-0.00672258
-0.00146027
-0.286035
-0.284389
-0.284585
-0.281038
-0.277095
-0.270542
-0.263391
-0.254158
-0.243567
-0.231131
-0.217078
-0.201498
-0.184268
-0.166231
-0.147042
-0.128248
-0.109447
-0.0922886
-0.0764204
-0.0627566
-0.0510907
-0.041245
-0.03359
-0.0266202
-0.0218047
-0.0165296
-0.013845
-0.00916564
-0.0067795
-0.00152164
-0.28221
-0.28123
-0.281841
-0.279113
-0.275651
-0.269735
-0.262689
-0.253726
-0.243348
-0.231154
-0.217302
-0.201927
-0.184878
-0.166998
-0.147952
-0.129236
-0.1105
-0.0933245
-0.0774244
-0.0636677
-0.0519027
-0.0419352
-0.0341577
-0.0270856
-0.0221596
-0.0168141
-0.0140209
-0.00931147
-0.0068336
-0.00158181
-0.27817
-0.277534
-0.278511
-0.27657
-0.273552
-0.268032
-0.261375
-0.252946
-0.242918
-0.23104
-0.217438
-0.202302
-0.185461
-0.167757
-0.148872
-0.130246
-0.111583
-0.0943945
-0.0784634
-0.0646133
-0.0527465
-0.0426542
-0.0347497
-0.0275712
-0.0225298
-0.0171106
-0.0142025
-0.00946041
-0.00688547
-0.00164081
-0.27396
-0.273563
-0.275043
-0.274013
-0.271605
-0.266717
-0.260502
-0.252185
-0.242391
-0.230797
-0.217449
-0.202565
-0.185958
-0.168456
-0.149759
-0.131247
-0.112677
-0.0954891
-0.0795368
-0.0655966
-0.0536289
-0.043408
-0.0353722
-0.0280814
-0.0229189
-0.017421
-0.014391
-0.0096132
-0.00693569
-0.00169842
-0.270002
-0.268797
-0.270323
-0.270132
-0.268412
-0.264204
-0.258251
-0.250865
-0.24162
-0.230489
-0.217513
-0.202964
-0.18664
-0.169363
-0.150858
-0.132449
-0.113952
-0.0967377
-0.0807304
-0.0666712
-0.0545737
-0.0442058
-0.0360207
-0.0286091
-0.023316
-0.0177362
-0.0145793
-0.00976357
-0.00698178
-0.00175277
-0.264835
-0.265071
-0.266814
-0.26725
-0.266023
-0.262429
-0.257323
-0.249579
-0.240481
-0.229562
-0.216792
-0.202452
-0.186342
-0.169262
-0.15096
-0.132714
-0.114373
-0.097253
-0.0813161
-0.0672687
-0.0551551
-0.0447388
-0.0364825
-0.0290057
-0.0236274
-0.0179922
-0.0147367
-0.00988943
-0.00701899
-0.00179962
-0.259187
-0.260219
-0.262162
-0.263116
-0.262249
-0.258945
-0.253686
-0.246903
-0.238251
-0.227697
-0.215257
-0.20123
-0.185434
-0.168642
-0.150638
-0.132639
-0.114536
-0.0975773
-0.0817662
-0.0677722
-0.0556718
-0.045229
-0.0369122
-0.0293804
-0.0239187
-0.0182348
-0.0148787
-0.0100041
-0.0070464
-0.00184084
-0.25327
-0.254918
-0.257114
-0.258631
-0.258239
-0.255436
-0.250867
-0.244252
-0.235903
-0.225691
-0.213577
-0.19987
-0.1844
-0.167912
-0.150226
-0.132491
-0.114644
-0.0978637
-0.0821934
-0.068265
-0.0561866
-0.0457238
-0.0373484
-0.0297639
-0.0242161
-0.0184842
-0.0150213
-0.0101197
-0.00706991
-0.00188147
-0.247105
-0.249396
-0.251872
-0.253927
-0.25403
-0.251736
-0.247542
-0.24138
-0.233403
-0.223559
-0.211798
-0.198434
-0.183315
-0.16715
-0.149798
-0.132341
-0.114761
-0.0981667
-0.0826424
-0.0687821
-0.0567263
-0.0462427
-0.0378063
-0.0301666
-0.0245285
-0.0187459
-0.0151706
-0.0102405
-0.00709329
-0.0019228
-0.240643
-0.243682
-0.246456
-0.249007
-0.249604
-0.247797
-0.24403
-0.238312
-0.230736
-0.221286
-0.209904
-0.196908
-0.182162
-0.166342
-0.149342
-0.132179
-0.11488
-0.0984804
-0.083109
-0.0693213
-0.0572898
-0.0467855
-0.038286
-0.030589
-0.0248563
-0.0190205
-0.0153273
-0.010367
-0.00711717
-0.00196488
-0.233929
-0.2378
-0.24089
-0.243895
-0.244984
-0.243667
-0.240351
-0.235082
-0.227919
-0.21888
-0.207901
-0.195292
-0.18094
-0.165482
-0.148851
-0.131998
-0.114991
-0.0987976
-0.0835867
-0.0698769
-0.0578725
-0.0473486
-0.0387849
-0.0310291
-0.0251981
-0.0193068
-0.0154906
-0.0104987
-0.00714154
-0.00200748
-0.227036
-0.231781
-0.23521
-0.238633
-0.240211
-0.239388
-0.236525
-0.231711
-0.224976
-0.216362
-0.205801
-0.193596
-0.179654
-0.164575
-0.148329
-0.131798
-0.115094
-0.0991159
-0.0840724
-0.0704459
-0.0584714
-0.0479296
-0.0393009
-0.0314854
-0.0255527
-0.0196042
-0.0156604
-0.0106356
-0.0071667
-0.00205048
-0.220018
-0.22565
-0.229446
-0.233256
-0.235316
-0.234988
-0.232579
-0.228221
-0.221927
-0.213748
-0.203618
-0.19183
-0.178313
-0.163626
-0.147775
-0.131578
-0.115187
-0.0994334
-0.0845635
-0.0710259
-0.059084
-0.0485263
-0.0398323
-0.0319565
-0.0259192
-0.0199119
-0.0158364
-0.0107774
-0.00719302
-0.00209377
-0.212923
-0.219433
-0.22362
-0.227792
-0.230321
-0.230487
-0.228534
-0.224635
-0.218787
-0.211052
-0.201365
-0.190004
-0.176923
-0.162639
-0.147194
-0.131341
-0.115269
-0.0997477
-0.0850571
-0.0716138
-0.0597076
-0.0491363
-0.0403771
-0.0324408
-0.0262965
-0.020229
-0.0160184
-0.0109241
-0.00722091
-0.00213724
-0.205801
-0.21315
-0.217753
-0.222265
-0.225247
-0.225903
-0.224409
-0.220969
-0.215573
-0.208287
-0.199051
-0.188127
-0.175489
-0.161617
-0.146585
-0.131084
-0.115338
-0.100057
-0.0855504
-0.0722068
-0.0603393
-0.0497571
-0.0409332
-0.0329366
-0.0266833
-0.0205545
-0.016206
-0.0110753
-0.00725073
-0.00218075
-0.198697
-0.206829
-0.211866
-0.216698
-0.220113
-0.221254
-0.220221
-0.217238
-0.212297
-0.205466
-0.196686
-0.186205
-0.174018
-0.160565
-0.14595
-0.130809
-0.115393
-0.100358
-0.0860406
-0.0728018
-0.060976
-0.050386
-0.0414982
-0.033442
-0.0270782
-0.0208874
-0.016399
-0.0112308
-0.00728283
-0.00222416
-0.191655
-0.200496
-0.205978
-0.211117
-0.214938
-0.216555
-0.215983
-0.213456
-0.208972
-0.202597
-0.194279
-0.184247
-0.172514
-0.159486
-0.145292
-0.130515
-0.115434
-0.10065
-0.0865249
-0.0733961
-0.0616149
-0.0510204
-0.04207
-0.0339551
-0.0274798
-0.0212265
-0.0165968
-0.01139
-0.00731749
-0.00226728
-0.18472
-0.19418
-0.200112
-0.205546
-0.209745
-0.211824
-0.211711
-0.209636
-0.205608
-0.199692
-0.191839
-0.182257
-0.170982
-0.158383
-0.144612
-0.130204
-0.115458
-0.100931
-0.0870009
-0.073987
-0.0622532
-0.0516577
-0.0426461
-0.0344738
-0.0278866
-0.0215706
-0.016799
-0.0115527
-0.00735495
-0.00230992
-0.177931
-0.187913
-0.194289
-0.200008
-0.204555
-0.207077
-0.207421
-0.205793
-0.20222
-0.19676
-0.189372
-0.180245
-0.169427
-0.157259
-0.143911
-0.129875
-0.115465
-0.101199
-0.0874663
-0.0745717
-0.0628881
-0.0522951
-0.0432242
-0.0349962
-0.0282972
-0.0219184
-0.0170048
-0.0117181
-0.00739536
-0.00235189
-0.171326
-0.181724
-0.188532
-0.194527
-0.199392
-0.202334
-0.203127
-0.201942
-0.198819
-0.193814
-0.18689
-0.178215
-0.167854
-0.156118
-0.143193
-0.12953
-0.115456
-0.101453
-0.0879191
-0.0751478
-0.0635168
-0.0529299
-0.0438018
-0.03552
-0.0287097
-0.0222684
-0.0172137
-0.0118856
-0.00743883
-0.00239296
-0.164936
-0.175648
-0.182865
-0.189127
-0.194281
-0.197618
-0.198849
-0.1981
-0.19542
-0.190864
-0.184401
-0.176178
-0.166271
-0.154966
-0.142459
-0.129169
-0.11543
-0.101691
-0.0883571
-0.0757125
-0.0641366
-0.0535594
-0.0443764
-0.0360429
-0.0291224
-0.0226192
-0.0174248
-0.0120544
-0.00748533
-0.00243288
-0.15879
-0.169718
-0.177313
-0.183833
-0.189249
-0.19295
-0.194606
-0.194284
-0.192038
-0.187925
-0.181916
-0.174142
-0.164683
-0.153806
-0.141714
-0.128795
-0.115386
-0.101913
-0.0887785
-0.0762634
-0.0647447
-0.0541804
-0.0449452
-0.0365622
-0.0295334
-0.0229689
-0.0176371
-0.0122236
-0.00753478
-0.00247142
-0.152915
-0.163967
-0.171904
-0.178668
-0.184324
-0.188359
-0.190419
-0.190514
-0.188692
-0.185012
-0.179449
-0.172117
-0.1631
-0.152646
-0.140961
-0.128409
-0.115326
-0.102117
-0.0891814
-0.0767978
-0.065338
-0.05479
-0.0455053
-0.0370754
-0.0299406
-0.0233157
-0.0178497
-0.0123923
-0.00758698
-0.00250833
-0.147335
-0.15843
-0.166666
-0.17366
-0.179535
-0.183874
-0.186313
-0.186811
-0.185401
-0.182142
-0.177014
-0.170114
-0.16153
-0.151491
-0.140205
-0.128014
-0.115251
-0.102304
-0.0895641
-0.0773129
-0.0659135
-0.0553846
-0.0460536
-0.0375793
-0.0303417
-0.0236576
-0.0180613
-0.0125592
-0.00764162
-0.00254339
-0.142073
-0.153142
-0.161631
-0.168837
-0.174914
-0.179524
-0.182316
-0.183199
-0.182187
-0.179335
-0.174627
-0.168149
-0.159985
-0.15035
-0.139451
-0.127614
-0.115162
-0.102472
-0.0899249
-0.0778061
-0.066468
-0.0559606
-0.0465866
-0.0380707
-0.030734
-0.0239921
-0.0182704
-0.0127231
-0.00769829
-0.00257639
-0.137151
-0.148136
-0.156831
-0.164231
-0.170491
-0.175344
-0.178458
-0.179706
-0.179074
-0.176611
-0.172307
-0.166235
-0.158476
-0.149232
-0.138707
-0.127212
-0.115062
-0.102621
-0.0902621
-0.0782742
-0.066998
-0.0565141
-0.0471007
-0.0385459
-0.0311146
-0.0243167
-0.0184754
-0.0128826
-0.00775641
-0.00260717
-0.132589
-0.143443
-0.152299
-0.159873
-0.166301
-0.171369
-0.174773
-0.17636
-0.176089
-0.173996
-0.170075
-0.16439
-0.157017
-0.148148
-0.13798
-0.126813
-0.114951
-0.102752
-0.0905742
-0.0787145
-0.0674998
-0.0570407
-0.0475916
-0.0390008
-0.0314804
-0.0246286
-0.0186745
-0.0130361
-0.00781525
-0.00263562
-0.128408
-0.139098
-0.148072
-0.155798
-0.162378
-0.167634
-0.171296
-0.173195
-0.173261
-0.171515
-0.167953
-0.162633
-0.155625
-0.14711
-0.13728
-0.126423
-0.114834
-0.102864
-0.0908596
-0.0791236
-0.0679693
-0.0575358
-0.0480549
-0.0394311
-0.0318277
-0.0249244
-0.0188653
-0.0131818
-0.00787389
-0.00266161
-0.124629
-0.135135
-0.144185
-0.152043
-0.158759
-0.164181
-0.168069
-0.170247
-0.170622
-0.169198
-0.165968
-0.160986
-0.154317
-0.146132
-0.136615
-0.126048
-0.114713
-0.102959
-0.0911169
-0.0794982
-0.0684022
-0.0579943
-0.0484856
-0.0398318
-0.0321523
-0.0252007
-0.0190454
-0.0133181
-0.00793121
-0.00268503
-0.121275
-0.131587
-0.140681
-0.14865
-0.155485
-0.161051
-0.165132
-0.167556
-0.16821
-0.167078
-0.164149