/*--------------------------------*- C++ -*----------------------------------*\
  =========                 |
  \\      /  F ield         | OpenFOAM: The Open Source CFD Toolbox
   \\    /   O peration     | Website:  https://openfoam.org
    \\  /    A nd           | Version:  9
     \\/     M anipulation  |
\*---------------------------------------------------------------------------*/
FoamFile
{
    format      ascii;
    class       volVectorField;
    location    "2.4";
    object      U;
}
// * * * * * * * * * * * * * * * * * * * * * * * * * * * * * * * * * * * * * //

dimensions      [0 1 -1 0 0 0 0];

internalField   nonuniform List<vector> 
8500
(
(-0.0516807 0.0172796 0)
(-0.184667 0.0228097 -8.82915e-23)
(-0.33216 0.0208205 -5.00091e-24)
(-0.439442 0.0157727 1.05496e-36)
(-0.512446 0.00782234 -1.55729e-23)
(-0.522202 -0.00361682 1.29667e-23)
(-0.467667 -0.0169564 -7.13219e-23)
(-0.336156 -0.0285224 -7.8059e-23)
(-0.182846 -0.0344535 -4.07545e-23)
(0.016822 -0.0406895 -1.25306e-24)
(-0.0521032 0.0512143 2.4352e-22)
(-0.182111 0.067896 8.29676e-23)
(-0.325429 0.0621098 3.58137e-22)
(-0.428264 0.0470946 0)
(-0.496217 0.0233881 0)
(-0.500195 -0.0107502 2.37148e-23)
(-0.439533 -0.0505979 5.15213e-23)
(-0.301994 -0.0848296 8.20593e-23)
(-0.146328 -0.102634 3.24752e-23)
(0.0579762 -0.119763 5.39058e-24)
(-0.052886 0.083305 -2.1624e-22)
(-0.17709 0.111396 0)
(-0.31223 0.102349 -3.36431e-22)
(-0.406376 0.0777557 0)
(-0.464554 0.0387338 -6.4671e-23)
(-0.457533 -0.0175433 5.38477e-23)
(-0.385448 -0.083359 0)
(-0.237348 -0.138947 0)
(-0.0776525 -0.168576 0)
(0.132685 -0.192553 0)
(-0.0539122 0.112419 4.52869e-22)
(-0.169779 0.152295 -3.44952e-22)
(-0.29307 0.140853 -8.66311e-23)
(-0.374657 0.107339 -5.87477e-22)
(-0.418893 0.053753 -6.16871e-22)
(-0.39652 -0.0236822 5.11807e-23)
(-0.308914 -0.114471 -4.27319e-23)
(-0.147972 -0.189439 3.53378e-22)
(0.0164318 -0.230012 1.53856e-23)
(0.230128 -0.25689 8.60602e-23)
(-0.0550257 0.137565 -4.52867e-22)
(-0.160438 0.189635 -4.65201e-22)
(-0.268669 0.176952 1.34697e-22)
(-0.334318 0.135442 7.8789e-22)
(-0.361104 0.0683559 -8.59736e-23)
(-0.319922 -0.0288205 9.34482e-22)
(-0.213746 -0.143078 0)
(-0.0395955 -0.234813 -3.91847e-22)
(0.128729 -0.284715 -3.93935e-23)
(0.340364 -0.311426 -1.21808e-22)
(-0.056052 0.157936 1.19781e-22)
(-0.1494 0.222535 7.59236e-22)
(-0.239926 0.209988 -6.37199e-22)
(-0.286826 0.16165 -6.17589e-24)
(-0.293339 0.082419 -6.78881e-22)
(-0.230705 -0.032642 2.7247e-22)
(-0.103589 -0.168463 -9.42511e-23)
(0.0827052 -0.273736 5.46594e-22)
(0.252927 -0.331019 -7.70819e-23)
(0.456264 -0.354827 8.70291e-23)
(-0.0568229 0.172954 6.09568e-23)
(-0.137073 0.250213 0)
(-0.207889 0.239303 -1.54977e-23)
(-0.233854 0.18551 0)
(-0.21794 0.0957108 1.17366e-21)
(-0.131892 -0.0354186 -9.74161e-22)
(0.0178732 -0.189848 0)
(0.214555 -0.305272 3.02634e-23)
(0.383412 -0.36764 0)
(0.572581 -0.386446 0)
(-0.0571985 0.182296 -1.01687e-21)
(-0.123934 0.27201 -1.10429e-22)
(-0.173724 0.264232 8.38042e-22)
(-0.177261 0.206528 1.7698e-22)
(-0.137582 0.107847 -1.23941e-21)
(-0.0265313 -0.0375211 -7.90756e-22)
(0.146712 -0.20634 -1.02464e-22)
(0.351378 -0.328958 6.44812e-22)
(0.514995 -0.394035 -8.94378e-23)
(0.685131 -0.406329 2.58214e-23)
(-0.0570811 0.185908 1.14739e-21)
(-0.110522 0.287428 -8.71193e-22)
(-0.138676 0.284114 -2.92463e-22)
(-0.119039 0.224154 1.65397e-22)
(-0.055014 0.118199 1.23281e-21)
(0.0823533 -0.0390468 1.16754e-21)
(0.278978 -0.218005 -1.0546e-22)
(0.488506 -0.344667 1.55074e-22)
(0.643037 -0.410116 -1.5708e-22)
(0.790518 -0.415216 5.2582e-23)
(-0.0564261 0.184026 1.06352e-21)
(-0.0973969 0.296107 8.76326e-22)
(-0.104015 0.298276 -1.35019e-21)
(-0.061249 0.23766 -1.66929e-22)
(0.0270556 0.125908 0)
(0.19188 -0.0403978 0)
(0.411086 -0.225447 0)
(0.621758 -0.352551 -2.16053e-21)
(0.763614 -0.416367 -6.64622e-22)
(0.886194 -0.414399 3.52796e-22)
(-0.0552584 0.177159 -2.14513e-21)
(-0.0850999 0.297816 0)
(-0.0710045 0.306055 3.10747e-21)
(-0.00592662 0.246173 1.39451e-21)
(0.106351 0.129942 1.50942e-22)
(0.300037 -0.0424804 0)
(0.539948 -0.22922 -1.65863e-21)
(0.747582 -0.353257 1.09503e-21)
(0.873736 -0.413769 6.64611e-22)
(0.970532 -0.405498 -3.52792e-22)
(-0.0536711 0.166062 1.21805e-21)
(-0.074128 0.292566 -1.11993e-22)
(-0.0407919 0.306941 -1.55547e-21)
(0.0450552 0.24885 -1.57524e-21)
(0.181387 0.129166 0)
(0.405771 -0.0461833 2.12916e-21)
(0.663199 -0.229882 8.33559e-24)
(0.863248 -0.347687 9.92324e-22)
(0.971426 -0.403611 8.00163e-22)
(1.04278 -0.390248 -3.92961e-22)
(-0.0518083 0.151697 -3.06068e-25)
(-0.064877 0.280697 1.91823e-21)
(-0.0143374 0.30069 -1.89186e-22)
(0.0902299 0.244817 1.18421e-21)
(0.251996 0.12278 7.61409e-22)
(0.508998 -0.0518897 4.81488e-22)
(0.779091 -0.227801 1.62363e-21)
(0.966873 -0.336824 -1.2711e-21)
(1.05568 -0.387309 -5.48674e-22)
(1.10294 -0.370343 2.67903e-22)
(-0.0498526 0.135162 0)
(-0.0575662 0.262865 -1.57275e-21)
(0.00774412 0.287329 -1.88404e-22)
(0.129137 0.233287 -2.48542e-23)
(0.319975 0.110449 1.22238e-21)
(0.610252 -0.0594169 -1.84363e-21)
(0.88631 -0.223141 1.56681e-21)
(1.05737 -0.321663 -1.53998e-22)
(1.12633 -0.366291 0)
(1.15161 -0.347355 0)
(-0.0480146 0.117599 1.39744e-22)
(-0.0521896 0.240045 -1.7968e-21)
(0.0253563 0.267192 0)
(0.162956 0.2138 -1.99006e-22)
(0.389016 0.0926402 1.42197e-22)
(0.710105 -0.0679077 0)
(0.983786 -0.21591 -1.59218e-21)
(1.13433 -0.30317 -1.06718e-21)
(1.18391 -0.341903 1.50778e-22)
(1.1898 -0.322669 -1.26715e-22)
(-0.0465128 0.100091 -1.38558e-22)
(-0.0484879 0.213487 1.91053e-21)
(0.0391581 0.24093 0)
(0.195174 0.18676 -1.47726e-21)
(0.463481 0.0711131 1.38773e-22)
(0.808266 -0.0760175 -1.93517e-21)
(1.07057 -0.206088 -1.74942e-22)
(1.19798 -0.282258 1.21359e-21)
(1.22944 -0.315332 0)
(1.21871 -0.297395 8.37279e-22)
(-0.0455403 0.0835731 -2.11299e-21)
(-0.0459258 0.184638 -1.13714e-22)
(0.0508836 0.209503 -1.87882e-22)
(0.231482 0.154106 1.55403e-22)
(0.546609 0.048385 -2.20839e-21)
(0.903278 -0.082324 1.93514e-21)
(1.1459 -0.193771 1.44657e-21)
(1.24903 -0.259764 1.00865e-21)
(1.26423 -0.287514 1.34179e-21)
(1.23953 -0.272285 -7.43582e-22)
(-0.0452188 0.0687562 2.25153e-21)
(-0.0436645 0.154981 0)
(0.0636536 0.174254 1.63968e-21)
(0.278638 0.119206 -1.53014e-22)
(0.638728 0.027021 4.36455e-21)
(0.992857 -0.0857291 0)
(1.20944 -0.17926 -1.44656e-21)
(1.28867 -0.236411 -3.1731e-23)
(1.28975 -0.259062 -1.4874e-21)
(1.25331 -0.247828 1.2238e-22)
(-0.0455509 0.0560862 0)
(-0.0405394 0.125849 1.78227e-21)
(0.0818633 0.137028 -1.45469e-21)
(0.342048 0.0860405 0)
(0.736889 0.00908719 -2.15616e-21)
(1.07464 -0.0856779 0)
(1.26138 -0.163041 1.34035e-21)
(1.31837 -0.21273 -9.76918e-22)
(1.30742 -0.230316 -1.27143e-21)
(1.26118 -0.224777 -8.05967e-22)
(-0.0463908 0.0457279 -2.7758e-22)
(-0.0350665 0.0982508 -1.55443e-21)
(0.110524 0.100329 0)
(0.423195 0.0579918 0)
(0.836089 -0.00419571 0)
(1.14686 -0.0821591 -2.0702e-22)
(1.30251 -0.145687 -1.36093e-21)
(1.33977 -0.189019 -1.27449e-22)
(1.3187 -0.201758 1.27144e-21)
(1.26525 -0.204415 9.00323e-22)
(-0.0474501 0.0375766 0)
(-0.0255179 0.0727749 -1.79455e-21)
(0.154012 0.0671551 0)
(0.518954 0.0366837 0)
(0.931284 -0.0124433 0)
(1.20865 -0.0755324 2.00033e-22)
(1.334 -0.127706 -1.55681e-21)
(1.35439 -0.165434 8.11806e-23)
(1.32521 -0.174654 8.92401e-22)
(1.26755 -0.190194 8.20756e-22)
(-0.0483398 0.031294 0)
(-0.0100757 0.0496119 1.79455e-21)
(0.214629 0.0403403 -1.44513e-21)
(0.623069 0.0220914 0)
(1.01879 -0.0158711 -2.00502e-21)
(1.25999 -0.0663237 0)
(1.35724 -0.109454 1.2429e-21)
(1.36352 -0.142299 -8.56256e-22)
(1.32822 -0.151062 -1.19962e-21)
(1.27649 -0.163603 -7.94357e-22)
(-0.048621 0.0263679 2.32436e-21)
(0.0129812 0.0287549 0)
(0.291662 0.0215675 1.26452e-21)
(0.728701 0.0134377 1.49366e-22)
(1.09662 -0.0150007 3.98017e-21)
(1.30149 -0.0550794 0)
(1.37361 -0.0911755 -1.15921e-21)
(1.36829 -0.120231 -1.68586e-21)
(1.3298 -0.12824 -1.00989e-21)
(1.27895 -0.143754 -2.31322e-23)
(-0.0478286 0.0221883 -2.46763e-21)
(0.045079 0.0103209 1.17596e-22)
(0.381635 0.0107791 1.81641e-22)
(0.830343 0.00991279 -1.50236e-22)
(1.16411 -0.010449 -1.97515e-21)
(1.33415 -0.0422989 1.51517e-21)
(1.38435 -0.0731044 1.15922e-21)
(1.36992 -0.099044 8.29607e-22)
(1.3291 -0.107643 1.14131e-21)
(1.28147 -0.123264 -8.59381e-22)
(-0.0454554 0.0181384 1.45338e-22)
(0.0870794 -0.00516379 1.75704e-21)
(0.479581 0.00660352 0)
(0.924486 0.0108496 -1.0543e-21)
(1.22142 -0.00284184 -1.22792e-22)
(1.35911 -0.0284128 -1.51518e-21)
(1.39062 -0.0553252 1.28757e-22)
(1.36908 -0.0789576 6.73082e-22)
(1.32743 -0.0880515 0)
(1.28173 -0.104144 7.72538e-22)
(-0.040917 0.0137025 -1.51136e-22)
(0.139113 -0.0168392 -1.87632e-21)
(0.580476 0.0074151 0)
(1.00941 0.0156602 1.43651e-22)
(1.26917 0.00723373 -1.22257e-22)
(1.37752 -0.0137533 0)
(1.39339 -0.0379241 -1.05683e-21)
(1.36656 -0.0597855 -7.80859e-22)
(1.32461 -0.0697237 -1.23795e-22)
(1.28123 -0.0859617 -1.04109e-22)
(-0.0335635 0.00854887 0)
(0.200517 -0.0238718 -2.16731e-21)
(0.680194 0.0120876 1.94123e-22)
(1.08461 0.0238015 -2.61043e-24)
(1.30822 0.0192658 -9.35088e-22)
(1.39046 0.00142514 -1.57325e-21)
(1.39347 -0.0209035 1.19667e-21)
(1.36276 -0.041511 0)
(1.32114 -0.0523197 0)
(1.27973 -0.0685137 0)
(-0.0227322 0.00261845 4.48587e-24)
(0.269828 -0.0258127 1.81797e-21)
(0.775705 0.0200252 1.97281e-22)
(1.1503 0.0347913 1.35433e-21)
(1.33948 0.0328334 8.14022e-22)
(1.39888 0.0169423 -1.3091e-22)
(1.39149 -0.00426164 1.01759e-21)
(1.35806 -0.0240055 -6.17417e-22)
(1.31706 -0.0357715 -6.2274e-22)
(1.27757 -0.0519196 4.5671e-22)
(-0.00782732 -0.00382703 1.14998e-21)
(0.345077 -0.0227586 1.28278e-22)
(0.865005 0.0308805 -1.58864e-21)
(1.2069 0.0482249 -1.21011e-21)
(1.36392 0.0476006 0)
(1.40362 0.0326689 1.37344e-21)
(1.38795 0.0120327 -2.68295e-23)
(1.35269 -0.00719236 7.97851e-22)
(1.31254 -0.0199572 4.36084e-22)
(1.27479 -0.0359694 -3.57303e-22)
(0.0116119 -0.0102286 -2.64247e-21)
(0.424133 -0.0151992 0)
(0.946954 0.0443862 3.19932e-21)
(1.255 0.0637465 1.06603e-21)
(1.38241 0.0632893 1.19596e-22)
(1.40534 0.0485153 0)
(1.3832 0.02801 -9.72515e-22)
(1.34681 0.00901677 6.76086e-22)
(1.30763 -0.00478315 4.77624e-22)
(1.27148 -0.0207095 -3.39132e-22)
(0.0357988 -0.0157967 1.3362e-21)
(0.50494 -0.00371673 1.03203e-21)
(1.02097 0.0603027 -1.8038e-21)
(1.29526 0.0810009 1.59735e-22)
(1.3958 0.0796723 0)
(1.40462 0.0644205 0)
(1.37753 0.0437035 0)
(1.34052 0.02469 -1.33231e-21)
(1.30237 0.00981829 -4.77628e-22)
(1.26768 -0.00603209 3.39119e-22)
(0.0646833 -0.0196909 1.22742e-21)
(0.585639 0.0111987 -1.02313e-21)
(1.08688 0.0783949 1.04891e-22)
(1.32832 0.0996457 0)
(1.40481 0.0965689 8.69348e-22)
(1.40191 0.0803441 5.51995e-22)
(1.3711 0.059139 6.16906e-23)
(1.33387 0.0398844 -5.47737e-23)
(1.29678 0.0239138 1.15599e-22)
(1.26342 0.00807488 -4.44597e-23)
(0.0980097 -0.0211959 -1.39337e-21)
(0.664608 0.0292064 1.28976e-22)
(1.1448 0.0984348 8.14701e-22)
(1.35483 0.119364 -2.20492e-22)
(1.41007 0.113837 -6.52215e-22)
(1.39756 0.0962584 -7.81718e-22)
(1.36404 0.0743345 6.00949e-23)
(1.32688 0.0546446 3.28272e-22)
(1.29084 0.0375483 0)
(1.25871 0.0216625 -3.56694e-23)
(0.135307 -0.0198246 -8.94923e-23)
(0.740453 0.0500599 0)
(1.19506 0.120197 1.05631e-24)
(1.37541 0.139872 0)
(1.41212 0.131364 8.38293e-22)
(1.39184 0.11214 -5.94785e-22)
(1.35643 0.0892992 0)
(1.31954 0.069004 1.03919e-23)
(1.28457 0.0507611 0)
(1.25357 0.0347534 0)
(0.175931 -0.0153555 -1.78416e-22)
(0.811993 0.0735329 1.17942e-21)
(1.23809 0.143447 -9.21402e-22)
(1.39066 0.160931 1.48013e-22)
(1.41141 0.149056 -3.88134e-22)
(1.38495 0.127965 -6.38766e-23)
(1.3483 0.104035 0)
(1.31186 0.0829854 2.30064e-22)
(1.27794 0.0635765 5.66356e-23)
(1.248 0.0473752 1.41992e-22)
(0.219123 -0.00778514 -7.41161e-22)
(0.878277 0.099364 -4.80174e-22)
(1.27437 0.167942 -1.50293e-22)
(1.40113 0.182347 5.87808e-22)
(1.40829 0.166834 4.63822e-23)
(1.37703 0.143706 5.78439e-22)
(1.33967 0.118537 0)
(1.3038 0.0966002 -2.75789e-22)
(1.27096 0.0760115 4.55662e-23)
(1.24201 0.0595422 -3.15873e-22)
(0.26406 0.00276494 -7.4116e-22)
(0.93866 0.127233 4.94584e-22)
(1.3043 0.19344 -7.45104e-24)
(1.40733 0.203974 -6.80889e-22)
(1.40307 0.184626 -3.4645e-22)
(1.36818 0.159333 -3.18843e-23)
(1.33054 0.13279 2.66221e-23)
(1.29534 0.10985 3.06917e-22)
(1.26359 0.0880729 -4.34701e-24)
(1.23558 0.071263 1.02225e-22)
(0.309894 0.0161194 -3.77296e-22)
(0.992847 0.15681 0)
(1.32824 0.219721 -4.02765e-22)
(1.40969 0.22568 0)
(1.39598 0.202365 -4.35357e-22)
(1.35846 0.174806 3.69539e-23)
(1.3209 0.146774 0)
(1.28647 0.122728 0)
(1.25583 0.0997597 0)
(1.22874 0.0825356 0)
(0.355788 0.0320928 3.30873e-22)
(1.04073 0.18779 1.61517e-22)
(1.34655 0.246567 4.02768e-22)
(1.4086 0.247344 0)
(1.38721 0.219986 0)
(1.34791 0.190082 -1.47723e-23)
(1.31072 0.160458 5.57496e-23)
(1.27715 0.135219 5.99318e-23)
(1.24767 0.111062 5.13136e-23)
(1.22148 0.0933483 -8.22776e-24)
(0.400938 0.0505149 -5.94025e-24)
(1.0823 0.219887 -1.51076e-22)
(1.35958 0.273759 6.79046e-24)
(1.40438 0.268852 7.6283e-24)
(1.3769 0.237418 -1.15041e-23)
(1.33655 0.205109 4.30649e-24)
(1.29998 0.173809 -4.82687e-23)
(1.26738 0.147305 -5.58703e-23)
(1.23909 0.121958 -3.92231e-23)
(1.21383 0.10368 1.2137e-24)
(0.444586 0.0712272 0)
(1.11762 0.252826 -1.4971e-22)
(1.3677 0.301088 -4.29112e-24)
(1.39731 0.290099 9.10542e-24)
(1.36515 0.254587 1.57655e-37)
(1.32438 0.21983 -1.07236e-37)
(1.28867 0.186786 -4.36704e-23)
(1.25711 0.158961 -4.93804e-23)
(1.23008 0.13242 -3.64657e-23)
(1.20579 0.113507 0)
(0.486044 0.0940644 4.25919e-22)
(1.14681 0.286343 1.22939e-22)
(1.37123 0.328357 3.93416e-22)
(1.38763 0.310985 -1.77084e-23)
(1.35208 0.271417 0)
(1.31141 0.234185 1.27655e-23)
(1.27676 0.199349 2.84204e-23)
(1.24634 0.170155 5.32243e-23)
(1.22066 0.142417 2.85009e-23)
(1.19733 0.122825 6.69376e-24)
(0.524707 0.118837 -3.79466e-22)
(1.17003 0.320179 0)
(1.37044 0.355373 -3.72011e-22)
(1.37558 0.331411 0)
(1.33773 0.287826 -3.60194e-23)
(1.29762 0.248111 2.99919e-23)
(1.26423 0.211454 0)
(1.23505 0.180843 0)
(1.21087 0.151929 0)
(1.18842 0.131642 0)
(0.560055 0.145319 7.46504e-22)
(1.18744 0.354083 -4.77538e-22)
(1.36562 0.381948 -9.05161e-23)
(1.36133 0.351278 -3.66022e-22)
(1.32217 0.303736 -3.3547e-22)
(1.28303 0.261539 2.24688e-23)
(1.25107 0.22305 -1.87604e-23)
(1.22326 0.190977 1.48034e-22)
(1.2007 0.160942 3.48446e-24)
(1.17907 0.140016 9.25102e-23)
(0.591662 0.173245 -7.46506e-22)
(1.19924 0.3878 -5.69631e-22)
(1.35701 0.4079 1.25519e-22)
(1.34503 0.370482 4.36927e-22)
(1.30541 0.319059 -2.2281e-23)
(1.26763 0.274401 3.56025e-22)
(1.23728 0.234081 0)
(1.21103 0.200519 -1.67968e-22)
(1.1901 0.169428 -2.36176e-23)
(1.16936 0.147813 -1.16085e-22)
(0.61919 0.202313 1.76486e-22)
(1.20561 0.421071 9.78995e-22)
(1.34487 0.433047 -5.63238e-22)
(1.32681 0.388921 -1.06319e-22)
(1.2875 0.3337 -2.55212e-22)
(1.25148 0.286623 5.79401e-23)
(1.22294 0.24449 -3.18856e-23)
(1.19835 0.209445 1.67321e-22)
(1.17902 0.177361 -2.70202e-23)
(1.15932 0.155051 6.32812e-23)
(0.642387 0.232189 8.91879e-23)
(1.20675 0.453632 0)
(1.3294 0.45721 3.46353e-23)
(1.30677 0.406488 0)
(1.26848 0.347554 5.08302e-22)
(1.23464 0.298121 -3.26579e-22)
(1.208 0.254232 0)
(1.18519 0.217737 -1.73022e-23)
(1.1675 0.18471 0)
(1.14895 0.161702 0)
(0.661083 0.262513 -1.36392e-21)
(1.20289 0.485215 -1.04744e-22)
(1.3108 0.480204 6.87602e-22)
(1.28506 0.423075 7.93173e-23)
(1.24852 0.360536 -5.38659e-22)
(1.21706 0.308812 -1.91625e-22)
(1.19246 0.263259 -2.57486e-23)
(1.17159 0.225358 1.06061e-22)
(1.15557 0.191451 -2.01169e-23)
(1.13827 0.167745 8.68713e-24)
(0.675185 0.292913 1.51755e-21)
(1.19424 0.515561 -9.06703e-22)
(1.28922 0.501819 -2.00434e-22)
(1.26188 0.438556 9.84839e-23)
(1.22764 0.372572 4.23564e-22)
(1.1987 0.318628 2.9041e-22)
(1.17636 0.271503 -2.24831e-23)
(1.15754 0.232273 -1.71405e-23)
(1.14325 0.19756 -2.76822e-23)
(1.12731 0.17316 9.39537e-24)
(0.684675 0.323011 1.25338e-21)
(1.18107 0.544428 8.7938e-22)
(1.26484 0.521839 -8.48472e-22)
(1.23736 0.452799 -9.0167e-23)
(1.20582 0.383582 0)
(1.17963 0.327507 0)
(1.15973 0.278908 0)
(1.14309 0.238446 -2.88342e-22)
(1.13058 0.203009 -6.67718e-23)
(1.11608 0.177926 2.48843e-23)
(0.689603 0.352421 -2.43944e-21)
(1.16365 0.571587 0)
(1.238 0.540134 1.82231e-21)
(1.21147 0.46561 4.99505e-22)
(1.18311 0.39349 0)
(1.1599 0.335379 0)
(1.14262 0.285416 -1.71092e-22)
(1.12825 0.243841 1.25262e-22)
(1.11758 0.20777 6.67723e-23)
(1.10463 0.18202 -2.48834e-23)
(0.690081 0.380757 1.3147e-21)
(1.14225 0.596757 -1.0559e-22)
(1.20895 0.55659 -8.64827e-22)
(1.18425 0.476848 -5.48443e-22)
(1.15959 0.40217 4.06185e-23)
(1.13956 0.34218 2.43135e-22)
(1.12506 0.290976 5.41973e-23)
(1.11308 0.248422 4.08977e-23)
(1.10429 0.211815 1.32912e-23)
(1.09299 0.185418 1.86996e-23)
(0.686275 0.407662 -1.53507e-23)
(1.117 0.619604 1.29944e-21)
(1.17794 0.571087 -1.14733e-22)
(1.15588 0.486433 3.14611e-22)
(1.13532 0.409525 1.70176e-22)
(1.11867 0.347845 -2.17808e-23)
(1.10711 0.295537 1.08101e-22)
(1.0976 0.252154 -5.34718e-23)
(1.09076 0.215111 3.1613e-24)
(1.08121 0.188095 -1.44466e-23)
(0.678396 0.432862 0)
(1.08807 0.639793 -1.13522e-21)
(1.14524 0.583478 -1.00751e-22)
(1.12649 0.494299 -7.60314e-23)
(1.11039 0.415458 -1.7818e-22)
(1.09731 0.352312 -1.55997e-22)
(1.08884 0.299054 -2.54005e-24)
(1.08188 0.255003 0)
(1.07701 0.217628 0)
(1.06934 0.190017 0)
(0.66666 0.456122 1.11391e-22)
(1.05581 0.657094 -9.51708e-22)
(1.11103 0.593554 0)
(1.09621 0.500377 -1.00858e-22)
(1.08488 0.419889 1.88911e-23)
(1.07554 0.355523 0)
(1.07029 0.301486 -5.25588e-24)
(1.06596 0.256941 7.56216e-23)
(1.06309 0.219331 -1.9343e-23)
(1.05742 0.191144 1.62462e-23)
(0.651212 0.477133 -8.35571e-23)
(1.02074 0.671404 1.0203e-21)
(1.07549 0.601129 0)
(1.06519 0.504589 -2.14533e-22)
(1.05889 0.422744 1.1263e-23)
(1.05346 0.357424 7.08655e-23)
(1.05154 0.302797 1.21113e-23)
(1.04989 0.25794 -8.57592e-23)
(1.04903 0.220188 0)
(1.04552 0.191433 -2.14711e-22)
(0.632181 0.495473 -1.18292e-21)
(0.983314 0.682601 -5.79204e-23)
(1.03882 0.606087 -2.4391e-23)
(1.03358 0.506854 2.01757e-23)
(1.03253 0.423962 8.92777e-23)
(1.03114 0.357967 -7.0866e-23)
(1.03267 0.302956 -1.67428e-22)
(1.0337 0.257972 -1.59448e-22)
(1.03488 0.220172 -2.90127e-22)
(1.03376 0.190873 1.87456e-22)
(0.609911 0.510816 1.25349e-21)
(0.943884 0.690516 0)
(1.00124 0.608349 1.16247e-22)
(1.00153 0.507094 -8.96224e-24)
(1.0059 0.423493 -2.93882e-22)
(1.00868 0.35711 0)
(1.01372 0.301938 1.67429e-22)
(1.01744 0.257007 -4.22513e-23)
(1.02074 0.21926 3.30884e-22)
(1.02245 0.189505 -3.4226e-23)
(0.58484 0.522949 0)
(0.902783 0.694993 2.79271e-22)
(0.962971 0.607844 -1.05413e-22)
(0.969183 0.505243 0)
(0.979142 0.421293 2.04605e-22)
(0.986169 0.354823 0)
(0.994778 0.299724 -2.83731e-22)
(1.00114 0.255011 2.01701e-22)
(1.00678 0.217416 4.12214e-22)
(1.01192 0.187401 3.35428e-22)
(0.557376 0.531683 -5.76161e-23)
(0.860353 0.695902 -2.31978e-22)
(0.924258 0.604523 0)
(0.93671 0.501242 0)
(0.952363 0.417331 0)
(0.963714 0.351084 4.56022e-23)
(0.975894 0.296302 2.06336e-22)
(0.984921 0.251969 3.29118e-23)
(0.9932 0.214598 -4.12216e-22)
(1.00211 0.184501 -3.76993e-22)
(0.527927 0.536868 0)
(0.816942 0.693147 7.22443e-23)
(0.885339 0.598351 0)
(0.904278 0.49505 0)
(0.925696 0.411584 0)
(0.941411 0.345877 -5.50329e-23)
(0.957153 0.291665 4.9094e-22)
(0.968902 0.247898 -1.14148e-22)
(0.98011 0.21085 -4.03819e-22)
(0.992289 0.179419 -4.13972e-22)
(0.4969 0.538393 0)
(0.77291 0.686661 -7.22447e-23)
(0.846461 0.589311 3.76258e-22)
(0.872057 0.486641 0)
(0.899275 0.40404 6.65369e-22)
(0.91936 0.339196 0)
(0.938651 0.285804 -3.98935e-22)
(0.953215 0.242809 3.67101e-22)
(0.967243 0.206619 5.27825e-22)
(0.981136 0.176057 4.1391e-22)
(0.464701 0.536186 -2.19977e-22)
(0.728616 0.676409 0)
(0.807867 0.577404 -3.17938e-22)
(0.840223 0.476003 -4.82428e-23)
(0.87323 0.3947 -1.44289e-21)
(0.897665 0.33104 0)
(0.920486 0.278714 5.1076e-22)
(0.937931 0.236632 3.92182e-23)
(0.954718 0.201186 5.65331e-22)
(0.970255 0.171202 1.20859e-24)
(0.431733 0.530215 2.4974e-22)
(0.68442 0.662386 -2.44308e-23)
(0.769802 0.562648 -7.18756e-23)
(0.808951 0.463144 -5.94539e-23)
(0.847697 0.383574 7.77519e-22)
(0.876432 0.321423 -7.11815e-22)
(0.902746 0.27042 -5.10763e-22)
(0.923057 0.229474 -4.06324e-22)
(0.942404 0.195031 -6.39161e-22)
(0.959366 0.166011 6.03218e-22)
(0.398391 0.520483 -4.4225e-23)
(0.640679 0.644618 -7.2879e-22)
(0.732504 0.545083 0)
(0.778416 0.448085 5.40142e-22)
(0.82281 0.370686 5.9177e-23)
(0.855771 0.310362 7.11819e-22)
(0.885526 0.260929 -7.16718e-23)
(0.908666 0.221292 -4.21288e-22)
(0.930437 0.187956 0)
(0.948755 0.159999 -5.37703e-22)
(0.365064 0.50703 5.28801e-23)
(0.597746 0.62316 7.65095e-22)
(0.696207 0.524763 0)
(0.748792 0.430864 -4.99105e-24)
(0.798703 0.35607 6.64649e-23)
(0.835788 0.29789 0)
(0.868907 0.250278 6.67221e-22)
(0.894799 0.212147 4.81279e-22)
(0.91885 0.180103 9.28293e-23)
(0.938502 0.153331 -7.79729e-23)
(0.332128 0.489932 0)
(0.55596 0.598095 1.21911e-21)
(0.66114 0.501764 -1.07618e-22)
(0.720249 0.411535 7.21661e-23)
(0.775507 0.339772 5.98047e-22)
(0.816589 0.284044 1.03417e-21)
(0.852971 0.238496 -7.57244e-22)
(0.881517 0.202055 0)
(0.907715 0.171458 0)
(0.928693 0.14597 0)
(0.299947 0.469298 2.96966e-24)
(0.515653 0.569537 -1.01025e-21)
(0.627524 0.476177 1.22265e-22)
(0.692955 0.390166 -8.55321e-22)
(0.75335 0.321849 -5.17837e-22)
(0.798276 0.268874 1.8082e-22)
(0.837797 0.225629 -7.68733e-22)
(0.86888 0.19106 5.08499e-22)
(0.897088 0.162067 5.49878e-22)
(0.919387 0.137956 -4.30575e-22)
(0.268868 0.445276 -7.25667e-22)
(0.477138 0.537619 -8.05622e-23)
(0.595572 0.448113 1.14373e-21)
(0.667067 0.366843 8.92557e-22)
(0.732358 0.30237 0)
(0.780948 0.252438 -9.91626e-22)
(0.823462 0.211723 -4.29844e-23)
(0.856946 0.179203 -6.54392e-22)
(0.887029 0.151961 -3.8547e-22)
(0.910636 0.129316 3.42939e-22)
(0.23922 0.418051 1.74942e-21)
(0.440709 0.502494 0)
(0.565486 0.417695 -2.37795e-21)
(0.642741 0.341662 -7.81018e-22)
(0.712651 0.281415 -9.25887e-23)
(0.7647 0.234802 0)
(0.810038 0.196836 8.03976e-22)
(0.845773 0.166534 -6.41273e-22)
(0.877592 0.141178 -4.8767e-22)
(0.902482 0.120089 3.73852e-22)
(0.211308 0.387853 -9.2561e-22)
(0.406634 0.464327 -8.23211e-22)
(0.537463 0.385062 1.38867e-21)
(0.62012 0.314735 -1.27756e-22)
(0.694342 0.259072 0)
(0.749621 0.216042 0)
(0.797596 0.181028 0)
(0.835417 0.153103 1.30859e-21)
(0.868827 0.129759 4.87672e-22)
(0.894962 0.110316 -3.73851e-22)
(0.185399 0.354922 -9.75192e-22)
(0.37517 0.423327 8.20086e-22)
(0.511693 0.350367 8.64775e-23)
(0.599343 0.286186 0)
(0.67754 0.235443 -8.04615e-22)
(0.735795 0.196239 -5.34969e-22)
(0.786199 0.164368 -5.92719e-23)
(0.825929 0.138968 1.04826e-22)
(0.860785 0.117752 -1.29733e-22)
(0.888108 0.100044 5.1817e-23)
(0.161718 0.319474 1.10687e-21)
(0.346565 0.379754 -1.11186e-22)
(0.488351 0.31378 -9.09246e-22)
(0.580537 0.256154 2.0112e-22)
(0.662342 0.210636 5.98729e-22)
(0.7233 0.175484 7.61153e-22)
(0.775908 0.146931 -6.14784e-23)
(0.817358 0.124189 -3.34888e-22)
(0.853511 0.105208 0)
(0.881951 0.0893218 4.89236e-23)
(0.140474 0.281731 7.63707e-23)
(0.32104 0.333888 0)
(0.46759 0.275492 -3.02944e-23)
(0.563818 0.224788 0)
(0.648839 0.184769 -8.63682e-22)
(0.712205 0.153873 6.46646e-22)
(0.766776 0.128794 0)
(0.80975 0.108831 9.33679e-24)
(0.847046 0.0921797 0)
(0.876514 0.0782021 0)
(0.121867 0.241949 1.5877e-22)
(0.298791 0.286009 -1.08183e-21)
(0.449543 0.235705 8.54833e-22)
(0.54929 0.192246 -1.46458e-22)
(0.637112 0.157966 3.73525e-22)
(0.702574 0.131507 1.03142e-22)
(0.758854 0.110043 0)
(0.803147 0.0929641 -2.77369e-22)
(0.841428 0.0787265 -7.39083e-23)
(0.871818 0.066739 -2.14327e-22)
(0.106076 0.20041 6.81386e-22)
(0.279987 0.236404 -1.60526e-21)
(0.434326 0.194633 1.47302e-22)
(0.537043 0.158694 -6.13345e-22)
(0.627229 0.13036 -6.91252e-23)
(0.694462 0.108495 -6.62945e-22)
(0.752184 0.0907652 0)
(0.797584 0.0766625 3.80079e-22)
(0.836691 0.0649099 -6.79415e-23)
(0.86788 0.0549868 4.89087e-22)
(0.0932547 0.157412 -6.81387e-22)
(0.264771 0.185371 5.89415e-22)
(0.422035 0.152498 -1.01976e-22)
(0.527153 0.124307 7.19167e-22)
(0.619251 0.10209 3.92917e-22)
(0.687915 0.0849473 4.05583e-23)
(0.746802 0.0710518 -3.3864e-23)
(0.793093 0.0600019 -4.25678e-22)
(0.832865 0.0507952 3.78617e-24)
(0.864714 0.0430005 -1.62515e-22)
(0.0835277 0.113266 3.57348e-22)
(0.253257 0.133216 0)
(0.412748 0.109528 4.19245e-22)
(0.519681 0.0892631 0)
(0.613225 0.0732973 5.51549e-23)
(0.682971 0.0609792 -4.5925e-23)
(0.742739 0.0509969 0)
(0.789702 0.0430604 0)
(0.829972 0.0364481 0)
(0.86233 0.0308363 0)
(0.07699 0.0682926 -3.13059e-22)
(0.245532 0.0802543 -1.20209e-22)
(0.406524 0.065958 -4.19245e-22)
(0.514674 0.0537476 0)
(0.609188 0.0441293 0)
(0.67966 0.036709 2.07158e-23)
(0.740017 0.0306967 -8.25658e-23)
(0.787429 0.0259172 -9.78053e-23)
(0.828033 0.0219351 -9.12522e-23)
(0.860737 0.0185492 1.47335e-23)
(0.0737052 0.0228198 -5.67123e-24)
(0.241655 0.0268056 1.29718e-22)
(0.403402 0.0220263 -5.73611e-24)
(0.512162 0.0179475 1.98467e-23)
(0.607163 0.014735 -7.80108e-24)
(0.677999 0.0122566 0)
(0.738653 0.0102487 6.52692e-23)
(0.786289 0.00865258 9.78053e-23)
(0.82706 0.00732275 6.93098e-23)
(0.859939 0.0061908 1.03763e-23)
(0.0737052 -0.0228198 -5.67123e-24)
(0.241655 -0.0268056 1.29718e-22)
(0.403402 -0.0220263 -5.73611e-24)
(0.512162 -0.0179475 1.98467e-23)
(0.607163 -0.014735 -7.80108e-24)
(0.677999 -0.0122566 0)
(0.738653 -0.0102487 5.74992e-23)
(0.786289 -0.00865258 1.04309e-22)
(0.82706 -0.00732275 7.37107e-23)
(0.859939 -0.0061908 0)
(0.07699 -0.0682925 -4.01636e-22)
(0.245532 -0.0802543 -1.55965e-22)
(0.406524 -0.065958 -4.4437e-22)
(0.514674 -0.0537476 2.07824e-23)
(0.609188 -0.0441293 0)
(0.67966 -0.036709 -2.07158e-23)
(0.740017 -0.0306967 -4.79726e-23)
(0.787429 -0.0259172 -9.78053e-23)
(0.828033 -0.0219351 -5.61692e-23)
(0.860737 -0.0185492 -1.47335e-23)
(0.0835277 -0.113266 3.57348e-22)
(0.253257 -0.133216 0)
(0.412748 -0.109528 4.19245e-22)
(0.519681 -0.0892631 0)
(0.613225 -0.0732973 5.51549e-23)
(0.682971 -0.0609792 -4.5925e-23)
(0.742739 -0.0509969 0)
(0.789702 -0.0430604 0)
(0.829972 -0.0364481 0)
(0.86233 -0.0308363 0)
(0.0932547 -0.157412 -6.81387e-22)
(0.264771 -0.185371 4.60499e-22)
(0.422035 -0.152498 1.01976e-22)
(0.527153 -0.124307 4.92415e-22)
(0.619251 -0.10209 5.14031e-22)
(0.687915 -0.0849473 -4.05583e-23)
(0.746802 -0.0710518 3.3864e-23)
(0.793093 -0.0600019 -3.3448e-22)
(0.832865 -0.0507952 -3.78617e-24)
(0.864714 -0.0430005 -2.72874e-22)
(0.106076 -0.20041 6.81386e-22)
(0.279987 -0.236404 5.55348e-22)
(0.434326 -0.194633 -1.47302e-22)
(0.537043 -0.158694 -5.98236e-22)
(0.627229 -0.13036 4.95463e-23)
(0.694462 -0.108495 -6.62945e-22)
(0.752184 -0.0907652 0)
(0.797584 -0.0766625 3.80079e-22)
(0.836691 -0.0649099 6.79415e-23)
(0.86788 -0.0549868 3.74956e-22)
(0.121867 -0.241949 -1.5877e-22)
(0.298791 -0.286009 1.08183e-21)
(0.449543 -0.235705 6.69148e-22)
(0.54929 -0.192246 1.46458e-22)
(0.637112 -0.157966 4.66478e-22)
(0.702574 -0.131507 -1.48565e-22)
(0.758854 -0.110043 6.51387e-23)
(0.803147 -0.0929641 -4.53588e-22)
(0.841428 -0.0787265 7.39083e-23)
(0.871818 -0.066739 -2.14327e-22)
(0.140474 -0.281731 -7.63707e-23)
(0.32104 -0.333888 0)
(0.46759 -0.275492 -3.02943e-23)
(0.563818 -0.224788 0)
(0.648839 -0.184769 -8.63683e-22)
(0.712205 -0.153873 6.46646e-22)
(0.766776 -0.128794 0)
(0.80975 -0.108831 9.33679e-24)
(0.847046 -0.0921797 0)
(0.876514 -0.0782021 0)
(0.161718 -0.319474 1.10687e-21)
(0.346565 -0.379754 1.11186e-22)
(0.488351 -0.31378 -6.40085e-22)
(0.580537 -0.256154 -1.30028e-22)
(0.662342 -0.210636 1.01051e-21)
(0.7233 -0.175484 4.50766e-22)
(0.775908 -0.146931 6.14784e-23)
(0.817358 -0.124189 -4.18634e-22)
(0.853511 -0.105208 7.02476e-23)
(0.881951 -0.0893218 -4.89236e-23)
(0.185399 -0.354922 -1.23854e-21)
(0.37517 -0.423327 8.26339e-22)
(0.511693 -0.350367 7.71203e-23)
(0.599343 -0.286186 -1.35325e-22)
(0.67754 -0.235443 -8.04615e-22)
(0.735795 -0.196239 -6.76947e-22)
(0.786199 -0.164368 5.9272e-23)
(0.825929 -0.138968 -5.74054e-23)
(0.860785 -0.117752 1.29733e-22)
(0.888108 -0.100044 -5.1817e-23)
(0.211308 -0.387853 -9.2561e-22)
(0.406634 -0.464327 -8.23211e-22)
(0.537463 -0.385062 1.07977e-21)
(0.62012 -0.314735 1.27756e-22)
(0.694342 -0.259072 0)
(0.749621 -0.216042 0)
(0.797596 -0.181028 0)
(0.835417 -0.153103 1.30859e-21)
(0.868827 -0.129759 4.87672e-22)
(0.894962 -0.110316 -3.73852e-22)
(0.23922 -0.418051 1.74942e-21)
(0.440709 -0.502494 0)
(0.565486 -0.417695 -2.37795e-21)
(0.642741 -0.341662 -8.9256e-22)
(0.712651 -0.281415 0)
(0.7647 -0.234802 0)
(0.810038 -0.196836 8.03976e-22)
(0.845773 -0.166534 -6.41273e-22)
(0.877592 -0.141178 -4.8767e-22)
(0.902482 -0.120089 3.73852e-22)
(0.268868 -0.445276 -9.21952e-22)
(0.477138 -0.537619 8.05622e-23)
(0.595572 -0.448113 1.14373e-21)
(0.667067 -0.366843 9.96874e-22)
(0.732358 -0.30237 -8.65917e-23)
(0.780948 -0.252438 -9.91626e-22)
(0.823462 -0.211723 -4.29844e-23)
(0.856946 -0.179203 -5.11153e-22)
(0.887029 -0.151961 -5.05622e-22)
(0.910636 -0.129316 3.42939e-22)
(0.299947 -0.469298 -2.96966e-24)
(0.515653 -0.569537 -1.16674e-21)
(0.627524 -0.476177 -1.22265e-22)
(0.692955 -0.390166 -6.62056e-22)
(0.75335 -0.321849 -5.28111e-22)
(0.798276 -0.268874 -1.7532e-22)
(0.837797 -0.225629 -7.53238e-22)
(0.86888 -0.19106 6.57043e-22)
(0.897088 -0.162067 3.4121e-22)
(0.919387 -0.137956 -2.55304e-22)
(0.332128 -0.489932 0)
(0.55596 -0.598095 9.57872e-22)
(0.66114 -0.501764 1.07618e-22)
(0.720249 -0.411535 7.21661e-23)
(0.775507 -0.339772 5.98047e-22)
(0.816589 -0.284044 8.1854e-22)
(0.852971 -0.238496 -6.60512e-22)
(0.881517 -0.202055 6.97283e-23)
(0.907715 -0.171458 0)
(0.928693 -0.14597 0)
(0.365064 -0.50703 -5.28801e-23)
(0.597746 -0.62316 7.65096e-22)
(0.696207 -0.524763 0)
(0.748792 -0.430864 1.5515e-22)
(0.798703 -0.35607 -6.64649e-23)
(0.835788 -0.29789 0)
(0.868907 -0.250278 6.67221e-22)
(0.894799 -0.212147 4.81279e-22)
(0.91885 -0.180103 -9.28294e-23)
(0.938502 -0.153331 7.7973e-23)
(0.398391 -0.520483 4.4225e-23)
(0.640679 -0.644618 -8.01395e-22)
(0.732504 -0.545083 0)
(0.778416 -0.448085 6.82724e-22)
(0.82281 -0.370686 -5.91771e-23)