/*--------------------------------*- C++ -*----------------------------------*\
  =========                 |
  \\      /  F ield         | OpenFOAM: The Open Source CFD Toolbox
   \\    /   O peration     | Website:  https://openfoam.org
    \\  /    A nd           | Version:  9
     \\/     M anipulation  |
\*---------------------------------------------------------------------------*/
FoamFile
{
    format      ascii;
    class       surfaceScalarField;
    location    "7.2";
    object      phi;
}
// * * * * * * * * * * * * * * * * * * * * * * * * * * * * * * * * * * * * * //

dimensions      [0 3 -1 0 0 0 0];

internalField   nonuniform List<scalar> 
16735
(
-0.00702787
0.00702787
6.87689e-10
-0.0203367
0.0133088
1.36e-09
-0.038105
0.0177682
1.78109e-09
-0.0595761
0.0214712
2.13697e-09
-0.0851189
0.0255427
2.52354e-09
-0.114466
0.0293475
2.88319e-09
-0.148883
0.0344165
3.14432e-09
-0.184629
0.0357463
3.08522e-09
-0.226211
0.0415817
2.70662e-09
0.0356822
1.6528e-09
-0.261893
-0.00677605
0.0138039
-0.019676
0.0262088
-0.0368803
0.0349725
-0.0575545
0.0421454
-0.0819719
0.0499602
-0.109666
0.0570414
-0.141867
0.0666178
-0.174413
0.0682918
-0.211943
0.0791124
0.0657834
-0.242045
-0.00628762
0.0200915
-0.0183898
0.0383111
-0.034493
0.0510756
-0.053617
0.0612693
-0.0758523
0.0721955
-0.100377
0.081566
-0.128322
0.0945628
-0.154875
0.094845
-0.184878
0.109115
0.0857799
-0.204874
-0.00559199
0.0256835
-0.0165462
0.0492653
-0.0310632
0.0655926
-0.0479678
0.0781739
-0.0670912
0.091319
-0.0871843
0.101659
-0.109139
0.116517
-0.127583
0.113289
-0.147514
0.129046
0.0928885
-0.154623
-0.00473088
0.0304144
-0.0142425
0.0587769
-0.0267618
0.0781119
-0.0408953
0.0923074
-0.0561469
0.106571
-0.0708801
0.116392
-0.0854932
0.13113
-0.0944711
0.122267
-0.102737
0.137312
0.0861955
-0.0960435
-0.00375554
0.0341699
-0.0115993
0.0666207
-0.0218008
0.0883134
-0.0327528
0.103259
-0.0435711
0.117389
-0.0523954
0.125217
-0.0587392
0.137474
-0.0576535
0.121182
-0.0533056
0.132964
0.066319
-0.0334292
-0.00272339
0.0368933
-0.00875405
0.0726513
-0.0164213
0.0959807
-0.0239358
0.110774
-0.029971
0.123424
-0.0327333
0.127979
-0.0303093
0.13505
-0.0194491
0.110321
-0.00144572
0.114961
0.034222
0.0306513
-0.00169414
0.0385875
-0.00585226
0.0768094
-0.0108727
0.101001
-0.0148585
0.11476
-0.0159663
0.124532
-0.0129133
0.124926
-0.00136988
0.123507
0.0185174
0.0904341
0.0478889
0.0855891
-0.0119892
0.0941001
-0.000725868
0.0393133
-0.00303938
0.079123
-0.00540794
0.10337
-0.00593722
0.115289
-0.00210184
0.120697
0.00633698
0.116487
0.0253857
0.104458
0.0543716
0.0614482
0.094215
0.0457457
-0.0720214
0.154247
0.000129683
0.0391837
-0.000451135
0.0797038
-0.000251029
0.10317
0.00248569
0.112552
0.0106856
0.112497
0.0245813
0.102591
0.0504126
0.0786269
0.0863559
0.0255048
0.13606
-0.00395831
-0.146227
0.210266
0.000827055
0.0383566
0.00178912
0.0787417
0.00428818
0.100671
0.0101752
0.106665
0.0222942
0.100378
0.0408828
0.0840026
0.0729444
0.0465653
0.114739
-0.01629
0.174549
-0.0637683
-0.234543
0.262865
0.00133815
0.0370185
0.00359894
0.0764809
0.00812629
0.0961432
0.0167539
0.0980376
0.0324112
0.0847205
0.0552899
0.0611239
0.0929921
0.00886307
0.141072
-0.0643703
0.212542
-0.135238
-0.335256
0.313255
0.00164741
0.0353711
0.00492283
0.0732055
0.0111484
0.0899176
0.0221397
0.0870463
0.0409446
0.0659156
0.0682463
0.0338222
0.11146
-0.0343505
0.167927
-0.120838
0.252636
-0.219947
-0.443853
0.361232
0.00175635
0.0336147
0.00575385
0.069208
0.0133468
0.0823247
0.0264062
0.0739869
0.0481559
0.044166
0.080636
0.00134199
0.13015
-0.0838645
0.197723
-0.188411
0.295069
-0.317292
-0.55337
0.404586
0.00168357
0.0319311
0.00613547
0.0647561
0.0148254
0.0736347
0.0298415
0.0589708
0.0547385
0.019269
0.0936973
-0.0376168
0.151251
-0.141418
0.231163
-0.268323
0.336887
-0.423016
-0.65679
0.440307
0.00146393
0.0304672
0.0061628
0.0600572
0.015806
0.0639915
0.0329638
0.041813
0.0618125
-0.00957972
0.10882
-0.0846241
0.176118
-0.208716
0.266446
-0.35865
0.373369
-0.529939
-0.749428
0.466006
0.00114633
0.0293209
0.00597809
0.0552255
0.0166199
0.0533497
0.0364816
0.0219514
0.0706935
-0.0437917
0.127087
-0.141017
0.204152
-0.285782
0.299925
-0.454423
0.400711
-0.630725
-0.829706
0.480989
0.000789787
0.0285311
0.00575961
0.0502556
0.0176782
0.0414311
0.0411911
-0.00156148
0.0824787
-0.0850793
0.148586
-0.207124
0.232847
-0.370043
0.327833
-0.54941
0.417541
-0.720433
-0.898145
0.48598
0.000457738
0.0280733
0.00570357
0.0450098
0.0194248
0.0277098
0.0478212
-0.0299579
0.0975665
-0.134825
0.172021
-0.281578
0.259029
-0.457051
0.347842
-0.638223
0.424569
-0.79716
-0.956611
0.483035
0.000210723
0.0278626
0.00600066
0.0392199
0.02228
0.0114305
0.0568461
-0.064524
0.115377
-0.193355
0.195102
-0.361303
0.280214
-0.542164
0.359472
-0.717481
0.423488
-0.861175
-1.00722
0.474097
9.68951e-05
0.0277657
0.00681625
0.0325005
0.0265798
-0.00833309
0.0683016
-0.106246
0.134459
-0.259513
0.215499
-0.442343
0.295084
-0.621749
0.363837
-0.786234
0.418299
-0.915637
-1.05006
0.46114
0.000143639
0.0276221
0.00827412
0.02437
0.0325106
-0.0325696
0.0816886
-0.155424
0.152984
-0.330809
0.231642
-0.521
0.303577
-0.693684
0.362295
-0.844952
0.409955
-0.963297
-1.08692
0.44681
0.000369525
0.0272526
0.0104588
0.0142807
0.0400442
-0.062155
0.096053
-0.211432
0.169332
-0.404088
0.242912
-0.59458
0.306427
-0.757199
0.356682
-0.895207
0.397394
-1.00401
-1.11853
0.429004
0.000781412
0.0264711
0.0134175
0.00164461
0.0489033
-0.0976408
0.110224
-0.272753
0.182442
-0.476306
0.249418
-0.661556
0.304717
-0.812498
0.347594
-0.938084
0.382907
-1.03932
-1.14719
0.411574
0.00137417
0.025097
0.0171513
-0.0141325
0.0586009
-0.13909
0.123101
-0.337254
0.191876
-0.54508
0.251663
-0.721343
0.299358
-0.860193
0.336137
-0.974863
0.367026
-1.07021
-1.17286
0.392692
0.00214386
0.0229531
0.0215961
-0.0335847
0.0685347
-0.186029
0.133873
-0.402592
0.197669
-0.608877
0.250286
-0.773959
0.291232
-0.90114
0.32292
-1.00655
0.350156
-1.09745
-1.19633
0.373621
0.00309971
0.0198534
0.0266119
-0.0570969
0.0780739
-0.237491
0.142108
-0.466626
0.200122
-0.666891
0.245948
-0.819786
0.281023
-0.936214
0.30849
-1.03402
0.332711
-1.12167
-1.21773
0.354114
0.00426792
0.0155855
0.0319947
-0.0848237
0.0866326
-0.292129
0.147707
-0.5277
0.199654
-0.718838
0.239254
-0.859385
0.269288
-0.966248
0.293218
-1.05795
0.314838
-1.14329
-1.23729
0.334401
0.00568066
0.00990482
0.0375071
-0.11665
0.0937639
-0.348386
0.150788
-0.584724
0.196716
-0.764766
0.230724
-0.893393
0.256449
-0.991973
0.277375
-1.07887
0.296704
-1.16262
-1.25509
0.314501
0.00735142
0.0025534
0.042913
-0.152212
0.0992248
-0.404698
0.151577
-0.637076
0.191743
-0.804932
0.220793
-0.922443
0.242829
-1.01401
0.261149
-1.09719
0.278383
-1.17985
-1.27116
0.294458
0.0092524
-0.00669899
0.0479898
-0.190949
0.102953
-0.459661
0.150349
-0.684472
0.18513
-0.839714
0.209813
-0.947126
0.228664
-1.03286
0.244669
-1.1132
0.259938
-1.19512
-1.28552
0.274299
0.0113138
-0.0180128
0.0525258
-0.232161
0.105005
-0.51214
0.147385
-0.726851
0.177217
-0.869546
0.198061
-0.96797
0.214129
-1.04893
0.228026
-1.1271
0.241407
-1.2085
-1.29816
0.254042
0.0134412
-0.031454
0.0563323
-0.275052
0.105502
-0.56131
0.142955
-0.764305
0.168294
-0.894885
0.185756
-0.985432
0.199351
-1.06252
0.211283
-1.13903
0.22282
-1.22004
-1.30905
0.233709
0.0155413
-0.0469953
0.0592666
-0.318778
0.104598
-0.606641
0.137312
-0.797019
0.158595
-0.916168
0.173064
-0.999901
0.184421
-1.07388
0.194484
-1.14909
0.2042
-1.22975
-1.31816
0.213317
0.0175374
-0.0645328
0.0612495
-0.36249
0.102462
-0.647853
0.13068
-0.825237
0.148315
-0.933803
0.160114
-1.0117
0.169407
-1.08317
0.177658
-1.15734
0.185567
-1.23766
-1.32549
0.192887
0.0193682
-0.0839009
0.0622633
-0.405385
0.0992637
-0.684854
0.123262
-0.849235
0.137611
-0.948152
0.147002
-1.02109
0.154358
-1.09053
0.160834
-1.16382
0.166939
-1.24377
-1.33099
0.172441
0.0209794
-0.10488
0.0623376
-0.446743
0.0951632
-0.717679
0.11523
-0.869302
0.126613
-0.959536
0.133802
-1.02828
0.139313
-1.09604
0.144036
-1.16854
0.148335
-1.24807
-1.33465
0.152
0.0223181
-0.127198
0.0615287
-0.485954
0.0903069
-0.746458
0.106733
-0.885728
0.115423
-0.968225
0.120572
-1.03343
0.124301
-1.09977
0.127283
-1.17152
0.129774
-1.25056
-1.33647
0.131589
0.0233352
-0.150534
0.059898
-0.522516
0.0848267
-0.771386
0.0978979
-0.8988
0.104123
-0.974449
0.107356
-1.03666
0.109348
-1.10176
0.110597
-1.17277
0.111278
-1.25124
-1.33642
0.111234
0.0239931
-0.174527
0.0576336
-0.556157
0.0788463
-0.792599
0.0888252
-0.908779
0.092779
-0.978403
0.09419
-1.03807
0.0944747
-1.10204
0.0939937
-1.17229
0.0928669
-1.25011
-1.33453
0.0909718
0.0242713
-0.198798
0.0548284
-0.586714
0.0724769
-0.810247
0.0795992
-0.915901
0.0814428
-0.980247
0.0811016
-1.03773
0.0797012
-1.10064
0.0774903
-1.17008
0.0745619
-1.24718
-1.33082
0.0708485
0.024167
-0.222965
0.0515508
-0.614098
0.0658143
-0.824511
0.0702899
-0.920376
0.070155
-0.980112
0.0681148
-1.03569
0.0650456
-1.09757
0.0611067
-1.16614
0.0563729
-1.24245
-1.32526
0.0508147
0.0236952
-0.24666
0.0478757
-0.638278
0.0589431
-0.835578
0.0609554
-0.922389
0.0589484
-0.978105
0.05525
-1.03199
0.0505246
-1.09285
0.0448651
-1.16048
0.0383319
-1.23592
-1.3178
0.0308787
0.0228855
-0.269546
0.043876
-0.659269
0.051926
-0.843628
0.0516423
-0.922105
0.0478495
-0.974312
0.0425252
-1.02667
0.0361527
-1.08648
0.0287834
-1.15311
0.0204846
-1.22762
-1.30838
0.0110577
0.0217778
-0.291323
0.0396203
-0.677111
0.0448136
-0.848821
0.0423884
-0.91968
0.0368807
-0.968804
0.0299568
-1.01975
0.0219442
-1.07846
0.0128587
-1.14403
0.00291777
-1.21768
-1.29693
-0.00853162
0.0204161
-0.31174
0.0351717
-0.691867
0.0376636
-0.851313
0.0332255
-0.915242
0.0260605
-0.961639
0.0175569
-1.01124
0.00791271
-1.06882
-0.00290162
-1.13321
-0.0145716
-1.20601
-1.28372
-0.0277752
0.0188452
-0.330585
0.0305877
-0.70361
0.0305232
-0.851249
0.024181
-0.9089
0.0154011
-0.952859
0.00532383
-1.00116
-0.00589317
-1.0576
-0.0182629
-1.12084
-0.031816
-1.19245
-1.26876
-0.0467841
0.0171074
-0.347692
0.0259195
-0.712422
0.0234313
-0.848761
0.0152776
-0.900746
0.00489469
-0.942476
-0.00665515
-0.989615
-0.0194406
-1.04482
-0.0334434
-1.10684
-0.0487843
-1.17711
-1.25201
-0.0655294
0.0152413
-0.362934
0.021212
-0.718392
0.0164193
-0.843968
0.0065286
-0.890855
-0.00535239
-0.930595
-0.0183916
-0.976576
-0.0327584
-1.03045
-0.0483865
-1.09121
-0.0654657
-1.16003
-1.2335
-0.0839792
0.0132822
-0.376216
0.0165045
-0.721615
0.00950876
-0.836972
-0.00204545
-0.879301
-0.0153346
-0.917306
-0.0299147
-0.961996
-0.0458269
-1.01454
-0.0630648
-1.07398
-0.0818458
-1.14125
-1.21323
-0.102111
0.0112621
-0.387478
0.0118325
-0.722185
0.00269223
-0.827832
-0.010347
-0.866262
-0.02512
-0.902533
-0.0411988
-0.945917
-0.0586313
-0.997105
-0.0774565
-1.05515
-0.0979073
-1.1208
-1.19124
-0.119899
0.00920836
-0.396686
0.00723151
-0.720208
-0.00388153
-0.816719
-0.0184734
-0.85167
-0.0346813
-0.886326
-0.0522289
-0.928369
-0.0711571
-0.978177
-0.0915423
-1.03477
-0.113632
-1.09871
-1.16755
-0.13732
0.00714298
-0.403829
0.00274458
-0.71581
-0.010236
-0.803738
-0.0263901
-0.835516
-0.0440057
-0.86871
-0.0629925
-0.909382
-0.0833902
-0.957779
-0.105305
-1.01285
-0.129004
-1.07501
-1.1422
-0.154355
0.0050845
-0.408914
-0.00169868
-0.709027
-0.0164401
-0.788997
-0.0340841
-0.817872
-0.0530832
-0.849711
-0.0734784
-0.888987
-0.095317
-0.93594
-0.118731
-0.989437
-0.144005
-1.04974
-1.11523
-0.170981
0.00305633
-0.41197
-0.00614955
-0.699821
-0.0224738
-0.772673
-0.0415448
-0.798801
-0.0619034
-0.829352
-0.0836759
-0.867215
-0.106924
-0.912692
-0.131804
-0.964557
-0.158622
-1.02292
-1.08668
-0.187172
0.0010997
-0.41307
-0.0104066
-0.688314
-0.0283238
-0.754755
-0.0487654
-0.778359
-0.0704571
-0.80766
-0.0935746
-0.844097
-0.1182
-0.888067
-0.144513
-0.938244
-0.172834
-0.994598
-1.05661
-0.202902
-0.000895376
-0.412174
-0.0145002
-0.67471
-0.03398
-0.735276
-0.0557412
-0.756598
-0.0787354
-0.784666
-0.103164
-0.819668
-0.129132
-0.862099
-0.156846
-0.91053
-0.186629
-0.964816
-1.02506
-0.218176
-0.00297055
-0.409204
-0.0184408
-0.659239
-0.0394306
-0.714286
-0.0624671
-0.733562
-0.0867299
-0.760403
-0.112435
-0.793964
-0.139712
-0.834821
-0.168806
-0.881436
-0.199998
-0.933624
-0.992097
-0.232963
-0.00493356
-0.40427
-0.0222272
-0.641946
-0.0446667
-0.691846
-0.0689378
-0.70929
-0.0944328
-0.734908
-0.121376
-0.767021
-0.149933
-0.806265
-0.180388
-0.85098
-0.212901
-0.901111
-0.957972
-0.247026
-0.00681145
-0.397459
-0.0258574
-0.6229
-0.0496831
-0.668021
-0.0751483
-0.683825
-0.101836
-0.70822
-0.12998
-0.738877
-0.159783
-0.776462
-0.191543
-0.819221
-0.225347
-0.867307
-0.923104
-0.260215
-0.00860858
-0.38885
-0.0293286
-0.60218
-0.0544758
-0.642874
-0.0810937
-0.657207
-0.108934
-0.68038
-0.138239
-0.709572
-0.169248
-0.745453
-0.202213
-0.786256
-0.23681
-0.832709
-0.88605
-0.273864
-0.0103251
-0.378525
-0.032638
-0.579867
-0.0590419
-0.61647
-0.0867697
-0.629479
-0.11572
-0.651429
-0.146146
-0.679146
-0.178305
-0.713293
-0.212363
-0.752199
-0.248208
-0.796864
-0.847405
-0.286853
-0.0119598
-0.366565
-0.0357833
-0.556043
-0.0633791
-0.588874
-0.092172
-0.600687
-0.122188
-0.621414
-0.153691
-0.647642
-0.186956
-0.680029
-0.222133
-0.717022
-0.259338
-0.759658
-0.807429
-0.299315
-0.0135111
-0.353054
-0.0387618
-0.530793
-0.0674853
-0.56015
-0.0972966
-0.570875
-0.128331
-0.590379
-0.160865
-0.615109
-0.195175
-0.645719
-0.231419
-0.680778
-0.26983
-0.721247
-0.766202
-0.311057
-0.0149769
-0.338077
-0.0415716
-0.504198
-0.0713584
-0.530364
-0.10214
-0.540094
-0.134145
-0.558374
-0.167659
-0.581594
-0.202969
-0.610409
-0.240255
-0.643493
-0.279807
-0.681695
-0.723843
-0.322166
-0.0163553
-0.321722
-0.0442107
-0.476343
-0.0749967
-0.499578
-0.106698
-0.508393
-0.139623
-0.525449
-0.174066
-0.547151
-0.210322
-0.574152
-0.248596
-0.605219
-0.289211
-0.641079
-0.680424
-0.33263
-0.017644
-0.304078
-0.0466775
-0.447309
-0.0783986
-0.467856
-0.110968
-0.475824
-0.14476
-0.491656
-0.180079
-0.511833
-0.21723
-0.537001
-0.256439
-0.56601
-0.298047
-0.599471
-0.636016
-0.342455
-0.0188403
-0.285238
-0.0489706
-0.417179
-0.0815623
-0.435265
-0.114946
-0.44244
-0.149552
-0.45705
-0.185691
-0.475694
-0.223681
-0.499012
-0.263766
-0.525924
-0.3063
-0.556937
-0.590684
-0.351632
-0.0199404
-0.265297
-0.0510886
-0.38603
-0.0844866
-0.401867
-0.118629
-0.408298
-0.153993
-0.421686
-0.190896
-0.43879
-0.229668
-0.460241
-0.27057
-0.485022
-0.31396
-0.513547
-0.544494
-0.36015
-0.020938
-0.244359
-0.0530298
-0.353939
-0.0871703
-0.367726
-0.122015
-0.373453
-0.15808
-0.385622
-0.195688
-0.401182
-0.235182
-0.420746
-0.276839
-0.443366
-0.321016
-0.46937
-0.497512
-0.367998
-0.0218178
-0.222542
-0.0547929
-0.320963
-0.0896132
-0.332906
-0.125102
-0.337964
-0.161807
-0.348916
-0.200061
-0.362929
-0.240218
-0.380589
-0.282564
-0.401019
-0.32746
-0.424474
-0.449808
-0.375164
-0.022621
-0.19992
-0.0563802
-0.287204
-0.0918149
-0.297471
-0.127886
-0.301893
-0.165172
-0.31163
-0.20401
-0.324091
-0.244768
-0.339832
-0.287739
-0.358048
-0.333282
-0.378931
-0.401452
-0.381639
-0.0233546
-0.176566
-0.0577928
-0.252766
-0.0937749
-0.261489
-0.130366
-0.265302
-0.168172
-0.273824
-0.207532
-0.284731
-0.248826
-0.298537
-0.292356
-0.314518
-0.338475
-0.332813
-0.352516
-0.387411
-0.0240043
-0.152562
-0.0590304
-0.21774
-0.0954922
-0.225027
-0.13254
-0.228254
-0.170803
-0.235562
-0.210621
-0.244912
-0.252388
-0.25677
-0.296409
-0.270496
-0.34303
-0.286192
-0.303075
-0.392471
-0.024565
-0.127997
-0.0600922
-0.182213
-0.096966
-0.188154
-0.134406
-0.190814
-0.173062
-0.196906
-0.213275
-0.204699
-0.255448
-0.214597
-0.29989
-0.226054
-0.346942
-0.23914
-0.253204
-0.396813
-0.0250342
-0.102962
-0.0609779
-0.146269
-0.0981954
-0.150936
-0.135964
-0.153046
-0.174948
-0.157921
-0.215491
-0.164156
-0.258003
-0.172086
-0.302795
-0.181262
-0.350203
-0.191732
-0.202977
-0.40043
-0.0254106
-0.0775518
-0.061687
-0.109993
-0.0991798
-0.113443
-0.137211
-0.115015
-0.176459
-0.118672
-0.217267
-0.123349
-0.26005
-0.129302
-0.305122
-0.136191
-0.352811
-0.144043
-0.15247
-0.403319
-0.0256933
-0.0518585
-0.0622191
-0.0734668
-0.0999186
-0.0757438
-0.138147
-0.0767863
-0.177594
-0.0792251
-0.2186
-0.0823432
-0.261587
-0.0863146
-0.306868
-0.0909096
-0.354767
-0.0961442
-0.101757
-0.40548
-0.025882
-0.0259764
-0.0625739
-0.036775
-0.100411
-0.0379064
-0.138772
-0.0384261
-0.178351
-0.0396457
-0.219489
-0.0412047
-0.262613
-0.0431913
-0.308033
-0.0454896
-0.35607
-0.0481066
-0.0509108
-0.406916
-0.0259765
1.589e-10
-0.0627514
2.22799e-10
-0.100658
2.21947e-10
-0.139084
2.15236e-10
-0.17873
2.12533e-10
-0.219934
2.09588e-10
-0.263126
2.07524e-10
-0.308615
2.05039e-10
-0.356722
2.03073e-10
1.99803e-10
-0.407633
-0.0259765
0.0259765
-0.0627514
0.036775
-0.100658
0.0379064
-0.139084
0.0384261
-0.17873
0.0396457
-0.219934
0.0412047
-0.263126
0.0431913
-0.308615
0.0454896
-0.356722
0.0481066
0.0509108
-0.407633
-0.025882
0.0518585
-0.0625739
0.0734668
-0.100411
0.0757438
-0.138772
0.0767863
-0.178351
0.0792251
-0.219489
0.0823432
-0.262613
0.0863146
-0.308033
0.0909096
-0.35607
0.0961442
0.101757
-0.406916
-0.0256933
0.0775518
-0.0622191
0.109993
-0.0999186
0.113443
-0.138147
0.115015
-0.177594
0.118672
-0.2186
0.123349
-0.261587
0.129302
-0.306868
0.136191
-0.354767
0.144043
0.15247
-0.40548
-0.0254106
0.102962
-0.061687
0.146269
-0.0991798
0.150936
-0.137211
0.153046
-0.176459
0.157921
-0.217267
0.164156
-0.26005
0.172086
-0.305122
0.181262
-0.352811
0.191732
0.202977
-0.403319
-0.0250342
0.127997
-0.0609779
0.182213
-0.0981954
0.188154
-0.135964
0.190814
-0.174948
0.196906
-0.215491
0.204699
-0.258003
0.214597
-0.302795
0.226054
-0.350203
0.23914
0.253204
-0.40043
-0.024565
0.152562
-0.0600922
0.21774
-0.096966
0.225027
-0.134406
0.228254
-0.173062
0.235562
-0.213275
0.244912
-0.255448
0.25677
-0.29989
0.270496
-0.346942
0.286192
0.303075
-0.396813
-0.0240043
0.176566
-0.0590304
0.252766
-0.0954922
0.261489
-0.13254
0.265302
-0.170803
0.273824
-0.210621
0.284731
-0.252388
0.298537
-0.296409
0.314518
-0.34303
0.332813
0.352516
-0.392471
-0.0233546
0.19992
-0.0577928
0.287204
-0.0937749
0.297471
-0.130366
0.301893
-0.168172
0.31163
-0.207532
0.324091
-0.248826
0.339832
-0.292356
0.358048
-0.338475
0.378931
0.401452
-0.387411
-0.022621
0.222542
-0.0563802
0.320963
-0.0918149
0.332906
-0.127886
0.337964
-0.165172
0.348916
-0.20401
0.362929
-0.244768
0.380589
-0.287739
0.401019
-0.333282
0.424474
0.449808
-0.381639
-0.0218178
0.244359
-0.0547929
0.353939
-0.0896132
0.367726
-0.125102
0.373453
-0.161807
0.385622
-0.200061
0.401182
-0.240218
0.420746
-0.282564
0.443366
-0.32746
0.46937
0.497512
-0.375164
-0.020938
0.265297
-0.0530298
0.38603
-0.0871703
0.401867
-0.122015
0.408298
-0.15808
0.421686
-0.195688
0.43879
-0.235182
0.460241
-0.276839
0.485022
-0.321016
0.513547
0.544494
-0.367998
-0.0199404
0.285238
-0.0510886
0.417179
-0.0844866
0.435265
-0.118629
0.44244
-0.153993
0.45705
-0.190896
0.475694
-0.229668
0.499012
-0.27057
0.525924
-0.31396
0.556937
0.590684
-0.36015
-0.0188403
0.304078
-0.0489706
0.447309
-0.0815623
0.467856
-0.114946
0.475824
-0.149552
0.491656
-0.185691
0.511833
-0.223681
0.537001
-0.263766
0.56601
-0.3063
0.599471
0.636016
-0.351632
-0.017644
0.321722
-0.0466775
0.476343
-0.0783986
0.499578
-0.110968
0.508393
-0.14476
0.525449
-0.180079
0.547151
-0.21723
0.574152
-0.256439
0.605219
-0.298047
0.641079
0.680424
-0.342455
-0.0163553
0.338077
-0.0442107
0.504198
-0.0749967
0.530364
-0.106698
0.540094
-0.139623
0.558374
-0.174066
0.581594
-0.210322
0.610409
-0.248596
0.643493
-0.289211
0.681695
0.723843
-0.33263
-0.0149769
0.353054
-0.0415716
0.530793
-0.0713584
0.56015
-0.10214
0.570875
-0.134145
0.590379
-0.167659
0.615109
-0.202969
0.645719
-0.240255
0.680778
-0.279807
0.721247
0.766202
-0.322166
-0.0135111
0.366565
-0.0387618
0.556043
-0.0674853
0.588874
-0.0972966
0.600687
-0.128331
0.621414
-0.160865
0.647642
-0.195175
0.680029
-0.231419
0.717022
-0.26983
0.759658
0.807429
-0.311057
-0.0119598
0.378525
-0.0357833
0.579867
-0.0633791
0.61647
-0.092172
0.629479
-0.122188
0.651429
-0.153691
0.679146
-0.186956
0.713293
-0.222133
0.752199
-0.259338
0.796864
0.847405
-0.299315
-0.0103251
0.38885
-0.032638
0.60218
-0.0590419
0.642874
-0.0867697
0.657207
-0.11572
0.68038
-0.146146
0.709572
-0.178305
0.745453
-0.212363
0.786256
-0.248208
0.832709
0.88605
-0.286853
-0.00860858
0.397459
-0.0293286
0.6229
-0.0544758
0.668021
-0.0810937
0.683825
-0.108934
0.70822
-0.138239
0.738877
-0.169248
0.776462
-0.202213
0.819221
-0.23681
0.867307
0.923104
-0.273864
-0.00681145
0.40427
-0.0258574
0.641946
-0.0496831
0.691846
-0.0751483
0.70929
-0.101836
0.734908
-0.12998
0.767021
-0.159783
0.806265
-0.191543
0.85098
-0.225347
0.901111
0.957972
-0.260215
-0.00493356
0.409204
-0.0222272
0.659239
-0.0446667
0.714286
-0.0689378
0.733562
-0.0944328
0.760403
-0.121376
0.793964
-0.149933
0.834821
-0.180388
0.881436
-0.212901
0.933624
0.992097
-0.247026
-0.00297055
0.412174
-0.0184408
0.67471
-0.0394306
0.735276
-0.0624671
0.756598
-0.0867299
0.784666
-0.112435
0.819668
-0.139712
0.862099
-0.168806
0.91053
-0.199998
0.964816
1.02506
-0.232963
-0.000895376
0.41307
-0.0145002
0.688314
-0.03398
0.754755
-0.0557412
0.778359
-0.0787354
0.80766
-0.103164
0.844097
-0.129132
0.888067
-0.156846
0.938244
-0.186629
0.994598
1.05661
-0.218176
0.0010997
0.41197
-0.0104066
0.699821
-0.0283238
0.772673
-0.0487654
0.798801
-0.0704571
0.829352
-0.0935746
0.867215
-0.1182
0.912692
-0.144513
0.964557
-0.172834
1.02292
1.08668
-0.202902
0.00305633
0.408914
-0.00614955
0.709027
-0.0224738
0.788997
-0.0415448
0.817872
-0.0619034
0.849711
-0.0836759
0.888987
-0.106924
0.93594
-0.131804
0.989437
-0.158622
1.04974
1.11523
-0.187172
0.0050845
0.403829
-0.00169868
0.71581
-0.0164401
0.803738
-0.0340841
0.835516
-0.0530832
0.86871
-0.0734784
0.909382
-0.095317
0.957779
-0.118731
1.01285
-0.144005
1.07501
1.1422
-0.170981
0.00714298
0.396686
0.00274458
0.720208
-0.010236
0.816719
-0.0263901
0.85167
-0.0440057
0.886326
-0.0629925
0.928369
-0.0833902
0.978177
-0.105305
1.03477
-0.129004
1.09871
1.16755
-0.154355
0.00920836
0.387478
0.00723151
0.722185
-0.00388153
0.827832
-0.0184734
0.866262
-0.0346813
0.902533
-0.0522289
0.945917
-0.0711571
0.997105
-0.0915423
1.05515
-0.113632
1.1208
1.19124
-0.13732
0.0112621
0.376216
0.0118325
0.721615
0.00269223
0.836972
-0.010347
0.879301
-0.02512
0.917306
-0.0411988
0.961996
-0.0586313
1.01454
-0.0774565
1.07398
-0.0979073
1.14125
1.21323
-0.119899
0.0132822
0.362934
0.0165045
0.718392
0.00950876
0.843968
-0.00204545
0.890855
-0.0153346
0.930595
-0.0299147
0.976576
-0.0458269
1.03045
-0.0630648
1.09121
-0.0818458
1.16003
1.2335
-0.102111
0.0152413
0.347692
0.021212
0.712422
0.0164193
0.848761
0.0065286
0.900746
-0.00535239
0.942476
-0.0183916
0.989615
-0.0327584
1.04482
-0.0483865
1.10684
-0.0654657
1.17711
1.25201
-0.0839792
0.0171074
0.330585
0.0259195
0.70361
0.0234313
0.851249
0.0152776
0.9089
0.00489469
0.952859
-0.00665515
1.00116
-0.0194406
1.0576
-0.0334434
1.12084
-0.0487843
1.19245
1.26876
-0.0655294
0.0188452
0.31174
0.0305877
0.691867
0.0305232
0.851313
0.024181
0.915242
0.0154011
0.961639
0.00532383
1.01124
-0.00589317
1.06882
-0.0182629
1.13321
-0.031816
1.20601
1.28372
-0.0467841
0.0204161
0.291323
0.0351717
0.677111
0.0376636
0.848821
0.0332255
0.91968
0.0260605
0.968804
0.0175569
1.01975
0.00791271
1.07846
-0.00290162
1.14403
-0.0145716
1.21768
1.29693
-0.0277752
0.0217778
0.269546
0.0396203
0.659269
0.0448136
0.843628
0.0423884
0.922105
0.0368807
0.974312
0.0299568
1.02667
0.0219442
1.08648
0.0128587
1.15311
0.00291777
1.22762
1.30838
-0.00853162
0.0228855
0.24666
0.043876
0.638278
0.051926
0.835578
0.0516423
0.922389
0.0478495
0.978105
0.0425252
1.03199
0.0361527
1.09285
0.0287834
1.16048
0.0204846
1.23592
1.3178
0.0110577
0.0236952
0.222965
0.0478757
0.614098
0.0589431
0.824511
0.0609554
0.920376
0.0589484
0.980112
0.05525
1.03569
0.0505246
1.09757
0.0448651
1.16614
0.0383319
1.24245
1.32526
0.0308787
0.024167
0.198798
0.0515508
0.586714
0.0658143
0.810247
0.0702899
0.915901
0.070155
0.980247
0.0681148
1.03773
0.0650456
1.10064
0.0611067
1.17008
0.0563729
1.24718
1.33082
0.0508147
0.0242713
0.174527
0.0548284
0.556157
0.0724769
0.792599
0.0795992
0.908779
0.0814428
0.978403
0.0811016
1.03807
0.0797012
1.10204
0.0774903
1.17229
0.0745619
1.25011
1.33453
0.0708485
0.0239931
0.150534
0.0576336
0.522516
0.0788463
0.771386
0.0888252
0.8988
0.092779
0.974449
0.09419
1.03666
0.0944747
1.10176
0.0939937
1.17277
0.0928669
1.25124
1.33642
0.0909718
0.0233352
0.127198
0.059898
0.485954
0.0848267
0.746458
0.0978979
0.885728
0.104123
0.968225
0.107356
1.03343
0.109348
1.09977
0.110597
1.17152
0.111278
1.25056
1.33647
0.111234
0.0223181
0.10488
0.0615287
0.446743
0.0903069
0.717679
0.106733
0.869302
0.115423
0.959536
0.120572
1.02828
0.124301
1.09604
0.127283
1.16854
0.129774
1.24807
1.33465
0.131589
0.0209794
0.0839009
0.0623376
0.405385
0.0951632
0.684854
0.11523
0.849235
0.126613
0.948152
0.133802
1.02109
0.139313
1.09053
0.144036
1.16382
0.148335
1.24377
1.33099
0.152
0.0193682
0.0645328
0.0622633
0.36249
0.0992637
0.647853
0.123262
0.825237
0.137611
0.933803
0.147002
1.0117
0.154358
1.08317
0.160834
1.15734
0.166939
1.23766
1.32549
0.172441
0.0175374
0.0469953
0.0612495
0.318778
0.102462
0.606641
0.13068
0.797019
0.148315
0.916168
0.160114
0.999901
0.169407
1.07388
0.177658
1.14909
0.185567
1.22975
1.31816
0.192887
0.0155413
0.031454
0.0592666
0.275052
0.104598
0.56131
0.137312
0.764305
0.158595
0.894885
0.173064
0.985432
0.184421
1.06252
0.194484
1.13903
0.2042
1.22004
1.30905
0.213317
0.0134412
0.0180128
0.0563323
0.232161
0.105502
0.51214
0.142955
0.726851
0.168294
0.869546
0.185756
0.96797
0.199351
1.04893
0.211283
1.1271
0.22282
1.2085
1.29816
0.233709
0.0113138
0.00669899
0.0525258
0.190949
0.105005
0.459661
0.147385
0.684472
0.177217
0.839714
0.198061
0.947126
0.214129
1.03286
0.228026
1.1132
0.241407
1.19512
1.28552
0.254042
0.0092524
-0.0025534
0.0479898
0.152212
0.102953
0.404698
0.150349
0.637076
0.18513
0.804932
0.209813
0.922443
0.228664
1.01401
0.244669
1.09719
0.259938
1.17985
1.27116
0.274299
0.00735142
-0.00990482
0.042913
0.11665
0.0992248
0.348386
0.151577
0.584724
0.191743
0.764766
0.220793
0.893393
0.242829
0.991973
0.261149
1.07887
0.278383
1.16262
1.25509
0.294458
0.00568066
-0.0155855
0.0375071
0.0848237
0.0937639
0.292129
0.150788
0.5277
0.196716
0.718838
0.230724
0.859385
0.256449
0.966248
0.277375
1.05795
0.296704
1.14329
1.23729
0.314501
0.00426792
-0.0198534
0.0319947
0.0570969
0.0866326
0.237491
0.147707
0.466626
0.199654
0.666891
0.239254
0.819786
0.269288
0.936214
0.293218
1.03402
0.314838
1.12167
1.21773
0.334401
0.00309971
-0.0229531
0.0266119
0.0335847
0.0780739
0.186029
0.142108
0.402592
0.200122
0.608877
0.245948
0.773959
0.281023
0.90114
0.30849
1.00655
0.332711
1.09745
1.19633
0.354114
0.00214386
-0.025097
0.0215961
0.0141325
0.0685347
0.13909
0.133873
0.337254
0.197669
0.54508
0.250286
0.721343
0.291232
0.860193
0.32292
0.974863
0.350156
1.07021
1.17286
0.373621
0.00137417
-0.0264711
0.0171513
-0.00164461
0.0586009
0.0976408
0.123101
0.272753
0.191876
0.476306
0.251663
0.661556
0.299358
0.812498
0.336137
0.938084
0.367026
1.03932
1.14719
0.392692
0.000781412
-0.0272526
0.0134175
-0.0142807
0.0489033
0.062155
0.110224
0.211432
0.182442
0.404088
0.249418
0.59458
0.304717
0.757199
0.347594
0.895207
0.382907
1.00401
1.11853
0.411574
0.000369525
-0.0276221
0.0104588
-0.02437
0.0400442
0.0325696
0.096053
0.155424
0.169332
0.330809
0.242912
0.521
0.306427
0.693684
0.356682
0.844952
0.397394
0.963297
1.08692
0.429004
0.000143639
-0.0277657
0.00827412
-0.0325005
0.0325106
0.00833309
0.0816886
0.106246
0.152984
0.259513
0.231642
0.442343
0.303577
0.621749
0.362295
0.786234
0.409955
0.915637
1.05006
0.44681
9.68951e-05
-0.0278626
0.00681625
-0.0392199
0.0265798
-0.0114305
0.0683016
0.064524
0.134459
0.193355
0.215499
0.361303
0.295084
0.542164
0.363837
0.717481
0.418299
0.861175
1.00722
0.46114
0.000210723
-0.0280733
0.00600066
-0.0450098
0.02228
-0.0277098
0.0568461
0.0299578
0.115377
0.134825
0.195102
0.281578
0.280214
0.457051
0.359472
0.638223
0.423488
0.79716
0.956611
0.474097
0.000457738
-0.0285311
0.00570357
-0.0502556
0.0194248
-0.0414311
0.0478212
0.00156148
0.0975665
0.0850793
0.172021
0.207124
0.259029
0.370043
0.347842
0.54941
0.424569
0.720433
0.898145
0.483035
0.000789787
-0.0293209
0.00575961
-0.0552255
0.0176782
-0.0533497
0.0411911
-0.0219514
0.0824787
0.0437917
0.148586
0.141017
0.232847
0.285782
0.327833
0.454423
0.417541
0.630725
0.829706
0.48598
0.00114633
-0.0304672
0.00597809
-0.0600572
0.0166199
-0.0639915
0.0364816
-0.041813
0.0706935
0.00957971
0.127087
0.0846241
0.204152
0.208716
0.299925
0.35865
0.400711
0.529939
0.749428
0.480989
0.00146393
-0.0319311
0.0061628
-0.0647561
0.015806
-0.0736347
0.0329638
-0.0589708
0.0618125
-0.019269
0.10882
0.0376168
0.176118
0.141418
0.266446
0.268323
0.373369
0.423016
0.65679
0.466006
0.00168357
-0.0336147
0.00613547
-0.069208
0.0148254
-0.0823247
0.0298415
-0.0739869
0.0547385
-0.044166
0.0936973
-0.00134199
0.151251
0.0838645
0.231163
0.188411
0.336887
0.317292
0.55337
0.440307
0.00175635
-0.0353711
0.00575385
-0.0732055
0.0133468
-0.0899176
0.0264062
-0.0870463
0.0481559
-0.0659156
0.080636
-0.0338222
0.13015
0.0343505
0.197723
0.120838
0.295069
0.219947
0.443853
0.404586
0.00164741
-0.0370185
0.00492283
-0.0764809
0.0111484
-0.0961432
0.0221397
-0.0980376
0.0409446
-0.0847205
0.0682463
-0.0611239
0.11146
-0.00886307
0.167927
0.0643703
0.252636
0.135238
0.335256
0.361232
0.00133815
-0.0383566
0.00359894
-0.0787417
0.00812629
-0.100671
0.0167539
-0.106665
0.0324112
-0.100378
0.0552899
-0.0840026
0.0929921
-0.0465653
0.141072
0.01629
0.212542
0.0637683
0.234543
0.313255
0.000827055
-0.0391837
0.00178912
-0.0797038
0.00428818
-0.10317
0.0101752
-0.112552
0.0222942
-0.112497
0.0408828
-0.102591
0.0729444
-0.0786269
0.114739
-0.0255048
0.174549
0.00395831
0.146227
0.262865
0.000129683
-0.0393133
-0.000451134
-0.079123
-0.000251029
-0.10337
0.0024857
-0.115289
0.0106856
-0.120697
0.0245813
-0.116487
0.0504126
-0.104458