/*--------------------------------*- C++ -*----------------------------------*\
  =========                 |
  \\      /  F ield         | OpenFOAM: The Open Source CFD Toolbox
   \\    /   O peration     | Website:  https://openfoam.org
    \\  /    A nd           | Version:  7
     \\/     M anipulation  |
\*---------------------------------------------------------------------------*/
FoamFile
{
    version     2.0;
    format      ascii;
    class       volScalarField;
    location    "1.6";
    object      rho;
}
// * * * * * * * * * * * * * * * * * * * * * * * * * * * * * * * * * * * * * //

dimensions      [1 -3 0 0 0 0 0];

internalField   nonuniform List<scalar> 
64512
(
1.40001
1.40001
1.40001
1.40001
1.40001
1.40001
1.40001
1.40001
1.40001
1.40001
1.40001
1.40001
1.40001
1.40001
1.40001
1.40001
1.40001
1.40001
1.40001
1.40001
1.40001
1.40001
1.40001
1.40001
1.40001
1.40001
1.40001
1.40001
1.40001
1.40001
1.40001
1.40001
1.40001
1.40001
1.40001
1.40001
1.40001
1.40001
1.40001
1.40001
1.40001
1.40001
1.40001
1.40001
1.40001
1.40001
1.40001
1.40001
1.40001
1.40001
1.40001
3.92813
5.45367
5.46934
5.48699
5.51077
5.53484
5.55782
5.57839
5.59644
5.61286
5.62827
5.64213
5.65374
5.66383
5.67633
5.69406
5.71436
5.73471
5.75519
5.77408
5.79251
5.8111
5.82734
5.84062
5.85013
5.85611
5.86008
5.86351
5.86812
5.87541
5.88532
5.89676
5.90891
5.92044
5.92912
5.93373
5.93504
5.93451
5.93243
5.92653
5.91132
5.88056
5.84054
5.80892
5.79664
1.40001
1.40001
1.40001
1.40001
1.40001
1.40001
1.40001
1.40001
1.40001
1.40001
1.40001
1.40001
1.40001
1.40001
1.40001
1.40001
1.40001
1.40001
1.40001
1.40001
1.40001
1.40001
1.40001
1.40001
1.40001
1.40001
1.40001
1.40001
1.40001
1.40001
1.40001
1.40001
1.40001
1.40001
1.40001
1.40001
1.40001
1.40001
1.40001
1.40001
1.40001
1.40001
1.40001
1.40001
1.40001
1.40001
1.40001
1.40001
1.40001
1.40001
1.40001
3.90781
5.44529
5.47007
5.48693
5.51073
5.5348
5.55768
5.57826
5.59638
5.61268
5.62779
5.6413
5.65265
5.66265
5.6752
5.69294
5.71331
5.73391
5.75472
5.77387
5.79241
5.81072
5.82652
5.83941
5.84909
5.85574
5.86031
5.86395
5.8684
5.87536
5.88512
5.89663
5.90876
5.91987
5.92784
5.93191
5.93313
5.93289
5.93122
5.92542
5.90999
5.87902
5.83918
5.80811
5.79622
1.40001
1.40001
1.40001
1.40001
1.40001
1.40001
1.40001
1.40001
1.40001
1.40001
1.40001
1.40001
1.40001
1.40001
1.40001
1.40001
1.40001
1.40001
1.40001
1.40001
1.40001
1.40001
1.40001
1.40001
1.40001
1.40001
1.40001
1.40001
1.40001
1.40001
1.40001
1.40001
1.40001
1.40001
1.40001
1.40001
1.40001
1.40001
1.40001
1.40001
1.40001
1.40001
1.40001
1.40001
1.40001
1.40001
1.40001
1.40001
1.40001
1.40001
1.40001
3.86938
5.43878
5.46856
5.48517
5.50914
5.53328
5.55641
5.57732
5.59574
5.6121
5.62677
5.63963
5.65047
5.66024
5.67297
5.69091
5.71147
5.73239
5.7537
5.77325
5.79197
5.80978
5.82485
5.83711
5.847
5.85453
5.86002
5.86406
5.86843
5.87521
5.88499
5.89658
5.90846
5.91877
5.92568
5.92908
5.93033
5.93058
5.92931
5.92345
5.90745
5.87609
5.83662
5.80663
5.79558
1.40001
1.40001
1.40001
1.40001
1.40001
1.40001
1.40001
1.40001
1.40001
1.40001
1.40001
1.40001
1.40001
1.40001
1.40001
1.40001
1.40001
1.40001
1.40001
1.40001
1.40001
1.40001
1.40001
1.40001
1.40001
1.40001
1.40001
1.40001
1.40001
1.40001
1.40001
1.40001
1.40001
1.40001
1.40001
1.40001
1.40001
1.40001
1.40001
1.40001
1.40001
1.40001
1.40001
1.40001
1.40001
1.40001
1.40001
1.40001
1.40001
1.40001
1.40001
3.81285
5.43153
5.46608
5.48223
5.50613
5.53025
5.55374
5.57528
5.59428
5.61088
5.62524
5.63745
5.64766
5.65704
5.66991
5.68809
5.70894
5.73026
5.75205
5.77198
5.79092
5.80828
5.8226
5.83421
5.84421
5.85256
5.859
5.8636
5.86813
5.87498
5.88486
5.89635
5.90758
5.9167
5.92235
5.92516
5.92673
5.92759
5.92665
5.92053
5.90366
5.87177
5.83276
5.80405
5.79399
1.40001
1.40001
1.40001
1.40001
1.40001
1.40001
1.40001
1.40001
1.40001
1.40001
1.40001
1.40001
1.40001
1.40001
1.40001
1.40001
1.40001
1.40001
1.40001
1.40001
1.40001
1.40001
1.40001
1.40001
1.40001
1.40001
1.40001
1.40001
1.40001
1.40001
1.40001
1.40001
1.40001
1.40001
1.40001
1.40001
1.40001
1.40001
1.40001
1.40001
1.40001
1.40001
1.40001
1.40001
1.40001
1.40001
1.40001
1.40001
1.40001
1.40001
1.40001
3.73708
5.42418
5.4626
5.47825
5.50181
5.5256
5.54928
5.57159
5.59157
5.60891
5.62339
5.63522
5.64488
5.65395
5.66696
5.6854
5.70656
5.72819
5.75027
5.77036
5.78943
5.80635
5.81992
5.83079
5.8407
5.84958
5.85677
5.86194
5.86693
5.87419
5.88435
5.89564
5.90597
5.9137
5.91814
5.92062
5.92272
5.92422
5.92343
5.91688
5.89899
5.86652
5.82795
5.80041
5.79126
1.40001
1.40001
1.40001
1.40001
1.40001
1.40001
1.40001
1.40001
1.40001
1.40001
1.40001
1.40001
1.40001
1.40001
1.40001
1.40001
1.40001
1.40001
1.40001
1.40001
1.40001
1.40001
1.40001
1.40001
1.40001
1.40001
1.40001
1.40001
1.40001
1.40001
1.40001
1.40001
1.40001
1.40001
1.40001
1.40001
1.40001
1.40001
1.40001
1.40001
1.40001
1.40001
1.40001
1.40001
1.40001
1.40001
1.40001
1.40001
1.40001
1.40001
1.40001
3.64151
5.41481
5.4582
5.47343
5.49641
5.51982
5.54357
5.56655
5.58772
5.60633
5.62154
5.63348
5.64271
5.65144
5.66428
5.68271
5.7039
5.72568
5.7478
5.76793
5.78719
5.80393
5.81693
5.82709
5.83671
5.84582
5.85349
5.85914
5.86463
5.87243
5.88298
5.89407
5.90348
5.90999
5.91349
5.91578
5.91837
5.92031
5.91948
5.91242
5.89367
5.86072
5.82239
5.79558
5.787
1.40001
1.40001
1.40001
1.40001
1.40001
1.40001
1.40001
1.40001
1.40001
1.40001
1.40001
1.40001
1.40001
1.40001
1.40001
1.40001
1.40001
1.40001
1.40001
1.40001
1.40001
1.40001
1.40001
1.40001
1.40001
1.40001
1.40001
1.40001
1.40001
1.40001
1.40001
1.40001
1.40001
1.40001
1.40001
1.40001
1.40001
1.40001
1.40001
1.40001
1.40001
1.40001
1.40001
1.40001
1.40001
1.40001
1.40001
1.40001
1.40001
1.40001
1.40001
3.52636
5.40071
5.45357
5.46863
5.4908
5.51376
5.53741
5.56079
5.58307
5.60309
5.61939
5.63181
5.64081
5.64937
5.66197
5.68038
5.70153
5.72336
5.74528
5.76529
5.78471
5.80138
5.81386
5.82325
5.8323
5.84127
5.84915
5.85515
5.86106
5.86927
5.8801
5.89108
5.89991
5.90568
5.90863
5.91076
5.9135
5.91551
5.91448
5.90709
5.88789
5.8547
5.81636
5.78964
5.78118
1.40001
1.40001
1.40001
1.40001
1.40001
1.40001
1.40001
1.40001
1.40001
1.40001
1.40001
1.40001
1.40001
1.40001
1.40001
1.40001
1.40001
1.40001
1.40001
1.40001
1.40001
1.40001
1.40001
1.40001
1.40001
1.40001
1.40001
1.40001
1.40001
1.40001
1.40001
1.40001
1.40001
1.40001
1.40001
1.40001
1.40001
1.40001
1.40001
1.40001
1.40001
1.40001
1.40001
1.40001
1.40001
1.40001
1.40001
1.40001
1.40001
1.40001
1.40001
3.3916
5.38094
5.44984
5.46463
5.48559
5.50791
5.53108
5.55441
5.57747
5.59886
5.61656
5.62992
5.63902
5.64769
5.6601
5.67858
5.6998
5.72157
5.74297
5.76256
5.78184
5.79834
5.81023
5.81878
5.8271
5.83577
5.8438
5.85015
5.8564
5.86472
5.87555
5.88652
5.89529
5.90099
5.90383
5.9057
5.90803
5.90958
5.90823
5.90079
5.88168
5.84849
5.80991
5.78265
5.77384
1.40001
1.40001
1.40001
1.40001
1.40001
1.40001
1.40001
1.40001
1.40001
1.40001
1.40001
1.40001
1.40001
1.40001
1.40001
1.40001
1.40001
1.40001
1.40001
1.40001
1.40001
1.40001
1.40001
1.40001
1.40001
1.40001
1.40001
1.40001
1.40001
1.40001
1.40001
1.40001
1.40001
1.40001
1.40001
1.40001
1.40001
1.40001
1.40001
1.40001
1.40001
1.40001
1.40001
1.40001
1.40001
1.40001
1.40001
1.40001
1.40001
1.40001
1.40001
3.23826
5.35337
5.44862
5.46232
5.48129
5.50253
5.52498
5.54785
5.57124
5.59368
5.61288
5.62746
5.63713
5.64609
5.65862
5.67738
5.69883
5.72044
5.74096
5.75968
5.77838
5.79448
5.80568
5.81341
5.82101
5.82936
5.83753
5.84427
5.85078
5.85894
5.86946
5.88051
5.88969
5.89589
5.89895
5.90041
5.90177
5.90241
5.90069
5.89343
5.87482
5.84184
5.80288
5.77467
5.76521
1.40001
1.40001
1.40001
1.40001
1.40001
1.40001
1.40001
1.40001
1.40001
1.40001
1.40001
1.40001
1.40001
1.40001
1.40001
1.40001
1.40001
1.40001
1.40001
1.40001
1.40001
1.40001
1.40001
1.40001
1.40001
1.40001
1.40001
1.40001
1.40001
1.40001
1.40001
1.40001
1.40001
1.40001
1.40001
1.40001
1.40001
1.40001
1.40001
1.40001
1.40001
1.40001
1.40001
1.40001
1.40001
1.40001
1.40001
1.40001
1.40001
1.40001
1.40001
3.06718
5.31505
5.45205
5.46323
5.47945
5.49806
5.51889
5.54083
5.56423
5.58763
5.60862
5.62464
5.63529
5.64442
5.65711
5.67617
5.69799
5.71954
5.73904
5.75681
5.77448
5.7898
5.80006
5.80691
5.81385
5.8219
5.83019
5.83734
5.8441
5.85206
5.86221
5.87336
5.88318
5.89022
5.89366
5.89459
5.89473
5.89427
5.89208
5.88506
5.86711
5.83441
5.79505
5.76585
5.75572
1.40001
1.40001
1.40001
1.40001
1.40001
1.40001
1.40001
1.40001
1.40001
1.40001
1.40001
1.40001
1.40001
1.40001
1.40001
1.40001
1.40001
1.40001
1.40001
1.40001
1.40001
1.40001
1.40001
1.40001
1.40001
1.40001
1.40001
1.40001
1.40001
1.40001
1.40001
1.40001
1.40001
1.40001
1.40001
1.40001
1.40001
1.40001
1.40001
1.40001
1.40001
1.40001
1.40001
1.40001
1.40001
1.40001
1.40001
1.40001
1.40001
1.40001
1.40001
2.87942
5.26244
5.45892
5.46718
5.4802
5.49518
5.51332
5.53387
5.55688
5.58108
5.60384
5.62133
5.63275
5.64207
5.65492
5.67409
5.69632
5.71836
5.73706
5.75384
5.77029
5.78416
5.79316
5.79915
5.80565
5.81351
5.82189
5.82934
5.83638
5.84429
5.85415
5.86535
5.87571
5.8835
5.88721
5.88763
5.88669
5.88526
5.8826
5.87571
5.85828
5.82581
5.78623
5.75638
5.74592
1.40001
1.40001
1.40001
1.40001
1.40001
1.40001
1.40001
1.40001
1.40001
1.40001
1.40001
1.40001
1.40001
1.40001
1.40001
1.40001
1.40001
1.40001
1.40001
1.40001
1.40001
1.40001
1.40001
1.40001
1.40001
1.40001
1.40001
1.40001
1.40001
1.40001
1.40001
1.40001
1.40001
1.40001
1.40001
1.40001
1.40001
1.40001
1.40001
1.40001
1.40001
1.40001
1.40001
1.40001
1.40001
1.40001
1.40001
1.40001
1.40001
1.40001
1.40001
2.67804
5.19481
5.46681
5.47102
5.48147
5.49271
5.50745
5.5263
5.54895
5.57426
5.59874
5.61785
5.63022
5.6397
5.65211
5.67058
5.69308
5.71572
5.73429
5.75029
5.7656
5.77765
5.78527
5.79058
5.79688
5.8046
5.81291
5.82042
5.82766
5.83562
5.84531
5.85646
5.86705
5.87534
5.87917
5.87919
5.87766
5.87569
5.87275
5.86575
5.84831
5.81579
5.7761
5.74611
5.73577
1.40001
1.40001
1.40001
1.40001
1.40001
1.40001
1.40001
1.40001
1.40001
1.40001
1.40001
1.40001
1.40001
1.40001
1.40001
1.40001
1.40001
1.40001
1.40001
1.40001
1.40001
1.40001
1.40001
1.40001
1.40001
1.40001
1.40001
1.40001
1.40001
1.40001
1.40001
1.40001
1.40001
1.40001
1.40001
1.40001
1.40001
1.40001
1.40001
1.40001
1.40001
1.40001
1.40001
1.40001
1.40001
1.40001
1.40001
1.40001
1.40001
1.40001
1.40001
2.46567
5.10952
5.46983
5.47299
5.48396
5.49301
5.50453
5.52119
5.54309
5.56891
5.5946
5.61493
5.62805
5.63735
5.64863
5.66553
5.6878
5.7108
5.72971
5.74563
5.75999
5.77017
5.77645
5.78133
5.78762
5.79521
5.80329
5.81062
5.81793
5.82602
5.83567
5.84675
5.85729
5.86561
5.86937
5.86932
5.86774
5.86566
5.86252
5.85506
5.83698
5.80404
5.76436
5.73476
5.72507
1.40001
1.40001
1.40001
1.40001
1.40001
1.40001
1.40001
1.40001
1.40001
1.40001
1.40001
1.40001
1.40001
1.40001
1.40001
1.40001
1.40001
1.40001
1.40001
1.40001
1.40001
1.40001
1.40001
1.40001
1.40001
1.40001
1.40001
1.40001
1.40001
1.40001
1.40001
1.40001
1.40001
1.40001
1.40001
1.40001
1.40001
1.40001
1.40001
1.40001
1.40001
1.40001
1.40001
1.40001
1.40001
1.40001
1.40001
1.40001
1.40001
1.40001
1.40001
2.24973
5.00453
5.46842
5.47306
5.48684
5.49561
5.50541
5.5196
5.53975
5.56522
5.59114
5.6119
5.62555
5.63463
5.64469
5.65994
5.68106
5.7036
5.72291
5.73904
5.7527
5.76151
5.76682
5.77165
5.77811
5.78563
5.79341
5.80034
5.80749
5.81555
5.8251
5.83602
5.84623
5.85413
5.85764
5.85782
5.85673
5.85496
5.85172
5.84359
5.82449
5.7909
5.75125
5.72235
5.71361
1.40001
1.40001
1.40001
1.40001
1.40001
1.40001
1.40001
1.40001
1.40001
1.40001
1.40001
1.40001
1.40001
1.40001
1.40001
1.40001
1.40001
1.40001
1.40001
1.40001
1.40001
1.40001
1.40001
1.40001
1.40001
1.40001
1.40001
1.40001
1.40001
1.40001
1.40001
1.40001
1.40001
1.40001
1.40001
1.40001
1.40001
1.40001
1.40001
1.40001
1.40001
1.40001
1.40001
1.40001
1.40001
1.40001
1.40001
1.40001
1.40001
1.40001
1.40001
2.04043
4.87745
5.46586
5.47248
5.49095
5.50041
5.50938
5.52166
5.53972
5.56321
5.58805
5.60833
5.62192
5.63073
5.6399
5.65373
5.67336
5.69465
5.71408
5.73036
5.74354
5.75161
5.75625
5.76123
5.76799
5.77565
5.78326
5.78977
5.79656
5.80435
5.81359
5.82416
5.83382
5.84103
5.84428
5.84481
5.84441
5.84329
5.8401
5.83127
5.81113
5.77688
5.73714
5.70881
5.70096
1.40001
1.40001
1.40001
1.40001
1.40001
1.40001
1.40001
1.40001
1.40001
1.40001
1.40001
1.40001
1.40001
1.40001
1.40001
1.40001
1.40001
1.40001
1.40001
1.40001
1.40001
1.40001
1.40001
1.40001
1.40001
1.40001
1.40001
1.40001
1.40001
1.40001
1.40001
1.40001
1.40001
1.40001
1.40001
1.40001
1.40001
1.40001
1.40001
1.40001
1.40001
1.40001
1.40001
1.40001
1.40001
1.40001
1.40001
1.40001
1.40001
1.40001
1.40001
1.84488
4.72081
5.46042
5.4675
5.49039
5.5021
5.51228
5.52354
5.53985
5.56126
5.58424
5.60303
5.6156
5.62375
5.63226
5.64545
5.66403
5.68493
5.70448
5.72067
5.73339
5.74072
5.7445
5.7497
5.75697
5.76516
5.77292
5.77911
5.78532
5.79245
5.80102
5.81104
5.82006
5.82663
5.82969
5.8306
5.8309
5.83046
5.82736
5.81795
5.79696
5.76202
5.72185
5.69353
5.68618
1.40001
1.40001
1.40001
1.40001
1.40001
1.40001
1.40001
1.40001
1.40001
1.40001
1.40001
1.40001
1.40001
1.40001
1.40001
1.40001
1.40001
1.40001
1.40001
1.40001
1.40001
1.40001
1.40001
1.40001
1.40001
1.40001
1.40001
1.40001
1.40001
1.40001
1.40001
1.40001
1.40001
1.40001
1.40001
1.40001
1.40001
1.40001
1.40001
1.40001
1.40001
1.40001
1.40001
1.40001
1.40001
1.40001
1.40001
1.40001
1.40001
1.40001
1.40001
1.6747
4.53126
5.4478
5.45879
5.48184
5.49581
5.51059
5.52466
5.541
5.56056
5.58074
5.59708
5.60793
5.61495
5.62267
5.63503
5.65281
5.67349
5.69297
5.70891
5.72122
5.72782
5.73084
5.73632
5.7443
5.75347
5.76189
5.76814
5.77374
5.77992
5.78752
5.79681
5.80519
5.81126
5.81415
5.81527
5.81592
5.81579
5.8127
5.80308
5.78178
5.74647
5.70569
5.67676
5.6694
1.40001
1.40001
1.40001
1.40001
1.40001
1.40001
1.40001
1.40001
1.40001
1.40001
1.40001
1.40001
1.40001
1.40001
1.40001
1.40001
1.40001
1.40001
1.40001
1.40001
1.40001
1.40001
1.40001
1.40001
1.40001
1.40001
1.40001
1.40001
1.40001
1.40001
1.40001
1.40001
1.40001
1.40001
1.40001
1.40001
1.40001
1.40001
1.40001
1.40001
1.40001
1.40001
1.40001
1.40001
1.40001
1.40001
1.40001
1.40001
1.40001
1.40001
1.40001
1.51885
4.30237
5.43121
5.4463
5.46791
5.48498
5.50207
5.51794
5.53436
5.55276
5.57107
5.58577
5.59544
5.60171
5.60916
5.62156
5.63957
5.66074
5.68065
5.69665
5.70867
5.71473
5.71723
5.7227
5.73121
5.74119
5.75022
5.75636
5.76097
5.76597
5.7727
5.78146
5.78953
5.79536
5.79796
5.79878
5.79928
5.79914
5.79616
5.78678
5.76572
5.73017
5.6884
5.65808
5.65002
1.40001
1.40001
1.40001
1.40001
1.40001
1.40001
1.40001
1.40001
1.40001
1.40001
1.40001
1.40001
1.40001
1.40001
1.40001
1.40001
1.40001
1.40001
1.40001
1.40001
1.40001
1.40001
1.40001
1.40001
1.40001
1.40001
1.40001
1.40001
1.40001
1.40001
1.40001
1.40001
1.40001
1.40001
1.40001
1.40001
1.40001
1.40001
1.40001
1.40001
1.40001
1.40001
1.40001
1.40001
1.40001
1.40001
1.40001
1.40001
1.40001
1.40001
1.40001
1.40776
4.012
5.39269
5.42133
5.44607
5.46888
5.48967
5.50894
5.52736
5.54582
5.56287
5.57599
5.58412
5.58917
5.59574
5.60761
5.62544
5.64701
5.6677
5.68435
5.69644
5.70181
5.70286
5.70701
5.71522
5.72584
5.73576
5.7424
5.7467
5.75106
5.75741
5.76578
5.77351
5.77893
5.78085
5.78075
5.78061
5.78024
5.77764
5.76901
5.74856
5.71279
5.66967
5.63742
5.62816
1.40001
1.40001
1.40001
1.40001
1.40001
1.40001
1.40001
1.40001
1.40001
1.40001
1.40001
1.40001
1.40001
1.40001
1.40001
1.40001
1.40001
1.40001
1.40001
1.40001
1.40001
1.40001
1.40001
1.40001
1.40001
1.40001
1.40001
1.40001
1.40001
1.40001
1.40001
1.40001
1.40001
1.40001
1.40001
1.40001
1.40001
1.40001
1.40001
1.40001
1.40001
1.40001
1.40001
1.40001
1.40001
1.40001
1.40001
1.40001
1.40001
1.40001
1.40001
1.40007
3.65565
5.32714
5.39304
5.4233
5.45239
5.47635
5.49741
5.51642
5.53432
5.55023
5.56236
5.56942
5.5735
5.57952
5.59125
5.60935
5.63164
5.65345
5.67105
5.68359
5.68889
5.68895
5.69176
5.69927
5.71008
5.72047
5.72732
5.73145
5.73535
5.74125
5.74939
5.75678
5.76166
5.76263
5.76125
5.76018
5.75954
5.75749
5.74974
5.72985
5.69358
5.64873
5.6142
5.60345
1.40001
1.40001
1.40001
1.40001
1.40001
1.40001
1.40001
1.40001
1.40001
1.40001
1.40001
1.40001
1.40001
1.40001
1.40001
1.40001
1.40001
1.40001
1.40001
1.40001
1.40001
1.40001
1.40001
1.40001
1.40001
1.40001
1.40001
1.40001
1.40001
1.40001
1.40001
1.40001
1.40001
1.40001
1.40001
1.40001
1.40001
1.40001
1.40001
1.40001
1.40001
1.40001
1.40001
1.40001
1.40001
1.40001
1.40001
1.40001
1.40001
1.40001
1.40001
1.40001
3.26457
5.26171
5.37641
5.41032
5.44195
5.46678
5.48865
5.50773
5.52464
5.53923
5.5504
5.5564
5.55947
5.56487
5.57643
5.59446
5.61696
5.63948
5.65785
5.67091
5.67648
5.67603
5.67732
5.68341
5.69354
5.7038
5.71071
5.71483
5.71854
5.72419
5.73215
5.73916
5.74342
5.74302
5.73988
5.73749
5.73634
5.7348
5.72802
5.70875
5.67201
5.62547
5.58883
5.57671
1.40001
1.40001
1.40001
1.40001
1.40001
1.40001
1.40001
1.40001
1.40001
1.40001
1.40001
1.40001
1.40001
1.40001
1.40001
1.40001
1.40001
1.40001
1.40001
1.40001
1.40001
1.40001
1.40001
1.40001
1.40001
1.40001
1.40001
1.40001
1.40001
1.40001
1.40001
1.40001
1.40001
1.40001
1.40001
1.40001
1.40001
1.40001
1.40001
1.40001
1.40001
1.40001
1.40001
1.40001
1.40001
1.40001
1.40001
1.40001
1.40001
1.40001
1.40001
1.40001
2.85625
5.18048
5.37416
5.41207
5.44039
5.4627
5.4835
5.50194
5.51784
5.5311
5.54113
5.54579
5.54769
5.55229
5.56356
5.58094
5.60301
5.62573
5.64465
5.65827
5.66444
5.66423
5.66417
5.66833
5.67688
5.68632
5.69293
5.697
5.70075
5.70629
5.71381
5.72015
5.72347
5.7213
5.71644
5.71264
5.71103
5.70997
5.70397
5.68503
5.64758
5.59923
5.56055
5.54699
1.40001
1.40001
1.40001
1.40001
1.40001
1.40001
1.40001
1.40001
1.40001
1.40001
1.40001
1.40001
1.40001
1.40001
1.40001
1.40001
1.40001
1.40001
1.40001
1.40001
1.40001
1.40001
1.40001
1.40001
1.40001
1.40001
1.40001
1.40001
1.40001
1.40001
1.40001
1.40001
1.40001
1.40001
1.40001
1.40001
1.40001
1.40001
1.40001
1.40001
1.40001
1.40001
1.40001
1.40001
1.40001
1.40001
1.40001
1.40001
1.40001
1.40001
1.40001
1.40001
2.45031
5.05323
5.39573
5.42409
5.44768
5.46647
5.48437
5.50067
5.51451
5.52578
5.53432
5.53805
5.5393
5.54317
5.55338
5.56946
5.59036
5.61256
5.6315
5.64539
5.65244
5.65326
5.65213
5.65428
5.66039
5.66832
5.67431
5.67825
5.68206
5.68732
5.69393
5.6991
5.70095
5.69716
5.69084
5.68564
5.68322
5.68195
5.67613
5.65727
5.61933
5.56974
5.52967
5.51508
1.40001
1.40001
1.40001
1.40001
1.40001
1.40001
1.40001
1.40001
1.40001
1.40001
1.40001
1.40001
1.40001
1.40001
1.40001
1.40001
1.40001
1.40001
1.40001
1.40001
1.40001
1.40001
1.40001
1.40001
1.40001
1.40001
1.40001
1.40001
1.40001
1.40001
1.40001
1.40001
1.40001
1.40001
1.40001
1.40001
1.40001
1.40001
1.40001
1.40001
1.40001
1.40001
1.40001
1.40001
1.40001
1.40001
1.40001
1.40001
1.40001
1.40001
1.40001
1.40001
2.05945
4.87967
5.44684
5.4418
5.45427
5.46829
5.48406
5.49982
5.51322
5.52365
5.5312
5.53419
5.53493
5.53797
5.54616
5.56005
5.57885
5.59961
5.61801
5.63193
5.64013
5.64218
5.64057
5.64094
5.64414
5.64999
5.65512
5.65878
5.66256
5.66726
5.67237
5.67577
5.6757
5.67033
5.66275
5.65631
5.65292
5.65096
5.64474
5.62551
5.5869
5.53607
5.49471
5.47893
1.40001
1.40001
1.40001
1.40001
1.40001
1.40001
1.40001
1.40001
1.40001
1.40001
1.40001
1.40001
1.40001
1.40001
1.40001
1.40001
1.40001
1.40001
1.40001
1.40001
1.40001
1.40001
1.40001
1.40001
1.40001
1.40001
1.40001
1.40001
1.40001
1.40001
1.40001
1.40001
1.40001
1.40001
1.40001
1.40001
1.40001
1.40001
1.40001
1.40001
1.40001
1.40001
1.40001
1.40001
1.40001
1.40001
1.40001
1.40001
1.40001
1.40001
1.40001
1.40001
1.69826
4.6407
5.49576
5.45275
5.4572
5.46515
5.47679
5.49105
5.5054
5.51799
5.52777
5.53251
5.53411
5.53658
5.54242
5.55318
5.56875
5.58694
5.60403
5.61752
5.62648
5.62961
5.62837
5.62729
5.62785
5.6312
5.63512
5.63846
5.64206
5.64578
5.64887
5.65001
5.64744
5.64067
5.63195
5.6243
5.61935
5.61556
5.60776
5.58765
5.54864
5.4973
5.45531
5.43889
1.40001
1.40001
1.40001
1.40001
1.40001
1.40001
1.40001
1.40001
1.40001
1.40001
1.40001
1.40001
1.40001
1.40001
1.40001
1.40001
1.40001
1.40001
1.40001
1.40001
1.40001
1.40001
1.40001
1.40001
1.40001
1.40001
1.40001
1.40001
1.40001
1.40001
1.40001
1.40001
1.40001
1.40001
1.40001
1.40001
1.40001
1.40001
1.40001
1.40001
1.40001
1.40001
1.40001
1.40001
1.40001
1.40001
1.40001
1.40001
1.40001
1.40001
1.40001
1.40001
1.43919
4.27107
5.44604
5.42242
5.43942
5.45363
5.46775
5.48188
5.49676
5.51078
5.52143
5.52724
5.53021
5.53311
5.53768
5.54569
5.55805
5.57375
5.58964
5.6026
5.61148
5.61506
5.61458
5.61232
5.61081
5.61149
5.61383
5.61687
5.62003
5.62251
5.62345
5.62171
5.61654
5.60817
5.59825
5.58919
5.58218
5.57593
5.56602
5.54465
5.50466
5.45187
5.40842
5.39046
1.40001
1.40001
1.40001
1.40001
1.40001
1.40001
1.40001
1.40001
1.40001
1.40001
1.40001
1.40001
1.40001
1.40001
1.40001
1.40001
1.40001
1.40001
1.40001
1.40001
1.40001
1.40001
1.40001
1.40001
1.40001
1.40001
1.40001
1.40001
1.40001
1.40001
1.40001
1.40001
1.40001
1.40001
1.40001
1.40001
1.40001
1.40001
1.40001
1.40001
1.40001
1.40001
1.40001
1.40001
1.40001
1.40001
1.40001
1.40001
1.40001
1.40001
1.40001
1.40001
1.40054
3.76673
5.30853
5.37342
5.40527
5.42799
5.44685
5.4638
5.48115
5.49797
5.51303
5.52325
5.52838
5.53124
5.53365
5.53784
5.54607
5.55848
5.57263
5.58499
5.59375
5.59797
5.59855
5.59577
5.59237
5.59052
5.59106
5.59331
5.59572
5.59691
5.59559
5.59075
5.5828
5.57244
5.56104
5.55022
5.54041
5.53037
5.51663
5.4927
5.4513
5.39743
5.35292
5.33457
1.40001
1.40001
1.40001
1.40001
1.40001
1.40001
1.40001
1.40001
1.40001
1.40001
1.40001
1.40001
1.40001
1.40001
1.40001
1.40001
1.40001
1.40001
1.40001
1.40001
1.40001
1.40001
1.40001
1.40001
1.40001
1.40001
1.40001
1.40001
1.40001
1.40001
1.40001
1.40001
1.40001
1.40001
1.40001
1.40001
1.40001
1.40001
1.40001
1.40001
1.40001
1.40001
1.40001
1.40001
1.40001
1.40001
1.40001
1.40001
1.40001
1.40001
1.40001
1.40001
1.40001
3.28462
5.19238
5.32739
5.37346
5.40526
5.42851
5.44672
5.46296
5.47864
5.49412
5.50638
5.5144
5.51958
5.52298
5.52647
5.53277
5.54296
5.55558
5.5667
5.57438
5.57819
5.57905
5.57603
5.57157
5.56754
5.56612
5.56707
5.56836
5.56813
5.56474
5.55703
5.54617
5.53342
5.51993
5.50671
5.49328
5.47863
5.46079
5.43425
5.39069
5.33279
5.28326
5.2604
1.40001
1.40001
1.40001
1.40001
1.40001
1.40001
1.40001
1.40001
1.40001
1.40001
1.40001
1.40001
1.40001
1.40001
1.40001
1.40001
1.40001
1.40001
1.40001
1.40001
1.40001
1.40001
1.40001
1.40001
1.40001
1.40001
1.40001
1.40001
1.40001
1.40001
1.40001
1.40001
1.40001
1.40001
1.40001
1.40001
1.40001
1.40001
1.40001
1.40001
1.40001
1.40001
1.40001
1.40001
1.40001
1.40001
1.40001
1.40001
1.40001
1.40001
1.40001
1.40001
1.40001
2.78177
5.03792
5.31829
5.36993
5.40271
5.42053
5.43428
5.4474
5.46129
5.47537
5.48784
5.49754
5.50435
5.50864
5.51168
5.51609
5.52363
5.53386
5.54412
5.55197
5.55628
5.5572
5.5537
5.54832
5.54205
5.5385
5.53767
5.53753
5.53575
5.53034
5.52005
5.50627
5.49071
5.4746
5.45835
5.44041
5.41988
5.39553
5.36237
5.31282
5.24908
5.19396
5.17095
1.40001
1.40001
1.40001
1.40001
1.40001
1.40001
1.40001
1.40001
1.40001
1.40001
1.40001
1.40001
1.40001
1.40001
1.40001
1.40001
1.40001
1.40001
1.40001
1.40001
1.40001
1.40001
1.40001
1.40001
1.40001
1.40001
1.40001
1.40001
1.40001
1.40001
1.40001
1.40001
1.40001
1.40001
1.40001
1.40001
1.40001
1.40001
1.40001
1.40001
1.40001
1.40001
1.40001
1.40001
1.40001
1.40001
1.40001
1.40001
1.40001
1.40001
1.40001
1.40001
1.40001
2.24915
4.87851
5.38248
5.38603
5.40168
5.41133
5.42164
5.43296
5.44525
5.45755
5.46909
5.47885
5.48627
5.49146
5.49488
5.49849
5.50445
5.51288
5.52216
5.52939
5.53319
5.53305
5.52899
5.52281
5.51472
5.50909
5.50609
5.50377
5.50005
5.49249
5.47978
5.46308
5.4444
5.42521
5.40468
5.38082
5.35363
5.32095
5.27973
5.22436
5.15138
5.08018
5.03699
1.40001
1.40001
1.40001
1.40001
1.40001
1.40001
1.40001
1.40001
1.40001
1.40001
1.40001
1.40001
1.40001
1.40001
1.40001
1.40001
1.40001
1.40001
1.40001
1.40001
1.40001
1.40001
1.40001
1.40001
1.40001
1.40001
1.40001
1.40001
1.40001
1.40001
1.40001
1.40001
1.40001
1.40001
1.40001
1.40001
1.40001
1.40001
1.40001
1.40001
1.40001
1.40001
1.40001
1.40001
1.40001
1.40001
1.40001
1.40001
1.40001
1.40001
1.40001
1.40001
1.40001
1.73
4.68069
5.47571
5.41251
5.4077
5.41203
5.41974
5.42791
5.43628
5.44467
5.45307
5.46096
5.46756
5.47292
5.4767
5.47996
5.48486
5.49196
5.50023
5.50663
5.50978
5.50822
5.50325
5.49571
5.48643
5.47914
5.47346
5.46845
5.46213
5.45179
5.4365
5.41693
5.39496
5.3715
5.34518
5.31483
5.28004
5.23795
5.18337
5.10722
5.00616
4.90724
4.84748
1.40001
1.40001
1.40001
1.40001
1.40001
1.40001
1.40001
1.40001
1.40001
1.40001
1.40001
1.40001
1.40001
1.40001
1.40001
1.40001
1.40001
1.40001
1.40001
1.40001
1.40001
1.40001
1.40001
1.40001
1.40001
1.40001
1.40001
1.40001
1.40001
1.40001
1.40001
1.40001
1.40001
1.40001
1.40001
1.40001
1.40001
1.40001
1.40001
1.40001
1.40001
1.40001
1.40001
1.40001
1.40001
1.40001
1.40001
1.40001
1.40001
1.40001
1.40001
1.40001
1.40001
1.42509
4.19759
5.40753
5.38552
5.40333
5.41256
5.41997
5.42602
5.43143
5.43681
5.44198
5.44676
5.45091
5.45511
5.45874
5.46193
5.46636
5.47249
5.47948
5.48435
5.48614
5.48284
5.47659
5.4675
5.45773
5.44909
5.44047
5.43248
5.42297
5.40944
5.39112
5.36844
5.34249
5.31376
5.28106
5.24292
5.19827
5.14335
5.07125
4.97258
4.84214
4.69888
4.60641
1.40001
1.40001
1.40001
1.40001
1.40001
1.40001
1.40001
1.40001
1.40001
1.40001
1.40001
1.40001
1.40001
1.40001
1.40001
1.40001
1.40001
1.40001
1.40001
1.40001
1.40001
1.40001
1.40001
1.40001
1.40001
1.40001
1.40001
1.40001
1.40001
1.40001
1.40001
1.40001
1.40001
1.40001
1.40001
1.40001
1.40001
1.40001
1.40001
1.40001
1.40001
1.40001
1.40001
1.40001
1.40001
1.40001
1.40001
1.40001
1.40001
1.40001
1.40001
1.40001
1.40001
1.40009
3.53125
5.22373
5.34263
5.38299
5.40041
5.41022
5.41795
5.42445
5.43021
5.43415
5.43649
5.43778
5.43972
5.44216
5.44487
5.4489
5.45415
5.45956
5.46247
5.46223
5.45708
5.44909
5.43856
5.42834
5.41817
5.40723
5.39624
5.38325
5.36635
5.34465
5.31835
5.28777
5.25307
5.21313
5.16595
5.10978
5.04009
4.94843
4.81775
4.61691
4.24039
3.34216
1.40001
1.40001
1.40001
1.40001
1.40001
1.40001
1.40001
1.40001
1.40001
1.40001
1.40001
1.40001
1.40001
1.40001
1.40001
1.40001
1.40001
1.40001
1.40001
1.40001
1.40001
1.40001
1.40001
1.40001
1.40001
1.40001
1.40001
1.40001
1.40001
1.40001
1.40001
1.40001
1.40001
1.40001
1.40001
1.40001
1.40001
1.40001
1.40001
1.40001
1.40001
1.40001
1.40001
1.40001
1.40001
1.40001
1.40001
1.40001
1.40001
1.40001
1.40001
1.40001
1.40001
1.4
2.93113
5.08762
5.32259
5.36239
5.38681
5.39989
5.40609
5.41299
5.41985
5.42461
5.42693
5.42722
5.42756
5.42854
5.43025
5.43345
5.43752
5.44108
5.44251
5.44
5.43253
5.42212
5.40992
5.39851
5.38635
5.37319
5.35926
5.34278
5.32243
5.29728
5.26714
5.23169
5.19063
5.14279
5.0857
5.01664
4.92975
4.81219
4.64027
4.36535
3.92004
2.91823
1.40001
1.40001
1.40001
1.40001
1.40001
1.40001
1.40001
1.40001
1.40001
1.40001
1.40001
1.40001
1.40001
1.40001
1.40001
1.40001
1.40001
1.40001
1.40001
1.40001
1.40001
1.40001
1.40001
1.40001
1.40001
1.40001
1.40001
1.40001
1.40001
1.40001
1.40001
1.40001
1.40001
1.40001
1.40001
1.40001
1.40001
1.40001
1.40001
1.40001
1.40001
1.40001
1.40001
1.40001
1.40001
1.40001
1.40001
1.40001
1.40001
1.40001
1.40001
1.40001
1.40001
1.4
2.30518
4.8834
5.35557
5.36012
5.37123
5.38156
5.3911
5.3999
5.40722
5.41235
5.41538
5.41626
5.41643
5.4166
5.41731
5.41918
5.42166
5.42332
5.42327
5.41887
5.40927
5.39609
5.38168
5.3682
5.35373
5.3384
5.3218
5.30224
5.2786
5.24999
5.21584
5.17539
5.12782
5.07175
5.00416
4.92174
4.81697
4.6783
4.47263
4.18887
3.62449
2.79769
1.40001
1.40001
1.40001
1.40001
1.40001
1.40001
1.40001
1.40001
1.40001
1.40001
1.40001
1.40001
1.40001
1.40001
1.40001
1.40001
1.40001
1.40001
1.40001
1.40001
1.40001
1.40001
1.40001
1.40001
1.40001
1.40001
1.40001
1.40001
1.40001
1.40001
1.40001
1.40001
1.40001
1.40001
1.40001
1.40001
1.40001
1.40001
1.40001
1.40001
1.40001
1.40001
1.40001
1.40001
1.40001
1.40001
1.40001
1.40001
1.40001
1.40001
1.40001
1.40001
1.40001
1.40001
1.71151
4.6545
5.44142
5.38013
5.36124
5.36614
5.3758
5.38365
5.39085
5.3966
5.40107
5.40353
5.4044
5.40433
5.40408
5.40445
5.40548
5.40589
5.40461
5.39892
5.38771
5.3721
5.35484
5.33826
5.32092
5.30306
5.28377
5.26141
5.23466
5.20266
5.16454
5.11934
5.06561
5.0018
4.92408
4.82929
4.70836
4.55243
4.33079
4.00813
3.46834
2.78776
1.40001
1.40001
1.40001
1.40001
1.40001
1.40001
1.40001
1.40001
1.40001
1.40001
1.40001
1.40001
1.40001
1.40001
1.40001
1.40001
1.40001
1.40001
1.40001
1.40001
1.40001
1.40001
1.40001
1.40001
1.40001
1.40001
1.40001
1.40001
1.40001
1.40001
1.40001
1.40001
1.40001
1.40001
1.40001
1.40001
1.40001
1.40001
1.40001
1.40001
1.40001
1.40001
1.40001
1.40001
1.40001
1.40001
1.40001
1.40001
1.40001
1.40001
1.40001
1.40001
1.40001
1.40001
1.4201
4.08503
5.33506
5.33726
5.34729
5.35202
5.3609
5.3673
5.37398
5.38005
5.38552
5.38906
5.39057
5.39048
5.38906
5.38777
5.38744
5.38691
5.3849
5.37888
5.36696
5.34978
5.32962
5.3094
5.28876
5.26786
5.24573
5.22066
5.19095
5.1556
5.11361
5.06395
5.00468
4.93408
4.84781
4.74231
4.60898
4.43694
4.20699
3.87636
3.40402
2.85632
1.40001
1.40001
1.40001
1.40001
1.40001
1.40001
1.40001
1.40001
1.40001
1.40001
1.40001
1.40001
1.40001
1.40001
1.40001
1.40001
1.40001
1.40001
1.40001
1.40001
1.40001
1.40001
1.40001
1.40001
1.40001
1.40001
1.40001
1.40001
1.40001
1.40001
1.40001
1.40001
1.40001
1.40001
1.40001
1.40001
1.40001
1.40001
1.40001
1.40001
1.40001
1.40001
1.40001
1.40001
1.40001
1.40001
1.40001
1.40001
1.40001
1.40001
1.40001
1.40001
1.40001
1.40001
1.40003
3.33645
5.15118
5.30846
5.3365
5.34879
5.35093
5.35455
5.3595
5.3648
5.37009
5.37343
5.37477
5.37417
5.37158
5.3688
5.36723
5.36613
5.36382
5.35792
5.34607
5.3281
5.3056
5.28178
5.25763
5.23344
5.20833
5.18049
5.14784
5.10918
5.06334
5.00944
4.94532
4.86908
4.77637
4.66272
4.52094
4.34016
4.1046
3.79286
3.39178
2.93911
1.40001
1.40001
1.40001
1.40001
1.40001
1.40001
1.40001
1.40001
1.40001
1.40001
1.40001
1.40001
1.40001
1.40001
1.40001
1.40001
1.40001
1.40001
1.40001
1.40001
1.40001
1.40001
1.40001
1.40001
1.40001
1.40001
1.40001
1.40001
1.40001
1.40001
1.40001
1.40001
1.40001
1.40001
1.40001
1.40001
1.40001