/*--------------------------------*- C++ -*----------------------------------*\
  =========                 |
  \\      /  F ield         | OpenFOAM: The Open Source CFD Toolbox
   \\    /   O peration     | Website:  https://openfoam.org
    \\  /    A nd           | Version:  9
     \\/     M anipulation  |
\*---------------------------------------------------------------------------*/
FoamFile
{
    format      ascii;
    class       surfaceScalarField;
    location    "2.9";
    object      phi;
}
// * * * * * * * * * * * * * * * * * * * * * * * * * * * * * * * * * * * * * //

dimensions      [0 3 -1 0 0 0 0];

internalField   nonuniform List<scalar> 
16735
(
-0.0179606
0.0179606
-9.6512e-10
-0.0472444
0.0292838
-1.49105e-09
-0.081947
0.0347026
-1.58895e-09
-0.118786
0.0368391
-1.44155e-09
-0.154095
0.0353089
-1.05513e-09
-0.181352
0.0272571
-3.64016e-10
-0.191653
0.0103006
5.91912e-10
-0.175952
-0.0157009
1.62189e-09
-0.131761
-0.0441903
2.42634e-09
-0.0805998
2.90635e-09
-0.0511617
-0.0172449
0.0352056
-0.0455842
0.057623
-0.0791386
0.0682571
-0.114516
0.0722161
-0.147986
0.0687794
-0.172998
0.0522687
-0.180592
0.0178948
-0.161893
-0.0344004
-0.114359
-0.0917236
-0.162093
-0.0328659
-0.0158518
0.0510573
-0.0423416
0.0841128
-0.0736525
0.099568
-0.106191
0.104755
-0.136137
0.098725
-0.156946
0.0730776
-0.1596
0.0205494
-0.135691
-0.05831
-0.0826651
-0.144749
-0.244472
-0.000286159
-0.0138557
0.064913
-0.0376685
0.107926
-0.0657395
0.127639
-0.094217
0.133232
-0.119202
0.12371
-0.134291
0.0881672
-0.130435
0.0166933
-0.100085
-0.0886604
-0.040821
-0.204013
-0.328364
0.0430714
-0.0113643
0.0762773
-0.0317833
0.128345
-0.0557543
0.15161
-0.0791446
0.156623
-0.098021
0.142586
-0.106317
0.0964631
-0.0949782
0.00535455
-0.0577359
-0.125903
0.0075325
-0.269281
-0.41194
0.091108
-0.00851359
0.0847909
-0.0249617
0.144793
-0.0441387
0.170787
-0.0616414
0.174126
-0.0735603
0.154505
-0.0743354
0.0972382
-0.0550394
-0.0139414
-0.011027
-0.169915
0.0580459
-0.338354
-0.494878
0.140984
-0.00546148
0.0902524
-0.0175256
0.156857
-0.0314058
0.184667
-0.042471
0.185191
-0.046912
0.158946
-0.0398014
0.0901275
-0.0121602
-0.0415826
0.0379872
-0.220063
0.109934
-0.410301
-0.575212
0.190267
-0.00238156
0.092634
-0.00982951
0.164305
-0.0181241
0.192962
-0.0224734
0.18954
-0.0192936
0.155766
-0.0043338
0.0751678
0.0311667
-0.0770831
0.0872949
-0.276191
0.160697
-0.483703
-0.651471
0.236957
0.000564821
0.0920692
-0.00227413
0.167144
-0.00490952
0.195597
-0.00257999
0.18721
0.00813019
0.145056
0.0312332
0.0520648
0.0737285
-0.119578
0.134982
-0.337444
0.208313
-0.557034
-0.722559
0.2794
0.00318612
0.088883
0.00479639
0.165533
0.0077546
0.192639
0.0166033
0.178362
0.0343852
0.127274
0.0648299
0.0216202
0.114145
-0.168894
0.179385
-0.402684
0.25117
-0.628819
-0.787755
0.316366
0.00535195
0.0835311
0.011025
0.15986
0.0192028
0.184461
0.0339366
0.163628
0.0579712
0.103239
0.0954061
-0.0158147
0.151252
-0.224739
0.219283
-0.470716
0.28817
-0.697706
-0.846687
0.347102
0.00694586
0.0765852
0.0160871
0.150719
0.0288643
0.171684
0.048679
0.143813
0.0781287
0.0737897
0.122418
-0.0601039
0.184435
-0.286756
0.253931
-0.540212
0.318728
-0.762503
-0.899288
0.371328
0.00790082
0.0686844
0.0197558
0.138864
0.0363368
0.155103
0.0602807
0.119869
0.094572
0.0394983
0.145953
-0.111485
0.213544
-0.354347
0.282978
-0.609646
0.342691
-0.822216
-0.945755
0.389158
0.00820421
0.0604802
0.0219125
0.125156
0.04137
0.135645
0.0685475
0.0926917
0.107708
0.000337697
0.166681
-0.170458
0.238677
-0.426342
0.306343
-0.677312
0.36024
-0.876114
-0.98651
0.400995
0.00789966
0.0525805
0.0225744
0.110481
0.0439585
0.114261
0.0738199
0.0628303
0.11871
-0.0445525
0.185482
-0.23723
0.259921
-0.500781
0.324104
-0.741495
0.37179
-0.923799
-1.02215
0.407428
0.00708393
0.0454966
0.0219118
0.0956534
0.0444361
0.0917371
0.0771988
0.0300676
0.129095
-0.0964485
0.202931
-0.311066
0.277211
-0.575061
0.336464
-0.800748
0.377908
-0.965243
-1.05339
0.409148
0.00589926
0.0395973
0.0202514
0.0813013
0.0435383
0.0684501
0.0802437
-0.00663782
0.140263
-0.156468
0.218972
-0.389775
0.290388
-0.646478
0.343764
-0.854124
0.379256
-1.00073
-1.081
0.406868
0.00452144
0.0350759
0.018064
0.0677588
0.0423604
0.0441536
0.0846101
-0.0488875
0.15275
-0.224608
0.23297
-0.469995
0.299356
-0.712863
0.346491
-0.901259
0.376544
-1.03079
-1.10574
0.401284
0.00314243
0.0319335
0.0159205
0.0549807
0.0421601
0.017914
0.0914112
-0.0981386
0.166028
-0.299225
0.244155
-0.548122
0.304234
-0.772942
0.345255
-0.942279
0.370505
-1.05604
-1.12808
0.392849
0.00194651
0.029987
0.0143945
0.0425327
0.044004
-0.0116954
0.100808
-0.154943
0.17885
-0.377267
0.252086
-0.621357
0.305382
-0.826238
0.340734
-0.977632
0.361814
-1.07712
-1.14838
0.382111
0.00108257
0.0289044
0.0139805
0.0296348
0.0484116
-0.0461265
0.112019
-0.21855
0.189916
-0.455164
0.256634
-0.688075
0.303284
-0.872887
0.333636
-1.00798
0.352166
-1.09565
-1.1692
0.372982
0.000639736
0.0282647
0.015003
0.0152715
0.0552273
-0.0863508
0.123702
-0.287025
0.198369
-0.529832
0.257945
-0.747651
0.298423
-0.913366
0.32444
-1.034
0.343521
-1.11473
-1.18862
0.362941
0.000642702
0.027622
0.0175598
-0.00164562
0.0637876
-0.132579
0.134496
-0.357733
0.203898
-0.599234
0.256362
-0.800115
0.291287
-0.94829
0.314055
-1.05677
0.331632
-1.13231
-1.20569
0.348707
0.00107899
0.026543
0.021497
-0.0220636
0.0731898
-0.184271
0.143436
-0.42798
0.206571
-0.662368
0.252312
-0.845856
0.28241
-0.978388
0.302365
-1.07672
0.319018
-1.14896
-1.22238
0.335703
0.00191903
0.0246239
0.0264698
-0.0466144
0.0824725
-0.240274
0.150069
-0.495577
0.206646
-0.718945
0.246235
-0.885445
0.272152
-1.00431
0.28989
-1.09446
0.305469
-1.16454
-1.23775
0.320847
0.00313171
0.0214922
0.0320627
-0.0755454
0.090855
-0.299066
0.154325
-0.559047
0.204458
-0.769078
0.238527
-0.919514
0.260879
-1.02666
0.276718
-1.1103
0.291295
-1.17912
-1.25249
0.30603
0.00468798
0.0168042
0.0379049
-0.108762
0.0978017
-0.358963
0.156343
-0.617588
0.20035
-0.813084
0.229537
-0.948701
0.248837
-1.04596
0.263069
-1.12453
0.276668
-1.19272
-1.26627
0.290448
0.00654784
0.0102564
0.0436397
-0.145854
0.10304
-0.418363
0.156349
-0.670898
0.194652
-0.851387
0.219555
-0.973604
0.236239
-1.06264
0.249041
-1.13733
0.261638
-1.20531
-1.2792
0.274569
0.00864327
0.00161313
0.0490174
-0.186228
0.106581
-0.475927
0.154594
-0.718911
0.187663
-0.884456
0.20882
-0.994761
0.223237
-1.07706
0.234731
-1.14883
0.246311
-1.21689
-1.29114
0.258257
0.0108799
-0.00926674
0.0538212
-0.22917
0.108517
-0.530623
0.151323
-0.761717
0.179644
-0.912777
0.197524
-1.01264
0.209947
-1.08948
0.220202
-1.15908
0.230714
-1.2274
-1.30206
0.241627
0.0131599
-0.0224267
0.0578681
-0.273878
0.108974
-0.581729
0.146768
-0.79951
0.170816
-0.936825
0.185822
-1.02765
0.196454
-1.10011
0.205501
-1.16813
0.214896
-1.2368
-1.31184
0.224682
0.0153969
-0.0378235
0.0610268
-0.319508
0.108105
-0.628807
0.14114
-0.832545
0.161362
-0.957047
0.173831
-1.04012
0.182822
-1.10911
0.190665
-1.17597
0.198882
-1.24502
-1.32043
0.207465
0.0175259
-0.0553494
0.063229
-0.365211
0.106067
-0.671645
0.134632
-0.86111
0.151431
-0.973846
0.161639
-1.05032
0.169097
-1.11656
0.175723
-1.1826
0.182702
-1.252
-1.32773
0.190004
0.0194967
-0.0748461
0.0644644
-0.410179
0.10302
-0.710201
0.127415
-0.885505
0.141146
-0.987577
0.149316
-1.05849
0.155314
-1.12256
0.160697
-1.18798
0.16638
-1.25768
-1.33368
0.172331
0.0212614
-0.0961075
0.064764
-0.453681
0.0991106
-0.744548
0.11964
-0.906035
0.13061
-0.998546
0.136916
-1.0648
0.141499
-1.12715
0.145601
-1.19208
0.149939
-1.26202
-1.33822
0.154475
0.0227689
-0.118876
0.0641791
-0.495091
0.0944724
-0.774841
0.111436
-0.922999
0.119905
-1.00702
0.124482
-1.06938
0.127672
-1.13034
0.130457
-1.19487
0.133402
-1.26496
-1.34128
0.136468
0.0239676
-0.142844
0.0627627
-0.533887
0.0892259
-0.801304
0.102912
-0.936685
0.109101
-1.0132
0.112048
-1.07232
0.113853
-1.13214
0.115285
-1.1963
0.116794
-1.26647
-1.34283
0.11834
0.0248161
-0.16766
0.0607255
-0.569796
0.0834861
-0.824064
0.0941588
-0.947358
0.0982517
-1.0173
0.0996393
-1.07371
0.100058
-1.13256
0.100104
-1.19635
0.100137
-1.2665
-1.34281
0.100123
0.0252882
-0.192948
0.0581468
-0.602655
0.077357
-0.843275
0.085251
-0.955252
0.087399
-1.01945
0.0872781
-1.07359
0.0863021
-1.13158
0.0849317
-1.19498
0.0834579
-1.26503
-1.3412
0.0818489
0.025375
-0.218323
0.0550875
-0.632367
0.0709275
-0.859115
0.076252
-0.960577
0.0765773
-1.01977
0.0749821
-1.07199
0.0726008
-1.1292
0.0697843
-1.19216
0.0667784
-1.26202
-1.33798
0.0635566
0.0250855
-0.243409
0.0516178
-0.658899
0.0642762
-0.871773
0.0672128
-0.963513
0.0658137
-1.01837
0.062767
-1.06895
0.0589682
-1.1254
0.05468
-1.18787
0.0501192
-1.25746
-1.33316
0.0452935
0.0244449
-0.267854
0.0478066
-0.682261
0.0574692
-0.881436
0.0581758
-0.96422
0.0551303
-1.01533
0.0506469
-1.06446
0.0454183
-1.12017
0.0396385
-1.18209
0.0334822
-1.25131
-1.32668
0.0270023
0.0234904
-0.291344
0.0437195
-0.70249
0.0505444
-0.888261
0.0491753
-0.962851
0.0445457
-1.0107
0.0386351
-1.05855
0.0319631
-1.1135
0.0246758
-1.17481
0.0169504
-1.24358
-1.31841
0.00868888
0.022265
-0.313609
0.0394177
-0.719643
0.0435572
-0.8924
0.0402404
-0.959534
0.0340758
-1.00453
0.0267437
-1.05122
0.0186142
-1.10537
0.00978479
-1.16598
0.000624258
-1.23442
-1.30829
-0.00950429
0.0208131
-0.334422
0.0349573
-0.733787
0.0365549
-0.893998
0.0313962
-0.954375
0.0237342
-0.99687
0.0149805
-1.04247
0.00537878
-1.09577
-0.00497016
-1.15563
-0.0157775
-1.22361
-1.29655
-0.0275126
0.0191768
-0.353599
0.0303888
-0.744999
0.0295762
-0.893185
0.0226643
-0.947463
0.0135277
-0.987733
0.00333441
-1.03227
-0.00766711
-1.08477
-0.0194627
-1.14383
-0.0319903
-1.21109
-1.28314
-0.0454001
0.017395
-0.370994
0.0257571
-0.753361
0.0226534
-0.890081
0.0140629
-0.938873
0.00343805
-0.977108
-0.00806442
-1.02077
-0.0205301
-1.0723
-0.0338394
-1.13052
-0.048032
-1.19689
-1.26803
-0.063139
0.0155026
-0.386497
0.0211015
-0.75896
0.0158125
-0.884792
0.00559951
-0.92866
-0.00637925
-0.96513
-0.01929
-1.00786
-0.0332235
-1.05837
-0.0480557
-1.11569
-0.0638889
-1.18106
-1.25122
-0.0807002
0.0135314
-0.400028
0.0164564
-0.761885
0.00906915
-0.877405
-0.00269101
-0.9169
-0.0159915
-0.951829
-0.0303439
-0.993508
-0.0457285
-1.04299
-0.0620845
-1.09934
-0.0795444
-1.1636
-1.23271
-0.0980594
0.0115099
-0.411538
0.0118531
-0.762228
0.00240812
-0.86796
-0.0107428
-0.903749
-0.0254358
-0.937136
-0.0412029
-0.977741
-0.0580294
-1.02616
-0.0759031
-1.08146
-0.094978
-1.14453
-1.2125
-0.115191
0.00946264
-0.421001
0.00732385
-0.76009
-0.00399858
-0.856638
-0.0186363
-0.889111
-0.034688
-0.921084
-0.0518523
-0.960577
-0.0701103
-1.0079
-0.0894903
-1.06208
-0.110168
-1.12385
-1.1906
-0.132068
0.00740892
-0.42841
0.00290786
-0.755589
-0.0102045
-0.843525
-0.0263419
-0.872974
-0.0437363
-0.90369
-0.0622794
-0.942034
-0.0819555
-0.988225
-0.102826
-1.04121
-0.125091
-1.10158
-1.16703
-0.148662
0.00536483
-0.433774
-0.0014555
-0.748768
-0.0162742
-0.828707
-0.0338476
-0.8554
-0.0525706
-0.884967
-0.0724723
-0.922132
-0.0935495
-0.967148
-0.115891
-1.01887
-0.139725
-1.07775
-1.14181
-0.164943
0.0033509
-0.437125
-0.00586255
-0.739555
-0.0221895
-0.81238
-0.0411435
-0.836446
-0.0611809
-0.86493
-0.0824196
-0.900893
-0.104877
-0.94469
-0.128667
-0.995081
-0.154047
-1.05237
-1.11497
-0.180881
0.00140402
-0.438529
-0.0100719
-0.728079
-0.0279381
-0.794514
-0.0482229
-0.816161
-0.0695573
-0.843595
-0.09211
-0.878341
-0.115924
-0.920876
-0.141138
-0.969867
-0.168037
-1.02547
-1.08657
-0.196441
-0.000514041
-0.438015
-0.0141201
-0.714473
-0.033511
-0.775123
-0.0550816
-0.794591
-0.0776905
-0.820986
-0.101532
-0.854499
-0.126677
-0.895731
-0.15329
-0.943254
-0.181673
-0.997086
-1.05665
-0.211592
-0.00261367
-0.435402
-0.0180224
-0.699064
-0.0388967
-0.754248
-0.0617145
-0.771773
-0.0855718
-0.797129
-0.110675
-0.829396
-0.137122
-0.869284
-0.165108
-0.915269
-0.194939
-0.967254
-1.02525
-0.226339
-0.00458039
-0.430821
-0.0217796
-0.681865
-0.0440849
-0.731943
-0.0681162
-0.747742
-0.0931927
-0.772052
-0.119528
-0.80306
-0.14725
-0.841562
-0.176592
-0.885926
-0.207828
-0.936019
-0.992426
-0.240652
-0.00646114
-0.42436
-0.0253904
-0.662936
-0.0490702
-0.708263
-0.0742814
-0.72253
-0.100545
-0.745789
-0.128079
-0.775526
-0.15705
-0.81259
-0.18774
-0.855237
-0.220302
-0.903457
-0.958439
-0.25429
-0.00826338
-0.416097
-0.028853
-0.642346
-0.0538487
-0.683267
-0.0802049
-0.696174
-0.10762
-0.718374
-0.13632
-0.746826
-0.166512
-0.782399
-0.198494
-0.823254
-0.232369
-0.869582
-0.923748
-0.267059
-0.00998863
-0.406108
-0.0321652
-0.620169
-0.0584171
-0.657015
-0.0858818
-0.66871
-0.114412
-0.689843
-0.144242
-0.716996
-0.175618
-0.751024
-0.20879
-0.790082
-0.243419
-0.834953
-0.886801
-0.280366
-0.0116365
-0.394472
-0.0353246
-0.596481
-0.0627731
-0.629567
-0.0913072
-0.640175
-0.120913
-0.660237
-0.151837
-0.686072
-0.184344
-0.718518
-0.218596
-0.75583
-0.254487
-0.799062
-0.848226
-0.293062
-0.0132058
-0.381266
-0.0383288
-0.571358
-0.0669141
-0.600982
-0.0964765
-0.610613
-0.127118
-0.629596
-0.159096
-0.654093
-0.19269
-0.684923
-0.228054
-0.720467
-0.265314
-0.761802
-0.808295
-0.305245
-0.0146949
-0.366571
-0.0411755
-0.544878
-0.070838
-0.571319
-0.101385
-0.580066
-0.133018
-0.597964
-0.166005
-0.621106
-0.200632
-0.650295
-0.23706
-0.684039
-0.275535
-0.723327
-0.767098
-0.316732
-0.0161024
-0.350468
-0.0438624
-0.517118
-0.0745425
-0.540639
-0.106029
-0.548579
-0.138608
-0.565385
-0.172558
-0.587156
-0.208174
-0.614679
-0.245641
-0.646572
-0.285268
-0.6837
-0.724752
-0.327613
-0.0174261
-0.333042
-0.0463876
-0.488156
-0.0780255
-0.509001
-0.110404
-0.5162
-0.143881
-0.531909
-0.178744
-0.552293
-0.215299
-0.578124
-0.253755
-0.608116
-0.294454
-0.643001
-0.681331
-0.337875
-0.018664
-0.314378
-0.0487494
-0.458071
-0.0812849
-0.476466
-0.114506
-0.482979
-0.148831
-0.497585
-0.184557
-0.516567
-0.221999
-0.540682
-0.261393
-0.568723
-0.303095
-0.601298
-0.636907
-0.34752
-0.0198135
-0.294565
-0.0509462
-0.426938
-0.0843187
-0.443093
-0.118332
-0.448965
-0.153452
-0.462464
-0.189988
-0.480031
-0.228265
-0.502405
-0.268538
-0.528449
-0.311175
-0.558661
-0.591545
-0.356537
-0.020871
-0.273694
-0.0529765
-0.394833
-0.087125
-0.408945
-0.121877
-0.414213
-0.15774
-0.426601
-0.19503
-0.442742
-0.234085
-0.463349
-0.275179
-0.487356
-0.318681
-0.515159
-0.545313
-0.364913
-0.0218306
-0.251863
-0.0548383
-0.361825
-0.0897023
-0.374081
-0.125139
-0.378777
-0.161688
-0.390052
-0.199675
-0.404755
-0.239452
-0.423572
-0.281304
-0.445504
-0.325603
-0.47086
-0.49828
-0.372636
-0.0226777
-0.229186
-0.0565302
-0.327972
-0.0920498
-0.338561
-0.128114
-0.342713
-0.165293
-0.352873
-0.203918
-0.366129
-0.244357
-0.383133
-0.286903
-0.402958
-0.331928
-0.425836
-0.450515
-0.379692
-0.02344
-0.205746
-0.0580535
-0.293359
-0.0941668
-0.302448
-0.1308
-0.30608
-0.168549
-0.315124
-0.207753
-0.326924
-0.248792
-0.342094
-0.291968
-0.359782
-0.337646
-0.380157
-0.402093
-0.386069
-0.024143
-0.181603
-0.0594099
-0.258092
-0.0960524
-0.265805
-0.133193
-0.268939
-0.171453
-0.276864
-0.211175
-0.287202
-0.252751
-0.300518
-0.29649
-0.316044
-0.342749
-0.333898
-0.353085
-0.391757
-0.0247677
-0.156835
-0.0605989
-0.222261
-0.0977056
-0.228698
-0.135292
-0.231353
-0.174002
-0.238154
-0.214179
-0.247025
-0.256228
-0.258469
-0.300461
-0.271811
-0.347228
-0.287131
-0.303569
-0.396744
-0.0253078
-0.131527
-0.0616196
-0.185949
-0.0991251
-0.191193
-0.137095
-0.193383
-0.176192
-0.199057
-0.216761
-0.206456
-0.259216
-0.216014
-0.303873
-0.227154
-0.351075
-0.239928
-0.25362
-0.401025
-0.0257601
-0.105767
-0.0624714
-0.149238
-0.10031
-0.153355
-0.1386
-0.155092
-0.178021
-0.159636
-0.218918
-0.165559
-0.261712
-0.17322
-0.306722
-0.182145
-0.354283
-0.192367
-0.203312
-0.404591
-0.0261232
-0.0796437
-0.0631536
-0.112207
-0.101259
-0.11525
-0.139806
-0.116544
-0.179487
-0.119955
-0.220647
-0.1244
-0.263713
-0.130153
-0.309004
-0.136855
-0.356849
-0.144521
-0.152722
-0.407439
-0.0263961
-0.0532477
-0.0636657
-0.0749377
-0.101971
-0.0769445
-0.140712
-0.0778036
-0.180588
-0.0800791
-0.221945
-0.083043
-0.265216
-0.0868823
-0.310717
-0.0913532
-0.358774
-0.0964638
-0.101925
-0.409571
-0.0265783
-0.0266694
-0.0640073
-0.0375087
-0.102446
-0.0385057
-0.141316
-0.0389341
-0.181323
-0.0400722
-0.222811
-0.0415545
-0.266218
-0.0434752
-0.31186
-0.0457116
-0.360057
-0.0482667
-0.0509952
-0.410987
-0.0266694
-1.98509e-10
-0.0641781
-2.77126e-10
-0.102684
-2.78092e-10
-0.141618
-2.70666e-10
-0.18169
-2.64208e-10
-0.223245
-2.58026e-10
-0.26672
-2.52706e-10
-0.312431
-2.48459e-10
-0.360698
-2.44982e-10
-2.41451e-10
-0.411693
-0.0266694
0.0266694
-0.0641781
0.0375087
-0.102684
0.0385057
-0.141618
0.0389341
-0.18169
0.0400722
-0.223245
0.0415545
-0.26672
0.0434752
-0.312431
0.0457116
-0.360698
0.0482667
0.0509952
-0.411693
-0.0265783
0.0532477
-0.0640073
0.0749377
-0.102446
0.0769445
-0.141316
0.0778036
-0.181323
0.0800791
-0.222811
0.083043
-0.266218
0.0868823
-0.31186
0.0913532
-0.360057
0.0964638
0.101925
-0.410987
-0.0263961
0.0796437
-0.0636657
0.112207
-0.101971
0.11525
-0.140712
0.116544
-0.180588
0.119955
-0.221945
0.1244
-0.265216
0.130153
-0.310717
0.136855
-0.358774
0.144521
0.152722
-0.409571
-0.0261232
0.105767
-0.0631536
0.149238
-0.101259
0.153355
-0.139806
0.155092
-0.179487
0.159636
-0.220647
0.165559
-0.263713
0.17322
-0.309004
0.182145
-0.356849
0.192367
0.203312
-0.407439
-0.0257601
0.131527
-0.0624714
0.185949
-0.10031
0.191193
-0.1386
0.193383
-0.178021
0.199057
-0.218918
0.206456
-0.261712
0.216014
-0.306722
0.227154
-0.354283
0.239928
0.25362
-0.404591
-0.0253078
0.156835
-0.0616196
0.222261
-0.0991251
0.228698
-0.137095
0.231353
-0.176192
0.238154
-0.216761
0.247025
-0.259216
0.258469
-0.303873
0.271811
-0.351075
0.287131
0.303569
-0.401025
-0.0247677
0.181603
-0.0605989
0.258092
-0.0977056
0.265805
-0.135292
0.268939
-0.174002
0.276864
-0.214179
0.287202
-0.256228
0.300518
-0.300461
0.316044
-0.347228
0.333898
0.353085
-0.396744
-0.024143
0.205746
-0.0594099
0.293359
-0.0960524
0.302448
-0.133193
0.30608
-0.171453
0.315124
-0.211175
0.326924
-0.252751
0.342094
-0.29649
0.359782
-0.342749
0.380157
0.402093
-0.391757
-0.02344
0.229186
-0.0580535
0.327972
-0.0941668
0.338561
-0.1308
0.342713
-0.168549
0.352873
-0.207753
0.366129
-0.248792
0.383133
-0.291968
0.402958
-0.337646
0.425836
0.450515
-0.386069
-0.0226777
0.251863
-0.0565302
0.361825
-0.0920498
0.374081
-0.128114
0.378777
-0.165293
0.390052
-0.203918
0.404755
-0.244357
0.423572
-0.286903
0.445504
-0.331928
0.47086
0.49828
-0.379692
-0.0218306
0.273694
-0.0548383
0.394833
-0.0897023
0.408945
-0.125139
0.414213
-0.161688
0.426601
-0.199675
0.442742
-0.239452
0.463349
-0.281304
0.487356
-0.325603
0.515159
0.545313
-0.372636
-0.020871
0.294565
-0.0529765
0.426938
-0.087125
0.443093
-0.121877
0.448965
-0.15774
0.462464
-0.19503
0.480031
-0.234085
0.502405
-0.275179
0.528449
-0.318681
0.558661
0.591545
-0.364913
-0.0198135
0.314378
-0.0509462
0.458071
-0.0843187
0.476466
-0.118332
0.482979
-0.153452
0.497585
-0.189988
0.516567
-0.228265
0.540682
-0.268538
0.568723
-0.311175
0.601298
0.636907
-0.356537
-0.018664
0.333042
-0.0487494
0.488156
-0.0812849
0.509001
-0.114506
0.5162
-0.148831
0.531909
-0.184557
0.552293
-0.221999
0.578124
-0.261393
0.608116
-0.303095
0.643001
0.681331
-0.34752
-0.0174261
0.350468
-0.0463876
0.517118
-0.0780255
0.540639
-0.110404
0.548579
-0.143881
0.565385
-0.178744
0.587156
-0.215299
0.614679
-0.253755
0.646572
-0.294454
0.6837
0.724752
-0.337875
-0.0161024
0.366571
-0.0438624
0.544878
-0.0745425
0.571319
-0.106029
0.580066
-0.138608
0.597964
-0.172558
0.621106
-0.208174
0.650295
-0.245641
0.684039
-0.285268
0.723327
0.767098
-0.327613
-0.0146949
0.381266
-0.0411755
0.571358
-0.070838
0.600982
-0.101385
0.610613
-0.133018
0.629596
-0.166005
0.654093
-0.200632
0.684923
-0.23706
0.720467
-0.275535
0.761802
0.808295
-0.316732
-0.0132058
0.394472
-0.0383288
0.596481
-0.0669141
0.629567
-0.0964765
0.640175
-0.127118
0.660237
-0.159096
0.686072
-0.19269
0.718518
-0.228054
0.75583
-0.265314
0.799062
0.848226
-0.305245
-0.0116365
0.406108
-0.0353246
0.620169
-0.0627731
0.657015
-0.0913072
0.66871
-0.120913
0.689843
-0.151837
0.716996
-0.184344
0.751024
-0.218596
0.790082
-0.254487
0.834953
0.886801
-0.293062
-0.00998863
0.416097
-0.0321652
0.642346
-0.0584171
0.683267
-0.0858818
0.696174
-0.114412
0.718374
-0.144242
0.746826
-0.175618
0.782399
-0.20879
0.823254
-0.243419
0.869582
0.923748
-0.280366
-0.00826338
0.42436
-0.028853
0.662936
-0.0538487
0.708263
-0.0802049
0.72253
-0.10762
0.745789
-0.13632
0.775526
-0.166512
0.81259
-0.198494
0.855237
-0.232369
0.903457
0.958439
-0.267059
-0.00646114
0.430821
-0.0253904
0.681865
-0.0490702
0.731943
-0.0742814
0.747742
-0.100545
0.772052
-0.128079
0.80306
-0.15705
0.841562
-0.18774
0.885926
-0.220302
0.936019
0.992426
-0.25429
-0.00458039
0.435402
-0.0217796
0.699064
-0.0440849
0.754248
-0.0681162
0.771773
-0.0931927
0.797129
-0.119528
0.829396
-0.14725
0.869284
-0.176592
0.915269
-0.207828
0.967254
1.02525
-0.240652
-0.00261367
0.438015
-0.0180224
0.714473
-0.0388967
0.775123
-0.0617145
0.794591
-0.0855718
0.820986
-0.110675
0.854499
-0.137122
0.895731
-0.165108
0.943254
-0.194939
0.997086
1.05665
-0.226339
-0.000514041
0.438529
-0.0141201
0.728079
-0.033511
0.794514
-0.0550816
0.816161
-0.0776905
0.843595
-0.101532
0.878341
-0.126677
0.920876
-0.15329
0.969867
-0.181673
1.02547
1.08657
-0.211592
0.00140402
0.437125
-0.0100719
0.739555
-0.0279381
0.81238
-0.0482229
0.836446
-0.0695573
0.86493
-0.09211
0.900893
-0.115924
0.94469
-0.141138
0.995081
-0.168037
1.05237
1.11497
-0.196441
0.0033509
0.433774
-0.00586255
0.748768
-0.0221895
0.828707
-0.0411435
0.8554
-0.0611809
0.884967
-0.0824196
0.922132
-0.104877
0.967148
-0.128667
1.01887
-0.154047
1.07775
1.14181
-0.180881
0.00536483
0.42841
-0.0014555
0.755589
-0.0162742
0.843525
-0.0338476
0.872974
-0.0525706
0.90369
-0.0724723
0.942034
-0.0935495
0.988225
-0.115891
1.04121
-0.139725
1.10158
1.16703
-0.164943
0.00740892
0.421001
0.00290786
0.76009
-0.0102045
0.856638
-0.0263419
0.889111
-0.0437363
0.921084
-0.0622794
0.960577
-0.0819555
1.0079
-0.102826
1.06208
-0.125091
1.12385
1.1906
-0.148662
0.00946264
0.411538
0.00732385
0.762228
-0.00399858
0.86796
-0.0186363
0.903749
-0.034688
0.937136
-0.0518523
0.977741
-0.0701103
1.02616
-0.0894903
1.08146
-0.110168
1.14453
1.2125
-0.132068
0.0115099
0.400028
0.0118531
0.761885
0.00240812
0.877405
-0.0107428
0.9169
-0.0254358
0.951829
-0.0412029
0.993508
-0.0580294
1.04299
-0.0759031
1.09934
-0.094978
1.1636
1.23271
-0.115191
0.0135314
0.386497
0.0164564
0.75896
0.00906915
0.884792
-0.00269101
0.92866
-0.0159915
0.96513
-0.0303439
1.00786
-0.0457285
1.05837
-0.0620845
1.11569
-0.0795444
1.18106
1.25122
-0.0980594
0.0155026
0.370994
0.0211015
0.753361
0.0158125
0.890081
0.00559951
0.938873
-0.00637925
0.977108
-0.01929
1.02077
-0.0332235
1.0723
-0.0480557
1.13052
-0.0638889
1.19689
1.26803
-0.0807002
0.017395
0.353599
0.0257571
0.744999
0.0226534
0.893185
0.0140629
0.947463
0.00343805
0.987733
-0.00806442
1.03227
-0.0205301
1.08477
-0.0338394
1.14383
-0.048032
1.21109
1.28314
-0.063139
0.0191768
0.334422
0.0303888
0.733787
0.0295762
0.893998
0.0226643
0.954375
0.0135277
0.99687
0.00333441
1.04247
-0.00766711
1.09577
-0.0194627
1.15563
-0.0319903
1.22361
1.29655
-0.0454001
0.0208131
0.313609
0.0349573
0.719643
0.0365549
0.8924
0.0313962
0.959534
0.0237342
1.00453
0.0149805
1.05122
0.00537878
1.10537
-0.00497016
1.16598
-0.0157775
1.23442
1.30829
-0.0275126
0.022265
0.291344
0.0394177
0.70249
0.0435572
0.888261
0.0402404
0.962851
0.0340758
1.0107
0.0267437
1.05855
0.0186142
1.1135
0.00978479
1.17481
0.000624258
1.24358
1.31841
-0.00950429
0.0234904
0.267854
0.0437195
0.682261
0.0505444
0.881436
0.0491753
0.96422
0.0445457
1.01533
0.0386351
1.06446
0.0319631
1.12017
0.0246758
1.18209
0.0169504
1.25131
1.32668
0.00868888
0.0244449
0.243409
0.0478066
0.658899
0.0574692
0.871773
0.0581758
0.963513
0.0551303
1.01837
0.0506469
1.06895
0.0454183
1.1254
0.0396385
1.18787
0.0334822
1.25746
1.33316
0.0270023
0.0250855
0.218323
0.0516178
0.632367
0.0642762
0.859115
0.0672128
0.960577
0.0658137
1.01977
0.062767
1.07199
0.0589682
1.1292
0.05468
1.19216
0.0501192
1.26202
1.33798
0.0452935
0.025375
0.192948
0.0550875
0.602655
0.0709275
0.843275
0.076252
0.955252
0.0765773
1.01945
0.0749821
1.07359
0.0726008
1.13158
0.0697843
1.19498
0.0667784
1.26503
1.3412
0.0635566
0.0252882
0.16766
0.0581468
0.569796
0.077357
0.824064
0.085251
0.947358
0.087399
1.0173
0.0872781
1.07371
0.0863021
1.13256
0.0849317
1.19635
0.0834579
1.2665
1.34281
0.0818489
0.0248161
0.142844
0.0607255
0.533887
0.0834861
0.801304
0.0941588
0.936685
0.0982517
1.0132
0.0996393
1.07232
0.100058
1.13214
0.100104
1.1963
0.100137
1.26647
1.34283
0.100123
0.0239676
0.118876
0.0627627
0.495091
0.0892259
0.774841
0.102912
0.922999
0.109101
1.00702
0.112048
1.06938
0.113853
1.13034
0.115285
1.19487
0.116794
1.26496
1.34128
0.11834
0.0227689
0.0961075
0.0641791
0.453681
0.0944724
0.744548
0.111436
0.906035
0.119905
0.998546
0.124482
1.0648
0.127672
1.12715
0.130457
1.19208
0.133402
1.26202
1.33822
0.136468
0.0212614
0.0748461
0.064764
0.410179
0.0991106
0.710201
0.11964
0.885505
0.13061
0.987577
0.136916
1.05849
0.141499
1.12256
0.145601
1.18798
0.149939
1.25768
1.33368
0.154475
0.0194967
0.0553494
0.0644644
0.365211
0.10302
0.671645
0.127415
0.86111
0.141146
0.973846
0.149316
1.05032
0.155314
1.11656
0.160697
1.1826
0.16638
1.252
1.32773
0.172331
0.0175259
0.0378235
0.063229
0.319508
0.106067
0.628807
0.134632
0.832545
0.151431
0.957047
0.161639
1.04012
0.169097
1.10911
0.175723
1.17597
0.182702
1.24502
1.32043
0.190004
0.0153969
0.0224267
0.0610268
0.273878
0.108105
0.581729
0.14114
0.79951
0.161362
0.936825
0.173831
1.02765
0.182822
1.10011
0.190665
1.16813
0.198882
1.2368
1.31184
0.207465
0.0131599
0.00926674
0.0578681
0.22917
0.108974
0.530623
0.146768
0.761717
0.170816
0.912777
0.185822
1.01264
0.196454
1.08948
0.205501
1.15908
0.214896
1.2274
1.30206
0.224682
0.0108799
-0.00161313
0.0538212
0.186228
0.108517
0.475927
0.151323
0.718911
0.179644
0.884456
0.197524
0.994761
0.209947
1.07706
0.220202
1.14883
0.230714
1.21689
1.29114
0.241627
0.00864327
-0.0102564
0.0490174
0.145854
0.106581
0.418363
0.154594
0.670898
0.187663
0.851387
0.20882
0.973604
0.223237
1.06264
0.234731
1.13733
0.246311
1.20531
1.2792
0.258257
0.00654784
-0.0168042
0.0436397
0.108762
0.10304
0.358963
0.156349
0.617588
0.194652
0.813084
0.219555
0.948701
0.236239
1.04596
0.249041
1.12453
0.261638
1.19272
1.26627
0.274569
0.00468798
-0.0214922
0.0379049
0.0755454
0.0978017
0.299066
0.156343
0.559047
0.20035
0.769078
0.229537
0.919514
0.248837
1.02666
0.263069
1.1103
0.276668
1.17912
1.25249
0.290448
0.00313171
-0.0246239
0.0320627
0.0466144
0.090855
0.240274
0.154325
0.495577
0.204458
0.718945
0.238527
0.885445
0.260879
1.00431
0.276718
1.09446
0.291295
1.16454
1.23775
0.30603
0.00191903
-0.026543
0.0264698
0.0220636
0.0824725
0.184271
0.150069
0.42798
0.206646
0.662368
0.246235
0.845856
0.272152
0.978388
0.28989
1.07672
0.305469
1.14896
1.22238
0.320847
0.00107899
-0.027622
0.021497
0.00164562
0.0731898
0.132579
0.143436
0.357733
0.206571
0.599234
0.252312
0.800115
0.28241
0.94829
0.302365
1.05677
0.319018
1.13231
1.20569
0.335703
0.000642702
-0.0282647
0.0175598
-0.0152715
0.0637876
0.0863508
0.134496
0.287025
0.203898
0.529832
0.256362
0.747651
0.291287
0.913366
0.314055
1.034
0.331632
1.11473
1.18862
0.348707
0.000639736
-0.0289044
0.015003
-0.0296348
0.0552273
0.0461265
0.123702
0.21855
0.198369
0.455164
0.257945
0.688075
0.298423
0.872887
0.32444
1.00798
0.343521
1.09565
1.1692
0.362941
0.00108257
-0.029987
0.0139805
-0.0425327
0.0484116
0.0116954
0.112019
0.154943
0.189916
0.377267
0.256634
0.621357
0.303284
0.826238
0.333636
0.977632
0.352166
1.07712
1.14838
0.372982
0.00194651
-0.0319335
0.0143945
-0.0549807
0.044004
-0.017914
0.100808
0.0981386
0.17885
0.299225
0.252086
0.548122
0.305382
0.772942
0.340734
0.942279
0.361814
1.05604
1.12808
0.382111
0.00314243
-0.0350759
0.0159205
-0.0677588
0.0421601
-0.0441536
0.0914112
0.0488875
0.166028
0.224608
0.244155
0.469995
0.304234
0.712863
0.345255
0.901259
0.370505
1.03079
1.10574
0.392849
0.00452144
-0.0395973
0.018064
-0.0813013
0.0423604
-0.0684501
0.0846101
0.00663782
0.15275
0.156468
0.23297
0.389775
0.299356
0.646478
0.346491
0.854124
0.376544
1.00073
1.081
0.401284
0.00589926
-0.0454966
0.0202514
-0.0956534
0.0435383
-0.0917371
0.0802437
-0.0300676
0.140263
0.0964485
0.218972
0.311066
0.290388
0.575061
0.343764
0.800748
0.379256
0.965243
1.05339
0.406868
0.00708393
-0.0525805
0.0219118
-0.110481
0.0444361
-0.114261
0.0771988
-0.0628303
0.129095
0.0445525
0.202931
0.23723
0.277211
0.500781
0.336464
0.741495
0.377908
0.923799
1.02215
0.409148
0.00789966
-0.0604802
0.0225744
-0.125156
0.0439585
-0.135645
0.0738199
-0.0926917
0.11871
-0.000337697
0.185482
0.170458
0.259921
0.426342
0.324104
0.677312
0.37179
0.876114
0.98651
0.407428
0.00820421
-0.0686844
0.0219125
-0.138864
0.04137
-0.155103
0.0685475
-0.119869
0.107708
-0.0394983
0.166681
0.111485
0.238677
0.354347
0.306343
0.609646
0.36024
0.822216
0.945755
0.400995
0.00790082
-0.0765852
0.0197558
-0.150719
0.0363368
-0.171684
0.0602807
-0.143813
0.094572
-0.0737897
0.145953
0.0601039
0.213544
0.286756
0.282978
0.540212
0.342691
0.762503
0.899288
0.389158
0.00694586
-0.0835311
0.0160871
-0.15986
0.0288643
-0.184461
0.048679
-0.163628
0.0781287
-0.103239
0.122418
0.0158147
0.184435
0.224739
0.253931
0.470716
0.318728
0.697706
0.846687
0.371328
0.00535195
-0.088883
0.011025
-0.165533
0.0192028
-0.192639
0.0339366
-0.178362
0.0579712
-0.127274
0.0954061
-0.0216202
0.151252
0.168894
0.219283
0.402684
0.28817
0.628819
0.787755
0.347102
0.00318612
-0.0920692
0.00479639
-0.167144
0.00775459
-0.195597
0.0166033
-0.18721
0.0343852
-0.145056
0.0648299
-0.0520648
0.114145
0.119578
0.179385
0.337444
0.25117
0.557034
0.722559
0.316366
0.000564821
-0.092634
-0.00227413
-0.164305
-0.00490952
-0.192962
-0.00257999
-0.18954
0.00813019
-0.155766
0.0312332
-0.0751678
0.0737285
0.0770831