/*--------------------------------*- C++ -*----------------------------------*\
  =========                 |
  \\      /  F ield         | OpenFOAM: The Open Source CFD Toolbox
   \\    /   O peration     | Website:  https://openfoam.org
    \\  /    A nd           | Version:  7
     \\/     M anipulation  |
\*---------------------------------------------------------------------------*/
FoamFile
{
    version     2.0;
    format      ascii;
    class       volScalarField;
    location    "2.9";
    object      p;
}
// * * * * * * * * * * * * * * * * * * * * * * * * * * * * * * * * * * * * * //

dimensions      [1 -1 -2 0 0 0 0];

internalField   nonuniform List<scalar> 
252
(
1
1
1.88369
8.60289
10.9057
11.4135
1
1
1.61214
7.98808
10.5559
11.307
1
1
1.09747
6.56569
9.19008
7.94884
1
1
1.00207
4.15818
7.90125
7.15144
1
1
0.999984
1.73683
6.31476
7.07299
1
1
0.999996
1.05882
3.69723
6.85616
1
1
0.999999
1.00039
1.52689
5.07089
1
1
1
1
1.02337
2.56224
1
1
1
1
1.00017
1.19721
1
1
1
1
1
1.00599
2.54976
1.2807
0.828655
0.875829
0.958077
1.04925
1.17278
1.36336
2.49101
5.68616
6.37623
6.01277
5.39742
4.93542
4.56629
4.22137
3.89921
3.60207
3.32994
3.0854
2.86907
2.6737
2.53345
2.31528
3.90351
2.57326
1.85627
1.58394
1.37556
1.24925
1.30531
1.67692
2.54095
3.9967
5.11062
5.45524
5.04596
4.67856
4.41286
4.12341
3.81304
3.561
3.32403
3.09326
2.88259
2.68885
2.54083
2.31386
4.77138
3.31504
2.48838
1.93931
1.56222
1.38852
1.65326
2.57614
2.96524
2.93378
3.40485
4.23802
4.5674
4.54883
4.43186
4.15045
3.82353
3.58467
3.34492
3.10177
2.88632
2.68884
2.52562
2.28156
5.28606
3.90082
3.05166
2.32829
1.96277
2.2277
3.113
3.57199
3.34945
2.97628
2.6798
2.77303
3.17565
3.5317
3.75583
3.81242
3.71437
3.52138
3.29624
3.06707
2.85146
2.64546
2.47444
2.22801
5.568
4.52923
3.47511
2.77558
3.17593
4.19657
4.45005
4.07557
3.57193
3.09084
2.65453
2.39736
2.2986
2.4079
2.71229
3.08677
3.19934
3.1942
3.17952
3.08442
2.8608
2.62658
2.4447
2.20111
4.85222
4.74631
3.96323
4.52516
5.96226
6.14572
5.51028
4.63067
3.87519
3.28347
2.82438
2.44917
2.16988
2.05727
1.98193
2.10262
2.29665
2.53222
2.74266
2.73072
2.66312
2.56554
2.4494
2.2852
3.02442
4.07426
5.69525
8.32787
7.69896
6.68802
5.65623
4.75704
4.03643
3.45384
2.9988
2.61474
2.26696
2.01277
1.85084
1.72537
1.65567
1.73522
1.96547
2.14353
2.30659
2.35526
2.42177
2.57628
1.41056
3.35388
9.58944
13.3057
9.92925
7.4479
5.85177
4.81953
4.09773
3.52833
3.075
2.70213
2.35449
2.07081
1.82803
1.60946
1.49842
1.38827
1.40527
1.49286
1.74516
2.18019
2.60204
3.09639
)
;

boundaryField
{
    inlet
    {
        type            fixedValue;
        value           uniform 1;
    }
    outlet
    {
        type            zeroGradient;
    }
    bottom
    {
        type            symmetryPlane;
    }
    top
    {
        type            symmetryPlane;
    }
    obstacle
    {
        type            zeroGradient;
    }
    defaultFaces
    {
        type            empty;
    }
}


// ************************************************************************* //
