/*--------------------------------*- C++ -*----------------------------------*\
  =========                 |
  \\      /  F ield         | OpenFOAM: The Open Source CFD Toolbox
   \\    /   O peration     | Website:  https://openfoam.org
    \\  /    A nd           | Version:  9
     \\/     M anipulation  |
\*---------------------------------------------------------------------------*/
FoamFile
{
    format      ascii;
    class       volScalarField;
    location    "33.5";
    object      p;
}
// * * * * * * * * * * * * * * * * * * * * * * * * * * * * * * * * * * * * * //

dimensions      [0 2 -2 0 0 0 0];

internalField   nonuniform List<scalar> 
8500
(
-0.300311
-0.304528
-0.305367
-0.307118
-0.309209
-0.309461
-0.313226
-0.309604
-0.315794
-0.308483
-0.300576
-0.304732
-0.305564
-0.307284
-0.309408
-0.309555
-0.313523
-0.309539
-0.316208
-0.30837
-0.3011
-0.305135
-0.305953
-0.307609
-0.309797
-0.309733
-0.31411
-0.309393
-0.317031
-0.308142
-0.301868
-0.305725
-0.306519
-0.308076
-0.31036
-0.309974
-0.314965
-0.309136
-0.318251
-0.307795
-0.302863
-0.306487
-0.307244
-0.308664
-0.311071
-0.310252
-0.316054
-0.308732
-0.319844
-0.307326
-0.304062
-0.307402
-0.308106
-0.309346
-0.311895
-0.31054
-0.317323
-0.308145
-0.321769
-0.306717
-0.305438
-0.30845
-0.30908
-0.310093
-0.312788
-0.310817
-0.318696
-0.307344
-0.32397
-0.305907
-0.306965
-0.309609
-0.310135
-0.310877
-0.313698
-0.311067
-0.320078
-0.30632
-0.326355
-0.304888
-0.308617
-0.310857
-0.311245
-0.31167
-0.314568
-0.311287
-0.321351
-0.305146
-0.328481
-0.303869
-0.31037
-0.312175
-0.312381
-0.312454
-0.315342
-0.311492
-0.322299
-0.304049
-0.330277
-0.302472
-0.312206
-0.313548
-0.313519
-0.313211
-0.31596
-0.311771
-0.322788
-0.302926
-0.3317
-0.300856
-0.314111
-0.314964
-0.314638
-0.313933
-0.316319
-0.312166
-0.322832
-0.301849
-0.33234
-0.299498
-0.31608
-0.316417
-0.315729
-0.314639
-0.316442
-0.312548
-0.32243
-0.301138
-0.331651
-0.298955
-0.318115
-0.317909
-0.316784
-0.315305
-0.316386
-0.312864
-0.321515
-0.300956
-0.32924
-0.29925
-0.320229
-0.319444
-0.317814
-0.315912
-0.316195
-0.3131
-0.320152
-0.301221
-0.325091
-0.299573
-0.322446
-0.321031
-0.318856
-0.316466
-0.315923
-0.313053
-0.318465
-0.301566
-0.319704
-0.298831
-0.324802
-0.322691
-0.31994
-0.316998
-0.315644
-0.312691
-0.316543
-0.301603
-0.313724
-0.296505
-0.327336
-0.324455
-0.3211
-0.317548
-0.315419
-0.312033
-0.314352
-0.301138
-0.307406
-0.292613
-0.330097
-0.326359
-0.32238
-0.318152
-0.315252
-0.311191
-0.311801
-0.300099
-0.300677
-0.287576
-0.333142
-0.328442
-0.323831
-0.318837
-0.315104
-0.310285
-0.30887
-0.298344
-0.293582
-0.282173
-0.336525
-0.330756
-0.325504
-0.319602
-0.314949
-0.309352
-0.305632
-0.295646
-0.286742
-0.276891
-0.340291
-0.333368
-0.327438
-0.320433
-0.31482
-0.308332
-0.302171
-0.291954
-0.280599
-0.270352
-0.344515
-0.336332
-0.329637
-0.321338
-0.314773
-0.307104
-0.298516
-0.287535
-0.274433
-0.263595
-0.34926
-0.33971
-0.332066
-0.322401
-0.314803
-0.305559
-0.294668
-0.282525
-0.268266
-0.256796
-0.354588
-0.343555
-0.334671
-0.323751
-0.31482
-0.303641
-0.29058
-0.277124
-0.261985
-0.249907
-0.360567
-0.34788
-0.337457
-0.325464
-0.314703
-0.301321
-0.28623
-0.271425
-0.255567
-0.242995
-0.367271
-0.352635
-0.340538
-0.327461
-0.314349
-0.298596
-0.281603
-0.265489
-0.249013
-0.235993
-0.37477
-0.357723
-0.344116
-0.329541
-0.313683
-0.295469
-0.276689
-0.259341
-0.242308
-0.2289
-0.383107
-0.36304
-0.348376
-0.331487
-0.312634
-0.291945
-0.271481
-0.252981
-0.235448
-0.221676
-0.392256
-0.368525
-0.35336
-0.333147
-0.311134
-0.288018
-0.265967
-0.246399
-0.228414
-0.214301
-0.402101
-0.374193
-0.358887
-0.334422
-0.309118
-0.283668
-0.260131
-0.239578
-0.221189
-0.206748
-0.412416
-0.380118
-0.364569
-0.335237
-0.306534
-0.278867
-0.253949
-0.232497
-0.213749
-0.198995
-0.422869
-0.386401
-0.36992
-0.335502
-0.303337
-0.273578
-0.247392
-0.225129
-0.20607
-0.191022
-0.433142
-0.393102
-0.374478
-0.335102
-0.29949
-0.267764
-0.240431
-0.217449
-0.198131
-0.182809
-0.44293
-0.400187
-0.377892
-0.333906
-0.294949
-0.26139
-0.23303
-0.209427
-0.189909
-0.174339
-0.451978
-0.407482
-0.379942
-0.331778
-0.28967
-0.254424
-0.225159
-0.201036
-0.181384
-0.165596
-0.460082
-0.414663
-0.380525
-0.328591
-0.283601
-0.246832
-0.216786
-0.192251
-0.172535
-0.156566
-0.467082
-0.421272
-0.379627
-0.324246
-0.276688
-0.23858
-0.207884
-0.183048
-0.163344
-0.147243
-0.472851
-0.426785
-0.377276
-0.318673
-0.268879
-0.229635
-0.198426
-0.173408
-0.153797
-0.137636
-0.477281
-0.430725
-0.373453
-0.311825
-0.260123
-0.219964
-0.188391
-0.163312
-0.14388
-0.12777
-0.48027
-0.432757
-0.368037
-0.303658
-0.25038
-0.209537
-0.177759
-0.152744
-0.133583
-0.117662
-0.481711
-0.432601
-0.360934
-0.294126
-0.239614
-0.198331
-0.166515
-0.141688
-0.122896
-0.10729
-0.481475
-0.430059
-0.352085
-0.283192
-0.227798
-0.186326
-0.154645
-0.130133
-0.111831
-0.0965922
-0.479403
-0.424992
-0.341444
-0.270831
-0.21491
-0.173507
-0.142135
-0.11807
-0.100428
-0.0854887
-0.475308
-0.417312
-0.32896
-0.257043
-0.20094
-0.15986
-0.128976
-0.1055
-0.0887353
-0.0739579
-0.468985
-0.406959
-0.314595
-0.241831
-0.185873
-0.145381
-0.115172
-0.0924633
-0.0767268
-0.0621337
-0.460216
-0.393899
-0.29833
-0.225196
-0.169695
-0.130092
-0.100764
-0.0790405
-0.0642903
-0.050106
-0.44879
-0.378115
-0.280155
-0.207134
-0.152413
-0.114057
-0.0858157
-0.0652087
-0.0514346
-0.0378803
-0.434514
-0.359605
-0.260065
-0.187667
-0.134113
-0.0973324
-0.0702851
-0.0509782
-0.038206
-0.0254633
-0.417228
-0.33839
-0.238049
-0.166882
-0.114946
-0.0798217
-0.0542128
-0.0363625
-0.0246524
-0.0128685
-0.396814
-0.314526
-0.214107
-0.14493
-0.0948518
-0.0615795
-0.037639
-0.0213861
-0.0108166
-0.000122655
-0.373206
-0.288141
-0.188322
-0.121784
-0.0738753
-0.0426654
-0.0206074
-0.00608155
0.00326018
0.0127375
-0.346393
-0.259402
-0.160884
-0.0973608
-0.0520749
-0.0231455
-0.00316575
0.00951146
0.017538
0.0256679
-0.316421
-0.22834
-0.131931
-0.0717762
-0.0295179
-0.00308999
0.0146317
0.0253489
0.0319804
0.0386237
-0.283411
-0.194695
-0.10185
-0.045174
-0.0062786
0.0174261
0.0327243
0.0413856
0.0465562
0.0515614
-0.247538
-0.158774
-0.0705943
-0.0177042
0.0175564
0.038323
0.0510473
0.0575799
0.0612331
0.0644104
-0.208902
-0.120984
-0.0382152
0.0104869
0.041887
0.0595154
0.0695354
0.073898
0.0759557
0.0769973
-0.167471
-0.0819558
-0.00484288
0.0392568
0.0666023
0.0809138
0.0881265
0.0903064
0.0906115
0.0889856
-0.12373
-0.0418496
0.0293431
0.0684626
0.0915828
0.102425
0.10676
0.106746
0.105026
0.100086
-0.0780374
-0.00085665
0.0641385
0.0979552
0.116702
0.123954
0.125367
0.123105
0.119036
0.110618
-0.0307724
0.0407858
0.0993237
0.127578
0.141831
0.145403
0.143865
0.139245
0.132589
0.121896
0.0176624
0.0828139
0.13467
0.157167
0.166835
0.166672
0.162154
0.155053
0.145887
0.133704
0.066848
0.124946
0.169942
0.186552
0.191577
0.187655
0.180142
0.170498
0.158979
0.145555
0.116354
0.166891
0.204902
0.21556
0.215922
0.208243
0.197731
0.185534
0.17181
0.157272
0.165741
0.208348
0.239314
0.244014
0.239729
0.228326
0.214835
0.200112
0.184308
0.168673
0.214571
0.249017
0.27294
0.271737
0.262861
0.247794
0.231366
0.214176
0.196405
0.179663
0.262406
0.288599
0.305549
0.298554
0.285182
0.266539
0.247241
0.227664
0.208035
0.190161
0.308817
0.326802
0.336913
0.324294
0.306556
0.284453
0.262378
0.240513
0.219132
0.200109
0.353383
0.363346
0.366815
0.348787
0.326855
0.301434
0.276698
0.252658
0.229638
0.209457
0.395695
0.39797
0.395046
0.371874
0.345952
0.317383
0.290124
0.26404
0.239493
0.218162
0.435378
0.430419
0.421408
0.393398
0.363728
0.332205
0.302583
0.274598
0.248644
0.226187
0.472133
0.460402
0.445711
0.413214
0.38007
0.345813
0.314007
0.284277
0.257039
0.233496
0.505663
0.487665
0.46778
0.431186
0.394875
0.358126
0.324333
0.293025
0.264629
0.240061
0.535678
0.51199
0.487455
0.447192
0.408047
0.369069
0.333501
0.300793
0.271373
0.245854
0.561914
0.533191
0.504593
0.461121
0.419501
0.378576
0.341461
0.307538
0.277229
0.250853
0.584141
0.551109
0.519068
0.472877
0.429163
0.386589
0.348165
0.31322
0.282164
0.255042
0.602162
0.565607
0.530778
0.482381
0.436969
0.393059
0.353577
0.317806
0.286147
0.258406
0.615819
0.576578
0.539635
0.489566
0.442869
0.397947
0.357663
0.32127
0.289156
0.260936
0.624991
0.583937
0.545576
0.494384
0.446824
0.401223
0.360401
0.323591
0.291172
0.262624
0.629597
0.587631
0.548557
0.496801
0.448808
0.402866
0.361774
0.324754
0.292183
0.263469
0.629597
0.587631
0.548557
0.496801
0.448808
0.402866
0.361774
0.324754
0.292183
0.263469
0.624991
0.583937
0.545576
0.494384
0.446824
0.401223
0.360401
0.323591
0.291172
0.262624
0.615819
0.576578
0.539635
0.489566
0.442869
0.397947
0.357663
0.32127
0.289156
0.260936
0.602162
0.565607
0.530778
0.482381
0.436969
0.393059
0.353577
0.317806
0.286147
0.258406
0.584141
0.551109
0.519068
0.472877
0.429163
0.386589
0.348165
0.31322
0.282164
0.255042
0.561914
0.533191
0.504593
0.46112
0.419501
0.378576
0.341461
0.307538
0.277229
0.250853
0.535678
0.51199
0.487455
0.447192
0.408047
0.369069
0.333501
0.300793
0.271373
0.245854
0.505663
0.487665
0.46778
0.431186
0.394875
0.358126
0.324333
0.293025
0.264629
0.240061
0.472133
0.460402
0.445711
0.413214
0.38007
0.345813
0.314007
0.284277
0.257039
0.233496
0.435378
0.430419
0.421408
0.393398
0.363728
0.332205
0.302583
0.274598
0.248644
0.226187
0.395695
0.39797
0.395046
0.371874
0.345952
0.317383
0.290124
0.26404
0.239493
0.218162
0.353383
0.363346
0.366815
0.348787
0.326855
0.301434
0.276698
0.252658
0.229638
0.209457
0.308816
0.326802
0.336913
0.324294
0.306556
0.284453
0.262378
0.240513
0.219132
0.200109
0.262406
0.288599
0.305549
0.298554
0.285182
0.266539
0.247241
0.227664
0.208035
0.190161
0.214571
0.249017
0.27294
0.271737
0.262861
0.247794
0.231366
0.214176
0.196405
0.179663
0.165741
0.208348
0.239314
0.244014
0.239729
0.228326
0.214835
0.200112
0.184308
0.168673
0.116353
0.166891
0.204902
0.21556
0.215921
0.208243
0.197731
0.185533
0.17181
0.157272
0.0668479
0.124946
0.169942
0.186552
0.191577
0.187655
0.180142
0.170498
0.158979
0.145555
0.0176623
0.0828139
0.13467
0.157167
0.166835
0.166672
0.162154
0.155053
0.145887
0.133704
-0.0307725
0.0407857
0.0993236
0.127578
0.141831
0.145403
0.143865
0.139245
0.132589
0.121896
-0.0780375
-0.000856707
0.0641384
0.0979551
0.116702
0.123954
0.125367
0.123105
0.119036
0.110618
-0.12373
-0.0418496
0.0293431
0.0684625
0.0915827
0.102425
0.10676
0.106745
0.105026
0.100086
-0.167471
-0.0819558
-0.00484294
0.0392567
0.0666023
0.0809137
0.0881265
0.0903063
0.0906115
0.0889856
-0.208902
-0.120984
-0.0382153
0.0104868
0.041887
0.0595154
0.0695354
0.073898
0.0759557
0.0769973
-0.247538
-0.158774
-0.0705944
-0.0177043
0.0175564
0.0383229
0.0510473
0.0575799
0.061233
0.0644104
-0.283411
-0.194695
-0.10185
-0.0451741
-0.00627865
0.0174261
0.0327243
0.0413856
0.0465561
0.0515613
-0.316421
-0.22834
-0.131931
-0.0717762
-0.029518
-0.00309004
0.0146316
0.0253489
0.0319804
0.0386237
-0.346393
-0.259402
-0.160884
-0.0973609
-0.052075
-0.0231456
-0.0031658
0.00951142
0.017538
0.0256678
-0.373206
-0.288141
-0.188322
-0.121784
-0.0738754
-0.0426655
-0.0206075
-0.0060816
0.00326013
0.0127375
-0.396814
-0.314526
-0.214107
-0.14493
-0.0948518
-0.0615796
-0.0376391
-0.0213861
-0.0108166
-0.000122693
-0.417228
-0.33839
-0.238049
-0.166882
-0.114946
-0.0798217
-0.0542129
-0.0363625
-0.0246524
-0.0128685
-0.434514
-0.359606
-0.260065
-0.187667
-0.134113
-0.0973325
-0.0702851
-0.0509782
-0.0382061
-0.0254633
-0.44879
-0.378115
-0.280155
-0.207134
-0.152413
-0.114057
-0.0858158
-0.0652087
-0.0514346
-0.0378804
-0.460216
-0.393899
-0.29833
-0.225196
-0.169695
-0.130092
-0.100764
-0.0790405
-0.0642903
-0.050106
-0.468985
-0.406959
-0.314595
-0.241831
-0.185873
-0.145381
-0.115172
-0.0924634
-0.0767269
-0.0621338
-0.475309
-0.417312
-0.32896
-0.257043
-0.20094
-0.15986
-0.128976
-0.1055
-0.0887354
-0.073958
-0.479403
-0.424992
-0.341444
-0.270831
-0.214911
-0.173507
-0.142136
-0.11807
-0.100428
-0.0854888
-0.481475
-0.430059
-0.352085
-0.283192
-0.227798
-0.186326
-0.154645
-0.130134
-0.111831
-0.0965922
-0.481711
-0.432602
-0.360934
-0.294126
-0.239615
-0.198331
-0.166515
-0.141688
-0.122896
-0.10729
-0.48027
-0.432757
-0.368037
-0.303658
-0.250381
-0.209538
-0.177759
-0.152744
-0.133583
-0.117662
-0.477281
-0.430725
-0.373453
-0.311825
-0.260124
-0.219964
-0.188391
-0.163312
-0.14388
-0.12777
-0.472852
-0.426785
-0.377277
-0.318673
-0.268879
-0.229635
-0.198426
-0.173408
-0.153797
-0.137636
-0.467083
-0.421272
-0.379627
-0.324246
-0.276688
-0.23858
-0.207884
-0.183048
-0.163344
-0.147243
-0.460082
-0.414663
-0.380525
-0.328591
-0.283601
-0.246832
-0.216786
-0.192251
-0.172535
-0.156566
-0.451978
-0.407482
-0.379942
-0.331778
-0.28967
-0.254424
-0.225159
-0.201036
-0.181384
-0.165596
-0.44293
-0.400187
-0.377892
-0.333906
-0.29495
-0.261391
-0.23303
-0.209427
-0.189909
-0.174339
-0.433142
-0.393102
-0.374478
-0.335102
-0.29949
-0.267764
-0.240431
-0.217449
-0.198131
-0.182809
-0.422869
-0.386401
-0.36992
-0.335502
-0.303337
-0.273578
-0.247393
-0.225129
-0.20607
-0.191022
-0.412416
-0.380119
-0.364569
-0.335238
-0.306534
-0.278867
-0.253949
-0.232497
-0.213749
-0.198995
-0.402101
-0.374193
-0.358887
-0.334422
-0.309118
-0.283668
-0.260131
-0.239578
-0.221189
-0.206748
-0.392256
-0.368525
-0.35336
-0.333147
-0.311134
-0.288018
-0.265968
-0.246399
-0.228414
-0.214301
-0.383107
-0.36304
-0.348376
-0.331488
-0.312635
-0.291945
-0.271481
-0.252981
-0.235448
-0.221676
-0.37477
-0.357723
-0.344116
-0.329541
-0.313683
-0.295469
-0.27669
-0.259341
-0.242308
-0.2289
-0.367271
-0.352635
-0.340538
-0.327461
-0.314349
-0.298596
-0.281603
-0.265489
-0.249013
-0.235993
-0.360567
-0.34788
-0.337457
-0.325464
-0.314703
-0.301321
-0.286231
-0.271425
-0.255567
-0.242995
-0.354588
-0.343556
-0.334671
-0.323751
-0.31482
-0.303641
-0.29058
-0.277124
-0.261985
-0.249907
-0.34926
-0.33971
-0.332066
-0.322401
-0.314803
-0.30556
-0.294668
-0.282525
-0.268266
-0.256796
-0.344515
-0.336332
-0.329638
-0.321339
-0.314773
-0.307104
-0.298516
-0.287535
-0.274433
-0.263596
-0.340291
-0.333368
-0.327438
-0.320433
-0.314821
-0.308332
-0.302171
-0.291955
-0.280599
-0.270352
-0.336525
-0.330756
-0.325505
-0.319602
-0.314949
-0.309352
-0.305633
-0.295646
-0.286742
-0.276891
-0.333142
-0.328443
-0.323831
-0.318837
-0.315104
-0.310285
-0.30887
-0.298344
-0.293582
-0.282173
-0.330097
-0.326359
-0.32238
-0.318152
-0.315252
-0.311191
-0.311802
-0.300099
-0.300677
-0.287576
-0.327336
-0.324455
-0.3211
-0.317548
-0.315419
-0.312033
-0.314352
-0.301138
-0.307406
-0.292613
-0.324802
-0.322691
-0.31994
-0.316998
-0.315644
-0.312691
-0.316543
-0.301603
-0.313725
-0.296505
-0.322447
-0.321031
-0.318856
-0.316466
-0.315923
-0.313053
-0.318466
-0.301566
-0.319705
-0.298831
-0.320229
-0.319444
-0.317814
-0.315912
-0.316196
-0.3131
-0.320152
-0.301222
-0.325091
-0.299573
-0.318116
-0.317909
-0.316784
-0.315305
-0.316386
-0.312865
-0.321515
-0.300956
-0.32924
-0.29925
-0.31608
-0.316418
-0.315729
-0.314639
-0.316443
-0.312548
-0.32243
-0.301139
-0.331651
-0.298955
-0.314111
-0.314964
-0.314638
-0.313933
-0.316319
-0.312166
-0.322832
-0.301849
-0.33234
-0.299499
-0.312206
-0.313548
-0.313519
-0.313211
-0.31596
-0.311771
-0.322788
-0.302927
-0.331701
-0.300856
-0.31037
-0.312175
-0.312381
-0.312454
-0.315342
-0.311492
-0.322299
-0.30405
-0.330278
-0.302473
-0.308617
-0.310857
-0.311245
-0.311671
-0.314568
-0.311287
-0.321351
-0.305146
-0.328481
-0.303869
-0.306965
-0.309609
-0.310136
-0.310877
-0.313698
-0.311067
-0.320078
-0.30632
-0.326355
-0.304888
-0.305438
-0.30845
-0.30908
-0.310093
-0.312788
-0.310817
-0.318696
-0.307345
-0.32397
-0.305907
-0.304062
-0.307402
-0.308106
-0.309346
-0.311895
-0.31054
-0.317323
-0.308145
-0.32177
-0.306717
-0.302863
-0.306487
-0.307244
-0.308664
-0.311071
-0.310252
-0.316054
-0.308732
-0.319844
-0.307326
-0.301868
-0.305725
-0.306519
-0.308076
-0.31036
-0.309974
-0.314965
-0.309136
-0.318251
-0.307796
-0.3011
-0.305135
-0.305953
-0.307609
-0.309797
-0.309733
-0.31411
-0.309393
-0.317031
-0.308142
-0.300576
-0.304732
-0.305564
-0.307285
-0.309408
-0.309555
-0.313523
-0.309539
-0.316208
-0.30837
-0.300311
-0.304528
-0.305367
-0.307118
-0.309209
-0.309461
-0.313226
-0.309604
-0.315794
-0.308483
-0.315844
-0.306245
-0.307189
-0.299171
-0.294887
-0.286064
-0.278022
-0.267115
-0.255641
-0.241972
-0.227123
-0.2106
-0.192851
-0.174233
-0.155064
-0.136003
-0.117333
-0.0994592
-0.0824018
-0.0655281
-0.0492684
-0.0339776
-0.0219033
-0.0126211
-0.00677402
-0.00280907
-0.000983719
0.000587656
0.000595875
0.00120879
-0.316085
-0.306382
-0.30729
-0.299293
-0.294991
-0.286181
-0.278135
-0.267235
-0.255763
-0.242097
-0.227248
-0.210724
-0.192972
-0.174348
-0.155173
-0.136107
-0.117434
-0.0995613
-0.0825104
-0.0656417
-0.0493784
-0.0340723
-0.0219803
-0.01268
-0.00681864
-0.00284071
-0.0010072
0.000571872
0.000585534
0.001204
-0.316537
-0.306638
-0.307484
-0.299524
-0.29519
-0.286404
-0.278355
-0.267469
-0.255999
-0.242342
-0.227494
-0.210969
-0.19321
-0.174575
-0.155389
-0.136314
-0.117633
-0.0997628
-0.0827242
-0.065865
-0.0495948
-0.0342598
-0.0221336
-0.0127979
-0.0069081
-0.0029044
-0.00105434
0.000540082
0.000564841
0.0011943
-0.317154
-0.306983
-0.307756
-0.299851
-0.295476
-0.286727
-0.278669
-0.267807
-0.256342
-0.242697
-0.227851
-0.211326
-0.193556
-0.174909
-0.155708
-0.136615
-0.117927
-0.100059
-0.083037
-0.0661905
-0.0499112
-0.0345363
-0.0223614
-0.0129747
-0.00704285
-0.00300094
-0.00112548
0.000491872
0.000533768
0.00117943
-0.317864
-0.30736
-0.308087
-0.300236
-0.295821
-0.28712
-0.279066
-0.26823
-0.256774
-0.243147
-0.228304
-0.211783
-0.194004
-0.175338
-0.156118
-0.137011
-0.118311
-0.100443
-0.0834404
-0.0666086
-0.0503191
-0.034897
-0.0226618
-0.0132104
-0.00722345
-0.00313134
-0.00122107
0.000426712
0.000492289
0.00115911
-0.318586
-0.307751
-0.308434
-0.300674
-0.296225
-0.287582
-0.279513
-0.268726
-0.25728
-0.243679
-0.228845
-0.212323
-0.194532
-0.175854
-0.156618
-0.13749
-0.118778
-0.100908
-0.083925
-0.0671089
-0.0508091
-0.0353363
-0.0230322
-0.0135049
-0.0074504
-0.00329665
-0.00134156
0.000344052
0.000440397
0.00113302
-0.319289
-0.308021
-0.3088
-0.301082
-0.296643
-0.288046
-0.280019
-0.269255
-0.25784
-0.244263
-0.229439
-0.212934
-0.19514
-0.176445
-0.157194
-0.138046
-0.119322
-0.101448
-0.0844818
-0.0676807
-0.051372
-0.0358487
-0.0234699
-0.0138576
-0.007724
-0.00349771
-0.0014873
0.00024342
0.000378119
0.00110089
-0.319708
-0.308335
-0.309039
-0.301521
-0.297013
-0.288552
-0.280494
-0.269829
-0.258418
-0.244897
-0.230084
-0.213597
-0.195802
-0.177099
-0.157837
-0.138671
-0.119937
-0.102054
-0.0851018
-0.0683144
-0.0519992
-0.0364285
-0.0239719
-0.0142678
-0.00804415
-0.00373503
-0.00165845
0.000124521
0.000305545
0.00106256
-0.319759
-0.308599
-0.309121
-0.301918
-0.297317
-0.289024
-0.280968
-0.270392
-0.259006
-0.245541
-0.230751
-0.214294
-0.196508
-0.177803
-0.158537
-0.139357
-0.120615
-0.102721
-0.0857772
-0.0690015
-0.0526827
-0.0370704
-0.0245351
-0.0147339
-0.00841014
-0.00400854
-0.00185488
-1.26864e-05
0.000222846
0.00101802
-0.319417
-0.308716
-0.309061
-0.302199
-0.297549
-0.289429
-0.281388
-0.270924
-0.259571
-0.24618
-0.231423
-0.215007
-0.197242
-0.178546
-0.159285
-0.140096
-0.12135
-0.103442
-0.086501
-0.0697346
-0.0534158
-0.037769
-0.0251555
-0.0152538
-0.00882054
-0.00431755
-0.00207609
-0.000167943
0.000130297
0.000967387
-0.318395
-0.308684
-0.308774
-0.302335
-0.297643
-0.289739
-0.281733
-0.271396
-0.260091
-0.246788
-0.232077
-0.215718
-0.197989
-0.179314
-0.16007
-0.140881
-0.122134
-0.104211
-0.0872668
-0.0705075
-0.0541922
-0.0385191
-0.025829
-0.0158242
-0.00927318
-0.0046607
-0.00232116
-0.000340669
2.82908e-05
0.000910949
-0.316504
-0.308397
-0.308216
-0.302265
-0.297582
-0.289889
-0.28196
-0.271771
-0.260538
-0.247342
-0.232695
-0.216409
-0.198735
-0.180096
-0.160884
-0.141703
-0.122962
-0.105022
-0.0880693
-0.0713148
-0.0550066
-0.0393152
-0.0265508
-0.0164414
-0.00976519
-0.00503594
-0.00258882
-0.00052997
-8.26598e-05
0.000849132
-0.313771
-0.307705
-0.307354
-0.301896
-0.297295
-0.289876
-0.28205
-0.272026
-0.260889
-0.247817
-0.233256
-0.217064
-0.199466
-0.180883
-0.161718
-0.142556
-0.123826
-0.10587
-0.0889039
-0.0721519
-0.0558538
-0.040152
-0.0273157
-0.0171009
-0.010293
-0.0054407
-0.00287739
-0.000734679
-0.000201927
0.000782475
-0.310595
-0.30641
-0.306091
-0.301213
-0.296743
-0.289579
-0.281924
-0.272119
-0.261111
-0.248193
-0.233745
-0.217668
-0.200171
-0.181664
-0.162563
-0.143433
-0.124721
-0.10675
-0.0897666
-0.0730152
-0.0567294
-0.041024
-0.0281181
-0.0177976
-0.0108528
-0.00587197
-0.00318493
-0.000953411
-0.000328784
0.000711597
-0.307204
-0.304453
-0.304369
-0.300139
-0.295939
-0.28912
-0.281626
-0.272046
-0.261193
-0.248454
-0.234147
-0.218211
-0.200841
-0.182433
-0.163415
-0.144329
-0.125642
-0.107658
-0.0906541
-0.0739012
-0.0576293
-0.0419258
-0.0289524
-0.0185262
-0.0114401
-0.00632646
-0.00350929
-0.00118462
-0.000462424
0.000637167
-0.303523
-0.301903
-0.302117
-0.29859
-0.294657
-0.28816
-0.280981
-0.271735
-0.261099
-0.248582
-0.234452
-0.218686
-0.201468
-0.183184
-0.164267
-0.14524
-0.126584
-0.108592
-0.0915637
-0.0748076
-0.05855
-0.0428525
-0.0298132
-0.0192815
-0.0120508
-0.00680072
-0.00384814
-0.00142663
-0.000601972
0.00055987
-0.299682
-0.298723
-0.299351
-0.296644
-0.29319
-0.287254
-0.280246
-0.271272
-0.260853
-0.248576
-0.234652
-0.219085
-0.202048
-0.183912
-0.165117
-0.146163
-0.127547
-0.109548
-0.0924943
-0.0757328
-0.0594883
-0.043799
-0.0306945
-0.0200575
-0.0126798
-0.00729095
-0.00419906
-0.00167774
-0.00074656
0.000480364
-0.295626
-0.295004
-0.295997
-0.294075
-0.291065
-0.28558
-0.278915
-0.270462
-0.260393
-0.248428
-0.234759
-0.219424
-0.202595
-0.184626
-0.165965
-0.147093
-0.128521
-0.110518
-0.0934373
-0.0766683
-0.060436
-0.0447567
-0.0315889
-0.0208486
-0.0133236
-0.00779459
-0.00456048
-0.00193679
-0.000895528
0.000399204
-0.291402
-0.291012
-0.292506
-0.291494
-0.289095
-0.284208
-0.277983
-0.269664
-0.259835
-0.248151
-0.234741
-0.219654
-0.203054
-0.18528
-0.16678
-0.148014
-0.129502
-0.111507
-0.0944052
-0.0776303
-0.0614104
-0.0457412
-0.0325093
-0.021663
-0.0139864
-0.00831314
-0.00493231
-0.00220303
-0.00104818
0.000317012
-0.287432
-0.286223
-0.287759
-0.287582
-0.285867
-0.281668
-0.275731
-0.26831
-0.259028
-0.247801
-0.234766
-0.220007
-0.203686
-0.186129
-0.167785
-0.14911
-0.130633
-0.112618
-0.0954638
-0.0786576
-0.0624266
-0.0467515
-0.0334404
-0.0224808
-0.014648
-0.00883048
-0.00530354
-0.00246955
-0.00120161
0.000235182
-0.282253
-0.282485
-0.284234
-0.284684
-0.283464
-0.27987
-0.274744
-0.266988
-0.257854
-0.246839
-0.23401
-0.219458
-0.203343
-0.18598
-0.167818
-0.149296
-0.130941
-0.113012
-0.0959078
-0.0791534
-0.0629796
-0.0473719
-0.0340733
-0.0230869
-0.0151724
-0.0092629
-0.00562617
-0.00270729
-0.00134145
0.000160702
-0.27659
-0.277612
-0.279557
-0.28052
-0.279655
-0.276339
-0.271062
-0.264285
-0.255585
-0.244926
-0.232425
-0.218184
-0.202374
-0.185298
-0.167403
-0.149112
-0.130946
-0.113157
-0.0961441
-0.0794748
-0.0633933
-0.0478926
-0.0346409
-0.0236542
-0.0156733
-0.00968124
-0.0059379
-0.00293745
-0.00147462
8.96193e-05
-0.270654
-0.272288
-0.274485
-0.276006
-0.275615
-0.272801
-0.268236
-0.26158
-0.253187
-0.242865
-0.230687
-0.216764
-0.201271
-0.184496
-0.166885
-0.148839
-0.130878
-0.113242
-0.0963316
-0.0797584
-0.0637799
-0.0483992
-0.0352055
-0.0242282
-0.0161857
-0.0101134
-0.00626152
-0.00317779
-0.00161334
1.55405e-05
-0.264469
-0.266744
-0.269218
-0.271274
-0.271374
-0.269066
-0.264853
-0.258659
-0.250636
-0.240676
-0.228847
-0.215265
-0.200109
-0.183654
-0.166341
-0.148554
-0.130806
-0.113331
-0.0965289
-0.080057
-0.0641844
-0.048926
-0.0357907
-0.024823
-0.0167173
-0.0105627
-0.00659871
-0.00342865
-0.00175798
-6.12784e-05
-0.257987
-0.261007
-0.263776
-0.266324
-0.266915
-0.265088
-0.2613
-0.255542
-0.247914
-0.238343
-0.226889
-0.213671
-0.198874
-0.182759
-0.16576
-0.148247
-0.130722
-0.113417
-0.0967315
-0.0803674
-0.0646048
-0.0494719
-0.0363961
-0.0254386
-0.0172682
-0.0110294
-0.00694961
-0.00369008
-0.00190849
-0.000140678
-0.251252
-0.255102
-0.258184
-0.261181
-0.262261
-0.260918
-0.257578
-0.252259
-0.245041
-0.235875
-0.224816
-0.211983
-0.197562
-0.181805
-0.165136
-0.147909
-0.13062
-0.113496
-0.0969339
-0.0806846
-0.0650365
-0.0500326
-0.0370182
-0.0260723
-0.0178367
-0.0115122
-0.00731347
-0.00396161
-0.00206458
-0.000222406
-0.244337
-0.249058
-0.252477
-0.255887
-0.257453
-0.256599
-0.253707
-0.248834
-0.24204
-0.233293
-0.222644
-0.210211
-0.196183
-0.180798
-0.164472
-0.147543
-0.130499
-0.113565
-0.0971356
-0.0810079
-0.0654784
-0.0506064
-0.037655
-0.0267221
-0.018421
-0.0120099
-0.00768943
-0.00424265
-0.00222591
-0.000306157
-0.237296
-0.242904
-0.246685
-0.250479
-0.252521
-0.252157
-0.249714
-0.24529
-0.23893
-0.230612
-0.220386
-0.208366
-0.194742
-0.179743
-0.163769
-0.147151
-0.13036
-0.113625
-0.0973362
-0.0813368
-0.0659298
-0.0511919
-0.0383049
-0.0273861
-0.0190196
-0.0125211
-0.00807659
-0.00453254
-0.00239212
-0.000391602
-0.230179
-0.236661
-0.240832
-0.244982
-0.24749
-0.247614
-0.245621
-0.241648
-0.235728
-0.227848
-0.218054
-0.206458
-0.193248
-0.178644
-0.163033
-0.146732
-0.130204
-0.113676
-0.0975354
-0.0816706
-0.0663896
-0.0517873
-0.0389659
-0.0280624
-0.0196308
-0.0130445
-0.00847395
-0.00483054
-0.0025628
-0.00047839
-0.223034
-0.230353
-0.234936
-0.239421
-0.242378
-0.242987
-0.241447
-0.237925
-0.232451
-0.225013
-0.21566
-0.204495
-0.191707
-0.177505
-0.162264
-0.146289
-0.130031
-0.113717
-0.0977325
-0.0820084
-0.0668565
-0.0523909
-0.039636
-0.0287487
-0.0202526
-0.0135786
-0.00888042
-0.00513582
-0.0027375
-0.00056615
-0.215906
-0.224006
-0.22902
-0.233821
-0.237206
-0.238294
-0.237209
-0.234136
-0.22911
-0.222121
-0.213212
-0.202485
-0.190125
-0.176331
-0.161465
-0.145823
-0.12984
-0.113748
-0.0979267
-0.0823491
-0.0673291
-0.0530007
-0.0403131
-0.0294428
-0.0208831
-0.0141216
-0.00929479
-0.00544747
-0.00291575
-0.000654496
-0.20884
-0.217647
-0.223103
-0.228206
-0.231993
-0.233551
-0.232921
-0.230296
-0.225719
-0.21918
-0.21072
-0.200436
-0.188506
-0.175126
-0.160639
-0.145335
-0.129633
-0.113769
-0.0981174
-0.0826913
-0.0678057
-0.0536145
-0.0409948
-0.0301424
-0.0215202
-0.0146717
-0.00971576
-0.00576449
-0.00309701
-0.00074303
-0.201881
-0.211305
-0.217207
-0.2226
-0.22676
-0.228775
-0.228598
-0.226418
-0.222289
-0.216202
-0.208193
-0.198354
-0.186857
-0.173893
-0.159789
-0.144826
-0.12941
-0.11378
-0.0983035
-0.0830337
-0.0682847
-0.0542302
-0.0416788
-0.030845
-0.0221617
-0.0152272
-0.0101419
-0.00608578
-0.00328071
-0.000831347
-0.195068
-0.205011
-0.211354
-0.217027
-0.22153
-0.223983
-0.224255
-0.222517
-0.218832
-0.213196
-0.205639
-0.196246
-0.185184
-0.172637
-0.158916
-0.144298
-0.12917
-0.113779
-0.0984844
-0.083375
-0.0687643
-0.0548455
-0.0423627
-0.031548
-0.0228053
-0.015786
-0.0105718
-0.00641014
-0.00346623
-0.000919033
-0.188439
-0.198796
-0.205567
-0.211512
-0.216327
-0.219196
-0.21991
-0.218608
-0.215363
-0.210175
-0.203068
-0.19412
-0.183492
-0.171362
-0.158025
-0.143752
-0.128916
-0.113768
-0.0986592
-0.0837136
-0.0692425
-0.0554581
-0.043044
-0.0322487
-0.0234485
-0.0163459
-0.0110036
-0.00673628
-0.0036529
-0.00100567
-0.182025
-0.192694
-0.19987
-0.206078
-0.211177
-0.214434
-0.21558
-0.214707
-0.211896
-0.207151
-0.20049
-0.191985
-0.181788
-0.170073
-0.157119
-0.143191
-0.128648
-0.113745
-0.0988269
-0.0840478
-0.0697171
-0.0560654
-0.0437198
-0.0329443
-0.0240886
-0.0169046
-0.0114357
-0.00706276
-0.00383998
-0.00109085
-0.175855
-0.186737
-0.194288
-0.200749
-0.206105
-0.209722
-0.211285
-0.210833
-0.208447
-0.204137
-0.197916
-0.18985
-0.180079
-0.168776
-0.156202
-0.142618
-0.128368
-0.113712
-0.0989869
-0.0843761
-0.070186
-0.0566647
-0.0443872
-0.0336318
-0.0247229
-0.0174594
-0.011866
-0.00738799
-0.00402661
-0.00117415
-0.169956
-0.180961
-0.188848
-0.19555
-0.201141
-0.205087
-0.207046
-0.207006
-0.205033
-0.201149
-0.19536
-0.187726
-0.178376
-0.167478
-0.155279
-0.142036
-0.128077
-0.113668
-0.0991382
-0.0846966
-0.0706468
-0.057253
-0.0450431
-0.0343076
-0.025348
-0.0180075
-0.0122922
-0.00771023
-0.00421187
-0.00125516
-0.164352
-0.175399
-0.183582
-0.190509
-0.196313
-0.200558
-0.20289
-0.203246
-0.201676
-0.198205
-0.192837
-0.185626
-0.176687
-0.166187
-0.154356
-0.141448
-0.127777
-0.113614
-0.0992803
-0.0850075
-0.0710966
-0.0578272
-0.0456838
-0.0349682
-0.0259606
-0.0185459
-0.012712
-0.00802754
-0.00439471
-0.00133344
-0.159067
-0.170086
-0.178518
-0.185654
-0.191654
-0.196166
-0.198844
-0.199579
-0.198397
-0.195325
-0.190365
-0.183563
-0.175025
-0.164911
-0.15344
-0.14086
-0.127472
-0.113551
-0.0994125
-0.0853069
-0.0715328
-0.0583838
-0.0463056
-0.0356095
-0.0265568
-0.0190709
-0.0131226
-0.00833777
-0.00457394
-0.00140857
-0.154123
-0.165055
-0.17369
-0.181016
-0.187195
-0.191944
-0.194938
-0.196032
-0.195221
-0.192531
-0.187961
-0.181554
-0.173402
-0.163662
-0.152539
-0.140277
-0.127165
-0.113481
-0.0995342
-0.0855927
-0.0719523
-0.058919
-0.0469042
-0.0362273
-0.0271324
-0.0195789
-0.0135209
-0.00863856
-0.00474819
-0.0014801
-0.149539
-0.160339
-0.169132
-0.176627
-0.182969
-0.187929
-0.191206
-0.192634
-0.192175
-0.189847
-0.185648
-0.179617
-0.171834
-0.162451
-0.151662
-0.139705
-0.126859
-0.113405
-0.099645
-0.085863
-0.0723517
-0.0594287
-0.047475
-0.0368165
-0.0276828
-0.0200655
-0.0139035
-0.00892726
-0.00491596
-0.00154755
-0.145338
-0.155972
-0.164879
-0.172524
-0.179012
-0.184157
-0.187686
-0.18942
-0.189289
-0.187301
-0.18345
-0.177773
-0.170338
-0.161293
-0.150819
-0.139152
-0.126559
-0.113325
-0.0997445
-0.0861154
-0.0727275
-0.0599085
-0.048013
-0.037372
-0.0282028
-0.020526
-0.0142665
-0.00920096
-0.00507551
-0.00161041
-0.141539
-0.151988
-0.160969
-0.168742
-0.175362
-0.180669
-0.184418
-0.186425
-0.186597
-0.184923
-0.181394
-0.176044
-0.168933
-0.160202
-0.150022
-0.138625
-0.126271
-0.113242
-0.0998324
-0.0863476
-0.0730756
-0.0603533
-0.0485123
-0.0378877
-0.0286867
-0.0209551
-0.0146058
-0.00945645
-0.00522491