/*--------------------------------*- C++ -*----------------------------------*\
  =========                 |
  \\      /  F ield         | OpenFOAM: The Open Source CFD Toolbox
   \\    /   O peration     | Website:  https://openfoam.org
    \\  /    A nd           | Version:  9
     \\/     M anipulation  |
\*---------------------------------------------------------------------------*/
FoamFile
{
    format      ascii;
    class       volScalarField;
    location    "42.6";
    object      p;
}
// * * * * * * * * * * * * * * * * * * * * * * * * * * * * * * * * * * * * * //

dimensions      [0 2 -2 0 0 0 0];

internalField   nonuniform List<scalar> 
8500
(
-0.286927
-0.291141
-0.291977
-0.293725
-0.295811
-0.296058
-0.299813
-0.296189
-0.302363
-0.295049
-0.287192
-0.291344
-0.292174
-0.293891
-0.29601
-0.296153
-0.30011
-0.296125
-0.302776
-0.294936
-0.287714
-0.291746
-0.292562
-0.294215
-0.296398
-0.29633
-0.300696
-0.295979
-0.303598
-0.294708
-0.288482
-0.292335
-0.293128
-0.294682
-0.29696
-0.296571
-0.30155
-0.295723
-0.304816
-0.294362
-0.289476
-0.293097
-0.293852
-0.295269
-0.29767
-0.296848
-0.302637
-0.295319
-0.306407
-0.293893
-0.290673
-0.294011
-0.294714
-0.295951
-0.298493
-0.297137
-0.303905
-0.294733
-0.30833
-0.293284
-0.292047
-0.295058
-0.295686
-0.296697
-0.299386
-0.297413
-0.305277
-0.293934
-0.31053
-0.292475
-0.293573
-0.296216
-0.296741
-0.29748
-0.300295
-0.297663
-0.306659
-0.292911
-0.312914
-0.291457
-0.295223
-0.297463
-0.29785
-0.298274
-0.301165
-0.297884
-0.307933
-0.291738
-0.315045
-0.290437
-0.296975
-0.29878
-0.298985
-0.299057
-0.301939
-0.29809
-0.308883
-0.290642
-0.316844
-0.289043
-0.29881
-0.300152
-0.300122
-0.299814
-0.302558
-0.298368
-0.309375
-0.28952
-0.318271
-0.287427
-0.300714
-0.301568
-0.301242
-0.300537
-0.302919
-0.298764
-0.309422
-0.288442
-0.318919
-0.286067
-0.302682
-0.303021
-0.302333
-0.301242
-0.303044
-0.299147
-0.309022
-0.28773
-0.318241
-0.285519
-0.304716
-0.304511
-0.303387
-0.301908
-0.302989
-0.299466
-0.308112
-0.287545
-0.315843
-0.285812
-0.306828
-0.306046
-0.304417
-0.302516
-0.3028
-0.2997
-0.306752
-0.28781
-0.311706
-0.286143
-0.309045
-0.307633
-0.30546
-0.303071
-0.302529
-0.299656
-0.305068
-0.288157
-0.306329
-0.285415
-0.311399
-0.309292
-0.306543
-0.303603
-0.30225
-0.299297
-0.303149
-0.288198
-0.300356
-0.283107
-0.313932
-0.311055
-0.307703
-0.304153
-0.302025
-0.298642
-0.300962
-0.28774
-0.294044
-0.279235
-0.316692
-0.312958
-0.308983
-0.304758
-0.301859
-0.297801
-0.298417
-0.286708
-0.287324
-0.274218
-0.319735
-0.315041
-0.310433
-0.305442
-0.301712
-0.296896
-0.295492
-0.284963
-0.280239
-0.268837
-0.323117
-0.317353
-0.312105
-0.306207
-0.301558
-0.295965
-0.29226
-0.282278
-0.273408
-0.263579
-0.326881
-0.319964
-0.314037
-0.307037
-0.30143
-0.294947
-0.288804
-0.278599
-0.267276
-0.257055
-0.331102
-0.322925
-0.316235
-0.307943
-0.301383
-0.293723
-0.285156
-0.274192
-0.261121
-0.250312
-0.335844
-0.326301
-0.318662
-0.309005
-0.301414
-0.292183
-0.281315
-0.269194
-0.254965
-0.243523
-0.341169
-0.330144
-0.321266
-0.310354
-0.301433
-0.290271
-0.277234
-0.263803
-0.248695
-0.236645
-0.347145
-0.334465
-0.324051
-0.312064
-0.301318
-0.287957
-0.272892
-0.258113
-0.242286
-0.229743
-0.353844
-0.339217
-0.32713
-0.314061
-0.300967
-0.285238
-0.268272
-0.252186
-0.235741
-0.22275
-0.361339
-0.344303
-0.330705
-0.316142
-0.300305
-0.282117
-0.263366
-0.246046
-0.229044
-0.215665
-0.369671
-0.349618
-0.334961
-0.318089
-0.299261
-0.2786
-0.258165
-0.239693
-0.222191
-0.208448
-0.378815
-0.355102
-0.339942
-0.319751
-0.297765
-0.274679
-0.252658
-0.233119
-0.215164
-0.201079
-0.388655
-0.360767
-0.345466
-0.321029
-0.295755
-0.270335
-0.246828
-0.226305
-0.207945
-0.193532
-0.398966
-0.366691
-0.351147
-0.321848
-0.293176
-0.26554
-0.240652
-0.219229
-0.20051
-0.185784
-0.409417
-0.37297
-0.356498
-0.322116
-0.289985
-0.260258
-0.234102
-0.211867
-0.192836
-0.177815
-0.419688
-0.379668
-0.361059
-0.321721
-0.286144
-0.25445
-0.227146
-0.204193
-0.184901
-0.169607
-0.429476
-0.386749
-0.364478
-0.32053
-0.281609
-0.248082
-0.219751
-0.196176
-0.176684
-0.161141
-0.438524
-0.394042
-0.366534
-0.318407
-0.276336
-0.241121
-0.211885
-0.187789
-0.168163
-0.152401
-0.44663
-0.401221
-0.367123
-0.315226
-0.270273
-0.233535
-0.203517
-0.179008
-0.159317
-0.143373
-0.453632
-0.407831
-0.366231
-0.310887
-0.263366
-0.225288
-0.194619
-0.16981
-0.15013
-0.134052
-0.459403
-0.413347
-0.363886
-0.305321
-0.255562
-0.216349
-0.185166
-0.160174
-0.140585
-0.124447
-0.463835
-0.41729
-0.360069
-0.29848
-0.246813
-0.206683
-0.175136
-0.150081
-0.130671
-0.114583
-0.466828
-0.419327
-0.35466
-0.290319
-0.237076
-0.196261
-0.164508
-0.139516
-0.120376
-0.104477
-0.468273
-0.419179
-0.347565
-0.280794
-0.226316
-0.18506
-0.153268
-0.128464
-0.109692
-0.0941071
-0.46804
-0.416644
-0.338723
-0.269867
-0.214505
-0.17306
-0.141402
-0.116913
-0.0986282
-0.0834116
-0.465973
-0.411586
-0.328089
-0.257513
-0.201624
-0.160246
-0.128897
-0.104852
-0.0872276
-0.0723109
-0.461884
-0.403914
-0.315613
-0.243732
-0.18766
-0.146604
-0.115741
-0.0922856
-0.0755365
-0.060782
-0.455566
-0.393571
-0.301257
-0.228528
-0.172599
-0.132129
-0.101941
-0.0792512
-0.0635299
-0.0489578
-0.446804
-0.380521
-0.285
-0.2119
-0.156426
-0.116845
-0.0875371
-0.0658304
-0.0510956
-0.0369299
-0.435386
-0.364747
-0.266834
-0.193845
-0.13915
-0.100814
-0.0725925
-0.0520011
-0.0382419
-0.0247043
-0.421119
-0.346248
-0.246753
-0.174385
-0.120855
-0.0840949
-0.0570652
-0.0377731
-0.0250152
-0.0122876
-0.403842
-0.325043
-0.224746
-0.153607
-0.101693
-0.0665887
-0.0409961
-0.0231599
-0.0114633
0.000306757
-0.383439
-0.301189
-0.200812
-0.131662
-0.0816046
-0.0483509
-0.0244255
-0.00818589
0.00237097
0.013052
-0.359842
-0.274815
-0.175036
-0.108524
-0.0606337
-0.0294411
-0.00739707
0.0071163
0.0164462
0.0259116
-0.333039
-0.246089
-0.147606
-0.0841074
-0.0388388
-0.00992528
0.0100415
0.0227071
0.0307226
0.0388413
-0.303079
-0.21504
-0.118659
-0.0585294
-0.0162871
0.0101262
0.0278359
0.0385424
0.0451636
0.0517964
-0.270081
-0.181407
-0.0885867
-0.0319337
0.00694699
0.0306385
0.0459256
0.0545769
0.0597379
0.0647334
-0.234221
-0.145496
-0.0573392
-0.00447021
0.0307769
0.0515315
0.0642457
0.0707692
0.0744135
0.0775818
-0.195599
-0.107716
-0.0249686
0.0237148
0.0551026
0.0727202
0.082731
0.0870852
0.0891347
0.0901679
-0.154181
-0.0686973
0.00839546
0.0524786
0.0798131
0.0941149
0.101319
0.103492
0.103789
0.102156
-0.110452
-0.0286008
0.0425735
0.0816786
0.104789
0.115623
0.11995
0.119929
0.118202
0.113256
-0.0647713
0.0123825
0.0773613
0.111166
0.129904
0.137148
0.138555
0.136287
0.132211
0.123786
-0.0175182
0.0540157
0.112539
0.140783
0.155028
0.158594
0.15705
0.152425
0.145763
0.135064
0.0309051
0.096035
0.147878
0.170366
0.180028
0.17986
0.175337
0.168231
0.15906
0.146872
0.0800796
0.138159
0.183144
0.199747
0.204767
0.20084
0.193323
0.183675
0.172151
0.158722
0.129575
0.180095
0.218098
0.22875
0.229107
0.221425
0.21091
0.198708
0.184981
0.170439
0.178952
0.221545
0.252504
0.257199
0.252911
0.241506
0.228011
0.213285
0.197478
0.181839
0.227772
0.262207
0.286124
0.284918
0.27604
0.260972
0.24454
0.227348
0.209575
0.192828
0.275598
0.301783
0.318728
0.311731
0.298358
0.279714
0.260414
0.240835
0.221203
0.203326
0.322001
0.339979
0.350088
0.337467
0.31973
0.297626
0.275549
0.253683
0.2323
0.213273
0.366559
0.376517
0.379985
0.361957
0.340026
0.314605
0.289868
0.265827
0.242804
0.222621
0.408865
0.411136
0.408212
0.385041
0.35912
0.330551
0.303292
0.277207
0.252659
0.231326
0.448542
0.44358
0.43457
0.406562
0.376894
0.345372
0.31575
0.287764
0.261809
0.23935
0.485291
0.473559
0.45887
0.426376
0.393234
0.358979
0.327173
0.297443
0.270203
0.246659
0.518816
0.500818
0.480936
0.444346
0.408037
0.37129
0.337498
0.30619
0.277793
0.253223
0.548826
0.525139
0.500608
0.460349
0.421208
0.382232
0.346665
0.313958
0.284536
0.259016
0.575059
0.546338
0.517744
0.474276
0.43266
0.391738
0.354624
0.320702
0.290392
0.264015
0.597282
0.564253
0.532218
0.486031
0.442321
0.39975
0.361328
0.326383
0.295327
0.268204
0.615301
0.57875
0.543925
0.495534
0.450126
0.40622
0.366739
0.330969
0.29931
0.271567
0.628956
0.589719
0.552781
0.502718
0.456026
0.411107
0.370825
0.334432
0.302318
0.274097
0.638127
0.597078
0.558722
0.507536
0.45998
0.414382
0.373563
0.336753
0.304334
0.275786
0.642733
0.600771
0.561702
0.509953
0.461964
0.416025
0.374936
0.337917
0.305346
0.276631
0.642733
0.600771
0.561702
0.509953
0.461964
0.416025
0.374936
0.337917
0.305346
0.276631
0.638127
0.597078
0.558721
0.507536
0.45998
0.414382
0.373563
0.336753
0.304334
0.275786
0.628956
0.589719
0.552781
0.502718
0.456026
0.411107
0.370825
0.334432
0.302318
0.274097
0.615301
0.57875
0.543925
0.495534
0.450126
0.40622
0.366739
0.330969
0.29931
0.271567
0.597282
0.564253
0.532218
0.486031
0.442321
0.39975
0.361328
0.326383
0.295327
0.268204
0.575059
0.546338
0.517744
0.474276
0.43266
0.391738
0.354624
0.320702
0.290392
0.264015
0.548826
0.525139
0.500608
0.460349
0.421208
0.382232
0.346665
0.313958
0.284536
0.259016
0.518816
0.500818
0.480936
0.444346
0.408037
0.37129
0.337498
0.30619
0.277793
0.253223
0.485291
0.473559
0.45887
0.426376
0.393234
0.358979
0.327173
0.297443
0.270203
0.246659
0.448542
0.44358
0.43457
0.406562
0.376894
0.345372
0.31575
0.287764
0.261809
0.23935
0.408865
0.411136
0.408212
0.385041
0.35912
0.330551
0.303292
0.277207
0.252659
0.231326
0.366559
0.376517
0.379985
0.361957
0.340026
0.314605
0.289868
0.265827
0.242804
0.222621
0.322001
0.339979
0.350088
0.337467
0.31973
0.297626
0.275549
0.253683
0.2323
0.213273
0.275598
0.301782
0.318728
0.311731
0.298358
0.279714
0.260414
0.240835
0.221203
0.203326
0.227772
0.262207
0.286124
0.284918
0.27604
0.260972
0.24454
0.227348
0.209575
0.192828
0.178952
0.221545
0.252504
0.257199
0.252911
0.241506
0.228011
0.213285
0.197478
0.181839
0.129575
0.180095
0.218098
0.22875
0.229107
0.221425
0.21091
0.198708
0.184981
0.170439
0.0800796
0.138159
0.183143
0.199747
0.204767
0.20084
0.193323
0.183675
0.172151
0.158722
0.030905
0.096035
0.147878
0.170366
0.180028
0.17986
0.175337
0.168231
0.15906
0.146872
-0.0175183
0.0540157
0.112539
0.140783
0.155028
0.158594
0.15705
0.152425
0.145763
0.135064
-0.0647713
0.0123825
0.0773612
0.111166
0.129904
0.137148
0.138555
0.136287
0.132211
0.123786
-0.110452
-0.0286009
0.0425735
0.0816786
0.104789
0.115623
0.11995
0.119929
0.118202
0.113256
-0.154181
-0.0686973
0.00839545
0.0524786
0.0798131
0.0941149
0.101319
0.103492
0.103789
0.102156
-0.195599
-0.107716
-0.0249686
0.0237147
0.0551026
0.0727202
0.082731
0.0870852
0.0891347
0.090168
-0.234221
-0.145496
-0.0573392
-0.00447021
0.0307769
0.0515315
0.0642457
0.0707692
0.0744135
0.0775818
-0.270081
-0.181407
-0.0885867
-0.0319337
0.006947
0.0306385
0.0459256
0.0545769
0.0597379
0.0647334
-0.303079
-0.21504
-0.118659
-0.0585294
-0.0162871
0.0101262
0.0278359
0.0385424
0.0451636
0.0517964
-0.333039
-0.246089
-0.147606
-0.0841074
-0.0388387
-0.00992527
0.0100415
0.0227071
0.0307226
0.0388413
-0.359842
-0.274815
-0.175036
-0.108524
-0.0606337
-0.029441
-0.00739707
0.00711631
0.0164462
0.0259116
-0.383439
-0.301189
-0.200812
-0.131662
-0.0816046
-0.0483509
-0.0244255
-0.00818589
0.00237097
0.013052
-0.403842
-0.325043
-0.224746
-0.153607
-0.101693
-0.0665887
-0.0409961
-0.0231599
-0.0114633
0.000306751
-0.421119
-0.346248
-0.246753
-0.174385
-0.120855
-0.0840949
-0.0570651
-0.0377731
-0.0250152
-0.0122876
-0.435386
-0.364747
-0.266833
-0.193845
-0.13915
-0.100814
-0.0725925
-0.0520011
-0.0382419
-0.0247043
-0.446804
-0.38052
-0.285
-0.2119
-0.156426
-0.116845
-0.0875371
-0.0658304
-0.0510956
-0.03693
-0.455566
-0.393571
-0.301257
-0.228528
-0.172599
-0.132129
-0.101941
-0.0792512
-0.06353
-0.0489578
-0.461884
-0.403914
-0.315613
-0.243732
-0.187659
-0.146604
-0.115741
-0.0922856
-0.0755365
-0.0607821
-0.465973
-0.411585
-0.328089
-0.257513
-0.201624
-0.160246
-0.128897
-0.104852
-0.0872277
-0.0723109
-0.46804
-0.416644
-0.338723
-0.269867
-0.214505
-0.17306
-0.141402
-0.116913
-0.0986282
-0.0834117
-0.468273
-0.419179
-0.347565
-0.280794
-0.226316
-0.18506
-0.153268
-0.128464
-0.109692
-0.0941071
-0.466828
-0.419327
-0.35466
-0.290319
-0.237076
-0.196261
-0.164508
-0.139516
-0.120376
-0.104477
-0.463835
-0.41729
-0.360069
-0.29848
-0.246813
-0.206683
-0.175136
-0.150081
-0.130671
-0.114583
-0.459403
-0.413346
-0.363886
-0.305321
-0.255562
-0.216349
-0.185166
-0.160174
-0.140585
-0.124448
-0.453632
-0.407831
-0.366231
-0.310887
-0.263366
-0.225288
-0.194619
-0.16981
-0.15013
-0.134052
-0.446629
-0.401221
-0.367123
-0.315226
-0.270272
-0.233535
-0.203517
-0.179008
-0.159318
-0.143373
-0.438524
-0.394042
-0.366533
-0.318407
-0.276336
-0.241121
-0.211885
-0.187789
-0.168163
-0.152401
-0.429476
-0.386749
-0.364478
-0.32053
-0.281609
-0.248082
-0.219751
-0.196176
-0.176684
-0.161141
-0.419688
-0.379668
-0.361059
-0.32172
-0.286144
-0.25445
-0.227146
-0.204193
-0.184902
-0.169607
-0.409417
-0.37297
-0.356498
-0.322116
-0.289985
-0.260258
-0.234102
-0.211867
-0.192837
-0.177815
-0.398966
-0.36669
-0.351147
-0.321848
-0.293176
-0.26554
-0.240652
-0.219229
-0.20051
-0.185784
-0.388655
-0.360767
-0.345465
-0.321029
-0.295755
-0.270335
-0.246828
-0.226305
-0.207945
-0.193532
-0.378815
-0.355102
-0.339941
-0.319751
-0.297765
-0.274679
-0.252658
-0.233119
-0.215164
-0.201079
-0.369671
-0.349618
-0.334961
-0.318089
-0.299261
-0.2786
-0.258165
-0.239693
-0.222191
-0.208448
-0.361339
-0.344303
-0.330705
-0.316141
-0.300305
-0.282117
-0.263366
-0.246046
-0.229044
-0.215665
-0.353844
-0.339217
-0.32713
-0.314061
-0.300967
-0.285238
-0.268272
-0.252186
-0.235741
-0.22275
-0.347144
-0.334465
-0.324051
-0.312064
-0.301317
-0.287957
-0.272892
-0.258113
-0.242286
-0.229743
-0.341169
-0.330143
-0.321266
-0.310353
-0.301432
-0.290271
-0.277234
-0.263803
-0.248695
-0.236646
-0.335844
-0.3263
-0.318662
-0.309004
-0.301414
-0.292183
-0.281315
-0.269194
-0.254966
-0.243524
-0.331102
-0.322925
-0.316235
-0.307943
-0.301383
-0.293722
-0.285156
-0.274192
-0.261122
-0.250312
-0.326881
-0.319963
-0.314037
-0.307037
-0.301429
-0.294947
-0.288804
-0.278599
-0.267276
-0.257056
-0.323117
-0.317353
-0.312105
-0.306207
-0.301558
-0.295965
-0.29226
-0.282278
-0.273409
-0.26358
-0.319735
-0.315041
-0.310433
-0.305442
-0.301712
-0.296895
-0.295492
-0.284964
-0.280239
-0.268838
-0.316692
-0.312958
-0.308982
-0.304757
-0.301859
-0.297801
-0.298417
-0.286708
-0.287324
-0.274219
-0.313932
-0.311055
-0.307703
-0.304153
-0.302025
-0.298641
-0.300962
-0.28774
-0.294045
-0.279237
-0.311399
-0.309292
-0.306543
-0.303603
-0.30225
-0.299297
-0.303149
-0.288199
-0.300356
-0.283109
-0.309045
-0.307632
-0.305459
-0.30307
-0.302528
-0.299656
-0.305068
-0.288157
-0.306329
-0.285417
-0.306828
-0.306046
-0.304417
-0.302516
-0.302799
-0.2997
-0.306752
-0.28781
-0.311707
-0.286144
-0.304716
-0.304511
-0.303387
-0.301908
-0.302988
-0.299466
-0.308112
-0.287545
-0.315843
-0.285813
-0.302681
-0.30302
-0.302333
-0.301242
-0.303044
-0.299147
-0.309022
-0.28773
-0.318241
-0.28552
-0.300714
-0.301568
-0.301242
-0.300536
-0.302919
-0.298764
-0.309422
-0.288443
-0.31892
-0.286068
-0.29881
-0.300152
-0.300122
-0.299813
-0.302558
-0.298368
-0.309375
-0.28952
-0.318272
-0.287428
-0.296975
-0.29878
-0.298985
-0.299057
-0.301939
-0.29809
-0.308883
-0.290642
-0.316845
-0.289044
-0.295223
-0.297463
-0.29785
-0.298273
-0.301165
-0.297884
-0.307933
-0.291738
-0.315045
-0.290439
-0.293573
-0.296216
-0.296741
-0.29748
-0.300295
-0.297663
-0.306659
-0.292911
-0.312915
-0.291458
-0.292047
-0.295058
-0.295686
-0.296697
-0.299386
-0.297413
-0.305277
-0.293934
-0.310531
-0.292476
-0.290673
-0.294011
-0.294714
-0.295951
-0.298493
-0.297137
-0.303905
-0.294733
-0.308331
-0.293285
-0.289476
-0.293097
-0.293852
-0.295269
-0.29767
-0.296848
-0.302638
-0.29532
-0.306407
-0.293894
-0.288482
-0.292335
-0.293128
-0.294682
-0.29696
-0.296571
-0.30155
-0.295723
-0.304816
-0.294363
-0.287714
-0.291746
-0.292562
-0.294215
-0.296398
-0.29633
-0.300696
-0.295979
-0.303598
-0.294709
-0.287192
-0.291344
-0.292174
-0.293891
-0.29601
-0.296153
-0.30011
-0.296125
-0.302777
-0.294936
-0.286927
-0.291141
-0.291977
-0.293725
-0.295811
-0.296058
-0.299813
-0.296189
-0.302363
-0.295049
-0.30239
-0.292775
-0.293703
-0.285665
-0.28137
-0.272535
-0.264499
-0.253601
-0.242171
-0.228544
-0.213762
-0.197299
-0.179529
-0.160975
-0.141556
-0.122741
-0.104114
-0.0874647
-0.0721758
-0.0593454
-0.0485666
-0.0397183
-0.0327513
-0.0267091
-0.0225295
-0.0177503
-0.0144972
-0.00881686
-0.00573032
-4.86942e-05
-0.302631
-0.292912
-0.293804
-0.285786
-0.281471
-0.27265
-0.264611
-0.253721
-0.242293
-0.22867
-0.21389
-0.197427
-0.179653
-0.161093
-0.141664
-0.122839
-0.104201
-0.0875398
-0.0722414
-0.0593998
-0.0486125
-0.0397548
-0.0327806
-0.0267318
-0.0225507
-0.0177711
-0.0145183
-0.00883578
-0.00574538
-5.7511e-05
-0.303082
-0.293167
-0.293997
-0.286017
-0.281674
-0.272873
-0.264831
-0.253955
-0.24253
-0.228917
-0.214138
-0.197677
-0.179895
-0.161326
-0.141879
-0.123036
-0.104374
-0.0876901
-0.0723715
-0.0595071
-0.0487031
-0.0398279
-0.0328403
-0.0267788
-0.0225939
-0.0178127
-0.0145597
-0.00887291
-0.00577483
-7.50162e-05
-0.303698
-0.293511
-0.294269
-0.286342
-0.28195
-0.273194
-0.265143
-0.254292
-0.242872
-0.229273
-0.214498
-0.19804
-0.180248
-0.161668
-0.142195
-0.123325
-0.104633
-0.0879145
-0.0725662
-0.0596685
-0.0488397
-0.0399389
-0.0329317
-0.0268513
-0.0226595
-0.017875
-0.0146204
-0.00892745
-0.00581765
-0.00010096
-0.304409
-0.293887
-0.2946
-0.286727
-0.282309
-0.273587
-0.265539
-0.254713
-0.243305
-0.229724
-0.214954
-0.198503
-0.180702
-0.162108
-0.142604
-0.123703
-0.104973
-0.0882119
-0.0728258
-0.059885
-0.0490239
-0.0400897
-0.0330564
-0.0269508
-0.022748
-0.0179576
-0.014699
-0.00899827
-0.00587239
-0.000134993
-0.305131
-0.294278
-0.294947
-0.287163
-0.282697
-0.274046
-0.265985
-0.255208
-0.243809
-0.230256
-0.215497
-0.199051
-0.181236
-0.162631
-0.143102
-0.124163
-0.105392
-0.0885809
-0.0731508
-0.0601586
-0.0492575
-0.0402823
-0.0332161
-0.027079
-0.0228596
-0.0180601
-0.014794
-0.00908398
-0.00593736
-0.000176689
-0.305835
-0.29455
-0.295312
-0.287574
-0.283123
-0.274511
-0.266489
-0.255735
-0.24437
-0.23084
-0.216093
-0.199667
-0.18185
-0.163232
-0.143675
-0.124698
-0.105885
-0.08902
-0.073542
-0.060491
-0.0495429
-0.040519
-0.0334127
-0.0272374
-0.0229947
-0.0181818
-0.0149033
-0.00918305
-0.0060107
-0.000225568
-0.306258
-0.294863
-0.295554
-0.288011
-0.28349
-0.275015
-0.266965
-0.256308
-0.244946
-0.231474
-0.21674
-0.200335
-0.182517
-0.163893
-0.144315
-0.125303
-0.10645
-0.0895283
-0.0740001
-0.0608841
-0.049882
-0.0408019
-0.0336479
-0.0274276
-0.0231535
-0.0183222
-0.0150252
-0.00929385
-0.00609056
-0.000281108
-0.306312
-0.29513
-0.295637
-0.288411
-0.283797
-0.275488
-0.267439
-0.25687
-0.245534
-0.232119
-0.217408
-0.201036
-0.183226
-0.164605
-0.145013
-0.125971
-0.107083
-0.0901051
-0.0745258
-0.0613396
-0.0502768
-0.0411328
-0.0339231
-0.0276505
-0.0233359
-0.0184801
-0.0151577
-0.00941478
-0.00617516
-0.000342761
-0.305976
-0.295249
-0.29558
-0.288695
-0.284032
-0.275895
-0.26786
-0.257404
-0.2461
-0.23276
-0.21808
-0.201754
-0.183963
-0.165355
-0.145762
-0.126697
-0.107783
-0.0907491
-0.0751196
-0.0618587
-0.0507285
-0.0415127
-0.0342391
-0.0279066
-0.0235415
-0.0186547
-0.0152991
-0.00954427
-0.00626291
-0.000409948
-0.304961
-0.295222
-0.295297
-0.288835
-0.284126
-0.276209
-0.268209
-0.257879
-0.246623
-0.233371
-0.218737
-0.202471
-0.184713
-0.166132
-0.146552
-0.127475
-0.108545
-0.0914593
-0.0757809
-0.0624417
-0.0512377
-0.0419422
-0.034596
-0.0281957
-0.0237698
-0.0188449
-0.0154479
-0.00968091
-0.00635242
-0.000482067
-0.30308
-0.294939
-0.294744
-0.288771
-0.28408
-0.276365
-0.268441
-0.25826
-0.247074
-0.23393
-0.219358
-0.20317
-0.185464
-0.166927
-0.147378
-0.128301
-0.109367
-0.0922336
-0.0765087
-0.063088
-0.0518039
-0.0424208
-0.0349933
-0.0285174
-0.0240198
-0.0190494
-0.0156027
-0.00982342
-0.00644259
-0.00055849
-0.300357
-0.294256
-0.29389
-0.288411
-0.283785
-0.276363
-0.268543
-0.258524
-0.247433
-0.234414
-0.219926
-0.203836
-0.186203
-0.167729
-0.148232
-0.129169
-0.110245
-0.0930695
-0.0773006
-0.063796
-0.0524257
-0.0429472
-0.0354299
-0.0288703
-0.0242906
-0.0192672
-0.0157625
-0.00997068
-0.00653254
-0.00063857
-0.297189
-0.292974
-0.292638
-0.287741
-0.283274
-0.276068
-0.268425
-0.258628
-0.247667
-0.234803
-0.220424
-0.204456
-0.186921
-0.168532
-0.149109
-0.130076
-0.111175
-0.0939634
-0.0781534
-0.0645627
-0.0531005
-0.0435191
-0.0359037
-0.0292527
-0.0245808
-0.019497
-0.0159263
-0.0101217
-0.00662168
-0.000721649
-0.293811
-0.29103
-0.29093
-0.286679
-0.282459
-0.275647
-0.26815
-0.258575
-0.247764
-0.235081
-0.220839
-0.205018
-0.187609
-0.169328
-0.150001
-0.131015
-0.112152
-0.0949112
-0.0790626
-0.065384
-0.0538248
-0.0441335
-0.0364122
-0.0296625
-0.024889
-0.0197379
-0.0160937
-0.0102759
-0.00670959
-0.000807062
-0.290141
-0.288497
-0.288695
-0.28515
-0.281211
-0.274665
-0.267514
-0.258281
-0.247689
-0.23523
-0.221162
-0.205517
-0.18826
-0.170113
-0.150905
-0.131983
-0.11317
-0.0959074
-0.0800228
-0.0662552
-0.0545943
-0.0447868
-0.0369525
-0.0300974
-0.0252137
-0.0199887
-0.0162641
-0.0104324
-0.00679604
-0.000894146
-0.286315
-0.285336
-0.285949
-0.283222
-0.279764
-0.273845
-0.266815
-0.257847
-0.247467
-0.235251
-0.221384
-0.205945
-0.18887
-0.170882
-0.151817
-0.132976
-0.114226
-0.0969481
-0.0810295
-0.0671714
-0.0554045
-0.0454749
-0.0375211
-0.0305543
-0.0255529
-0.0202483
-0.0164372
-0.0105908
-0.00688096
-0.000982305
-0.282273
-0.281637
-0.282617
-0.280677
-0.277662
-0.272146
-0.265486
-0.25706
-0.247033
-0.235132
-0.221517
-0.206318
-0.189453
-0.171642
-0.152738
-0.13399
-0.11531
-0.0980222
-0.0820704
-0.0681214
-0.0562457
-0.0461903
-0.0381126
-0.0310297
-0.025905
-0.0205159
-0.0166132
-0.0107511
-0.00696476
-0.00107116
-0.278062
-0.277665
-0.279146
-0.278117
-0.275713
-0.270824
-0.264631
-0.256298
-0.246503
-0.234886
-0.221526
-0.20658
-0.189949
-0.172344
-0.153626
-0.134996
-0.116405
-0.0991207
-0.0831452
-0.069109
-0.0571251
-0.0469399
-0.0387336
-0.0315282
-0.0262736
-0.0207942
-0.016794
-0.0109144
-0.00704779
-0.00116008
-0.274104
-0.272896
-0.274424
-0.274234
-0.272516
-0.268307
-0.262335
-0.254973
-0.245728
-0.234574
-0.221587
-0.206977
-0.190632
-0.173254
-0.154725
-0.136202
-0.117682
-0.100372
-0.0843392
-0.0701865
-0.0580656
-0.0477312
-0.0393788
-0.0320418
-0.0266478
-0.0210738
-0.0169714
-0.011073
-0.00712608
-0.00124627
-0.268935
-0.26917
-0.270913
-0.27135
-0.270126
-0.266536
-0.261456
-0.253679
-0.244584
-0.233643
-0.220862
-0.206462
-0.190329
-0.173151
-0.154825
-0.136468
-0.118101
-0.100889
-0.0849239
-0.0707853
-0.0586439
-0.0482586
-0.039837
-0.0324265
-0.0269394
-0.0212967
-0.0171138
-0.0112021
-0.00719058
-0.00132212
-0.263286
-0.264315
-0.266259
-0.267213
-0.266349
-0.263044
-0.257774
-0.250999
-0.242349
-0.231772
-0.21932
-0.205235
-0.189415
-0.172528
-0.154499
-0.136393
-0.118261
-0.101212
-0.0853712
-0.0712887
-0.0591564
-0.0487405
-0.0402611
-0.0327869
-0.0272077
-0.0215005
-0.0172353
-0.0113164
-0.00724275
-0.00139157
-0.257367
-0.259012
-0.261209
-0.262725
-0.262336
-0.259532
-0.25497
-0.248344
-0.239995
-0.229759
-0.217633
-0.203868
-0.188375
-0.171795
-0.154081
-0.136243
-0.118366
-0.101497
-0.0857947
-0.0717805
-0.0596659
-0.0492253
-0.04069
-0.0331534
-0.0274789
-0.021706
-0.0173538
-0.0114297
-0.00729137
-0.00146208
-0.2512
-0.253488
-0.255964
-0.258019
-0.258124
-0.255828
-0.251635
-0.245465
-0.237488
-0.22762
-0.215847
-0.202427
-0.187283
-0.17103
-0.153648
-0.136092
-0.11848
-0.101799
-0.0862394
-0.0722961
-0.0601996
-0.0497333
-0.0411395
-0.0335374
-0.0277631
-0.0219214
-0.0174774
-0.0115476
-0.00734064
-0.00153468
-0.244737
-0.247772
-0.250546
-0.253096
-0.253694
-0.251885
-0.248118
-0.242392
-0.234814
-0.225339
-0.213945
-0.200894
-0.186123
-0.170217
-0.153186
-0.135928
-0.118594
-0.10211
-0.0867012
-0.072833
-0.0607564
-0.0502641
-0.0416096
-0.0339393
-0.0280609
-0.0221474
-0.0176071
-0.0116707
-0.00739102
-0.00160921
-0.238021
-0.241887
-0.244977
-0.24798
-0.249071
-0.247751
-0.244435
-0.239156
-0.231991
-0.222927
-0.211934
-0.199271
-0.184893
-0.169353
-0.15269
-0.135745
-0.1187
-0.102425
-0.0871736
-0.0733857
-0.0613316
-0.0508143
-0.0420976
-0.0343571
-0.0283708
-0.0223832
-0.0177422
-0.0117987
-0.00744225
-0.00168522
-0.231125
-0.235865
-0.239295
-0.242716
-0.244294
-0.243468
-0.240604
-0.235779
-0.229041
-0.220402
-0.209826
-0.197569
-0.1836
-0.168442
-0.152161
-0.135542
-0.118798
-0.10274
-0.0876534
-0.0739512
-0.0619224
-0.0513813
-0.0426014
-0.0347894
-0.028692
-0.0226283
-0.0178827
-0.0119312
-0.00749437
-0.0017623
-0.224105
-0.229733
-0.233528
-0.237336
-0.239396
-0.239063
-0.236653
-0.232284
-0.225984
-0.21778
-0.207635
-0.195797
-0.182251
-0.167489
-0.151602
-0.13532
-0.118886
-0.103055
-0.0881383
-0.0745269
-0.0625262
-0.0519631
-0.0431195
-0.035235
-0.0290237
-0.0228824
-0.0180285
-0.0120683
-0.00754754
-0.00184006
-0.217008
-0.223512
-0.227699
-0.231868
-0.234397
-0.234557
-0.232602
-0.228691
-0.222837
-0.215077
-0.205373
-0.193964
-0.180853
-0.166497
-0.151013
-0.135079
-0.118962
-0.103365
-0.0886254
-0.0751099
-0.0631404
-0.0525575
-0.0436498
-0.0356924
-0.029365
-0.0231451
-0.0181798
-0.0122098
-0.00760192
-0.00191808
-0.209883
-0.217228
-0.22183
-0.226338
-0.229319
-0.229969
-0.228472
-0.22502
-0.219616
-0.212305
-0.203051
-0.19208
-0.179412
-0.165471
-0.150398
-0.134819
-0.119026
-0.10367
-0.0891117
-0.0756972
-0.0637621
-0.0531618
-0.0441904
-0.03616
-0.0297149
-0.0234157
-0.0183364
-0.0123556
-0.00765765
-0.00199593
-0.202777
-0.210904
-0.215939
-0.220768
-0.224181
-0.225315
-0.224278
-0.221282
-0.216333
-0.209476
-0.200678
-0.190152
-0.177933
-0.164414
-0.149757
-0.134541
-0.119075
-0.103967
-0.0895946
-0.0762861
-0.0643885
-0.0537737
-0.044739
-0.0366362
-0.0300724
-0.0236937
-0.0184981
-0.0125054
-0.00771484
-0.00207315
-0.195733
-0.204568
-0.210049
-0.215183
-0.219002
-0.220612
-0.220035
-0.217494
-0.213
-0.2066
-0.198263
-0.188186
-0.17642
-0.16333
-0.149092
-0.134243
-0.11911
-0.104255
-0.0900714
-0.0768736
-0.0650166
-0.0543905
-0.0452934
-0.0371193
-0.0304362
-0.0239783
-0.0186647
-0.0126588
-0.00777361
-0.00214931
-0.188795
-0.19825
-0.20418
-0.209608
-0.213805
-0.215875
-0.215758
-0.213668
-0.20963
-0.203688
-0.195814
-0.18619
-0.17488
-0.162221
-0.148405
-0.133928
-0.119128
-0.10453
-0.0905398
-0.0774571
-0.0656437
-0.0550096
-0.0458515
-0.0376073
-0.030805
-0.0242685
-0.0188359
-0.0128154
-0.007834
-0.00222396
-0.182004
-0.191979
-0.198354
-0.204067
-0.20861
-0.211124
-0.211462
-0.209819
-0.206234
-0.200749
-0.19334
-0.184171
-0.173318
-0.161092
-0.147698
-0.133594
-0.119129
-0.104793
-0.0909975
-0.078034
-0.0662672
-0.0556285
-0.0464108
-0.0380985
-0.0311776
-0.0245634
-0.0190112
-0.0129746
-0.00789604
-0.00229667
-0.175396
-0.185789
-0.192594
-0.198583
-0.203443
-0.206377
-0.207163
-0.205963
-0.202826
-0.197796
-0.190849
-0.182135
-0.171738
-0.159946
-0.146973
-0.133244
-0.119113
-0.105041
-0.0914423
-0.0786017
-0.0668842
-0.0562446
-0.0469692
-0.0385908
-0.0315525
-0.0248619
-0.0191901
-0.0131358
-0.00795972
-0.00236701
-0.169004
-0.17971
-0.186924
-0.19318
-0.198328
-0.201656
-0.202879
-0.202115
-0.19942
-0.19484
-0.188353
-0.180091
-0.170147
-0.158788
-0.146233
-0.132879
-0.119081
-0.105274
-0.0918723
-0.0791577
-0.0674921
-0.056855
-0.0475241
-0.0390821
-0.031928
-0.0251625
-0.0193718
-0.0132983
-0.00802494
-0.00243459
-0.162856
-0.173777
-0.181369
-0.187882
-0.193292
-0.196984
-0.19863
-0.198293
-0.196032
-0.191894
-0.185861
-0.178048
-0.168552
-0.157623
-0.145481
-0.132499
-0.119031
-0.10549
-0.0922857
-0.0796994
-0.0680881
-0.057457
-0.0480729
-0.03957
-0.0323025
-0.0254638
-0.0195557
-0.0134612
-0.00809157
-0.00249902
-0.156978
-0.168024
-0.175956
-0.182713
-0.188363
-0.192389
-0.194438
-0.194518
-0.19268
-0.188975
-0.183386
-0.176016
-0.166962
-0.156456
-0.144721
-0.132108
-0.118965
-0.105688
-0.0926805
-0.0802244
-0.0686694
-0.0580474
-0.0486129
-0.0400519
-0.032674
-0.0257642
-0.0197407
-0.0136236
-0.0081594
-0.00255996
-0.151396
-0.162485
-0.170716
-0.177702
-0.183571
-0.187899
-0.190328
-0.190809
-0.189383
-0.186099
-0.180944
-0.174008
-0.165385
-0.155296
-0.143959
-0.131708
-0.118884
-0.105868
-0.0930552
-0.0807299
-0.0692328
-0.0586231
-0.049141
-0.0405252
-0.0330403
-0.0260618
-0.0199257
-0.0137842
-0.00822813
-0.00261711
-0.146132
-0.157194
-0.165678
-0.172877
-0.178946
-0.183545
-0.186326
-0.187193
-0.186163
-0.183285
-0.178551
-0.172036
-0.163833
-0.154149
-0.1432
-0.131302
-0.118789
-0.10603
-0.0934081
-0.0812133
-0.0697753
-0.0591804
-0.0496541
-0.0409867
-0.0333991
-0.0263543
-0.0201094
-0.013942
-0.00829738
-0.00267021
-0.141207
-0.152185
-0.160875
-0.168267
-0.17452
-0.179361
-0.182463
-0.183694
-0.183044
-0.180556
-0.176225
-0.170116
-0.162318
-0.153026
-0.14245
-0.130895
-0.118682
-0.106173
-0.0937375
-0.0816718
-0.0702935
-0.0597155
-0.0501485
-0.0414329
-0.0337477
-0.0266395
-0.0202903
-0.0140954
-0.00836661
-0.00271908
-0.136643
-0.147491
-0.156341
-0.163906
-0.170326
-0.175382
-0.178774
-0.180344
-0.180054
-0.177936
-0.173986
-0.168266
-0.160854
-0.151937
-0.141718
-0.130491
-0.118566
-0.106297
-0.094042
-0.0821024
-0.0707837
-0.0602244
-0.0506203
-0.0418603
-0.034083
-0.0269145
-0.0204667
-0.014243
-0.00843516
-0.00276363
-0.13246
-0.143144
-0.152111
-0.159828
-0.166399
-0.171644
-0.175293
-0.177175
-0.177221
-0.17545
-0.171859
-0.166504
-0.159456
-0.150894
-0.141012
-0.130095
-0.118443
-0.106404
-0.0943202
-0.0825021
-0.0712421
-0.0607025
-0.0510653
-0.0422645
-0.0344017
-0.0271766
-0.0206365
-0.014383
-0.00850216
-0.00280378
-0.128679
-0.139178
-0.148222
-0.156071
-0.162777
-0.168188
-0.172062
-0.174223
-0.174578
-0.173129
-0.169869
-0.164852
-0.158143
-0.149911
-0.140342
-0.129716
-0.118318
-0.106493
-0.0945706
-0.0828678
-0.0716645
-0.0611451
-0.0514787
-0.042641
-0.0346999
-0.0274222
-0.0207973
-0.0145138
-0.00856656
-0.00283947
-0.125323
-0.135629
-0.144715
-0.152675
-0.159501
-0.165055
-0.169122
-0.171528
-0.172161
-0.171004