/*--------------------------------*- C++ -*----------------------------------*\
  =========                 |
  \\      /  F ield         | OpenFOAM: The Open Source CFD Toolbox
   \\    /   O peration     | Website:  https://openfoam.org
    \\  /    A nd           | Version:  9
     \\/     M anipulation  |
\*---------------------------------------------------------------------------*/
FoamFile
{
    format      ascii;
    class       volScalarField;
    location    "2";
    object      p;
}
// * * * * * * * * * * * * * * * * * * * * * * * * * * * * * * * * * * * * * //

dimensions      [1 -1 -2 0 0 0 0];

internalField   nonuniform List<scalar> 
252
(
1
1
1.70646
8.38252
10.9955
11.5138
1
1
1.4841
7.7783
10.6265
11.4019
1
1
1.05521
6.30865
9.1595
7.99461
1
1
1.00083
3.89869
7.80826
7.22277
1
1
0.999995
1.61271
5.99375
7.11104
1
1
0.999999
1.0417
3.27981
6.73022
1
1
1
1.00026
1.38708
4.79264
1
1
1
1
1.01307
2.22346
1
1
1
1
1.00008
1.11864
1
1
1
1
1
1.00251
2.60952
1.13508
0.757878
0.806792
0.916543
1.02837
1.16057
1.29564
1.34852
1.45921
1.90049
3.00706
4.17212
4.93504
5.28067
5.11125
4.73121
4.22606
3.74858
3.37704
3.09919
2.85724
2.65041
2.34946
3.91972
2.52644
1.80365
1.49669
1.34205
1.22455
1.16089
1.18319
1.30912
1.75296
2.43826
2.81713
3.12903
3.56861
3.77845
3.90907
3.87692
3.66174
3.45113
3.25331
3.03528
2.8317
2.65147
2.36449
4.72741
3.30196
2.46251
1.92394
1.57057
1.30453
1.15284
1.24777
1.71612
2.47361
2.79907
2.6467
2.51449
2.44503
2.5433
2.72693
2.92378
2.98034
2.9481
2.92029
2.8775
2.7938
2.68225
2.44442
5.2612
3.9231
2.95018
2.35936
1.91108
1.61298
1.7071
2.20264
2.83505
3.07155
2.89193
2.59451
2.32269
2.11641
1.94248
1.83117
1.875
1.99496
2.14891
2.28521
2.39323
2.38842
2.35923
2.24309
5.42236
4.54222
3.51805
2.73808
2.23895
2.44018
3.09561
3.70417
3.66174
3.34023
2.91917
2.50637
2.19647
1.9597
1.75908
1.61865
1.53162
1.45442
1.42868
1.50523
1.61551
1.70206
1.78859
1.85098
4.48368
4.67821
4.11019
3.4098
3.68094
4.66113
5.21131
4.93267
4.32504
3.6538
3.06084
2.58003
2.21591
1.93456
1.72012
1.56976
1.46017
1.3613
1.29041
1.24459
1.16917
1.1229
1.13251
1.23836
2.56865
3.91162
4.5674
5.60232
6.70263
6.48105
5.9429
5.11923
4.29763
3.59664
3.04347
2.63786
2.3211
2.04286
1.79413
1.59073
1.4734
1.39752
1.29749
1.16546
1.07482
0.986913
0.920954
0.916537
1.25425
2.86241
6.19857
10.1891
11.04
8.99844
6.88983
5.34801
4.27496
3.53959
3.02281
2.64339
2.33325
2.06527
1.84832
1.68515
1.53018
1.35734
1.20833
1.08412
0.972674
0.908266
0.885946
0.835996
)
;

boundaryField
{
    inlet
    {
        type            fixedValue;
        value           uniform 1;
    }
    outlet
    {
        type            zeroGradient;
    }
    bottom
    {
        type            symmetryPlane;
    }
    top
    {
        type            symmetryPlane;
    }
    obstacle
    {
        type            zeroGradient;
    }
    defaultFaces
    {
        type            empty;
    }
}


// ************************************************************************* //
