/*--------------------------------*- C++ -*----------------------------------*\
  =========                 |
  \\      /  F ield         | OpenFOAM: The Open Source CFD Toolbox
   \\    /   O peration     | Website:  https://openfoam.org
    \\  /    A nd           | Version:  7
     \\/     M anipulation  |
\*---------------------------------------------------------------------------*/
FoamFile
{
    version     2.0;
    format      ascii;
    class       volVectorField;
    location    "2";
    object      U;
}
// * * * * * * * * * * * * * * * * * * * * * * * * * * * * * * * * * * * * * //

dimensions      [0 1 -1 0 0 0 0];

internalField   nonuniform List<vector> 
252
(
(3 6.76693e-17 0)
(3 1.13666e-16 0)
(2.69688 0.0218739 0)
(0.836737 0.0560424 0)
(0.486461 0.0736408 0)
(0.286705 0.166972 0)
(3 9.21543e-17 0)
(3 -9.72922e-17 0)
(2.81487 0.110492 0)
(0.907942 0.274655 0)
(0.436179 0.325727 0)
(0.310165 0.5844 0)
(3 1.23426e-16 0)
(3 -3.0146e-16 0)
(3.02569 0.0218554 0)
(1.22818 0.479773 0)
(0.69091 0.577007 0)
(0.758897 0.901578 0)
(3 1.02448e-16 0)
(3 2.70891e-18 0)
(3.00274 5.15938e-05 0)
(1.8514 0.579505 0)
(0.980307 0.7726 0)
(1.02988 0.81732 0)
(3 9.59217e-17 0)
(3 -3.36359e-17 0)
(3.00002 -1.45857e-07 0)
(2.93123 0.26227 0)
(1.4421 0.864218 0)
(1.26912 0.828879 0)
(3 -8.00605e-17 0)
(3 -3.59417e-17 0)
(3 -6.70776e-07 0)
(3.03875 0.0127915 0)
(2.26069 0.65711 0)
(1.45301 0.889144 0)
(3 -2.0987e-16 0)
(3 -3.9808e-16 0)
(3 -1.26123e-07 0)
(3.00062 0.000423427 0)
(3.0053 0.139763 0)
(1.87528 0.830052 0)
(3 3.39356e-17 0)
(3 5.99063e-17 0)
(3 -1.11729e-08 0)
(3 5.88145e-07 0)
(3.00723 0.00770252 0)
(2.67185 0.438648 0)
(3 2.36892e-16 0)
(3 5.86539e-16 0)
(3 -3.42965e-10 0)
(3 -1.83887e-10 0)
(3.00003 7.23879e-05 0)
(2.99104 0.058359 0)
(3 2.66457e-17 0)
(3 1.71355e-17 0)
(3 -1.77855e-12 0)
(3 -3.5084e-11 0)
(3 7.15407e-08 0)
(2.99989 0.00119464 0)
(1.66635 0.873384 0)
(2.18771 0.952042 0)
(2.37575 0.73849 0)
(2.40143 0.39153 0)
(2.44801 0.107053 0)
(2.49701 -0.0281776 0)
(2.49807 -0.0923568 0)
(2.48719 -0.102572 0)
(2.45464 -0.0578735 0)
(2.39196 -0.0785391 0)
(2.20786 -0.173589 0)
(1.90478 -0.329712 0)
(1.77078 -0.302193 0)
(1.77589 -0.274953 0)
(1.83541 -0.213198 0)
(1.92635 -0.122208 0)
(1.99772 -0.0557628 0)
(2.07292 -0.0115737 0)
(2.15758 0.0255393 0)
(2.23979 0.0478837 0)
(2.31625 0.0510018 0)
(2.39741 0.0466786 0)
(2.47047 0.0521365 0)
(2.55931 0.0581713 0)
(1.68363 0.670276 0)
(2.0669 0.454378 0)
(2.30016 0.191618 0)
(2.41478 -0.0534469 0)
(2.46292 -0.232484 0)
(2.51817 -0.231296 0)
(2.5609 -0.172158 0)
(2.5491 -0.150862 0)
(2.4935 -0.171016 0)
(2.29804 -0.384915 0)
(2.12157 -0.614577 0)
(2.06614 -0.716124 0)
(2.0314 -0.591758 0)
(2.00226 -0.402906 0)
(1.99731 -0.180869 0)
(2.05749 -0.0136221 0)
(2.08992 0.0889582 0)
(2.13003 0.128349 0)
(2.19553 0.159913 0)
(2.27097 0.17745 0)
(2.34615 0.18738 0)
(2.42087 0.172667 0)
(2.48724 0.168517 0)
(2.5816 0.167608 0)
(1.67196 0.720977 0)
(1.99167 0.547891 0)
(2.18666 0.414041 0)
(2.31072 0.282608 0)
(2.40678 0.105405 0)
(2.46011 0.0961867 0)
(2.51015 -0.0103982 0)
(2.46608 -0.109397 0)
(2.29149 -0.406825 0)
(2.13087 -0.694446 0)
(2.07738 -0.82662 0)
(2.1333 -0.808068 0)
(2.21967 -0.747949 0)
(2.28606 -0.636838 0)
(2.33113 -0.494308 0)
(2.36569 -0.333139 0)
(2.36571 -0.159625 0)
(2.37001 -0.0218616 0)
(2.35817 0.0777765 0)
(2.39096 0.148769 0)
(2.4286 0.208975 0)
(2.4716 0.223645 0)
(2.52133 0.242536 0)
(2.60676 0.258814 0)
(1.68372 0.826821 0)
(1.90326 0.716258 0)
(2.11708 0.576787 0)
(2.28791 0.40762 0)
(2.41664 0.26492 0)
(2.46918 0.187719 0)
(2.40384 -0.0168082 0)
(2.26506 -0.371999 0)
(2.16988 -0.648599 0)
(2.13829 -0.794537 0)
(2.19001 -0.780505 0)
(2.26663 -0.761962 0)
(2.34869 -0.716286 0)
(2.43976 -0.658582 0)
(2.49637 -0.616372 0)
(2.55189 -0.546644 0)
(2.56318 -0.42837 0)
(2.57787 -0.300806 0)
(2.57119 -0.156455 0)
(2.55493 -0.0150845 0)
(2.57442 0.106104 0)
(2.60146 0.196605 0)
(2.61225 0.238993 0)
(2.65477 0.271273 0)
(1.73355 0.875365 0)
(1.88211 0.801587 0)
(2.06484 0.690664 0)
(2.24155 0.563629 0)
(2.33247 0.47128 0)
(2.2974 0.204048 0)
(2.18182 -0.235143 0)
(2.12756 -0.510359 0)
(2.12594 -0.701402 0)
(2.18465 -0.697531 0)
(2.27329 -0.681246 0)
(2.3682 -0.648549 0)
(2.44603 -0.590944 0)
(2.49137 -0.569125 0)
(2.54385 -0.555341 0)
(2.59389 -0.522599 0)
(2.65452 -0.461303 0)
(2.69674 -0.406916 0)
(2.73386 -0.346957 0)
(2.72531 -0.261447 0)
(2.71992 -0.115621 0)
(2.72059 0.0663275 0)
(2.73609 0.132764 0)
(2.7454 0.220092 0)
(1.92627 0.865375 0)
(1.90823 0.886542 0)
(2.01387 0.818045 0)
(2.1398 0.713483 0)
(2.12172 0.381069 0)
(2.07513 -0.0231868 0)
(2.05002 -0.280324 0)
(2.06189 -0.417656 0)
(2.13743 -0.454558 0)
(2.24861 -0.460189 0)
(2.34947 -0.46093 0)
(2.42657 -0.444839 0)
(2.49375 -0.422496 0)
(2.55845 -0.427278 0)
(2.61854 -0.431553 0)
(2.67507 -0.396978 0)
(2.71544 -0.349078 0)
(2.76172 -0.315559 0)
(2.80433 -0.312808 0)
(2.81979 -0.314831 0)
(2.81662 -0.301835 0)
(2.83101 -0.199201 0)
(2.84356 -0.108442 0)
(2.88572 0.0313879 0)
(2.54323 0.522387 0)
(2.14799 0.914084 0)
(2.01844 0.79889 0)
(1.88759 0.407288 0)
(1.76208 -0.0606896 0)
(1.81807 -0.328897 0)
(1.88426 -0.356308 0)
(2.01904 -0.344588 0)
(2.15915 -0.310012 0)
(2.27828 -0.281619 0)
(2.37368 -0.265207 0)
(2.45714 -0.246992 0)
(2.53321 -0.242548 0)
(2.59692 -0.25183 0)
(2.63443 -0.254617 0)
(2.67371 -0.234825 0)
(2.74674 -0.220809 0)
(2.81215 -0.214431 0)
(2.86438 -0.209502 0)
(2.91364 -0.190722 0)
(2.90697 -0.194706 0)
(2.86802 -0.19487 0)
(2.89788 -0.153311 0)
(2.96035 -0.0834539 0)
(2.91155 0.114325 0)
(2.51386 0.361984 0)
(2.01921 0.643101 0)
(1.68274 0.393782 0)
(1.65717 0.2166 0)
(1.7929 0.0386691 0)
(1.95508 -0.0681582 0)
(2.11878 -0.101001 0)
(2.26063 -0.110636 0)
(2.36856 -0.109317 0)
(2.44885 -0.101725 0)
(2.51262 -0.0903083 0)
(2.57126 -0.0833681 0)
(2.63129 -0.0884314 0)
(2.68805 -0.0999469 0)
(2.73849 -0.0909212 0)
(2.77969 -0.0783624 0)
(2.80633 -0.0872718 0)
(2.82794 -0.0870552 0)
(2.85195 -0.0804291 0)
(2.8675 -0.0981207 0)
(2.89463 -0.0837998 0)
(2.91603 -0.0765476 0)
(2.96522 -0.0790305 0)
)
;

boundaryField
{
    inlet
    {
        type            fixedValue;
        value           uniform (3 0 0);
    }
    outlet
    {
        type            inletOutlet;
        inletValue      uniform (3 0 0);
        value           nonuniform List<vector> 8((2.55931 0.0581713 0) (2.5816 0.167608 0) (2.60676 0.258814 0) (2.65477 0.271273 0) (2.7454 0.220092 0) (2.88572 0.0313879 0) (2.96035 -0.0834539 0) (2.96522 -0.0790305 0));
    }
    bottom
    {
        type            symmetryPlane;
    }
    top
    {
        type            symmetryPlane;
    }
    obstacle
    {
        type            slip;
    }
    defaultFaces
    {
        type            empty;
    }
}


// ************************************************************************* //
