/*--------------------------------*- C++ -*----------------------------------*\
  =========                 |
  \\      /  F ield         | OpenFOAM: The Open Source CFD Toolbox
   \\    /   O peration     | Website:  https://openfoam.org
    \\  /    A nd           | Version:  9
     \\/     M anipulation  |
\*---------------------------------------------------------------------------*/
FoamFile
{
    format      ascii;
    class       surfaceScalarField;
    location    "23.6";
    object      phi;
}
// * * * * * * * * * * * * * * * * * * * * * * * * * * * * * * * * * * * * * //

dimensions      [0 3 -1 0 0 0 0];

internalField   nonuniform List<scalar> 
16735
(
-0.00300946
0.00300946
-6.23906e-09
-0.00903583
0.00602638
-1.05212e-08
-0.0169559
0.00792011
-1.14478e-08
-0.0260463
0.00909034
-1.0934e-08
-0.0362058
0.0101595
-9.64377e-09
-0.0468603
0.0106546
-7.12884e-09
-0.0591223
0.012262
-2.47174e-09
-0.0703023
0.01118
5.55339e-09
-0.0853771
0.0150747
1.83528e-08
0.0115327
3.78238e-08
-0.0969098
-0.00295731
0.00596678
-0.0088866
0.0119557
-0.0166676
0.0157011
-0.0255674
0.0179901
-0.0354707
0.0200628
-0.04577
0.0209539
-0.0575694
0.0240614
-0.0680761
0.0216867
-0.082389
0.0293876
0.0217406
-0.092597
-0.00285528
0.00882206
-0.00859341
0.0176938
-0.0160995
0.0232072
-0.0246216
0.0265122
-0.0340143
0.0294554
-0.0436108
0.0305504
-0.0544787
0.0349293
-0.0636555
0.0308635
-0.0764656
0.0421978
0.0293648
-0.0840898
-0.00270778
0.0115298
-0.00816654
0.0231526
-0.0152681
0.0303088
-0.0232327
0.0344768
-0.0318639
0.0380867
-0.0404246
0.039111
-0.0498781
0.0443828
-0.0570931
0.0380786
-0.0676859
0.0527905
0.0332657
-0.0715868
-0.0025212
0.014051
-0.0076209
0.0282523
-0.0141977
0.0368856
-0.0214348
0.0417139
-0.0290593
0.0457111
-0.0362712
0.046323
-0.0438033
0.0519149
-0.0484456
0.0427209
-0.056101
0.0604459
0.0324521
-0.0552874
-0.0023036
0.0163546
-0.00697535
0.032924
-0.0129175
0.0428277
-0.0192712
0.0480676
-0.0256504
0.0520903
-0.0312258
0.0518985
-0.0362938
0.0569829
-0.037762
0.0441891
-0.0416576
0.0643415
0.0260681
-0.0352737
-0.00206436
0.018419
-0.00625184
0.0371115
-0.0114619
0.0480378
-0.0167913
0.053397
-0.021694
0.056993
-0.0253727
0.0555771
-0.0273861
0.0589963
-0.0250938
0.0418968
-0.0241088
0.0633565
0.0133845
-0.0114253
-0.0018137
0.0202327
-0.00547437
0.0407721
-0.00986867
0.0524321
-0.014047
0.0575754
-0.0172477
0.0601937
-0.0187945
0.0571239
-0.0170975
0.0572993
-0.0105523
0.0353517
-0.00282618
0.0556304
-0.00691763
0.017476
-0.00156218
0.0217949
-0.00466752
0.0438775
-0.00817636
0.0559409
-0.0110877
0.0604867
-0.0123596
0.0614656
-0.0115537
0.056318
-0.00535245
0.0510981
0.00599633
0.0240029
0.0214289
0.0401978
-0.0379489
0.0524602
-0.00132006
0.023115
-0.00385494
0.0464124
-0.00642112
0.0585071
-0.00795337
0.0620189
-0.00705419
0.0605665
-0.00368875
0.0529526
0.00754775
0.0398616
0.0249272
0.00662342
0.0500261
0.0150989
-0.0821224
0.0941996
-0.00109663
0.0242116
-0.00305737
0.0483731
-0.00463341
0.0600831
-0.0046696
0.0620551
-0.00128279
0.0571797
0.00515692
0.0465129
0.0219037
0.0231148
0.0457713
-0.0172442
0.083165
-0.0222948
-0.14199
0.143032
-0.000899494
0.0251111
-0.00229059
0.0497642
-0.00283305
0.0606256
-0.0012518
0.0604739
0.00476815
0.0511597
0.0151692
0.0361119
0.0383177
-3.36853e-05
0.0694243
-0.0483509
0.121115
-0.0739859
-0.218706
0.197832
-0.00073392
0.025845
-0.00156315
0.0505934
-0.00101973
0.0600822
0.00241035
0.0570438
0.0113958
0.0421742
0.0265788
0.0209288
0.0571257
-0.0305805
0.0972571
-0.0884823
0.164212
-0.140941
-0.310204
0.255711
-0.000602339
0.0264473
-0.000874765
0.0508659
0.000808599
0.0583988
0.00633485
0.0515175
0.0187888
0.0297203
0.0399467
-0.000229005
0.0786918
-0.0693256
0.130323
-0.140113
0.212016
-0.222634
-0.410682
0.312493
-0.000505031
0.0269524
-0.000212343
0.0505732
0.00269415
0.0554923
0.0106163
0.0435953
0.0271857
0.013151
0.0557845
-0.0288278
0.103388
-0.116929
0.168197
-0.204922
0.262002
-0.31644
-0.512373
0.363694
-0.000432423
0.0273848
0.000442758
0.049698
0.00473421
0.0512009
0.0154514
0.0328781
0.0369311
-0.00832874
0.0743947
-0.0662913
0.131425
-0.173959
0.208747
-0.282245
0.309503
-0.417196
-0.608456
0.405586
-0.000373692
0.0277585
0.00113285
0.0481914
0.00703289
0.0453008
0.0211016
0.0188094
0.0484803
-0.0357074
0.0957567
-0.113568
0.162261
-0.240463
0.248752
-0.368735
0.3496
-0.518044
-0.694855
0.435999
-0.000316221
0.0280747
0.00190969
0.0459655
0.00972741
0.0374831
0.0278756
0.000661195
0.0622724
-0.0701042
0.119481
-0.170776
0.194142
-0.315125
0.284678
-0.459271
0.379202
-0.612568
-0.770225
0.454572
-0.00024299
0.0283177
0.00283362
0.0428889
0.0129789
0.0273378
0.0360822
-0.0224421
0.0784908
-0.112513
0.144648
-0.236933
0.224491
-0.394968
0.313609
-0.548389
0.397652
-0.696611
-0.835138
0.462566
-0.000133578
0.0284513
0.00397147
0.0387839
0.0169648
0.0143445
0.0459587
-0.051436
0.0968184
-0.163372
0.169713
-0.309828
0.250831
-0.476085
0.334038
-0.631596
0.40604
-0.768613
-0.89169
0.462593
3.31602e-05
0.0284181
0.00539399
0.0334231
0.021866
-0.00212752
0.0575722
-0.0871423
0.116359
-0.222159
0.19281
-0.386279
0.271474
-0.554749
0.345971
-0.706093
0.407399
-0.830041
-0.94742
0.463129
0.000251753
0.0281664
0.00717589
0.0264989
0.0278402
-0.0227918
0.0707099
-0.130012
0.13579
-0.287239
0.212323
-0.462813
0.285718
-0.628144
0.350564
-0.770939
0.405275
-0.884753
-0.995767
0.453623
0.000559841
0.0276065
0.00939496
0.0176638
0.0349706
-0.0483675
0.0848231
-0.179864
0.153692
-0.356107
0.227292
-0.536413
0.293759
-0.694611
0.35
-0.827181
0.397494
-0.932246
-1.03684
0.438569
0.000967767
0.0266388
0.0121285
0.00650308
0.0431983
-0.0794373
0.0990856
-0.235752
0.168904
-0.425926
0.237449
-0.604959
0.29647
-0.753631
0.344962
-0.875672
0.386356
-0.97364
-1.07363
0.423139
0.00148687
0.0251519
0.015443
-0.00745303
0.0522802
-0.116275
0.11256
-0.296032
0.180735
-0.4941
0.243061
-0.667285
0.294741
-0.805311
0.336619
-0.91755
0.373006
-1.01003
-1.10642
0.4058
0.00213113
0.0230208
0.0193676
-0.0246895
0.0618081
-0.158715
0.124402
-0.358626
0.188969
-0.558667
0.244636
-0.722952
0.289522
-0.850197
0.325808
-0.953835
0.35797
-1.04219
-1.13614
0.387689
0.00292219
0.0200986
0.0238628
-0.0456302
0.0712697
-0.206122
0.134022
-0.421378
0.193731
-0.618377
0.242798
-0.77202
0.281606
-0.889004
0.313194
-0.985423
0.341866
-1.07086
-1.16318
0.368902
0.00389312
0.0162055
0.0288083
-0.0705453
0.0801174
-0.257431
0.141136
-0.482397
0.19534
-0.67258
0.238168
-0.814848
0.271656
-0.922492
0.299294
-1.01306
0.324968
-1.09654
-1.18782
0.349608
0.0050842
0.0111212
0.0340183
-0.0994794
0.087853
-0.311266
0.145724
-0.540268
0.194206
-0.721062
0.231311
-0.851952
0.260194
-0.951375
0.284473
-1.03734
0.307524
-1.11959
-1.21025
0.329954
0.00652648
0.00459477
0.0392742
-0.132227
0.0941215
-0.366113
0.14793
-0.594076
0.19076
-0.763892
0.222714
-0.883906
0.247626
-0.976287
0.269003
-1.05872
0.289679
-1.14026
-1.23056
0.30999
0.00821907
-0.0036243
0.0443534
-0.168361
0.0987497
-0.420509
0.147982
-0.643309
0.185413
-0.801324
0.212783
-0.911276
0.234256
-0.99776
0.25307
-1.07753
0.271537
-1.15873
-1.24881
0.289787
0.0101168
-0.0137411
0.0490395
-0.207284
0.101713
-0.473183
0.146146
-0.687742
0.178535
-0.833713
0.201848
-0.934589
0.220315
-1.01623
0.236811
-1.09403
0.253174
-1.17509
-1.26502
0.269381
0.0121389
-0.02588
0.0531297
-0.248275
0.103083
-0.523136
0.14269
-0.727349
0.170444
-0.861466
0.190169
-0.954314
0.205972
-1.03203
0.220322
-1.10838
0.234642
-1.18941
-1.27919
0.248814
0.0141897
-0.0400698
0.0564532
-0.290538
0.102987
-0.56967
0.137873
-0.762235
0.161409
-0.885002
0.177949
-0.970855
0.191351
-1.04543
0.203672
-1.1207
0.215987
-1.20173
-1.29132
0.228119
0.0161822
-0.0562519
0.0588927
-0.333249
0.101577
-0.612354
0.131931
-0.792589
0.151649
-0.90472
0.165348
-0.984553
0.176544
-1.05663
0.186911
-1.13107
0.197244
-1.21206
-1.3014
0.20733
0.0180453
-0.0742973
0.0603937
-0.375597
0.0990179
-0.650979
0.125078
-0.818649
0.141347
-0.92099
0.152485
-0.995691
0.16162
-1.06576
0.170082
-1.13953
0.178444
-1.22042
-1.30944
0.186478
0.0197209
-0.0940182
0.0609572
-0.416834
0.095471
-0.685493
0.117501
-0.840679
0.13065
-0.934139
0.139455
-1.0045
0.146635
-1.07294
0.153221
-1.14612
0.159618
-1.22682
-1.31542
0.165596
0.0211561
-0.115174
0.0606236
-0.456301
0.0910885
-0.715957
0.109364
-0.858954
0.119679
-0.944454
0.126329
-1.01115
0.131628
-1.07824
0.136359
-1.15085
0.140795
-1.23125
-1.31934
0.144717
0.0223007
-0.137475
0.059451
-0.493451
0.0860087
-0.742515
0.100805
-0.873751
0.10853
-0.952179
0.113165
-1.01578
0.116635
-1.08171
0.119523
-1.15373
0.122002
-1.23373
-1.32121
0.123876
0.0231115
-0.160587
0.0575276
-0.527867
0.0803577
-0.765345
0.0919414
-0.885334
0.0972824
-0.95752
0.100006
-1.0185
0.101685
-1.08339
0.102737
-1.15479
0.103269
-1.23427
-1.32106
0.103114
0.02356
-0.184147
0.0550321
-0.559339
0.0742537
-0.784567
0.0828672
-0.893948
0.085997
-0.96065
0.0868892
-1.0194
0.0868032
-1.0833
0.0860258
-1.15401
0.084624
-1.23286
-1.31892
0.0824834
0.0236347
-0.207781
0.0520295
-0.587734
0.067801
-0.800338
0.0736616
-0.899808
0.0747234
-0.961712
0.0738451
-1.01852
0.0720134
-1.08147
0.0694113
-1.15141
0.0660872
-1.22954
-1.31478
0.0619499
0.0233412
-0.231123
0.0485916
-0.612985
0.0610897
-0.812836
0.0643907
-0.90311
0.0635012
-0.960822
0.0608988
-1.01591
0.0573374
-1.07791
0.0529197
-1.14699
0.0476773
-1.2243
-1.30863
0.04153
0.0227008
-0.253823
0.0447921
-0.635076
0.0541993
-0.822244
0.0551089
-0.904019
0.0523625
-0.958076
0.0480728
-1.01163
0.0427949
-1.07263
0.0365767
-1.14077
0.0294384
-1.21716
-1.30044
0.0212502
0.0217471
-0.27557
0.0407013
-0.65403
0.0471806
-0.828723
0.0458596
-0.902698
0.0413339
-0.95355
0.035387
-1.00568
0.0284046
-1.06565
0.0203956
-1.13276
0.0114346
-1.2082
-1.29005
0.00104497
0.0205209
-0.296091
0.0363849
-0.669894
0.0400912
-0.832429
0.0366793
-0.899286
0.0304381
-0.947309
0.0228587
-0.998099
0.0141849
-1.05698
0.00435234
-1.12293
-0.006327
-1.19752
-1.2777
-0.018677
0.0190657
-0.315157
0.0319031
-0.682732
0.0329838
-0.83351
0.0275985
-0.893901
0.0196933
-0.939404
0.0104975
-0.988903
0.000114669
-1.04659
-0.0113463
-1.11147
-0.0239662
-1.1849
-1.26353
-0.0381437
0.0174241
-0.332581
0.0273103
-0.692618
0.0259022
-0.832102
0.0186439
-0.886643
0.00910563
-0.929865
-0.0016904
-0.978107
-0.0136119
-1.03467
-0.0267952
-1.09829
-0.041308
-1.17039
-1.24749
-0.0573422
0.0156361
-0.348217
0.0226548
-0.699637
0.0188822
-0.828329
0.00983571
-0.877596
-0.00133327
-0.918696
-0.013561
-0.965879
-0.027144
-1.02109
-0.0420133
-1.08342
-0.0583542
-1.15405
-1.22962
-0.0762275
0.0137382
-0.361955
0.0179788
-0.703877
0.0119515
-0.822302
0.00116439
-0.866809
-0.0113991
-0.906133
-0.0252427
-0.952036
-0.0404285
-1.0059
-0.0569665
-1.06688
-0.0750862
-1.13593
-1.20992
-0.0947799
0.0117639
-0.373719
0.0133195
-0.705433
0.00512072
-0.814103
-0.00721963
-0.854469
-0.0213014
-0.892051
-0.0366907
-0.936647
-0.0534486
-0.989147
-0.0716302
-1.0487
-0.0914881
-1.11607
-1.18844
-0.112971
0.00974326
-0.383463
0.00871196
-0.704401
-0.00158061
-0.80381
-0.0154303
-0.840619
-0.0309861
-0.876495
-0.0478863
-0.919746
-0.066188
-0.970845
-0.0859831
-1.0289
-0.107541
-1.09451
-1.1652
-0.130779
0.00770121
-0.391164
0.00419632
-0.700896
-0.00796928
-0.791645
-0.0234385
-0.82515
-0.0404359
-0.859498
-0.0588155
-0.901367
-0.0786316
-0.951029
-0.100007
-1.00753
-0.123228
-1.07129
-1.14025
-0.148184
0.00565659
-0.39682
-0.00013581
-0.695104
-0.0142267
-0.777554
-0.0312294
-0.808147
-0.0496402
-0.841087
-0.0694658
-0.881541
-0.0907646
-0.92973
-0.113685
-0.984607
-0.138533
-1.04644
-1.11362
-0.165162
0.00362781
-0.400448
-0.00468849
-0.686788
-0.0203218
-0.761921
-0.0387889
-0.78968
-0.0585875
-0.821288
-0.0798254
-0.860303
-0.102573
-0.906982
-0.127002
-0.960178
-0.153439
-1.02
-1.08537
-0.181687
0.00165117
-0.402099
-0.00899005
-0.676147
-0.0262366
-0.744674
-0.0461078
-0.769809
-0.0672675
-0.800129
-0.0898831
-0.837688
-0.114044
-0.882822
-0.139945
-0.934277
-0.167927
-0.99202
-1.05556
-0.197734
-0.000241845
-0.401857
-0.013124
-0.663264
-0.0319611
-0.725837
-0.0531815
-0.748588
-0.0756704
-0.77764
-0.099628
-0.81373
-0.125165
-0.857284
-0.152503
-0.906939
-0.181982
-0.962541
-1.02424
-0.213307
-0.00236709
-0.39949
-0.0171065
-0.648525
-0.0374829
-0.70546
-0.0600039
-0.726067
-0.0837871
-0.753857
-0.109049
-0.788468
-0.135928
-0.830406
-0.164678
-0.878189
-0.195597
-0.931621
-0.991463
-0.228374
-0.00434597
-0.395144
-0.0209361
-0.631935
-0.0427903
-0.683606
-0.0665694
-0.702288
-0.091609
-0.728817
-0.118137
-0.76194
-0.146323
-0.80222
-0.176462
-0.84805
-0.208726
-0.899357
-0.957492
-0.242697
-0.00623833
-0.388906
-0.02461
-0.613563
-0.0478773
-0.660339
-0.0728724
-0.677293
-0.0991282
-0.702561
-0.126882
-0.734186
-0.156341
-0.77276
-0.18781
-0.816582
-0.221378
-0.865789
-0.922725
-0.256145
-0.00805046
-0.380856
-0.0281249
-0.593489
-0.0527392
-0.635725
-0.0789076
-0.651125
-0.106337
-0.675132
-0.135276
-0.705248
-0.165966
-0.74207
-0.198666
-0.783881
-0.233084
-0.831371
-0.885763
-0.270046
-0.00978265
-0.371073
-0.0314777
-0.571794
-0.0573726
-0.60983
-0.0846702
-0.623827
-0.11323
-0.646572
-0.143311
-0.675166
-0.175175
-0.710207
-0.208993
-0.750063
-0.244671
-0.795693
-0.847213
-0.283221
-0.0114335
-0.359639
-0.0346652
-0.548562
-0.0617747
-0.58272
-0.0901554
-0.595446
-0.1198
-0.616928
-0.150979
-0.643987
-0.183969
-0.677217
-0.218929
-0.715103
-0.255984
-0.758638
-0.807327
-0.29587
-0.0130011
-0.346638
-0.037685
-0.523878
-0.065943
-0.554462
-0.0953592
-0.56603
-0.12604
-0.586246
-0.158268
-0.611759
-0.192324
-0.643162
-0.22837
-0.679056
-0.266646
-0.720363
-0.766177
-0.307796
-0.0144833
-0.332155
-0.0405344
-0.497827
-0.0698753
-0.525121
-0.100277
-0.535628
-0.131946
-0.554578
-0.165172
-0.578532
-0.200245
-0.608089
-0.23735
-0.641951
-0.276781
-0.680932
-0.723882
-0.319077
-0.0158777
-0.316277
-0.0432114
-0.470493
-0.0735696
-0.494763
-0.104906
-0.504291
-0.13751
-0.521974
-0.171681
-0.544361
-0.207717
-0.572054
-0.245825
-0.603842
-0.286332
-0.640425
-0.680513
-0.3297
-0.0171819
-0.299095
-0.0457142
-0.441961
-0.0770241
-0.463453
-0.109243
-0.472072
-0.142729
-0.488488
-0.17779
-0.5093
-0.214734
-0.53511
-0.253792
-0.564785
-0.295304
-0.598912
-0.636145
-0.339672
-0.018393
-0.280702
-0.0480412
-0.412313
-0.080237
-0.431257
-0.113283
-0.439027
-0.147596
-0.454175
-0.183491
-0.473405
-0.221287
-0.497313
-0.261234
-0.524838
-0.303682
-0.556464
-0.590843
-0.348984
-0.0195069
-0.261196
-0.0501908
-0.381629
-0.0832069
-0.398241
-0.117024
-0.40521
-0.152106
-0.419093
-0.188777
-0.436734
-0.227367
-0.458723
-0.268142
-0.484064
-0.311456
-0.51315
-0.544673
-0.357626
-0.020517
-0.240679
-0.0521612
-0.349985
-0.0859327
-0.36447
-0.120463
-0.370679
-0.156257
-0.383299
-0.193644
-0.399347
-0.232968
-0.4194
-0.274506
-0.442526
-0.318618
-0.469038
-0.497703
-0.365587
-0.0214089
-0.21927
-0.0539513
-0.317442
-0.088414
-0.330007
-0.123597
-0.335496
-0.160042
-0.346854
-0.198085
-0.361305
-0.238081
-0.379404
-0.280318
-0.400288
-0.325156
-0.4242
-0.450002
-0.372857
-0.0222273
-0.197042
-0.0555632
-0.284106
-0.0906505
-0.29492
-0.126425
-0.299721
-0.16346
-0.309819
-0.202096
-0.322669
-0.2427
-0.338799
-0.285571
-0.357418
-0.331064
-0.378707
-0.401643
-0.379423
-0.0229721
-0.17407
-0.0569978
-0.250081
-0.0926413
-0.259276
-0.128944
-0.263419
-0.166506
-0.272257
-0.205671
-0.283504
-0.246821
-0.297649
-0.290256
-0.313983
-0.336332
-0.332631
-0.352697
-0.385277
-0.0236311
-0.150439
-0.0582545
-0.215457
-0.0943857
-0.223145
-0.131152
-0.226653
-0.169178
-0.234231
-0.208808
-0.243873
-0.250436
-0.256021
-0.294369
-0.27005
-0.340953
-0.286048
-0.30324
-0.39041
-0.0241996
-0.12624
-0.0593329
-0.180324
-0.0958827
-0.186595
-0.133047
-0.189488
-0.171472
-0.195806
-0.211503
-0.203842
-0.253543
-0.213982
-0.297902
-0.22569
-0.344922
-0.239028
-0.253349
-0.394813
-0.0246752
-0.101564
-0.0602323
-0.144767
-0.0971314
-0.149696
-0.134629
-0.151991
-0.173388
-0.157047
-0.213753
-0.163476
-0.256137
-0.171599
-0.30085
-0.180976
-0.34823
-0.191648
-0.203098
-0.398481
-0.0250566
-0.0765078
-0.0609523
-0.108871
-0.0981313
-0.112517
-0.135895
-0.114227
-0.174922
-0.11802
-0.215556
-0.122842
-0.258214
-0.12894
-0.303212
-0.135979
-0.350877
-0.143983
-0.152563
-0.401412
-0.0253432
-0.0511646
-0.0614927
-0.0727217
-0.0988816
-0.0751283
-0.136846
-0.076263
-0.176074
-0.078792
-0.216909
-0.0820069
-0.259775
-0.086075
-0.304984
-0.0907704
-0.352861
-0.0961055
-0.10182
-0.403604
-0.0255344
-0.0256301
-0.061853
-0.0364031
-0.0993821
-0.0375992
-0.13748
-0.038165
-0.176843
-0.0394296
-0.217812
-0.0410371
-0.260815
-0.0430719
-0.306165
-0.0454204
-0.354183
-0.0480877
-0.050943
-0.405061
-0.0256301
-1.04334e-09
-0.0620332
-1.37595e-09
-0.0996324
-1.30623e-09
-0.137797
-1.20212e-09
-0.177227
-1.10528e-09
-0.218264
-1.01185e-09
-0.261336
-9.2527e-10
-0.306756
-8.46456e-10
-0.354844
-7.75239e-10
-7.08185e-10
-0.405787
-0.0256301
0.0256301
-0.0620332
0.0364031
-0.0996324
0.0375992
-0.137797
0.038165
-0.177227
0.0394296
-0.218264
0.0410371
-0.261336
0.0430719
-0.306756
0.0454204
-0.354844
0.0480877
0.050943
-0.405787
-0.0255344
0.0511646
-0.061853
0.0727217
-0.0993821
0.0751283
-0.13748
0.076263
-0.176843
0.078792
-0.217812
0.0820069
-0.260815
0.0860749
-0.306165
0.0907704
-0.354183
0.0961055
0.10182
-0.405061
-0.0253432
0.0765078
-0.0614927
0.108871
-0.0988816
0.112517
-0.136846
0.114227
-0.176074
0.11802
-0.216909
0.122842
-0.259775
0.12894
-0.304984
0.135979
-0.352861
0.143983
0.152563
-0.403604
-0.0250566
0.101564
-0.0609523
0.144767
-0.0981313
0.149696
-0.135895
0.151991
-0.174922
0.157047
-0.215556
0.163476
-0.258214
0.171599
-0.303212
0.180976
-0.350877
0.191648
0.203098
-0.401412
-0.0246752
0.12624
-0.0602323
0.180324
-0.0971314
0.186595
-0.134629
0.189488
-0.173388
0.195806
-0.213753
0.203842
-0.256137
0.213982
-0.30085
0.22569
-0.34823
0.239028
0.253349
-0.398481
-0.0241996
0.150439
-0.0593329
0.215457
-0.0958827
0.223145
-0.133047
0.226653
-0.171472
0.234231
-0.211503
0.243873
-0.253543
0.256021
-0.297902
0.27005
-0.344922
0.286048
0.30324
-0.394813
-0.0236311
0.17407
-0.0582545
0.250081
-0.0943857
0.259276
-0.131152
0.263419
-0.169178
0.272257
-0.208808
0.283504
-0.250436
0.297649
-0.294369
0.313983
-0.340953
0.332631
0.352697
-0.39041
-0.0229721
0.197042
-0.0569978
0.284106
-0.0926413
0.29492
-0.128944
0.299721
-0.166506
0.309819
-0.205671
0.322669
-0.246821
0.338799
-0.290256
0.357418
-0.336332
0.378707
0.401643
-0.385277
-0.0222273
0.21927
-0.0555632
0.317442
-0.0906505
0.330007
-0.126425
0.335496
-0.16346
0.346854
-0.202096
0.361305
-0.2427
0.379404
-0.285571
0.400288
-0.331064
0.4242
0.450002
-0.379423
-0.0214089
0.240679
-0.0539513
0.349985
-0.088414
0.36447
-0.123597
0.370679
-0.160042
0.383299
-0.198085
0.399347
-0.238081
0.4194
-0.280318
0.442526
-0.325156
0.469038
0.497703
-0.372857
-0.020517
0.261196
-0.0521612
0.381629
-0.0859327
0.398241
-0.120463
0.40521
-0.156257
0.419093
-0.193644
0.436734
-0.232968
0.458723
-0.274506
0.484064
-0.318618
0.51315
0.544673
-0.365587
-0.0195069
0.280702
-0.0501908
0.412313
-0.0832069
0.431257
-0.117024
0.439027
-0.152106
0.454175
-0.188777
0.473405
-0.227367
0.497313
-0.268142
0.524838
-0.311456
0.556464
0.590843
-0.357626
-0.018393
0.299095
-0.0480412
0.441961
-0.080237
0.463453
-0.113283
0.472072
-0.147596
0.488488
-0.183491
0.5093
-0.221287
0.53511
-0.261234
0.564785
-0.303682
0.598912
0.636145
-0.348984
-0.0171819
0.316277
-0.0457142
0.470493
-0.0770241
0.494763
-0.109243
0.504291
-0.142729
0.521974
-0.17779
0.544361
-0.214734
0.572054
-0.253792
0.603842
-0.295304
0.640425
0.680513
-0.339672
-0.0158777
0.332155
-0.0432114
0.497827
-0.0735696
0.525121
-0.104906
0.535628
-0.13751
0.554578
-0.171681
0.578532
-0.207717
0.608089
-0.245825
0.641951
-0.286332
0.680932
0.723882
-0.3297
-0.0144833
0.346638
-0.0405344
0.523878
-0.0698753
0.554462
-0.100277
0.56603
-0.131946
0.586246
-0.165172
0.611759
-0.200245
0.643162
-0.23735
0.679056
-0.276781
0.720363
0.766177
-0.319077
-0.0130011
0.359639
-0.037685
0.548562
-0.065943
0.58272
-0.0953592
0.595446
-0.12604
0.616928
-0.158268
0.643987
-0.192324
0.677217
-0.22837
0.715103
-0.266646
0.758638
0.807327
-0.307796
-0.0114335
0.371073
-0.0346652
0.571794
-0.0617747
0.60983
-0.0901554
0.623827
-0.1198
0.646572
-0.150979
0.675166
-0.183969
0.710207
-0.218929
0.750063
-0.255984
0.795693
0.847213
-0.29587
-0.00978265
0.380856
-0.0314777
0.593489
-0.0573726
0.635725
-0.0846702
0.651125
-0.11323
0.675132
-0.143311
0.705248
-0.175175
0.74207
-0.208993
0.783881
-0.244671
0.831371
0.885763
-0.283221
-0.00805046
0.388906
-0.0281249
0.613563
-0.0527392
0.660339
-0.0789076
0.677293
-0.106337
0.702561
-0.135276
0.734186
-0.165966
0.77276
-0.198666
0.816582
-0.233084
0.865789
0.922725
-0.270046
-0.00623833
0.395144
-0.02461
0.631935
-0.0478773
0.683606
-0.0728724
0.702288
-0.0991282
0.728817
-0.126882
0.76194
-0.156341
0.80222
-0.18781
0.84805
-0.221378
0.899357
0.957492
-0.256145
-0.00434597
0.39949
-0.0209361
0.648525
-0.0427903
0.70546
-0.0665694
0.726067
-0.091609
0.753857
-0.118137
0.788468
-0.146323
0.830406
-0.176462
0.878189
-0.208726
0.931621
0.991463
-0.242697
-0.00236709
0.401857
-0.0171065
0.663264
-0.0374829
0.725837
-0.0600039
0.748588
-0.0837871
0.77764
-0.109049
0.81373
-0.135928
0.857284
-0.164678
0.906939
-0.195597
0.962541
1.02424
-0.228374
-0.000241845
0.402099
-0.013124
0.676147
-0.0319611
0.744674
-0.0531815
0.769809
-0.0756704
0.800129
-0.099628
0.837688
-0.125165
0.882822
-0.152503
0.934277
-0.181982
0.99202
1.05556
-0.213307
0.00165117
0.400448
-0.00899005
0.686788
-0.0262366
0.761921
-0.0461078
0.78968
-0.0672675
0.821288
-0.0898831
0.860303
-0.114044
0.906982
-0.139945
0.960178
-0.167927
1.02
1.08537
-0.197734
0.00362781
0.39682
-0.00468849
0.695104
-0.0203218
0.777554
-0.0387889
0.808147
-0.0585875
0.841087
-0.0798254
0.881541
-0.102573
0.92973
-0.127002
0.984607
-0.153439
1.04644
1.11362
-0.181687
0.00565659
0.391164
-0.00013581
0.700896
-0.0142267
0.791645
-0.0312294
0.82515
-0.0496402
0.859498
-0.0694658
0.901367
-0.0907646
0.951029
-0.113685
1.00753
-0.138533
1.07129
1.14025
-0.165162
0.00770121
0.383463
0.00419632
0.704401
-0.00796928
0.80381
-0.0234385
0.840619
-0.0404359
0.876495
-0.0588155
0.919746
-0.0786316
0.970845
-0.100007
1.0289
-0.123228
1.09451
1.1652
-0.148184
0.00974326
0.373719
0.00871196
0.705433
-0.00158061
0.814103
-0.0154303
0.854469
-0.0309861
0.892051
-0.0478863
0.936647
-0.066188
0.989147
-0.0859831
1.0487
-0.107541
1.11607
1.18844
-0.130779
0.0117639
0.361955
0.0133195
0.703877
0.00512073
0.822302
-0.00721963
0.866809
-0.0213014
0.906133
-0.0366907
0.952036
-0.0534486
1.0059
-0.0716302
1.06688
-0.0914881
1.13593
1.20992
-0.112971
0.0137382
0.348217
0.0179788
0.699636
0.0119515
0.828329
0.00116439
0.877596
-0.0113991
0.918696
-0.0252427
0.965879
-0.0404285
1.02109
-0.0569665
1.08342
-0.0750862
1.15405
1.22962
-0.0947798
0.0156361
0.332581
0.0226548
0.692618
0.0188822
0.832102
0.00983571
0.886643
-0.00133327
0.929865
-0.013561
0.978107
-0.027144
1.03467
-0.0420133
1.09829
-0.0583542
1.17039
1.24749
-0.0762275
0.0174241
0.315157
0.0273103
0.682732
0.0259022
0.83351
0.0186439
0.893901
0.00910563
0.939404
-0.00169039
0.988903
-0.0136119
1.04659
-0.0267952
1.11147
-0.041308
1.1849
1.26353
-0.0573422
0.0190657
0.296091
0.0319031
0.669894
0.0329838
0.832429
0.0275985
0.899286
0.0196933
0.947309
0.0104975
0.998099
0.000114671
1.05698
-0.0113463
1.12293
-0.0239662
1.19752
1.2777
-0.0381437
0.0205209
0.27557
0.0363849
0.65403
0.0400912
0.828723
0.0366793
0.902698
0.0304381
0.95355
0.0228587
1.00568
0.0141849
1.06565
0.00435234
1.13276
-0.006327
1.2082
1.29005
-0.018677
0.0217471
0.253823
0.0407013
0.635076
0.0471806
0.822244
0.0458596
0.904019
0.0413339
0.958076
0.035387
1.01163
0.0284046
1.07263
0.0203956
1.14077
0.0114346
1.21716
1.30044
0.00104497
0.0227008
0.231123
0.0447921
0.612985
0.0541993
0.812836
0.0551089
0.90311
0.0523625
0.960822
0.0480728
1.01591
0.0427949
1.07791
0.0365767
1.14699
0.0294384
1.2243
1.30863
0.0212502
0.0233412
0.207781
0.0485916
0.587734
0.0610897
0.800338
0.0643907
0.899808
0.0635012
0.961712
0.0608988
1.01852
0.0573374
1.08147
0.0529197
1.15141
0.0476773
1.22954
1.31478
0.04153
0.0236347
0.184147
0.0520295
0.559339
0.067801
0.784567
0.0736616
0.893948
0.0747234
0.96065
0.0738451
1.0194
0.0720134
1.0833
0.0694113
1.15401
0.0660872
1.23286
1.31892
0.0619499
0.02356
0.160587
0.0550321
0.527867
0.0742537
0.765345
0.0828672
0.885334
0.085997
0.95752
0.0868892
1.0185
0.0868032
1.08339
0.0860258
1.15479
0.084624
1.23427
1.32106
0.0824834
0.0231115
0.137475
0.0575276
0.493451
0.0803577
0.742515
0.0919414
0.873751
0.0972824
0.952179
0.100006
1.01578
0.101685
1.08171
0.102737
1.15373
0.103269
1.23373
1.32121
0.103114
0.0223007
0.115174
0.059451
0.456301
0.0860087
0.715957
0.100805
0.858954
0.10853
0.944454
0.113165
1.01115
0.116635
1.07824
0.119523
1.15085
0.122002
1.23125
1.31934
0.123876
0.0211561
0.0940182
0.0606236
0.416834
0.0910885
0.685493
0.109364
0.840679
0.119679
0.934139
0.126329
1.0045
0.131628
1.07294
0.136359
1.14612
0.140795
1.22682
1.31542
0.144717
0.0197209
0.0742973
0.0609572
0.375597
0.095471
0.650979
0.117501
0.818649
0.13065
0.92099
0.139455
0.995691
0.146635
1.06576
0.153221
1.13953
0.159618
1.22042
1.30944
0.165596
0.0180453
0.0562519
0.0603937
0.333249
0.0990179
0.612354
0.125078
0.792589
0.141347
0.90472
0.152485
0.984553
0.16162
1.05663
0.170082
1.13107
0.178444
1.21206
1.3014
0.186478
0.0161822
0.0400698
0.0588927
0.290538
0.101577
0.56967
0.131931
0.762235
0.151649
0.885002
0.165348
0.970855
0.176544
1.04543
0.186911
1.1207
0.197244
1.20173
1.29132
0.20733
0.0141897
0.02588
0.0564532
0.248275
0.102987
0.523136
0.137873
0.727349
0.161409
0.861466
0.177949
0.954314
0.191351
1.03203
0.203672
1.10838
0.215987
1.18941
1.27919
0.228119
0.0121389
0.0137411
0.0531297
0.207284
0.103083
0.473183
0.14269
0.687742
0.170444
0.833713
0.190169
0.934589
0.205972
1.01623
0.220322
1.09403
0.234642
1.17509
1.26502
0.248814
0.0101168
0.0036243
0.0490395
0.168361
0.101713
0.420509
0.146146
0.643309
0.178535
0.801324
0.201848
0.911276
0.220315
0.99776
0.236811
1.07753
0.253174
1.15873
1.24881
0.269381
0.00821907
-0.00459477
0.0443534
0.132227
0.0987497
0.366113
0.147982
0.594076
0.185413
0.763892
0.212783
0.883906
0.234256
0.976287
0.25307
1.05872
0.271537
1.14026
1.23056
0.289787
0.00652648
-0.0111212
0.0392742
0.0994794
0.0941215
0.311266
0.14793
0.540268
0.19076
0.721062
0.222714
0.851952
0.247626
0.951375
0.269003
1.03734
0.289679
1.11959
1.21025
0.30999
0.0050842
-0.0162055
0.0340183
0.0705453
0.087853
0.257431
0.145724
0.482397
0.194206
0.67258
0.231311
0.814848
0.260194
0.922492
0.284473
1.01306
0.307524
1.09654
1.18782
0.329954
0.00389312
-0.0200986
0.0288083
0.0456301
0.0801174
0.206122
0.141136
0.421378
0.19534
0.618377
0.238168
0.77202
0.271656
0.889004
0.299294
0.985423
0.324968
1.07086
1.16318
0.349608
0.00292219
-0.0230208
0.0238628
0.0246895
0.0712697
0.158715
0.134022
0.358626
0.193731
0.558667
0.242798
0.722952
0.281606
0.850197
0.313194
0.953835
0.341866
1.04219
1.13614
0.368902
0.00213113
-0.0251519
0.0193676
0.00745303
0.0618081
0.116274
0.124402
0.296032
0.188969
0.4941
0.244636
0.667285
0.289522
0.805311
0.325808
0.91755
0.35797
1.01003
1.10642
0.387689
0.00148687
-0.0266388
0.015443
-0.00650308
0.0522802
0.0794373
0.11256
0.235752
0.180735
0.425926
0.243061
0.604959
0.294741
0.753631
0.336619
0.875672
0.373006
0.97364
1.07363
0.4058
0.000967767
-0.0276065
0.0121285
-0.0176638
0.0431983
0.0483675
0.0990856
0.179864
0.168904
0.356107
0.237449
0.536413
0.29647
0.694611
0.344962
0.82718
0.386356
0.932246
1.03684
0.423139
0.000559841
-0.0281664
0.00939496
-0.0264989
0.0349706
0.0227918
0.084823
0.130012
0.153692
0.287239
0.227292
0.462813
0.293759
0.628144
0.35
0.770939
0.397494
0.884753
0.995767
0.438569
0.000251753
-0.0284181
0.00717589
-0.0334231
0.0278402
0.00212752
0.0707099
0.0871423
0.13579
0.222159
0.212323
0.386279
0.285718
0.554749
0.350564
0.706093
0.405275
0.830041
0.94742
0.453623
3.31599e-05
-0.0284513
0.00539399
-0.0387839
0.021866
-0.0143445
0.0575722
0.051436
0.116359
0.163372
0.19281
0.309828
0.271474
0.476085
0.345971
0.631596
0.407399
0.768613
0.89169
0.463129
-0.000133578
-0.0283177
0.00397147
-0.0428889
0.0169648
-0.0273378
0.0459587
0.0224421
0.0968184
0.112513
0.169713
0.236933
0.250831
0.394968
0.334038
0.548389
0.40604
0.696611
0.835138
0.462593
-0.000242991
-0.0280747
0.00283362
-0.0459655
0.0129789
-0.0374831
0.0360822
-0.000661194
0.0784908
0.0701042
0.144648
0.170776
0.224491
0.315125
0.313609
0.459271
0.397652
0.612568
0.770225
0.462565
-0.000316222
-0.0277585
0.00190968
-0.0481914
0.0097274
-0.0453008
0.0278756
-0.0188094
0.0622724
0.0357074
0.119481
0.113568
0.194142
0.240463
0.284678
0.368735
0.379202
0.518044
0.694855
0.454572
-0.000373693
-0.0273848
0.00113285
-0.049698
0.00703289
-0.0512009
0.0211016
-0.0328781
0.0484802
0.00832874
0.0957567
0.0662913
0.162261
0.173959
0.248752
0.282245
0.3496
0.417196
0.608456
0.435999
-0.000432423
-0.0269524
0.000442755
-0.0505732
0.00473421
-0.0554923
0.0154514
-0.0435953
0.0369311
-0.013151
0.0743947
0.0288278
0.131425
0.116929
0.208747
0.204922
0.309503
0.31644
0.512373
0.405586
-0.000505032
-0.0264473
-0.000212346
-0.0508658
0.00269415
-0.0583988
0.0106163
-0.0515175
0.0271857
-0.0297203
0.0557844
0.000229007
0.103387
0.0693256
0.168197
0.140113
0.262002
0.222634
0.410682
0.363694
-0.000602339
-0.025845
-0.000874768
-0.0505934
0.000808595
-0.0600822
0.00633485
-0.0570438
0.0187888
-0.0421742
0.0399466
-0.0209288
0.0786917
0.0305805
0.130323
0.0884823
0.212016
0.140941
0.310204
0.312493
-0.000733921
-0.0251111
-0.00156315
-0.0497642
-0.00101973
-0.0606256
0.00241034
-0.0604738
0.0113958
-0.0511597
0.0265788
-0.0361118
0.0571257
3.36864e-05
0.0972571
0.0483509
0.164212
0.0739859
0.218706
0.255711
-0.000899495
-0.0242116
-0.00229059
-0.0483731
-0.00283305
-0.0600831
-0.0012518
-0.0620551
0.00476814
-0.0571797
0.0151692
-0.0465129
0.0383176
-0.0231148
0.0694243
0.0172442
0.121115
0.0222948
0.14199
0.197831
-0.00109663
-0.0231149
-0.00305738
-0.0464123
-0.00463341
-0.0585071
-0.00466961
-0.0620189
-0.0012828
-0.0605665