/*--------------------------------*- C++ -*----------------------------------*\
  =========                 |
  \\      /  F ield         | OpenFOAM: The Open Source CFD Toolbox
   \\    /   O peration     | Website:  https://openfoam.org
    \\  /    A nd           | Version:  7
     \\/     M anipulation  |
\*---------------------------------------------------------------------------*/
FoamFile
{
    version     2.0;
    format      ascii;
    class       volScalarField;
    location    "3.2";
    object      T;
}
// * * * * * * * * * * * * * * * * * * * * * * * * * * * * * * * * * * * * * //

dimensions      [0 0 0 1 0 0 0];

internalField   nonuniform List<scalar> 
64512
(
1
1
1
1
1
1
1
1
1
1
1
1
1
1
1
1
1
1
1
1
1
1
1
1
1
1
1
1
1
1
1
1
1
1
1
1
1
1
1
1
1
1
1
1
1
1
1
1
1
2.23501
2.68185
2.69221
2.69882
2.70494
2.71021
2.71464
2.71823
2.72105
2.72327
2.72518
2.72725
2.73001
2.73396
2.73927
2.74547
2.75162
2.75667
2.75981
2.76107
2.76141
2.76188
2.76342
2.767
2.77249
2.77835
2.78258
2.78433
2.7846
2.78467
2.78532
2.78725
2.79029
2.79348
2.79603
2.79776
2.79905
2.80031
2.80173
2.80324
2.80471
2.8061
2.80754
2.80904
2.81042
2.8114
2.8118
1
1
1
1
1
1
1
1
1
1
1
1
1
1
1
1
1
1
1
1
1
1
1
1
1
1
1
1
1
1
1
1
1
1
1
1
1
1
1
1
1
1
1
1
1
1
1
1
1
2.22917
2.68094
2.69282
2.69899
2.70501
2.71021
2.71459
2.71812
2.72089
2.72307
2.725
2.72711
2.72991
2.73386
2.73915
2.74534
2.75149
2.75656
2.75973
2.76103
2.76138
2.76184
2.76337
2.76694
2.7724
2.77822
2.7824
2.78413
2.78439
2.78447
2.78515
2.78711
2.79015
2.79334
2.79586
2.79758
2.79886
2.80013
2.80154
2.80305
2.80449
2.80587
2.80729
2.80879
2.81017
2.81117
2.81158
1
1
1
1
1
1
1
1
1
1
1
1
1
1
1
1
1
1
1
1
1
1
1
1
1
1
1
1
1
1
1
1
1
1
1
1
1
1
1
1
1
1
1
1
1
1
1
1
1
2.21665
2.68011
2.6934
2.69921
2.7051
2.71019
2.71447
2.71787
2.72049
2.72259
2.72453
2.72672
2.72963
2.73367
2.73902
2.74524
2.7514
2.75646
2.75962
2.7609
2.76124
2.7617
2.76321
2.76678
2.77222
2.77799
2.78211
2.7838
2.78406
2.78416
2.78488
2.78688
2.78994
2.7931
2.79559
2.79727
2.79855
2.79981
2.80124
2.80274
2.80416
2.80551
2.8069
2.8084
2.80979
2.8108
2.81124
1
1
1
1
1
1
1
1
1
1
1
1
1
1
1
1
1
1
1
1
1
1
1
1
1
1
1
1
1
1
1
1
1
1
1
1
1
1
1
1
1
1
1
1
1
1
1
1
1
2.19816
2.67817
2.6939
2.6996
2.70549
2.71041
2.71447
2.71759
2.71993
2.72185
2.72374
2.72601
2.7291
2.73333
2.73882
2.74514
2.75134
2.7564
2.75952
2.76074
2.76103
2.76147
2.76291
2.76644
2.77186
2.7776
2.78168
2.78335
2.78361
2.78374
2.7845
2.78653
2.78959
2.79272
2.79516
2.79681
2.79807
2.79935
2.80078
2.80227
2.80367
2.80498
2.80634
2.80783
2.80922
2.81025
2.81069
1
1
1
1
1
1
1
1
1
1
1
1
1
1
1
1
1
1
1
1
1
1
1
1
1
1
1
1
1
1
1
1
1
1
1
1
1
1
1
1
1
1
1
1
1
1
1
1
1
2.17366
2.67501
2.69408
2.69991
2.70602
2.71078
2.71455
2.71731
2.7193
2.72093
2.72269
2.72502
2.72831
2.73281
2.73855
2.74505
2.75134
2.75639
2.75944
2.76058
2.76078
2.76116
2.76249
2.76592
2.77129
2.77701
2.7811
2.78279
2.78307
2.78322
2.78401
2.78604
2.78907
2.79217
2.79458
2.79621
2.79747
2.79875
2.80019
2.80167
2.80305
2.80433
2.80566
2.80712
2.8085
2.80952
2.80998
1
1
1
1
1
1
1
1
1
1
1
1
1
1
1
1
1
1
1
1
1
1
1
1
1
1
1
1
1
1
1
1
1
1
1
1
1
1
1
1
1
1
1
1
1
1
1
1
1
2.14281
2.67068
2.69386
2.69999
2.70649
2.71118
2.71471
2.71714
2.71876
2.72005
2.72159
2.72388
2.72733
2.73211
2.73817
2.74492
2.75134
2.75639
2.75937
2.76041
2.76049
2.76076
2.76193
2.7652
2.77047
2.7762
2.78036
2.78214
2.78246
2.78262
2.7834
2.78539
2.78837
2.79143
2.79381
2.79544
2.79671
2.798
2.79944
2.80091
2.80227
2.80354
2.80486
2.80629
2.80763
2.80862
2.80906
1
1
1
1
1
1
1
1
1
1
1
1
1
1
1
1
1
1
1
1
1
1
1
1
1
1
1
1
1
1
1
1
1
1
1
1
1
1
1
1
1
1
1
1
1
1
1
1
1
2.10524
2.6651
2.69306
2.69978
2.70682
2.71151
2.71492
2.7171
2.71844
2.71941
2.72065
2.72277
2.72623
2.73123
2.73759
2.74464
2.75125
2.75634
2.75925
2.76019
2.76016
2.76031
2.76128
2.76431
2.76943
2.77517
2.77947
2.78139
2.78177
2.78194
2.78267
2.78457
2.78746
2.79048
2.79287
2.79452
2.79581
2.7971
2.79853
2.79999
2.80134
2.80262
2.80394
2.80533
2.8066
2.80756
2.80797
1
1
1
1
1
1
1
1
1
1
1
1
1
1
1
1
1
1
1
1
1
1
1
1
1
1
1
1
1
1
1
1
1
1
1
1
1
1
1
1
1
1
1
1
1
1
1
1
1
2.05996
2.65857
2.69092
2.6987
2.70671
2.71163
2.71505
2.71713
2.71833
2.71908
2.72002
2.72184
2.72513
2.73014
2.73667
2.74401
2.75087
2.75606
2.75894
2.75982
2.75973
2.75978
2.76052
2.76324
2.76816
2.77389
2.77835
2.78048
2.78096
2.78113
2.78179
2.78355
2.78633
2.7893
2.79171
2.7934
2.79471
2.79601
2.79742
2.79887
2.80023
2.80152
2.80287
2.80424
2.80548
2.80639
2.80677
1
1
1
1
1
1
1
1
1
1
1
1
1
1
1
1
1
1
1
1
1
1
1
1
1
1
1
1
1
1
1
1
1
1
1
1
1
1
1
1
1
1
1
1
1
1
1
1
1
2.00682
2.65074
2.68721
2.69654
2.70572
2.71126
2.71497
2.71711
2.71829
2.71897
2.71968
2.72116
2.72409
2.72885
2.73532
2.74279
2.74992
2.75534
2.75837
2.7593
2.75918
2.75914
2.75966
2.76204
2.7667
2.77237
2.77702
2.7794
2.78002
2.78017
2.78074
2.78234
2.78498
2.7879
2.79034
2.79209
2.79345
2.79475
2.79616
2.7976
2.79896
2.80027
2.80162
2.80298
2.80419
2.80505
2.8054
1
1
1
1
1
1
1
1
1
1
1
1
1
1
1
1
1
1
1
1
1
1
1
1
1
1
1
1
1
1
1
1
1
1
1
1
1
1
1
1
1
1
1
1
1
1
1
1
1
1.94511
2.64169
2.68178
2.69291
2.70342
2.70996
2.71444
2.71696
2.71828
2.71898
2.71955
2.72069
2.72313
2.72738
2.73348
2.74085
2.74819
2.75403
2.75746
2.75862
2.75853
2.7584
2.75875
2.76075
2.76506
2.77062
2.77543
2.7781
2.77888
2.77904
2.77951
2.78094
2.78342
2.78628
2.78875
2.79057
2.79196
2.79328
2.79468
2.79612
2.79748
2.79881
2.80017
2.80152
2.80273
2.80355
2.80386
1
1
1
1
1
1
1
1
1
1
1
1
1
1
1
1
1
1
1
1
1
1
1
1
1
1
1
1
1
1
1
1
1
1
1
1
1
1
1
1
1
1
1
1
1
1
1
1
1
1.87392
2.63086
2.6749
2.68767
2.69946
2.70736
2.71311
2.71651
2.71826
2.71908
2.71958
2.72043
2.7223
2.72582
2.73126
2.73826
2.7457
2.75206
2.75615
2.75778
2.7578
2.75762
2.75783
2.75942
2.76329
2.76864
2.77358
2.77658
2.77758
2.77776
2.77815
2.77941
2.78172
2.78451
2.787
2.78887
2.79031
2.79164
2.79304
2.79448
2.79585
2.79718
2.79853
2.79986
2.80106
2.80186
2.80216
1
1
1
1
1
1
1
1
1
1
1
1
1
1
1
1
1
1
1
1
1
1
1
1
1
1
1
1
1
1
1
1
1
1
1
1
1
1
1
1
1
1
1
1
1
1
1
1
1
1.79345
2.61676
2.66951
2.68213
2.69388
2.70309
2.7103
2.71512
2.71784
2.71908
2.71962
2.7202
2.72149
2.72416
2.7287
2.73508
2.74246
2.74934
2.75426
2.75661
2.75694
2.75671
2.75679
2.75796
2.76133
2.76639
2.77142
2.77478
2.77608
2.77635
2.77669
2.77778
2.77991
2.7826
2.78508
2.78698
2.78845
2.78979
2.79119
2.79263
2.794
2.79533
2.79667
2.79798
2.79918
2.79997
2.80026
1
1
1
1
1
1
1
1
1
1
1
1
1
1
1
1
1
1
1
1
1
1
1
1
1
1
1
1
1
1
1
1
1
1
1
1
1
1
1
1
1
1
1
1
1
1
1
1
1
1.70311
2.59798
2.66798
2.67796
2.68805
2.69758
2.70599
2.71228
2.71635
2.71839
2.71918
2.71958
2.72037
2.72223
2.72581
2.73141
2.73852
2.74579
2.75159
2.75492
2.75582
2.75564
2.75563
2.75642
2.75924
2.76391
2.76896
2.77266
2.77432
2.77473
2.77503
2.77597
2.77791
2.78049
2.78296
2.78489
2.78638
2.78773
2.78914
2.79057
2.79194
2.79328
2.7946
2.7959
2.7971
2.79788
2.79817
1
1
1
1
1
1
1
1
1
1
1
1
1
1
1
1
1
1
1
1
1
1
1
1
1
1
1
1
1
1
1
1
1
1
1
1
1
1
1
1
1
1
1
1
1
1
1
1
1
1.59704
2.56986
2.66995
2.67544
2.68308
2.69171
2.70058
2.70799
2.7134
2.71669
2.71819
2.71874
2.7193
2.72055
2.72322
2.72789
2.73446
2.74187
2.7484
2.75276
2.75442
2.75437
2.75431
2.75477
2.75699
2.7612
2.76619
2.7702
2.77227
2.77288
2.77319
2.77401
2.77577
2.77822
2.78065
2.7826
2.78411
2.78546
2.78685
2.78828
2.78965
2.791
2.79231
2.79358
2.79478
2.79555
2.79584
1
1
1
1
1
1
1
1
1
1
1
1
1
1
1
1
1
1
1
1
1
1
1
1
1
1
1
1
1
1
1
1
1
1
1
1
1
1
1
1
1
1
1
1
1
1
1
1
1
1.47248
2.52797
2.67329
2.67438
2.67968
2.68652
2.69439
2.7021
2.70871
2.71343
2.7161
2.71725
2.71791
2.71887
2.72084
2.72459
2.73041
2.73764
2.74467
2.74995
2.75251
2.75284
2.75277
2.75298
2.75466
2.75835
2.76317
2.76743
2.76992
2.77078
2.77113
2.77185
2.77342
2.77572
2.77811
2.78007
2.78158
2.78293
2.7843
2.78572
2.7871
2.78847
2.78977
2.79102
2.79222
2.79298
2.79328
1
1
1
1
1
1
1
1
1
1
1
1
1
1
1
1
1
1
1
1
1
1
1
1
1
1
1
1
1
1
1
1
1
1
1
1
1
1
1
1
1
1
1
1
1
1
1
1
1
1.33363
2.472
2.67594
2.674
2.67792
2.68264
2.68889
2.69603
2.70312
2.70888
2.71273
2.71486
2.71602
2.71703
2.71861
2.72158
2.72652
2.73325
2.74046
2.74647
2.75002
2.75095
2.75098
2.75105
2.75228
2.75542
2.75999
2.76439
2.76726
2.76842
2.76883
2.76947
2.77087
2.77301
2.77533
2.7773
2.77883
2.78015
2.7815
2.7829
2.78427
2.78566
2.78696
2.78818
2.78937
2.79012
2.79043
1
1
1
1
1
1
1
1
1
1
1
1
1
1
1
1
1
1
1
1
1
1
1
1
1
1
1
1
1
1
1
1
1
1
1
1
1
1
1
1
1
1
1
1
1
1
1
1
1
1.19383
2.40601
2.67673
2.67409
2.67704
2.68027
2.68522
2.69144
2.69802
2.70395
2.70853
2.71161
2.71354
2.71492
2.71645
2.71888
2.72294
2.72887
2.73587
2.7423
2.74678
2.74851
2.74883
2.7489
2.74982
2.75246
2.75669
2.76112
2.7643
2.76576
2.76628
2.76687
2.7681
2.77008
2.77232
2.77426
2.77578
2.77708
2.77838
2.77975
2.78111
2.78252
2.78383
2.78505
2.78624
2.78699
2.7873
1
1
1
1
1
1
1
1
1
1
1
1
1
1
1
1
1
1
1
1
1
1
1
1
1
1
1
1
1
1
1
1
1
1
1
1
1
1
1
1
1
1
1
1
1
1
1
1
1
1.06996
2.34443
2.67682
2.67628
2.67839
2.68156
2.68576
2.69034
2.69503
2.69977
2.7042
2.7079
2.71063
2.71261
2.71435
2.71649
2.7198
2.72475
2.73113
2.7376
2.74276
2.74538
2.74619
2.74641
2.74719
2.74941
2.75324
2.75759
2.76101
2.76279
2.76347
2.76404
2.76514
2.76694
2.76905
2.77095
2.77244
2.77371
2.77496
2.77629
2.77765
2.77905
2.78034
2.78157
2.78275
2.78349
2.78381
1
1
1
1
1
1
1
1
1
1
1
1
1
1
1
1
1
1
1
1
1
1
1
1
1
1
1
1
1
1
1
1
1
1
1
1
1
1
1
1
1
1
1
1
1
1
1
1
1
1.00245
2.26806
2.67892
2.67888
2.68024
2.68288
2.686
2.68947
2.69317
2.69709
2.70106
2.70474
2.70786
2.71033
2.71237
2.71443
2.71714
2.7211
2.72654
2.73264
2.73809
2.74154
2.74298
2.74356
2.74434
2.74625
2.74966
2.75382
2.75738
2.75947
2.76035
2.76096
2.76195
2.76356
2.76552
2.76733
2.76877
2.76998
2.77118
2.77246
2.77378
2.77515
2.77644
2.77769
2.77889
2.77963
2.77997
1
1
1
1
1
1
1
1
1
1
1
1
1
1
1
1
1
1
1
1
1
1
1
1
1
1
1
1
1
1
1
1
1
1
1
1
1
1
1
1
1
1
1
1
1
1
1
1
1
1.00001
2.17324
2.675
2.67951
2.68252
2.6857
2.68822
2.69083
2.69371
2.6968
2.69996
2.70317
2.70618
2.70877
2.71092
2.71286
2.71509
2.71816
2.72249
2.72782
2.73312
2.73714
2.73925
2.74029
2.74119
2.74289
2.74589
2.74977
2.75337
2.75574
2.75689
2.75759
2.75851
2.75995
2.76172
2.7634
2.76477
2.76592
2.76705
2.76825
2.76953
2.77084
2.77209
2.77335
2.77455
2.77529
2.77562
1
1
1
1
1
1
1
1
1
1
1
1
1
1
1
1
1
1
1
1
1
1
1
1
1
1
1
1
1
1
1
1
1
1
1
1
1
1
1
1
1
1
1
1
1
1
1
1
1
1
2.04672
2.65767
2.67897
2.68229
2.68559
2.68851
2.69137
2.69426
2.69713
2.70007
2.70298
2.70569
2.70808
2.71008
2.71188
2.71366
2.71597
2.71926
2.72359
2.7283
2.73247
2.73512
2.73665
2.73774
2.73933
2.74195
2.74547
2.74902
2.75161
2.75304
2.75388
2.75478
2.75605
2.75761
2.75913
2.76039
2.76144
2.76246
2.76357
2.76478
2.76601
2.76721
2.76849
2.76971
2.77047
2.77081
1
1
1
1
1
1
1
1
1
1
1
1
1
1
1
1
1
1
1
1
1
1
1
1
1
1
1
1
1
1
1
1
1
1
1
1
1
1
1
1
1
1
1
1
1
1
1
1
1
1
1.89321
2.62371
2.6732
2.67949
2.68386
2.68734
2.69048
2.69351
2.69646
2.6995
2.7025
2.7053
2.70773
2.70972
2.71136
2.71289
2.71457
2.71689
2.7202
2.72408
2.72796
2.73086
2.73274
2.73404
2.73556
2.73783
2.74095
2.74432
2.74705
2.74876
2.74978
2.75068
2.75182
2.75317
2.75451
2.75562
2.75655
2.75745
2.75845
2.75954
2.76066
2.76179
2.76303
2.76421
2.76494
2.76526
1
1
1
1
1
1
1
1
1
1
1
1
1
1
1
1
1
1
1
1
1
1
1
1
1
1
1
1
1
1
1
1
1
1
1
1
1
1
1
1
1
1
1
1
1
1
1
1
1
1
1.72794
2.57549
2.66314
2.67097
2.67696
2.68185
2.68661
2.69081
2.6946
2.6982
2.70141
2.70429
2.70682
2.70892
2.71063
2.71209
2.71358
2.71535
2.71767
2.72065
2.72389
2.72675
2.72877
2.7302
2.73164
2.73358
2.73627
2.73936
2.74211
2.74403
2.74522
2.74616
2.74719
2.74834
2.74947
2.75042
2.75118
2.75191
2.75272
2.75359
2.75458
2.75565
2.75685
2.75801
2.75874
2.75905
1
1
1
1
1
1
1
1
1
1
1
1
1
1
1
1
1
1
1
1
1
1
1
1
1
1
1
1
1
1
1
1
1
1
1
1
1
1
1
1
1
1
1
1
1
1
1
1
1
1
1.52367
2.50148
2.65009
2.6584
2.66636
2.67266
2.67852
2.68395
2.6893
2.69427
2.69864
2.70231
2.70525
2.70757
2.7094
2.71093
2.71234
2.71387
2.71575
2.71794
2.7205
2.72296
2.72492
2.72638
2.72768
2.72929
2.7315
2.73421
2.73684
2.73886
2.7402
2.74118
2.74211
2.74308
2.74401
2.74476
2.74532
2.74581
2.74637
2.74705
2.74788
2.74881
2.74986
2.75087
2.7515
2.75172
1
1
1
1
1
1
1
1
1
1
1
1
1
1
1
1
1
1
1
1
1
1
1
1
1
1
1
1
1
1
1
1
1
1
1
1
1
1
1
1
1
1
1
1
1
1
1
1
1
1
1.27377
2.41769
2.6495
2.64677
2.65346
2.66059
2.66777
2.67467
2.68122
2.6872
2.69278
2.69768
2.70166
2.70481
2.70726
2.70916
2.71074
2.71223
2.71382
2.7156
2.71749
2.71961
2.72139
2.72266
2.72376
2.72501
2.72672
2.72893
2.7313
2.7333
2.73471
2.73573
2.73657
2.73732
2.73803
2.73855
2.73884
2.73903
2.73926
2.73963
2.74017
2.74087
2.74175
2.74265
2.74322
2.74342
1
1
1
1
1
1
1
1
1
1
1
1
1
1
1
1
1
1
1
1
1
1
1
1
1
1
1
1
1
1
1
1
1
1
1
1
1
1
1
1
1
1
1
1
1
1
1
1
1
1
1.04646
2.33761
2.65316
2.64853
2.65092
2.65451
2.65919
2.66485
2.67133
2.67814
2.68463
2.69051
2.69556
2.69975
2.70316
2.70591
2.70811
2.70996
2.71164
2.71327
2.71487
2.71646
2.71804
2.71918
2.71997
2.72081
2.72197
2.72362
2.72556
2.72738
2.72883
2.72982
2.73046
2.73103
2.73149
2.73172
2.73168
2.73153
2.7314
2.73143
2.73163
2.73201
2.73252
2.73302
2.73327
2.73322
1
1
1
1
1
1
1
1
1
1
1
1
1
1
1
1
1
1
1
1
1
1
1
1
1
1
1
1
1
1
1
1
1
1
1
1
1
1
1
1
1
1
1
1
1
1
1
1
1
1
1.00072
2.23972
2.6502
2.64655
2.64861
2.65157
2.65521
2.65925
2.6639
2.66958
2.67585
2.68186
2.68741
2.69242
2.69686
2.70066
2.70379
2.70637
2.70855
2.71044
2.71211
2.71361
2.71491
2.7158
2.71631
2.71673
2.71734
2.71834
2.71972
2.72124
2.72258
2.72337
2.72384
2.72415
2.7243
2.72421
2.72383
2.72324
2.72261
2.72207
2.72165
2.7214
2.72136
2.72147
2.7215
2.72145
1
1
1
1
1
1
1
1
1
1
1
1
1
1
1
1
1
1
1
1
1
1
1
1
1
1
1
1
1
1
1
1
1
1
1
1
1
1
1
1
1
1
1
1
1
1
1
1
1
1
1
2.09371
2.65345
2.65309
2.65399
2.65529
2.65693
2.65938
2.66227
2.66547
2.66919
2.67368
2.67876
2.68386
2.68883
2.69347
2.69757
2.70107
2.70401
2.7065
2.70862
2.71037
2.71175
2.71256
2.71274
2.71276
2.71285
2.71321
2.71393
2.71501
2.71601
2.7165
2.71669
2.71667
2.71647
2.71599
2.71516
2.71405
2.71279
2.71154
2.71041
2.70946
2.70865
2.70778
2.70681
2.70588
1
1
1
1
1
1
1
1
1
1
1
1
1
1
1
1
1
1
1
1
1
1
1
1
1
1
1
1
1
1
1
1
1
1
1
1
1
1
1
1
1
1
1
1
1
1
1
1
1
1
1
1.90221
2.62094
2.65779
2.65762
2.65879
2.65973
2.66096
2.66237
2.6638
2.66576
2.66844
2.67169
2.67578
2.68043
2.68523
2.68986
2.69409
2.69782
2.70109
2.70391
2.70623
2.70797
2.70895
2.70905
2.7088
2.70845
2.70821
2.70831
2.70877
2.70919
2.70927
2.70909
2.70865
2.70798
2.70701
2.70564
2.70391
2.70188
2.69968
2.69733
2.69481
2.69226
2.68992
2.68791
2.68706
1
1
1
1
1
1
1
1
1
1
1
1
1
1
1
1
1
1
1
1
1
1
1
1
1
1
1
1
1
1
1
1
1
1
1
1
1
1
1
1
1
1
1
1
1
1
1
1
1
1
1
1.66949
2.53894
2.64878
2.65395
2.65853
2.66139
2.66283
2.66348
2.66422
2.66506
2.66607
2.66775
2.67025
2.67345
2.6774
2.68171
2.68606
2.69022
2.69414
2.69771
2.70077
2.70314
2.70458
2.70491
2.70462
2.70401
2.70328
2.70281
2.70265
2.70234
2.70187
2.70114
2.70013
2.69886
2.69728
2.69524
2.69272
2.68968
2.68615
2.68218
2.67794
2.67354
2.66901
2.66345
2.65807
1
1
1
1
1
1
1
1
1
1
1
1
1
1
1
1
1
1
1
1
1
1
1
1
1
1
1
1
1
1
1
1
1
1
1
1
1
1
1
1
1
1
1
1
1
1
1
1
1
1
1
1.355
2.41396
2.64159
2.6438
2.65074
2.65579
2.65963
2.66222
2.66385
2.66486
2.66561
2.66631
2.6673
2.66902
2.67147
2.67456
2.67815
2.68205
2.68614
2.69011
2.69381
2.69695
2.6991
2.69992
2.69978
2.6992
2.69827
2.69732
2.69647
2.69554
2.69438
2.69293
2.69119
2.68918
2.68682
2.68396
2.68045
2.67615
2.67104
2.66501
2.65784
2.64884
2.63764
2.62581
2.61674
1
1
1
1
1
1
1
1
1
1
1
1
1
1
1
1
1
1
1
1
1
1
1
1
1
1
1
1
1
1
1
1
1
1
1
1
1
1
1
1
1
1
1
1
1
1
1
1
1
1
1
1.03862
2.30644
2.63618
2.63213
2.63632
2.64329
2.6511
2.65689
2.66066
2.66303
2.66448
2.66539
2.6661
2.66683
2.66789
2.66951
2.67172
2.67455
2.67802
2.6818
2.68567
2.68934
2.69225
2.69383
2.69412
2.69375
2.69288
2.69168
2.69032
2.68879
2.68691
2.68464
2.68201
2.67906
2.67574
2.67184
2.66714
2.66133
2.65415
2.64515
2.63369
2.61914
2.60136
2.58384
2.5763
1
1
1
1
1
1
1
1
1
1
1
1
1
1
1
1
1
1
1
1
1
1
1
1
1
1
1
1
1
1
1
1
1
1
1
1
1
1
1
1
1
1
1
1
1
1
1
1
1
1
1
1.00032
2.19316
2.62159
2.62003
2.62648
2.63334
2.6407
2.64778
2.65356
2.65803
2.66121
2.6633
2.66454
2.66528
2.66581
2.66634
2.66719
2.66859
2.67077
2.67376
2.67706
2.68069
2.68403
2.68642
2.68742
2.68736
2.68676
2.68558
2.68395
2.68191
2.67938
2.67627
2.67267
2.66863
2.66416
2.65901
2.65287
2.64525
2.63566
2.62333
2.6072
2.58456
2.54945
2.48402
2.3437
1
1
1
1
1
1
1
1
1
1
1
1
1
1
1
1
1
1
1
1
1
1
1
1
1
1
1
1
1
1
1
1
1
1
1
1
1
1
1
1
1
1
1
1
1
1
1
1
1
1
1
0.999997
2.00915
2.6099
2.6246
2.6286
2.63077
2.63405
2.63904
2.64467
2.65017
2.65497
2.65879
2.66142
2.66297
2.66371
2.66393
2.664
2.66426
2.6651
2.66681
2.66901
2.67192
2.67505
2.67781
2.67954
2.68004
2.67974
2.67879
2.67716
2.67483
2.67177
2.66791
2.66332
2.6581
2.65229
2.64567
2.63786
2.6282
2.61591
2.59975
2.57736
2.54447
2.4903
2.40939
2.1987
1
1
1
1
1
1
1
1
1
1
1
1
1
1
1
1
1
1
1
1
1
1
1
1
1
1
1
1
1
1
1
1
1
1
1
1
1
1
1
1
1
1
1
1
1
1
1
1
1
1
1
0.999999
1.75431
2.55408
2.62832
2.62825
2.62996
2.632
2.63399
2.63734
2.64189
2.64694
2.65181
2.65588
2.6588
2.6605
2.66111
2.66103
2.66078
2.66072
2.66117
2.66218
2.66385
2.66609
2.66854
2.67061
2.67166
2.67169
2.67109
2.66964
2.66724
2.66384
2.65937
2.65392
2.64753
2.64031
2.63206
2.62239
2.61053
2.59544
2.57532
2.54766
2.50627
2.44896
2.32917
2.12025
1
1
1
1
1
1
1
1
1
1
1
1
1
1
1
1
1
1
1
1
1
1
1
1
1
1
1
1
1
1
1
1
1
1
1
1
1
1
1
1
1
1
1
1
1
1
1
1
1
1
1
1
1.40786
2.43151
2.62658
2.62484
2.62682
2.62871
2.63059
2.63286
2.63585
2.6397
2.64416
2.64867
2.65258
2.65544
2.65707
2.65752
2.6573
2.65687
2.65663
2.65673
2.65707
2.65803
2.65954
2.66122
2.66243
2.66278
2.66241
2.66122
2.65895
2.65546
2.65062
2.64448
2.63705
2.62844
2.6185
2.60688
2.59272
2.57498
2.55134
2.51954
2.47276
2.40458
2.2778
2.09318
1
1
1
1
1
1
1
1
1
1
1
1
1
1
1
1
1
1
1
1
1
1
1
1
1
1
1
1
1
1
1
1
1
1
1
1
1
1
1
1
1
1
1
1
1
1
1
1
1
1
1
1
1.04985
2.30184
2.62299
2.61829
2.61957
2.62285
2.62637
2.62876
2.63106
2.63375
2.6371
2.64105
2.64506
2.64861
2.65124
2.65268
2.65303
2.65278
2.65237
2.65187
2.65131
2.6511
2.65138
2.65207
2.65284
2.65318
2.65291
2.6519
2.64981
2.64639
2.64141
2.63481
2.62655
2.61675
2.6052
2.5917
2.5753
2.55508
2.52864
2.49315
2.44386
2.3689
2.25213
2.10251
1
1
1
1
1
1
1
1
1
1
1
1
1
1
1
1
1
1
1
1
1
1
1
1
1
1
1
1
1
1
1
1
1
1
1
1
1
1
1
1
1
1
1
1
1
1
1
1
1
1
1
1
1.00054
2.16202
2.60103
2.60356
2.60992
2.61563
2.62052
2.62384
2.6264
2.62868
2.63115
2.63412
2.63753
2.64093
2.64401
2.64631
2.64755
2.6479
2.6477
2.64714
2.64623
2.64518
2.64435
2.64386
2.64365
2.64343
2.64291
2.64182
2.63979
2.63649
2.63155
2.62479
2.61602
2.6053
2.59238
2.57719
2.55877
2.53629
2.50768
2.46984
2.41904
2.34439
2.24442
2.12043
1
1
1
1
1
1
1
1
1
1
1
1
1
1
1
1
1
1
1
1
1
1
1
1
1
1
1
1
1
1
1
1
1
1
1
1
1
1
1
1
1
1
1
1
1
1
1
1
1
1
1
1
0.999995
1.93491
2.57302
2.60456
2.60913
2.61282
2.61586
2.61881
2.62153
2.6238
2.62586
2.62808
2.63073
2.63346
2.63632
2.63888
2.6408
2.64191
2.64219
2.64188
2.64105
2.63969
2.63809
2.63656
2.63522
2.63406
2.63286
2.63135
2.62914
2.62584
2.62098
2.61424
2.60527
2.59396
2.58007
2.5635
2.54344
2.51909
2.48884
2.44987
2.39851
2.32979
2.24317
2.13656
1
1
1
1
1
1
1
1
1
1
1
1
1
1
1
1
1
1
1
1
1
1
1
1
1
1
1
1
1
1
1
1
1
1
1
1
1
1
1
1
1
1
1
1
1
1
1
1
1
1
1
1
0.999999
1.59222
2.48301
2.60368
2.60579
2.60804
2.61038
2.61347
2.61623
2.61863
2.62067
2.62258
2.62465
2.62671
2.62898
2.63125
2.63327
2.63483
2.63569
2.63577
2.63528
2.63406
2.63221
2.63002
2.62774
2.62552
2.62331
2.62097
2.6182
2.61461
2.60968
2.603
2.59408
2.5826
2.56823
2.55071
2.52953
2.50382
2.47244
2.43317
2.38291
2.32039
2.24487
2.15347
1
1
1
1
1
1
1
1
1
1
1
1
1
1
1
1
1
1
1
1
1
1
1
1
1
1
1
1
1
1
1
1
1
1
1
1
1
1
1
1
1
1
1
1
1
1
1
1
1
1
1
1
1
1.16662
2.34928
2.60351
2.59766
2.599
2.60263
2.60676
2.60996
2.61269
2.61498
2.61699
2.61881
2.62054
2.6223
2.62408
2.62576
2.62725
2.62837
2.62885
2.62866
2.6278
2.6261
2.62368
2.6208
2.6177
2.61446
2.61111
2.60746
2.60326
2.59801
2.59125
2.58243
2.57104
2.55662
2.53872
2.51693
2.49045
2.45865
2.41954
2.37134
2.31471
2.24784
2.16902
1
1
1
1
1
1
1
1
1
1
1
1
1
1
1
1
1
1
1
1
1
1
1
1
1
1
1
1
1
1
1
1
1
1
1
1
1
1
1
1
1
1
1
1
1
1
1
1
1
1
1
1
1
1.00702
2.22239
2.5852
2.58417
2.58924
2.59446
2.59924
2.60285
2.60593
2.60858
2.61084
2.61276
2.61448
2.61604
2.61744
2.61866
2.61972
2.62065
2.62123
2.62124
2.62072
2.61936
2.61709
2.61404
2.61043
2.60639
2.60205
2.59735
2.59221
2.58628
2.57917
2.57031
2.5591
2.54496
2.52724
2.50545
2.47885
2.44748
2.40867
2.36289
2.31197
2.25147
2.183
1
1
1
1
1
1
1
1
1
1
1
1
1
1
1
1
1
1
1
1
1
1
1
1
1
1
1
1
1
1
1
1
1
1
1
1
1
1
1
1
1
1
1
1
1
1
1
1
1
1
1
1
1
0.999993
1.98509
2.56006
2.58431
2.58881
2.59186
2.59421
2.59664
2.59929
2.60189
2.60424
2.60635
2.60823
2.60983
2.61112
2.61202
2.6126
2.61305
2.61336
2.61335
2.61299
2.61194
2.60998
2.60705
2.60327
2.59874
2.59363
2.58797
2.58183
2.575
2.56725
2.55808
2.54692
2.53312
2.51591
2.49467
2.46865
2.43826
2.40006
2.35747
2.31121
2.2548
2.19446
1
1
1
1
1
1
1
1
1
1
1
1
1
1
1
1
1
1
1
1
1
1
1
1
1
1
1
1
1
1
1
1
1
1
1
1
1
1
1
1
1
1
1
1
1
1
1
1
1
1
1
1
1
0.999997
1.60967
2.47592
2.5848
2.58714
2.58839
2.58944
2.59119
2.59319
2.59536
2.59748
2.59959
2.60157
2.60331
2.60468
2.60552
2.60576
2.60572
2.6056
2.60535
2.60488
2.60392
2.6022
2.59951
2.59583
2.59117
2.58564
2.57931
2.5723
2.56452
2.55588
2.54609
2.53471
2.52111
2.50451
2.48418
2.45931
2.4301
2.39352
2.35468
2.31104
2.25794
2.2049
1
1
1
1
1
1
1
1
1
1
1
1
1
1
1
1
1
1
1
1
1
1
1
1
1
1
1
1
1
1
1
1
1
1
1
1
1
1
1
1
1
1
1
1
1
1
1
1
1
1
1
1
1
0.999999
1.14647
2.33468
2.58524
2.57997
2.58059
2.58301
2.58554
2.58749
2.58936
2.59109
2.59292
2.59477
2.59652
2.59798
2.59887
2.59895
2.59866
2.59815
2.59752
2.59677
2.59569
2.59402
2.59151
2.588
2.5834
2.57775
2.57105
2.56343
2.55488
2.54542
2.53484
2.52297
2.50929
2.49312
2.47376
2.45021
2.42235
2.3887
2.35301
2.31081
2.26231
2.21513
1
1
1
1
1
1
1
1
1
1
1
1
1
1
1
1
1
1
1
1
1
1
1
1
1
1
1
1
1
1
1
1
1
1
1
1
1
1
1
1
1
1
1
1
1
1
1
1
1
1
1
1
1
1
1.00525
2.19095
2.56381
2.56479
2.57041
2.57523
2.57901
2.58153
2.58355
2.58506
2.58657
2.5881
2.58962
2.59098
2.59189
2.59196
2.5916
2.59088
2.58993
2.58886
2.58753
2.58571
2.58317
2.57973
2.57523
2.56962
2.56287
2.55499
2.54598
2.5359
2.52462
2.5121
2.49804
2.48202
2.4634
2.44104
2.41504
2.38452
2.35091
2.31072
2.26821
2.22451
1
1
1
1
1
1
1
1
1
1
1
1
1
1
1
1
1
1
1
1
1
1
1
1
1
1
1
1
1
1
1
1
1
1
1
1
1
1
1
1
1
1
1
1
1
1
1
1
1
1
1
1
1
1
0.999985
1.91064
2.52963
2.56048
2.56573
2.56969
2.57283
2.5753
2.57742
2.57903
2.58043
2.58167
2.58286
2.58393
2.58469
2.58476
2.58441
2.58362
2.5825
2.58117
2.57957
2.57753
2.57483
2.57132
2.56684
2.5613
2.55461
2.54671
2.53755
2.52713
2.51538
2.50234
2.4878
2.47155
2.45339
2.43213
2.40777
2.37931
2.34835
2.31179
2.27405
2.232
1
1
1
1
1
1
1
1
1
1
1
1
1
1
1
1
1
1
1
1
1
1
1
1
1
1
1
1
1
1
1
1
1
1
1
1
1
1
1
1
1
1
1
1
1
1
1
1
1
1
1
1
1
1
0.999995
1.47385
2.42216
2.56257
2.5618
2.56344
2.56634
2.56895
2.57108
2.57283
2.57428
2.57541
2.57633
2.57706
2.57753
2.57748
2.57707
2.57626
2.57506
2.57359
2.5718
2.56955
2.56664
2.56295
2.55834
2.55277
2.54614
2.53834
2.52928
2.51884
2.50696
2.49366
2.47883
2.46214
2.44417
2.42357
2.40008
2.37419
2.3462
2.3123
2.27716
2.23716
1
1
1
1
1
1
1
1
1
1
1
1
1
1
1
1
1
1
1
1
1
1
1
1
1
1
1
1
1
1
1
1
1
1
1
1
1
1
1
1
1
1
1
1
1
1
1
1
1
1
1
1
1
1
0.999999
1.06091
2.27189
2.56392
2.55697
2.55742
2.55975
2.56235
2.56437
2.56616
2.56772
2.56892
2.56981
2.57033
2.57049
2.57029
2.56974
2.56883
2.56755
2.56598
2.56407
2.56169
2.55864
2.55478
2.55001
2.54433
2.53767
2.52994
2.52102
2.51077
2.49905
2.48579
2.47091
2.45399
2.43607
2.41546
2.39301
2.36988
2.34247
2.31045
2.27875
2.24278
1
1
1
1
1
1
1
1
1
1
1
1
1
1
1
1
1
1
1
1
1
1
1
1
1
1
1
1
1
1
1
1
1
1
1
1
1
1
1
1
1
1
1
1
1
1
1
1
1
1
1
1
1
1
1
1.00074
2.05382
2.52883
2.5436
2.55085
2.55449
2.55672
2.55807
2.55952
2.56092
2.56215
2.56309
2.5636
2.56357
2.56324
2.56253
2.56145
2.56002
2.55832
2.5563
2.55383
2.5507
2.54676
2.54187
2.53606
2.5293
2.52155
2.51272
2.5027
2.4913
2.47835
2.46375
2.44696
2.42905
2.40857
2.38732
2.36478
2.33713
2.30918
2.2806
2.24782
1
1
1
1
1
1
1
1
1
1
1
1
1
1
1
1
1
1
1
1
1
1
1
1
1
1
1
1
1
1
1
1
1
1
1
1
1
1
1
1
1
1
1
1
1
1
1
1
1
1
1
1
1
1
1
0.999995
1.63337
2.44603
2.54588
2.54636
2.5482
2.55078
2.55223
2.55335
2.55441
2.55543
2.5563
2.55682
2.55675
2.55634
2.55549
2.55422
2.55258
2.55067
2.54847
2.5459
2.54273
2.53879
2.53389
2.52804
2.5212
2.51338
2.50455
2.49466
2.48359
2.47105
2.45696
2.44059
2.42307
2.40294
2.38224
2.35928
2.33337
2.30889
2.28098
2.25036
1
1
1
1
1
1
1
1
1
1
1
1
1
1
1
1
1
1
1
1
1
1
1
1
1
1
1
1
1
1
1
1
1
1
1
1
1
1
1
1
1
1
1
1
1
1
1
1
1
1
1
1
1
1
1
0.999999
1.11021
2.29899
2.54478
2.53768
2.53946
2.54243
2.54493
2.54646
2.54759
2.54852
2.54929
2.5498
2.54975
2.54935
2.54846
2.54707
2.54524
2.54308
2.54065
2.53791
2.53468
2.53076
2.52594
2.52017
2.51334
2.50548
2.49662
2.48676
2.47592
2.46373
2.45014
2.43449
2.4177
2.39804
2.37768
2.35532
2.33167
2.3078
2.28028
2.25228
1
1
1
1
1
1
1
1
1
1
1
1
1
1
1
1
1
1
1
1
1
1
1
1
1
1
1
1
1
1
1
1
1
1
1
1
1
1
1
1
1
1
1
1
1
1
1
1
1
1
1
1
1
1
1
1
1.00285
2.11762
2.51475
2.52062
2.52815
2.53425
2.53706
2.53903
2.54053
2.54158
2.5423
2.54274
2.54268
2.54227
2.54136
2.53992
2.53796
2.5356
2.53292
2.52996
2.5266
2.52267
2.51796
2.51233
2.50564
2.49784
2.489
2.47914
2.46844
2.45641
2.44326
2.42846
2.41217
2.39335
2.37431
2.35279
2.32982
2.30553
2.28
2.25461
1
1
1
1
1
1
1
1
1
1
1
1
1
1
1
1
1
1
1
1
1
1
1
1
1
1
1
1
1
1
1
1
1
1
1
1
1
1
1
1
1
1
1
1
1
1
1
1
1
1
1
1
1
1
1
1
0.999984
1.71356
2.45007
2.52304
2.5246
2.52643
2.52931
2.5317
2.53341
2.53458
2.53532
2.53565
2.53552
2.53505
2.53409
2.53264
2.53064
2.52817
2.5253
2.52213
2.5186
2.5146
2.50994
2.50447
2.49796
2.49035
2.48166
2.47187
2.46127
2.44924
2.43647
2.42226
2.40635
2.38917
2.37131
2.35004
2.32773
2.30472
2.28109
2.25673
1
1
1
1
1
1
1
1
1
1
1
1
1
1
1
1
1
1
1
1
1
1
1
1
1
1
1
1
1
1
1
1
1
1
1
1
1
1
1
1
1
1
1
1
1
1
1
1
1
1
1
1
1
1
1
1
0.999996
1.16291
2.30961
2.52496
2.51698
2.51806
2.52025
2.52304
2.52508
2.5267
2.52778
2.52824
2.52811
2.5276
2.52662
2.52516
2.52316
2.52068
2.51772
2.51441
2.51073
2.50661
2.50195
2.49658
2.49026
2.4829
2.47447
2.46486
2.45439
2.44238
2.42988
2.41589
2.40072
2.38513
2.36727
2.34682
2.32666
2.30507
2.28208
2.25766
1
1
1
1
1
1
1
1
1
1
1
1
1
1
1
1
1
1
1
1
1
1
1
1
1
1
1
1
1
1
1
1
1
1
1
1
1
1
1
1
1
1
1
1
1
1
1
1
1
1
1
1
1
1
1
1
0.999999
1.00618
2.13358
2.49977
2.50148
2.50642
2.51185
2.51454
2.51654
2.51841
2.5198
2.52055
2.52047
2.52001
2.51903
2.51757
2.51559
2.51313
2.51017
2.50679
2.50301
2.4988
2.49408
2.48874
2.48254
2.47542
2.46732
2.45796
2.44773
2.4359
2.42359
2.40983
2.39548
2.38031
2.36263
2.3443
2.32586
2.30501
2.2822
2.25857
1
1
1
1
1
1
1
1
1
1
1
1
1
1
1
1
1
1
1
1
1
1
1
1
1
1
1
1
1
1
1
1
1
1
1
1
1
1
1
1
1
1
1
1
1
1
1
1
1
1
1
1
1
1
1
1
1
0.999984
1.70916
2.43525
2.50503
2.50497
2.5053
2.50687
2.50882
2.51041
2.5117
2.5126
2.51262
2.51223
2.5113
2.50987
2.50792
2.50549
2.50255
2.49918
2.49536
2.4911
2.48634
2.48098
2.47483
2.46793
2.46012
2.45104
2.44113
2.42968
2.41768
2.40423
2.39027
2.37506
2.35856
2.3421
2.32409
2.30347
2.2819
2.26065
1
1
1
1
1
1
1
1
1
1
1
1
1
1
1
1
1
1
1
1
1
1
1
1
1
1
1
1
1
1
1
1
1
1
1
1
1
1
1
1
1
1
1
1
1
1
1
1
1
1
1
1
1
1
1
1
1
0.999995
1.13786
2.29233
2.50924
2.49971
2.49891
2.49952
2.50119
2.50212
2.50313
2.5041
2.50442
2.50415
2.50339
2.50209
2.50022
2.49784
2.49494
2.49159
2.48777
2.48348
2.47874
2.47333
2.46721
2.46049
2.45282
2.44405
2.43451
2.42365
2.41203
2.3989
2.38519
2.37048
2.35521
2.33903
2.32098
2.30173
2.28235
2.26281
1
1
1
1
1
1
1
1
1
1
1
1
1
1
1
1
1
1
1
1
1
1
1
1
1
1
1
1
1
1
1
1
1
1
1
1
1
1
1
1
1
1
1
1
1
1
1
1
1
1
1
1
1
1
1
1
1
0.999999
1.00439
2.09374
2.47911
2.48258
2.48759
2.49293
2.49453
2.49458
2.49507
2.49578
2.49615
2.49597
2.49536
2.4942
2.49246
2.49015
2.4873
2.484
2.48019
2.47593
2.47118
2.46576
2.4597
2.45308
2.44552
2.4371
2.42788
2.41764
2.40631
2.39364
2.38052
2.36654
2.35149
2.3351
2.3182
2.30078
2.28257
2.26317
1
1
1
1
1
1
1
1
1
1
1
1
1
1
1
1
1
1
1
1
1
1
1
1
1
1
1
1
1
1
1
1
1
1
1
1
1
1
1
1
1
1
1
1
1
1
1
1
1
1
1
1
1
1
1
1
1
1
0.999983
1.6237
2.39803
2.48559
2.48684
2.48863
2.48785
2.48778
2.48792
2.4881
2.48814
2.48793
2.48734
2.48627
2.48464
2.48245
2.47969
2.47643
2.47266
2.46844
2.46368
2.4583
2.45231
2.44573
2.43836
2.4302
2.42127
2.41148
2.40048
2.38856
2.37615
2.36258
2.34756
2.33182
2.31623
2.29963
2.28176
2.26247
1
1
1
1
1
1
1
1
1
1
1
1
1
1
1
1
1
1
1
1
1
1
1
1
1
1
1
1
1
1
1
1
1
1
1
1
1
1
1
1
1
1
1
1
1
1
1
1
1
1
1
1
1
1
1
1
1
1
0.999995
1.10391
2.24487
2.48753
2.48151
2.47966
2.47992
2.48048
2.4807
2.48056
2.48033
2.47994
2.47929
2.47825
2.47671
2.47464
2.47201
2.46885
2.46517
2.46101
2.45627
2.45095
2.44504
2.43851
2.43131
2.42334
2.41468
2.40518
2.39463
2.38352
2.37163
2.35834
2.34393
2.32933
2.31417
2.29749
2.27971
2.26162
1
1
1
1
1
1
1
1
1
1
1
1
1
1
1
1
1
1
1
1
1
1
1
1
1
1
1
1
1
1
1
1
1
1
1
1
1
1
1
1
1
1
1
1
1
1
1
1
1
1
1
1
1
1
1
1
1
1
0.999999
1.00227
1.97143
2.44898
2.46329
2.46947
2.47215
2.47395
2.47418
2.4739
2.47337
2.47265
2.47172
2.47048
2.46888
2.46684
2.46431
2.46127
2.45771
2.45363
2.44897
2.44372
2.43788
2.43144
2.42435
2.41655
2.40814
2.3989
2.38885
2.37835
2.36685
2.35411
2.34069
2.32676
2.31158
2.29514
2.27832
2.26165
1
1
1
1
1
1
1
1
1
1
1
1
1
1
1
1
1
1
1
1
1
1
1
1
1
1
1
1
1
1
1
1
1
1
1
1
1
1
1
1
1
1
1
1
1
1
1
1
1
1
1
1
1
1
1
1
1
1
1
0.999993
1.40401
2.33636
2.4674
2.46437
2.46523
2.46632
2.46691
2.46686
2.4664
2.46553
2.46436
2.46291
2.46118
2.4591
2.45663
2.45369
2.45025
2.44629
2.44176
2.43661
2.43084
2.4245
2.4175
2.40985
2.40166
2.39271
2.38313
2.37299
2.36188
2.34988
2.33728
2.32356
2.30864
2.29334
2.27772
2.2618
1
1
1
1
1
1
1
1
1
1
1
1
1
1
1
1
1
1
1
1
1
1
1
1
1
1
1
1
1
1
1
1
1
1
1
1
1
1
1
1
1
1
1
1
1
1
1
1
1
1
1
1
1
1
1
1
1
1
1
0.999998
1.03907
2.17463
2.45368
2.45349
2.45491
2.45613
2.45777
2.45889
2.45872
2.45804
2.4569
2.4554
2.4536
2.4515
2.44905
2.44618
2.44284
2.43901
2.43461
2.4296
2.42395
2.41772
2.41083
2.40331
2.3953
2.38666
2.37742
2.36756
2.35686
2.34549
2.33335
2.31991
2.30597
2.29184
2.27702
2.26139
1
1
1
1
1
1
1
1
1
1
1
1
1
1
1
1
1
1
1
1
1
1
1
1
1
1
1
1
1
1
1
1
1
1
1
1
1
1
1
1
1
1
1
1
1
1
1
1
1
1
1
1
1
1
1
1
1
1
1
1
1.00024
1.75349
2.39362
2.44368
2.44723
2.4485
2.4505
2.45137
2.45122
2.45061
2.44955
2.44808
2.44628
2.44416
2.44171
2.43884
2.43553
2.43175
2.42746
2.4226
2.41712
2.41105
2.4043
2.39693
2.3891
2.38069
2.37168
2.36209
2.35181
2.34083
2.32893
2.31621
2.30337
2.28999
2.27557
2.26019
1
1
1
1
1
1
1
1