/*--------------------------------*- C++ -*----------------------------------*\
  =========                 |
  \\      /  F ield         | OpenFOAM: The Open Source CFD Toolbox
   \\    /   O peration     | Website:  https://openfoam.org
    \\  /    A nd           | Version:  9
     \\/     M anipulation  |
\*---------------------------------------------------------------------------*/
FoamFile
{
    format      ascii;
    class       volScalarField;
    location    "56";
    object      p;
}
// * * * * * * * * * * * * * * * * * * * * * * * * * * * * * * * * * * * * * //

dimensions      [0 2 -2 0 0 0 0];

internalField   nonuniform List<scalar> 
8500
(
-0.275888
-0.2801
-0.280936
-0.282683
-0.284766
-0.285012
-0.288762
-0.285138
-0.291304
-0.28399
-0.276152
-0.280303
-0.281133
-0.282848
-0.284964
-0.285106
-0.289058
-0.285072
-0.291715
-0.283875
-0.276674
-0.280705
-0.28152
-0.283172
-0.285352
-0.285283
-0.289643
-0.284926
-0.292534
-0.283645
-0.277441
-0.281294
-0.282085
-0.283638
-0.285914
-0.285523
-0.290495
-0.284669
-0.29375
-0.283297
-0.278434
-0.282054
-0.282809
-0.284225
-0.286623
-0.2858
-0.291582
-0.284265
-0.295338
-0.282826
-0.279631
-0.282969
-0.28367
-0.284906
-0.287446
-0.286088
-0.292848
-0.283679
-0.29726
-0.282215
-0.281005
-0.284015
-0.284642
-0.285652
-0.288337
-0.286365
-0.294219
-0.28288
-0.299458
-0.281405
-0.282529
-0.285172
-0.285697
-0.286435
-0.289247
-0.286615
-0.2956
-0.281858
-0.301842
-0.280386
-0.284179
-0.286419
-0.286805
-0.287228
-0.290117
-0.286836
-0.296875
-0.280684
-0.303973
-0.279366
-0.285931
-0.287736
-0.28794
-0.288011
-0.290891
-0.287042
-0.297825
-0.279588
-0.305773
-0.277971
-0.287764
-0.289107
-0.289077
-0.288769
-0.29151
-0.28732
-0.298318
-0.278467
-0.307202
-0.276355
-0.289668
-0.290523
-0.290197
-0.289492
-0.291871
-0.287716
-0.298366
-0.27739
-0.307852
-0.274995
-0.291635
-0.291975
-0.291288
-0.290197
-0.291997
-0.2881
-0.297968
-0.276677
-0.307178
-0.274446
-0.293669
-0.293466
-0.292342
-0.290864
-0.291943
-0.288419
-0.297059
-0.276492
-0.304785
-0.274738
-0.295781
-0.295001
-0.293372
-0.291472
-0.291755
-0.288654
-0.295701
-0.276756
-0.300654
-0.275071
-0.297998
-0.296587
-0.294415
-0.292027
-0.291484
-0.288611
-0.294019
-0.277104
-0.295281
-0.274349
-0.300352
-0.298246
-0.295499
-0.292559
-0.291206
-0.288253
-0.292101
-0.277147
-0.289311
-0.272049
-0.302884
-0.300009
-0.296658
-0.29311
-0.290982
-0.287599
-0.289917
-0.27669
-0.283003
-0.268185
-0.305644
-0.301912
-0.297938
-0.293714
-0.290816
-0.286759
-0.287374
-0.275661
-0.276287
-0.263177
-0.308687
-0.303994
-0.299388
-0.294399
-0.290669
-0.285854
-0.284451
-0.27392
-0.269207
-0.257805
-0.312068
-0.306306
-0.30106
-0.295164
-0.290515
-0.284923
-0.281222
-0.27124
-0.262381
-0.252557
-0.315831
-0.308916
-0.302991
-0.295994
-0.290387
-0.283906
-0.277769
-0.267566
-0.256253
-0.24604
-0.320051
-0.311877
-0.305189
-0.296899
-0.290341
-0.282683
-0.274123
-0.263164
-0.250103
-0.239303
-0.324793
-0.315251
-0.307615
-0.29796
-0.290372
-0.281146
-0.270284
-0.258169
-0.243952
-0.23252
-0.330116
-0.319093
-0.310219
-0.299309
-0.290391
-0.279235
-0.266206
-0.252783
-0.237685
-0.225646
-0.33609
-0.323414
-0.313003
-0.301019
-0.290277
-0.276923
-0.261867
-0.247097
-0.231281
-0.218748
-0.342788
-0.328165
-0.316081
-0.303015
-0.289928
-0.274206
-0.25725
-0.241173
-0.224739
-0.211759
-0.350282
-0.333249
-0.319655
-0.305096
-0.289267
-0.271088
-0.252347
-0.235036
-0.218045
-0.204677
-0.358611
-0.338564
-0.32391
-0.307044
-0.288225
-0.267573
-0.247149
-0.228687
-0.211196
-0.197463
-0.367754
-0.344047
-0.328888
-0.308706
-0.28673
-0.263654
-0.241644
-0.222115
-0.204171
-0.190097
-0.377592
-0.349711
-0.334411
-0.309985
-0.284722
-0.259313
-0.235817
-0.215304
-0.196955
-0.182552
-0.387902
-0.355634
-0.340092
-0.310805
-0.282145
-0.254521
-0.229643
-0.208231
-0.189522
-0.174806
-0.398351
-0.361912
-0.345444
-0.311075
-0.278957
-0.24924
-0.223095
-0.200871
-0.181851
-0.16684
-0.408622
-0.368609
-0.350006
-0.310681
-0.275117
-0.243435
-0.216141
-0.193198
-0.173917
-0.158633
-0.418409
-0.375689
-0.353426
-0.309492
-0.270585
-0.237069
-0.208748
-0.185183
-0.165702
-0.150168
-0.427458
-0.38298
-0.355484
-0.307371
-0.265313
-0.230111
-0.200884
-0.176799
-0.157182
-0.141429
-0.435563
-0.390159
-0.356075
-0.304192
-0.259252
-0.222526
-0.192518
-0.16802
-0.148338
-0.132403
-0.442566
-0.396769
-0.355185
-0.299855
-0.252348
-0.214282
-0.183623
-0.158823
-0.139152
-0.123083
-0.448338
-0.402285
-0.352843
-0.294292
-0.244546
-0.205344
-0.174172
-0.149188
-0.129608
-0.113479
-0.452771
-0.40623
-0.349028
-0.287453
-0.235799
-0.19568
-0.164143
-0.139097
-0.119695
-0.103616
-0.455765
-0.408269
-0.343622
-0.279295
-0.226064
-0.185261
-0.153516
-0.128534
-0.109401
-0.0935105
-0.457211
-0.408123
-0.336529
-0.269773
-0.215307
-0.174061
-0.142278
-0.117483
-0.0987178
-0.0831411
-0.45698
-0.405591
-0.32769
-0.258848
-0.203498
-0.162063
-0.130414
-0.105933
-0.087655
-0.0724466
-0.454914
-0.400536
-0.317059
-0.246497
-0.190619
-0.149251
-0.11791
-0.0938735
-0.0762551
-0.0613469
-0.450827
-0.392868
-0.304586
-0.232719
-0.176657
-0.135611
-0.104756
-0.0813079
-0.0645647
-0.0498189
-0.444512
-0.382528
-0.290233
-0.217517
-0.161599
-0.121138
-0.0909575
-0.0682745
-0.0525589
-0.0379947
-0.435752
-0.369481
-0.273979
-0.200892
-0.145429
-0.105855
-0.076555
-0.0548545
-0.0401254
-0.0259668
-0.424337
-0.353711
-0.255816
-0.18284
-0.128154
-0.0898262
-0.0616117
-0.0410262
-0.0272726
-0.0137412
-0.410073
-0.335216
-0.235738
-0.163382
-0.109861
-0.0731088
-0.0460856
-0.0267991
-0.0140466
-0.00132464
-0.3928
-0.314015
-0.213735
-0.142607
-0.0907014
-0.0556043
-0.0300178
-0.0121869
-0.000495301
0.0112695
-0.3724
-0.290166
-0.189805
-0.120665
-0.0706149
-0.0373682
-0.0134485
0.00278617
0.0133383
0.0240145
-0.348807
-0.263796
-0.164032
-0.0975292
-0.049646
-0.0184599
0.00357879
0.0180875
0.027413
0.0368738
-0.322009
-0.235073
-0.136605
-0.0731153
-0.0278531
0.0010543
0.0210162
0.0336774
0.0416887
0.0498032
-0.292053
-0.20403
-0.107659
-0.0475398
-0.0053035
0.0211043
0.0388094
0.0495118
0.0561292
0.0627581
-0.25906
-0.170401
-0.0775905
-0.0209465
0.0179286
0.041615
0.056898
0.0655455
0.070703
0.0756948
-0.223205
-0.134495
-0.0463463
0.00651463
0.0417566
0.0625066
0.075217
0.081737
0.085378
0.0885429
-0.184587
-0.0967175
-0.0139789
0.0346973
0.0660804
0.0836939
0.0937012
0.0980522
0.100099
0.101129
-0.143174
-0.0577029
0.0193821
0.0634589
0.090789
0.105087
0.112289
0.114458
0.114753
0.113116
-0.0994498
-0.0176102
0.0535571
0.0926566
0.115763
0.126594
0.130918
0.130894
0.129165
0.124216
-0.0537738
0.0233696
0.088342
0.122141
0.140877
0.148118
0.149522
0.147252
0.143173
0.134747
-0.00652523
0.0649993
0.123517
0.151757
0.165999
0.169563
0.168016
0.163389
0.156725
0.146024
0.0418937
0.107015
0.158853
0.181338
0.190997
0.190827
0.186303
0.179195
0.170022
0.157832
0.0910641
0.149136
0.194116
0.210717
0.215735
0.211806
0.204287
0.194638
0.183112
0.169682
0.140555
0.191069
0.229068
0.239718
0.240074
0.23239
0.221874
0.209671
0.195942
0.181398
0.189929
0.232516
0.263472
0.268165
0.263876
0.25247
0.238974
0.224247
0.208438
0.192798
0.238745
0.273175
0.29709
0.295883
0.287004
0.271935
0.255503
0.23831
0.220535
0.203787
0.286568
0.312748
0.329692
0.322695
0.30932
0.290676
0.271375
0.251796
0.232163
0.214284
0.332967
0.350942
0.36105
0.348429
0.330691
0.308587
0.28651
0.264643
0.243259
0.224231
0.377523
0.387478
0.390946
0.372918
0.350986
0.325565
0.300828
0.276787
0.253763
0.233579
0.419825
0.422096
0.419171
0.396
0.37008
0.341511
0.314252
0.288167
0.263618
0.242284
0.4595
0.454537
0.445528
0.41752
0.387853
0.356331
0.32671
0.298723
0.272768
0.250308
0.496247
0.484515
0.469826
0.437333
0.404192
0.369937
0.338132
0.308401
0.281161
0.257617
0.52977
0.511772
0.491891
0.455302
0.418994
0.382248
0.348456
0.317148
0.288751
0.264181
0.559779
0.536092
0.511562
0.471305
0.432164
0.393189
0.357623
0.324916
0.295494
0.269973
0.586009
0.55729
0.528697
0.485231
0.443616
0.402695
0.365582
0.331659
0.30135
0.274972
0.608232
0.575204
0.54317
0.496985
0.453277
0.410707
0.372285
0.337341
0.306284
0.27916
0.626249
0.5897
0.554877
0.506487
0.461082
0.417176
0.377696
0.341926
0.310267
0.282524
0.639904
0.600668
0.563733
0.513672
0.466981
0.422063
0.381782
0.34539
0.313275
0.285054
0.649074
0.608026
0.569672
0.518489
0.470935
0.425338
0.384519
0.34771
0.315291
0.286742
0.653679
0.611719
0.572653
0.520905
0.472919
0.426981
0.385892
0.348874
0.316303
0.287587
0.653679
0.611719
0.572653
0.520905
0.472919
0.426981
0.385892
0.348874
0.316303
0.287587
0.649074
0.608026
0.569672
0.518488
0.470935
0.425338
0.384519
0.34771
0.315291
0.286742
0.639903
0.600668
0.563732
0.513671
0.466981
0.422063
0.381782
0.345389
0.313275
0.285054
0.626249
0.589699
0.554877
0.506487
0.461081
0.417176
0.377696
0.341926
0.310267
0.282524
0.608231
0.575203
0.543169
0.496985
0.453276
0.410706
0.372285
0.33734
0.306284
0.27916
0.586008
0.557289
0.528696
0.48523
0.443616
0.402694
0.365581
0.331659
0.301349
0.274972
0.559777
0.536091
0.511561
0.471304
0.432164
0.393189
0.357623
0.324915
0.295494
0.269973
0.529768
0.511771
0.49189
0.455301
0.418994
0.382247
0.348455
0.317148
0.288751
0.26418
0.496245
0.484514
0.469825
0.437332
0.404191
0.369937
0.338132
0.308401
0.281161
0.257616
0.459498
0.454536
0.445526
0.417519
0.387852
0.35633
0.326709
0.298723
0.272767
0.250307
0.419823
0.422094
0.41917
0.395999
0.370079
0.34151
0.314251
0.288166
0.263617
0.242283
0.37752
0.387477
0.390944
0.372917
0.350985
0.325564
0.300827
0.276786
0.253763
0.233578
0.332965
0.35094
0.361048
0.348427
0.33069
0.308586
0.286509
0.264642
0.243258
0.224231
0.286565
0.312746
0.32969
0.322693
0.309319
0.290675
0.271374
0.251795
0.232162
0.214283
0.238742
0.273173
0.297088
0.295881
0.287003
0.271933
0.255501
0.238309
0.220534
0.203786
0.189926
0.232513
0.26347
0.268164
0.263875
0.252469
0.238973
0.224246
0.208437
0.192797
0.140552
0.191067
0.229066
0.239716
0.240072
0.232389
0.221872
0.209669
0.195941
0.181397
0.0910608
0.149133
0.194114
0.210715
0.215733
0.211804
0.204286
0.194636
0.183111
0.169681
0.0418903
0.107013
0.158851
0.181336
0.190996
0.190825
0.186301
0.179194
0.17002
0.157831
-0.00652871
0.0649965
0.123515
0.151755
0.165998
0.169561
0.168015
0.163387
0.156723
0.146023
-0.0537774
0.0233666
0.0883395
0.122139
0.140875
0.148116
0.149521
0.14725
0.143172
0.134745
-0.0994535
-0.0176132
0.0535546
0.0926545
0.115761
0.126592
0.130917
0.130893
0.129164
0.124215
-0.143178
-0.057706
0.0193795
0.0634567
0.0907871
0.105085
0.112287
0.114456
0.114751
0.113115
-0.184591
-0.0967207
-0.0139815
0.034695
0.0660784
0.0836921
0.0936995
0.0980507
0.100097
0.101127
-0.223208
-0.134498
-0.046349
0.00651229
0.0417545
0.0625047
0.0752152
0.0817354
0.0853765
0.0885414
-0.259064
-0.170405
-0.0775932
-0.0209489
0.0179265
0.0416131
0.0568962
0.0655438
0.0707014
0.0756933
-0.292057
-0.204033
-0.107662
-0.0475422
-0.00530568
0.0211023
0.0388075
0.0495101
0.0561275
0.0627565
-0.322013
-0.235077
-0.136608
-0.0731178
-0.0278554
0.00105224
0.0210142
0.0336755
0.041687
0.0498016
-0.348811
-0.263799
-0.164035
-0.0975318
-0.0496483
-0.018462
0.0035768
0.0180856
0.0274111
0.0368721
-0.372404
-0.290169
-0.189808
-0.120667
-0.0706172
-0.0373704
-0.0134505
0.00278422
0.0133364
0.0240128
-0.392803
-0.314019
-0.213737
-0.142609
-0.0907038
-0.0556066
-0.03002
-0.0121889
-0.000497261
0.0112677
-0.410077
-0.33522
-0.235741
-0.163385
-0.109863
-0.0731111
-0.0460878
-0.0268012
-0.0140486
-0.00132656
-0.424341
-0.353714
-0.255819
-0.182842
-0.128157
-0.0898286
-0.061614
-0.0410283
-0.0272747
-0.0137432
-0.435756
-0.369485
-0.273982
-0.200894
-0.145431
-0.105858
-0.0765573
-0.0548567
-0.0401276
-0.0259689
-0.444515
-0.382531
-0.290236
-0.21752
-0.161601
-0.12114
-0.0909599
-0.0682769
-0.0525612
-0.0379969
-0.45083
-0.392871
-0.304589
-0.232721
-0.17666
-0.135613
-0.104758
-0.0813103
-0.0645671
-0.0498212
-0.454917
-0.400539
-0.317062
-0.2465
-0.190622
-0.149253
-0.117912
-0.093876
-0.0762577
-0.0613494
-0.456983
-0.405594
-0.327693
-0.258851
-0.203501
-0.162066
-0.130416
-0.105935
-0.0876577
-0.0724492
-0.457214
-0.408126
-0.336532
-0.269776
-0.215309
-0.174064
-0.142281
-0.117485
-0.0987206
-0.0831438
-0.455768
-0.408272
-0.343624
-0.279298
-0.226067
-0.185264
-0.153519
-0.128536
-0.109404
-0.0935135
-0.452774
-0.406233
-0.349031
-0.287456
-0.235802
-0.195683
-0.164145
-0.1391
-0.119698
-0.103619
-0.448341
-0.402288
-0.352845
-0.294294
-0.244549
-0.205347
-0.174175
-0.149192
-0.129612
-0.113482
-0.442569
-0.396771
-0.355188
-0.299858
-0.25235
-0.214285
-0.183626
-0.158826
-0.139155
-0.123087
-0.435566
-0.390161
-0.356077
-0.304194
-0.259255
-0.222529
-0.192522
-0.168023
-0.148342
-0.132407
-0.42746
-0.382982
-0.355486
-0.307373
-0.265316
-0.230114
-0.200888
-0.176803
-0.157186
-0.141433
-0.418412
-0.375691
-0.353428
-0.309494
-0.270587
-0.237072
-0.208752
-0.185187
-0.165706
-0.150172
-0.408624
-0.368611
-0.350008
-0.310683
-0.27512
-0.243438
-0.216145
-0.193203
-0.173922
-0.158637
-0.398353
-0.361914
-0.345446
-0.311077
-0.278959
-0.249243
-0.223099
-0.200876
-0.181855
-0.166845
-0.387903
-0.355635
-0.340094
-0.310807
-0.282148
-0.254524
-0.229647
-0.208235
-0.189527
-0.174812
-0.377594
-0.349713
-0.334413
-0.309987
-0.284724
-0.259317
-0.235821
-0.215309
-0.196961
-0.182558
-0.367755
-0.344048
-0.32889
-0.308708
-0.286733
-0.263658
-0.241648
-0.222121
-0.204178
-0.190104
-0.358613
-0.338565
-0.323911
-0.307045
-0.288227
-0.267576
-0.247153
-0.228693
-0.211202
-0.19747
-0.350283
-0.333251
-0.319656
-0.305097
-0.289269
-0.271091
-0.252351
-0.235042
-0.218052
-0.204685
-0.34279
-0.328166
-0.316082
-0.303016
-0.289929
-0.274209
-0.257255
-0.24118
-0.224747
-0.211768
-0.336092
-0.323415
-0.313004
-0.30102
-0.290278
-0.276926
-0.261872
-0.247104
-0.231289
-0.218758
-0.330117
-0.319094
-0.31022
-0.299309
-0.290392
-0.279238
-0.266211
-0.25279
-0.237695
-0.225657
-0.324794
-0.315252
-0.307616
-0.297961
-0.290373
-0.281148
-0.270289
-0.258177
-0.243962
-0.232532
-0.320053
-0.311877
-0.305189
-0.296899
-0.290342
-0.282686
-0.274128
-0.263172
-0.250115
-0.239317
-0.315832
-0.308917
-0.302992
-0.295994
-0.290388
-0.283909
-0.277774
-0.267575
-0.256266
-0.246056
-0.312069
-0.306307
-0.30106
-0.295164
-0.290516
-0.284926
-0.281227
-0.271249
-0.262394
-0.252575
-0.308688
-0.303995
-0.299389
-0.294399
-0.29067
-0.285856
-0.284457
-0.273931
-0.269221
-0.257826
-0.305646
-0.301913
-0.297939
-0.293714
-0.290816
-0.286761
-0.28738
-0.275672
-0.276303
-0.2632
-0.302886
-0.300011
-0.296659
-0.29311
-0.290982
-0.287601
-0.289922
-0.276702
-0.28302
-0.26821
-0.300354
-0.298248
-0.2955
-0.29256
-0.291207
-0.288256
-0.292107
-0.277159
-0.289329
-0.272076
-0.298
-0.296589
-0.294416
-0.292027
-0.291485
-0.288614
-0.294025
-0.277116
-0.295299
-0.274378
-0.295784
-0.295002
-0.293374
-0.291473
-0.291756
-0.288657
-0.295708
-0.276769
-0.300673
-0.275102
-0.293672
-0.293468
-0.292344
-0.290865
-0.291945
-0.288423
-0.297066
-0.276505
-0.304805
-0.27477
-0.291638
-0.291977
-0.29129
-0.290199
-0.292
-0.288104
-0.297976
-0.276691
-0.307199
-0.274478
-0.289671
-0.290525
-0.290199
-0.289493
-0.291874
-0.28772
-0.298375
-0.277404
-0.307874
-0.275027
-0.287768
-0.28911
-0.289079
-0.288771
-0.291513
-0.287325
-0.298327
-0.278481
-0.307223
-0.276389
-0.285934
-0.287738
-0.287943
-0.288014
-0.290894
-0.287047
-0.297834
-0.279603
-0.305795
-0.278004
-0.284182
-0.286421
-0.286808
-0.287231
-0.29012
-0.28684
-0.296884
-0.280698
-0.303994
-0.279398
-0.282532
-0.285174
-0.285699
-0.286437
-0.28925
-0.28662
-0.295609
-0.28187
-0.301862
-0.280416
-0.281007
-0.284017
-0.284644
-0.285655
-0.288341
-0.286369
-0.294227
-0.282892
-0.299477
-0.281432
-0.279633
-0.28297
-0.283672
-0.284908
-0.287449
-0.286093
-0.292856
-0.28369
-0.297277
-0.282239
-0.278436
-0.282056
-0.282811
-0.284227
-0.286626
-0.285804
-0.291588
-0.284274
-0.295353
-0.282847
-0.277443
-0.281295
-0.282087
-0.28364
-0.285916
-0.285526
-0.2905
-0.284676
-0.293762
-0.283314
-0.276675
-0.280706
-0.281521
-0.283173
-0.285354
-0.285285
-0.289646
-0.284931
-0.292543
-0.283657
-0.276153
-0.280304
-0.281133
-0.282849
-0.284965
-0.285107
-0.289061
-0.285076
-0.29172
-0.283882
-0.275888
-0.2801
-0.280936
-0.282683
-0.284767
-0.285012
-0.288763
-0.285139
-0.291306
-0.283993
-0.29132
-0.281703
-0.28262
-0.274583
-0.270277
-0.261453
-0.253412
-0.242557
-0.231132
-0.217613
-0.202845
-0.186621
-0.168875
-0.15071
-0.131415
-0.112975
-0.0947851
-0.0781428
-0.0636867
-0.0503768
-0.0405553
-0.0310686
-0.0247659
-0.0186729
-0.014315
-0.01048
-0.00743003
-0.00436448
-0.0026134
4.45402e-06
-0.291557
-0.281835
-0.282716
-0.2747
-0.270377
-0.261574
-0.253532
-0.242689
-0.231269
-0.217755
-0.202983
-0.186749
-0.168984
-0.150801
-0.13149
-0.113044
-0.0948582
-0.078223
-0.0637738
-0.0504558
-0.0406167
-0.0311045
-0.024779
-0.0186751
-0.0143186
-0.0104933
-0.00745051
-0.004382
-0.00261961
2.86352e-06
-0.292005
-0.282086
-0.282905
-0.274927
-0.270576
-0.261797
-0.253757
-0.242934
-0.23152
-0.218016
-0.203239
-0.186999
-0.169211
-0.151006
-0.13167
-0.113208
-0.0950146
-0.0783735
-0.0639219
-0.0505833
-0.0407195
-0.0311743
-0.0248196
-0.0187008
-0.0143397
-0.0105208
-0.00748138
-0.00440682
-0.00263106
-2.4052e-06
-0.292618
-0.282426
-0.283173
-0.275249
-0.270855
-0.262121
-0.254075
-0.24328
-0.231874
-0.218385
-0.203604
-0.187359
-0.169546
-0.151318
-0.13195
-0.113463
-0.0952572
-0.0785942
-0.0641311
-0.0507598
-0.040864
-0.031279
-0.0248891
-0.0187514
-0.0143795
-0.0105633
-0.00752286
-0.00443907
-0.00264778
-1.14999e-05
-0.293325
-0.282799
-0.283499
-0.275631
-0.271204
-0.262514
-0.254475
-0.24371
-0.232316
-0.218846
-0.204064
-0.187818
-0.16998
-0.15173
-0.132323
-0.113806
-0.0955793
-0.0788839
-0.0644011
-0.0509864
-0.0410513
-0.0314206
-0.024989
-0.0188286
-0.0144394
-0.0106215
-0.00757529
-0.00447902
-0.0026698
-2.45998e-05
-0.294045
-0.283186
-0.283843
-0.276064
-0.271598
-0.262974
-0.254924
-0.244211
-0.232829
-0.219387
-0.204607
-0.188363
-0.170494
-0.152223
-0.132788
-0.114232
-0.0959796
-0.0792416
-0.0647322
-0.0512647
-0.0412829
-0.0316013
-0.0251214
-0.0189344
-0.0145209
-0.0106964
-0.00763912
-0.00452709
-0.0026972
-4.18899e-05
-0.294747
-0.283457
-0.284205
-0.276472
-0.272017
-0.26344
-0.25543
-0.244746
-0.233395
-0.219979
-0.205204
-0.18897
-0.17109
-0.152795
-0.133328
-0.114733
-0.0964548
-0.0796664
-0.0651248
-0.0515969
-0.0415609
-0.0318242
-0.0252887
-0.0190708
-0.0146257
-0.0107889
-0.00771488
-0.00458377
-0.00273009
-6.35326e-05
-0.29517
-0.283767
-0.284445
-0.276907
-0.272386
-0.263945
-0.255909
-0.245323
-0.233976
-0.220617
-0.20585
-0.189631
-0.171739
-0.15343
-0.13394
-0.115305
-0.0970021
-0.080158
-0.0655794
-0.0519854
-0.0418875
-0.032092
-0.0254931
-0.0192396
-0.0147553
-0.0108998
-0.00780311
-0.00464958
-0.00276856
-8.9639e-05
-0.295224
-0.284034
-0.284526
-0.277306
-0.272689
-0.264418
-0.256384
-0.245889
-0.234568
-0.221265
-0.206516
-0.190325
-0.172433
-0.154116
-0.134613
-0.115941
-0.0976185
-0.0807158
-0.0660967
-0.0524328
-0.042265
-0.0324073
-0.0257366
-0.0194424
-0.0149109
-0.0110298
-0.00790431
-0.00472502
-0.00281273
-0.000120246
-0.294889
-0.284153
-0.284469
-0.277589
-0.272926
-0.264826
-0.256807
-0.246425
-0.235137
-0.221909
-0.207187
-0.191036
-0.173156
-0.154843
-0.135341
-0.116636
-0.0983013
-0.0813394
-0.0666772
-0.052941
-0.0426952
-0.0327725
-0.0260208
-0.0196804
-0.0150935
-0.0111796
-0.00801891
-0.00481049
-0.00286267
-0.000155299
-0.293877
-0.284126
-0.284186
-0.27773
-0.273017
-0.265141
-0.257158
-0.246904
-0.235661
-0.222522
-0.207841
-0.191747
-0.173896
-0.1556
-0.136115
-0.117386
-0.0990474
-0.0820281
-0.0673209
-0.0535113
-0.0431796
-0.0331889
-0.0263469
-0.0199542
-0.0153037
-0.0113492
-0.00814718
-0.00490626
-0.0029184
-0.000194647
-0.292001
-0.283846
-0.283635
-0.277668
-0.272979
-0.265298
-0.257391
-0.247287
-0.236113
-0.223083
-0.208461
-0.192441
-0.17464
-0.156376
-0.136929
-0.118185
-0.0998537
-0.0827804
-0.068027
-0.0541441
-0.0437183
-0.0336569
-0.0267152
-0.0202639
-0.0155415
-0.0115388
-0.00828922
-0.00501246
-0.00297991
-0.00023804
-0.289282
-0.283166
-0.282785
-0.277311
-0.272676
-0.265301
-0.257494
-0.247554
-0.236473
-0.223569
-0.209029
-0.193104
-0.175377
-0.157164
-0.137776
-0.11903
-0.100716
-0.0835944
-0.0687938
-0.0548386
-0.0443106
-0.0341761
-0.0271252
-0.0206088
-0.0158065
-0.0117478
-0.00844492
-0.00512901
-0.0030471
-0.000285145
-0.286119
-0.281891
-0.281537
-0.276648
-0.272186
-0.265003
-0.257379
-0.247663
-0.236709
-0.223961
-0.209528
-0.193721
-0.176096
-0.157955
-0.13865
-0.119915
-0.101631
-0.0844671
-0.0696186
-0.0555925
-0.0449549
-0.0347448
-0.0275755
-0.0209876
-0.0160978
-0.0119757
-0.00861393
-0.00525568
-0.00311979
-0.000335562
-0.282746
-0.279953
-0.279836
-0.275591
-0.271361
-0.264604
-0.257108
-0.247612
-0.236808
-0.224242
-0.209946
-0.194284
-0.176789
-0.158742
-0.139544
-0.120836
-0.102593
-0.0853946
-0.0704975
-0.0564024
-0.0456483
-0.03536
-0.0280641
-0.0213984
-0.0164141
-0.0122215
-0.00879572
-0.00539203
-0.00319776
-0.000388844
-0.279083
-0.277428
-0.277609
-0.274071
-0.270129
-0.2636
-0.25648
-0.247326
-0.236736
-0.224396
-0.210273
-0.194785
-0.17745
-0.159521
-0.140453
-0.121788
-0.103598
-0.0863719
-0.0714259
-0.0572639
-0.0463872
-0.0360184
-0.0285882
-0.0218389
-0.0167536
-0.012484
-0.00898954
-0.00553748
-0.00328065
-0.000444514
-0.275262
-0.274277
-0.274872
-0.272152
-0.268689
-0.262831
-0.255772
-0.246894
-0.236518
-0.224421
-0.210502
-0.195216
-0.178072
-0.160288
-0.141373
-0.122768
-0.10464
-0.0873951
-0.0723997
-0.0581723
-0.0471674
-0.0367154
-0.0291444
-0.0223059
-0.017114
-0.0127616
-0.00919434
-0.00569122
-0.00336809
-0.000502113
-0.271227
-0.270588
-0.271551
-0.269617
-0.266596
-0.261108
-0.254482
-0.246118
-0.236089
-0.224307
-0.210644
-0.195594
-0.178671
-0.161048
-0.142305
-0.123772
-0.105712
-0.0884539
-0.0734073
-0.0591165
-0.0479798
-0.0374433
-0.0297273
-0.0227954
-0.0174928
-0.0130528
-0.00940928
-0.00585267
-0.00345983
-0.000561282
-0.267022
-0.266625
-0.268089
-0.267067
-0.264655
-0.259811
-0.253575
-0.245355
-0.235565
-0.224066
-0.210662
-0.195859
-0.179183
-0.161751
-0.143204
-0.124768
-0.106794
-0.0895373
-0.0744484
-0.060099
-0.0488309
-0.0382078
-0.0303423
-0.0233114
-0.0178927
-0.0133593
-0.00963531
-0.00602209
-0.00355571
-0.000621557
-0.263067
-0.261867
-0.263379
-0.263196
-0.26147
-0.257305
-0.2514
-0.244039
-0.234795
-0.223758
-0.210734
-0.196263
-0.179885
-0.162665
-0.144317
-0.125969
-0.108056
-0.0907764
-0.0756069
-0.0611752
-0.0497452
-0.0390192
-0.030987
-0.0238472
-0.0183048
-0.013673
-0.00986519
-0.00619388
-0.00365266
-0.000681409
-0.257902
-0.258146
-0.259875
-0.260319
-0.259085
-0.255522
-0.250383
-0.242764
-0.233662
-0.222834
-0.210021
-0.195754
-0.179599
-0.162571
-0.144434
-0.126242
-0.108477
-0.0912956
-0.0761732
-0.0617764
-0.0503049
-0.03956
-0.0314468
-0.024251
-0.018631
-0.013931
-0.0100599
-0.0063433
-0.00373956
-0.000735762
-0.252259
-0.2533
-0.255231
-0.256193
-0.255323
-0.252056
-0.246833
-0.240091
-0.231439
-0.220971
-0.208497
-0.194537
-0.17871
-0.161966
-0.144134
-0.126186
-0.108644
-0.0916303
-0.0766034
-0.062287
-0.050801
-0.0400605
-0.0318796
-0.0246354
-0.0189429
-0.0141771
-0.0102441
-0.00648531
-0.0038204
-0.00078701
-0.246346
-0.248006
-0.250191
-0.251717
-0.251323
-0.248555
-0.243984
-0.237447
-0.2291
-0.218969
-0.206828
-0.193183
-0.177698
-0.161253
-0.143746
-0.126059
-0.108757
-0.0919292
-0.0770103
-0.0627889
-0.0512953
-0.0405677
-0.0323214
-0.0250306
-0.0192652
-0.0144318
-0.0104346
-0.0066329
-0.00390381
-0.000839948
-0.240186
-0.242491
-0.244957
-0.247023
-0.247124
-0.244863
-0.24068
-0.234582
-0.22661
-0.216842
-0.205062
-0.191756
-0.176634
-0.16051
-0.143342
-0.125931
-0.108879
-0.0922457
-0.0774386
-0.0633163
-0.051815
-0.0411007
-0.0327864
-0.0254466
-0.0196049
-0.0147005
-0.0106358
-0.00678869
-0.0039917
-0.000894951
-0.23373
-0.236784
-0.23955
-0.242111
-0.242707
-0.240935
-0.237178
-0.231521
-0.223952
-0.214573
-0.203182
-0.190239
-0.175504
-0.15972
-0.142911
-0.125793
-0.109002
-0.0925738
-0.0778844
-0.0638669
-0.0523589
-0.0416591
-0.0332746
-0.0258839
-0.0199625
-0.0149837
-0.0108482
-0.00695295
-0.00408424
-0.000951954
-0.227021
-0.230909
-0.233992
-0.237008
-0.238098
-0.236814
-0.233509
-0.228298
-0.221146
-0.212173
-0.201193
-0.188633
-0.174305
-0.158881
-0.142445
-0.125636
-0.109118
-0.0929066
-0.0783415
-0.0644351
-0.0529225
-0.0422391
-0.0337834
-0.0263403
-0.0203365
-0.0152804
-0.0110711
-0.0071252
-0.00418112
-0.0010107
-0.220134
-0.224896
-0.22832
-0.231755
-0.233335
-0.232545
-0.229694
-0.224934
-0.218214
-0.209661
-0.199107
-0.186948
-0.173043
-0.157997
-0.141948
-0.125461
-0.109225
-0.0932413
-0.0788069
-0.0650176
-0.0535034
-0.0428381
-0.0343109
-0.0268141
-0.0207259
-0.0155898
-0.0113038
-0.00730497
-0.00428209
-0.00107093
-0.213122
-0.218773
-0.222564
-0.226387
-0.22845
-0.228154
-0.225758
-0.221451
-0.215176
-0.207054
-0.19694
-0.185194
-0.171726
-0.15707
-0.141419
-0.125268
-0.109323
-0.093576
-0.0792784
-0.0656118
-0.0540991
-0.0434537
-0.0348552
-0.0273038
-0.0211294
-0.0159112
-0.0115458
-0.00749181
-0.00438689
-0.00113238
-0.206033
-0.212562
-0.216747
-0.220932
-0.223466
-0.223662
-0.221724
-0.217874
-0.212048
-0.204365
-0.194702
-0.183381
-0.17036
-0.156107
-0.140862
-0.125056
-0.10941
-0.0939081
-0.0797531
-0.0662144
-0.0547069
-0.0440832
-0.0354143
-0.0278077
-0.0215457
-0.0162436
-0.0117965
-0.00768518
-0.00449526
-0.00119479
-0.198918
-0.206287
-0.210888
-0.215414
-0.218402
-0.219088
-0.217611
-0.214216
-0.208845
-0.201608
-0.192404
-0.181517
-0.168949
-0.155109
-0.140277
-0.124827
-0.109484
-0.0942352
-0.0802286
-0.0668225
-0.0553242
-0.0447238
-0.035986
-0.0283237
-0.0219733
-0.016586
-0.0120551
-0.00788447
-0.00460687
-0.00125786
-0.19182
-0.199972
-0.205009
-0.209856
-0.213278
-0.214448
-0.213434
-0.210493
-0.205581
-0.198795
-0.190055
-0.17961
-0.167501
-0.154082
-0.139666
-0.124579
-0.109544
-0.0945551
-0.0807021
-0.0674327
-0.0559481
-0.0453726
-0.036568
-0.0288498
-0.0224107
-0.0169371
-0.0123206
-0.00808897
-0.00472136
-0.00132129
-0.184785
-0.193645
-0.199129
-0.204284
-0.208114
-0.209758
-0.209207
-0.206719
-0.202267
-0.195936
-0.187664
-0.177667
-0.166019
-0.153027
-0.139029
-0.124312
-0.10959
-0.0948656
-0.0811711
-0.0680422
-0.0565759
-0.0460268
-0.0371578
-0.0293839
-0.0228562
-0.0172958
-0.0125922
-0.00829793
-0.00483833
-0.00138477
-0.177856
-0.187336
-0.193271
-0.19872
-0.202931
-0.205036
-0.204946
-0.202908
-0.198916
-0.193041
-0.185238
-0.175693
-0.164508
-0.151948
-0.13837
-0.124027
-0.109619
-0.0951648
-0.0816333
-0.068648
-0.0572048
-0.0466834
-0.0377532
-0.0299238
-0.0233081
-0.0176606
-0.0128687
-0.00851053
-0.00495737
-0.00144801
-0.171074
-0.181074
-0.187456
-0.19319
-0.19775
-0.200298
-0.200666
-0.199075
-0.19554
-0.19012
-0.182787
-0.173697
-0.162974
-0.150849
-0.13769
-0.123725
-0.109632
-0.095451
-0.0820867
-0.0692472
-0.0578321
-0.0473397
-0.0383516
-0.0304673
-0.0237645
-0.0180302
-0.0131492
-0.00872591
-0.00507803
-0.00151068
-0.164476
-0.174892
-0.181707
-0.187718
-0.192597
-0.195565
-0.196384
-0.195234
-0.192151
-0.187185
-0.18032
-0.171684
-0.161421
-0.149733
-0.136991
-0.123405
-0.109628
-0.0957225
-0.082529
-0.0698372
-0.0584552
-0.0479926
-0.0389504
-0.031012
-0.0242235
-0.0184029
-0.0134324
-0.00894312
-0.00519983
-0.0015725
-0.158092
-0.168822
-0.176048
-0.182326
-0.187496
-0.190857
-0.192117
-0.191401
-0.188763
-0.184247
-0.177845
-0.169664
-0.159857
-0.148604
-0.136276
-0.12307
-0.109608
-0.0959781
-0.0829583
-0.0704153
-0.0590712
-0.0486394
-0.0395471
-0.0315555
-0.024683
-0.0187771
-0.013717
-0.00916114
-0.00532225
-0.00163314
-0.151953
-0.162897
-0.170503
-0.177039
-0.182473
-0.186199
-0.187883
-0.187595
-0.185393
-0.181319
-0.175375
-0.167644
-0.158288
-0.147468
-0.135548
-0.122719
-0.109571
-0.0962166
-0.0833729
-0.0709788
-0.0596773
-0.0492768
-0.0401388
-0.0320952
-0.0251409
-0.019151
-0.0140017
-0.00937887
-0.00544473
-0.0016923
-0.146084
-0.157152
-0.165102
-0.171883
-0.177557
-0.181617
-0.183707
-0.183835
-0.182059
-0.178419
-0.172922
-0.165636
-0.156722
-0.14633
-0.134812
-0.122357
-0.109518
-0.096437
-0.0837708
-0.071525
-0.0602705
-0.0499017
-0.0407224
-0.0326282
-0.0255947
-0.0195225
-0.0142849
-0.00959511
-0.00556664
-0.00174969
-0.14051
-0.151621
-0.159871
-0.166882
-0.172777
-0.17714
-0.179611
-0.180141
-0.178779
-0.175561
-0.1705
-0.163651
-0.155168
-0.145197
-0.134071
-0.121984
-0.10945
-0.0966386
-0.0841503
-0.072051
-0.0608476
-0.0505107
-0.0412946
-0.0331515
-0.0260418
-0.0198894
-0.014565
-0.00980852
-0.00568729
-0.001805
-0.135254
-0.146338
-0.154843
-0.162067
-0.168164
-0.172799
-0.175623
-0.17654
-0.175576
-0.172766
-0.168126
-0.161701
-0.153639
-0.144077
-0.133333
-0.121604
-0.109368
-0.0968209
-0.0845095
-0.0725542
-0.0614051
-0.0511
-0.0418517
-0.0336617
-0.0264791
-0.0202491
-0.0148399
-0.0100176
-0.00580586
-0.00185794
-0.130338
-0.141337
-0.150049
-0.157468
-0.16375
-0.168627
-0.171774
-0.173056
-0.172473
-0.170054
-0.165818
-0.159803
-0.152145
-0.142979
-0.132603
-0.121221
-0.109275
-0.0969835
-0.0848467
-0.0730315
-0.0619395
-0.0516656
-0.0423897
-0.0341551
-0.0269034
-0.020599
-0.0151077
-0.0102208
-0.00592147
-0.00190821
-0.125781
-0.136649
-0.145523
-0.153116
-0.159567
-0.16466
-0.168097
-0.16972
-0.169498
-0.16745
-0.163598
-0.157973
-0.1507
-0.141914
-0.13189
-0.12084
-0.109172
-0.0971267
-0.08516
-0.0734801
-0.0624467
-0.0522033
-0.0429042
-0.0346275
-0.027311
-0.0209358
-0.0153658
-0.0104162
-0.00603308
-0.00195548
-0.121606
-0.132309
-0.141301
-0.149048
-0.15565
-0.160933
-0.164629
-0.166563
-0.166678
-0.16498
-0.161487
-0.15623
-0.149321
-0.140893
-0.131202
-0.120467
-0.109062
-0.0972505
-0.0854476
-0.0738967
-0.0629225
-0.0527084
-0.0433904
-0.0350743
-0.0276978
-0.021256
-0.0156116
-0.0106018
-0.00613952
-0.00199943
-0.117831
-0.12835
-0.13742
-0.145299
-0.152038
-0.157487
-0.161408
-0.163624
-0.164048
-0.162674
-0.159512
-0.154597
-0.148025
-0.139931
-0.130549
-0.120107
-0.108949
-0.0973557
-0.0857079
-0.074278
-0.0633622
-0.0531758
-0.0438427
-0.0354906
-0.0280592
-0.0215557
-0.015842
-0.0107754
-0.00623945
-0.0020397
-0.114481