/*--------------------------------*- C++ -*----------------------------------*\
  =========                 |
  \\      /  F ield         | OpenFOAM: The Open Source CFD Toolbox
   \\    /   O peration     | Website:  https://openfoam.org
    \\  /    A nd           | Version:  9
     \\/     M anipulation  |
\*---------------------------------------------------------------------------*/
FoamFile
{
    format      ascii;
    class       surfaceScalarField;
    location    "56";
    object      phi;
}
// * * * * * * * * * * * * * * * * * * * * * * * * * * * * * * * * * * * * * //

dimensions      [0 3 -1 0 0 0 0];

internalField   nonuniform List<scalar> 
16735
(
-0.00298902
0.00298542
3.60666e-06
-0.00897659
0.00598018
7.38499e-06
-0.0168421
0.00785574
9.77322e-06
-0.0258612
0.0090075
1.15775e-05
-0.0359256
0.0100508
1.36105e-05
-0.0464567
0.0105153
1.57678e-05
-0.0585446
0.0120697
1.82719e-05
-0.0695023
0.0109378
1.98762e-05
-0.084242
0.0147194
2.03752e-05
0.0110823
1.81308e-05
-0.0953425
-0.00293787
0.00592328
-0.00883013
0.0118724
-0.0165593
0.0155849
-0.0253921
0.0178403
-0.0352072
0.0198659
-0.0453945
0.0207026
-0.0570386
0.0237137
-0.067353
0.0212522
-0.0813787
0.0287451
0.0209306
-0.091227
-0.00283769
0.00876097
-0.00854214
0.0175769
-0.0160015
0.0230443
-0.0244649
0.0263037
-0.0337825
0.0291835
-0.0432881
0.0302082
-0.0540354
0.0344609
-0.0630747
0.0302916
-0.0756842
0.0413547
0.0283243
-0.0830779
-0.00269278
0.0114538
-0.00812256
0.0230067
-0.0151847
0.0301065
-0.0231019
0.0342209
-0.031676
0.0377576
-0.040174
0.0387062
-0.0495528
0.0438397
-0.0567008
0.0374396
-0.0672024
0.0518563
0.0321526
-0.0710307
-0.00250935
0.0139631
-0.00758581
0.0280831
-0.0141321
0.0366528
-0.0213353
0.0414241
-0.0289238
0.0453461
-0.0361051
0.0458875
-0.0436142
0.0513488
-0.0482649
0.0420902
-0.0559437
0.0595351
0.0314233
-0.0552145
-0.00229523
0.0162583
-0.00695017
0.0327381
-0.0128716
0.0425742
-0.0192062
0.0477586
-0.0255721
0.051712
-0.0311491
0.0514646
-0.0362462
0.0564459
-0.0377935
0.0436375
-0.0418187
0.0635603
0.0252563
-0.0356516
-0.00205957
0.0183179
-0.00623698
0.0369155
-0.0114366
0.0477738
-0.0167617
0.0530838
-0.0216739
0.0566242
-0.0253838
0.0551744
-0.0274744
0.0585365
-0.0253196
0.0414828
-0.0245573
0.062798
0.0128802
-0.0121812
-0.00181237
0.0201303
-0.00546958
0.0405727
-0.00986358
0.0521678
-0.0140519
0.0572721
-0.0172831
0.0598554
-0.0188864
0.0567777
-0.0173088
0.0569589
-0.0109394
0.0351134
-0.0035418
0.0554003
-0.00702846
0.0163669
-0.00156396
0.0216942
-0.00467202
0.0436807
-0.00818998
0.0556858
-0.0111241
0.0602061
-0.0124457
0.0611771
-0.0117163
0.0560483
-0.00567497
0.0509176
0.00544725
0.0239911
0.0205613
0.0402863
-0.0375482
0.051081
-0.00132444
0.0230187
-0.00386744
0.0462237
-0.00645112
0.0582695
-0.00801721
0.0617722
-0.0071845
0.0603444
-0.00390805
0.0527718
0.00715623
0.0398534
0.0242831
0.00686423
0.0489896
0.0155798
-0.0811384
0.0925799
-0.00110295
0.0241216
-0.00307628
0.0481971
-0.0046768
0.05987
-0.00475595
0.0618514
-0.0014538
0.0570422
0.0048724
0.0464456
0.0214306
0.0232952
0.045039
-0.0167442
0.081983
-0.0213642
-0.14036
0.141204
-0.000907049
0.0250287
-0.00231412
0.0496041
-0.00288659
0.0604424
-0.00135457
0.0603194
0.00457606
0.0511116
0.0148399
0.0361817
0.0377715
0.000363597
0.0685906
-0.0475632
0.119789
-0.0725631
-0.216422
0.195852
-0.000741989
0.0257707
-0.00158952
0.0504517
-0.0010806
0.0599335
0.00229062
0.0569481
0.0111778
0.0422244
0.0262016
0.0211579
0.056509
-0.0299437
0.0962917
-0.0873459
0.162737
-0.139009
-0.307361
0.253676
-0.00061025
0.0263809
-0.000902339
0.0507438
0.000744773
0.0582864
0.00620568
0.0514872
0.0185486
0.0298815
0.0395159
0.000190567
0.0780006
-0.0684284
0.12921
-0.138556
0.210419
-0.220218
-0.407466
0.310525
-0.00051217
0.0268931
-0.000240031
0.0504716
0.00262729
0.0554191
0.0104782
0.0436364
0.0269223
0.0134374
0.0552932
-0.0281803
0.102611
-0.115747
0.166967
-0.202911
0.260379
-0.31363
-0.509003
0.361916
-0.000438715
0.0273318
0.000416208
0.0496167
0.00466516
0.0511701
0.0153023
0.0329992
0.0366382
-0.00789854
0.0738386
-0.0653807
0.130557
-0.172465
0.20747
-0.279824
0.307996
-0.414157
-0.605102
0.404095
-0.000378861
0.0277107
0.00110714
0.0481307
0.00696079
0.0453165
0.0209365
0.0190236
0.0481465
-0.0351086
0.0951358
-0.11237
0.161322
-0.238651
0.247521
-0.366023
0.348331
-0.514967
-0.691612
0.43484
-0.000320292
0.028031
0.00188445
0.045926
0.00964996
0.037551
0.0276873
0.000986228
0.0618858
-0.0693071
0.118803
-0.169287
0.193187
-0.313035
0.283589
-0.456425
0.378227
-0.609605
-0.767121
0.453736
-0.000246209
0.0282772
0.00280785
0.0428719
0.0128926
0.0274662
0.0358626
-0.0219837
0.0780463
-0.111491
0.143937
-0.235178
0.223591
-0.392688
0.31273
-0.545564
0.396965
-0.69384
-0.832164
0.462009
-0.000136399
0.0284136
0.00394368
0.0387918
0.016865
0.0145449
0.0457008
-0.0508195
0.0963238
-0.162114
0.169011
-0.307865
0.250048
-0.473725
0.33339
-0.628907
0.4056
-0.766049
-0.88883
0.462266
3.06652e-05
0.0283829
0.00536226
0.0334602
0.0217473
-0.00184015
0.0572734
-0.0863456
0.115836
-0.220677
0.192161
-0.38419
0.270844
-0.552408
0.345536
-0.703599
0.407136
-0.82765
-0.944839
0.463145
0.000248519
0.0281344
0.00713797
0.0265708
0.0276977
-0.0223998
0.0703747
-0.129023
0.135272
-0.285573
0.211766
-0.460685
0.28525
-0.625892
0.350299
-0.768648
0.405195
-0.882546
-0.993434
0.453791
0.000555474
0.0275789
0.0093484
0.0177778
0.034801
-0.0478525
0.0844643
-0.178686
0.153211
-0.35432
0.226844
-0.534318
0.29344
-0.692488
0.349877
-0.825085
0.397548
-0.930216
-1.03471
0.438819
0.000961811
0.0266171
0.0120708
0.00666887
0.0430022
-0.0787839
0.0987221
-0.234406
0.168484
-0.424082
0.237113
-0.602946
0.296281
-0.751656
0.344951
-0.873755
0.386503
-0.971769
-1.07166
0.423455
0.0014789
0.0251382
0.0153719
-0.00722409
0.0520628
-0.115475
0.112213
-0.294556
0.18039
-0.492259
0.242828
-0.665384
0.294658
-0.803487
0.336694
-0.91579
0.373222
-1.0083
-1.1046
0.406166
0.00212069
0.0230175
0.0192819
-0.0243853
0.061578
-0.157771
0.124089
-0.357067
0.188703
-0.556873
0.244494
-0.721175
0.289523
-0.848515
0.325948
-0.952216
0.358235
-1.04058
-1.13446
0.388089
0.00290863
0.0201089
0.0237632
-0.0452399
0.0710379
-0.205046
0.133754
-0.419783
0.193539
-0.616658
0.242733
-0.77037
0.281673
-0.887455
0.313383
-0.983926
0.342167
-1.06937
-1.16162
0.369329
0.00387552
0.0162334
0.0286971
-0.0700615
0.0798957
-0.256244
0.14092
-0.480807
0.195215
-0.670953
0.238166
-0.81332
0.271772
-0.921061
0.299519
-1.01167
0.325296
-1.09515
-1.18637
0.350053
0.00506153
0.0111718
0.0338992
-0.0988992
0.0876518
-0.309997
0.145558
-0.538714
0.19414
-0.719534
0.231359
-0.85054
0.260349
-0.950051
0.284725
-1.03605
0.307871
-1.11829
-1.20891
0.330412
0.00649797
0.00467386
0.0391516
-0.131553
0.0939478
-0.364793
0.147812
-0.592578
0.190743
-0.762465
0.222802
-0.882599
0.247809
-0.975058
0.269274
-1.05751
0.290039
-1.13906
-1.22933
0.310455
0.00818471
-0.00351086
0.0442316
-0.1676
0.0986067
-0.419168
0.147907
-0.641878
0.185437
-0.799995
0.212902
-0.910064
0.23446
-0.996616
0.253355
-1.07641
0.271906
-1.15761
-1.24768
0.290255
0.0100775
-0.0135884
0.0489228
-0.206445
0.101601
-0.471847
0.146108
-0.686386
0.178591
-0.832477
0.20199
-0.933464
0.220535
-1.01516
0.237105
-1.09298
0.253548
-1.17405
-1.26398
0.26985
0.0120962
-0.0256846
0.0530222
-0.247371
0.103001
-0.521826
0.142686
-0.72607
0.170526
-0.860318
0.190329
-0.953267
0.206202
-1.03103
0.220623
-1.1074
0.235019
-1.18845
-1.27824
0.24928
0.0141454
-0.0398301
0.0563583
-0.289584
0.102932
-0.5684
0.137896
-0.761034
0.161512
-0.883933
0.178123
-0.969878
0.191588
-1.0445
0.203976
-1.11979
0.216363
-1.20083
-1.29046
0.22858
0.0161377
-0.0559677
0.0588128
-0.332259
0.101547
-0.611134
0.131976
-0.791463
0.151768
-0.903725
0.16553
-0.983641
0.176786
-1.05575
0.187216
-1.13022
0.197617
-1.21124
-1.30062
0.207782
0.0180018
-0.0739696
0.0603299
-0.374587
0.0990098
-0.649814
0.125142
-0.817595
0.141478
-0.920061
0.152674
-0.994837
0.161865
-1.06494
0.170386
-1.13874
0.178813
-1.21966
-1.30873
0.186921
0.0196795
-0.0936491
0.0609097
-0.415817
0.0954815
-0.684386
0.11758
-0.839693
0.13079
-0.933272
0.139648
-1.00369
0.14688
-1.07218
0.153523
-1.14538
0.159981
-1.22612
-1.31478
0.166028
0.0211177
-0.114767
0.0605919
-0.455291
0.091115
-0.714909
0.109454
-0.858032
0.119825
-0.943642
0.126525
-1.01039
0.131872
-1.07752
0.136657
-1.15017
0.14115
-1.23062
-1.31876
0.145136
0.0222663
-0.137033
0.0594345
-0.49246
0.0860486
-0.741523
0.100905
-0.872888
0.108681
-0.951419
0.113361
-1.01507
0.116878
-1.08104
0.119815
-1.1531
0.122349
-1.23315
-1.32069
0.124282
0.0230819
-0.160115
0.0575234
-0.526901
0.0804087
-0.764408
0.0920476
-0.884527
0.0974355
-0.956807
0.100202
-1.01784
0.101925
-1.08276
0.103024
-1.1542
0.103607
-1.23373
-1.32059
0.103506
0.0235359
-0.183651
0.0550383
-0.558404
0.0743136
-0.783684
0.0829782
-0.893192
0.0861513
-0.95998
0.0870837
-1.01877
0.0870391
-1.08272
0.0863062
-1.15347
0.0849513
-1.23238
-1.3185
0.082861
0.0236164
-0.207267
0.0520449
-0.586832
0.0678679
-0.799507
0.0737758
-0.8991
0.0748779
-0.961082
0.0740373
-1.01793
0.0722448
-1.08093
0.0696846
-1.15091
0.0664043
-1.2291
-1.31441
0.0623132
0.0233287
-0.230596
0.048615
-0.612118
0.061162
-0.812054
0.0645069
-0.902445
0.0636549
-0.96023
0.0610881
-1.01537
0.0575637
-1.0774
0.0531853
-1.14653
0.0479833
-1.2239
-1.30831
0.0418797
0.0226939
-0.25329
0.0448222
-0.634247
0.0542757
-0.821507
0.055226
-0.903395
0.0525147
-0.957519
0.0482587
-1.01111
0.0430157
-1.07216
0.0368341
-1.14035
0.0297327
-1.21679
-1.30016
0.0215859
0.0217453
-0.275035
0.040737
-0.653238
0.0472602
-0.82803
0.0459768
-0.902111
0.041484
-0.953026
0.035569
-1.00519
0.0286195
-1.06521
0.0206449
-1.13237
0.0117164
-1.20787
-1.28982
0.00137417
0.0205237
-0.295559
0.0364251
-0.66914
0.0401728
-0.831778
0.0367958
-0.898734
0.0305857
-0.946816
0.0230367
-0.997646
0.0143933
-1.05657
0.00459504
-1.12258
-0.00605273
-1.19722
-1.27749
-0.0183805
0.0190725
-0.314631
0.0319468
-0.682014
0.0330667
-0.832898
0.0277138
-0.893382
0.019838
-0.93894
0.0106714
-0.988479
0.000322017
-1.04622
-0.0111162
-1.11114
-0.0237046
-1.18463
-1.26334
-0.037859
0.0174342
-0.332066
0.0273566
-0.691937
0.0259854
-0.831527
0.0187574
-0.886153
0.00924743
-0.92943
-0.00152411
-0.977708
-0.0134178
-1.03432
-0.0265732
-1.09798
-0.0410579
-1.17014
-1.24733
-0.0570707
0.0156488
-0.347714
0.0227028
-0.698991
0.0189652
-0.827789
0.00994709
-0.877135
-0.00119873
-0.918284
-0.0133981
-0.965508
-0.0269564
-1.02076
-0.0417998
-1.08314
-0.0581158
-1.15383
-1.22947
-0.0759684
0.0137531
-0.361467
0.0180279
-0.703265
0.0120339
-0.821795
0.00127492
-0.866376
-0.0112661
-0.905743
-0.0250851
-0.951689
-0.0402474
-1.0056
-0.0567616
-1.06663
-0.0748587
-1.13573
-1.2098
-0.0945335
0.0117804
-0.373248
0.0133691
-0.704854
0.00520253
-0.813629
-0.00711406
-0.85406
-0.0211722
-0.891685
-0.0365384
-0.936323
-0.0532741
-0.988867
-0.0714338
-1.04847
-0.0912714
-1.11589
-1.18833
-0.112736
0.00976095
-0.383009
0.00876134
-0.703854
-0.00150323
-0.803364
-0.0153273
-0.840236
-0.0308608
-0.876151
-0.0477393
-0.919444
-0.0660201
-0.970586
-0.085795
-1.02869
-0.107335
-1.09435
-1.16511
-0.130557
0.00771983
-0.390729
0.00424472
-0.700379
-0.00789249
-0.791227
-0.0233384
-0.82479
-0.0403147
-0.859175
-0.0586739
-0.901085
-0.0784703
-0.95079
-0.0998268
-1.00733
-0.123032
-1.07115
-1.14017
-0.147973
0.00567584
-0.396404
-7.68796e-05
-0.694627
-0.0141514
-0.777152
-0.0311325
-0.807809
-0.0495231
-0.840784
-0.0693294
-0.881279
-0.0906099
-0.929509
-0.113513
-0.984432
-0.138346
-1.04631
-1.11355
-0.164962
0.00364702
-0.400051
-0.00463976
-0.68634
-0.0202486
-0.761543
-0.0386953
-0.789362
-0.0584746
-0.821005
-0.0796942
-0.860059
-0.102425
-0.906779
-0.126838
-0.960019
-0.153261
-1.01989
-1.08532
-0.181498
0.00166977
-0.401721
-0.00894265
-0.675727
-0.0261654
-0.744321
-0.0460174
-0.76951
-0.0671586
-0.799864
-0.0897571
-0.837461
-0.113902
-0.882634
-0.139788
-0.934132
-0.167758
-0.991922
-1.05552
-0.197555
-0.000218545
-0.401503
-0.0130777
-0.662868
-0.0318922
-0.725506
-0.0530941
-0.748308
-0.0755656
-0.777392
-0.0995069
-0.81352
-0.125029
-0.857112
-0.152354
-0.906808
-0.181822
-0.962454
-1.0242
-0.213138
-0.00234684
-0.399156
-0.0170614
-0.648154
-0.0374163
-0.705151
-0.0599198
-0.725805
-0.0836863
-0.753626
-0.108933
-0.788273
-0.135798
-0.830247
-0.164535
-0.87807
-0.195445
-0.931545
-0.991433
-0.228214
-0.0043262
-0.39483
-0.0208924
-0.631588
-0.0427261
-0.683318
-0.0664884
-0.702042
-0.0915121
-0.728602
-0.118026
-0.761759
-0.146199
-0.802074
-0.176326
-0.847942
-0.208581
-0.89929
-0.957469
-0.242545
-0.00621899
-0.388611
-0.0245677
-0.613239
-0.0478154
-0.66007
-0.0727944
-0.677063
-0.0990351
-0.702361
-0.126775
-0.734019
-0.156222
-0.772627
-0.18768
-0.816485
-0.22124
-0.86573
-0.922706
-0.256003
-0.00803156
-0.380579
-0.0280839
-0.593187
-0.0526797
-0.635474
-0.0788325
-0.650911
-0.106248
-0.674946
-0.135174
-0.705093
-0.165852
-0.741948
-0.198543
-0.783794
-0.232954
-0.831319
-0.885748
-0.269912
-0.00976423
-0.370815
-0.031438
-0.571513
-0.0573153
-0.609597
-0.0845979
-0.623628
-0.113144
-0.6464
-0.143213
-0.675024
-0.175066
-0.710095
-0.208876
-0.749984
-0.244547
-0.795648
-0.847203
-0.283093
-0.0114156
-0.359399
-0.034627
-0.548301
-0.0617195
-0.582504
-0.0900859
-0.595262
-0.119717
-0.616769
-0.150885
-0.643856
-0.183865
-0.677116
-0.218818
-0.715032
-0.255866
-0.758599
-0.80732
-0.295749
-0.0129837
-0.346416
-0.037648
-0.523637
-0.0658899
-0.554262
-0.0952923
-0.565859
-0.125961
-0.5861
-0.158178
-0.611639
-0.192224
-0.643069
-0.228264
-0.678993
-0.266534
-0.720329
-0.766173
-0.307681
-0.0144664
-0.331949
-0.0404987
-0.497605
-0.0698241
-0.524937
-0.100213
-0.53547
-0.13187
-0.554443
-0.165086
-0.578423
-0.20015
-0.608005
-0.237248
-0.641894
-0.276675
-0.680902
-0.72388
-0.318968
-0.0158613
-0.316088
-0.043177
-0.470289
-0.0735203
-0.494594
-0.104844
-0.504146
-0.137437
-0.521851
-0.171598
-0.544262
-0.207626
-0.571978
-0.245728
-0.603791
-0.286231
-0.640399
-0.680514
-0.329597
-0.017166
-0.298922
-0.045681
-0.441774
-0.0769765
-0.463298
-0.109183
-0.47194
-0.142658
-0.488375
-0.17771
-0.50921
-0.214647
-0.535041
-0.253699
-0.564739
-0.295208
-0.59889
-0.636147
-0.339574
-0.0183775
-0.280544
-0.0480091
-0.412142
-0.0801911
-0.431116
-0.113225
-0.438906
-0.147528
-0.454073
-0.183414
-0.473323
-0.221203
-0.497252
-0.261145
-0.524798
-0.30359
-0.556446
-0.590846
-0.348891
-0.0194919
-0.261052
-0.0501598
-0.381475
-0.0831625
-0.398113
-0.116968
-0.4051
-0.152041
-0.419
-0.188703
-0.43666
-0.227287
-0.458668
-0.268056
-0.484028
-0.311368
-0.513134
-0.544677
-0.357537
-0.0205025
-0.24055
-0.0521311
-0.349846
-0.0858898
-0.364355
-0.120409
-0.370581
-0.156193
-0.383216
-0.193573
-0.399281
-0.23289
-0.419351
-0.274424
-0.442494
-0.318533
-0.469024
-0.497708
-0.365503
-0.0213947
-0.219155
-0.0539221
-0.317319
-0.0883723
-0.329905
-0.123545
-0.335408
-0.159981
-0.34678
-0.198016
-0.361246
-0.238006
-0.379361
-0.280239
-0.400261
-0.325075
-0.424188
-0.450007
-0.372776
-0.0222136
-0.196942
-0.0555349
-0.283997
-0.0906099
-0.294829
-0.126374
-0.299644
-0.1634
-0.309754
-0.202029
-0.322618
-0.242628
-0.338761
-0.285494
-0.357395
-0.330986
-0.378697
-0.401648
-0.379345
-0.0229588
-0.173983
-0.0569701
-0.249986
-0.0926018
-0.259198
-0.128894
-0.263351
-0.166448
-0.272201
-0.205606
-0.283459
-0.24675
-0.297617
-0.290183
-0.313962
-0.336256
-0.332623
-0.352702
-0.385202
-0.0236182
-0.150365
-0.0582275
-0.215377
-0.0943471
-0.223078
-0.131103
-0.226595
-0.169121
-0.234183
-0.208745
-0.243835
-0.250368
-0.255994
-0.294298
-0.270033
-0.34088
-0.286041
-0.303245
-0.390337
-0.0241869
-0.126178
-0.0593064
-0.180257
-0.0958449
-0.18654
-0.132999
-0.189441
-0.171417
-0.195766
-0.211441
-0.203811
-0.253476
-0.213959
-0.297832
-0.225676
-0.344851
-0.239023
-0.253353
-0.394742
-0.0246627
-0.101515
-0.0602063
-0.144713
-0.0970943
-0.149652
-0.134582
-0.151953
-0.173333
-0.157015
-0.213692
-0.163451
-0.256071
-0.171581
-0.300782
-0.180965
-0.348161
-0.191644
-0.203101
-0.398413
-0.0250443
-0.0764707
-0.0609267
-0.108831
-0.0980946
-0.112484
-0.135849
-0.114199
-0.174868
-0.117996
-0.215496
-0.122823
-0.25815
-0.128926
-0.303144
-0.135971
-0.350809
-0.14398
-0.152565
-0.401344
-0.025331
-0.0511397
-0.0614673
-0.0726947
-0.0988454
-0.0751058
-0.1368
-0.0762437
-0.176021
-0.0787758
-0.21685
-0.0819942
-0.259711
-0.0860656
-0.304917
-0.0907646
-0.352794
-0.0961032
-0.101822
-0.403537
-0.0255223
-0.0256174
-0.0618279
-0.0363892
-0.0993461
-0.0375875
-0.137435
-0.0381549
-0.17679
-0.0394211
-0.217754
-0.0410303
-0.260752
-0.0430669
-0.3061
-0.0454171
-0.354117
-0.0480862
-0.0509433
-0.404995
-0.025618
6.45283e-07
-0.0620082
9.07695e-07
-0.0995966
8.99825e-07
-0.137752
8.65413e-07
-0.177174
8.39272e-07
-0.218205
8.14489e-07
-0.261273
7.9287e-07
-0.306691
7.72446e-07
-0.354778
7.52701e-07
7.3038e-07
-0.405722
-0.025618
0.0256187
-0.0620082
0.036391
-0.0995966
0.0375893
-0.137752
0.0381566
-0.177174
0.0394228
-0.218205
0.0410319
-0.261273
0.0430685
-0.306691
0.0454187
-0.354778
0.0480877
0.0509447
-0.405722
-0.0255223
0.051141
-0.0618279
0.0726966
-0.0993461
0.0751076
-0.137435
0.0762455
-0.17679
0.0787775
-0.217754
0.0819958
-0.260752
0.0860672
-0.3061
0.0907661
-0.354117
0.0961047
0.101823
-0.404995
-0.025331
0.076472
-0.0614673
0.108833
-0.0988454
0.112486
-0.1368
0.1142
-0.176021
0.117998
-0.21685
0.122825
-0.259711
0.128928
-0.304917
0.135972
-0.352794
0.143981
0.152567
-0.403537
-0.0250443
0.101516
-0.0609267
0.144715
-0.0980946
0.149654
-0.135849
0.151955
-0.174868
0.157017
-0.215496
0.163453
-0.25815
0.171582
-0.303144
0.180967
-0.350809
0.191645
0.203103
-0.401344
-0.0246627
0.126179
-0.0602063
0.180259
-0.0970943
0.186542
-0.134582
0.189442
-0.173333
0.195768
-0.213692
0.203812
-0.256071
0.213961
-0.300782
0.225678
-0.348161
0.239024
0.253354
-0.398413
-0.0241869
0.150366
-0.0593064
0.215378
-0.0958449
0.22308
-0.132999
0.226597
-0.171417
0.234185
-0.211441
0.243837
-0.253476
0.255996
-0.297832
0.270034
-0.344851
0.286043
0.303246
-0.394742
-0.0236182
0.173984
-0.0582275
0.249988
-0.0943471
0.2592
-0.131103
0.263353
-0.169121
0.272203
-0.208745
0.283461
-0.250368
0.297619
-0.294298
0.313964
-0.34088
0.332625
0.352703
-0.390337
-0.0229588
0.196943
-0.0569701
0.283999
-0.0926018
0.294831
-0.128894
0.299646
-0.166448
0.309756
-0.205606
0.322619
-0.24675
0.338763
-0.290183
0.357396
-0.336256
0.378699
0.401649
-0.385202
-0.0222136
0.219156
-0.0555349
0.31732
-0.0906099
0.329906
-0.126374
0.33541
-0.1634
0.346782
-0.202029
0.361248
-0.242628
0.379362
-0.285494
0.400263
-0.330986
0.42419
0.450009
-0.379345
-0.0213947
0.240551
-0.0539221
0.349848
-0.0883723
0.364357
-0.123545
0.370583
-0.159981
0.383218
-0.198016
0.399283
-0.238006
0.419352
-0.280239
0.442496
-0.325075
0.469026
0.497709
-0.372776
-0.0205025
0.261054
-0.0521311
0.381476
-0.0858898
0.398115
-0.120409
0.405102
-0.156193
0.419002
-0.193573
0.436662
-0.23289
0.45867
-0.274424
0.48403
-0.318533
0.513135
0.544678
-0.365503
-0.0194919
0.280546
-0.0501598
0.412144
-0.0831625
0.431118
-0.116968
0.438907
-0.152041
0.454075
-0.188704
0.473325
-0.227287
0.497253
-0.268056
0.524799
-0.311368
0.556447
0.590848
-0.357537
-0.0183775
0.298923
-0.0480091
0.441776
-0.0801911
0.4633
-0.113225
0.471942
-0.147528
0.488377
-0.183414
0.509211
-0.221203
0.535043
-0.261145
0.564741
-0.30359
0.598892
0.636149
-0.348891
-0.017166
0.316089
-0.045681
0.470291
-0.0769765
0.494596
-0.109183
0.504148
-0.142658
0.521852
-0.17771
0.544263
-0.214647
0.571979
-0.253699
0.603793
-0.295208
0.640401
0.680516
-0.339574
-0.0158613
0.33195
-0.043177
0.497606
-0.0735203
0.524939
-0.104844
0.535472
-0.137437
0.554445
-0.171598
0.578424
-0.207626
0.608007
-0.245728
0.641896
-0.286231
0.680904
0.723882
-0.329597
-0.0144664
0.346417
-0.0404987
0.523639
-0.0698241
0.554264
-0.100213
0.565861
-0.13187
0.586102
-0.165086
0.61164
-0.20015
0.643071
-0.237248
0.678994
-0.276675
0.720331
0.766174
-0.318968
-0.0129837
0.359401
-0.037648
0.548303
-0.0658899
0.582506
-0.0952923
0.595263
-0.125961
0.61677
-0.158178
0.643858
-0.192225
0.677117
-0.228264
0.715033
-0.266534
0.758601
0.807322
-0.307681
-0.0114156
0.370816
-0.034627
0.571515
-0.0617195
0.609599
-0.0900859
0.62363
-0.119717
0.646402
-0.150885
0.675026
-0.183865
0.710097
-0.218818
0.749986
-0.255866
0.795649
0.847204
-0.295749
-0.00976421
0.38058
-0.031438
0.593188
-0.0573153
0.635476
-0.0845979
0.650912
-0.113144
0.674948
-0.143213
0.705095
-0.175066
0.74195
-0.208876
0.783795
-0.244547
0.831321
0.88575
-0.283093
-0.00803155
0.388612
-0.0280839
0.613241
-0.0526797
0.660072
-0.0788325
0.677065
-0.106248
0.702363
-0.135174
0.734021
-0.165852
0.772629
-0.198543
0.816486
-0.232954
0.865732
0.922707
-0.269912
-0.00621897
0.394831
-0.0245676
0.631589
-0.0478154
0.683319
-0.0727944
0.702044
-0.0990351
0.728604
-0.126775
0.761761
-0.156222
0.802076
-0.18768
0.847944
-0.22124
0.899291
0.95747
-0.256003
-0.00432618
0.399157
-0.0208924
0.648156
-0.0427261
0.705153
-0.0664884
0.725807
-0.0915121
0.753628
-0.118026
0.788275
-0.146199
0.830249
-0.176326
0.878071
-0.208581
0.931546
0.991435
-0.242545
-0.00234682
0.401504
-0.0170614
0.66287
-0.0374163
0.725508
-0.0599197
0.74831
-0.0836863
0.777394
-0.108933
0.813521
-0.135798
0.857113
-0.164536
0.906809
-0.195445
0.962456
1.0242
-0.228214
-0.000218515
0.401722
-0.0130777
0.675729
-0.0318922
0.744323
-0.0530941
0.769512
-0.0755656
0.799866
-0.099507
0.837463
-0.125029
0.882636
-0.152354
0.934134
-0.181822
0.991923
1.05552
-0.213138
0.00166979
0.400053
-0.00894262
0.686342
-0.0261654
0.761545
-0.0460173
0.789364
-0.0671586
0.821007
-0.0897571
0.860061
-0.113902
0.90678
-0.139788
0.960021
-0.167758
1.01989
1.08532
-0.197556
0.00364705
0.396406
-0.00463972
0.694628
-0.0202485
0.777154
-0.0386953
0.807811
-0.0584746
0.840786
-0.0796943
0.881281
-0.102425
0.929511
-0.126838
0.984434
-0.153261
1.04632
1.11355
-0.181499
0.00567587
0.39073
-7.6827e-05
0.700381
-0.0141514
0.791229
-0.0311325
0.824792
-0.0495231
0.859177
-0.0693294
0.901087
-0.0906099
0.950792
-0.113513
1.00734
-0.138346
1.07115
1.14017
-0.164963
0.00771987
0.38301
0.00424477
0.703856
-0.00789245
0.803366
-0.0233384
0.840238
-0.0403147
0.876153
-0.0586739
0.919446
-0.0784704
0.970588
-0.0998269
1.02869
-0.123032
1.09436
1.16511
-0.147973
0.00976099
0.373249
0.00876139
0.704856
-0.00150319
0.813631
-0.0153273
0.854062
-0.0308608
0.891687
-0.0477394
0.936325
-0.0660202
0.988869
-0.0857951
1.04847
-0.107335
1.1159
1.18833
-0.130557
0.0117804
0.361468
0.0133692
0.703267
0.00520259
0.821797
-0.00711402
0.866378
-0.0211722
0.905745
-0.0365384
0.951691
-0.0532742
1.0056
-0.0714339
1.06663
-0.0912716
1.13573
1.2098
-0.112737
0.0137531
0.347715
0.018028
0.698992
0.012034
0.827791
0.00127497
0.877137
-0.0112661
0.918286
-0.0250851
0.96551
-0.0402475
1.02077
-0.0567617
1.08314
-0.0748589
1.15383
1.22947
-0.0945337
0.0156489
0.332066
0.0227029
0.691938
0.0189653
0.831529
0.00994715
0.886155
-0.00119869
0.929432
-0.0133981
0.97771
-0.0269565
1.03433
-0.0417999
1.09799
-0.058116
1.17015
1.24733
-0.0759687
0.0174342
0.314632
0.0273567
0.682016
0.0259855
0.8329
0.0187574
0.893384
0.00924747
0.938942
-0.0015241
0.988481
-0.0134179
1.04622
-0.0265733
1.11114
-0.0410581
1.18463
1.26334
-0.057071
0.0190725
0.29556
0.0319469
0.669141
0.0330668
0.83178
0.0277139
0.898736
0.019838
0.946818
0.0106715
0.997648
0.000321976
1.05657
-0.0111163
1.12258
-0.0237048
1.19722
1.27749
-0.0378593
0.0205238
0.275036
0.0364252
0.65324
0.040173
0.828032
0.0367959
0.902113
0.0305857
0.953028
0.0230367
1.0052
0.0143932
1.06521
0.00459492
1.13238
-0.00605293
1.20787
1.28982
-0.0183808
0.0217454
0.25329
0.0407371
0.634248
0.0472604
0.821509
0.0459769
0.903397
0.0414841
0.957521
0.0355691
1.01111
0.0286195
1.07216
0.0206448
1.14035
0.0117162
1.2168
1.30016
0.00137384
0.022694
0.230596
0.0448224
0.61212
0.0542759
0.812056
0.0552261
0.902447
0.0525148
0.960232
0.0482587
1.01537
0.0430157
1.0774
0.036834
1.14653
0.0297325
1.2239
1.30831
0.0215856
0.0233288
0.207268
0.0486151
0.586834
0.0611622
0.799509
0.0645071
0.899102
0.0636551
0.961084
0.0610882
1.01793
0.0575637
1.08093
0.0531852
1.15091
0.0479831
1.2291
1.31442
0.0418793
0.0236165
0.183651
0.0520451
0.558405
0.0678681
0.783686
0.073776
0.893194
0.0748781
0.959982
0.0740374
1.01878
0.0722448
1.08272
0.0696845
1.15347
0.0664041
1.23238
1.31851
0.0623128
0.023536
0.160115
0.0550385
0.526902
0.0743138
0.76441
0.0829784
0.884529
0.0861515
0.956809
0.0870838
1.01784
0.0870391
1.08277
0.0863061
1.15421
0.0849511
1.23374
1.3206
0.0828607
0.023082
0.137033
0.0575237
0.492461
0.080409
0.741525
0.0920478
0.87289
0.0974358
0.951421
0.100202
1.01508
0.101925
1.08104
0.103024
1.15311
0.103606
1.23315
1.3207
0.103505
0.0222664
0.114767
0.0594347
0.455292
0.0860489
0.714911
0.100905
0.858034
0.108681
0.943645
0.113361
1.0104
0.116878
1.07753
0.119815
1.15017
0.122349
1.23062
1.31877
0.124281
0.0211178
0.0936489
0.0605921
0.415818
0.0911153
0.684388
0.109455
0.839695
0.119826
0.933274
0.126525
1.0037
0.131873
1.07218
0.136657
1.14538
0.14115
1.22613
1.31478
0.145136
0.0196796
0.0739693
0.0609099
0.374588
0.0954819
0.649816
0.11758
0.817597
0.13079
0.920064
0.139649
0.994839
0.14688
1.06495
0.153523
1.13874
0.159981
1.21967
1.30873
0.166027
0.0180019
0.0559674
0.0603301
0.33226
0.0990101
0.611136
0.125142
0.791465
0.141478
0.903727
0.152675
0.983643
0.161865
1.05576
0.170386
1.13022
0.178813
1.21124
1.30063
0.18692
0.0161378
0.0398296
0.0588131
0.289584
0.101548
0.568401
0.131977
0.761035
0.151769
0.883936
0.165531
0.969881
0.176786
1.0445
0.187216
1.11979
0.197617
1.20084
1.29046
0.207782
0.0141455
0.0256841
0.0563586
0.247371
0.102933
0.521827
0.137896
0.726072
0.161512
0.86032
0.178123
0.95327
0.191589
1.03104
0.203976
1.1074
0.216364
1.18845
1.27825
0.228579
0.0120963
0.0135879
0.0530225
0.206445
0.103002
0.471848
0.142686
0.686387
0.170527
0.83248
0.19033
0.933467
0.206203
1.01516
0.220623
1.09298
0.235019
1.17406
1.26399
0.24928
0.0100776
0.00351028
0.048923
0.167599
0.101602
0.419169
0.146109
0.64188
0.178592
0.799997
0.201991
0.910067
0.220535
0.996619
0.237106
1.07641
0.253548
1.15761
1.24768
0.26985
0.00818472
-0.00467444
0.0442318
0.131552
0.0986072
0.364794
0.147908
0.592579
0.185437
0.762467
0.212903
0.882601
0.234461
0.975061
0.253356
1.05752
0.271907
1.13906
1.22934
0.290255
0.00649796
-0.0111724
0.0391517
0.0988987
0.0939483
0.309997
0.147813
0.538715
0.190744
0.719536
0.222803
0.850542
0.24781
0.950054
0.269275
1.03605
0.29004
1.1183
1.20892
0.310455
0.0050615
-0.0162339
0.0338993
0.0700608
0.0876522
0.256244
0.145559
0.480808
0.194141
0.670955
0.23136
0.813323
0.26035
0.921064
0.284726
1.01168
0.307872
1.09515
1.18638
0.330412
0.00387547
-0.0201094
0.0286971
0.0452392
0.0798961
0.205045
0.140921
0.419784
0.195216
0.616659
0.238167
0.770372
0.271774
0.887458
0.299521
0.983931
0.325297
1.06937
1.16163
0.350053
0.00290856
-0.0230179
0.0237632
0.0243845
0.0710382
0.15777
0.133755
0.357067
0.19354
0.556874
0.242735
0.721177
0.281674
0.848518
0.313384
0.95222
0.342169
1.04059
1.13447
0.369329
0.0021206
-0.0251385
0.0192819
0.00722325
0.0615782
0.115474
0.12409
0.294555
0.188704
0.49226
0.244496
0.665385
0.289525
0.803489
0.32595
0.915795
0.358237
1.0083
1.10461
0.38809
0.0014788
-0.0266173
0.0153718
-0.00666972
0.0520629
0.0787828
0.112213
0.234405
0.180392
0.424081
0.24283
0.602947
0.294661
0.751659
0.336696
0.87376
0.373224
0.971775
1.07167
0.406167
0.000961704
-0.027579
0.0120707
-0.0177787
0.0430023
0.0478511
0.0987227
0.178684
0.168485
0.354319
0.237115
0.534318
0.296283
0.69249
0.344953
0.825089
0.386505
0.930223
1.03472
0.423457
0.000555374
-0.0281344
0.0093483
-0.0265716
0.0348011
0.0223983
0.0844648
0.129021
0.153212
0.285572
0.226846
0.460684
0.293443
0.625893
0.34988
0.768652
0.397551
0.882553
0.993447
0.438822
0.000248438
-0.0283829
0.00713792
-0.0334611
0.0276978
0.00183848
0.0703752
0.0863432
0.135273
0.220674
0.211768
0.384188
0.285253
0.552407
0.350303
0.703602
0.4052
0.827656
0.944853
0.453794
3.06215e-05
-0.0284135
0.0053623
-0.0387928
0.0217476
-0.0145468
0.057274
0.0508168
0.115837
0.162111
0.192164
0.307862
0.270848
0.473723
0.345541
0.628909
0.407142
0.766055
0.888845
0.463149
-0.000136397
-0.0282771
0.00394386
-0.042873
0.0168654
-0.0274684
0.0457016
0.0219806
0.0963252
0.111487
0.169013
0.235174
0.250052
0.392685
0.333396
0.545566
0.405606
0.693845
0.832179
0.462272
-0.000246141
-0.0280309
0.0028082
-0.0459274
0.0128933
-0.0375535
0.0358637
-0.000989739
0.0780479
0.0693028
0.14394
0.169282
0.223595
0.31303
0.312736
0.456425
0.396973
0.609608
0.767135
0.462017
-0.000320147
-0.0277108
0.001885
-0.0481325
0.00965105
-0.0453195
0.0276889
-0.0190276
0.0618879
0.0351038
0.118806
0.112364
0.193192
0.238644
0.283596
0.36602
0.378236
0.514968
0.691625
0.453746
-0.000378634
-0.0273322
0.00110791
-0.049619
0.00696226
-0.0511739
0.0209387
-0.033004
0.0481494
0.00789307
0.0951395
0.0653739
0.161327
0.172457
0.247528
0.27982
0.348341
0.414155
0.605113
0.434852
-0.000438405
-0.0268937
0.00041719
-0.0504746
0.00466703
-0.0554237
0.0153051
-0.0436421
0.0366419
-0.0134438
0.0738433
0.0281726
0.130563
0.115737
0.207478
0.202905
0.308007
0.313626
0.509011
0.404109
-0.000511788
-0.026382
-0.000238827
-0.0507476
0.00262954
-0.0582921
0.0104816
-0.0514941
0.0269269
-0.0298891
0.055299
-0.000199579
0.102619
0.0684177
0.166976
0.138547
0.260392
0.220211
0.40747
0.361932
-0.00060979
-0.0257722
-0.000900959
-0.0504564
0.000747325
-0.0599404
0.00620963
-0.0569564
0.018554
-0.0422334
0.0395228
-0.0211685
0.0780093
0.0299313
0.129221
0.0873351
0.210433
0.138999
0.30736
0.310543
-0.000741467
-0.0250307
-0.00158799
-0.0496099
-0.00107773
-0.0604507
0.00229503
-0.0603292
0.0111839
-0.0511222
0.0262096
-0.0361942
0.056519
-0.000378119
0.0963044
0.0475498
0.162753
0.0725497
0.216417
0.253697
-0.000906478
-0.0241242
-0.00231248
-0.0482039
-0.00288356
-0.0598796
-0.00135001
-0.0618627
0.00458254
-0.0570548
0.0148488
-0.0464605
0.0377827
-0.0233121
0.0686049
0.0167276
0.119807
0.0213474
0.140348
0.195876
-0.00110235
-0.0230219
-0.00307459
-0.0462317
-0.00467368
-0.0582805
-0.00475119