/*--------------------------------*- C++ -*----------------------------------*\
  =========                 |
  \\      /  F ield         | OpenFOAM: The Open Source CFD Toolbox
   \\    /   O peration     | Website:  https://openfoam.org
    \\  /    A nd           | Version:  9
     \\/     M anipulation  |
\*---------------------------------------------------------------------------*/
FoamFile
{
    format      ascii;
    class       volScalarField;
    location    "48";
    object      p;
}
// * * * * * * * * * * * * * * * * * * * * * * * * * * * * * * * * * * * * * //

dimensions      [0 2 -2 0 0 0 0];

internalField   nonuniform List<scalar> 
8500
(
-0.278648
-0.282861
-0.283697
-0.285444
-0.287529
-0.287775
-0.291527
-0.287903
-0.294073
-0.286758
-0.278912
-0.283064
-0.283894
-0.28561
-0.287727
-0.287869
-0.291824
-0.287838
-0.294485
-0.286645
-0.279435
-0.283466
-0.284281
-0.285934
-0.288115
-0.288046
-0.292409
-0.287692
-0.295306
-0.286417
-0.280202
-0.284055
-0.284847
-0.2864
-0.288677
-0.288286
-0.293262
-0.287436
-0.296523
-0.28607
-0.281195
-0.284816
-0.285571
-0.286987
-0.289387
-0.288564
-0.294349
-0.287032
-0.298113
-0.285601
-0.282392
-0.28573
-0.286432
-0.287668
-0.290209
-0.288852
-0.295617
-0.286446
-0.300036
-0.284992
-0.283766
-0.286777
-0.287404
-0.288415
-0.291101
-0.289129
-0.296988
-0.285648
-0.302235
-0.284182
-0.285291
-0.287934
-0.288459
-0.289197
-0.292011
-0.289379
-0.298369
-0.284625
-0.304619
-0.283164
-0.286941
-0.289181
-0.289567
-0.289991
-0.292881
-0.289599
-0.299644
-0.283451
-0.30675
-0.282145
-0.288693
-0.290498
-0.290703
-0.290774
-0.293654
-0.289805
-0.300594
-0.282356
-0.30855
-0.28075
-0.290527
-0.29187
-0.291839
-0.291531
-0.294273
-0.290084
-0.301086
-0.281234
-0.309978
-0.279134
-0.292431
-0.293285
-0.292959
-0.292253
-0.294635
-0.290479
-0.301134
-0.280156
-0.310628
-0.277774
-0.294398
-0.294738
-0.29405
-0.292959
-0.29476
-0.290863
-0.300735
-0.279443
-0.309952
-0.277225
-0.296432
-0.296228
-0.295104
-0.293625
-0.294705
-0.291182
-0.299825
-0.279258
-0.307557
-0.277518
-0.298544
-0.297763
-0.296134
-0.294233
-0.294516
-0.291416
-0.298466
-0.279523
-0.303423
-0.27785
-0.30076
-0.299349
-0.297176
-0.294788
-0.294245
-0.291373
-0.296784
-0.27987
-0.298048
-0.277126
-0.303115
-0.301008
-0.29826
-0.29532
-0.293967
-0.291014
-0.294865
-0.279913
-0.292077
-0.274823
-0.305647
-0.302772
-0.29942
-0.29587
-0.293742
-0.290359
-0.29268
-0.279456
-0.285767
-0.270955
-0.308407
-0.304674
-0.3007
-0.296475
-0.293576
-0.289519
-0.290136
-0.278426
-0.279049
-0.265943
-0.31145
-0.306757
-0.30215
-0.29716
-0.29343
-0.288614
-0.287212
-0.276683
-0.271967
-0.260567
-0.314831
-0.309069
-0.303821
-0.297924
-0.293276
-0.287684
-0.283982
-0.274001
-0.265139
-0.255315
-0.318595
-0.311679
-0.305753
-0.298755
-0.293148
-0.286667
-0.280528
-0.270325
-0.25901
-0.248795
-0.322815
-0.314639
-0.307951
-0.29966
-0.293101
-0.285443
-0.276881
-0.265921
-0.252857
-0.242055
-0.327557
-0.318015
-0.310377
-0.300722
-0.293132
-0.283905
-0.273041
-0.260925
-0.246704
-0.235269
-0.332881
-0.321857
-0.312981
-0.30207
-0.293151
-0.281994
-0.268962
-0.255537
-0.240436
-0.228394
-0.338856
-0.326178
-0.315766
-0.303781
-0.293037
-0.279681
-0.264622
-0.249849
-0.23403
-0.221494
-0.345554
-0.330929
-0.318844
-0.305777
-0.292688
-0.276963
-0.260004
-0.243925
-0.227486
-0.214503
-0.353048
-0.336014
-0.322419
-0.307858
-0.292027
-0.273845
-0.2551
-0.237786
-0.220791
-0.207419
-0.361379
-0.341329
-0.326674
-0.309806
-0.290983
-0.270329
-0.2499
-0.231435
-0.21394
-0.200204
-0.370522
-0.346812
-0.331653
-0.311468
-0.289489
-0.266409
-0.244395
-0.224863
-0.206915
-0.192837
-0.380361
-0.352477
-0.337177
-0.312747
-0.287479
-0.262067
-0.238567
-0.21805
-0.199697
-0.185291
-0.390671
-0.3584
-0.342858
-0.313566
-0.284902
-0.257274
-0.232392
-0.210976
-0.192264
-0.177544
-0.401121
-0.364679
-0.348209
-0.313835
-0.281713
-0.251992
-0.225843
-0.203616
-0.184591
-0.169577
-0.411392
-0.371376
-0.352771
-0.313441
-0.277872
-0.246186
-0.218889
-0.195942
-0.176657
-0.161369
-0.42118
-0.378456
-0.356191
-0.312251
-0.273339
-0.239819
-0.211495
-0.187926
-0.168441
-0.152904
-0.430228
-0.385748
-0.358248
-0.310129
-0.268067
-0.23286
-0.20363
-0.179541
-0.159921
-0.144165
-0.438333
-0.392927
-0.358838
-0.30695
-0.262005
-0.225275
-0.195263
-0.170761
-0.151076
-0.135138
-0.445336
-0.399537
-0.357948
-0.302612
-0.2551
-0.21703
-0.186367
-0.161564
-0.141889
-0.125817
-0.451108
-0.405053
-0.355604
-0.297048
-0.247298
-0.208091
-0.176915
-0.151928
-0.132345
-0.116213
-0.455541
-0.408998
-0.351789
-0.290208
-0.23855
-0.198427
-0.166885
-0.141837
-0.122432
-0.106349
-0.458534
-0.411037
-0.346381
-0.282049
-0.228814
-0.188007
-0.156259
-0.131273
-0.112137
-0.0962436
-0.45998
-0.41089
-0.339288
-0.272526
-0.218056
-0.176806
-0.14502
-0.120221
-0.101454
-0.0858738
-0.459748
-0.408356
-0.330448
-0.261601
-0.206246
-0.164807
-0.133155
-0.108671
-0.0903904
-0.075179
-0.457682
-0.4033
-0.319816
-0.249249
-0.193366
-0.151994
-0.12065
-0.096611
-0.0789903
-0.0640788
-0.453594
-0.395631
-0.307342
-0.235469
-0.179403
-0.138353
-0.107495
-0.0840449
-0.0672995
-0.0525504
-0.447278
-0.38529
-0.292988
-0.220267
-0.164344
-0.12388
-0.0936968
-0.0710112
-0.0552934
-0.0407262
-0.438517
-0.372242
-0.276732
-0.20364
-0.148173
-0.108597
-0.0792936
-0.0575908
-0.0428596
-0.0286983
-0.427101
-0.35647
-0.258568
-0.185587
-0.130898
-0.0925671
-0.0643499
-0.0437621
-0.0300064
-0.0164727
-0.412836
-0.337974
-0.238489
-0.166129
-0.112604
-0.0758489
-0.0488233
-0.0295347
-0.0167801
-0.00405603
-0.395561
-0.316771
-0.216484
-0.145352
-0.0934437
-0.0583438
-0.032755
-0.0149221
-0.00322858
0.0085382
-0.37516
-0.29292
-0.192553
-0.123409
-0.0733564
-0.0401071
-0.0161852
5.13651e-05
0.0106053
0.0212833
-0.351566
-0.266549
-0.166779
-0.100273
-0.0523868
-0.0211982
0.000842551
0.015353
0.0246802
0.0341428
-0.324766
-0.237825
-0.139351
-0.0758577
-0.0305931
-0.00168335
0.0182804
0.0309432
0.0389562
0.0470723
-0.294809
-0.206779
-0.110405
-0.0502813
-0.00804268
0.0183672
0.0360741
0.046778
0.0533968
0.0600273
-0.261814
-0.173149
-0.0803345
-0.0236871
0.0151902
0.0388785
0.0541631
0.062812
0.0679709
0.0729641
-0.225957
-0.137241
-0.0490891
0.00377494
0.0390189
0.0597706
0.0724825
0.0790038
0.0826461
0.0858123
-0.187337
-0.0994623
-0.0167205
0.0319585
0.0633434
0.0809585
0.0909671
0.0953194
0.097367
0.0983983
-0.145922
-0.0604464
0.0166417
0.060721
0.0880528
0.102352
0.109555
0.111725
0.112021
0.110386
-0.102196
-0.0203522
0.0508178
0.0899195
0.113027
0.123859
0.128185
0.128162
0.126434
0.121486
-0.0565185
0.0206289
0.0856038
0.119405
0.138142
0.145384
0.146789
0.14452
0.140442
0.132016
-0.00926826
0.06226
0.12078
0.149021
0.163265
0.166829
0.165284
0.160657
0.153994
0.143294
0.0391523
0.104277
0.156117
0.178604
0.188263
0.188094
0.183571
0.176463
0.167291
0.155102
0.0883243
0.146399
0.191381
0.207983
0.213001
0.209073
0.201555
0.191906
0.180381
0.166952
0.137817
0.188333
0.226334
0.236984
0.237341
0.229658
0.219142
0.20694
0.193211
0.178668
0.187192
0.229781
0.260738
0.265433
0.261144
0.249738
0.236243
0.221516
0.205708
0.190068
0.23601
0.270442
0.294358
0.293151
0.284272
0.269203
0.252772
0.235579
0.217804
0.201057
0.283834
0.310016
0.32696
0.319963
0.306589
0.287945
0.268645
0.249066
0.229433
0.211555
0.330234
0.348211
0.358319
0.345698
0.32796
0.305856
0.28378
0.261913
0.240529
0.221502
0.374791
0.384748
0.388215
0.370188
0.348256
0.322835
0.298098
0.274057
0.251034
0.230849
0.417095
0.419366
0.416441
0.39327
0.36735
0.338781
0.311522
0.285437
0.260888
0.239554
0.45677
0.451808
0.442798
0.414791
0.385123
0.353601
0.32398
0.295994
0.270038
0.247578
0.493518
0.481786
0.467098
0.434604
0.401463
0.367208
0.335403
0.305672
0.278432
0.254888
0.527042
0.509044
0.489163
0.452573
0.416265
0.379519
0.345727
0.314419
0.286022
0.261452
0.557051
0.533365
0.508834
0.468576
0.429435
0.39046
0.354894
0.322186
0.292765
0.267244
0.583283
0.554563
0.525969
0.482503
0.440888
0.399966
0.362852
0.32893
0.298621
0.272243
0.605505
0.572477
0.540443
0.494258
0.450548
0.407978
0.369556
0.334611
0.303555
0.276432
0.623524
0.586974
0.55215
0.50376
0.458353
0.414448
0.374967
0.339197
0.307538
0.279796
0.637178
0.597942
0.561006
0.510944
0.464253
0.419335
0.379053
0.342661
0.310547
0.282325
0.646349
0.605301
0.566946
0.515761
0.468207
0.42261
0.381791
0.344981
0.312563
0.284014
0.650954
0.608994
0.569927
0.518178
0.470191
0.424253
0.383163
0.346145
0.313574
0.284859
0.650954
0.608994
0.569927
0.518178
0.470191
0.424252
0.383163
0.346145
0.313574
0.284859
0.646349
0.6053
0.566946
0.515761
0.468207
0.42261
0.381791
0.344981
0.312562
0.284014
0.637178
0.597942
0.561006
0.510944
0.464253
0.419335
0.379053
0.342661
0.310546
0.282325
0.623523
0.586973
0.55215
0.50376
0.458353
0.414447
0.374967
0.339197
0.307538
0.279795
0.605505
0.572477
0.540443
0.494257
0.450548
0.407978
0.369556
0.334611
0.303555
0.276431
0.583282
0.554563
0.525969
0.482503
0.440888
0.399966
0.362852
0.32893
0.298621
0.272243
0.557051
0.533364
0.508834
0.468576
0.429435
0.39046
0.354894
0.322186
0.292765
0.267244
0.527042
0.509044
0.489163
0.452573
0.416265
0.379518
0.345726
0.314418
0.286022
0.261451
0.493518
0.481786
0.467097
0.434604
0.401463
0.367207
0.335402
0.305671
0.278432
0.254887
0.45677
0.451807
0.442798
0.414791
0.385123
0.353601
0.32398
0.295993
0.270038
0.247578
0.417094
0.419365
0.416441
0.39327
0.367349
0.338781
0.311522
0.285436
0.260888
0.239554
0.37479
0.384747
0.388215
0.370187
0.348255
0.322834
0.298097
0.274056
0.251033
0.230849
0.330234
0.34821
0.358318
0.345698
0.32796
0.305856
0.283779
0.261912
0.240529
0.221502
0.283833
0.310015
0.32696
0.319963
0.306589
0.287944
0.268644
0.249065
0.229432
0.211554
0.236009
0.270441
0.294357
0.29315
0.284272
0.269203
0.252771
0.235579
0.217804
0.201057
0.187191
0.22978
0.260738
0.265432
0.261144
0.249738
0.236242
0.221516
0.205707
0.190068
0.137816
0.188333
0.226333
0.236984
0.237341
0.229658
0.219142
0.206939
0.193211
0.178668
0.0883232
0.146398
0.19138
0.207982
0.213001
0.209073
0.201555
0.191906
0.180381
0.166952
0.0391512
0.104276
0.156116
0.178603
0.188263
0.188093
0.18357
0.176463
0.16729
0.155101
-0.00926944
0.062259
0.120779
0.14902
0.163264
0.166829
0.165283
0.160656
0.153993
0.143294
-0.0565198
0.0206279
0.0856029
0.119404
0.138141
0.145383
0.146789
0.144519
0.140442
0.132016
-0.102198
-0.0203533
0.0508169
0.0899187
0.113027
0.123859
0.128184
0.128162
0.126433
0.121485
-0.145923
-0.0604475
0.0166407
0.0607201
0.088052
0.102352
0.109554
0.111725
0.112021
0.110385
-0.187339
-0.0994635
-0.0167215
0.0319575
0.0633426
0.0809577
0.0909665
0.0953188
0.0973665
0.0983978
-0.225958
-0.137242
-0.0490902
0.00377399
0.039018
0.0597699
0.0724818
0.0790032
0.0826455
0.0858117
-0.261815
-0.17315
-0.0803357
-0.0236881
0.0151893
0.0388777
0.0541623
0.0628114
0.0679703
0.0729635
-0.29481
-0.206781
-0.110406
-0.0502823
-0.00804361
0.0183664
0.0360733
0.0467773
0.0533962
0.0600267
-0.324768
-0.237826
-0.139352
-0.0758588
-0.030594
-0.00168422
0.0182796
0.0309425
0.0389555
0.0470717
-0.351568
-0.26655
-0.16678
-0.100274
-0.0523878
-0.0211991
0.000841728
0.0153523
0.0246795
0.0341421
-0.375162
-0.292922
-0.192554
-0.12341
-0.0733574
-0.040108
-0.016186
5.0588e-05
0.0106046
0.0212827
-0.395563
-0.316773
-0.216486
-0.145354
-0.0934448
-0.0583448
-0.0327559
-0.0149229
-0.00322931
0.00853754
-0.412838
-0.337975
-0.238491
-0.16613
-0.112605
-0.0758499
-0.0488242
-0.0295355
-0.0167809
-0.00405671
-0.427103
-0.356472
-0.258569
-0.185588
-0.130899
-0.0925681
-0.0643508
-0.0437629
-0.0300072
-0.0164734
-0.438519
-0.372243
-0.276734
-0.203641
-0.148174
-0.108598
-0.0792946
-0.0575917
-0.0428604
-0.028699
-0.44728
-0.385291
-0.292989
-0.220268
-0.164345
-0.123881
-0.0936978
-0.0710121
-0.0552943
-0.040727
-0.453596
-0.395632
-0.307343
-0.235471
-0.179405
-0.138355
-0.107496
-0.0840458
-0.0673004
-0.0525512
-0.457684
-0.403302
-0.319817
-0.24925
-0.193368
-0.151995
-0.120651
-0.0966119
-0.0789911
-0.0640796
-0.45975
-0.408358
-0.33045
-0.261602
-0.206247
-0.164809
-0.133156
-0.108672
-0.0903913
-0.0751798
-0.459981
-0.410891
-0.339289
-0.272528
-0.218057
-0.176808
-0.145021
-0.120222
-0.101455
-0.0858747
-0.458536
-0.411038
-0.346383
-0.282051
-0.228816
-0.188008
-0.15626
-0.131274
-0.112138
-0.0962445
-0.455543
-0.409
-0.351791
-0.29021
-0.238551
-0.198428
-0.166887
-0.141838
-0.122433
-0.10635
-0.45111
-0.405055
-0.355606
-0.29705
-0.247299
-0.208093
-0.176917
-0.15193
-0.132346
-0.116214
-0.445338
-0.399539
-0.35795
-0.302614
-0.255101
-0.217031
-0.186368
-0.161565
-0.14189
-0.125818
-0.438335
-0.392929
-0.35884
-0.306952
-0.262007
-0.225276
-0.195265
-0.170762
-0.151077
-0.135139
-0.43023
-0.38575
-0.358249
-0.310131
-0.268069
-0.232862
-0.203631
-0.179542
-0.159922
-0.144166
-0.421182
-0.378458
-0.356192
-0.312253
-0.273341
-0.239821
-0.211496
-0.187928
-0.168442
-0.152905
-0.411394
-0.371378
-0.352773
-0.313443
-0.277874
-0.246187
-0.21889
-0.195943
-0.176659
-0.16137
-0.401123
-0.364681
-0.348211
-0.313837
-0.281714
-0.251994
-0.225845
-0.203617
-0.184593
-0.169578
-0.390673
-0.358402
-0.34286
-0.313568
-0.284904
-0.257275
-0.232394
-0.210977
-0.192265
-0.177546
-0.380363
-0.352479
-0.337179
-0.312749
-0.287481
-0.262069
-0.238568
-0.218052
-0.199699
-0.185292
-0.370524
-0.346814
-0.331655
-0.31147
-0.28949
-0.266411
-0.244397
-0.224864
-0.206917
-0.192838
-0.361381
-0.341331
-0.326676
-0.309808
-0.290985
-0.27033
-0.249902
-0.231437
-0.213942
-0.200206
-0.35305
-0.336016
-0.32242
-0.30786
-0.292028
-0.273847
-0.255102
-0.237788
-0.220793
-0.207421
-0.345556
-0.330931
-0.318846
-0.305779
-0.292689
-0.276965
-0.260006
-0.243927
-0.227488
-0.214505
-0.338857
-0.32618
-0.315767
-0.303782
-0.293039
-0.279683
-0.264625
-0.249851
-0.234032
-0.221496
-0.332883
-0.321859
-0.312983
-0.302072
-0.293153
-0.281996
-0.268965
-0.255539
-0.240438
-0.228396
-0.327559
-0.318016
-0.310379
-0.300723
-0.293134
-0.283907
-0.273044
-0.260928
-0.246707
-0.235272
-0.322817
-0.314641
-0.307953
-0.299662
-0.293103
-0.285445
-0.276884
-0.265924
-0.25286
-0.242057
-0.318596
-0.31168
-0.305755
-0.298756
-0.29315
-0.286669
-0.28053
-0.270328
-0.259013
-0.248798
-0.314833
-0.30907
-0.303823
-0.297926
-0.293278
-0.287686
-0.283985
-0.274004
-0.265142
-0.255318
-0.311452
-0.306758
-0.302151
-0.297161
-0.293432
-0.288617
-0.287215
-0.276687
-0.271971
-0.260571
-0.308409
-0.304676
-0.300701
-0.296477
-0.293579
-0.289522
-0.290139
-0.27843
-0.279054
-0.265947
-0.305649
-0.302773
-0.299422
-0.295872
-0.293745
-0.290362
-0.292683
-0.27946
-0.285772
-0.27096
-0.303117
-0.30101
-0.298262
-0.295322
-0.293969
-0.291017
-0.294868
-0.279917
-0.292082
-0.274828
-0.300762
-0.299351
-0.297178
-0.29479
-0.294248
-0.291376
-0.296787
-0.279875
-0.298053
-0.277132
-0.298546
-0.297765
-0.296136
-0.294235
-0.294519
-0.291419
-0.29847
-0.279528
-0.303429
-0.277856
-0.296434
-0.29623
-0.295106
-0.293627
-0.294707
-0.291185
-0.299829
-0.279263
-0.307563
-0.277524
-0.2944
-0.294739
-0.294051
-0.292961
-0.294762
-0.290866
-0.300739
-0.279448
-0.309958
-0.277232
-0.292432
-0.293286
-0.292961
-0.292255
-0.294637
-0.290482
-0.301138
-0.280161
-0.310633
-0.277781
-0.290529
-0.291871
-0.291841
-0.291532
-0.294276
-0.290087
-0.30109
-0.281239
-0.309984
-0.279141
-0.288695
-0.290499
-0.290704
-0.290775
-0.293657
-0.289808
-0.300597
-0.28236
-0.308556
-0.280757
-0.286943
-0.289182
-0.289569
-0.289992
-0.292883
-0.289602
-0.299647
-0.283456
-0.306755
-0.282151
-0.285293
-0.287935
-0.28846
-0.289199
-0.292013
-0.289381
-0.298373
-0.284629
-0.304624
-0.28317
-0.283767
-0.286778
-0.287405
-0.288416
-0.291103
-0.289131
-0.296991
-0.285651
-0.30224
-0.284188
-0.282393
-0.285731
-0.286433
-0.28767
-0.290211
-0.288854
-0.295619
-0.286449
-0.30004
-0.284996
-0.281196
-0.284817
-0.285572
-0.286988
-0.289388
-0.288566
-0.294351
-0.287035
-0.298117
-0.285605
-0.280203
-0.284055
-0.284847
-0.286401
-0.288678
-0.288288
-0.293264
-0.287438
-0.296526
-0.286074
-0.279435
-0.283466
-0.284282
-0.285934
-0.288116
-0.288047
-0.29241
-0.287694
-0.295308
-0.286419
-0.278913
-0.283065
-0.283894
-0.28561
-0.287727
-0.287869
-0.291825
-0.287839
-0.294486
-0.286646
-0.278648
-0.282861
-0.283697
-0.285444
-0.287529
-0.287775
-0.291527
-0.287903
-0.294073
-0.286759
-0.294094
-0.284477
-0.285401
-0.277361
-0.273063
-0.264231
-0.256197
-0.245317
-0.233901
-0.220324
-0.205574
-0.189235
-0.171505
-0.153192
-0.133801
-0.115341
-0.0967279
-0.0804242
-0.0651766
-0.0524966
-0.04186
-0.0327838
-0.026272
-0.0197146
-0.016213
-0.0110239
-0.00904712
-0.00489826
-0.00351643
-0.000827941
-0.294334
-0.284613
-0.285502
-0.277483
-0.273165
-0.264348
-0.256311
-0.245439
-0.234023
-0.220449
-0.205697
-0.189357
-0.171621
-0.153304
-0.133905
-0.11544
-0.0968177
-0.0805036
-0.0652456
-0.0525507
-0.0419027
-0.032814
-0.0262967
-0.0197342
-0.0162329
-0.0110402
-0.00906041
-0.00490679
-0.00352229
-0.000834454
-0.294785
-0.284868
-0.285696
-0.277714
-0.273369
-0.264573
-0.256532
-0.245673
-0.23426
-0.220694
-0.205941
-0.189601
-0.171855
-0.15353
-0.134115
-0.115635
-0.096991
-0.0806557
-0.0653775
-0.052656
-0.0419894
-0.032879
-0.0263509
-0.0197763
-0.0162721
-0.0110709
-0.00908533
-0.0049238
-0.00353465
-0.000847684
-0.295401
-0.285212
-0.285967
-0.27804
-0.273645
-0.264895
-0.256846
-0.24601
-0.234601
-0.221047
-0.206295
-0.189956
-0.172197
-0.153863
-0.134422
-0.11592
-0.0972505
-0.0808796
-0.0655722
-0.0528134
-0.0421213
-0.0329804
-0.0264358
-0.0198421
-0.016331
-0.0111168
-0.00912205
-0.00494973
-0.00355353
-0.000867326
-0.296111
-0.285588
-0.286298
-0.278426
-0.274007
-0.26529
-0.257243
-0.246433
-0.235033
-0.221496
-0.206745
-0.190412
-0.17264
-0.154295
-0.134823
-0.116291
-0.0975878
-0.081174
-0.0658299
-0.0530241
-0.0422997
-0.0331201
-0.0265529
-0.0199334
-0.0164103
-0.0111789
-0.00917078
-0.0049852
-0.00357891
-0.000892934
-0.296833
-0.285979
-0.286645
-0.278862
-0.274394
-0.265749
-0.257689
-0.246927
-0.235535
-0.222025
-0.20728
-0.190953
-0.173164
-0.154808
-0.135312
-0.116744
-0.0980019
-0.0815375
-0.0661512
-0.0532898
-0.0425267
-0.0333005
-0.0267038
-0.0200522
-0.0165106
-0.0112583
-0.00923178
-0.00503091
-0.00361072
-0.000923937
-0.297537
-0.286251
-0.287011
-0.279273
-0.274822
-0.266215
-0.258193
-0.247455
-0.236094
-0.222606
-0.207871
-0.19156
-0.173768
-0.155398
-0.135875
-0.117272
-0.0984891
-0.0819692
-0.0665369
-0.0536123
-0.0428044
-0.0335243
-0.0268905
-0.0202006
-0.0166329
-0.0113562
-0.0093053
-0.00508759
-0.00364882
-0.000959661
-0.297961
-0.286564
-0.287253
-0.279711
-0.275189
-0.26672
-0.25867
-0.248027
-0.236668
-0.223237
-0.208512
-0.192221
-0.174424
-0.15605
-0.136505
-0.117867
-0.0990471
-0.0824678
-0.066988
-0.0539938
-0.043135
-0.0337939
-0.0271147
-0.0203807
-0.0167779
-0.0114737
-0.00939157
-0.00515588
-0.00369301
-0.000999355
-0.298015
-0.286832
-0.287336
-0.280112
-0.275496
-0.267193
-0.259144
-0.248589
-0.237255
-0.223879
-0.209174
-0.192916
-0.175124
-0.156752
-0.137193
-0.118524
-0.0996731
-0.0830328
-0.0675055
-0.0544362
-0.0435205
-0.0341116
-0.0273781
-0.020594
-0.0169462
-0.011612
-0.00949073
-0.00523627
-0.00374297
-0.00104222
-0.29768
-0.286951
-0.28728
-0.280396
-0.275733
-0.267601
-0.259566
-0.249123
-0.23782
-0.224517
-0.209842
-0.193628
-0.175852
-0.157493
-0.137932
-0.119239
-0.100364
-0.0836636
-0.0680899
-0.054941
-0.0439626
-0.0344792
-0.0276819
-0.020842
-0.0171385
-0.0117717
-0.00960282
-0.00532907
-0.00379831
-0.00108745
-0.296667
-0.286924
-0.286997
-0.280537
-0.275827
-0.267916
-0.259916
-0.249599
-0.238342
-0.225128
-0.210495
-0.19434
-0.176596
-0.158261
-0.138715
-0.120005
-0.101118
-0.0843591
-0.0687414
-0.055509
-0.044462
-0.0348976
-0.0280269
-0.0211254
-0.0173548
-0.0119531
-0.00972775
-0.00543437
-0.0038586
-0.00113425
-0.294789
-0.286643
-0.286446
-0.280474
-0.275784
-0.268073
-0.260148
-0.249981
-0.238793
-0.225687
-0.211114
-0.195037
-0.177341
-0.159049
-0.139533
-0.120818
-0.101932
-0.0851178
-0.0694591
-0.0561401
-0.0450187
-0.0353669
-0.028413
-0.0214442
-0.0175952
-0.0121563
-0.0098653
-0.00555198
-0.00392333
-0.00118187
-0.292068
-0.285962
-0.285594
-0.280116
-0.275486
-0.268074
-0.260252
-0.250246
-0.239153
-0.226172
-0.211681
-0.195702
-0.178077
-0.159845
-0.140381
-0.121674
-0.102802
-0.0859375
-0.0702411
-0.0568329
-0.0456316
-0.0358862
-0.0288393
-0.0217977
-0.0178593
-0.0123808
-0.0100151
-0.00568152
-0.003992
-0.00122965
-0.288902
-0.284683
-0.284344
-0.27945
-0.274985
-0.267778
-0.260136
-0.250354
-0.239388
-0.226563
-0.212179
-0.196321
-0.178793
-0.160642
-0.141253
-0.122568
-0.103724
-0.0868151
-0.0710843
-0.0575851
-0.0462983
-0.0364535
-0.0293045
-0.0221848
-0.0181462
-0.0126257
-0.0101766
-0.00582237
-0.00406412
-0.00127704
-0.285527
-0.282742
-0.282639
-0.27839
-0.274166
-0.267368
-0.259864
-0.250303
-0.239488
-0.226845
-0.212596
-0.196885
-0.179481
-0.161434
-0.142142
-0.123495
-0.104694
-0.0877466
-0.0719847
-0.0583928
-0.0470156
-0.037066
-0.0298061
-0.0226034
-0.0184548
-0.01289
-0.0103492
-0.00597374
-0.00413921
-0.00132358
-0.28186
-0.280213
-0.280408
-0.276865
-0.272926
-0.266377
-0.259234
-0.250016
-0.239418
-0.227
-0.212922
-0.197388
-0.180134
-0.162215
-0.143045
-0.124451
-0.105706
-0.0887269
-0.0729369
-0.0592514
-0.0477793
-0.0377202
-0.0303415
-0.0230512
-0.0187837
-0.0131722
-0.0105321
-0.00613467
-0.00421684
-0.00136897
-0.278037
-0.277056
-0.277665
-0.274942
-0.271483
-0.265583
-0.25853
-0.249585
-0.2392
-0.227026
-0.213149
-0.19782
-0.180747
-0.162981
-0.143956
-0.125432
-0.106756
-0.0897522
-0.0739364
-0.0601564
-0.0485849
-0.0384118
-0.0309072
-0.0235251
-0.0191309
-0.0134704
-0.0107244
-0.00630404
-0.00429662
-0.00141301
-0.273998
-0.273363
-0.274339
-0.272402
-0.269385
-0.263873
-0.257227
-0.248808
-0.238772
-0.226915
-0.213288
-0.198198
-0.181335
-0.16374
-0.144877
-0.126436
-0.107837
-0.0908117
-0.0749712
-0.0610967
-0.0494229
-0.0391331
-0.0314978
-0.0240209
-0.0194944
-0.0137827
-0.0109252
-0.00648103
-0.00437843
-0.00145572
-0.269791
-0.269395
-0.270873
-0.269846
-0.267441
-0.262565
-0.256339
-0.248047
-0.238247
-0.226675
-0.213303
-0.198465
-0.181837
-0.16444
-0.145766
-0.127431
-0.108927
-0.0918958
-0.0760402
-0.062075
-0.0502997
-0.03989
-0.0321194
-0.0245428
-0.0198771
-0.014111
-0.0111357
-0.00666581
-0.00446221
-0.00149702
-0.265834
-0.264632
-0.266156
-0.265969
-0.26425
-0.260055
-0.254121
-0.246731
-0.237479
-0.226372
-0.213372
-0.198869
-0.182525
-0.165349
-0.146866
-0.128626
-0.1102
-0.0931339
-0.0772296
-0.0631459
-0.0512397
-0.0406928
-0.0327681
-0.0250843
-0.0202696
-0.0144463
-0.0113488
-0.00685187
-0.00454529
-0.00153607
-0.260668
-0.260908
-0.262649
-0.263089
-0.261862
-0.258277
-0.253154
-0.24545
-0.236343
-0.225448
-0.212656
-0.198361
-0.182232
-0.165251
-0.146974
-0.128891
-0.110622
-0.093645
-0.0778129
-0.0637417
-0.0518171
-0.0412297
-0.0332299
-0.025493
-0.020579
-0.0147194
-0.0115291
-0.00701218
-0.00461866
-0.00157028
-0.255022
-0.256059
-0.258
-0.258958
-0.258092
-0.254799
-0.249554
-0.242776
-0.234116
-0.223586
-0.211127
-0.197145
-0.181333
-0.164638
-0.146661
-0.128818
-0.110788
-0.0939664
-0.0782614
-0.0642453
-0.0523305
-0.0417259
-0.0336604
-0.0258828
-0.0208697
-0.0149807
-0.0116971
-0.00716368
-0.00468571
-0.00160024
-0.249107
-0.25076
-0.252955
-0.254476
-0.254086
-0.251293
-0.246721
-0.240128
-0.231773
-0.221584
-0.209453
-0.19579
-0.18031
-0.163915
-0.146258
-0.128673
-0.110901
-0.0942503
-0.0786873
-0.0647391
-0.0528423
-0.042228
-0.0340981
-0.0262837
-0.0211676
-0.0152513
-0.0118692
-0.00732045
-0.00475361
-0.00162942
-0.242944
-0.245241
-0.247716
-0.249776
-0.24988
-0.247596
-0.243404
-0.23726
-0.229277
-0.219457
-0.207682
-0.194362
-0.179235
-0.16316
-0.14584
-0.128526
-0.111023
-0.094551
-0.079135
-0.0652577
-0.0533795
-0.0427553
-0.0345581
-0.0267053
-0.0214813
-0.0155363
-0.0120505
-0.00748534
-0.00482432
-0.00165873
-0.236485
-0.23953
-0.242303
-0.244859
-0.245457
-0.243662
-0.239896
-0.234196
-0.226614
-0.217189
-0.205796
-0.192843
-0.178093
-0.162359
-0.145394
-0.128367
-0.111146
-0.0948627
-0.0796007
-0.0657988
-0.0539408
-0.0433073
-0.0350404
-0.0271479
-0.0218115
-0.0158363
-0.0122413
-0.00765854
-0.00489816
-0.00168828
-0.229773
-0.233651
-0.23674
-0.23975
-0.240841
-0.239535
-0.23622
-0.230969
-0.223803
-0.214789
-0.2038
-0.191234
-0.176882
-0.161507
-0.144915
-0.128189
-0.111262
-0.0951784
-0.0800778
-0.066357
-0.0545216
-0.0438805
-0.0355423
-0.0276095
-0.0221567
-0.0161502
-0.012441
-0.00783942
-0.00497497
-0.001718
-0.222882
-0.227634
-0.231063
-0.234492
-0.236071
-0.23526
-0.232399
-0.227602
-0.220865
-0.212276
-0.201709
-0.189545
-0.175608
-0.160608
-0.144403
-0.127992
-0.11137
-0.0954956
-0.080563
-0.0669292
-0.0551191
-0.0444724
-0.036062
-0.0280885
-0.0225158
-0.016477
-0.0126492
-0.00802741
-0.00505469
-0.00174792
-0.215866
-0.221507
-0.225302
-0.229118
-0.23118
-0.230864
-0.228456
-0.224117
-0.217821
-0.209668
-0.199534
-0.187787
-0.174279
-0.159667
-0.14386
-0.127777
-0.111468
-0.0958124
-0.0810539
-0.0675128
-0.0557308
-0.0450808
-0.0365976
-0.0285834
-0.0228881
-0.0168158
-0.0128656
-0.00822195
-0.00513732
-0.00177808
-0.208774
-0.215292
-0.21948
-0.223658
-0.226189
-0.226366
-0.224416
-0.220535
-0.214688
-0.206977
-0.19729
-0.185969
-0.1729
-0.158688
-0.143289
-0.127543
-0.111555
-0.0961266
-0.0815475
-0.0681049
-0.0563537
-0.0457033
-0.0371471
-0.0290923
-0.0232723
-0.0171655
-0.0130895
-0.00842241
-0.00522284
-0.00180852
-0.201655
-0.209013
-0.213616
-0.218134
-0.221119
-0.221787
-0.220296
-0.216874
-0.21148
-0.204218
-0.194985
-0.1841
-0.171478
-0.157675
-0.142691
-0.127291
-0.11163
-0.0964359
-0.082041
-0.0687025
-0.0569851
-0.046337
-0.0377084
-0.0296135
-0.0236673
-0.0175249
-0.0133205
-0.00862808
-0.0053112
-0.00183929
-0.194553
-0.202694
-0.207732
-0.212571
-0.215988
-0.217141
-0.216112
-0.213147
-0.20821
-0.201402
-0.192629
-0.182186
-0.170018
-0.156631
-0.142067
-0.12702
-0.111691
-0.0967382
-0.0825314
-0.0693026
-0.057622
-0.0469793
-0.0382792
-0.0301448
-0.0240718
-0.0178926
-0.013558
-0.00883817
-0.00540232
-0.00187041
-0.187514
-0.196364
-0.201847
-0.206994
-0.210818
-0.212446
-0.211879
-0.209369
-0.20489
-0.19854
-0.190231
-0.180235
-0.168525
-0.15556
-0.141419
-0.126731
-0.111736
-0.0970316
-0.0830162
-0.0699023
-0.0582614
-0.0476275
-0.0388572
-0.0306842
-0.0244842
-0.0182674
-0.0138012
-0.00905186
-0.00549609
-0.00190188
-0.180582
-0.190051
-0.195984
-0.201425
-0.205628
-0.207719
-0.207612
-0.205554
-0.201533
-0.19564
-0.187799
-0.178254
-0.167004
-0.154465
-0.140749
-0.126425
-0.111765
-0.0973142
-0.0834929
-0.0704989
-0.0589007
-0.0482788
-0.03944
-0.0312295
-0.0249031
-0.0186476
-0.0140494
-0.00926827
-0.00559234
-0.0019337
-0.173796
-0.183786
-0.190165
-0.195891
-0.200442
-0.202976
-0.203326
-0.201716
-0.198151
-0.192715
-0.185341
-0.176249
-0.165459
-0.153349
-0.140058
-0.126101
-0.111778
-0.0975844
-0.0839592
-0.0710897
-0.0595369
-0.0489304
-0.0400253
-0.0317783
-0.0253269
-0.0190318
-0.0143016
-0.00948647
-0.00569087
-0.0019658
-0.167193
-0.1776
-0.184411
-0.190413
-0.195283
-0.198237
-0.199037
-0.19787
-0.194756
-0.189775
-0.182867
-0.174228
-0.163897
-0.152217
-0.139349
-0.125762
-0.111774
-0.0978409
-0.084413
-0.071672
-0.0601673
-0.0495795
-0.0406107
-0.0323285
-0.0257538
-0.0194182
-0.014557
-0.00970549
-0.00579142
-0.00199812
-0.160806
-0.171527
-0.178747
-0.185017
-0.190176
-0.193524
-0.194764
-0.194032
-0.191363
-0.186831
-0.180386
-0.172198
-0.162324
-0.151073
-0.138624
-0.125406
-0.111752
-0.0980823
-0.0848523
-0.0722432
-0.0607892
-0.0502232
-0.0411934
-0.0328774
-0.0261819
-0.019805
-0.0148146
-0.00992427
-0.00589365
-0.00203053
-0.154663
-0.165599
-0.173198
-0.179726
-0.185148
-0.188861
-0.190525
-0.190221
-0.187988
-0.183898
-0.177909
-0.17017
-0.160746
-0.149921
-0.137887
-0.125038
-0.111713
-0.0983076
-0.0852751
-0.0728007
-0.0613998
-0.0508584
-0.0417708
-0.0334224
-0.0266094
-0.0201904
-0.015073
-0.0101417
-0.00599716
-0.00206289
-0.148791
-0.15985
-0.167792
-0.174564
-0.180227
-0.184274
-0.186343
-0.186455
-0.184648
-0.180991
-0.17545
-0.168152
-0.159172
-0.148768
-0.137142
-0.124658
-0.111658
-0.0985158
-0.0856796
-0.0733418
-0.061996
-0.0514819
-0.04234
-0.0339606
-0.0270338
-0.0205722
-0.0153311
-0.0103565
-0.00610147
-0.00209503
-0.143213
-0.154316
-0.162557
-0.169559
-0.175442
-0.179792
-0.182242
-0.182757
-0.181363
-0.178127
-0.173022
-0.166157
-0.15761
-0.147621
-0.136393
-0.124268
-0.111587
-0.0987062
-0.0860642
-0.0738637
-0.0625748
-0.0520902
-0.0428977
-0.0344889
-0.0274528
-0.0209481
-0.0155873
-0.0105675
-0.00620597
-0.00212676
-0.137954
-0.14903
-0.157525
-0.16474
-0.170824
-0.175447
-0.17825
-0.17915
-0.178154
-0.175326
-0.170643
-0.164198
-0.156073
-0.146487
-0.135647
-0.123874
-0.111503
-0.0988784
-0.086427
-0.0743635
-0.0631329
-0.0526795
-0.0434404
-0.0350037
-0.0278635
-0.0213155
-0.0158398
-0.0107732
-0.00630996
-0.00215785
-0.133034
-0.144026
-0.152728
-0.160137
-0.166405
-0.17127
-0.174396
-0.175661
-0.175046
-0.172608
-0.168329
-0.162291
-0.154571
-0.145376
-0.13491
-0.123477
-0.111406
-0.099032
-0.0867664
-0.0748383
-0.0636668
-0.0532457
-0.0439642
-0.0355013
-0.0282629
-0.0216716
-0.0160868
-0.010972
-0.00641257
-0.00218805
-0.128474
-0.139336
-0.148199
-0.155782
-0.162218
-0.167298
-0.170715
-0.17232
-0.172067
-0.169998
-0.166103
-0.160453
-0.15312
-0.144299
-0.134189
-0.123083
-0.111299
-0.099167
-0.0870808
-0.075285
-0.0641727
-0.0537845
-0.044465
-0.0359775
-0.0286473
-0.0220132
-0.016326
-0.0111622
-0.00651278
-0.00221709
-0.124296
-0.134993
-0.143973
-0.151709
-0.158298
-0.163567
-0.167242
-0.169159
-0.169243
-0.167522
-0.163987
-0.158702
-0.151734
-0.143268
-0.133494
-0.122698
-0.111186
-0.0992838
-0.0873687
-0.0757003
-0.0646465
-0.0542911
-0.0449381
-0.0364276
-0.0290129
-0.0223368
-0.0165547
-0.0113421
-0.00660939
-0.00224466
-0.120519
-0.131031
-0.140089
-0.147957
-0.154682
-0.160117
-0.164018
-0.166214
-0.166609
-0.16521
-0.162008
-0.157061
-0.150432
-0.142295
-0.132835
-0.122329
-0.111069
-0.0993828
-0.0876283
-0.0760808
-0.0650838
-0.0547603
-0.0453782
-0.0368464
-0.0293553
-0.0226387
-0.01677
-0.0115097
-0.00670099
-0.00227043
-0.117166
-0.127485
-0.136587