/*--------------------------------*- C++ -*----------------------------------*\
  =========                 |
  \\      /  F ield         | OpenFOAM: The Open Source CFD Toolbox
   \\    /   O peration     | Website:  https://openfoam.org
    \\  /    A nd           | Version:  9
     \\/     M anipulation  |
\*---------------------------------------------------------------------------*/
FoamFile
{
    format      ascii;
    class       volVectorField;
    location    "48";
    object      U;
}
// * * * * * * * * * * * * * * * * * * * * * * * * * * * * * * * * * * * * * //

dimensions      [0 1 -1 0 0 0 0];

internalField   nonuniform List<vector> 
8500
(
(-0.00648308 0.0025902 0)
(-0.0291158 0.00446652 -6.2225e-23)
(-0.061147 0.00492765 -3.4215e-24)
(-0.0889451 0.00476267 6.48476e-37)
(-0.116343 0.00444525 -9.54255e-24)
(-0.136755 0.0038425 7.94562e-24)
(-0.160649 0.00378888 -5.38172e-23)
(-0.171502 0.00248103 -8.33001e-23)
(-0.191768 0.00350839 -7.62472e-23)
(-0.198869 0.0012335 -3.95556e-24)
(-0.00677672 0.00772125 1.79564e-22)
(-0.0293735 0.0133295 5.81422e-23)
(-0.0610264 0.0147125 2.33376e-22)
(-0.0882687 0.014222 0)
(-0.115086 0.0132709 0)
(-0.13452 0.0114709 1.60068e-23)
(-0.157849 0.0113022 4.04523e-23)
(-0.166984 0.00738373 8.8914e-23)
(-0.186738 0.0104878 5.74095e-23)
(-0.191623 0.00355863 1.58311e-23)
(-0.00735583 0.0126983 -1.59567e-22)
(-0.0298851 0.0219714 0)
(-0.0607897 0.0242737 -2.1962e-22)
(-0.0869244 0.0234717 0)
(-0.112583 0.0218902 -3.82282e-23)
(-0.130059 0.0189235 3.18308e-23)
(-0.152255 0.0186118 0)
(-0.157909 0.0121196 0)
(-0.176681 0.0173711 0)
(-0.177152 0.00549762 0)
(-0.00820457 0.0174256 3.20878e-22)
(-0.0306431 0.0302506 -2.33533e-22)
(-0.0604451 0.0334647 -5.50819e-23)
(-0.0849288 0.0323725 -3.43526e-22)
(-0.108855 0.0301599 -3.4498e-22)
(-0.123385 0.0260877 3.21128e-23)
(-0.143872 0.0255575 -2.68125e-23)
(-0.144188 0.0166031 3.09815e-22)
(-0.16157 0.0241088 1.89938e-26)
(-0.15543 0.00685187 3.12288e-22)
(-0.00930059 0.0218171 -3.20878e-22)
(-0.0316364 0.0380335 -3.01913e-22)
(-0.0600036 0.0421426 8.28777e-23)
(-0.0823056 0.0407859 4.58474e-22)
(-0.103926 0.0379292 -3.90462e-23)
(-0.114525 0.0328566 5.10396e-22)
(-0.132695 0.0319429 0)
(-0.125679 0.0207769 -3.54866e-22)
(-0.141305 0.0306653 -7.57041e-23)
(-0.126235 0.00753502 -4.33863e-22)
(-0.0106167 0.0257999 8.09277e-23)
(-0.0328504 0.0451978 5.02052e-22)
(-0.0594768 0.0501687 -3.88144e-22)
(-0.0790834 0.0485754 -2.96046e-25)
(-0.0978139 0.0450399 -3.47983e-22)
(-0.103514 0.03913 1.29025e-22)
(-0.11869 0.0375227 -5.38846e-23)
(-0.102177 0.0246098 4.43854e-22)
(-0.115666 0.0369876 -7.58766e-23)
(-0.0889061 0.00769351 2.48507e-22)
(-0.0121226 0.0293169 4.05481e-23)
(-0.0342677 0.0516351 0)
(-0.0588731 0.0574102 -1.56674e-24)
(-0.075292 0.0556084 0)
(-0.09052 0.0513292 6.17107e-22)
(-0.0903878 0.0448172 -5.10891e-22)
(-0.101762 0.0419965 0)
(-0.0734242 0.0281038 -1.12514e-24)
(-0.0843053 0.0428577 0)
(-0.0420506 0.00793729 0)
(-0.0137873 0.0323283 -6.54142e-22)
(-0.0358674 0.0572529 -6.76017e-23)
(-0.0581939 0.0637427 5.00876e-22)
(-0.0709546 0.0617561 9.28877e-23)
(-0.082008 0.0566356 -6.20971e-22)
(-0.0751668 0.0498417 -3.82631e-22)
(-0.0816942 0.0450033 -5.4175e-23)
(-0.0391299 0.0313464 4.40381e-22)
(-0.0467624 0.0475488 -7.61874e-23)
(0.0167445 0.00931462 6.29673e-23)
(-0.015581 0.0348127 7.36446e-22)
(-0.0376245 0.0619765 -5.43604e-22)
(-0.0574272 0.0690535 -1.67928e-22)
(-0.0660765 0.0668941 9.26454e-23)
(-0.0721804 0.0608064 6.20903e-22)
(-0.0578258 0.0541573 5.76809e-22)
(-0.058017 0.0461323 -5.43071e-23)
(0.0010803 0.0345186 8.81421e-23)
(-0.00283168 0.0502561 -1.52745e-22)
(0.0914595 0.0123389 6.42609e-23)
(-0.017477 0.0367669 6.62129e-22)
(-0.0395089 0.0657502 5.43925e-22)
(-0.0565409 0.0732456 -7.88304e-22)
(-0.060629 0.0709028 -9.2955e-23)
(-0.0608398 0.0637003 0)
(-0.038252 0.0577658 0)
(-0.0299427 0.0451776 0)
(0.0482467 0.037641 -1.39527e-21)
(0.0472168 0.0500968 -6.40973e-22)
(0.185802 0.0175689 4.87631e-22)
(-0.0194532 0.0382046 -1.32853e-21)
(-0.0414819 0.0685374 0)
(-0.055474 0.0762413 1.80485e-21)
(-0.0545309 0.0736712 7.46594e-22)
(-0.0476446 0.0651914 7.77125e-23)
(-0.0160518 0.0606031 0)
(0.00352698 0.0423475 -8.88883e-22)
(0.103712 0.0410522 6.96258e-22)
(0.105035 0.0457432 6.40964e-22)
(0.301396 0.0254876 -4.87612e-22)
(-0.0214927 0.0391543 7.50088e-22)
(-0.0434928 0.0703211 -6.86926e-23)
(-0.0541246 0.0779869 -9.04168e-22)
(-0.0476251 0.0751046 -8.4039e-22)
(-0.0321599 0.0652766 0)
(0.00965445 0.062413 1.02769e-21)
(0.0440955 0.0381362 5.18122e-25)
(0.168292 0.0455564 6.00349e-22)
(0.175891 0.0374161 7.19387e-22)
(0.436657 0.035215 -4.83338e-22)
(-0.0235833 0.0396556 4.56146e-26)
(-0.0454732 0.0711027 1.17806e-21)
(-0.0523348 0.0784546 -1.13799e-22)
(-0.0395925 0.0751114 6.56234e-22)
(-0.0138626 0.0640484 3.92298e-22)
(0.0400785 0.0629726 2.61302e-22)
(0.0945406 0.0333991 8.86559e-22)
(0.242403 0.051017 -7.81084e-22)
(0.268049 0.0290388 -4.9049e-22)
(0.585505 0.045518 3.55094e-22)
(-0.0257172 0.0397562 0)
(-0.0473305 0.0708999 -9.70298e-22)
(-0.0498894 0.0776499 -1.14296e-22)
(-0.0299208 0.0736279 1.63021e-24)
(0.00807239 0.0615896 6.25742e-22)
(0.0767386 0.0621894 -8.98428e-22)
(0.158014 0.0297363 8.81154e-22)
(0.326624 0.0559476 -8.95971e-23)
(0.388011 0.0265417 0)
(0.737626 0.0563531 0)
(-0.0278885 0.0395075 8.53192e-23)
(-0.0489373 0.0697459 -1.12056e-21)
(-0.0464968 0.075621 0)
(-0.0179157 0.0706944 -9.26276e-23)
(0.0348476 0.0580477 7.81201e-23)
(0.12175 0.0599453 0)
(0.236895 0.0291787 -8.83041e-22)
(0.42244 0.0592108 -6.9103e-22)
(0.533571 0.0333135 1.5094e-22)
(0.880843 0.0684599 -1.26847e-22)
(-0.0300883 0.0389568 -8.5763e-23)
(-0.0501266 0.0676922 1.19096e-21)
(-0.0417464 0.0724382 0)
(-0.00267508 0.0664704 -8.47444e-22)
(0.0680206 0.0537501 7.81633e-23)
(0.177783 0.0565639 -1.0295e-21)
(0.331708 0.0330716 -1.06559e-22)
(0.531739 0.0621014 7.80202e-22)
(0.691818 0.0480644 0)
(1.00458 0.0816059 9.61254e-22)
(-0.032296 0.0381417 -1.30545e-21)
(-0.050688 0.064803 -7.0872e-23)
(-0.0350864 0.0681946 -1.1475e-22)
(0.0169676 0.061218 9.49151e-23)
(0.109551 0.0492825 -1.24773e-21)
(0.247676 0.0532918 1.02948e-21)
(0.440665 0.0414338 8.67146e-22)
(0.653412 0.0676651 6.90969e-22)
(0.844915 0.0670318 1.19746e-21)
(1.10266 0.0944145 -8.40972e-22)
(-0.0344759 0.0370901 1.3918e-21)
(-0.0503547 0.0611449 0)
(-0.0258253 0.063024 1.04293e-21)
(0.0424573 0.0552894 -9.51934e-23)
(0.16168 0.0454657 2.49459e-21)
(0.333446 0.0521433 0)
(0.559885 0.0535509 -8.67127e-22)
(0.780459 0.0775392 -1.837e-24)
(0.978139 0.0869091 -1.34186e-21)
(1.17389 0.105438 1.21373e-22)
(-0.0365732 0.0358181 0)
(-0.0487982 0.0567848 1.14743e-21)
(-0.0131274 0.0571009 -9.2784e-22)
(0.0754818 0.0491523 0)
(0.226569 0.043359 -1.24687e-21)
(0.43469 0.0551494 0)
(0.683464 0.0686723 8.52062e-22)
(0.902149 0.0907944 -6.89104e-22)
(1.084 0.105735 -1.14183e-21)
(1.22118 0.113683 -9.16977e-22)
(-0.0385073 0.0343269 -1.76753e-22)
(-0.0456287 0.0517939 -1.00234e-21)
(0.00399289 0.0506407 0)
(0.117887 0.0434615 0)
(0.305568 0.0442067 0)
(0.547564 0.0632916 -1.27246e-22)
(0.804017 0.0858193 -8.54153e-22)
(1.00918 0.105588 -8.71555e-23)
(1.16177 0.122343 1.14182e-21)
(1.24989 0.118415 1.03153e-21)
(-0.0401692 0.0326074 0)
(-0.0403936 0.0462463 -1.16491e-21)
(0.0266727 0.0439122 0)
(0.171475 0.0391599 0)
(0.398233 0.0491467 0)
(0.665276 0.0760899 1.26352e-22)
(0.914489 0.103641 -1.04161e-21)
(1.09662 0.120551 8.0398e-23)
(1.21509 0.135514 8.11415e-22)
(1.26698 0.11901 8.83789e-22)
(-0.0414353 0.0306557 0)
(-0.0325642 0.0402037 1.16491e-21)
(0.0561955 0.037281 -9.48828e-22)
(0.237567 0.0374958 0)
(0.501576 0.0586811 -1.24453e-21)
(0.780111 0.092058 0)
(1.01009 0.120941 8.33073e-22)
(1.1637 0.134612 -6.62359e-22)
(1.24967 0.144156 -1.08614e-21)
(1.29176 0.129595 -8.78899e-22)
(-0.0421654 0.0284576 1.48693e-21)
(-0.0215436 0.0337175 0)
(0.0939447 0.0313061 8.31303e-22)
(0.316337 0.0397728 9.72014e-23)
(0.610297 0.0723334 2.48898e-21)
(0.885706 0.109519 0)
(1.08888 0.137003 -8.11539e-22)
(1.2125 0.146728 -1.3131e-21)
(1.27434 0.152361 -9.06847e-22)
(1.30102 0.135677 -5.29466e-24)
(-0.0421866 0.025986 -1.57926e-21)
(-0.00665992 0.0268542 7.57844e-23)
(0.141238 0.0268505 1.18206e-22)
(0.406163 0.0468141 -9.777e-23)
(0.718207 0.0888928 -1.24446e-21)
(0.97821 0.127164 1.00021e-21)
(1.15115 0.151416 8.11535e-22)
(1.24715 0.157387 6.50747e-22)
(1.28862 0.158806 1.0352e-21)
(1.30427 0.141447 -9.08028e-22)
(-0.0413085 0.0232133 9.36504e-23)
(0.0128633 0.0197228 1.13923e-21)
(0.198995 0.0250914 0)
(0.503537 0.0585135 -6.79502e-22)
(0.819938 0.107014 -7.90373e-23)
(1.05617 0.144161 -1.00021e-21)
(1.19874 0.164231 9.68893e-23)
(1.27031 0.166544 5.43146e-22)
(1.29638 0.164502 0)
(1.30429 0.146457 8.08273e-22)
(-0.0393236 0.0201116 -9.68393e-23)
(0.0379079 0.0125573 -1.2161e-21)
(0.267283 0.0272653 0)
(0.603783 0.0739242 9.07528e-23)
(0.91191 0.12564 -7.9262e-23)
(1.11983 0.160106 0)
(1.23385 0.175573 -7.74205e-22)
(1.28495 0.174561 -6.24245e-22)
(1.29934 0.169497 -1.18172e-22)
(1.30107 0.150982 -9.94053e-23)
(-0.0359946 0.0166527 0)
(0.0693973 0.00584399 -1.40416e-21)
(0.344958 0.034182 1.25705e-22)
(0.702228 0.0918068 -5.21331e-24)
(0.992362 0.144101 -6.20594e-22)
(1.17041 0.174858 -1.09237e-21)
(1.25879 0.185663 8.73435e-22)
(1.29321 0.181668 0)
(1.29893 0.174067 0)
(1.29676 0.155287 0)
(-0.0310277 0.0128169 2.28928e-24)
(0.108144 0.00042533 1.17787e-21)
(0.429665 0.0458511 1.27394e-22)
(0.795153 0.111111 8.80676e-22)
(1.06089 0.162029 5.40885e-22)
(1.20954 0.188431 -1.05366e-22)
(1.27566 0.194724 7.51917e-22)
(1.29685 0.188119 -5.03333e-22)
(1.29635 0.178362 -5.61552e-22)
(1.29125 0.159442 4.48697e-22)
(-0.0240463 0.00861549 7.36076e-22)
(0.154621 -0.002529 8.25568e-23)
(0.518263 0.0615519 -1.01775e-21)
(0.880146 0.131116 -7.94409e-22)
(1.11793 0.179244 0)
(1.23895 0.200925 9.61806e-22)
(1.28625 0.202983 -1.57975e-23)
(1.29717 0.194113 6.48504e-22)
(1.29222 0.182503 3.92636e-22)
(1.28525 0.16354 -3.55226e-22)
(-0.0145854 0.00412733 -1.69501e-21)
(0.208731 -0.00176252 0)
(0.607445 0.0802625 2.05171e-21)
(0.955981 0.151382 6.98151e-22)
(1.16441 0.195683 7.98949e-23)
(1.2603 0.212482 0)
(1.29203 0.210642 -7.29462e-22)
(1.29513 0.19981 5.47096e-22)
(1.2871 0.186574 4.21313e-22)
(1.2788 0.167623 -3.29506e-22)
(-0.00211886 -0.00045796 8.58352e-22)
(0.269691 0.00368737 6.66992e-22)
(0.694276 0.101068 -1.15983e-21)
(1.02229 0.171668 1.04105e-22)
(1.20145 0.211354 0)
(1.27507 0.22326 0)
(1.29417 0.217877 0)
(1.29141 0.205327 -1.07705e-21)
(1.28126 0.190632 -4.21317e-22)
(1.27208 0.17171 3.29491e-22)
(0.0138719 -0.00479734 7.97806e-22)
(0.33611 0.0141908 -6.61262e-22)
(0.776466 0.123319 6.78434e-23)
(1.07925 0.191857 0)
(1.23023 0.226308 6.01385e-22)
(1.28452 0.233412 3.95817e-22)
(1.29355 0.224831 4.52935e-23)
(1.28647 0.210746 -4.45916e-23)
(1.2749 0.194707 1.00364e-22)
(1.2651 0.175813 -4.03661e-23)
(0.0337704 -0.00836561 -9.05112e-22)
(0.406214 0.0294963 8.37219e-23)
(0.852415 0.14658 5.37013e-22)
(1.12732 0.211887 -1.48548e-22)
(1.2519 0.240614 -4.51104e-22)
(1.28971 0.243079 -5.62159e-22)
(1.29085 0.231613 4.42093e-23)
(1.28063 0.216122 2.65349e-22)
(1.26813 0.198818 0)
(1.2579 0.179923 -3.53705e-23)
(0.0577459 -0.0105042 -5.87836e-23)
(0.478108 0.0489453 0)
(0.921155 0.170552 6.16922e-24)
(1.16715 0.231704 0)
(1.26752 0.254353 5.85045e-22)
(1.29148 0.252383 -4.29515e-22)
(1.28655 0.238301 0)
(1.27409 0.221485 9.69031e-24)
(1.261 0.202968 0)
(1.25048 0.184032 0)
(0.0857395 -0.010523 -1.17493e-22)
(0.549983 0.0717729 7.64051e-22)
(0.98223 0.195014 -6.12824e-22)
(1.19943 0.251252 1.00599e-22)
(1.27801 0.267603 -2.68388e-22)
(1.29053 0.261423 -4.51215e-23)
(1.28101 0.244944 0)
(1.26697 0.226848 1.81901e-22)
(1.25356 0.207152 4.62975e-23)
(1.24282 0.188121 1.29406e-22)
(0.117455 -0.0078211 -4.96431e-22)
(0.620222 0.097302 -3.07994e-22)
(1.03556 0.219805 -1.00866e-22)
(1.22486 0.270472 4.01763e-22)
(1.28417 0.280439 3.25002e-23)
(1.28738 0.270276 4.17747e-22)
(1.27445 0.25157 0)
(1.25935 0.23221 -2.16363e-22)
(1.2458 0.211357 3.94987e-23)
(1.23492 0.192171 -2.84269e-22)
(0.152398 -0.00199711 -4.9643e-22)
(0.687442 0.124996 3.21092e-22)
(1.08134 0.2448 -4.10525e-24)
(1.24414 0.289307 -4.66927e-22)
(1.28669 0.292921 -2.43399e-22)
(1.28242 0.278993 -2.3322e-23)
(1.26704 0.258185 1.94729e-23)
(1.25127 0.237559 2.41297e-22)
(1.23773 0.215564 -2.32083e-24)
(1.22675 0.196158 9.20738e-23)
(0.189923 0.00709984 -2.56183e-22)
(0.750492 0.154423 0)
(1.11991 0.269894 -2.75773e-22)
(1.25792 0.307709 0)
(1.28611 0.305096 -3.05896e-22)
(1.27597 0.287606 2.6198e-23)
(1.25889 0.264784 0)
(1.24274 0.242873 0)
(1.22933 0.219752 0)
(1.2183 0.200054 0)
(0.229294 0.0193926 2.24727e-22)
(0.808462 0.185203 1.08063e-22)
(1.15173 0.294979 2.75775e-22)
(1.26681 0.325641 0)
(1.2829 0.316993 0)
(1.26824 0.296127 -1.06817e-23)
(1.25006 0.271344 4.06321e-23)
(1.23377 0.248128 4.53622e-23)
(1.22061 0.223894 4.10788e-23)
(1.2096 0.203828 -6.78999e-24)
(0.269725 0.0346531 -4.06821e-24)
(0.860703 0.216971 -1.01073e-22)
(1.17724 0.31994 4.61446e-24)
(1.27137 0.343085 5.31176e-24)
(1.2774 0.328627 -8.05159e-24)
(1.25939 0.304547 3.0329e-24)
(1.24059 0.277837 -3.52895e-23)
(1.22436 0.253291 -4.23698e-23)
(1.21154 0.227955 -3.11423e-23)
(1.20064 0.207448 1.16194e-24)
(0.310417 0.0525849 0)
(0.906877 0.249381 -1.01975e-22)
(1.19684 0.344654 -3.03806e-24)
(1.27206 0.360028 6.31523e-24)
(1.26991 0.339996 1.10153e-37)
(1.24952 0.312843 -7.58377e-38)
(1.2305 0.284223 -3.11229e-23)
(1.21451 0.258328 -3.60472e-23)
(1.20212 0.231895 -2.7667e-23)
(1.19146 0.210878 0)
(0.35059 0.0728722 2.94874e-22)
(0.946885 0.282141 8.35862e-23)
(1.21091 0.369009 2.73718e-22)
(1.26932 0.376442 -1.23014e-23)
(1.26065 0.351082 0)
(1.23872 0.320977 8.93795e-24)
(1.21981 0.290459 2.0329e-23)
(1.2042 0.263201 3.8836e-23)
(1.19235 0.235666 2.15733e-23)
(1.18205 0.214097 5.12176e-24)
(0.389503 0.0952144 -2.62836e-22)
(0.980724 0.314989 0)
(1.21984 0.392883 -2.58848e-22)
(1.26348 0.392292 0)
(1.24981 0.361851 -2.47717e-23)
(1.22702 0.328902 2.06265e-23)
(1.20852 0.296497 0)
(1.19342 0.267868 0)
(1.18224 0.239225 0)
(1.17235 0.217083 0)
(0.426469 0.119333 5.20841e-22)
(1.00848 0.347687 -3.32109e-22)
(1.224 0.416152 -6.28606e-23)
(1.25487 0.407534 -2.51391e-22)
(1.23753 0.372255 -2.27422e-22)
(1.21448 0.33656 1.51581e-23)
(1.19662 0.302285 -1.26563e-23)
(1.18218 0.272284 9.79571e-23)
(1.1718 0.242545 2.11704e-24)
(1.16232 0.219812 6.50807e-23)
(0.460874 0.144961 -5.20842e-22)
(1.03029 0.380008 -3.99429e-22)
(1.22375 0.438692 8.70617e-23)
(1.24374 0.422118 2.99627e-22)
(1.22391 0.382235 -1.23328e-23)
(1.20111 0.343889 2.31781e-22)
(1.18412 0.307771 0)
(1.17047 0.276391 -1.11592e-22)
(1.16109 0.245615 -1.56295e-23)
(1.1519 0.222302 -7.82638e-23)
(0.492186 0.171827 1.23656e-22)
(1.04634 0.411735 6.83669e-22)
(1.21938 0.460373 -3.90398e-22)
(1.23033 0.435986 -7.23528e-23)
(1.20905 0.391725 -1.62114e-22)
(1.18693 0.350822 3.00209e-23)
(1.17101 0.312897 -2.02272e-23)
(1.15833 0.280126 9.9077e-23)
(1.15011 0.248419 -1.64734e-23)
(1.14117 0.22459 4.06132e-23)
(0.519966 0.19964 6.26592e-23)
(1.05684 0.442654 0)
(1.21121 0.481064 2.66068e-23)
(1.21484 0.449068 0)
(1.19299 0.400648 3.31746e-22)
(1.17198 0.357289 -2.05484e-22)
(1.15734 0.317602 0)
(1.1458 0.283444 -1.68322e-23)
(1.13877 0.250897 0)
(1.13026 0.226484 0)
(0.543864 0.228089 -9.60141e-22)
(1.06199 0.472549 -7.28061e-23)
(1.19951 0.50063 4.73782e-22)
(1.19743 0.461289 5.10902e-23)
(1.17581 0.408918 -3.30835e-22)
(1.15631 0.363215 -1.06422e-22)
(1.14316 0.321827 -1.46214e-23)
(1.13292 0.286321 3.94551e-23)
(1.12704 0.253007 -9.65412e-24)
(1.11915 0.228022 3.19409e-24)
(0.563627 0.256839 1.06806e-21)
(1.06203 0.501198 -6.34622e-22)
(1.18453 0.518935 -1.35268e-22)
(1.17824 0.472566 6.53485e-23)
(1.15758 0.416446 2.5849e-22)
(1.13999 0.368521 1.62806e-22)
(1.12845 0.325512 -1.16408e-23)
(1.11965 0.288725 -2.83695e-23)
(1.11498 0.254705 -8.87998e-24)
(1.10789 0.22914 2.34352e-24)
(0.579087 0.285539 8.81025e-22)
(1.0572 0.528377 6.14338e-22)
(1.16651 0.535831 -5.6168e-22)
(1.15745 0.482806 -5.84988e-23)
(1.13847 0.423158 0)
(1.123 0.373122 0)
(1.11322 0.328602 0)
(1.10604 0.290612 -7.32969e-23)
(1.1026 0.255958 7.64479e-24)
(1.09646 0.229823 -2.59647e-23)
(0.590161 0.313828 -1.71176e-21)
(1.04776 0.553868 0)
(1.14565 0.551152 1.18797e-21)
(1.13525 0.491911 2.86063e-22)
(1.1185 0.428976 0)
(1.10533 0.376947 0)
(1.09754 0.331031 -2.26468e-23)
(1.09209 0.291942 1.83724e-23)
(1.08995 0.256731 -7.64485e-24)
(1.08491 0.230032 2.59637e-23)
(0.596844 0.341343 9.19782e-22)
(1.03401 0.57747 -7.30899e-23)
(1.12218 0.564727 -5.55564e-22)
(1.11179 0.499766 -3.10906e-22)
(1.09768 0.433818 2.06199e-23)
(1.08705 0.379928 4.04516e-23)
(1.08143 0.332742 5.08742e-23)
(1.07784 0.292675 -5.1095e-23)
(1.07707 0.25699 -7.10697e-23)
(1.07326 0.229742 7.07059e-23)
(0.599207 0.367718 -1.16845e-23)
(1.01627 0.598997 8.57585e-22)
(1.09639 0.57644 -7.40082e-23)
(1.08708 0.506205 1.4389e-22)
(1.07609 0.437609 4.64849e-23)
(1.06821 0.381998 -6.58752e-23)
(1.06494 0.333679 -3.43238e-23)
(1.06332 0.292771 6.46922e-23)
(1.06399 0.256701 -8.81249e-23)
(1.06154 0.228922 -5.20764e-23)
(0.597391 0.392585 0)
(0.994825 0.618223 -7.58627e-22)
(1.06853 0.586197 -6.23907e-23)
(1.06123 0.511099 -6.6722e-23)
(1.0538 0.440242 -4.10159e-23)
(1.04888 0.383094 1.76834e-23)
(1.04814 0.33379 -1.38516e-22)
(1.04857 0.292194 0)
(1.05073 0.255828 0)
(1.0498 0.227538 0)
(0.591596 0.415619 7.48219e-23)
(0.969767 0.634803 -5.82489e-22)
(1.03896 0.593954 0)
(1.03441 0.514371 -7.08469e-23)
(1.03091 0.44163 1.42171e-24)
(1.02914 0.383156 0)
(1.03106 0.333028 1.33201e-22)
(1.03364 0.29091 1.75215e-22)
(1.03733 0.254337 -3.64449e-23)
(1.03806 0.225545 3.06115e-23)
(0.582046 0.436603 -5.26516e-23)
(0.941316 0.648435 6.25711e-22)
(1.00793 0.599566 0)
(1.00675 0.515984 -1.89464e-23)
(1.00749 0.441686 -5.4122e-24)
(1.00905 0.382126 2.488e-22)
(1.01379 0.331354 2.78851e-23)
(1.01857 0.288887 -1.98557e-22)
(1.02382 0.252192 0)
(1.02639 0.222903 -3.20698e-22)
(0.568953 0.455317 -7.20194e-22)
(0.909954 0.659005 -3.42519e-23)
(0.975612 0.602824 2.40217e-24)
(0.97839 0.515868 -1.98701e-24)
(0.98366 0.440339 3.21454e-22)
(0.988698 0.379953 -2.48802e-22)
(0.996375 0.328729 -2.96001e-22)
(1.0034 0.286094 -2.5581e-22)
(1.01025 0.249366 -4.34019e-22)
(1.01489 0.219605 2.80688e-22)
(0.552439 0.471407 7.61924e-22)
(0.876246 0.6665 0)
(0.94223 0.603597 -1.18765e-22)
(0.949486 0.513958 1.19614e-23)
(0.95951 0.437528 -7.48407e-22)
(0.968171 0.37659 0)
(0.978881 0.325123 2.96003e-22)
(0.98815 0.282493 -4.05785e-23)
(0.996716 0.245832 4.91671e-22)
(1.00386 0.215689 -4.8415e-23)
(0.532716 0.484452 0)
(0.840574 0.670768 -5.19279e-25)
(0.907983 0.601823 1.04305e-22)
(0.92019 0.510185 0)
(0.935156 0.433201 4.26953e-22)
(0.947557 0.371997 0)
(0.961366 0.32051 -4.0591e-22)
(0.972885 0.278044 2.96393e-22)
(0.983392 0.241549 5.53186e-22)
(0.993604 0.211224 4.41278e-22)
(0.51027 0.494284 -1.15676e-23)
(0.803283 0.671669 1.00145e-23)
(0.873102 0.597441 0)
(0.890659 0.504488 0)
(0.910714 0.427317 0)
(0.926948 0.366146 6.45526e-23)
(0.943888 0.31487 2.98238e-22)
(0.957692 0.272722 4.50106e-23)
(0.97047 0.236459 -5.5319e-22)
(0.983997 0.206157 -4.95709e-22)
(0.485518 0.500734 0)
(0.764717 0.669091 3.12541e-22)
(0.837827 0.590408 0)
(0.861054 0.496816 0)
(0.886308 0.419846 0)
(0.906435 0.359014 -7.34162e-23)
(0.926524 0.308188 6.36466e-22)
(0.942694 0.266531 -1.47686e-22)
(0.958031 0.230575 -5.07171e-22)
(0.974379 0.198991 -5.20938e-22)
(0.458872 0.503667 0)
(0.725235 0.662952 -3.12542e-22)
(0.802399 0.580698 5.37311e-22)
(0.831542 0.487134 0)
(0.862062 0.410767 8.52024e-22)
(0.886116 0.350586 0)
(0.909361 0.300451 -5.14979e-22)
(0.928004 0.259483 4.55148e-22)
(0.945826 0.224352 6.65978e-22)
(0.963478 0.193811 5.1957e-22)
(0.430742 0.50299 -5.17028e-22)
(0.685202 0.653207 0)
(0.767063 0.568301 -4.60311e-22)
(0.80229 0.47542 -6.36957e-23)
(0.838103 0.40007 -1.80827e-21)
(0.866088 0.340852 0)
(0.892491 0.291644 6.21038e-22)
(0.913688 0.251504 3.76559e-23)
(0.933972 0.217075 6.84222e-22)
(0.953005 0.187181 2.43893e-24)
(0.401537 0.498651 5.63204e-22)
(0.644982 0.639838 -3.79037e-23)
(0.732061 0.553224 -8.94317e-23)
(0.77347 0.461668 -7.39759e-23)
(0.814561 0.387757 9.56245e-22)
(0.846452 0.329818 -8.47591e-22)
(0.875997 0.281785 -6.21042e-22)
(0.899749 0.24269 -4.92809e-22)
(0.922311 0.209223 -7.74413e-22)
(0.942515 0.180328 7.20038e-22)
(0.371662 0.490636 -5.92214e-23)
(0.604937 0.622858 -8.90175e-22)
(0.697633 0.535493 0)
(0.745254 0.445887 6.30216e-22)
(0.791564 0.373839 6.99153e-23)
(0.827313 0.317492 8.47596e-22)
(0.85997 0.270874 -8.46203e-23)
(0.886259 0.232993 -4.93958e-22)
(0.91099 0.200589 0)
(0.932327 0.172781 -6.42038e-22)
(0.341514 0.478969 6.74492e-23)
(0.565423 0.60231 9.38791e-22)
(0.664015 0.515154 0)
(0.717811 0.428104 -2.26525e-23)
(0.769243 0.358342 7.66984e-23)
(0.808773 0.303898 0)
(0.844484 0.258938 7.69733e-22)
(0.873252 0.222464 5.64787e-22)
(0.900028 0.191306 1.0877e-22)
(0.922489 0.164699 -9.13636e-23)
(0.31148 0.463712 0)
(0.526788 0.578267 1.38453e-21)
(0.631437 0.49227 -1.22925e-22)
(0.69131 0.40836 6.72102e-23)
(0.747726 0.341301 6.73704e-22)
(0.790934 0.289063 1.17313e-21)
(0.829622 0.245999 -8.72644e-22)
(0.860791 0.211112 0)
(0.889494 0.181351 0)
(0.913085 0.156038 0)
(0.281933 0.444963 2.41602e-24)
(0.48937 0.550828 -1.14918e-21)
(0.600122 0.466922 1.36447e-22)
(0.665913 0.386711 -9.59279e-22)
(0.727137 0.322763 -5.84169e-22)
(0.773895 0.273028 1.92276e-22)
(0.815457 0.232094 -8.6711e-22)
(0.848929 0.198974 5.7778e-22)
(0.879442 0.170766 6.29474e-22)
(0.90417 0.146834 -4.94597e-22)
(0.253232 0.422859 -7.96806e-22)
(0.453486 0.520117 -8.90229e-23)
(0.570283 0.439208 1.24423e-21)
(0.641781 0.363231 9.76503e-22)
(0.7076 0.302787 0)
(0.757751 0.255842 -1.11158e-21)
(0.802063 0.217262 -4.09548e-23)
(0.837722 0.186082 -7.4355e-22)
(0.869925 0.15957 -4.41294e-22)
(0.89579 0.137105 3.9381e-22)
(0.225717 0.397581 1.90423e-21)
(0.419436 0.486271 0)
(0.542127 0.409241 -2.57286e-21)
(0.619063 0.338004 -8.54661e-22)
(0.689232 0.281442 -1.01142e-22)
(0.742596 0.237561 0)
(0.789511 0.201549 8.99959e-22)
(0.827225 0.172477 -7.18428e-22)
(0.860995 0.147795 -5.50288e-22)
(0.887983 0.126884 4.24089e-22)
(0.199701 0.369351 -9.98974e-22)
(0.387495 0.44945 -8.76074e-22)
(0.515852 0.377149 1.49471e-21)
(0.597907 0.311132 -1.37372e-22)
(0.672146 0.258807 0)
(0.728517 0.218251 0)
(0.777867 0.18501 0)
(0.817491 0.158202 1.46186e-21)
(0.8527 0.135474 5.5029e-22)
(0.880785 0.116203 -4.24089e-22)
(0.175456 0.338388 -1.02721e-21)
(0.357932 0.409865 8.72996e-22)
(0.491652 0.343074 9.17867e-23)
(0.578447 0.28273 0)
(0.656446 0.234974 -8.68204e-22)
(0.715595 0.197985 -5.82305e-22)
(0.767195 0.167704 -6.49919e-23)
(0.808569 0.143306 1.13215e-22)
(0.845086 0.122645 -1.45134e-22)
(0.874226 0.105101 5.81773e-23)
(0.15322 0.304897 1.16667e-21)
(0.331 0.367768 -1.17225e-22)
(0.469701 0.307181 -9.59404e-22)
(0.560812 0.252923 2.14697e-22)
(0.642231 0.21004 6.46734e-22)
(0.703907 0.176845 8.28669e-22)
(0.757552 0.149696 -6.70908e-23)
(0.800507 0.127841 -3.72899e-22)
(0.838197 0.109352 0)
(0.868334 0.0936194 5.49776e-23)
(0.133217 0.269105 7.96006e-23)
(0.306926 0.323423 0)
(0.450151 0.26965 -2.84569e-23)
(0.545118 0.221851 0)
(0.629589 0.184115 -9.24051e-22)
(0.693521 0.154916 6.98781e-22)
(0.748991 0.131056 0)
(0.793348 0.111864 8.96542e-24)
(0.832073 0.095641 0)
(0.86313 0.0818012 0)
(0.115658 0.231272 1.64768e-22)
(0.285911 0.277101 -1.12445e-21)
(0.433139 0.230674 8.9777e-22)
(0.531468 0.189663 -1.54828e-22)
(0.618601 0.157314 4.00349e-22)
(0.684499 0.132291 1.08662e-22)
(0.74156 0.111859 0)
(0.787132 0.0954346 -3.05086e-22)
(0.826749 0.0815606 -8.15218e-23)
(0.858637 0.0696931 -2.38832e-22)
(0.10073 0.19168 7.02496e-22)
(0.268128 0.229081 -1.66701e-21)
(0.41878 0.190458 1.54125e-22)
(0.519952 0.156514 -6.45472e-22)
(0.609335 0.129759 -7.21334e-23)
(0.676896 0.109069 -7.14271e-22)
(0.735301 0.0921841 0)
(0.781893 0.0786182 4.16293e-22)
(0.822259 0.0671644 -7.53355e-23)
(0.854868 0.0573415 5.44228e-22)
(0.0885927 0.150625 -7.02496e-22)
(0.253724 0.179654 6.10943e-22)
(0.407173 0.149214 -1.06303e-22)
(0.510646 0.12257 7.57711e-22)
(0.601851 0.10158 4.18492e-22)
(0.670757 0.0853515 4.37402e-23)
(0.73025 0.0721138 -3.65207e-23)
(0.777663 0.0614822 -4.66374e-22)
(0.818631 0.0525085 3.86266e-24)
(0.851838 0.0447934 -1.80851e-22)
(0.0793748 0.10842 3.66823e-22)
(0.242816 0.129121 0)
(0.398398 0.107162 4.36043e-22)
(0.503612 0.0880006 0)
(0.596196 0.072911 5.8802e-23)
(0.66612 0.0612455 -4.89617e-23)
(0.726435 0.0517332 0)
(0.774468 0.0440958 0)
(0.815888 0.0376504 0)
(0.849557 0.0320963 0)
(0.0731746 0.0653855 -3.21332e-22)
(0.235495 0.0777924 -1.24049e-22)
(0.392514 0.0645308 -4.36043e-22)
(0.498896 0.0529813 0)
(0.592405 0.0438885 0)
(0.663013 0.0368597 2.22862e-23)
(0.723879 0.0311295 -8.91888e-23)
(0.772327 0.0265296 -1.06748e-22)
(0.814048 0.0226478 -1.00496e-22)
(0.848032 0.0192969 1.62727e-23)
(0.070058 0.0218508 -5.8137e-24)
(0.231819 0.0259841 1.33777e-22)
(0.389563 0.0215491 -6.0462e-24)
(0.496531 0.0176905 2.08071e-23)
(0.590504 0.0146531 -8.22108e-24)
(0.661454 0.0123052 0)
(0.722597 0.0103914 7.0581e-23)
(0.771252 0.00885516 1.06748e-22)
(0.813124 0.0075588 7.62642e-23)
(0.847268 0.0064386 1.15073e-23)
(0.0700581 -0.0218513 -5.8137e-24)
(0.231819 -0.0259847 1.33777e-22)
(0.389563 -0.0215496 -6.0462e-24)
(0.496531 -0.017691 2.08071e-23)
(0.590504 -0.0146535 -8.22108e-24)
(0.661454 -0.0123056 0)
(0.722597 -0.0103917 6.21458e-23)
(0.771252 -0.00885544 1.13809e-22)
(0.813124 -0.00755904 8.11227e-23)
(0.847268 -0.00643882 0)
(0.0731747 -0.065386 -4.12314e-22)
(0.235495 -0.0777931 -1.60825e-22)
(0.392514 -0.0645313 -4.62274e-22)
(0.498896 -0.0529818 2.16977e-23)
(0.592405 -0.0438889 0)
(0.663013 -0.0368601 -2.22862e-23)
(0.723879 -0.0311298 -5.19732e-23)
(0.772327 -0.0265299 -1.06748e-22)
(0.814048 -0.0226481 -6.17489e-23)
(0.848032 -0.0192971 -1.62727e-23)
(0.0793748 -0.10842 3.66823e-22)
(0.242816 -0.129121 0)
(0.398398 -0.107163 4.36043e-22)
(0.503612 -0.0880011 0)
(0.596196 -0.0729114 5.8802e-23)
(0.66612 -0.0612459 -4.89617e-23)
(0.726435 -0.0517335 0)
(0.774468 -0.0440961 0)
(0.815888 -0.0376506 0)
(0.849557 -0.0320965 0)
(0.0885927 -0.150626 -7.02496e-22)
(0.253724 -0.179654 4.77085e-22)
(0.407173 -0.149214 1.06303e-22)
(0.510646 -0.12257 5.18834e-22)
(0.601851 -0.101581 5.46525e-22)
(0.670757 -0.0853519 -4.37402e-23)
(0.73025 -0.0721141 3.65207e-23)
(0.777664 -0.0614825 -3.66213e-22)
(0.818631 -0.0525087 -3.86266e-24)
(0.851838 -0.0447936 -3.03388e-22)
(0.10073 -0.19168 7.02496e-22)
(0.268129 -0.229081 5.78981e-22)
(0.41878 -0.190458 -1.54125e-22)
(0.519952 -0.156515 -6.31072e-22)
(0.609336 -0.12976 5.35893e-23)
(0.676896 -0.109069 -7.14271e-22)
(0.735301 -0.0921844 0)
(0.781893 -0.0786185 4.16293e-22)
(0.822259 -0.0671647 7.53355e-23)
(0.854868 -0.0573418 4.17675e-22)
(0.115658 -0.231273 -1.64768e-22)
(0.285911 -0.277102 1.12444e-21)
(0.433139 -0.230675 7.02358e-22)
(0.531468 -0.189663 1.54828e-22)
(0.618601 -0.157314 5.01288e-22)
(0.684499 -0.132291 -1.62215e-22)
(0.741561 -0.111859 7.05749e-23)
(0.787132 -0.0954349 -4.99458e-22)
(0.826749 -0.0815609 8.15217e-23)
(0.858637 -0.0696933 -2.38832e-22)
(0.133217 -0.269106 -7.96005e-23)
(0.306926 -0.323424 0)
(0.450151 -0.269651 -2.84569e-23)
(0.545118 -0.221852 0)
(0.62959 -0.184115 -9.2405e-22)
(0.693521 -0.154916 6.98781e-22)
(0.748991 -0.131056 0)
(0.793348 -0.111864 8.96546e-24)
(0.832073 -0.0956412 0)
(0.863131 -0.0818014 0)
(0.15322 -0.304898 1.16667e-21)
(0.331 -0.367768 1.17225e-22)
(0.469701 -0.307182 -6.7502e-22)
(0.560813 -0.252923 -1.39244e-22)
(0.642231 -0.210041 1.08968e-21)
(0.703907 -0.176845 4.91625e-22)
(0.757552 -0.149696 6.70907e-23)
(0.800507 -0.127842 -4.65881e-22)
(0.838197 -0.109353 7.79954e-23)
(0.868334 -0.0936196 -5.49776e-23)
(0.175457 -0.338389 -1.30614e-21)
(0.357932 -0.409865 8.79156e-22)
(0.491653 -0.343075 8.28632e-23)
(0.578447 -0.28273 -1.44467e-22)
(0.656446 -0.234974 -8.68203e-22)
(0.715596 -0.197986 -7.37984e-22)
(0.767195 -0.167705 6.49918e-23)
(0.808569 -0.143307 -6.76819e-23)
(0.845086 -0.122646 1.45134e-22)
(0.874226 -0.105102 -5.81773e-23)
(0.199702 -0.369351 -9.98973e-22)
(0.387495 -0.449451 -8.76073e-22)
(0.515853 -0.377149 1.16256e-21)
(0.597907 -0.311133 1.37372e-22)
(0.672146 -0.258808 0)
(0.728517 -0.218251 0)
(0.777868 -0.185011 0)
(0.817491 -0.158202 1.46186e-21)
(0.8527 -0.135474 5.50289e-22)
(0.880785 -0.116204 -4.24088e-22)
(0.225717 -0.397582 1.90423e-21)
(0.419436 -0.486272 0)
(0.542127 -0.409241 -2.57286e-21)
(0.619064 -0.338005 -9.76506e-22)
(0.689232 -0.281442 0)
(0.742597 -0.237561 0)
(0.789511 -0.20155 8.99958e-22)
(0.827225 -0.172477 -7.18427e-22)
(0.860995 -0.147795 -5.50288e-22)
(0.887983 -0.126884 4.24089e-22)
(0.253233 -0.422859 -1.0137e-21)
(0.453487 -0.520117 8.90227e-23)
(0.570283 -0.439208 1.24422e-21)
(0.641781 -0.363231 1.09157e-21)
(0.707601 -0.302788 -9.55136e-23)
(0.757752 -0.255842 -1.11158e-21)
(0.802063 -0.217262 -4.09549e-23)
(0.837722 -0.186082 -5.80955e-22)
(0.869925 -0.15957 -5.77681e-22)
(0.89579 -0.137106 3.93809e-22)
(0.281934 -0.444963 -2.41603e-24)
(0.48937 -0.550829 -1.32149e-21)
(0.600122 -0.466922 -1.36447e-22)
(0.665914 -0.386712 -7.43544e-22)
(0.727138 -0.322764 -5.94681e-22)
(0.773895 -0.273028 -2.09254e-22)
(0.815457 -0.232094 -8.50883e-22)
(0.848929 -0.198974 7.4672e-22)
(0.879442 -0.170766 3.89496e-22)
(0.90417 -0.146834 -2.93024e-22)
(0.311481 -0.463712 0)
(0.526789 -0.578267 1.08613e-21)
(0.631438 -0.492271 1.22925e-22)
(0.69131 -0.40836 6.72103e-23)
(0.747726 -0.341302 6.73703e-22)
(0.790934 -0.289063 9.26629e-22)
(0.829622 -0.246 -7.62563e-22)
(0.860791 -0.211113 8.01283e-23)
(0.889494 -0.181352 0)
(0.913086 -0.156039 0)
(0.341515 -0.478969 -6.74489e-23)
(0.565423 -0.602311 9.38789e-22)
(0.664016 -0.515155 0)
(0.717811 -0.428104 1.62145e-22)
(0.769244 -0.358343 -7.66982e-23)
(0.808773 -0.303898 0)
(0.844485 -0.258938 7.69732e-22)
(0.873253 -0.222465 5.64786e-22)
(0.900028 -0.191306 -1.0877e-22)
(0.922489 -0.164699 9.13635e-23)