/*--------------------------------*- C++ -*----------------------------------*\
  =========                 |
  \\      /  F ield         | OpenFOAM: The Open Source CFD Toolbox
   \\    /   O peration     | Website:  https://openfoam.org
    \\  /    A nd           | Version:  9
     \\/     M anipulation  |
\*---------------------------------------------------------------------------*/
FoamFile
{
    format      ascii;
    class       volVectorField;
    location    "33.4";
    object      U;
}
// * * * * * * * * * * * * * * * * * * * * * * * * * * * * * * * * * * * * * //

dimensions      [0 1 -1 0 0 0 0];

internalField   nonuniform List<vector> 
8500
(
(-0.00649209 0.00259478 0)
(-0.0291518 0.00447384 -6.70107e-23)
(-0.0612205 0.00493589 -3.68437e-24)
(-0.0890548 0.00477135 6.97927e-37)
(-0.116494 0.00445465 -1.0265e-23)
(-0.136947 0.00385239 8.54716e-24)
(-0.160896 0.00380032 -5.78381e-23)
(-0.171798 0.00249187 -8.9611e-23)
(-0.192136 0.0035223 -8.18993e-23)
(-0.199303 0.00124442 -4.25251e-24)
(-0.0067859 0.00773227 1.93555e-22)
(-0.029409 0.0133472 6.26089e-23)
(-0.0610981 0.0147328 2.51253e-22)
(-0.0883748 0.0142439 0)
(-0.115231 0.0132954 0)
(-0.134703 0.0114976 1.72103e-23)
(-0.158083 0.0113346 4.34683e-23)
(-0.167259 0.00741605 9.56458e-23)
(-0.187079 0.0105317 6.16486e-23)
(-0.192015 0.00359694 1.70189e-23)
(-0.0073653 0.0127154 -1.72003e-22)
(-0.0299195 0.021999 0)
(-0.0608579 0.0243055 -2.36445e-22)
(-0.0870236 0.0235062 0)
(-0.112717 0.021929 -4.11181e-23)
(-0.130223 0.0189659 3.4237e-23)
(-0.152463 0.0186633 0)
(-0.158142 0.0121713 0)
(-0.176968 0.0174421 0)
(-0.177466 0.00555964 0)
(-0.00821442 0.0174481 3.45753e-22)
(-0.0306759 0.0302871 -2.51401e-22)
(-0.0605081 0.0335071 -5.92885e-23)
(-0.0850179 0.0324185 -3.69627e-22)
(-0.108973 0.0302114 -3.70988e-22)
(-0.123523 0.0261438 3.45202e-23)
(-0.144044 0.0256252 -2.88225e-23)
(-0.144363 0.0166709 3.33373e-22)
(-0.161782 0.0242024 1.72851e-26)
(-0.155634 0.0069319 3.36048e-22)
(-0.00931088 0.0218441 -3.45753e-22)
(-0.0316673 0.0380779 -3.24889e-22)
(-0.0600602 0.0421942 8.91881e-23)
(-0.0823821 0.0408418 4.93277e-22)
(-0.104024 0.0379913 -4.19368e-23)
(-0.114631 0.032924 5.48902e-22)
(-0.132822 0.0320226 0)
(-0.125783 0.0208566 -3.81792e-22)
(-0.141426 0.0307755 -8.13579e-23)
(-0.126308 0.00762619 -4.67122e-22)
(-0.0106274 0.0258305 8.71474e-23)
(-0.0328791 0.0452487 5.40344e-22)
(-0.0595259 0.0502281 -4.17594e-22)
(-0.0791455 0.0486394 -2.96937e-25)
(-0.097889 0.0451102 -3.73996e-22)
(-0.103582 0.0392057 1.38654e-22)
(-0.118765 0.0376095 -5.79051e-23)
(-0.1022 0.0246964 4.77512e-22)
(-0.115685 0.0371074 -8.15269e-23)
(-0.0888335 0.00778918 2.67513e-22)
(-0.0121338 0.02935 4.36581e-23)
(-0.034294 0.0516909 0)
(-0.0589142 0.0574755 -1.56862e-24)
(-0.0753383 0.0556784 0)
(-0.0905699 0.0514048 6.63348e-22)
(-0.0904164 0.0448981 -5.49397e-22)
(-0.101783 0.0420845 0)
(-0.0733617 0.0281923 -1.12739e-24)
(-0.0842181 0.0429775 0)
(-0.0418211 0.00803327 0)
(-0.0137989 0.0323628 -7.03909e-22)
(-0.0358911 0.057312 -7.27083e-23)
(-0.0582267 0.0638119 5.38741e-22)
(-0.0709846 0.0618299 9.98502e-23)
(-0.0820315 0.0567133 -6.67216e-22)
(-0.0751546 0.0499247 -4.11508e-22)
(-0.0816588 0.045086 -5.81956e-23)
(-0.0389812 0.0314322 4.74033e-22)
(-0.0465689 0.0476536 -8.18374e-23)
(0.017142 0.00940864 6.77203e-23)
(-0.0155929 0.0348476 7.92434e-22)
(-0.0376459 0.0620373 -5.84458e-22)
(-0.0574516 0.0691246 -1.80551e-22)
(-0.0660901 0.0669693 9.96065e-23)
(-0.072177 0.0608832 6.67147e-22)
(-0.0577734 0.0542394 6.2013e-22)
(-0.0579235 0.0462026 -5.83276e-23)
(0.00131417 0.0345954 9.48755e-23)
(-0.00253967 0.0503324 -1.64048e-22)
(0.0920464 0.0124233 6.90124e-23)
(-0.0174892 0.0368013 7.11905e-22)
(-0.0395279 0.0658109 5.84779e-22)
(-0.0565573 0.0733165 -8.47213e-22)
(-0.0606266 0.0709769 -9.99162e-23)
(-0.0608094 0.0637728 0)
(-0.0381607 0.0578445 0)
(-0.0297904 0.0452307 0)
(0.0485685 0.0377037 -1.50294e-21)
(0.0475965 0.0501326 -6.86194e-22)
(0.18659 0.0176328 5.25631e-22)
(-0.0194656 0.0382377 -1.42809e-21)
(-0.0414988 0.0685965 0)
(-0.0554827 0.07631 1.9395e-21)
(-0.0545134 0.0737418 8.02286e-22)
(-0.0475869 0.0652562 8.34917e-23)
(-0.015922 0.0606749 0)
(0.0037395 0.0423821 -9.53217e-22)
(0.104123 0.0411012 7.50088e-22)
(0.105513 0.0457229 6.86184e-22)
(0.302377 0.0255175 -5.25611e-22)
(-0.0215052 0.0391854 8.0609e-22)
(-0.0435078 0.0703773 -7.38002e-23)
(-0.0541261 0.0780514 -9.71494e-22)
(-0.0475935 0.0751694 -9.03043e-22)
(-0.0320748 0.065331 0)
(0.00982547 0.0624731 1.1047e-21)
(0.0443761 0.0381523 5.28263e-25)
(0.168788 0.0455899 6.47449e-22)
(0.176509 0.0373458 7.70213e-22)
(0.4378 0.0351903 -5.21345e-22)
(-0.023596 0.0396842 4.53207e-26)
(-0.0454866 0.0711547 1.26489e-21)
(-0.0523293 0.0785132 -1.22215e-22)
(-0.0395469 0.0751681 7.04962e-22)
(-0.0137501 0.0640907 4.21191e-22)
(0.0402943 0.063017 2.80546e-22)
(0.0949047 0.0333984 9.50883e-22)
(0.242984 0.0510225 -8.41644e-22)
(0.268867 0.0289512 -5.2437e-22)
(0.586747 0.045426 3.83604e-22)
(-0.0257301 0.0397821 0)
(-0.0473423 0.0709466 -1.04181e-21)
(-0.0498772 0.0777014 -1.22712e-22)
(-0.0298603 0.073674 1.62863e-24)
(0.00821456 0.061618 6.71972e-22)
(0.0770034 0.0622162 -9.65797e-22)
(0.158478 0.029725 9.45453e-22)
(0.327297 0.0559076 -9.63257e-23)
(0.389053 0.026467 0)
(0.738881 0.0561986 0)
(-0.0279016 0.0395307 9.15431e-23)
(-0.0489474 0.0697867 -1.20229e-21)
(-0.0464776 0.0756641 0)
(-0.0178384 0.0707286 -9.95904e-23)
(0.0350254 0.0580612 8.38981e-23)
(0.122077 0.0599471 0)
(0.237468 0.0291635 -9.47336e-22)
(0.423222 0.0591202 -7.44866e-22)
(0.53478 0.0332502 1.62228e-22)
(0.882023 0.0682514 -1.36333e-22)
(-0.0301016 0.0389773 -9.19866e-23)
(-0.0501349 0.0677266 1.27779e-21)
(-0.0417191 0.072472 0)
(-0.00257744 0.0664916 -9.1009e-22)
(0.0682415 0.0537478 8.3941e-23)
(0.17819 0.0565365 -1.10647e-21)
(0.332392 0.0330521 -1.14596e-22)
(0.532644 0.0619769 8.40764e-22)
(0.693073 0.0479851 0)
(1.00563 0.0813473 1.03714e-21)
(-0.0323096 0.0381596 -1.39883e-21)
(-0.0506938 0.0648308 -7.59808e-23)
(-0.0350489 0.0682185 -1.23165e-22)
(0.0170912 0.0612259 1.01876e-22)
(0.109826 0.0492657 -1.34016e-21)
(0.248179 0.0532437 1.10645e-21)
(0.44145 0.0414029 9.314e-22)
(0.654415 0.0675265 7.44776e-22)
(0.846089 0.0669097 1.28755e-21)
(1.10354 0.0941071 -9.07385e-22)
(-0.0344897 0.0371057 1.49139e-21)
(-0.0503571 0.0611659 0)
(-0.0257747 0.0630376 1.11867e-21)
(0.0426146 0.0552838 -1.02154e-22)
(0.162025 0.045437 2.67946e-21)
(0.334055 0.0520842 0)
(0.560747 0.0535023 -9.31381e-22)
(0.781489 0.0773887 -1.8583e-24)
(0.979152 0.0867323 -1.44321e-21)
(1.17462 0.105087 1.30839e-22)
(-0.0365871 0.0358315 0)
(-0.0487959 0.0567991 1.22917e-21)
(-0.0130595 0.057104 -9.95168e-22)
(0.0756829 0.0491339 0)
(0.226997 0.0433224 -1.3393e-21)
(0.435402 0.0550868 0)
(0.684364 0.0686024 9.16274e-22)
(0.903124 0.0906219 -7.42888e-22)
(1.08484 0.105504 -1.23182e-21)
(1.22179 0.113297 -9.92602e-22)
(-0.0385211 0.0343384 -1.89204e-22)
(-0.0456199 0.0518017 -1.07387e-21)
(0.00408343 0.0506335 0)
(0.118144 0.0434321 0)
(0.306088 0.0441669 0)
(0.548351 0.0632265 -1.3686e-22)
(0.804905 0.0857234 -9.18365e-22)
(1.01004 0.105386 -9.38725e-23)
(1.16244 0.122067 1.23181e-21)
(1.25041 0.118007 1.11661e-21)
(-0.0401825 0.0326172 0)
(-0.040376 0.0462477 -1.24666e-21)
(0.0267927 0.0438951 0)
(0.1718 0.0391231 0)
(0.398843 0.0491073 0)
(0.666096 0.0760171 1.35965e-22)
(0.91532 0.103514 -1.12182e-21)
(1.09735 0.120319 8.70973e-23)
(1.21564 0.135204 8.78817e-22)
(1.26743 0.118593 9.59333e-22)
(-0.0414479 0.0306638 0)
(-0.0325351 0.0401986 1.24666e-21)
(0.0563531 0.0372549 -1.01617e-21)
(0.23797 0.0374572 0)
(0.502255 0.0586413 -1.33694e-21)
(0.780918 0.09197 0)
(1.01084 0.120782 8.97237e-22)
(1.16431 0.134353 -7.16001e-22)
(1.25012 0.143825 -1.17603e-21)
(1.2921 0.129181 -9.54421e-22)
(-0.0421765 0.0284641 1.58659e-21)
(-0.0214997 0.0337058 0)
(0.0941489 0.031273 8.9023e-22)
(0.316819 0.0397378 1.04163e-22)
(0.611015 0.0722883 2.6738e-21)
(0.886467 0.10941 0)
(1.08953 0.136814 -8.75655e-22)
(1.21302 0.146449 -1.42035e-21)
(1.27472 0.152021 -9.85402e-22)
(1.30131 0.135261 -5.31358e-24)
(-0.0421955 0.0259908 -1.68514e-21)
(-0.00659747 0.0268357 8.08965e-23)
(0.141498 0.0268141 1.26623e-22)
(0.406717 0.0467848 -1.04732e-22)
(0.718929 0.0888357 -1.33686e-21)
(0.978905 0.127032 1.07708e-21)
(1.15171 0.151203 8.75651e-22)
(1.24758 0.157095 7.04353e-22)
(1.28894 0.158461 1.12497e-21)
(1.30451 0.141039 -9.92788e-22)
(-0.0413144 0.0232161 9.98795e-23)
(0.012949 0.0196972 1.21592e-21)
(0.199318 0.0250573 0)
(0.504142 0.0584868 -7.28232e-22)
(0.820636 0.10694 -8.48135e-23)
(1.05679 0.144008 -1.07707e-21)
(1.19923 0.164 1.04893e-22)
(1.27068 0.166244 5.89988e-22)
(1.29665 0.164158 0)
(1.3045 0.146058 8.83618e-22)
(-0.0393256 0.0201121 -1.03071e-22)
(0.0380222 0.012525 -1.29789e-21)
(0.26767 0.0272386 0)
(0.604414 0.0738942 9.77078e-23)
(0.912567 0.125547 -8.5038e-23)
(1.12039 0.159935 0)
(1.23427 0.175329 -8.38239e-22)
(1.28526 0.174259 -6.77787e-22)
(1.29958 0.169157 -1.29368e-22)
(1.30126 0.150596 -1.08823e-22)
(-0.0359917 0.0166505 0)
(0.0695461 0.00580672 -1.49621e-21)
(0.345403 0.034165 1.34128e-22)
(0.702862 0.0917682 -5.21411e-24)
(0.992968 0.143991 -6.66768e-22)
(1.1709 0.174671 -1.17875e-21)
(1.25916 0.185411 9.45478e-22)
(1.29349 0.181367 0)
(1.29915 0.173734 0)
(1.29693 0.154915 0)
(-0.0310185 0.0128115 2.29113e-24)
(0.108332 0.000386734 1.25458e-21)
(0.430158 0.0458418 1.35818e-22)
(0.79577 0.11106 9.43325e-22)
(1.06144 0.161904 5.81284e-22)
(1.20998 0.188234 -1.14926e-22)
(1.27599 0.19447 8.1591e-22)
(1.2971 0.187823 -5.50106e-22)
(1.29655 0.178037 -6.17505e-22)
(1.29141 0.159084 4.95696e-22)
(-0.0240288 0.00860627 7.7974e-22)
(0.154852 -0.00256366 8.76737e-23)
(0.518788 0.0615456 -1.08514e-21)
(0.880736 0.131054 -8.50092e-22)
(1.11844 0.179106 0)
(1.23934 0.200721 1.03856e-21)
(1.28655 0.202729 -1.58235e-23)
(1.2974 0.193824 7.08643e-22)
(1.29241 0.182189 4.31804e-22)
(1.2854 0.163196 -3.92814e-22)
(-0.0145571 0.00411411 -1.79482e-21)
(0.209006 -0.00178788 0)
(0.607986 0.0802545 2.18652e-21)
(0.956537 0.151308 7.46879e-22)
(1.16487 0.195535 8.56676e-23)
(1.26065 0.212275 0)
(1.2923 0.210391 -7.93417e-22)
(1.29535 0.199529 6.00516e-22)
(1.28728 0.186271 4.66047e-22)
(1.27894 0.167295 -3.67065e-22)
(-0.00207683 -0.000474925 9.08264e-22)
(0.270008 0.00367489 7.07921e-22)
(0.69482 0.101056 -1.23566e-21)
(1.02281 0.171583 1.1107e-22)
(1.20187 0.2112 0)
(1.27538 0.223052 0)
(1.29441 0.217631 0)
(1.29161 0.205055 -1.18387e-21)
(1.28142 0.190339 -4.66051e-22)
(1.27221 0.171397 3.67048e-22)
(0.0139305 -0.00481694 8.41501e-22)
(0.336463 0.0141919 -7.02186e-22)
(0.777001 0.123299 7.20578e-23)
(1.07973 0.191765 0)
(1.23062 0.226149 6.47492e-22)
(1.28481 0.233205 4.29352e-22)
(1.29378 0.224591 4.92906e-23)
(1.28666 0.210484 -5.1242e-23)
(1.27506 0.194426 1.11543e-22)
(1.26523 0.175514 -4.50624e-23)
(0.0338478 -0.00838585 -9.55046e-22)
(0.406596 0.029509 8.88378e-23)
(0.852934 0.146555 5.70712e-22)
(1.12777 0.211789 -1.58979e-22)
(1.25226 0.240454 -4.85685e-22)
(1.28998 0.242876 -6.10061e-22)
(1.29107 0.231381 4.82051e-23)
(1.28081 0.215871 2.9205e-22)
(1.26828 0.198549 0)
(1.25802 0.179638 -4.0057e-23)
(0.0578436 -0.0105225 -6.19049e-23)
(0.478511 0.0489666 0)
(0.921653 0.170521 6.16199e-24)
(1.16757 0.231603 0)
(1.26784 0.254193 6.31122e-22)
(1.29174 0.252185 -4.67811e-22)
(1.28676 0.238077 0)
(1.27426 0.221244 9.69828e-24)
(1.26115 0.202711 0)
(1.25059 0.183761 0)
(0.0858581 -0.0105365 -1.23735e-22)
(0.5504 0.0717997 8.07569e-22)
(0.982704 0.194978 -6.50728e-22)
(1.19982 0.251149 1.07552e-22)
(1.27831 0.267446 -2.88564e-22)
(1.29077 0.261232 -4.98996e-23)
(1.28121 0.244729 0)
(1.26714 0.226619 2.01913e-22)
(1.2537 0.206907 5.18868e-23)
(1.24293 0.187864 1.48158e-22)
(0.117595 -0.00782739 -5.21401e-22)
(0.620646 0.0973324 -3.25911e-22)
(1.03601 0.219765 -1.0718e-22)
(1.22523 0.270369 4.29566e-22)
(1.28446 0.280285 3.53741e-23)
(1.2876 0.270091 4.56031e-22)
(1.27464 0.251365 0)
(1.25951 0.231991 -2.43025e-22)
(1.24593 0.211123 4.50783e-23)
(1.23502 0.191927 -3.26459e-22)
(0.152556 -0.00199469 -5.214e-22)
(0.687866 0.125029 3.39015e-22)
(1.08176 0.244758 -4.10989e-24)
(1.24448 0.289205 -4.99932e-22)
(1.28696 0.292772 -2.63542e-22)
(1.28264 0.278816 -2.57118e-23)
(1.26723 0.25799 2.14683e-23)
(1.25142 0.23735 2.71289e-22)
(1.23786 0.215341 -2.32486e-24)
(1.22685 0.195927 1.06134e-22)
(0.190099 0.00711145 -2.68665e-22)
(0.750912 0.154457 0)
(1.12031 0.269851 -2.926e-22)
(1.25824 0.307608 0)
(1.28637 0.304953 -3.31786e-22)
(1.27618 0.287438 2.85912e-23)
(1.25907 0.264598 0)
(1.24289 0.242675 0)
(1.22946 0.21954 0)
(1.2184 0.199835 0)
(0.229485 0.0194131 2.35649e-22)
(0.808873 0.185239 1.13822e-22)
(1.15211 0.294937 2.92602e-22)
(1.26711 0.325543 0)
(1.28314 0.316856 0)
(1.26845 0.295967 -1.18759e-23)
(1.25023 0.271168 4.5614e-23)
(1.23392 0.24794 5.20232e-23)
(1.22073 0.223692 4.80533e-23)
(1.20969 0.203622 -7.96201e-24)
(0.269929 0.0346817 -4.2632e-24)
(0.861102 0.217007 -1.06511e-22)
(1.1776 0.319898 4.87765e-24)
(1.27165 0.342991 5.74511e-24)
(1.27763 0.328497 -8.77033e-24)
(1.25959 0.304396 3.33186e-24)
(1.24076 0.27767 -3.9772e-23)
(1.2245 0.253114 -4.86142e-23)
(1.21166 0.227764 -3.6374e-23)
(1.20073 0.207254 1.45411e-24)
(0.310631 0.0526206 0)
(0.907262 0.249417 -1.0741e-22)
(1.19718 0.344614 -3.29977e-24)
(1.27233 0.359938 6.74932e-24)
(1.27013 0.339874 1.20364e-37)
(1.24971 0.312701 -8.43257e-38)
(1.23067 0.284066 -3.56034e-23)
(1.21464 0.258161 -4.22891e-23)
(1.20224 0.231714 -3.32457e-23)
(1.19155 0.210695 0)
(0.350812 0.0729142 3.08906e-22)
(0.947256 0.282178 8.80623e-23)
(1.21123 0.368972 2.91567e-22)
(1.26957 0.376358 -1.31692e-23)
(1.26087 0.350967 0)
(1.2389 0.320844 1.01312e-23)
(1.21997 0.290311 2.33156e-23)
(1.20433 0.263043 4.54944e-23)
(1.19246 0.235495 2.57583e-23)
(1.18213 0.213925 6.29319e-24)
(0.389729 0.0952621 -2.75309e-22)
(0.98108 0.315028 0)
(1.22014 0.392849 -2.75649e-22)
(1.26373 0.392213 0)
(1.25002 0.361744 -2.76414e-23)
(1.2272 0.328776 2.30159e-23)
(1.20867 0.296358 0)
(1.19355 0.267719 0)
(1.18234 0.239064 0)
(1.17243 0.216923 0)
(0.426697 0.119386 5.45775e-22)
(1.00882 0.347728 -3.49992e-22)
(1.22429 0.416122 -6.70592e-23)
(1.2551 0.407461 -2.73906e-22)
(1.23773 0.372156 -2.53258e-22)
(1.21465 0.336443 1.75434e-23)
(1.19677 0.302155 -1.4648e-23)
(1.18231 0.272144 1.21251e-22)
(1.17191 0.242394 2.12025e-24)
(1.1624 0.219662 8.84849e-23)
(0.461102 0.145019 -5.45775e-22)
(1.03062 0.38005 -4.22392e-22)
(1.22402 0.438666 9.33542e-23)
(1.24396 0.422051 3.27332e-22)
(1.2241 0.382143 -1.51972e-23)
(1.20127 0.34378 2.69955e-22)
(1.18426 0.30765 0)
(1.17059 0.27626 -1.38212e-22)
(1.16119 0.245473 -2.12028e-23)
(1.15197 0.222162 -1.11023e-22)
(0.492412 0.171889 1.29884e-22)
(1.04665 0.411779 7.21963e-22)
(1.21964 0.460352 -4.19749e-22)
(1.23054 0.435925 -7.92775e-23)
(1.20923 0.39164 -1.87915e-22)
(1.18709 0.350721 3.95534e-23)
(1.17115 0.312784 -2.42086e-23)
(1.15844 0.280002 1.3234e-22)
(1.1502 0.248286 -2.20522e-23)
(1.14125 0.224454 5.93331e-23)
(0.520188 0.199707 6.5773e-23)
(1.05713 0.4427 0)
(1.21145 0.481047 2.66232e-23)
(1.21504 0.449014 0)
(1.19317 0.400571 3.77639e-22)
(1.17213 0.357196 -2.43648e-22)
(1.15747 0.317497 0)
(1.14592 0.283329 -1.68356e-23)
(1.13886 0.250772 0)
(1.13033 0.226357 0)
(0.544081 0.22816 -1.00993e-21)
(1.06227 0.472597 -7.78985e-23)
(1.19974 0.500618 5.11502e-22)
(1.19762 0.461241 5.80034e-23)
(1.17598 0.408848 -3.88169e-22)
(1.15646 0.363129 -1.35029e-22)
(1.14328 0.321729 -1.8601e-23)
(1.13303 0.286213 7.27057e-23)
(1.12713 0.252891 -1.52316e-23)
(1.11923 0.227902 7.87256e-24)
(0.563837 0.256914 1.12406e-21)
(1.06229 0.501248 -6.75389e-22)
(1.18475 0.518927 -1.47829e-22)
(1.17843 0.472524 7.22702e-23)
(1.15775 0.416383 3.04355e-22)
(1.14014 0.368442 2.05716e-22)
(1.12857 0.325421 -1.56194e-23)
(1.11976 0.288624 -2.1729e-23)
(1.11506 0.254596 -2.00288e-23)
(1.10796 0.229028 7.02504e-24)
(0.579288 0.285617 9.30758e-22)
(1.05745 0.52843 6.55093e-22)
(1.16672 0.535828 -6.20264e-22)
(1.15762 0.482769 -6.54174e-23)
(1.13863 0.423102 0)
(1.12314 0.37305 0)
(1.11335 0.328518 0)
(1.10614 0.290518 -1.79697e-22)
(1.10269 0.255857 -3.6944e-23)
(1.09653 0.229718 1.14669e-23)
(0.590353 0.313909 -1.8112e-21)
(1.048 0.553923 0)
(1.14584 0.551153 1.32183e-21)
(1.13542 0.49188 3.41329e-22)
(1.11865 0.428926 0)
(1.10546 0.37688 0)
(1.09765 0.330954 -8.62423e-23)
(1.09219 0.291855 7.15692e-23)
(1.09004 0.256637 3.69443e-23)
(1.08498 0.229934 -1.14664e-23)
(0.597027 0.341426 9.7569e-22)
(1.03423 0.577528 -7.81826e-23)
(1.12237 0.564732 -6.22479e-22)
(1.11195 0.499739 -3.73077e-22)
(1.09782 0.433774 2.63502e-23)
(1.08718 0.379868 1.16665e-22)
(1.08154 0.332671 5.08857e-23)
(1.07793 0.292594 -4.55833e-24)
(1.07715 0.256902 -2.09131e-23)
(1.07332 0.22965 3.328e-23)
(0.59938 0.367803 -1.16912e-23)
(1.01648 0.599057 9.4395e-22)
(1.09657 0.57645 -8.2376e-23)
(1.08724 0.506183 1.92212e-22)
(1.07623 0.43757 8.65629e-23)
(1.06833 0.381944 -4.68407e-23)
(1.06505 0.333613 2.92556e-23)
(1.06341 0.292697 4.85913e-24)
(1.06406 0.256619 -3.24013e-23)
(1.06161 0.228837 -2.4011e-23)
(0.597555 0.392671 0)
(0.995019 0.618284 -8.29775e-22)
(1.0687 0.586212 -7.07536e-23)
(1.06138 0.511082 -6.6743e-23)
(1.05393 0.440209 -8.68116e-23)
(1.049 0.383046 -4.89929e-23)
(1.04824 0.33373 -7.49577e-23)
(1.04866 0.292125 0)
(1.05081 0.255753 0)
(1.04986 0.227459 0)
(0.591749 0.415706 8.10202e-23)
(0.969947 0.634863 -6.63676e-22)
(1.03911 0.593972 0)
(1.03455 0.514358 -7.77636e-23)
(1.03103 0.441601 7.14617e-24)
(1.02925 0.383112 0)
(1.03116 0.332974 6.96377e-23)
(1.03373 0.290847 1.22051e-22)
(1.03741 0.254267 -2.53045e-23)
(1.03812 0.225472 2.12542e-23)
(0.582188 0.436691 -5.88389e-23)
(0.941484 0.648497 7.11977e-22)
(1.00808 0.599587 0)
(1.00688 0.515975 -8.10234e-23)
(1.00762 0.441662 3.1041e-25)
(1.00916 0.382088 1.72653e-22)
(1.01389 0.331304 1.99436e-23)
(1.01866 0.288829 -1.38745e-22)
(1.0239 0.252128 0)
(1.02644 0.222835 -2.45869e-22)
(0.569085 0.455405 -8.13001e-22)
(0.910111 0.659067 -3.93273e-23)
(0.975753 0.602847 -5.93728e-24)
(0.978516 0.515864 4.91117e-24)
(0.983776 0.440319 2.29969e-22)
(0.988802 0.379919 -1.72655e-22)
(0.996468 0.328684 -2.32467e-22)
(1.00348 0.286041 -2.02658e-22)
(1.01032 0.249307 -3.44888e-22)
(1.01495 0.219542 2.15215e-22)
(0.55256 0.471494 8.60914e-22)
(0.876392 0.666563 0)
(0.942361 0.603622 -4.37262e-23)
(0.949606 0.513957 5.066e-24)
(0.95962 0.437511 -5.65459e-22)
(0.968271 0.376559 0)
(0.978971 0.325082 2.32469e-22)
(0.988228 0.282444 -4.05845e-23)
(0.996783 0.245777 3.91401e-22)
(1.00392 0.215631 -3.90606e-23)
(0.532827 0.484538 0)
(0.84071 0.67083 8.04866e-23)
(0.908106 0.601849 3.7602e-23)
(0.920303 0.510187 0)
(0.93526 0.433187 3.35491e-22)
(0.947652 0.371971 0)
(0.961451 0.320473 -3.42395e-22)
(0.97296 0.278 2.43246e-22)
(0.983458 0.241499 4.64068e-22)
(0.993658 0.21117 3.66466e-22)
(0.510371 0.494369 -2.39102e-23)
(0.803408 0.671732 -6.08604e-23)
(0.873218 0.597468 0)
(0.890766 0.504492 0)
(0.910814 0.427307 0)
(0.927039 0.366124 5.50426e-23)
(0.943971 0.314837 2.506e-22)
(0.957765 0.272682 3.8367e-23)
(0.970534 0.236413 -4.64071e-22)
(0.98405 0.206107 -4.1155e-22)
(0.485611 0.500816 0)
(0.764833 0.669152 2.3162e-22)
(0.837935 0.590437 0)
(0.861155 0.496823 0)
(0.886403 0.419839 0)
(0.906522 0.358995 -6.39076e-23)
(0.926603 0.308159 5.57093e-22)
(0.942764 0.266494 -1.27762e-22)
(0.958092 0.230532 -4.40341e-22)
(0.974431 0.198946 -4.46106e-22)
(0.458956 0.503746 0)
(0.725342 0.663013 -2.31622e-22)
(0.8025 0.580728 4.70719e-22)
(0.831637 0.487143 0)
(0.862151 0.410762 7.60651e-22)
(0.886199 0.350569 0)
(0.909436 0.300425 -4.51481e-22)
(0.928071 0.25945 4.02022e-22)
(0.945885 0.224313 5.7687e-22)
(0.963528 0.193769 4.44742e-22)
(0.430818 0.503067 -4.18441e-22)
(0.6853 0.653266 0)
(0.767157 0.56833 -4.02039e-22)
(0.802379 0.475431 -5.68129e-23)
(0.838188 0.400067 -1.62554e-21)
(0.866167 0.340838 0)
(0.892563 0.291621 5.57556e-22)
(0.913752 0.251474 3.76607e-23)
(0.934029 0.21704 6.0626e-22)
(0.953054 0.187142 2.43602e-24)
(0.401605 0.498725 4.58461e-22)
(0.645071 0.639895 -3.28497e-23)
(0.732148 0.553253 -8.11136e-23)
(0.773554 0.46168 -6.70953e-23)
(0.814641 0.387756 8.64891e-22)
(0.846527 0.329806 -7.71554e-22)
(0.876066 0.281764 -5.5756e-22)
(0.899811 0.242664 -4.39688e-22)
(0.922366 0.209191 -6.85315e-22)
(0.942563 0.180293 6.35867e-22)
(0.371723 0.490706 -5.30676e-23)
(0.605018 0.622913 -8.14456e-22)
(0.697714 0.535522 0)
(0.745333 0.4459 5.82079e-22)
(0.791641 0.37384 6.42069e-23)
(0.827385 0.317482 7.71558e-22)
(0.860036 0.270856 -7.66871e-23)
(0.886319 0.232969 -4.47485e-22)
(0.911044 0.20056 0)
(0.932373 0.172749 -5.67219e-22)
(0.341568 0.479035 6.12964e-23)
(0.565497 0.602363 8.5802e-22)
(0.664091 0.515183 0)
(0.717886 0.428117 -1.57638e-23)
(0.769316 0.358344 7.09911e-23)
(0.808841 0.303889 0)
(0.844548 0.258922 7.06272e-22)
(0.87331 0.222443 5.11674e-22)
(0.900079 0.19128 9.76351e-23)
(0.922534 0.16467 -8.20107e-23)
(0.311528 0.463774 0)
(0.526856 0.578317 1.29373e-21)
(0.631507 0.492298 -1.14613e-22)
(0.69138 0.408373 6.72225e-23)
(0.747795 0.341304 6.28061e-22)
(0.790999 0.289056 1.08762e-21)
(0.829683 0.245986 -8.0125e-22)
(0.860847 0.211093 0)
(0.889544 0.181328 0)
(0.913129 0.156012 0)
(0.281975 0.445021 2.41726e-24)
(0.489431 0.550876 -1.07351e-21)
(0.600187 0.466949 1.28137e-22)
(0.665979 0.386725 -8.97416e-22)
(0.727203 0.322767 -5.44231e-22)
(0.773957 0.273023 1.82786e-22)
(0.815515 0.232082 -8.03659e-22)
(0.848982 0.198957 5.31316e-22)
(0.87949 0.170745 5.73802e-22)
(0.904212 0.14681 -4.4784e-22)
(0.253269 0.422913 -7.53807e-22)
(0.453542 0.520161 -8.39803e-23)
(0.570344 0.439233 1.17778e-21)
(0.641842 0.363244 9.21535e-22)
(0.707662 0.302791 0)
(0.757811 0.255838 -1.03558e-21)
(0.802119 0.217251 -4.09602e-23)
(0.837773 0.186067 -6.8381e-22)
(0.869972 0.159552 -4.02323e-22)
(0.895831 0.137084 3.56406e-22)
(0.225749 0.397631 1.80597e-21)
(0.419486 0.486313 0)
(0.542183 0.409265 -2.43998e-21)
(0.619122 0.338017 -8.06563e-22)
(0.689291 0.281446 -9.54386e-23)
(0.742653 0.237558 0)
(0.789565 0.201541 8.36514e-22)
(0.827275 0.172464 -6.65331e-22)
(0.86104 0.147778 -5.05753e-22)
(0.888023 0.126865 3.86687e-22)
(0.199729 0.369396 -9.49852e-22)
(0.387541 0.449488 -8.35769e-22)
(0.515905 0.377171 1.41997e-21)
(0.597962 0.311145 -1.30503e-22)
(0.672202 0.258812 0)
(0.728572 0.218249 0)
(0.77792 0.185003 0)
(0.817539 0.158191 1.35567e-21)
(0.852744 0.135459 5.05755e-22)
(0.880824 0.116187 -3.86686e-22)
(0.17548 0.338429 -9.84252e-22)
(0.357974 0.409899 8.32691e-22)
(0.491701 0.343095 8.7636e-23)
(0.578499 0.282741 0)
(0.6565 0.234978 -8.22591e-22)
(0.715648 0.197984 -5.4907e-22)
(0.767245 0.167698 -6.10273e-23)
(0.808616 0.143297 1.06581e-22)
(0.845129 0.122633 -1.34001e-22)
(0.874264 0.105087 5.3502e-23)
(0.15324 0.304933 1.11758e-21)
(0.331038 0.367798 -1.12188e-22)
(0.469747 0.3072 -9.17904e-22)
(0.560862 0.252933 2.04396e-22)
(0.642282 0.210045 6.12523e-22)
(0.703958 0.176844 7.81189e-22)
(0.757601 0.149691 -6.31265e-23)
(0.800553 0.127833 -3.46352e-22)
(0.838239 0.109342 0)
(0.868371 0.0936069 5.03029e-23)
(0.133234 0.269137 7.65337e-23)
(0.306961 0.32345 0)
(0.450194 0.269666 -2.84615e-23)
(0.545165 0.221861 0)
(0.629639 0.184119 -8.78446e-22)
(0.69357 0.154915 6.60802e-22)
(0.749039 0.131052 0)
(0.793392 0.111857 8.96639e-24)
(0.832114 0.0956319 0)
(0.863167 0.0817906 0)
(0.115673 0.231299 1.58635e-22)
(0.285943 0.277124 -1.08165e-21)
(0.433179 0.230688 8.60425e-22)
(0.531513 0.189671 -1.47962e-22)
(0.618649 0.157317 3.80395e-22)
(0.684547 0.132291 1.03918e-22)
(0.741607 0.111856 0)
(0.787175 0.0954289 -2.85178e-22)
(0.826789 0.0815531 -7.59555e-23)
(0.858673 0.0696843 -2.20133e-22)
(0.100743 0.191702 6.77972e-22)
(0.268158 0.2291 -1.60408e-21)
(0.418819 0.190469 1.47902e-22)
(0.519995 0.156521 -6.18013e-22)
(0.609382 0.129762 -6.9285e-23)
(0.676943 0.109069 -6.76294e-22)
(0.735347 0.0921815 0)
(0.781936 0.0786137 3.8975e-22)
(0.822299 0.0671584 -6.97696e-23)
(0.854904 0.0573344 5.02155e-22)
(0.0886041 0.150642 -6.77973e-22)
(0.253751 0.179668 5.88291e-22)
(0.40721 0.149223 -1.02154e-22)
(0.510688 0.122575 7.25102e-22)
(0.601896 0.101583 3.98542e-22)
(0.670803 0.0853516 4.13666e-23)
(0.730294 0.0721119 -3.45389e-23)
(0.777706 0.0614787 -4.36514e-22)
(0.81867 0.0525039 3.86256e-24)
(0.851873 0.0447879 -1.66826e-22)
(0.079385 0.108432 3.54564e-22)
(0.242842 0.129132 0)
(0.398434 0.107169 4.19451e-22)
(0.503653 0.0880047 0)
(0.59624 0.0729128 5.59519e-23)
(0.666165 0.0612456 -4.65886e-23)
(0.726479 0.0517319 0)
(0.77451 0.0440934 0)
(0.815926 0.0376471 0)
(0.849592 0.0320925 0)
(0.0731841 0.065393 -3.10606e-22)
(0.23552 0.077799 -1.19645e-22)
(0.39255 0.0645349 -4.19451e-22)
(0.498937 0.0529838 0)
(0.592449 0.0438897 0)
(0.663057 0.0368599 2.10995e-23)
(0.723923 0.0311288 -8.42343e-23)
(0.772368 0.0265283 -1.00113e-22)
(0.814086 0.022646 -9.35392e-23)
(0.848066 0.0192947 1.5104e-23)
(0.0700671 0.0218534 -5.62217e-24)
(0.231843 0.0259865 1.29059e-22)
(0.389598 0.0215506 -5.78684e-24)
(0.496571 0.0176915 1.99491e-23)
(0.590547 0.0146536 -7.86491e-24)
(0.661498 0.0123054 0)
(0.722641 0.0103912 6.66174e-23)
(0.771293 0.0088548 1.00113e-22)
(0.813162 0.00755825 7.10462e-23)
(0.847302 0.00643793 1.06308e-23)
(0.0700671 -0.0218534 -5.62217e-24)
(0.231843 -0.0259865 1.29059e-22)
(0.389598 -0.0215506 -5.78684e-24)
(0.496571 -0.0176915 1.99491e-23)
(0.590547 -0.0146536 -7.86491e-24)
(0.661498 -0.0123054 0)
(0.722641 -0.0103912 5.86777e-23)
(0.771293 -0.00885481 1.06758e-22)
(0.813162 -0.00755826 7.55569e-23)
(0.847302 -0.00643793 0)
(0.0731841 -0.065393 -3.98523e-22)
(0.23552 -0.077799 -1.55163e-22)
(0.39255 -0.0645349 -4.44645e-22)
(0.498937 -0.0529838 2.08398e-23)
(0.592449 -0.0438897 0)
(0.663057 -0.0368599 -2.10995e-23)
(0.723923 -0.0311288 -4.90004e-23)
(0.772368 -0.0265283 -1.00113e-22)
(0.814086 -0.022646 -5.75745e-23)
(0.848066 -0.0192947 -1.5104e-23)
(0.079385 -0.108432 3.54564e-22)
(0.242842 -0.129132 0)
(0.398434 -0.107169 4.19451e-22)
(0.503653 -0.0880047 0)
(0.59624 -0.0729128 5.59519e-23)
(0.666165 -0.0612456 -4.65886e-23)
(0.726479 -0.0517319 0)
(0.77451 -0.0440934 0)
(0.815926 -0.0376471 0)
(0.849592 -0.0320925 0)
(0.0886041 -0.150642 -6.77973e-22)
(0.253751 -0.179668 4.59467e-22)
(0.40721 -0.149223 1.02154e-22)
(0.510688 -0.122575 4.96523e-22)
(0.601896 -0.101583 5.20875e-22)
(0.670803 -0.0853516 -4.13666e-23)
(0.730294 -0.0721119 3.45389e-23)
(0.777706 -0.0614788 -3.42988e-22)
(0.81867 -0.0525039 -3.86256e-24)
(0.851873 -0.0447879 -2.80014e-22)
(0.100743 -0.191702 6.77972e-22)
(0.268158 -0.2291 5.56324e-22)
(0.418819 -0.190469 -1.47902e-22)
(0.519995 -0.156521 -6.0361e-22)
(0.609382 -0.129762 5.07383e-23)
(0.676943 -0.109069 -6.76294e-22)
(0.735347 -0.0921815 0)
(0.781936 -0.0786137 3.8975e-22)
(0.822299 -0.0671584 6.97696e-23)
(0.854904 -0.0573344 3.84951e-22)
(0.115673 -0.231299 -1.58635e-22)
(0.285943 -0.277124 1.08165e-21)
(0.433179 -0.230688 6.73313e-22)
(0.531513 -0.189671 1.47962e-22)
(0.618649 -0.157317 4.75633e-22)
(0.684547 -0.132291 -1.52719e-22)
(0.741607 -0.111856 6.66111e-23)
(0.787175 -0.0954289 -4.66279e-22)
(0.826789 -0.0815531 7.59555e-23)
(0.858673 -0.0696843 -2.20133e-22)
(0.133234 -0.269137 -7.65337e-23)
(0.306961 -0.32345 0)
(0.450194 -0.269666 -2.84615e-23)
(0.545165 -0.221861 0)
(0.629639 -0.184119 -8.78446e-22)
(0.69357 -0.154915 6.60802e-22)
(0.749039 -0.131052 0)
(0.793392 -0.111857 8.96639e-24)
(0.832114 -0.0956319 0)
(0.863167 -0.0817906 0)
(0.15324 -0.304933 1.11758e-21)
(0.331038 -0.367799 1.12188e-22)
(0.469747 -0.3072 -6.45971e-22)
(0.560862 -0.252933 -1.32376e-22)
(0.642282 -0.210045 1.03266e-21)
(0.703958 -0.176844 4.63136e-22)
(0.757601 -0.149691 6.31265e-23)
(0.800553 -0.127833 -4.32698e-22)
(0.838239 -0.109342 7.24289e-23)
(0.868371 -0.0936069 -5.03029e-23)
(0.17548 -0.338429 -1.25091e-21)
(0.357974 -0.409899 8.38851e-22)
(0.491701 -0.343095 7.87114e-23)
(0.578499 -0.282741 -1.37599e-22)
(0.6565 -0.234978 -8.22591e-22)
(0.715648 -0.197984 -6.95252e-22)
(0.767245 -0.167698 6.10273e-23)
(0.808616 -0.143297 -6.10431e-23)
(0.845129 -0.122633 1.34001e-22)
(0.874264 -0.105087 -5.3502e-23)
(0.199729 -0.369396 -9.49852e-22)
(0.387541 -0.449488 -8.35769e-22)
(0.515905 -0.377171 1.10443e-21)
(0.597962 -0.311145 1.30503e-22)
(0.672202 -0.258812 0)
(0.728572 -0.218249 0)
(0.77792 -0.185003 0)
(0.817539 -0.158191 1.35567e-21)
(0.852744 -0.135459 5.05755e-22)
(0.880824 -0.116187 -3.86686e-22)
(0.225749 -0.397631 1.80597e-21)
(0.419486 -0.486313 0)
(0.542183 -0.409265 -2.43998e-21)
(0.619122 -0.338017 -9.21539e-22)
(0.689291 -0.281446 0)
(0.742653 -0.237558 0)
(0.789565 -0.201541 8.36514e-22)
(0.827275 -0.172464 -6.65331e-22)
(0.86104 -0.147778 -5.05753e-22)
(0.888023 -0.126865 3.86687e-22)
(0.253269 -0.422913 -9.58422e-22)
(0.453542 -0.520161 8.39803e-23)
(0.570344 -0.439233 1.17778e-21)
(0.641843 -0.363244 1.02973e-21)
(0.707662 -0.302791 -8.98097e-23)
(0.757811 -0.255838 -1.03558e-21)
(0.802119 -0.217251 -4.09602e-23)
(0.837773 -0.186067 -5.3449e-22)
(0.869972 -0.159552 -5.27575e-22)
(0.895831 -0.137084 3.56405e-22)
(0.281975 -0.445021 -2.41726e-24)
(0.489431 -0.550876 -1.23574e-21)
(0.600187 -0.466949 -1.28137e-22)
(0.665979 -0.386725 -6.95429e-22)
(0.727203 -0.322767 -5.54743e-22)
(0.773957 -0.273023 -1.90245e-22)
(0.815515 -0.232082 -7.87434e-22)
(0.848982 -0.198957 6.86979e-22)
(0.87949 -0.170745 3.56092e-22)
(0.904212 -0.14681 -2.64972e-22)
(0.311528 -0.463774 0)
(0.526856 -0.578317 1.01551e-21)
(0.631507 -0.492298 1.14613e-22)
(0.69138 -0.408373 6.72225e-23)
(0.747795 -0.341304 6.28061e-22)
(0.790999 -0.289056 8.60126e-22)
(0.829683 -0.245986 -6.99103e-22)
(0.860847 -0.211093 7.34895e-23)
(0.889544 -0.181328 0)
(0.913129 -0.156012 0)
(0.341568 -0.479035 -6.12964e-23)
(0.565497 -0.602363 8.5802e-22)
(0.664091 -0.515183 0)
(0.717886 -0.428117 1.55283e-22)
(0.769316 -0.358344 -7.09911e-23)
(0.808841 -0.303889 0)
(0.844548 -0.258922 7.06272e-22)
(0.87331 -0.222443 5.11674e-22)
(0.900079 -0.19128 -9.76351e-23)
(0.922534 -0.16467 8.20107e-23)
(0.371723 -0.490706 5.30675e-23)