/*--------------------------------*- C++ -*----------------------------------*\
  =========                 |
  \\      /  F ield         | OpenFOAM: The Open Source CFD Toolbox
   \\    /   O peration     | Website:  https://openfoam.org
    \\  /    A nd           | Version:  9
     \\/     M anipulation  |
\*---------------------------------------------------------------------------*/
FoamFile
{
    format      ascii;
    class       surfaceScalarField;
    location    "7.6";
    object      phi;
}
// * * * * * * * * * * * * * * * * * * * * * * * * * * * * * * * * * * * * * //

dimensions      [0 3 -1 0 0 0 0];

internalField   nonuniform List<scalar> 
16735
(
-0.00152345
0.00152345
5.54629e-11
-0.00416975
0.0026463
1.51435e-10
-0.00706906
0.00289931
2.44893e-10
-0.00947682
0.00240776
3.44444e-10
-0.010822
0.00134514
4.47753e-10
-0.0105593
-0.000262631
5.56356e-10
-0.00818255
-0.00237679
6.64621e-10
-0.00310367
-0.00507887
7.52823e-10
0.00471816
-0.00782183
8.16545e-10
-0.0113265
8.28851e-10
0.0160447
-0.0014916
0.00301505
-0.00405911
0.00521381
-0.0068317
0.0056719
-0.00906042
0.00463648
-0.0101663
0.00245099
-0.00959415
-0.000834745
-0.00682476
-0.00514619
-0.00128183
-0.0106218
0.00718227
-0.0162859
-0.0234135
0.0192692
-0.00142848
0.00444353
-0.0038395
0.00762483
-0.00636025
0.00819265
-0.00823305
0.00650929
-0.00886321
0.00308115
-0.00767546
-0.0020225
-0.00412203
-0.00869961
0.00239291
-0.0171367
0.0120789
-0.0259719
-0.0369961
0.0256615
-0.0013352
0.00577873
-0.00351418
0.00980381
-0.00566108
0.0103396
-0.00700536
0.00785357
-0.00692956
0.00300534
-0.00482797
-0.00412409
-6.60108e-05
-0.0134616
0.00785993
-0.0250627
0.019333
-0.037445
-0.0527701
0.035107
-0.00121336
0.00699209
-0.00308784
0.0116783
-0.00474342
0.0119951
-0.00539277
0.00850292
-0.00438919
0.00200176
-0.00109621
-0.00741707
0.00513692
-0.0196947
0.0150033
-0.0349291
0.0288294
-0.0512711
-0.0713764
0.0474357
-0.00106498
0.00805707
-0.00256641
0.0131797
-0.00361898
0.0130477
-0.00341484
0.00829879
-0.00127126
-0.000141819
0.00349035
-0.0121787
0.0115668
-0.0277712
0.0237342
-0.0470965
0.0404204
-0.0679573
-0.0933813
0.0624253
-0.000892404
0.00894948
-0.0019568
0.0142441
-0.00230148
0.0133924
-0.00109466
0.00709196
0.00238507
-0.00362155
0.00886775
-0.0186614
0.0191025
-0.038006
0.0339321
-0.061926
0.0539252
-0.0879504
-0.11926
0.0798036
-0.000698173
0.00964765
-0.00126658
0.0148125
-0.000806137
0.0129319
0.00154143
0.0047444
0.00654095
-0.00862108
0.014974
-0.0270944
0.0276476
-0.0506796
0.045455
-0.0797334
0.0691325
-0.111628
-0.14938
0.0992526
-0.000485058
0.0101327
-0.000503504
0.014831
0.000851083
0.0115774
0.00446617
0.00112931
0.0111524
-0.0153073
0.0217415
-0.0376834
0.0370975
-0.0660356
0.0581442
-0.10078
0.0858018
-0.139286
-0.183987
0.120409
-0.000256621
0.0103893
0.000323005
0.0142513
0.00265334
0.00924702
0.00765064
-0.003868
0.0161723
-0.023829
0.0290971
-0.0506083
0.0473393
-0.0842778
0.0718261
-0.125267
0.103666
-0.171126
-0.223187
0.142866
-3.64296e-06
0.010393
0.00120762
0.0130401
0.00458445
0.00587019
0.0110655
-0.010349
0.0215521
-0.0343156
0.036964
-0.0660203
0.0582527
-0.105566
0.0863143
-0.153328
0.122434
-0.207245
-0.266932
0.166179
0.000247582
0.0101454
0.00214133
0.0111463
0.00662855
0.00138296
0.0146816
-0.0184021
0.0272425
-0.0468764
0.0452621
-0.0840399
0.0697103
-0.130015
0.101411
-0.185029
0.141795
-0.247629
-0.315013
0.189875
0.000513768
0.00963162
0.00311791
0.00854219
0.00877053
-0.00426967
0.0184707
-0.0281023
0.0331938
-0.0615995
0.0539084
-0.104754
0.0815776
-0.157684
0.116909
-0.220361
0.161418
-0.292137
-0.367053
0.213458
0.0007889
0.00884272
0.00413147
0.00519963
0.0109964
-0.0111346
0.0224048
-0.0395107
0.0393556
-0.0785504
0.0628168
-0.128216
0.0937129
-0.18858
0.132591
-0.25924
0.180961
-0.340507
-0.422513
0.236421
0.00107159
0.00777114
0.00517682
0.0010944
0.0132931
-0.0192508
0.0264568
-0.0526744
0.0456768
-0.0977703
0.0718976
-0.154437
0.105966
-0.222649
0.148231
-0.301505
0.200072
-0.392348
-0.480705
0.258264
0.00136097
0.00641017
0.00624954
-0.00379417
0.0156483
-0.0286496
0.0305997
-0.0676258
0.0521046
-0.119275
0.0810564
-0.183388
0.118179
-0.259771
0.163594
-0.346919
0.218395
-0.44715
-0.540829
0.27852
0.00165651
0.00475365
0.00734579
-0.00948345
0.0180503
-0.0393542
0.0348062
-0.0843816
0.0585838
-0.143053
0.0901931
-0.214998
0.130185
-0.299763
0.17844
-0.395174
0.235572
-0.504282
-0.602061
0.296804
0.00195792
0.00279573
0.00846208
-0.0159876
0.0204874
-0.0513794
0.0390475
-0.102942
0.0650559
-0.169061
0.0992013
-0.249143
0.141811
-0.342373
0.192532
-0.445895
0.251259
-0.563009
-0.663666
0.312864
0.00226505
0.000530681
0.00959501
-0.0233176
0.0229471
-0.0647316
0.0432932
-0.123288
0.0714578
-0.197226
0.107967
-0.285652
0.152882
-0.387288
0.205648
-0.498662
0.265174
-0.622534
-0.725136
0.326644
0.00257778
-0.0020471
0.010741
-0.0314808
0.0254164
-0.079407
0.04751
-0.145381
0.0777213
-0.227437
0.116369
-0.3243
0.16321
-0.434129
0.217534
-0.552985
0.27717
-0.68217
-0.787159
0.339193
0.00289592
-0.00494302
0.0118958
-0.0404807
0.0278802
-0.0953913
0.0516613
-0.169163
0.0837734
-0.259549
0.12428
-0.364806
0.172598
-0.482447
0.227781
-0.608169
0.287339
-0.741729
-0.86205
0.36223
0.00321908
-0.00816211
0.0130547
-0.0503163
0.0303217
-0.112658
0.0557071
-0.194548
0.0895371
-0.293379
0.131573
-0.406842
0.180858
-0.531732
0.236127
-0.663438
0.294533
-0.800134
-0.929637
0.36212
0.0035466
-0.0117087
0.0142115
-0.0609812
0.0327219
-0.131169
0.0596042
-0.22143
0.0949336
-0.328709
0.138128
-0.450037
0.187843
-0.581447
0.242438
-0.718032
0.29889
-0.856587
-0.990835
0.360088
0.00387742
-0.0155861
0.0153592
-0.072463
0.0350593
-0.150869
0.0633063
-0.249677
0.0998835
-0.365286
0.143836
-0.493989
0.193438
-0.631049
0.246699
-0.771294
0.300674
-0.910562
-1.04634
0.356182
0.00421007
-0.0197962
0.0164892
-0.0847421
0.03731
-0.17169
0.066765
-0.279132
0.104309
-0.40283
0.148599
-0.538278
0.197558
-0.680008
0.248922
-0.822658
0.299952
-0.961591
-1.09667
0.350275
0.0045426
-0.0243388
0.0175917
-0.0977912
0.0394482
-0.193546
0.069931
-0.309615
0.108137
-0.441037
0.152335
-0.582476
0.200149
-0.727822
0.24914
-0.871649
0.296852
-1.0093
-1.14217
0.342358
0.00487257
-0.0292114
0.0186556
-0.111574
0.0414464
-0.216337
0.072755
-0.340924
0.111301
-0.479583
0.154981
-0.626156
0.201189
-0.77403
0.247418
-0.917879
0.29155
-1.05344
-1.18315
0.332524
0.0051971
-0.0344085
0.0196687
-0.126046
0.0432763
-0.239945
0.0751894
-0.372837
0.113742
-0.518135
0.156494
-0.668909
0.200684
-0.818219
0.243851
-0.961045
0.284243
-1.09383
-1.21983
0.320928
0.00551285
-0.0399213
0.0206181
-0.141151
0.0449092
-0.264236
0.0771901
-0.405118
0.115413
-0.556358
0.156852
-0.710348
0.198672
-0.860039
0.238556
-1.00093
0.275139
-1.13041
-1.25245
0.307757
0.00581615
-0.0457375
0.02149
-0.156825
0.0463171
-0.289063
0.0787177
-0.437518
0.11628
-0.59392
0.156053
-0.750121
0.195215
-0.899201
0.23167
-1.03738
0.264448
-1.16319
-1.28121
0.293212
0.00610301
-0.0518405
0.0222706
-0.172992
0.0474733
-0.314265
0.0797391
-0.469784
0.116322
-0.630503
0.154117
-0.787916
0.190394
-0.935478
0.223343
-1.07033
0.252376
-1.19222
-1.30633
0.277491
0.00636925
-0.0582097
0.0229463
-0.18957
0.0483537
-0.339673
0.0802284
-0.501659
0.115533
-0.665808
0.15108
-0.823463
0.184306
-0.968704
0.213729
-1.09976
0.239119
-1.21761
-1.32799
0.26078
0.00661059
-0.0648203
0.0235039
-0.206463
0.048937
-0.365106
0.0801675
-0.532889
0.113917
-0.699557
0.146994
-0.85654
0.177062
-0.998772
0.202983
-1.12568
0.224859
-1.23949
-1.34638
0.243251
0.00682275
-0.0716431
0.0239311
-0.223571
0.0492057
-0.390381
0.079547
-0.56323
0.111495
-0.731506
0.141925
-0.88697
0.168773
-1.02562
0.191256
-1.14816
0.209763
-1.258
-1.36168
0.225057
0.00700153
-0.0786446
0.0242168
-0.240786
0.0491463
-0.41531
0.0783656
-0.59245
0.108297
-0.761437
0.135946
-0.91462
0.159558
-1.04923
0.178691
-1.16729
0.19398
-1.27329
-1.37403
0.206335
0.00714295
-0.0857876
0.0243514
-0.257995
0.04875
-0.439709
0.07663
-0.62033
0.104361
-0.789168
0.129138
-0.939397
0.149532
-1.06963
0.165423
-1.18318
0.177646
-1.28551
-1.38359
0.187202
0.00724331
-0.0930309
0.024327
-0.275078
0.0480124
-0.463394
0.0743545
-0.646672
0.0997345
-0.814548
0.121584
-0.961246
0.138807
-1.08685
0.151575
-1.19595
0.160877
-1.29481
-1.39047
0.167761
0.00729926
-0.10033
0.0241376
-0.291917
0.0469337
-0.48619
0.0715599
-0.671298
0.0944706
-0.837458
0.113369
-0.980145
0.12749
-1.10097
0.137259
-1.20572
0.143777
-1.30133
-1.39479
0.1481
0.00730791
-0.107638
0.0237793
-0.308388
0.0455185
-0.507929
0.0682729
-0.694053
0.0886257
-0.857811
0.104578
-0.996097
0.115679
-1.11207
0.122575
-1.21262
0.126436
-1.30519
-1.39665
0.128295
0.00726687
-0.114905
0.0232503
-0.324372
0.0437755
-0.528455
0.0645247
-0.714802
0.0822592
-0.875546
0.0952923
-1.00913
0.103469
-1.12025
0.107613
-1.21676
0.108931
-1.30651
-1.39613
0.108412
0.00717429
-0.122079
0.0225507
-0.339748
0.0417174
-0.547621
0.0603503
-0.733435
0.0754311
-0.890627
0.0855907
-1.01929
0.0909424
-1.1256
0.0924528
-1.21827
0.0913322
-1.30539
-1.39331
0.0885105
0.00702891
-0.129108
0.0216828
-0.354402
0.0393598
-0.565298
0.0557874
-0.749862
0.0682014
-0.903041
0.0755475
-1.02664
0.0781782
-1.12823
0.0771646
-1.21726
0.0736973
-1.30192
-1.38825
0.0686375
0.00683007
-0.135938
0.0206506
-0.368223
0.0367213
-0.581369
0.0508756
-0.764017
0.0606291
-0.912794
0.0652324
-1.03124
0.0652459
-1.12824
0.0618109
-1.21382
0.0560795
-1.29619
-1.38101
0.0488358
0.00657772
-0.142516
0.0194602
-0.381105
0.0338228
-0.595732
0.0456555
-0.775849
0.0527712
-0.91991
0.0547104
-1.03318
0.0522088
-1.12574
0.0464472
-1.20806
0.0385254
-1.28827
-1.37162
0.0291397
0.00627243
-0.148788
0.0181192
-0.392952
0.030687
-0.608299
0.0401676
-0.78533
0.0446822
-0.924424
0.044041
-1.03254
0.0391233
-1.12082
0.0311242
-1.20006
0.0210799
-1.27822
-1.3601
0.00955675
0.00591534
-0.154704
0.0166363
-0.403673
0.0273378
-0.619001
0.0344526
-0.792445
0.0364139
-0.926386
0.0332792
-1.0294
0.0260394
-1.11358
0.0158841
-1.18991
0.00382
-1.26616
-1.34647
-0.00980902
0.00550816
-0.160212
0.0150219
-0.413187
0.0238001
-0.627779
0.02855
-0.797195
0.0280152
-0.925851
0.0224756
-1.02386
0.0130035
-1.10411
0.000708765
-1.17761
-0.0133343
-1.25211
-1.33089
-0.0289099
0.00505314
-0.165265
0.0132872
-0.421421
0.0200993
-0.634591
0.0224982
-0.799593
0.0195316
-0.922884
0.0116756
-1.01601
4.28473e-05
-1.09248
-0.0141905
-1.16338
-0.0302674
-1.23604
-1.31337
-0.0477951
0.00455301
-0.169818
0.011444
-0.428311
0.0162607
-0.639408
0.0163343
-0.799667
0.0110055
-0.917555
0.000913759
-1.00592
-0.012749
-1.07882
-0.028946
-1.14718
-0.0469521
-1.21803
-1.2939
-0.0664173
0.00401095
-0.173829
0.00950478
-0.433805
0.0123097
-0.642213
0.0100931
-0.79745
0.00247689
-0.909939
-0.00974558
-0.993693
-0.0253981
-1.06316
-0.0434835
-1.1291
-0.0633695
-1.19815
-1.27252
-0.0847471
0.00343054
-0.177259
0.00748242
-0.437857
0.00827132
-0.643002
0.00380912
-0.792988
-0.00601888
-0.900111
-0.0202955
-0.979416
-0.0378537
-1.04561
-0.0577701
-1.10918
-0.0794949
-1.17642
-1.24926
-0.102759
0.00281572
-0.180075
0.00539098
-0.440432
0.00417061
-0.641781
-0.00248718
-0.786331
-0.0144489
-0.888149
-0.0306965
-0.963169
-0.0500869
-1.02621
-0.0717779
-1.08749
-0.0953027
-1.1529
-1.22413
-0.120428
0.00217075
-0.182246
0.00324694
-0.441509
6.872e-05
-0.638603
-0.0087689
-0.777493
-0.0227836
-0.874135
-0.0409198
-0.945033
-0.0620711
-1.00506
-0.0854806
-1.06408
-0.110767
-1.12761
-1.19717
-0.137732
0.00150108
-0.183747
0.00107002
-0.441078
-0.00414029
-0.633393
-0.0150096
-0.766624
-0.0309943
-0.85815
-0.0509393
-0.925088
-0.0737821
-0.982221
-0.0988534
-1.03901
-0.125863
-1.1006
-1.16838
-0.154648
0.00081031
-0.184557
-0.00114071
-0.439127
-0.00830302
-0.626231
-0.021181
-0.753746
-0.0390561
-0.840275
-0.0607316
-0.903412
-0.0851978
-0.957755
-0.111873
-1.01233
-0.140564
-1.07191
-1.1378
-0.171151
7.60672e-05
-0.184633
-0.00338716
-0.435663
-0.0124414
-0.617176
-0.0272602
-0.738927
-0.0469457
-0.82059
-0.0702756
-0.880082
-0.0962979
-0.931732
-0.124516
-0.984116
-0.154843
-1.04158
-1.10542
-0.187216
-0.000640734
-0.183993
-0.00563008
-0.430674
-0.0165378
-0.606269
-0.0332262
-0.722238
-0.0546423
-0.799173
-0.0795523
-0.855172
-0.107064
-0.904221
-0.136762
-0.954418
-0.168673
-1.00967
-1.07128
-0.20282
-0.00137164
-0.182621
-0.00786363
-0.424182
-0.0205751
-0.593557
-0.0390594
-0.703754
-0.0621273
-0.776106
-0.0885445
-0.828755
-0.11748
-0.875286
-0.148593
-0.923305
-0.182031
-0.976232
-1.03537
-0.217932
-0.00210811
-0.180513
-0.0100774
-0.416213
-0.024537
-0.579098
-0.0447418
-0.683549
-0.0693834
-0.751464
-0.0972368
-0.800902
-0.12753
-0.844992
-0.159994
-0.890841
-0.194874
-0.941352
-0.997795
-0.232453
-0.00284441
-0.177669
-0.0122607
-0.406796
-0.0284085
-0.56295
-0.050257
-0.661701
-0.0763954
-0.725326
-0.105615
-0.771682
-0.137204
-0.813404
-0.170948
-0.857096
-0.207155
-0.905145
-0.958542
-0.246408
-0.00357587
-0.174093
-0.0144034
-0.395969
-0.0321755
-0.545178
-0.0555901
-0.638286
-0.0831494
-0.697766
-0.113668
-0.741163
-0.146493
-0.780579
-0.181449
-0.82214
-0.218493
-0.868101
-0.919311
-0.257725
-0.00429814
-0.169794
-0.0164956
-0.383771
-0.0358249
-0.525848
-0.0607275
-0.613383
-0.0896328
-0.668861
-0.121385
-0.709411
-0.155388
-0.746576
-0.19151
-0.786018
-0.229778
-0.829833
-0.878822
-0.270266
-0.00500708
-0.164787
-0.0185282
-0.37025
-0.0393444
-0.505032
-0.0656567
-0.587071
-0.095834
-0.638684
-0.128753
-0.676491
-0.163878
-0.711451
-0.201112
-0.748785
-0.24053
-0.790415
-0.837071
-0.282282
-0.00569875
-0.159089
-0.0204927
-0.355456
-0.042723
-0.482802
-0.0703666
-0.559428
-0.101743
-0.607308
-0.135765
-0.642469
-0.171953
-0.675263
-0.210245
-0.710492
-0.250749
-0.749911
-0.794144
-0.293675
-0.0063694
-0.152719
-0.022381
-0.339445
-0.0459504
-0.459233
-0.0748468
-0.530531
-0.10735
-0.574805
-0.142411
-0.607408
-0.179604
-0.63807
-0.218902
-0.671193
-0.260441
-0.708373
-0.75012
-0.304464
-0.00701549
-0.145704
-0.0241856
-0.322275
-0.0490174
-0.434401
-0.0790881
-0.500461
-0.112646
-0.541246
-0.148683
-0.571371
-0.186824
-0.599929
-0.227076
-0.630942
-0.269598
-0.665851
-0.705061
-0.314657
-0.00763368
-0.13807
-0.0258996
-0.304009
-0.0519154
-0.408385
-0.083082
-0.469294
-0.117624
-0.506704
-0.154574
-0.534421
-0.193605
-0.560898
-0.234757
-0.589791
-0.278211
-0.622396
-0.659024
-0.324248
-0.00822085
-0.129849
-0.0275167
-0.284713
-0.0546367
-0.381265
-0.0868208
-0.43711
-0.122277
-0.471248
-0.160077
-0.496622
-0.199941
-0.521034
-0.241937
-0.547794
-0.286271
-0.578063
-0.612066
-0.333229
-0.00877408
-0.121075
-0.0290311
-0.264456
-0.0571743
-0.353122
-0.0902977
-0.403986
-0.126597
-0.434948
-0.165184
-0.458034
-0.205823
-0.480396
-0.248608
-0.505009
-0.293765
-0.532906
-0.564243
-0.341588
-0.00929068
-0.111784
-0.0304373
-0.243309
-0.0595216
-0.324037
-0.0935062
-0.370002
-0.130579
-0.397875
-0.169891
-0.418723
-0.211244
-0.439043
-0.25476
-0.461492
-0.300683
-0.486983
-0.515615
-0.349311
-0.0097682
-0.102016
-0.0317307
-0.221347
-0.0616732
-0.294095
-0.0964406
-0.335234
-0.134218
-0.360098
-0.17419
-0.378751
-0.216197
-0.397035
-0.260385
-0.417304
-0.307014
-0.440355
-0.466244
-0.356385
-0.0102044
-0.0918119
-0.0329068
-0.198644
-0.0636237
-0.263378
-0.0990959
-0.299762
-0.137507
-0.321687
-0.178075
-0.338183
-0.220676
-0.354435
-0.265475
-0.372505
-0.312745
-0.393084
-0.416194
-0.362795
-0.0105972
-0.0812147
-0.0339618
-0.17528
-0.0653686
-0.231971
-0.101467
-0.263663
-0.140442
-0.282712
-0.181543
-0.297082
-0.224674
-0.311304
-0.27002
-0.327159
-0.317868
-0.345236
-0.365534
-0.368528
-0.0109448
-0.0702699
-0.0348923
-0.151332
-0.066904
-0.199959
-0.103551
-0.227016
-0.14302
-0.243244
-0.184588
-0.255514
-0.228185
-0.267707
-0.274014
-0.28133
-0.322372
-0.296878
-0.314334
-0.373572
-0.0112457
-0.0590242
-0.0356953
-0.126882
-0.0682265
-0.167428
-0.105344
-0.189899
-0.145236
-0.203351
-0.187206
-0.213544
-0.231205
-0.223708
-0.277451
-0.235084
-0.32625
-0.248079
-0.262667
-0.377916
-0.0114985
-0.0475257
-0.0363683
-0.102013
-0.0693329
-0.134464
-0.106842
-0.152389
-0.147088
-0.163106
-0.189393
-0.171239
-0.233729
-0.179372
-0.280324
-0.188489
-0.329492
-0.19891
-0.210609
-0.381551
-0.0117021
-0.0358236
-0.0369092
-0.0768056
-0.070221
-0.101152
-0.108044
-0.114566
-0.148573
-0.122577
-0.191146
-0.128665
-0.235752
-0.134766
-0.282628
-0.141614
-0.332094
-0.149444
-0.158234
-0.384468
-0.0118556
-0.023968
-0.0373163
-0.051345
-0.0708887
-0.0675795
-0.108947
-0.0765083
-0.149688
-0.081836
-0.192464
-0.0858893
-0.237273
-0.0899573
-0.28436
-0.0945269
-0.33405
-0.0997544
-0.105622
-0.386662
-0.0119583
-0.0120097
-0.0375884
-0.0257149
-0.0713346
-0.0338332
-0.10955
-0.0382934
-0.150432
-0.0409534
-0.193343
-0.0429784
-0.238288
-0.0450126
-0.285516
-0.0472988
-0.335356
-0.0499147
-0.0528508
-0.388127
-0.0120097
6.21686e-11
-0.0377246
1.36249e-10
-0.0715579
1.68749e-10
-0.109851
1.78278e-10
-0.150805
1.75934e-10
-0.193783
1.69509e-10
-0.238796
1.62424e-10
-0.286094
1.54381e-10
-0.336009
1.47385e-10
1.40544e-10
-0.38886
-0.0120097
0.0120097
-0.0377246
0.0257149
-0.0715579
0.0338332
-0.109851
0.0382934
-0.150805
0.0409534
-0.193783
0.0429784
-0.238796
0.0450126
-0.286094
0.0472988
-0.336009
0.0499147
0.0528508
-0.38886
-0.0119583
0.023968
-0.0375884
0.051345
-0.0713346
0.0675795
-0.10955
0.0765083
-0.150432
0.081836
-0.193343
0.0858893
-0.238288
0.0899573
-0.285516
0.0945269
-0.335356
0.0997544
0.105622
-0.388127
-0.0118556
0.0358236
-0.0373163
0.0768056
-0.0708887
0.101152
-0.108947
0.114566
-0.149688
0.122577
-0.192464
0.128665
-0.237273
0.134766
-0.28436
0.141614
-0.33405
0.149444
0.158234
-0.386662
-0.0117021
0.0475257
-0.0369092
0.102013
-0.070221
0.134464
-0.108044
0.152389
-0.148573
0.163106
-0.191146
0.171239
-0.235752
0.179372
-0.282628
0.188489
-0.332094
0.19891
0.210609
-0.384468
-0.0114985
0.0590242
-0.0363683
0.126882
-0.0693329
0.167428
-0.106842
0.189899
-0.147088
0.203351
-0.189393
0.213544
-0.233729
0.223708
-0.280324
0.235084
-0.329492
0.248079
0.262667
-0.381551
-0.0112457
0.0702699
-0.0356953
0.151332
-0.0682265
0.199959
-0.105344
0.227016
-0.145236
0.243244
-0.187206
0.255514
-0.231205
0.267707
-0.277451
0.28133
-0.32625
0.296878
0.314334
-0.377916
-0.0109448
0.0812147
-0.0348923
0.17528
-0.066904
0.231971
-0.103551
0.263663
-0.14302
0.282712
-0.184588
0.297082
-0.228185
0.311304
-0.274014
0.327159
-0.322372
0.345236
0.365534
-0.373572
-0.0105972
0.0918119
-0.0339618
0.198644
-0.0653686
0.263378
-0.101467
0.299762
-0.140442
0.321687
-0.181543
0.338183
-0.224674
0.354435
-0.27002
0.372505
-0.317868
0.393084
0.416194
-0.368528
-0.0102044
0.102016
-0.0329068
0.221347
-0.0636237
0.294095
-0.0990959
0.335234
-0.137507
0.360098
-0.178075
0.378751
-0.220676
0.397035
-0.265475
0.417304
-0.312745
0.440355
0.466244
-0.362795
-0.0097682
0.111784
-0.0317307
0.243309
-0.0616732
0.324037
-0.0964406
0.370002
-0.134218
0.397875
-0.17419
0.418723
-0.216197
0.439043
-0.260385
0.461492
-0.307014
0.486983
0.515615
-0.356385
-0.00929068
0.121075
-0.0304373
0.264456
-0.0595216
0.353122
-0.0935062
0.403986
-0.130579
0.434948
-0.169891
0.458034
-0.211244
0.480396
-0.25476
0.505009
-0.300683
0.532906
0.564243
-0.349311
-0.00877408
0.129849
-0.0290311
0.284713
-0.0571743
0.381265
-0.0902977
0.43711
-0.126597
0.471248
-0.165184
0.496622
-0.205823
0.521034
-0.248608
0.547794
-0.293765
0.578063
0.612066
-0.341588
-0.00822085
0.13807
-0.0275167
0.304009
-0.0546367
0.408385
-0.0868208
0.469294
-0.122277
0.506704
-0.160077
0.534421
-0.199941
0.560898
-0.241937
0.589791
-0.286271
0.622396
0.659024
-0.333229
-0.00763368
0.145704
-0.0258996
0.322275
-0.0519154
0.434401
-0.083082
0.500461
-0.117624
0.541246
-0.154574
0.571371
-0.193605
0.599929
-0.234757
0.630942
-0.278211
0.665851
0.705061
-0.324248
-0.00701549
0.152719
-0.0241856
0.339445
-0.0490174
0.459233
-0.0790881
0.530531
-0.112646
0.574805
-0.148683
0.607408
-0.186824
0.63807
-0.227076
0.671193
-0.269598
0.708373
0.75012
-0.314657
-0.0063694
0.159089
-0.022381
0.355456
-0.0459504
0.482802
-0.0748468
0.559428
-0.10735
0.607308
-0.142411
0.642469
-0.179604
0.675263
-0.218902
0.710492
-0.260441
0.749911
0.794144
-0.304464
-0.00569875
0.164787
-0.0204927
0.37025
-0.042723
0.505032
-0.0703666
0.587071
-0.101743
0.638684
-0.135765
0.676491
-0.171953
0.711451
-0.210245
0.748785
-0.250749
0.790415
0.837071
-0.293675
-0.00500708
0.169794
-0.0185282
0.383771
-0.0393444
0.525848
-0.0656567
0.613383
-0.095834
0.668861
-0.128753
0.709411
-0.163878
0.746576
-0.201112
0.786018
-0.24053
0.829833
0.878822
-0.282282
-0.00429814
0.174093
-0.0164956
0.395969
-0.0358249
0.545178
-0.0607275
0.638286
-0.0896328
0.697766
-0.121385
0.741163
-0.155388
0.780579
-0.19151
0.82214
-0.229778
0.868101
0.919311
-0.270266
-0.00357587
0.177669
-0.0144034
0.406796
-0.0321755
0.56295
-0.0555901
0.661701
-0.0831494
0.725326
-0.113668
0.771682
-0.146493
0.813404
-0.181449
0.857096
-0.218493
0.905145
0.958542
-0.257725
-0.00284441
0.180513
-0.0122607
0.416213
-0.0284085
0.579098
-0.050257
0.683549
-0.0763954
0.751464
-0.105615
0.800902
-0.137204
0.844992
-0.170948
0.890841
-0.207155
0.941352
0.997795
-0.246408
-0.00210811
0.182621
-0.0100774
0.424182
-0.024537
0.593557
-0.0447418
0.703754
-0.0693834
0.776106
-0.0972368
0.828755
-0.12753
0.875286
-0.159994
0.923305
-0.194874
0.976232
1.03537
-0.232453
-0.00137164
0.183993
-0.00786363
0.430674
-0.0205751
0.606269
-0.0390594
0.722238
-0.0621273
0.799173
-0.0885445
0.855172
-0.11748
0.904221
-0.148593
0.954418
-0.182031
1.00967
1.07128
-0.217932
-0.000640734
0.184633
-0.00563008
0.435663
-0.0165378
0.617176
-0.0332262
0.738927
-0.0546423
0.82059
-0.0795523
0.880082
-0.107064
0.931732
-0.136762
0.984116
-0.168673
1.04158
1.10542
-0.20282
7.60672e-05
0.184557
-0.00338716
0.439127
-0.0124414
0.626231
-0.0272602
0.753746
-0.0469457
0.840275
-0.0702756
0.903412
-0.0962979
0.957755
-0.124516
1.01233
-0.154843
1.07191
1.1378
-0.187216
0.00081031
0.183747
-0.00114071
0.441078
-0.00830302
0.633393
-0.021181
0.766624
-0.0390561
0.85815
-0.0607316
0.925088
-0.0851978
0.982221
-0.111873
1.03901
-0.140564
1.1006
1.16838
-0.171151
0.00150108
0.182246
0.00107002
0.441509
-0.00414029
0.638603
-0.0150096
0.777493
-0.0309943
0.874135
-0.0509393
0.945033
-0.0737821
1.00506
-0.0988534
1.06408
-0.125863
1.12761
1.19717
-0.154648
0.00217075
0.180075
0.00324694
0.440432
6.872e-05
0.641781
-0.0087689
0.786331
-0.0227836
0.888149
-0.0409198
0.963169
-0.0620711
1.02621
-0.0854806
1.08749
-0.110767
1.1529
1.22413
-0.137732
0.00281572
0.177259
0.00539098
0.437857
0.00417061
0.643002
-0.00248718
0.792988
-0.0144489
0.900111
-0.0306965
0.979416
-0.0500869
1.04561
-0.0717779
1.10918
-0.0953027
1.17642
1.24926
-0.120428
0.00343054
0.173829
0.00748242
0.433805
0.00827132
0.642213
0.00380912
0.79745
-0.00601888
0.909939
-0.0202955
0.993693
-0.0378537
1.06316
-0.0577701
1.1291
-0.0794949
1.19815
1.27252
-0.102759
0.00401095
0.169818
0.00950478
0.428311
0.0123097
0.639408
0.0100931
0.799667
0.00247689
0.917555
-0.00974558
1.00592
-0.0253981
1.07882
-0.0434835
1.14718
-0.0633695
1.21803
1.2939
-0.0847471
0.00455301
0.165265
0.011444
0.421421
0.0162607
0.634591
0.0163343
0.799593
0.0110055
0.922884
0.000913759
1.01601
-0.012749
1.09248
-0.028946
1.16338
-0.0469521
1.23604
1.31337
-0.0664173
0.00505314
0.160212
0.0132872
0.413187
0.0200993
0.627779
0.0224982
0.797195
0.0195316
0.925851
0.0116756
1.02386
4.28474e-05
1.10411
-0.0141905
1.17761
-0.0302674
1.25211
1.33089
-0.0477951
0.00550816
0.154704
0.0150219
0.403673
0.0238001
0.619001
0.02855
0.792445
0.0280152
0.926386
0.0224756
1.0294
0.0130035
1.11358
0.000708765
1.18991
-0.0133343
1.26616
1.34647
-0.0289099
0.00591534
0.148788
0.0166363
0.392952
0.0273378
0.608299
0.0344526
0.78533
0.0364139
0.924424
0.0332792
1.03254
0.0260394
1.12082
0.0158841
1.20006
0.00382
1.27822
1.3601
-0.00980902
0.00627243
0.142516
0.0181192
0.381105
0.030687
0.595732
0.0401676
0.775849
0.0446822
0.91991
0.044041
1.03318
0.0391233
1.12574
0.0311242
1.20806
0.0210799
1.28827
1.37162
0.00955675
0.00657772
0.135938
0.0194602
0.368223
0.0338228
0.581369
0.0456555
0.764017
0.0527712
0.912794
0.0547104
1.03124
0.0522088
1.12824
0.0464472
1.21382
0.0385254
1.29619
1.38101
0.0291397
0.00683007
0.129108
0.0206506
0.354402
0.0367213
0.565298
0.0508756
0.749862
0.0606291
0.903041
0.0652324
1.02664
0.0652459
1.12823
0.0618109
1.21726
0.0560795
1.30192
1.38825
0.0488358
0.00702891
0.122079
0.0216828
0.339748
0.0393598
0.547621
0.0557874
0.733435
0.0682014
0.890627
0.0755475
1.01929
0.0781782
1.1256
0.0771646
1.21827
0.0736973
1.30539
1.39331
0.0686375
0.00717429
0.114905
0.0225507
0.324372
0.0417174
0.528455
0.0603503
0.714802
0.0754311
0.875546
0.0855907
1.00913
0.0909424
1.12025
0.0924528
1.21676
0.0913322
1.30651
1.39613
0.0885105
0.00726687
0.107638
0.0232503
0.308388
0.0437755
0.507929
0.0645247
0.694053
0.0822592
0.857811
0.0952923
0.996097
0.103469
1.11207
0.107613
1.21262
0.108931
1.30519
1.39665
0.108412
0.00730791
0.10033
0.0237793
0.291917
0.0455185
0.48619
0.0682729
0.671298
0.0886257
0.837458
0.104578
0.980145
0.115679
1.10097
0.122575
1.20572
0.126436
1.30133
1.39479
0.128295
0.00729926
0.0930309
0.0241376
0.275078
0.0469337
0.463394
0.0715599
0.646672
0.0944706
0.814548
0.113369
0.961246
0.12749
1.08685
0.137259
1.19595
0.143777
1.29481
1.39047
0.1481
0.00724331
0.0857876
0.024327
0.257995
0.0480124
0.439709
0.0743545
0.62033
0.0997345
0.789168
0.121584
0.939397
0.138807
1.06963
0.151575
1.18318
0.160877
1.28551
1.38359
0.167761
0.00714295
0.0786446
0.0243514
0.240786
0.04875
0.41531
0.07663
0.59245
0.104361
0.761437
0.129138
0.91462
0.149532
1.04923
0.165423
1.16729
0.177646
1.27329
1.37403
0.187202
0.00700153
0.0716431
0.0242168
0.223571
0.0491463
0.390381
0.0783656
0.56323
0.108297
0.731506
0.135946
0.88697
0.159558
1.02562
0.178691
1.14816
0.19398
1.258
1.36168
0.206335
0.00682275
0.0648203
0.0239311
0.206463
0.0492057
0.365106
0.079547
0.532889
0.111495
0.699557
0.141925
0.85654
0.168773
0.998772
0.191256
1.12568
0.209763
1.23949
1.34638
0.225057
0.00661059
0.0582097
0.0235039
0.18957
0.048937
0.339673
0.0801675
0.501659
0.113917
0.665808
0.146994
0.823463
0.177062
0.968704
0.202983
1.09976
0.224859
1.21761
1.32799
0.243251
0.00636925
0.0518405
0.0229463
0.172992
0.0483537
0.314265
0.0802284
0.469784
0.115533
0.630503
0.15108
0.787916
0.184306
0.935478
0.213729
1.07033
0.239119
1.19222
1.30633
0.26078
0.00610301
0.0457375
0.0222706
0.156825
0.0474733
0.289063
0.0797391
0.437518
0.116322
0.59392
0.154117
0.750121
0.190394
0.899201
0.223343
1.03738
0.252376
1.16319
1.28121
0.277491
0.00581615
0.0399213
0.02149
0.141151
0.0463171
0.264236
0.0787177
0.405118
0.11628
0.556358
0.156053
0.710348
0.195215
0.860039
0.23167
1.00093
0.264448
1.13041
1.25245
0.293212
0.00551285
0.0344085
0.0206181
0.126046
0.0449092
0.239945
0.0771901
0.372837
0.115413
0.518135
0.156852
0.668909
0.198672
0.818219
0.238556
0.961045
0.275139
1.09383
1.21983
0.307757
0.0051971
0.0292114
0.0196687
0.111574
0.0432763
0.216337
0.0751894
0.340924
0.113742
0.479583
0.156494
0.626156
0.200684
0.77403
0.243851
0.917879
0.284243
1.05344
1.18315
0.320928
0.00487257
0.0243388
0.0186556
0.0977912
0.0414464
0.193546
0.072755
0.309615
0.111301
0.441037
0.154981
0.582476
0.201189
0.727822
0.247418
0.871649
0.29155
1.0093
1.14217
0.332524
0.0045426
0.0197962
0.0175917
0.0847421
0.0394482
0.17169
0.069931
0.279132
0.108137
0.40283
0.152335
0.538278
0.200149
0.680008
0.24914
0.822658
0.296852
0.961591
1.09667
0.342358
0.00421007
0.0155861
0.0164892
0.072463
0.03731
0.150869
0.066765
0.249677
0.104309
0.365286
0.148599
0.493989
0.197558
0.631049
0.248922
0.771294
0.299952
0.910562
1.04634
0.350275
0.00387742
0.0117087
0.0153592
0.0609812
0.0350593
0.131169
0.0633063
0.22143
0.0998835
0.328709
0.143836
0.450037
0.193438
0.581447
0.246699
0.718032
0.300674
0.856587
0.990835
0.356182
0.0035466
0.00816211
0.0142115
0.0503163
0.0327219
0.112658
0.0596042
0.194548
0.0949336
0.293379
0.138128
0.406842
0.187843
0.531732
0.242438
0.663438
0.29889
0.800134
0.929637
0.360088
0.00321908
0.00494302
0.0130547
0.0404807
0.0303217
0.0953913
0.0557071
0.169163
0.0895371
0.259549
0.131573
0.364806
0.180858
0.482447
0.236127
0.608169
0.294533
0.741729
0.86205
0.36212
0.00289592
0.0020471
0.0118958
0.0314808
0.0278802
0.079407
0.0516613
0.145381
0.0837734
0.227437
0.12428
0.3243
0.172598
0.434129
0.227781
0.552985
0.287339
0.68217
0.787159
0.36223
0.00257778
-0.000530681
0.010741
0.0233176
0.0254164
0.0647316
0.04751
0.123288
0.0777213
0.197226
0.116369
0.285652
0.16321
0.387288
0.217534
0.498662
0.27717
0.622534
0.725136
0.339193
0.00226505
-0.00279573
0.00959501
0.0159876
0.0229471
0.0513794
0.0432932
0.102942
0.0714578
0.169061
0.107967
0.249143
0.152882
0.342373
0.205648
0.445895
0.265174
0.563009
0.663666
0.326644
0.00195792
-0.00475365
0.00846208
0.00948345
0.0204874
0.0393542
0.0390475
0.0843816
0.0650559
0.143053
0.0992013
0.214998
0.141811
0.299763
0.192532
0.395174
0.251259
0.504282
0.602061
0.312864
0.00165651
-0.00641017
0.00734579
0.00379417
0.0180503
0.0286496
0.0348062
0.0676258
0.0585838
0.119275
0.0901931
0.183388
0.130185
0.259771
0.17844
0.346919
0.235572
0.44715
0.540829
0.296804
0.00136097
-0.00777114
0.00624954
-0.0010944
0.0156483
0.0192508
0.0305997
0.0526744
0.0521046
0.0977703
0.0810564
0.154437
0.118179
0.222649
0.163594
0.301505
0.218395
0.392348
0.480705
0.27852
0.00107159
-0.00884272
0.00517682
-0.00519963
0.0132931
0.0111346
0.0264568
0.0395107
0.0456768
0.0785504
0.0718976
0.128216
0.105966
0.18858
0.148231
0.25924
0.200072
0.340507
0.422513
0.258264
0.0007889
-0.00963162
0.00413147
-0.00854219
0.0109964
0.00426967
0.0224048
0.0281023
0.0393556
0.0615995
0.0628168
0.104754
0.0937129
0.157684
0.132591
0.220361
0.180961
0.292137
0.367053
0.236421
0.000513768
-0.0101454
0.00311791
-0.0111463
0.00877053
-0.00138296
0.0184707
0.0184021
0.0331938
0.0468764
0.0539084
0.0840399
0.0815776
0.130015
0.116909
0.185029
0.161418
0.247629
0.315013
0.213458
0.000247582
-0.010393
0.00214133
-0.0130401
0.00662855
-0.00587019
0.0146817
0.010349
0.0272425
0.0343156
0.0452621
0.0660203
0.0697103
0.105566
0.101411
0.153328