/*--------------------------------*- C++ -*----------------------------------*\
  =========                 |
  \\      /  F ield         | OpenFOAM: The Open Source CFD Toolbox
   \\    /   O peration     | Website:  https://openfoam.org
    \\  /    A nd           | Version:  9
     \\/     M anipulation  |
\*---------------------------------------------------------------------------*/
FoamFile
{
    format      ascii;
    class       volScalarField;
    location    "16.6";
    object      p;
}
// * * * * * * * * * * * * * * * * * * * * * * * * * * * * * * * * * * * * * //

dimensions      [0 2 -2 0 0 0 0];

internalField   nonuniform List<scalar> 
8500
(
-0.311074
-0.315455
-0.316416
-0.318407
-0.320889
-0.321633
-0.326239
-0.323525
-0.331437
-0.325935
-0.311355
-0.315668
-0.316624
-0.318581
-0.321096
-0.321724
-0.326541
-0.323419
-0.331831
-0.325711
-0.311908
-0.316089
-0.317031
-0.318918
-0.321501
-0.32189
-0.327131
-0.323191
-0.332604
-0.325272
-0.312719
-0.316703
-0.317622
-0.3194
-0.322081
-0.322109
-0.327982
-0.322811
-0.333727
-0.324635
-0.313765
-0.317495
-0.318375
-0.320002
-0.322806
-0.32235
-0.329047
-0.322247
-0.335154
-0.323817
-0.315019
-0.318441
-0.319266
-0.320691
-0.323635
-0.322582
-0.330263
-0.321471
-0.336832
-0.322814
-0.316453
-0.319519
-0.320264
-0.321436
-0.324519
-0.322782
-0.331546
-0.320462
-0.338704
-0.321588
-0.318036
-0.320705
-0.321338
-0.322206
-0.325401
-0.322939
-0.332804
-0.319223
-0.340685
-0.320194
-0.319738
-0.321975
-0.322458
-0.322975
-0.326223
-0.323049
-0.333926
-0.317887
-0.342321
-0.318883
-0.321534
-0.32331
-0.323594
-0.323721
-0.326932
-0.323134
-0.334668
-0.316619
-0.343745
-0.317124
-0.323403
-0.324693
-0.324721
-0.324431
-0.327473
-0.323309
-0.33496
-0.315301
-0.344865
-0.315246
-0.325332
-0.326112
-0.325822
-0.325101
-0.327709
-0.3236
-0.334838
-0.31406
-0.34525
-0.313751
-0.327315
-0.327565
-0.326887
-0.325764
-0.32772
-0.32386
-0.334273
-0.313227
-0.344321
-0.313182
-0.329356
-0.329051
-0.327906
-0.326381
-0.327569
-0.324064
-0.333201
-0.312965
-0.341671
-0.313524
-0.331469
-0.33058
-0.328905
-0.326936
-0.327295
-0.324193
-0.331695
-0.313187
-0.337297
-0.313871
-0.333684
-0.332156
-0.329921
-0.327446
-0.326951
-0.32407
-0.329884
-0.313504
-0.331738
-0.313058
-0.336034
-0.33381
-0.330982
-0.327946
-0.326619
-0.32365
-0.327851
-0.313517
-0.325642
-0.310546
-0.338564
-0.335571
-0.332127
-0.328475
-0.326359
-0.322959
-0.325559
-0.313017
-0.31924
-0.306394
-0.341325
-0.337477
-0.333401
-0.32907
-0.326171
-0.322107
-0.322919
-0.31191
-0.312439
-0.301045
-0.344376
-0.339568
-0.334857
-0.329755
-0.326009
-0.321205
-0.319915
-0.310032
-0.30528
-0.295229
-0.347773
-0.341897
-0.336546
-0.330527
-0.325849
-0.320279
-0.316623
-0.307165
-0.29837
-0.289389
-0.351561
-0.344534
-0.338503
-0.331368
-0.325724
-0.319257
-0.313115
-0.303292
-0.292075
-0.282401
-0.355815
-0.347529
-0.34073
-0.332292
-0.325688
-0.318012
-0.309411
-0.298692
-0.285718
-0.275242
-0.3606
-0.350948
-0.343186
-0.333382
-0.325729
-0.316437
-0.3055
-0.29351
-0.279336
-0.268083
-0.365976
-0.35484
-0.345817
-0.334771
-0.325748
-0.314475
-0.301335
-0.287944
-0.272834
-0.260866
-0.372013
-0.359214
-0.348631
-0.336525
-0.325621
-0.3121
-0.296897
-0.282083
-0.266196
-0.253651
-0.378783
-0.364014
-0.35175
-0.338555
-0.325247
-0.309311
-0.292172
-0.27599
-0.259429
-0.246369
-0.386358
-0.369141
-0.355382
-0.34065
-0.324549
-0.306113
-0.287155
-0.269687
-0.252521
-0.239016
-0.394777
-0.374491
-0.35971
-0.342594
-0.323458
-0.302512
-0.281839
-0.263176
-0.24547
-0.231552
-0.40401
-0.380008
-0.364763
-0.344238
-0.321905
-0.298502
-0.276215
-0.256448
-0.238256
-0.223955
-0.413935
-0.385709
-0.370346
-0.34549
-0.319827
-0.294066
-0.270267
-0.249485
-0.230861
-0.216199
-0.424316
-0.391676
-0.376058
-0.346272
-0.317174
-0.289175
-0.263974
-0.242267
-0.223262
-0.20826
-0.434819
-0.39801
-0.381405
-0.346494
-0.313903
-0.283792
-0.257308
-0.234769
-0.215436
-0.200118
-0.445124
-0.404769
-0.385929
-0.346041
-0.309976
-0.277883
-0.250237
-0.226965
-0.207359
-0.191751
-0.454928
-0.411913
-0.389285
-0.344781
-0.305352
-0.271413
-0.242731
-0.218824
-0.199011
-0.183142
-0.463976
-0.41926
-0.391262
-0.342578
-0.299986
-0.26435
-0.234755
-0.21032
-0.190368
-0.174272
-0.472069
-0.426474
-0.391762
-0.339306
-0.293827
-0.256662
-0.226281
-0.201428
-0.181411
-0.165128
-0.479049
-0.433089
-0.390779
-0.334869
-0.286821
-0.248314
-0.21728
-0.192125
-0.172121
-0.155702
-0.48479
-0.438576
-0.388343
-0.3292
-0.278917
-0.239274
-0.207727
-0.182389
-0.162483
-0.146004
-0.489184
-0.442463
-0.384426
-0.322251
-0.270064
-0.229509
-0.197599
-0.172202
-0.152482
-0.136056
-0.492132
-0.444418
-0.378909
-0.313978
-0.260222
-0.218989
-0.186878
-0.161548
-0.142107
-0.125876
-0.493526
-0.444167
-0.371698
-0.304338
-0.249357
-0.20769
-0.175547
-0.150411
-0.13135
-0.115432
-0.493235
-0.441512
-0.362735
-0.293292
-0.237439
-0.195593
-0.163593
-0.13878
-0.120221
-0.104658
-0.491099
-0.436321
-0.351975
-0.280818
-0.224451
-0.182683
-0.151001
-0.126643
-0.108762
-0.0934746
-0.48693
-0.428506
-0.339368
-0.266916
-0.210378
-0.168946
-0.137763
-0.114002
-0.0970166
-0.0818751
-0.480518
-0.41801
-0.324877
-0.25159
-0.195209
-0.154379
-0.123884
-0.100897
-0.0849524
-0.0700227
-0.471647
-0.4048
-0.308481
-0.234839
-0.178928
-0.139007
-0.109404
-0.0874152
-0.0724579
-0.0579733
-0.460104
-0.388858
-0.290172
-0.216661
-0.161549
-0.122891
-0.094382
-0.0735278
-0.0595482
-0.0457263
-0.445697
-0.370186
-0.269944
-0.197076
-0.143162
-0.10608
-0.0787822
-0.059244
-0.0462707
-0.0332858
-0.428265
-0.348804
-0.247783
-0.176173
-0.123906
-0.0884878
-0.0626434
-0.0445768
-0.0326725
-0.0206668
-0.407693
-0.324773
-0.223695
-0.154108
-0.103717
-0.0701674
-0.0460055
-0.0295506
-0.0187958
-0.00789667
-0.383916
-0.298218
-0.197774
-0.130843
-0.0826456
-0.0511775
-0.028912
-0.014198
-0.00468101
0.0049871
-0.356922
-0.269293
-0.170208
-0.106304
-0.060752
-0.0315838
-0.0114106
0.00144133
0.00963248
0.0179402
-0.326763
-0.23802
-0.141143
-0.080608
-0.0381036
-0.0114566
0.00644445
0.0173233
0.0241086
0.0309178
-0.29356
-0.204189
-0.110929
-0.0538979
-0.0147749
0.00912931
0.0245926
0.0334027
0.0387163
0.0438762
-0.257486
-0.168093
-0.0795349
-0.0263228
0.00914691
0.0300939
0.0429691
0.0496381
0.0534238
0.0567452
-0.218635
-0.130147
-0.047019
0.00197125
0.0335617
0.0513518
0.0615086
0.0659955
0.0681759
0.0693511
-0.177002
-0.0909573
-0.0135132
0.0308417
0.0583583
0.0728135
0.0801491
0.0824419
0.0828604
0.081357
-0.133059
-0.0506901
0.0208022
0.0601453
0.0834172
0.0943857
0.0988299
0.0989179
0.0973022
0.0924725
-0.0871662
-0.00954026
0.0557226
0.0897327
0.108612
0.115973
0.117483
0.115313
0.111338
0.103016
-0.039706
0.032254
0.091028
0.119447
0.133813
0.137478
0.136024
0.131486
0.124913
0.114305
0.00891847
0.0744283
0.126489
0.149123
0.158886
0.1588
0.154355
0.147326
0.138232
0.126125
0.058287
0.116701
0.161871
0.178592
0.183694
0.179834
0.172382
0.1628
0.151344
0.137989
0.107968
0.158778
0.196935
0.20768
0.2081
0.200471
0.190008
0.177863
0.164195
0.149718
0.157522
0.200361
0.231445
0.236209
0.231966
0.220599
0.207146
0.192467
0.176711
0.161132
0.206509
0.241149
0.265163
0.264003
0.255154
0.24011
0.22371
0.206556
0.188826
0.172134
0.254493
0.280843
0.297858
0.290886
0.277526
0.258895
0.239616
0.220067
0.200471
0.182643
0.301042
0.319149
0.329303
0.316687
0.298949
0.276846
0.254781
0.232936
0.211585
0.192602
0.345736
0.355788
0.359279
0.341238
0.319291
0.293861
0.269127
0.245101
0.222104
0.20196
0.388165
0.3905
0.387577
0.364377
0.338429
0.309841
0.282577
0.256501
0.231973
0.210674
0.427955
0.423028
0.414001
0.385949
0.356242
0.324692
0.295059
0.267075
0.241136
0.218707
0.464805
0.453084
0.438359
0.405807
0.372617
0.338326
0.306503
0.276769
0.249541
0.226024
0.498419
0.48041
0.460477
0.423818
0.387451
0.350661
0.316845
0.28553
0.257142
0.232595
0.528508
0.504791
0.480195
0.439856
0.400649
0.361624
0.326029
0.29331
0.263894
0.238393
0.554807
0.526041
0.497369
0.453813
0.412125
0.371148
0.334002
0.300065
0.269758
0.243398
0.577086
0.543998
0.511875
0.465593
0.421805
0.379176
0.340717
0.305755
0.274699
0.24759
0.59515
0.558528
0.523609
0.475116
0.429627
0.385658
0.346137
0.310348
0.278687
0.250958
0.608838
0.569522
0.532484
0.482316
0.435538
0.390554
0.350231
0.313816
0.281699
0.25349
0.618031
0.576898
0.538437
0.487143
0.4395
0.393835
0.352973
0.31614
0.283718
0.25518
0.622648
0.580599
0.541424
0.489565
0.441488
0.395481
0.354348
0.317306
0.284731
0.256026
0.622648
0.580599
0.541424
0.489565
0.441488
0.395481
0.354348
0.317306
0.284731
0.256026
0.618031
0.576898
0.538437
0.487143
0.4395
0.393835
0.352973
0.31614
0.283718
0.25518
0.608838
0.569522
0.532484
0.482316
0.435538
0.390554
0.350231
0.313816
0.281699
0.25349
0.59515
0.558528
0.523609
0.475116
0.429627
0.385658
0.346137
0.310348
0.278687
0.250958
0.577086
0.543998
0.511875
0.465593
0.421805
0.379176
0.340717
0.305755
0.274699
0.24759
0.554807
0.526041
0.497369
0.453813
0.412125
0.371148
0.334002
0.300065
0.269758
0.243398
0.528508
0.504791
0.480195
0.439856
0.400649
0.361624
0.326029
0.29331
0.263894
0.238393
0.498419
0.48041
0.460477
0.423818
0.387451
0.350661
0.316845
0.28553
0.257142
0.232595
0.464805
0.453084
0.438359
0.405807
0.372617
0.338326
0.306503
0.276769
0.249541
0.226024
0.427955
0.423028
0.414001
0.385949
0.356242
0.324692
0.295059
0.267075
0.241136
0.218707
0.388165
0.3905
0.387577
0.364377
0.338429
0.309841
0.282577
0.256501
0.231973
0.210674
0.345736
0.355788
0.359279
0.341238
0.319291
0.293861
0.269127
0.245101
0.222104
0.20196
0.301042
0.319149
0.329303
0.316687
0.298949
0.276846
0.254781
0.232936
0.211585
0.192602
0.254493
0.280843
0.297858
0.290886
0.277526
0.258895
0.239616
0.220067
0.200471
0.182643
0.206509
0.241149
0.265163
0.264003
0.255154
0.24011
0.22371
0.206556
0.188826
0.172134
0.157522
0.200361
0.231445
0.236209
0.231966
0.220599
0.207146
0.192467
0.176711
0.161132
0.107968
0.158778
0.196935
0.20768
0.2081
0.200471
0.190008
0.177863
0.164195
0.149718
0.058287
0.116701
0.161871
0.178592
0.183694
0.179834
0.172382
0.1628
0.151344
0.137989
0.00891848
0.0744283
0.126489
0.149123
0.158886
0.1588
0.154355
0.147326
0.138232
0.126125
-0.039706
0.032254
0.091028
0.119447
0.133813
0.137478
0.136024
0.131486
0.124913
0.114305
-0.0871662
-0.00954025
0.0557226
0.0897327
0.108612
0.115973
0.117483
0.115313
0.111338
0.103016
-0.133059
-0.0506901
0.0208023
0.0601453
0.0834172
0.0943857
0.0988299
0.0989179
0.0973023
0.0924725
-0.177002
-0.0909573
-0.0135132
0.0308417
0.0583583
0.0728135
0.0801491
0.0824419
0.0828604
0.081357
-0.218635
-0.130147
-0.047019
0.00197126
0.0335617
0.0513518
0.0615086
0.0659955
0.0681759
0.0693511
-0.257486
-0.168093
-0.0795349
-0.0263228
0.00914691
0.0300939
0.0429691
0.0496381
0.0534238
0.0567452
-0.29356
-0.204189
-0.110929
-0.0538979
-0.0147749
0.00912932
0.0245926
0.0334027
0.0387163
0.0438762
-0.326763
-0.23802
-0.141143
-0.0806079
-0.0381036
-0.0114566
0.00644445
0.0173233
0.0241086
0.0309178
-0.356922
-0.269293
-0.170208
-0.106304
-0.060752
-0.0315838
-0.0114106
0.00144133
0.00963249
0.0179402
-0.383916
-0.298218
-0.197774
-0.130843
-0.0826456
-0.0511775
-0.028912
-0.014198
-0.00468101
0.00498711
-0.407693
-0.324773
-0.223695
-0.154108
-0.103717
-0.0701674
-0.0460055
-0.0295506
-0.0187958
-0.00789667
-0.428265
-0.348804
-0.247783
-0.176173
-0.123906
-0.0884878
-0.0626434
-0.0445768
-0.0326725
-0.0206668
-0.445697
-0.370186
-0.269944
-0.197076
-0.143162
-0.10608
-0.0787822
-0.059244
-0.0462707
-0.0332858
-0.460104
-0.388858
-0.290172
-0.216661
-0.161549
-0.122891
-0.094382
-0.0735278
-0.0595481
-0.0457263
-0.471647
-0.4048
-0.308481
-0.234839
-0.178928
-0.139007
-0.109404
-0.0874152
-0.0724579
-0.0579733
-0.480518
-0.41801
-0.324877
-0.25159
-0.195209
-0.154379
-0.123884
-0.100897
-0.0849524
-0.0700227
-0.48693
-0.428506
-0.339368
-0.266916
-0.210378
-0.168946
-0.137763
-0.114002
-0.0970166
-0.0818751
-0.491099
-0.436321
-0.351975
-0.280818
-0.224451
-0.182683
-0.151001
-0.126643
-0.108762
-0.0934746
-0.493235
-0.441512
-0.362735
-0.293292
-0.237439
-0.195593
-0.163593
-0.13878
-0.120221
-0.104658
-0.493526
-0.444167
-0.371698
-0.304338
-0.249357
-0.20769
-0.175547
-0.150411
-0.13135
-0.115432
-0.492132
-0.444418
-0.378909
-0.313978
-0.260222
-0.218989
-0.186878
-0.161548
-0.142107
-0.125876
-0.489184
-0.442463
-0.384426
-0.322251
-0.270064
-0.229509
-0.197599
-0.172202
-0.152482
-0.136056
-0.48479
-0.438576
-0.388343
-0.3292
-0.278917
-0.239274
-0.207727
-0.182389
-0.162483
-0.146004
-0.479049
-0.433089
-0.390779
-0.334869
-0.286821
-0.248314
-0.21728
-0.192125
-0.172121
-0.155702
-0.472069
-0.426474
-0.391762
-0.339306
-0.293827
-0.256662
-0.226281
-0.201428
-0.181411
-0.165128
-0.463976
-0.41926
-0.391262
-0.342578
-0.299986
-0.26435
-0.234755
-0.21032
-0.190368
-0.174272
-0.454928
-0.411913
-0.389285
-0.344781
-0.305352
-0.271413
-0.242731
-0.218824
-0.199011
-0.183142
-0.445124
-0.404769
-0.385929
-0.346041
-0.309976
-0.277883
-0.250237
-0.226964
-0.207359
-0.191751
-0.434819
-0.39801
-0.381405
-0.346494
-0.313903
-0.283792
-0.257308
-0.234769
-0.215436
-0.200118
-0.424316
-0.391676
-0.376058
-0.346272
-0.317174
-0.289175
-0.263974
-0.242267
-0.223262
-0.20826
-0.413935
-0.385709
-0.370346
-0.34549
-0.319827
-0.294066
-0.270267
-0.249485
-0.230861
-0.216199
-0.40401
-0.380008
-0.364763
-0.344238
-0.321905
-0.298502
-0.276215
-0.256448
-0.238256
-0.223955
-0.394777
-0.374491
-0.35971
-0.342594
-0.323458
-0.302512
-0.281839
-0.263176
-0.24547
-0.231552
-0.386358
-0.369141
-0.355382
-0.34065
-0.324549
-0.306113
-0.287155
-0.269687
-0.252521
-0.239016
-0.378783
-0.364014
-0.35175
-0.338555
-0.325247
-0.309311
-0.292172
-0.27599
-0.259429
-0.246369
-0.372013
-0.359214
-0.348631
-0.336525
-0.325621
-0.3121
-0.296897
-0.282083
-0.266196
-0.253651
-0.365976
-0.35484
-0.345817
-0.334771
-0.325748
-0.314475
-0.301335
-0.287944
-0.272834
-0.260866
-0.3606
-0.350948
-0.343186
-0.333382
-0.325729
-0.316437
-0.3055
-0.29351
-0.279336
-0.268083
-0.355815
-0.347529
-0.34073
-0.332292
-0.325688
-0.318012
-0.309411
-0.298692
-0.285718
-0.275242
-0.351561
-0.344534
-0.338503
-0.331368
-0.325724
-0.319257
-0.313115
-0.303292
-0.292075
-0.282401
-0.347773
-0.341897
-0.336546
-0.330527
-0.325849
-0.320279
-0.316623
-0.307165
-0.29837
-0.289388
-0.344376
-0.339568
-0.334857
-0.329755
-0.326009
-0.321205
-0.319915
-0.310032
-0.30528
-0.295229
-0.341325
-0.337477
-0.333401
-0.32907
-0.326171
-0.322107
-0.322919
-0.31191
-0.312439
-0.301045
-0.338564
-0.335571
-0.332127
-0.328475
-0.326359
-0.322959
-0.325559
-0.313017
-0.31924
-0.306394
-0.336034
-0.33381
-0.330982
-0.327946
-0.326619
-0.32365
-0.327851
-0.313516
-0.325642
-0.310546
-0.333684
-0.332156
-0.329921
-0.327446
-0.326951
-0.32407
-0.329884
-0.313504
-0.331738
-0.313058
-0.331469
-0.33058
-0.328905
-0.326936
-0.327295
-0.324193
-0.331695
-0.313187
-0.337297
-0.313871
-0.329356
-0.329051
-0.327906
-0.326381
-0.327569
-0.324064
-0.333201
-0.312965
-0.341671
-0.313524
-0.327315
-0.327565
-0.326887
-0.325764
-0.32772
-0.32386
-0.334273
-0.313227
-0.344321
-0.313182
-0.325332
-0.326112
-0.325822
-0.325101
-0.327709
-0.3236
-0.334838
-0.31406
-0.34525
-0.313751
-0.323403
-0.324693
-0.324721
-0.324431
-0.327473
-0.323309
-0.33496
-0.315301
-0.344865
-0.315246
-0.321534
-0.32331
-0.323594
-0.323721
-0.326932
-0.323134
-0.334668
-0.316619
-0.343745
-0.317124
-0.319738
-0.321975
-0.322458
-0.322975
-0.326223
-0.323049
-0.333926
-0.317887
-0.342321
-0.318882
-0.318036
-0.320705
-0.321338
-0.322206
-0.325401
-0.322939
-0.332804
-0.319223
-0.340685
-0.320194
-0.316453
-0.319519
-0.320264
-0.321436
-0.324519
-0.322782
-0.331546
-0.320462
-0.338704
-0.321588
-0.315019
-0.318441
-0.319266
-0.320691
-0.323635
-0.322582
-0.330263
-0.321471
-0.336832
-0.322814
-0.313765
-0.317495
-0.318375
-0.320002
-0.322806
-0.32235
-0.329047
-0.322247
-0.335154
-0.323817
-0.312719
-0.316703
-0.317622
-0.3194
-0.322081
-0.322109
-0.327982
-0.322811
-0.333727
-0.324635
-0.311908
-0.316089
-0.317031
-0.318918
-0.321501
-0.32189
-0.327131
-0.323191
-0.332604
-0.325272
-0.311355
-0.315668
-0.316624
-0.318581
-0.321096
-0.321724
-0.326541
-0.323419
-0.331831
-0.325711
-0.311074
-0.315455
-0.316416
-0.318407
-0.320889
-0.321633
-0.326239
-0.323525
-0.331437
-0.325935
-0.337562
-0.33427
-0.343929
-0.347132
-0.354351
-0.35565
-0.350902
-0.331487
-0.295784
-0.239419
-0.166603
-0.0912379
-0.032512
0.0050019
0.0225022
0.0278339
0.026211
0.0218721
0.0169813
0.0124704
0.00869284
0.00581424
0.00382766
0.00247544
0.00149455
0.000798263
0.000358153
0.00031108
0.000205649
0.00034598
-0.337745
-0.334321
-0.343968
-0.347272
-0.354591
-0.356072
-0.351518
-0.332329
-0.296849
-0.240646
-0.167795
-0.0922004
-0.0332106
0.00451479
0.0221678
0.0276039
0.0260537
0.0217642
0.0169084
0.0124215
0.00865884
0.00578971
0.00381045
0.00246405
0.00148698
0.000792317
0.00035305
0.00030656
0.000202223
0.000343905
-0.338067
-0.33439
-0.344022
-0.347507
-0.355016
-0.356838
-0.352732
-0.333894
-0.298849
-0.242974
-0.170053
-0.0940776
-0.0346021
0.00353435
0.021489
0.027135
0.0257331
0.021545
0.0167606
0.0123225
0.00859035
0.00574055
0.00377601
0.00244122
0.00147182
0.000780523
0.000343031
0.000297696
0.000195528
0.000339781
-0.338448
-0.334427
-0.344046
-0.347761
-0.355529
-0.357803
-0.354142
-0.335981
-0.301559
-0.24615
-0.173291
-0.0967158
-0.0366519
0.00204971
0.0204489
0.0264121
0.0252391
0.0212083
0.016534
0.0121712
0.00848649
0.00566657
0.00372427
0.00240684
0.00144903
0.00076307
0.000328445
0.000284823
0.000185863
0.000333654
-0.338806
-0.334374
-0.343991
-0.347942
-0.356011
-0.358808
-0.355787
-0.338351
-0.304681
-0.249972
-0.177117
-0.100119
-0.0393221
5.47255e-05
0.0190291
0.0254181
0.02456
0.020747
0.0162246
0.0119654
0.00834623
0.00556762
0.00365524
0.00236081
0.00141857
0.000740213
0.000309763
0.000268403
0.000173639
0.000325598
-0.339021
-0.334187
-0.343788
-0.347981
-0.356336
-0.359686
-0.357304
-0.340762
-0.308013
-0.254001
-0.1815
-0.104074
-0.0425715
-0.0024429
0.0172166
0.0241397
0.0236854
0.0201552
0.0158284
0.0117027
0.00816868
0.00544364
0.00356896
0.00230304
0.0013804
0.000712248
0.000287525
0.000248973
0.000159338
0.000315717
-0.339199
-0.333775
-0.343474
-0.347764
-0.356441
-0.360309
-0.358775
-0.342971
-0.31118
-0.258181
-0.186142
-0.108509
-0.0463436
-0.00542833
0.0150071
0.0225717
0.0226109
0.0194296
0.0153433
0.0113816
0.00795331
0.00529479
0.00346565
0.00223355
0.00133454
0.000679483
0.000262282
0.000227104
0.000143467
0.000304143
-0.338826
-0.333418
-0.342802
-0.34742
-0.356166
-0.360595
-0.359703
-0.344857
-0.314124
-0.262191
-0.190899
-0.113293
-0.0505766
-0.00887747
0.0124166
0.0207184
0.0213376
0.0185704
0.0147691
0.011002
0.00770021
0.00512151
0.00334567
0.00215246
0.00128101
0.000642216
0.000234549
0.000203349
0.000126518
0.000291036
-0.338249
-0.332906
-0.341969
-0.346777
-0.355567
-0.360424
-0.360217
-0.346251
-0.316616
-0.26593
-0.195615
-0.11832
-0.0552015
-0.0127458
0.00946873
0.0185929
0.0198729
0.017582
0.014108
0.0105649
0.00741013
0.00492455
0.00320958
0.00206004
0.00121994
0.000600719
0.000204763
0.000178206
0.000108934
0.000276583
-0.337268
-0.332283
-0.340903
-0.345881
-0.354597
-0.359803
-0.360176
-0.347085
-0.318566
-0.269252
-0.200176
-0.123491
-0.0601452
-0.0169808
0.00619853
0.0162175
0.0182302
0.016472
0.0133647
0.0100728
0.00708452
0.00470498
0.00305815
0.00195671
0.00115152
0.000555229
0.000173264
0.000152092
9.1085e-05
0.000260992
-0.335684
-0.331548
-0.339615
-0.344695
-0.353256
-0.358667
-0.359548
-0.347303
-0.319908
-0.272073
-0.204486
-0.128716
-0.0653332
-0.0215226
0.00264867
0.0136203
0.0164267
0.0152511
0.0125454
0.00952929
0.00672542
0.00446411
0.00289232
0.00184304
0.00107602
0.000505949
0.000140286
0.000125325
7.32497e-05
0.000244487
-0.333307
-0.33061
-0.338048
-0.343216
-0.351531
-0.357037
-0.358308
-0.346873
-0.3206
-0.274318
-0.20847
-0.133917
-0.0706923
-0.0263085
-0.00113403
0.0108332
0.0144824
0.0139314
0.0116579
0.00893892
0.00633537
0.00420348
0.00271314
0.00171974
0.000993801
0.000453058
0.000105965
9.8124e-05
5.56174e-05
0.000227295
-0.330159
-0.3293
-0.336161
-0.341381
-0.349392
-0.354894
-0.356441
-0.345781
-0.320627
-0.27595
-0.212074
-0.139028
-0.0761536
-0.0312758
-0.00510178
0.0078893
0.0124185
0.0125259
0.0107103
0.00830659
0.00591715
0.00392473
0.00252176
0.0015876
0.000905291
0.000396717
7.03566e-05
7.06169e-05
3.82921e-05
0.000209644
-0.326636
-0.327388
-0.333871
-0.33912
-0.346796
-0.35224
-0.353943
-0.344016
-0.319971
-0.276989
-0.215261
-0.143996
-0.0816547
-0.0363652
-0.00920852
0.00482123
0.0102553
0.0110472
0.00971079
0.00763739
0.00547371
0.00362958
0.00231936
0.00144745
0.000810978
0.000337083
3.34614e-05
4.28542e-05
2.1305e-05
0.000191751
-0.322913
-0.324827
-0.331077
-0.336364
-0.343692
-0.348996
-0.350833
-0.341605
-0.318684
-0.277453
-0.218015
-0.148778
-0.0871411
-0.0415229
-0.0134116
0.00165939
0.00801453
0.00950649
0.00866708
0.00693625
0.00500796
0.0033197
0.00210708
0.00130015
0.000711382
0.000274317
-4.75411e-06
1.48282e-05
4.63018e-06
0.000173817
-0.319035
-0.32162
-0.327709
-0.333068
-0.340075
-0.345193
-0.347099
-0.338557
-0.31679
-0.277392
-0.220349
-0.153339
-0.092565
-0.0467015
-0.0176748
-0.0015709
0.00571309
0.00791492
0.00758574
0.00620747
0.00452254
0.00299663
0.00188599
0.00114651
0.000607046
0.000208594
-4.4331e-05
-1.35088e-05
-1.17999e-05
0.000156025
-0.314786
-0.317727
-0.323788
-0.329233
-0.335973
-0.340968
-0.342911
-0.335024
-0.314414
-0.276882
-0.222323
-0.157667
-0.0979004
-0.0518726
-0.0219715
-0.00484584
0.00336668
0.00628656
0.00647516
0.00545576
0.00402015
0.00266191
0.00165716
0.000987393
0.000498597
0.000140148
-8.53e-05
-4.22292e-05
-2.80766e-05
0.000138524
-0.310322
-0.31327
-0.319305
-0.324924
-0.331359
-0.336022
-0.338039
-0.330866
-0.311507
-0.275966
-0.223991
-0.161748
-0.103094
-0.0569697
-0.0262443
-0.00813048
0.000985736
0.0046228
0.00534264
0.00468749
0.00350483
0.00231777
0.00142189
0.000823644
0.000386525
6.9133e-05
-0.000127717
-7.14043e-05
-4.42867e-05
0.000121432
-0.30572
-0.308442
-0.31435
-0.320183
-0.326631
-0.33152
-0.333386
-0.326781
-0.308535
-0.274842
-0.225285
-0.165503
-0.108071
-0.0619803
-0.0305337
-0.0114783
-0.00146337
0.00289003
0.0041641
0.00389275
0.00297255
0.00196257
0.00117929
0.00065456
0.000270204
-4.7964e-06
-0.000171692
-0.00010106
-6.05023e-05
0.00010487
-0.301275
-0.302957
-0.308646
-0.314567
-0.320724
-0.324939
-0.327167
-0.321496
-0.304843
-0.273593
-0.227048
-0.1698
-0.113687
-0.0674971
-0.0351196
-0.0149568
-0.00394197
0.00116785
0.00295202
0.00306104
0.00241263
0.00158998
0.000926756
0.000479915
0.000150805
-8.07522e-05
-0.000216853
-0.000131196
-7.69337e-05
8.90991e-05
-0.296004
-0.29875
-0.30429
-0.310459
-0.316806
-0.32167
-0.323087
-0.317376
-0.300965
-0.270434
-0.225175
-0.16967
-0.11498
-0.0696506
-0.037491
-0.0171396
-0.00574393
-0.000203701
0.00196373
0.00236836
0.00193516
0.00125964
0.000697258
0.000322583
4.60305e-05
-0.000148818
-0.000259235
-0.00016034
-9.29732e-05
7.54014e-05
-0.290194
-0.293635
-0.299206
-0.305539
-0.311595
-0.31542
-0.31686
-0.310849
-0.294505
-0.264769
-0.221216
-0.168047
-0.11546
-0.0714622
-0.039782
-0.0193656
-0.00762377
-0.00166904
0.000875822
0.00158666
0.00139063
0.000890148
0.000447276
0.000151913
-6.90754e-05
-0.00022229
-0.000302168
-0.000188405
-0.00010716
6.24098e-05
-0.284094
-0.28804
-0.293656
-0.30012
-0.306019
-0.309821
-0.310422
-0.304099
-0.287875
-0.259
-0.217187
-0.166349
-0.115851
-0.0732059
-0.0420548
-0.0216168
-0.00955959
-0.00320182
-0.000277821
0.000749324
0.000802882
0.000489687
0.000176046
-3.35953e-05
-0.000194725
-0.000302449
-0.000348517
-0.000218058
-0.000121788
4.90118e-05
-0.2777
-0.282145
-0.287796
-0.294353
-0.300117
-0.303499
-0.303703
-0.297142
-0.281114
-0.253165
-0.213122
-0.164614
-0.116205
-0.0749268
-0.0443271
-0.0238886
-0.011531
-0.00477389
-0.00146709
-0.000117392
0.000191972
7.13753e-05
-0.000108314
-0.000228262
-0.000326621
-0.000386947
-0.000397779
-0.00024949
-0.0001373
3.53836e-05
-0.270949
-0.275988
-0.281675
-0.288279
-0.293895
-0.296972
-0.296725
-0.289977
-0.274208
-0.247238
-0.208989
-0.162811
-0.116495
-0.0766062
-0.0465894
-0.0261771
-0.0135358
-0.00638469
-0.00269284
-0.00101516
-0.000443721
-0.00036577
-0.000406241
-0.00043233
-0.000464952
-0.000475951
-0.000450078
-0.000282827
-0.000153766
2.15823e-05
-0.263893
-0.269601
-0.275334
-0.281942
-0.287415
-0.290204
-0.289556
-0.28267
-0.267214
-0.241261
-0.204814
-0.160947
-0.116718
-0.0782324
-0.0488303
-0.0284742
-0.0155694
-0.00803283
-0.00395591
-0.00194573
-0.00110601
-0.000823177
-0.000718743
-0.000646536
-0.000610244
-0.000569793
-0.000505573
-0.000318154
-0.000171229
7.64714e-06
-0.256611
-0.263021
-0.268813
-0.275391
-0.280731
-0.283264
-0.282263
-0.275286
-0.260192
-0.235285
-0.200629
-0.159036
-0.116871
-0.0797976
-0.0510399
-0.0307707
-0.0176251
-0.00971427
-0.00525415
-0.00290809
-0.00179456
-0.00130089
-0.00104601
-0.000871056
-0.000762591
-0.000668543
-0.000564339
-0.000355538
-0.000189761
-6.37345e-06
-0.249155
-0.256274
-0.262146
-0.26867
-0.273888
-0.276199
-0.274899
-0.267881
-0.253192
-0.229345
-0.196456
-0.157087
-0.116955
-0.0812947
-0.0532091
-0.0330578
-0.019696
-0.0114243
-0.00658462
-0.00390055
-0.00250848
-0.00179857
-0.00138797
-0.00110586
-0.000921942
-0.000772187
-0.000626416
-0.000395034
-0.000209436
-2.04273e-05
-0.241576
-0.249388
-0.255361
-0.261813
-0.26692
-0.26905
-0.267506
-0.260496
-0.24625
-0.22347
-0.192314
-0.155107
-0.116967
-0.0827171
-0.0553289
-0.0353268
-0.0217751
-0.0131579
-0.00794418
-0.00492128
-0.00324682
-0.00231579
-0.00174446
-0.0013509
-0.00108823
-0.000880691
-0.000691823
-0.000436679
-0.000230315
-3.44633e-05
-0.233926
-0.242389
-0.248484
-0.254855
-0.25986
-0.261848
-0.26012
-0.253164
-0.239395
-0.217682
-0.188217
-0.153103
-0.116909
-0.0840593
-0.0573912
-0.0375693
-0.0238551
-0.0149098
-0.00932938
-0.00596819
-0.0040084
-0.002852
-0.00211526
-0.00160606
-0.00126136
-0.000993991
-0.000760549
-0.000480482
-0.000252445
-4.84323e-05
-0.226251
-0.235307
-0.241543
-0.247828
-0.252737
-0.254622
-0.25277
-0.245913
-0.23265
-0.211999
-0.184176
-0.151082
-0.11678
-0.0853166
-0.0593883
-0.0397769
-0.0259287
-0.0166745
-0.0107364
-0.00703883
-0.00479178
-0.0034064
-0.00249995
-0.0018711
-0.00144117
-0.00111198
-0.000832549
-0.000526425
-0.000275855
-6.22871e-05
-0.218601
-0.228174
-0.234565
-0.240765
-0.245584
-0.2474
-0.24548
-0.238766
-0.226034
-0.206434
-0.180201
-0.149049
-0.116581
-0.0864852
-0.0613132
-0.0419414
-0.0279882
-0.0184457
-0.0121608
-0.00813033
-0.00559516
-0.00397795
-0.00289796
-0.0021457
-0.00162743
-0.00123448
-0.00090774
-0.000574459
-0.000300554
-7.59827e-05
-0.211023
-0.221026
-0.227581
-0.233699
-0.238431
-0.240208
-0.238276
-0.231745
-0.219562
-0.201
-0.176302
-0.14701
-0.116313
-0.087562
-0.0631593
-0.0440549
-0.0300257
-0.0202171
-0.0135979
-0.00923936
-0.00641637
-0.00456531
-0.0033085
-0.00242938
-0.00181981
-0.00136129
-0.000985992
-0.000624498
-0.000326529
-8.94767e-05
-0.203562
-0.213898
-0.220619
-0.226665
-0.231311
-0.233076
-0.231179
-0.224868
-0.213251
-0.195708
-0.172485
-0.144972
-0.11598
-0.088545
-0.0649206
-0.0461094
-0.0320331
-0.0219816
-0.0150422
-0.0103621
-0.00725282
-0.00516681
-0.00373052
-0.00272147
-0.00201788
-0.00149208
-0.00106712
-0.000676418
-0.00035374
-0.000102729
-0.196259
-0.206829
-0.213711
-0.219696
-0.224259
-0.22603
-0.224213
-0.218157
-0.207114
-0.190567
-0.168761
-0.14294
-0.115584
-0.0894331
-0.0665918
-0.0480973
-0.0340023
-0.0237319
-0.0164878
-0.0114941
-0.00810145
-0.0057804
-0.0041627
-0.00302113
-0.00222108
-0.00162647
-0.0011509
-0.000730049
-0.000382119
-0.0001157
-0.189151
-0.199856
-0.206891
-0.212826
-0.217307
-0.219101
-0.217402
-0.211629
-0.201166
-0.185589
-0.165136
-0.140923
-0.115131
-0.090226
-0.0681679
-0.0500112
-0.0359247
-0.0254598
-0.0179282
-0.0126305
-0.00895866
-0.0064036
-0.00460339
-0.00332727
-0.00242869
-0.00176396
-0.001237
-0.000785176
-0.000411561
-0.000128355
-0.182273
-0.19302
-0.200191
-0.206089
-0.210494
-0.21232
-0.210768
-0.205305
-0.195423
-0.180784
-0.16162
-0.138928
-0.114624
-0.0909244
-0.069645
-0.051844
-0.0377917
-0.0271571
-0.0193561
-0.0137655
-0.00982027
-0.00703344
-0.00505057
-0.00363855
-0.00263983
-0.00190395
-0.00132504
-0.000841529
-0.00044193
-0.000140656
-0.175659
-0.186363
-0.193649
-0.19952
-0.203856
-0.205723
-0.204339
-0.199205
-0.189901
-0.176165
-0.158224
-0.136964
-0.114071
-0.0915303
-0.0710197
-0.053589
-0.0395945
-0.0288147
-0.0207636
-0.0148929
-0.0106814
-0.00766643
-0.00550183
-0.00395333
-0.00285342
-0.00204569
-0.00141454
-0.000898778
-0.000473046
-0.000152569
-0.169339
-0.179927
-0.187304
-0.193155
-0.197433
-0.199345
-0.198143
-0.193351
-0.184617
-0.171746
-0.154958
-0.135043
-0.113479
-0.0920463
-0.0722895
-0.0552395
-0.0413242
-0.0304232
-0.0221422
-0.0160054
-0.0115367
-0.00829848
-0.00595425
-0.00426961
-0.00306812
-0.00218828
-0.00150492
-0.000956532
-0.000504687
-0.000164057
-0.163344
-0.173755
-0.181195
-0.187033
-0.191263
-0.193225
-0.192209
-0.187766
-0.17959
-0.167541
-0.151834
-0.133174
-0.112857
-0.0924765
-0.0734526
-0.0567895
-0.042972
-0.0319726
-0.0234825
-0.0170952
-0.0123797
-0.00892486
-0.00640446
-0.00458504
-0.00328236
-0.00233063
-0.00159546
-0.00101432
-0.000536584
-0.00017508
-0.157704
-0.167888
-0.175365
-0.181193
-0.185386
-0.187393
-0.186569
-0.182476
-0.174839
-0.163568
-0.148868
-0.131371
-0.112215
-0.0928259
-0.0745083
-0.0582331
-0.0445287
-0.0334526
-0.0247745
-0.0181535
-0.0132034
-0.00954013
-0.00684847
-0.00489684
-0.00349426
-0.0024715
-0.00168535
-0.00107161
-0.000568414
-0.000185594
-0.152448
-0.162368
-0.169854
-0.175677
-0.179845
-0.181897
-0.181261
-0.177508
-0.170389
-0.159843
-0.146075
-0.129647
-0.111564
-0.0931007
-0.0754564
-0.0595648
-0.0459853
-0.0348521
-0.0260072
-0.0191706
-0.0139998
-0.0101381
-0.00728173
-0.00520177
-0.00370164
-0.00260939
-0.0017736
-0.0011278
-0.000599802
-0.000195548
-0.147605
-0.157238
-0.164709
-0.170527
-0.174682
-0.176782
-0.176321
-0.172893
-0.166262
-0.156389
-0.143473
-0.128019
-0.110917
-0.0933083
-0.0762977
-0.0607791
-0.0473323
-0.0361596
-0.0271689