/*--------------------------------*- C++ -*----------------------------------*\
  =========                 |
  \\      /  F ield         | OpenFOAM: The Open Source CFD Toolbox
   \\    /   O peration     | Website:  https://openfoam.org
    \\  /    A nd           | Version:  9
     \\/     M anipulation  |
\*---------------------------------------------------------------------------*/
FoamFile
{
    format      ascii;
    class       volVectorField;
    location    "16.6";
    object      U;
}
// * * * * * * * * * * * * * * * * * * * * * * * * * * * * * * * * * * * * * //

dimensions      [0 1 -1 0 0 0 0];

internalField   nonuniform List<vector> 
8500
(
(-0.00681527 0.00271576 0)
(-0.03047 0.00467844 -6.93935e-23)
(-0.064038 0.0051983 -3.81593e-24)
(-0.093509 0.00509072 7.23363e-37)
(-0.122971 0.00486032 -1.06571e-23)
(-0.145785 0.00435793 8.87366e-24)
(-0.172859 0.00449412 -6.02225e-23)
(-0.18752 0.00337814 -9.35932e-23)
(-0.213285 0.00479403 -8.58971e-23)
(-0.226865 0.00292599 -4.47585e-24)
(-0.00710879 0.00808858 2.00437e-22)
(-0.0306891 0.013952 6.48359e-23)
(-0.0638124 0.0155094 2.60273e-22)
(-0.0926335 0.015188 0)
(-0.121386 0.0144919 0)
(-0.143004 0.0129831 1.78996e-23)
(-0.169232 0.0133672 4.52772e-23)
(-0.181662 0.0100047 9.99107e-23)
(-0.206311 0.0142406 6.46164e-23)
(-0.216605 0.00852305 1.79088e-23)
(-0.00768721 0.0132879 -1.78119e-22)
(-0.0311259 0.0229781 0)
(-0.0633733 0.0255653 -2.4493e-22)
(-0.0909056 0.0250338 0)
(-0.118256 0.0238561 -4.26872e-23)
(-0.137503 0.0213416 3.55436e-23)
(-0.16208 0.0218924 0)
(-0.170083 0.0162588 0)
(-0.192641 0.0232767 0)
(-0.196591 0.0133807 0)
(-0.00853397 0.0182064 3.58079e-22)
(-0.0317778 0.0315991 -2.60346e-22)
(-0.0627428 0.0352005 -6.14201e-23)
(-0.0883703 0.0344643 -3.83062e-22)
(-0.113654 0.0327745 -3.84854e-22)
(-0.129397 0.029272 3.58967e-23)
(-0.151586 0.0298301 -2.99719e-23)
(-0.153021 0.0219439 3.47825e-22)
(-0.172757 0.031676 -1.89252e-25)
(-0.167689 0.0170931 3.54246e-22)
(-0.0096258 0.0227494 -3.58079e-22)
(-0.0326403 0.0396681 -3.36461e-22)
(-0.0619516 0.0442556 9.24005e-23)
(-0.0850899 0.043321 5.11256e-22)
(-0.107675 0.0410685 -4.3464e-23)
(-0.118844 0.0366339 5.70075e-22)
(-0.137972 0.0369281 0)
(-0.130756 0.0269269 -3.98472e-22)
(-0.147205 0.0392792 -8.54448e-23)
(-0.130819 0.0194066 -4.92233e-22)
(-0.0109345 0.0268377 9.02577e-23)
(-0.0337068 0.0470529 5.59577e-22)
(-0.0610343 0.0525794 -4.32567e-22)
(-0.0811391 0.0514537 -3.4239e-25)
(-0.10042 0.0485614 -3.87964e-22)
(-0.10603 0.0433124 1.43876e-22)
(-0.12145 0.0429166 -6.01878e-23)
(-0.103529 0.0311462 4.98071e-22)
(-0.116433 0.0459838 -8.51676e-23)
(-0.0865005 0.0203852 2.81623e-22)
(-0.012429 0.0304117 4.52188e-23)
(-0.0349685 0.0536388 0)
(-0.0600242 0.06003 -1.60194e-24)
(-0.0765964 0.0587216 0)
(-0.0919692 0.0550813 6.88066e-22)
(-0.0911365 0.0492185 -5.70452e-22)
(-0.102151 0.0475039 0)
(-0.071471 0.0346306 -1.38829e-24)
(-0.0806508 0.0515915 0)
(-0.0342501 0.0206618 0)
(-0.0140779 0.0334324 -7.29065e-22)
(-0.0364133 0.0593311 -7.53012e-23)
(-0.0589468 0.0664787 5.58039e-22)
(-0.0715326 0.0649937 1.03499e-22)
(-0.0823624 0.0604668 -6.91888e-22)
(-0.0743105 0.054291 -4.26958e-22)
(-0.0800216 0.0503582 -6.04431e-23)
(-0.03456 0.0375547 4.9369e-22)
(-0.039761 0.0554724 -8.53305e-23)
(0.0279182 0.0212815 7.13692e-23)
(-0.0158513 0.0358823 8.20741e-22)
(-0.0380248 0.064057 -6.05154e-22)
(-0.0578117 0.0718128 -1.87005e-22)
(-0.0659955 0.0701483 1.03175e-22)
(-0.0715625 0.0645731 6.91745e-22)
(-0.0556253 0.0585104 6.43519e-22)
(-0.0546755 0.0510942 -6.05513e-23)
(0.00754045 0.0401141 9.85296e-23)
(0.00620392 0.0571516 -1.71164e-22)
(0.104464 0.0227536 7.21258e-23)
(-0.0177234 0.0377649 7.37253e-22)
(-0.0397798 0.0677659 6.05485e-22)
(-0.0566047 0.0759395 -8.77274e-22)
(-0.0599898 0.0740724 -1.03479e-22)
(-0.0594107 0.0672653 0)
(-0.0350396 0.0619182 0)
(-0.0253967 0.0496115 0)
(0.0560754 0.0424092 -1.56456e-21)
(0.0570127 0.0559109 -7.13596e-22)
(0.199536 0.0260387 5.50757e-22)
(-0.0196733 0.0391024 -1.47885e-21)
(-0.0416455 0.0704302 0)
(-0.0552767 0.0787896 2.00819e-21)
(-0.0534591 0.0766656 8.30678e-22)
(-0.0455697 0.0684134 8.64813e-23)
(-0.0121393 0.0644518 0)
(0.0087821 0.0462236 -9.88627e-22)
(0.112451 0.0449983 7.80671e-22)
(0.114891 0.0503699 7.13586e-22)
(0.315487 0.0321054 -5.50736e-22)
(-0.0216859 0.0399329 8.34674e-22)
(-0.0435746 0.0720438 -7.64025e-23)
(-0.0537314 0.0803213 -1.00582e-21)
(-0.0462638 0.0778488 -9.35009e-22)
(-0.0296245 0.0680707 0)
(0.0140443 0.0658252 1.14457e-21)
(0.0497602 0.0414015 1.01527e-24)
(0.177578 0.0487761 6.73391e-22)
(0.185771 0.040924 7.99749e-22)
(0.451255 0.040144 -5.4598e-22)
(-0.0237513 0.0403063 3.35106e-26)
(-0.0455 0.0726206 1.30895e-21)
(-0.0518072 0.0805216 -1.2649e-22)
(-0.0380593 0.0775361 7.29566e-22)
(-0.0110648 0.0663907 4.35944e-22)
(0.0447566 0.0658471 2.90149e-22)
(0.100565 0.0360315 9.85952e-22)
(0.252031 0.0535077 -8.75094e-22)
(0.278529 0.0317366 -5.43784e-22)
(0.600716 0.0489703 4.02443e-22)
(-0.0258642 0.0402797 0)
(-0.0473276 0.0721911 -1.0781e-21)
(-0.049288 0.0794167 -1.26979e-22)
(-0.0282946 0.0756731 1.49894e-24)
(0.0110174 0.0634511 6.95616e-22)
(0.0815973 0.0644629 -1.00025e-21)
(0.164541 0.0318186 9.79611e-22)
(0.336593 0.057624 -9.99528e-23)
(0.399803 0.0288239 0)
(0.753161 0.0585407 0)
(-0.0280208 0.0399127 9.47288e-23)
(-0.0489241 0.0708019 -1.24371e-21)
(-0.0458694 0.0770729 0)
(-0.0162474 0.0723344 -1.03219e-22)
(0.0379203 0.0594162 8.68082e-23)
(0.126828 0.0615792 0)
(0.244164 0.0308494 -9.81342e-22)
(0.433004 0.0600645 -7.74161e-22)
(0.546841 0.0353677 1.69015e-22)
(0.89609 0.0695251 -1.42037e-22)
(-0.0302135 0.0392575 -9.51563e-23)
(-0.0501172 0.0685185 1.32182e-21)
(-0.0411134 0.0735699 0)
(-0.000968835 0.0677061 -9.41479e-22)
(0.0712973 0.054658 8.6836e-23)
(0.183288 0.0575706 -1.14499e-21)
(0.339929 0.0344198 -1.18865e-22)
(0.543241 0.0623253 8.73631e-22)
(0.705912 0.0497652 0)
(1.0189 0.08167 1.08604e-21)
(-0.032421 0.0383555 -1.44658e-21)
(-0.0506889 0.0654158 -7.85812e-23)
(-0.0344411 0.0690138 -1.2738e-22)
(0.0187696 0.062066 1.05362e-22)
(0.113201 0.0497974 -1.38629e-21)
(0.253938 0.0537676 1.14497e-21)
(0.449933 0.0424697 9.64353e-22)
(0.665864 0.0675147 7.73934e-22)
(0.858749 0.0681324 1.33638e-21)
(1.11556 0.0934978 -9.50009e-22)
(-0.0346073 0.0372368 1.54232e-21)
(-0.050361 0.0615653 0)
(-0.0251336 0.063552 1.15668e-21)
(0.0444743 0.0557786 -1.05635e-22)
(0.165951 0.045677 2.7716e-21)
(0.340777 0.0522656 0)
(0.570112 0.0542572 -9.64333e-22)
(0.793321 0.0771118 -1.98499e-24)
(0.990784 0.0872213 -1.4986e-21)
(1.18534 0.103578 1.36351e-22)
(-0.036716 0.0359172 0)
(-0.0487938 0.0570382 1.27056e-21)
(-0.0123264 0.0573676 -1.02897e-21)
(0.0778857 0.0493265 0)
(0.231729 0.0433681 -1.3853e-21)
(0.443211 0.0550918 0)
(0.694313 0.0690266 9.48705e-22)
(0.914601 0.0900357 -7.71918e-22)
(1.09503 0.105173 -1.28005e-21)
(1.23137 0.111008 -1.03847e-21)
(-0.0386641 0.0343956 -1.95542e-22)
(-0.0455872 0.051907 -1.11005e-21)
(0.00499401 0.0506808 0)
(0.120889 0.043383 0)
(0.311827 0.0441148 0)
(0.557094 0.0631393 -1.41671e-22)
(0.814956 0.0857719 -9.5066e-22)
(1.02056 0.104427 -9.73481e-23)
(1.17121 0.120915 1.28004e-21)
(1.25909 0.115099 1.16829e-21)
(-0.040339 0.0326588 0)
(-0.0402791 0.0462441 -1.28817e-21)
(0.0279892 0.0437626 0)
(0.175295 0.0389141 0)
(0.405641 0.0490286 0)
(0.675373 0.0758213 1.40765e-22)
(0.924986 0.103135 -1.16204e-21)
(1.10662 0.118953 9.07436e-23)
(1.22323 0.13331 9.14175e-22)
(1.27532 0.115412 1.00155e-21)
(-0.0416135 0.0306987 0)
(-0.0323323 0.0401064 1.28817e-21)
(0.0579628 0.0369819 -1.05014e-21)
(0.242389 0.0371889 0)
(0.509958 0.0585518 -1.38286e-21)
(0.790246 0.0915933 0)
(1.01978 0.119956 9.29333e-22)
(1.17233 0.132568 -7.43556e-22)
(1.25684 0.141427 -1.22352e-21)
(1.29859 0.125636 -9.96897e-22)
(-0.0423439 0.0284968 1.63792e-21)
(-0.021142 0.033538 0)
(0.0963106 0.0309067 9.19972e-22)
(0.322237 0.0395022 1.07658e-22)
(0.619292 0.0721424 2.76569e-21)
(0.895443 0.108783 0)
(1.0976 0.135561 -9.07445e-22)
(1.21997 0.144302 -1.47503e-21)
(1.28057 0.149251 -1.02546e-21)
(1.30691 0.131422 -5.17878e-24)
(-0.042355 0.0260216 -1.73967e-21)
(-0.00602842 0.0265978 8.35233e-23)
(0.144345 0.0264167 1.3086e-22)
(0.41306 0.0466248 -1.08236e-22)
(0.72739 0.0885604 -1.38283e-21)
(0.98728 0.12612 1.11512e-21)
(1.15891 0.149578 9.07441e-22)
(1.25364 0.154652 7.31474e-22)
(1.29412 0.155418 1.17091e-21)
(1.30947 0.13706 -1.03616e-21)
(-0.0414542 0.0232417 1.03093e-22)
(0.0137939 0.0193904 1.25537e-21)
(0.202952 0.0247043 0)
(0.511195 0.0583771 -7.52749e-22)
(0.828948 0.106475 -8.77011e-23)
(1.06446 0.142811 -1.11511e-21)
(1.20561 0.162069 1.08839e-22)
(1.27601 0.163573 6.12988e-22)
(1.3013 0.160939 0)
(1.30893 0.141975 9.22079e-22)
(-0.0394325 0.0201256 -1.06315e-22)
(0.0392159 0.0121536 -1.33999e-21)
(0.272126 0.0269973 0)
(0.611883 0.0737663 1.01098e-22)
(0.920503 0.124864 -8.79303e-23)
(1.12733 0.15848 0)
(1.23995 0.173158 -8.69305e-22)
(1.29002 0.171427 -7.04089e-22)
(1.30379 0.16582 -1.34834e-22)
(1.3053 0.146481 -1.13421e-22)
(-0.03605 0.0166425 0)
(0.0711657 0.00538886 -1.54389e-21)
(0.350629 0.0340636 1.38459e-22)
(0.710457 0.0915543 -5.27438e-24)
(1.00041 0.143089 -6.89669e-22)
(1.17717 0.172997 -1.22083e-21)
(1.26425 0.183061 9.80438e-22)
(1.29779 0.17843 0)
(1.30302 0.170335 0)
(1.30063 0.150807 0)
(-0.0310085 0.0127714 2.31386e-24)
(0.110449 -3.66708e-05 1.29441e-21)
(0.43602 0.0458557 1.40167e-22)
(0.803262 0.110718 9.7496e-22)
(1.06834 0.1608 6.01293e-22)
(1.21564 0.186383 -1.1929e-22)
(1.28059 0.191994 8.46422e-22)
(1.30105 0.184829 -5.72068e-22)
(1.30014 0.174615 -6.43504e-22)
(1.29483 0.155019 5.17351e-22)
(-0.0239243 0.00852438 8.03023e-22)
(0.157516 -0.00293153 9.0365e-23)
(0.525102 0.0616157 -1.12e-21)
(0.887972 0.130567 -8.78237e-22)
(1.1248 0.177829 0)
(1.24448 0.198737 1.07572e-21)
(1.29076 0.200174 -1.61449e-23)
(1.30107 0.190811 7.36886e-22)
(1.29577 0.178775 4.49987e-22)
(1.28858 0.1592 -4.10078e-22)
(-0.0143252 0.00398412 -1.84813e-21)
(0.212233 -0.00203596 0)
(0.614559 0.0803191 2.25643e-21)
(0.963431 0.15068 7.71556e-22)
(1.17072 0.194117 8.85459e-23)
(1.26535 0.210197 0)
(1.29619 0.207797 -8.23553e-22)
(1.29878 0.196528 6.24941e-22)
(1.29044 0.182891 4.86078e-22)
(1.28191 0.163388 -3.83556e-22)
(-0.00167871 -0.000652475 9.35013e-22)
(0.273772 0.00359047 7.29394e-22)
(0.701479 0.101072 -1.27503e-21)
(1.02932 0.17083 1.14644e-22)
(1.20726 0.209673 0)
(1.27971 0.220916 0)
(1.29805 0.21503 0)
(1.29486 0.202089 -1.23238e-21)
(1.28441 0.187013 -4.86082e-22)
(1.27499 0.167596 3.83538e-22)
(0.0145331 -0.00503042 8.65222e-22)
(0.340703 0.0142804 -7.23609e-22)
(0.783609 0.123246 7.42667e-23)
(1.08586 0.190908 0)
(1.23559 0.224544 6.69803e-22)
(1.28883 0.231042 4.45098e-22)
(1.2972 0.222008 5.11506e-23)
(1.28974 0.207572 -5.38641e-23)
(1.27789 0.19117 1.1643e-22)
(1.26783 0.17183 -4.70894e-23)
(0.0346863 -0.00861173 -9.82094e-22)
(0.411227 0.0297478 9.1525e-23)
(0.859389 0.146426 5.88238e-22)
(1.13352 0.210852 -1.64183e-22)
(1.25687 0.238799 -5.02422e-22)
(1.29374 0.240712 -6.32518e-22)
(1.29432 0.228837 5.00464e-23)
(1.28375 0.213026 3.04083e-22)
(1.27097 0.195374 0)
(1.26047 0.176081 -4.19748e-23)
(0.0589403 -0.0107282 -6.36036e-23)
(0.483441 0.049318 0)
(0.927889 0.17032 6.09134e-24)
(1.17296 0.230608 0)
(1.27215 0.252513 6.53096e-22)
(1.29528 0.250042 -4.8545e-22)
(1.28986 0.235589 0)
(1.27707 0.218478 9.84835e-24)
(1.26371 0.199628 0)
(1.2529 0.180337 0)
(0.0872231 -0.0106863 -1.27118e-22)
(0.555536 0.072227 8.30826e-22)
(0.988682 0.194715 -6.70377e-22)
(1.20487 0.250115 1.11006e-22)
(1.28234 0.265764 -2.98354e-22)
(1.29413 0.259128 -5.1968e-23)
(1.28417 0.242308 0)
(1.26983 0.223939 2.10651e-22)
(1.25614 0.203922 5.42615e-23)
(1.2451 0.184577 1.55693e-22)
(0.119226 -0.00788983 -5.35002e-22)
(0.625903 0.0978085 -3.35465e-22)
(1.04171 0.219452 -1.1041e-22)
(1.22997 0.269313 4.43283e-22)
(1.28826 0.27862 3.66708e-23)
(1.29081 0.26804 4.735e-22)
(1.27749 0.249021 0)
(1.2621 0.229405 -2.54316e-22)
(1.24826 0.208243 4.73447e-23)
(1.23707 0.188781 -3.43329e-22)
(0.154442 -0.00194893 -5.35001e-22)
(0.693166 0.125537 3.4865e-22)
(1.08719 0.244411 -4.16293e-24)
(1.24894 0.288142 -5.16101e-22)
(1.29055 0.29114 -2.72966e-22)
(1.28571 0.27683 -2.67702e-23)
(1.26997 0.25573 2.2352e-23)
(1.25391 0.234862 2.83961e-22)
(1.24008 0.212571 -2.36463e-24)
(1.22879 0.192923 1.11722e-22)
(0.19222 0.00727338 -2.75443e-22)
(0.756187 0.154988 0)
(1.12547 0.269484 -3.01115e-22)
(1.26244 0.306551 0)
(1.28979 0.303367 -3.43801e-22)
(1.27913 0.285525 2.96797e-23)
(1.26172 0.262428 0)
(1.24528 0.240288 0)
(1.23158 0.216881 0)
(1.22024 0.196975 0)
(0.231816 0.0196884 2.41583e-22)
(0.814064 0.185785 1.16905e-22)
(1.157 0.294562 3.01116e-22)
(1.27109 0.324505 0)
(1.2864 0.315328 0)
(1.27129 0.294135 -1.23945e-23)
(1.25279 0.269091 4.77377e-23)
(1.23622 0.245656 5.47548e-23)
(1.22276 0.221147 5.08162e-23)
(1.21143 0.200905 -8.42177e-24)
(0.272438 0.0350615 -4.36866e-24)
(0.866168 0.217564 -1.09414e-22)
(1.18225 0.319528 5.01393e-24)
(1.27541 0.341984 5.947e-24)
(1.28075 0.327035 -9.09817e-24)
(1.26233 0.302648 3.46529e-24)
(1.24323 0.275688 -4.16694e-23)
(1.22672 0.250933 -5.11728e-23)
(1.21361 0.225334 -3.84546e-23)
(1.20239 0.204678 1.55895e-24)
(0.313286 0.0530938 0)
(0.912178 0.249983 -1.10276e-22)
(1.20159 0.344259 -3.41864e-24)
(1.27591 0.358972 6.9595e-24)
(1.27313 0.338484 1.24984e-37)
(1.25236 0.311041 -8.80179e-38)
(1.23305 0.28218 -3.74658e-23)
(1.21678 0.256084 -4.47963e-23)
(1.20411 0.229397 -3.54216e-23)
(1.19313 0.208259 0)
(0.353578 0.0734704 3.16423e-22)
(0.952004 0.282753 9.0424e-23)
(1.21543 0.368641 3.00275e-22)
(1.27297 0.37544 -1.35853e-23)
(1.26375 0.349655 0)
(1.24146 0.319273 1.06347e-23)
(1.22228 0.288522 2.45529e-23)
(1.20638 0.26107 4.8173e-23)
(1.19426 0.233291 2.7402e-23)
(1.18363 0.211626 6.74044e-24)
(0.392573 0.0958933 -2.81993e-22)
(0.985651 0.315615 0)
(1.22413 0.39255 -2.83853e-22)
(1.26697 0.391351 0)
(1.25279 0.360512 -2.88851e-23)
(1.22967 0.327297 2.40515e-23)
(1.2109 0.294666 0)
(1.19553 0.265849 0)
(1.18407 0.236972 0)
(1.17386 0.214762 0)
(0.429586 0.120087 5.58994e-22)
(1.01321 0.348329 -3.59197e-22)
(1.22808 0.41586 -6.90925e-23)
(1.2582 0.406659 -2.84125e-22)
(1.2404 0.371006 -2.64518e-22)
(1.21704 0.335053 1.8531e-23)
(1.19892 0.300559 -1.54726e-23)
(1.18421 0.270375 1.30394e-22)
(1.17357 0.240416 2.15785e-24)
(1.16373 0.217641 9.70603e-23)
(0.464005 0.145786 -5.58995e-22)
(1.03482 0.380669 -4.3387e-22)
(1.22762 0.438447 9.6336e-23)
(1.24692 0.421314 3.39835e-22)
(1.22668 0.381076 -1.63592e-23)
(1.20359 0.342479 2.85779e-22)
(1.18634 0.306148 0)
(1.17243 0.274588 -1.48647e-22)
(1.1628 0.243612 -2.32804e-23)
(1.15324 0.22026 -1.22927e-22)
(0.4953 0.172718 1.33121e-22)
(1.05067 0.412418 7.41345e-22)
(1.22306 0.460179 -4.3348e-22)
(1.23338 0.435256 -8.23802e-23)
(1.21171 0.390656 -1.9872e-22)
(1.18933 0.349508 4.33484e-23)
(1.17316 0.311376 -2.58271e-23)
(1.16021 0.278424 1.45158e-22)
(1.15175 0.246539 -2.41884e-23)
(1.14247 0.222614 6.6137e-23)
(0.523036 0.200596 6.7393e-23)
(1.06096 0.443363 0)
(1.2147 0.480923 2.68275e-23)
(1.21776 0.448414 0)
(1.19556 0.399669 3.97157e-22)
(1.17429 0.356068 -2.59322e-22)
(1.15941 0.316181 0)
(1.14762 0.281844 -1.69066e-23)
(1.14035 0.249133 0)
(1.13151 0.224627 0)
(0.546867 0.229104 -1.03543e-21)
(1.06591 0.473285 -8.03167e-23)
(1.20282 0.500545 5.28943e-22)
(1.20022 0.460711 6.09611e-23)
(1.17828 0.408027 -4.12098e-22)
(1.15854 0.362083 -1.46537e-22)
(1.14515 0.320502 -2.01909e-23)
(1.13467 0.284821 8.52837e-23)
(1.12856 0.251353 -1.73384e-23)
(1.12038 0.22627 9.54839e-24)
(0.566543 0.257909 1.15266e-21)
(1.06576 0.501964 -6.95066e-22)
(1.18768 0.518906 -1.53489e-22)
(1.18092 0.472063 7.53285e-23)
(1.15997 0.415642 3.23466e-22)
(1.14215 0.367476 2.22983e-22)
(1.13037 0.32428 -1.71949e-23)
(1.12135 0.287321 -1.93625e-23)
(1.11644 0.253155 -2.4159e-23)
(1.10907 0.227502 8.73607e-24)
(0.5819 0.286657 9.55598e-22)
(1.06074 0.529173 6.74619e-22)
(1.16949 0.535857 -6.46209e-22)
(1.16001 0.482373 -6.84336e-23)
(1.14077 0.422439 0)
(1.12508 0.372162 0)
(1.11508 0.327459 0)
(1.10767 0.289302 -2.19848e-22)
(1.10401 0.254509 -5.33388e-23)
(1.09761 0.228288 2.48693e-23)
(0.592859 0.314988 -1.8605e-21)
(1.05111 0.554696 0)
(1.14847 0.551232 1.38058e-21)
(1.1377 0.491546 3.64417e-22)
(1.12071 0.428337 0)
(1.10733 0.37607 0)
(1.09932 0.329974 -1.10584e-22)
(1.09366 0.290722 9.15824e-23)
(1.09131 0.255378 5.33392e-23)
(1.08602 0.228599 -2.48683e-23)
(0.599418 0.342537 1.0031e-21)
(1.03717 0.578329 -8.06032e-23)
(1.12485 0.564861 -6.51635e-22)
(1.11413 0.499463 -3.98989e-22)
(1.0998 0.433255 2.86941e-23)
(1.08897 0.37913 1.46311e-22)
(1.08315 0.331767 5.10652e-23)
(1.07935 0.291542 1.27641e-23)
(1.07838 0.255728 -2.61796e-24)
(1.07433 0.228404 1.99605e-23)
(0.601651 0.368937 -1.17769e-23)
(1.01925 0.599881 9.82426e-22)
(1.09892 0.576629 -8.60604e-23)
(1.08932 0.505961 2.11922e-22)
(1.07812 0.437116 1.02515e-22)
(1.07005 0.381276 -3.97031e-23)
(1.0666 0.332781 5.335e-23)
(1.06477 0.291721 -1.74105e-23)
(1.06524 0.255527 -1.21577e-23)
(1.06258 0.227675 -1.40576e-23)
(0.5997 0.393824 0)
(0.997599 0.619118 -8.61762e-22)
(1.07093 0.586444 -7.43749e-23)
(1.06337 0.510913 -6.7023e-23)
(1.05575 0.439815 -1.04945e-22)
(1.05065 0.382444 -7.47626e-23)
(1.04972 0.332967 -5.11979e-23)
(1.04997 0.291223 0)
(1.05194 0.254738 0)
(1.0508 0.226377 0)
(0.593766 0.416876 8.38945e-23)
(0.972348 0.635702 -6.98639e-22)
(1.04123 0.594248 0)
(1.03645 0.514244 -8.0762e-23)
(1.03277 0.441264 9.40901e-24)
(1.03083 0.382573 0)
(1.03259 0.332276 4.58146e-23)
(1.03499 0.290014 1.02598e-22)
(1.0385 0.253326 -2.13262e-23)
(1.03903 0.224467 1.79127e-23)
(0.584073 0.437875 -6.15713e-23)
(0.943725 0.649344 7.49183e-22)
(1.01008 0.599893 0)
(1.00868 0.515911 -1.05667e-22)
(1.00927 0.441378 2.54766e-24)
(1.01067 0.381607 1.43991e-22)
(1.01525 0.330668 1.70194e-23)
(1.01987 0.288062 -1.16844e-22)
(1.02495 0.251257 0)
(1.02732 0.221902 -2.19524e-22)
(0.570831 0.45659 -8.53946e-22)
(0.912206 0.659926 -4.15262e-23)
(0.977636 0.60318 -9.2528e-24)
(0.980225 0.515846 7.65369e-24)
(0.985357 0.440083 1.9517e-22)
(0.99025 0.379493 -1.43992e-22)
(0.997779 0.328106 -2.09108e-22)
(1.00465 0.285336 -1.83399e-22)
(1.01134 0.248502 -3.13067e-22)
(1.01579 0.218677 1.92148e-22)
(0.554166 0.472666 9.04538e-22)
(0.878345 0.667425 0)
(0.944132 0.603978 -1.41246e-23)
(0.951226 0.51398 2.36113e-24)
(0.961127 0.43732 -4.96201e-22)
(0.969654 0.376184 0)
(0.980227 0.324559 2.0911e-22)
(0.98935 0.281799 -4.0677e-23)
(0.997765 0.245036 3.5564e-22)
(1.00474 0.214831 -3.57514e-23)
(0.534304 0.485694 0)
(0.842525 0.67169 1.13033e-22)
(0.909767 0.602225 1.12702e-23)
(0.921837 0.510246 0)
(0.936695 0.433038 3.01032e-22)
(0.948973 0.371642 0)
(0.962655 0.320001 -3.19315e-22)
(0.974037 0.27741 2.24079e-22)
(0.984402 0.240816 4.32474e-22)
(0.994449 0.21043 3.40291e-22)
(0.511724 0.495503 -2.89564e-23)
(0.80509 0.672585 -8.92651e-23)
(0.874774 0.597859 0)
(0.892216 0.504583 0)
(0.912178 0.427194 0)
(0.928299 0.365838 5.15749e-23)
(0.945123 0.314413 2.33277e-22)
(0.958798 0.272144 3.59727e-23)
(0.971443 0.235786 -4.32477e-22)
(0.984819 0.205424 -3.82114e-22)
(0.486844 0.501922 0)
(0.766386 0.669994 2.00211e-22)
(0.839391 0.590838 0)
(0.862525 0.496941 0)
(0.887698 0.419759 0)
(0.907724 0.358749 -6.04621e-23)
(0.927705 0.307779 5.28546e-22)
(0.943755 0.266006 -1.20666e-22)
(0.958968 0.229958 -4.16799e-22)
(0.975181 0.198317 -4.19964e-22)
(0.460075 0.50482 0)
(0.726773 0.663838 -2.00212e-22)
(0.80386 0.581135 4.45869e-22)
(0.832928 0.487283 0)
(0.863381 0.410711 7.27415e-22)
(0.887344 0.350358 0)
(0.91049 0.300086 -4.28658e-22)
(0.929021 0.259008 3.83184e-22)
(0.946728 0.22379 5.45463e-22)
(0.964259 0.193189 4.18639e-22)
(0.431829 0.504102 -3.8011e-22)
(0.686615 0.654072 0)
(0.768426 0.56874 -3.80254e-22)
(0.803596 0.475589 -5.42777e-23)
(0.839355 0.400041 -1.55934e-21)
(0.867258 0.34066 0)
(0.893571 0.29132 5.34964e-22)
(0.914663 0.251075 3.7731e-23)
(0.934842 0.216563 5.78913e-22)
(0.95376 0.186611 2.3999e-24)
(0.402514 0.499718 4.17795e-22)
(0.646276 0.640676 -3.09338e-23)
(0.733331 0.553662 -7.80844e-23)
(0.7747 0.461851 -6.45897e-23)
(0.815747 0.387751 8.31926e-22)
(0.847567 0.329657 -7.44468e-22)
(0.87703 0.281498 -5.34967e-22)
(0.900685 0.242304 -4.20919e-22)
(0.923149 0.208758 -6.54075e-22)
(0.943246 0.179808 6.06666e-22)
(0.372536 0.491653 -5.07757e-23)
(0.60612 0.623666 -7.8692e-22)
(0.698815 0.535926 0)
(0.746411 0.446081 5.64894e-22)
(0.792689 0.373854 6.21644e-23)
(0.828375 0.317359 7.44472e-22)
(0.860958 0.270621 -7.38904e-23)
(0.887158 0.232646 -4.31185e-22)
(0.911798 0.200168 0)
(0.933032 0.172308 -5.41248e-22)
(0.342292 0.479933 5.90183e-23)
(0.566502 0.603084 8.28603e-22)
(0.665115 0.515577 0)
(0.718899 0.428304 -1.31484e-23)
(0.77031 0.358373 6.89655e-23)
(0.809785 0.303789 0)
(0.845431 0.258716 6.83979e-22)
(0.874117 0.222155 4.93034e-22)
(0.900807 0.190926 9.37659e-23)
(0.923171 0.16427 -7.87607e-23)
(0.312168 0.464619 0)
(0.527771 0.579003 1.26156e-21)
(0.632459 0.49268 -1.11661e-22)
(0.692333 0.408563 6.73859e-23)
(0.748737 0.341344 6.12046e-22)
(0.791899 0.288976 1.05764e-21)
(0.830529 0.245806 -7.76172e-22)
(0.861622 0.210837 0)
(0.890246 0.18101 0)
(0.913745 0.155651 0)
(0.282539 0.445811 2.43359e-24)
(0.490262 0.551523 -1.04668e-21)
(0.601072 0.467315 1.25221e-22)
(0.666876 0.386914 -8.75706e-22)
(0.728097 0.322816 -5.30211e-22)
(0.774815 0.272959 1.79591e-22)
(0.816326 0.231927 -7.81528e-22)
(0.849729 0.19873 5.15153e-22)
(0.880167 0.170461 5.54501e-22)
(0.904809 0.146485 -4.31695e-22)
(0.253762 0.423646 -7.38811e-22)
(0.454295 0.520767 -8.22172e-23)
(0.571166 0.439581 1.15485e-21)
(0.642687 0.363429 9.02519e-22)
(0.708512 0.302847 0)
(0.758631 0.255789 -1.00906e-21)
(0.802898 0.217117 -4.10342e-23)
(0.838493 0.185866 -6.63028e-22)
(0.870626 0.159298 -3.88809e-22)
(0.896409 0.136793 3.43499e-22)
(0.226178 0.398304 1.77193e-21)
(0.420169 0.486874 0)
(0.542949 0.409591 -2.39433e-21)
(0.619917 0.338195 -7.8992e-22)
(0.690099 0.281505 -9.34692e-23)
(0.743438 0.237521 0)
(0.790314 0.201426 8.14462e-22)
(0.827969 0.172288 -6.46942e-22)
(0.861674 0.147554 -4.90362e-22)
(0.888585 0.126606 3.73812e-22)
(0.200101 0.370008 -9.32962e-22)
(0.38816 0.450004 -8.22133e-22)
(0.516618 0.377474 1.39441e-21)
(0.598713 0.311313 -1.28157e-22)
(0.672972 0.258872 0)
(0.729324 0.218222 0)
(0.778641 0.184905 0)
(0.81821 0.158037 1.31893e-21)
(0.853358 0.135262 4.90364e-22)
(0.88137 0.115958 -3.73811e-22)
(0.175801 0.338979 -9.69865e-22)
(0.358536 0.410366 8.19053e-22)
(0.492368 0.343372 8.62356e-23)
(0.579211 0.282898 0)
(0.657235 0.235038 -8.06986e-22)
(0.716371 0.197965 -5.37646e-22)
(0.767942 0.167616 -5.96606e-23)
(0.809267 0.143164 1.04326e-22)
(0.845726 0.122461 -1.30163e-22)
(0.874797 0.104887 5.18922e-23)
(0.153517 0.30542 1.10113e-21)
(0.331549 0.368215 -1.10502e-22)
(0.470371 0.307449 -9.03992e-22)
(0.561538 0.253077 2.00902e-22)
(0.642988 0.210102 6.00809e-22)
(0.704655 0.176831 7.64871e-22)
(0.758275 0.149622 -6.17635e-23)
(0.801185 0.12772 -3.37178e-22)
(0.838821 0.109194 0)
(0.868891 0.0934335 4.87009e-23)
(0.133472 0.26956 7.55219e-23)
(0.307428 0.323814 0)
(0.450782 0.269886 -2.85229e-23)
(0.54581 0.221989 0)
(0.630317 0.184172 -8.6295e-22)
(0.694244 0.154908 6.47813e-22)
(0.749694 0.130995 0)
(0.794008 0.111762 8.97965e-24)
(0.832682 0.0955065 0)
(0.863676 0.0816431 0)
(0.115878 0.231658 1.56627e-22)
(0.286372 0.277434 -1.06761e-21)
(0.433736 0.230877 8.47978e-22)
(0.532131 0.189782 -1.45656e-22)
(0.619304 0.157364 3.73604e-22)
(0.685201 0.132287 1.0233e-22)
(0.742245 0.11181 0)
(0.787777 0.0953504 -2.78329e-22)
(0.827346 0.081449 -7.40425e-23)
(0.859172 0.0695614 -2.13722e-22)
(0.10092 0.191996 6.70034e-22)
(0.268555 0.229355 -1.58346e-21)
(0.419349 0.190625 1.45838e-22)
(0.52059 0.156614 -6.08836e-22)
(0.610018 0.129803 -6.83431e-23)
(0.67758 0.109067 -6.63332e-22)
(0.735971 0.0921455 0)
(0.782526 0.0785508 3.80641e-22)
(0.822845 0.0670745 -6.78601e-23)
(0.855395 0.0572352 4.87732e-22)
(0.0887594 0.150872 -6.70034e-22)
(0.254124 0.179868 5.80892e-22)
(0.40772 0.149345 -1.00786e-22)
(0.511265 0.122649 7.14189e-22)
(0.602517 0.101615 3.9179e-22)
(0.671427 0.0853512 4.05566e-23)
(0.730908 0.0720848 -3.38626e-23)
(0.778286 0.0614308 -4.26266e-22)
(0.819209 0.0524395 3.86194e-24)
(0.852358 0.0447116 -1.6202e-22)
(0.079524 0.108596 3.50631e-22)
(0.243196 0.129274 0)
(0.398928 0.107257 4.13996e-22)
(0.504217 0.0880575 0)
(0.596849 0.0729366 5.49869e-23)
(0.666779 0.0612459 -4.57851e-23)
(0.727084 0.0517131 0)
(0.775083 0.0440596 0)
(0.816459 0.0376016 0)
(0.850072 0.0320384 0)
(0.0733122 0.0654917 -3.07165e-22)
(0.23586 0.0778849 -1.18218e-22)
(0.393033 0.064588 -4.13996e-22)
(0.499492 0.0530157 0)
(0.59305 0.0439042 0)
(0.663665 0.0368603 2.06952e-23)
(0.724522 0.0311177 -8.25426e-23)
(0.772936 0.0265082 -9.78394e-23)
(0.814615 0.0226188 -9.11542e-23)
(0.848543 0.0192624 1.47035e-23)
(0.0701898 0.0218863 -5.5609e-24)
(0.232178 0.0260151 1.27532e-22)
(0.390076 0.0215684 -5.69993e-24)
(0.497121 0.0177022 1.96637e-23)
(0.591145 0.0146585 -7.74569e-24)
(0.662103 0.0123056 0)
(0.723237 0.0103876 6.52633e-23)
(0.771859 0.00884814 9.78394e-23)
(0.813689 0.00754924 6.92572e-23)
(0.847778 0.0064272 1.03309e-23)
(0.0701898 -0.0218863 -5.5609e-24)
(0.232178 -0.0260151 1.27532e-22)
(0.390076 -0.0215684 -5.69993e-24)
(0.497121 -0.0177022 1.96637e-23)
(0.591145 -0.0146585 -7.74569e-24)
(0.662103 -0.0123056 0)
(0.723237 -0.0103876 5.7493e-23)
(0.771859 -0.00884814 1.04343e-22)
(0.813689 -0.00754924 7.36487e-23)
(0.847778 -0.0064272 0)
(0.0733122 -0.0654917 -3.94097e-22)
(0.23586 -0.0778849 -1.53331e-22)
(0.393033 -0.064588 -4.38847e-22)
(0.499492 -0.0530157 2.05561e-23)
(0.59305 -0.0439042 0)
(0.663665 -0.0368603 -2.06952e-23)
(0.724522 -0.0311177 -4.79839e-23)
(0.772936 -0.0265082 -9.78394e-23)
(0.814615 -0.0226188 -5.61431e-23)
(0.848543 -0.0192624 -1.47035e-23)
(0.079524 -0.108596 3.50631e-22)
(0.243196 -0.129274 0)
(0.398928 -0.107257 4.13996e-22)
(0.504217 -0.0880575 0)
(0.596849 -0.0729366 5.49869e-23)
(0.666779 -0.0612459 -4.57851e-23)
(0.727084 -0.0517131 0)
(0.775083 -0.0440596 0)
(0.816459 -0.0376016 0)
(0.850072 -0.0320384 0)
(0.0887594 -0.150872 -6.70034e-22)
(0.254124 -0.179868 4.53717e-22)
(0.40772 -0.149345 1.00786e-22)
(0.511265 -0.122649 4.89055e-22)
(0.602517 -0.101615 5.12209e-22)
(0.671427 -0.0853512 -4.05566e-23)
(0.730908 -0.0720848 3.38626e-23)
(0.778286 -0.0614308 -3.35017e-22)
(0.819209 -0.0524395 -3.86194e-24)
(0.852358 -0.0447116 -2.72005e-22)
(0.10092 -0.191996 6.70034e-22)
(0.268555 -0.229355 5.48855e-22)
(0.419349 -0.190625 -1.45838e-22)
(0.52059 -0.156614 -5.94407e-22)
(0.610018 -0.129803 4.97614e-23)
(0.67758 -0.109067 -6.63332e-22)
(0.735971 -0.0921455 0)
(0.782526 -0.0785508 3.80641e-22)
(0.822845 -0.0670745 6.78601e-23)
(0.855395 -0.0572352 3.73736e-22)
(0.115878 -0.231658 -1.56627e-22)
(0.286372 -0.277434 1.06761e-21)
(0.433736 -0.230877 6.63639e-22)
(0.532131 -0.189782 1.45656e-22)
(0.619304 -0.157364 4.66885e-22)
(0.685201 -0.132287 -1.4945e-22)
(0.742245 -0.11181 6.52542e-23)
(0.787777 -0.0953504 -4.54868e-22)
(0.827346 -0.081449 7.40425e-23)
(0.859172 -0.0695614 -2.13722e-22)
(0.133472 -0.26956 -7.55219e-23)
(0.307428 -0.323814 0)
(0.450782 -0.269886 -2.85229e-23)
(0.54581 -0.221989 0)
(0.630317 -0.184172 -8.6295e-22)
(0.694244 -0.154908 6.47813e-22)
(0.749694 -0.130995 0)
(0.794008 -0.111762 8.97965e-24)
(0.832682 -0.0955065 0)
(0.863676 -0.0816431 0)
(0.153517 -0.30542 1.10113e-21)
(0.331549 -0.368215 1.10502e-22)
(0.470371 -0.307449 -6.36238e-22)
(0.561538 -0.253077 -1.3004e-22)
(0.642988 -0.210102 1.01317e-21)
(0.704655 -0.176831 4.53334e-22)
(0.758275 -0.149622 6.17635e-23)
(0.801185 -0.12772 -4.21238e-22)
(0.838821 -0.109194 7.05109e-23)
(0.868891 -0.0934335 -4.8701e-23)
(0.175801 -0.338979 -1.23239e-21)
(0.358536 -0.410366 8.25218e-22)
(0.492368 -0.343372 7.72942e-23)
(0.579211 -0.282898 -1.35269e-22)
(0.657235 -0.235038 -8.06986e-22)
(0.716371 -0.197965 -6.80555e-22)
(0.767942 -0.167616 5.96606e-23)
(0.809267 -0.143164 -5.87186e-23)
(0.845726 -0.122461 1.30163e-22)
(0.874797 -0.104887 -5.18922e-23)
(0.200101 -0.370008 -9.32962e-22)
(0.38816 -0.450004 -8.22133e-22)
(0.516618 -0.377474 1.08454e-21)
(0.598713 -0.311313 1.28157e-22)
(0.672972 -0.258872 0)
(0.729324 -0.218222 0)
(0.778641 -0.184905 0)
(0.81821 -0.158037 1.31893e-21)
(0.853358 -0.135262 4.90364e-22)
(0.88137 -0.115958 -3.73811e-22)
(0.226178 -0.398304 1.77193e-21)
(0.420169 -0.486874 0)
(0.542949 -0.409591 -2.39433e-21)
(0.619917 -0.338195 -9.02523e-22)
(0.690099 -0.281505 0)
(0.743438 -0.237521 0)
(0.790314 -0.201426 8.14462e-22)
(0.827969 -0.172288 -6.46942e-22)
(0.861674 -0.147554 -4.90362e-22)
(0.888585 -0.126606 3.73812e-22)
(0.253762 -0.423646 -9.39129e-22)
(0.454295 -0.520767 8.22172e-23)
(0.571166 -0.439581 1.15485e-21)
(0.642687 -0.363429 1.00833e-21)
(0.708512 -0.302847 -8.78278e-23)
(0.758631 -0.255789 -1.00906e-21)
(0.802898 -0.217117 -4.10342e-23)
(0.838493 -0.185866 -5.18315e-22)
(0.870626 -0.159298 -5.10198e-22)
(0.896409 -0.136793 3.43499e-22)
(0.282539 -0.445811 -2.43359e-24)
(0.490262 -0.551523 -1.2054e-21)
(0.601072 -0.467315 -1.25221e-22)
(0.666876 -0.386914 -6.78526e-22)
(0.728097 -0.322816 -5.40724e-22)
(0.774815 -0.272959 -1.83475e-22)
(0.816326 -0.231927 -7.65314e-22)
(0.849729 -0.19873 6.66185e-22)
(0.880167 -0.170461 3.44502e-22)
(0.904809 -0.146485 -2.55304e-22)
(0.312168 -0.464619 0)
(0.527771 -0.579003 9.9051e-22)
(0.632459 -0.49268 1.11661e-22)
(0.692333 -0.408563 6.73859e-23)
(0.748737 -0.341344 6.12046e-22)
(0.791899 -0.288976 8.36812e-22)
(0.830529 -0.245806 -6.76819e-22)
(0.861622 -0.210837 7.11658e-23)
(0.890246 -0.18101 0)
(0.913745 -0.155651 0)
(0.342292 -0.479933 -5.90183e-23)
(0.566502 -0.603084 8.28603e-22)
(0.665115 -0.515577 0)
(0.718899 -0.428304 1.53018e-22)
(0.77031 -0.358373 -6.89655e-23)
(0.809785 -0.303789 0)
(0.845431 -0.258716 6.83979e-22)
(0.874117 -0.222155 4.93034e-22)
(0.900807 -0.190926 -9.37659e-23)
(0.923171 -0.16427 7.87607e-23)
(0.372536 -0.491653 5.07757e-23)