/*--------------------------------*- C++ -*----------------------------------*\
  =========                 |
  \\      /  F ield         | OpenFOAM: The Open Source CFD Toolbox
   \\    /   O peration     | Website:  https://openfoam.org
    \\  /    A nd           | Version:  7
     \\/     M anipulation  |
\*---------------------------------------------------------------------------*/
FoamFile
{
    version     2.0;
    format      ascii;
    class       surfaceScalarField;
    location    "2.8";
    object      phi;
}
// * * * * * * * * * * * * * * * * * * * * * * * * * * * * * * * * * * * * * //

dimensions      [0 3 -1 0 0 0 0];

internalField   nonuniform List<scalar> 
21785
(
-1.50826e-13
1.51779e-13
-3.99011e-13
4.21037e-13
-7.32343e-13
4.88591e-13
-1.00167e-12
4.17653e-13
-1.1281e-12
2.75918e-13
-1.07992e-12
1.05429e-13
-8.58096e-13
-6.45643e-14
-1.0084e-13
-2.26147e-13
7.46776e-13
-4.90784e-13
1.60351e-12
-7.34699e-13
2.69948e-12
-9.50106e-13
4.00067e-12
-1.14277e-12
5.48298e-12
-1.31725e-12
7.12443e-12
-1.46943e-12
8.8824e-12
-1.58553e-12
1.1145e-11
-1.66779e-12
1.32703e-11
-1.84997e-12
1.53446e-11
-1.94777e-12
1.76048e-11
-2.03559e-12
2.00006e-11
-2.14639e-12
2.24545e-11
-2.25891e-12
2.49197e-11
-2.33843e-12
2.7381e-11
-2.3672e-12
2.98283e-11
-2.3441e-12
3.25818e-11
-2.28675e-12
3.52979e-11
-2.31051e-12
3.77725e-11
-2.34194e-12
4.02569e-11
-2.34794e-12
4.27112e-11
-2.3244e-12
4.51166e-11
-2.2748e-12
4.74514e-11
-2.20007e-12
4.9685e-11
-2.09447e-12
5.21339e-11
-1.96317e-12
5.44063e-11
-1.91465e-12
5.63885e-11
-1.85935e-12
5.83037e-11
-1.78112e-12
6.0118e-11
-1.68005e-12
6.18129e-11
-1.55999e-12
6.33697e-11
-1.42042e-12
6.47616e-11
-1.25405e-12
6.63094e-11
-1.06557e-12
6.76178e-11
-9.61934e-13
6.85933e-11
-8.53892e-13
6.94568e-11
-7.2783e-13
-5.84661e-13
7.01785e-11
-2.75507e-13
6.00835e-13
-7.11808e-13
1.16953e-12
-1.16563e-12
1.22796e-12
-1.40621e-12
9.34527e-13
-1.27753e-12
4.22596e-13
-6.81467e-13
-2.1225e-13
4.4718e-13
-9.089e-13
2.44064e-12
-1.64981e-12
4.97116e-12
-2.4618e-12
7.74627e-12
-3.25838e-12
1.10685e-11
-4.0174e-12
1.49083e-11
-4.72565e-12
1.92361e-11
-5.37681e-12
2.40231e-11
-5.96189e-12
2.92353e-11
-6.47893e-12
3.51861e-11
-6.95976e-12
4.13544e-11
-7.54563e-12
4.74875e-11
-7.93246e-12
5.39305e-11
-8.25412e-12
6.06746e-11
-8.56401e-12
6.76292e-11
-8.85315e-12
7.46996e-11
-9.08393e-12
8.18356e-11
-9.23066e-12
8.90273e-11
-9.2908e-12
9.65367e-11
-9.29686e-12
1.04073e-10
-9.27689e-12
1.1126e-10
-9.26318e-12
1.18392e-10
-9.20423e-12
1.25421e-10
-9.08525e-12
1.32314e-10
-8.90526e-12
1.3904e-10
-8.66619e-12
1.45578e-10
-8.37249e-12
1.52185e-10
-8.04951e-12
1.58533e-10
-7.7283e-12
1.64323e-10
-7.39793e-12
1.69836e-10
-7.03107e-12
1.75036e-10
-6.61943e-12
1.799e-10
-6.16461e-12
1.84407e-10
-5.66837e-12
1.88546e-10
-5.13398e-12
1.92587e-10
-4.58564e-12
1.96202e-10
-4.05667e-12
1.99125e-10
-3.52972e-12
2.01638e-10
-2.98249e-12
-2.4085e-12
2.03724e-10
-2.58633e-13
1.01525e-12
-6.05643e-13
1.80478e-12
-8.35754e-13
1.72328e-12
-6.78617e-13
1.03546e-12
5.8032e-14
-5.68856e-14
1.50428e-12
-1.4017e-12
3.74856e-12
-2.89464e-12
7.11824e-12
-4.47731e-12
1.13671e-11
-6.13761e-12
1.61188e-11
-7.7715e-12
2.16831e-11
-9.34528e-12
2.80304e-11
-1.08306e-11
3.51302e-11
-1.22076e-11
4.29357e-11
-1.34639e-11
5.13964e-11
-1.46106e-11
6.07065e-11
-1.5696e-11
7.07085e-11
-1.69492e-11
8.06848e-11
-1.78233e-11
9.10455e-11
-1.85259e-11
1.01826e-10
-1.91379e-11
1.12961e-10
-1.96766e-11
1.24326e-10
-2.01212e-11
1.35831e-10
-2.04465e-11
1.4743e-10
-2.06408e-11
1.59367e-10
-2.07166e-11
1.71293e-10
-2.06803e-11
1.82861e-10
-2.05913e-11
1.94323e-10
-2.04093e-11
2.05619e-10
-2.01247e-11
2.16699e-10
-1.97355e-11
2.27518e-10
-1.92434e-11
2.38039e-10
-1.86562e-11
2.485e-10
-1.79934e-11
2.5856e-10
-1.72709e-11
2.67895e-10
-1.64992e-11
2.76765e-10
-1.56561e-11
2.85129e-10
-1.47384e-11
2.92954e-10
-1.37483e-11
3.00216e-10
-1.26901e-11
3.06894e-10
-1.15727e-11
3.1324e-10
-1.04158e-11
3.18934e-10
-9.24042e-12
3.23675e-10
-8.04326e-12
3.27742e-10
-6.80965e-12
-5.53872e-12
3.31113e-10
-1.44518e-13
1.30665e-12
-2.01362e-13
2.14215e-12
3.43753e-14
1.74805e-12
8.45875e-13
4.80363e-13
2.4407e-12
-1.39487e-12
4.95902e-12
-3.66796e-12
8.49601e-12
-6.18553e-12
1.33685e-11
-8.84337e-12
1.94155e-11
-1.15874e-11
2.61914e-11
-1.43028e-11
3.40167e-11
-1.69263e-11
4.28559e-11
-1.94137e-11
5.26723e-11
-2.17311e-11
6.33824e-11
-2.38629e-11
7.49188e-11
-2.58357e-11
8.72754e-11
-2.77111e-11
1.01014e-10
-2.97933e-11
1.14655e-10
-3.13393e-11
1.28725e-10
-3.25943e-11
1.43287e-10
-3.36185e-11
1.58322e-10
-3.44875e-11
1.7369e-10
-3.51948e-11
1.89274e-10
-3.57319e-11
2.04985e-10
-3.60821e-11
2.21063e-10
-3.62393e-11
2.37066e-10
-3.61998e-11
2.5271e-10
-3.60139e-11
2.68209e-10
-3.56609e-11
2.83484e-10
-3.51448e-11
2.98469e-10
-3.44685e-11
3.13103e-10
-3.36335e-11
3.27329e-10
-3.26463e-11
3.41379e-10
-3.15206e-11
3.54878e-10
-3.02668e-11
3.6751e-10
-2.89047e-11
3.79509e-10
-2.74165e-11
3.90825e-10
-2.5812e-11
4.01415e-10
-2.40979e-11
4.11244e-10
-2.22811e-11
4.2028e-10
-2.0373e-11
4.28769e-10
-1.83901e-11
4.36384e-10
-1.63495e-11
4.42817e-10
-1.42542e-11
4.48335e-10
-1.20943e-11
-9.88121e-12
4.52912e-10
3.49067e-14
1.41688e-12
4.0555e-13
2.05051e-12
1.27504e-12
1.13934e-12
2.92295e-12
-9.08445e-13
5.55655e-12
-3.76713e-12
9.31324e-12
-7.17264e-12
1.42866e-11
-1.09223e-11
2.07742e-11
-1.48627e-11
2.86907e-11
-1.88845e-11
3.75406e-11
-2.28841e-11
4.76515e-11
-2.67573e-11
5.89772e-11
-3.04544e-11
7.14672e-11
-3.39307e-11
8.49831e-11
-3.71613e-11
9.94504e-11
-4.01611e-11
1.14591e-10
-4.29869e-11
1.31967e-10
-4.5776e-11
1.49122e-10
-4.81285e-11
1.66749e-10
-5.01054e-11
1.84905e-10
-5.17677e-11
2.03607e-10
-5.30403e-11
2.22719e-10
-5.40725e-11
2.42115e-10
-5.48527e-11
2.61682e-10
-5.53729e-11
2.81642e-10
-5.56194e-11
3.01464e-10
-5.55486e-11
3.2092e-10
-5.52583e-11
3.40189e-10
-5.46979e-11
3.5918e-10
-5.38912e-11
3.77812e-10
-5.2851e-11
3.9601e-10
-5.15812e-11
4.13699e-10
-5.00894e-11
4.31099e-10
-4.83863e-11
4.47807e-10
-4.64816e-11
4.63517e-10
-4.43943e-11
4.78438e-10
-4.21049e-11
4.92509e-10
-3.96451e-11
5.0568e-10
-3.70294e-11
5.17905e-10
-3.42671e-11
5.29141e-10
-3.13724e-11
5.39627e-10
-2.8361e-11
5.49033e-10
-2.52487e-11
5.57047e-10
-2.2045e-11
5.63919e-10
-1.87361e-11
-1.53535e-11
5.69623e-10
2.49465e-13
1.314e-12
1.15131e-12
1.42798e-12
2.76153e-12
-2.10159e-13
5.36673e-12
-3.25433e-12
9.16383e-12
-7.30155e-12
1.42799e-11
-1.20362e-11
2.0803e-11
-1.72113e-11
2.90199e-11
-2.26272e-11
3.88369e-11
-2.80742e-11
4.98185e-11
-3.35793e-11
6.22303e-11
-3.88531e-11
7.60295e-11
-4.39394e-11
9.11465e-11
-4.87725e-11
1.07396e-10
-5.33049e-11
1.24693e-10
-5.75166e-11
1.4257e-10
-6.13198e-11
1.63332e-10
-6.48818e-11
1.83834e-10
-6.79986e-11
2.04864e-10
-7.08217e-11
2.26546e-10
-7.27881e-11
2.48707e-10
-7.46953e-11
2.71349e-10
-7.61686e-11
2.94322e-10
-7.72427e-11
3.17505e-10
-7.79601e-11
3.4115e-10
-7.83664e-11
3.64526e-10
-7.84371e-11
3.87584e-10
-7.81037e-11
4.10393e-10
-7.72871e-11
4.32865e-10
-7.61368e-11
4.54913e-10
-7.46627e-11
4.7645e-10
-7.28697e-11
4.97385e-10
-7.07732e-11
5.17928e-10
-6.83864e-11
5.37628e-10
-6.56902e-11
5.5624e-10
-6.27885e-11
5.73897e-10
-5.95348e-11
5.90545e-10
-5.60621e-11
6.06128e-10
-5.23799e-11
6.20592e-10
-4.84967e-11
6.33888e-10
-4.44327e-11
6.46246e-10
-4.02064e-11
6.5731e-10
-3.58019e-11
6.6682e-10
-3.133e-11
6.7496e-10
-2.66452e-11
-2.18795e-11
6.81715e-10
4.73781e-13
9.90962e-13
2.01411e-12
5.92302e-13
4.40198e-12
-2.03989e-12
8.03545e-12
-6.33072e-12
1.30762e-11
-1.17923e-11
1.96323e-11
-1.80625e-11
2.77806e-11
-2.48516e-11
3.78612e-11
-3.19559e-11
4.95578e-11
-3.91694e-11
6.27765e-11
-4.60213e-11
7.74525e-11
-5.28553e-11
9.36791e-11
-5.96197e-11
1.11363e-10
-6.6205e-11
1.30297e-10
-7.24986e-11
1.5049e-10
-7.82638e-11
1.71199e-10
-8.32957e-11
1.95068e-10
-8.57721e-11
2.18582e-10
-8.98728e-11
2.43303e-10
-9.36559e-11
2.6793e-10
-9.71545e-11
2.93482e-10
-9.97013e-11
3.19489e-10
-1.01661e-10
3.45832e-10
-1.03086e-10
3.72369e-10
-1.04012e-10
3.994e-10
-1.0449e-10
4.26226e-10
-1.047e-10
4.52797e-10
-1.04058e-10
4.78936e-10
-1.02954e-10
5.04688e-10
-1.01427e-10
5.29949e-10
-9.94405e-11
5.54618e-10
-9.70188e-11
5.78595e-10
-9.4206e-11
6.02117e-10
-9.10728e-11
6.24585e-10
-8.76594e-11
6.46006e-10
-8.36007e-11
6.66208e-10
-7.92482e-11
6.85267e-10
-7.4638e-11
7.0311e-10
-6.97377e-11
7.19669e-10
-6.45636e-11
7.34888e-10
-5.91501e-11
7.49032e-10
-5.35667e-11
7.61598e-10
-4.78561e-11
7.72589e-10
-4.1696e-11
7.81891e-10
-3.5439e-11
-2.91147e-11
7.89623e-10
9.1171e-13
9.96968e-13
2.91777e-12
-5.94244e-13
6.0966e-12
-4.68569e-12
1.08038e-11
-1.04974e-11
1.71407e-11
-1.75741e-11
2.51945e-11
-2.55353e-11
3.50096e-11
-3.40583e-11
4.69254e-11
-4.28661e-11
6.09406e-11
-5.17103e-11
7.61574e-11
-6.0544e-11
9.29481e-11
-6.91992e-11
1.11442e-10
-7.7472e-11
1.31565e-10
-8.53477e-11
1.53329e-10
-9.28025e-11
1.76489e-10
-9.97689e-11
2.02161e-10
-1.06067e-10
2.26833e-10
-1.11721e-10
2.53271e-10
-1.16738e-10
2.80783e-10
-1.21207e-10
3.08998e-10
-1.2508e-10
3.37803e-10
-1.2824e-10
3.6706e-10
-1.30684e-10
3.96627e-10
-1.32459e-10
4.26383e-10
-1.33572e-10
4.56434e-10
-1.34025e-10
4.86873e-10
-1.3376e-10
5.16631e-10
-1.32952e-10
5.45917e-10
-1.31663e-10
5.74794e-10
-1.2974e-10
6.031e-10
-1.27222e-10
6.30712e-10
-1.24142e-10
6.57509e-10
-1.20525e-10
6.83713e-10
-1.16389e-10
7.09145e-10
-1.11775e-10
7.33068e-10
-1.06701e-10
7.55646e-10
-1.01296e-10
7.76979e-10
-9.54391e-11
7.96951e-10
-8.91872e-11
8.15476e-10
-8.25788e-11
8.3247e-10
-7.56411e-11
8.48185e-10
-6.83919e-11
8.62502e-10
-6.08688e-11
8.74725e-10
-5.31377e-11
8.85089e-10
-4.52976e-11
-3.72437e-11
8.93736e-10
1.09035e-12
2.7677e-13
3.61469e-12
-2.87637e-12
7.73938e-12
-8.57161e-12
1.36026e-11
-1.61286e-11
2.13067e-11
-2.50422e-11
3.09222e-11
-3.48963e-11
4.24842e-11
-4.53448e-11
5.63439e-11
-5.60903e-11
7.23355e-11
-6.69314e-11
8.96858e-11
-7.7754e-11
1.08829e-10
-8.82446e-11
1.29716e-10
-9.82681e-11
1.52302e-10
-1.07769e-10
1.76642e-10
-1.16727e-10
2.02624e-10
-1.25114e-10
2.3116e-10
-1.32873e-10
2.58691e-10
-1.39951e-10
2.87965e-10
-1.46109e-10
3.18409e-10
-1.51438e-10
3.49745e-10
-1.56028e-10
3.81684e-10
-1.59823e-10
4.14059e-10
-1.62812e-10
4.46756e-10
-1.64972e-10
4.7965e-10
-1.6629e-10
5.12894e-10
-1.66765e-10
5.46354e-10
-1.66373e-10
5.7905e-10
-1.65423e-10
6.11398e-10
-1.63741e-10
6.43256e-10
-1.6133e-10
6.74475e-10
-1.58204e-10
7.04918e-10
-1.54382e-10
7.34466e-10
-1.49884e-10
7.633e-10
-1.44729e-10
7.91276e-10
-1.38935e-10
8.17514e-10
-1.32734e-10
8.42435e-10
-1.25982e-10
8.65942e-10
-1.18709e-10
8.87945e-10
-1.10957e-10
9.08355e-10
-1.02765e-10
9.2709e-10
-9.41595e-11
9.44374e-10
-8.51621e-11
9.60071e-10
-7.58027e-11
9.73425e-10
-6.63021e-11
9.84883e-10
-5.65368e-11
-4.65433e-11
9.94413e-10
1.15937e-12
-7.48264e-13
4.30635e-12
-5.74428e-12
9.35832e-12
-1.33666e-11
1.64028e-11
-2.29277e-11
2.5505e-11
-3.39029e-11
3.67074e-11
-4.58519e-11
5.00346e-11
-5.84098e-11
6.57892e-11
-7.12787e-11
8.37233e-11
-8.42832e-11
1.03319e-10
-9.71184e-11
1.24826e-10
-1.09593e-10
1.48141e-10
-1.21521e-10
1.73195e-10
-1.32798e-10
2.00047e-10
-1.43377e-10
2.28643e-10
-1.53251e-10
2.59807e-10
-1.62405e-10
2.90364e-10
-1.70973e-10
3.22536e-10
-1.78235e-10
3.55851e-10
-1.84501e-10
3.9012e-10
-1.89879e-10
4.25039e-10
-1.94378e-10
4.60435e-10
-1.9794e-10
4.96176e-10
-2.0049e-10
5.32116e-10
-2.02025e-10
5.68444e-10
-2.02555e-10
6.04657e-10
-2.02119e-10
6.40276e-10
-2.00844e-10
6.75509e-10
-1.98714e-10
7.1021e-10
-1.95732e-10
7.44219e-10
-1.91919e-10
7.77381e-10
-1.87285e-10
8.09564e-10
-1.81843e-10
8.4096e-10
-1.75618e-10
8.7118e-10
-1.68667e-10
8.99741e-10
-1.61084e-10
9.26858e-10
-1.52864e-10
9.52432e-10
-1.44031e-10
9.7637e-10
-1.34634e-10
9.98578e-10
-1.24714e-10
1.01897e-09
-1.14307e-10
1.03778e-09
-1.03446e-10
1.05464e-09
-9.22038e-11
1.06918e-09
-8.06415e-11
1.08164e-09
-6.87854e-11
-5.66697e-11
1.092e-09
1.31303e-12
-1.91497e-12
5.02855e-12
-9.1728e-12
1.09772e-11
-1.90482e-11
1.91884e-11
-3.08795e-11
2.96868e-11
-4.41473e-11
4.24756e-11
-5.83996e-11
5.75536e-11
-7.32536e-11
7.51338e-11
-8.83951e-11
9.51344e-11
-1.03611e-10
1.16935e-10
-1.186e-10
1.40788e-10
-1.33173e-10
1.66543e-10
-1.47116e-10
1.94085e-10
-1.60292e-10
2.23429e-10
-1.7262e-10
2.54566e-10
-1.84089e-10
2.88156e-10
-1.94712e-10
3.21845e-10
-2.04638e-10
3.56869e-10
-2.13092e-10
3.92977e-10
-2.20388e-10
4.30037e-10
-2.26623e-10
4.6782e-10
-2.3182e-10
5.06145e-10
-2.35925e-10
5.44864e-10
-2.38916e-10
5.83756e-10
-2.4064e-10
6.23005e-10
-2.41233e-10
6.61993e-10
-2.40685e-10
7.00405e-10
-2.39114e-10
7.38381e-10
-2.3649e-10
7.75785e-10
-2.32857e-10
8.12453e-10
-2.28264e-10
8.48218e-10
-2.22731e-10
8.82922e-10
-2.16267e-10
9.16732e-10
-2.08891e-10
9.49211e-10
-2.0067e-10
9.79969e-10
-1.91644e-10
1.00917e-09
-1.81847e-10
1.0367e-09
-1.7132e-10
1.06247e-09
-1.60132e-10
1.08639e-09
-1.48341e-10
1.10835e-09
-1.3599e-10
1.12855e-09
-1.23122e-10
1.14665e-09
-1.09818e-10
1.16229e-09
-9.60846e-11
1.1757e-09
-8.19901e-11
-6.75852e-11
1.18683e-09
1.50292e-12
-3.27307e-12
5.76881e-12
-1.31518e-11
1.25889e-11
-2.55962e-11
2.19422e-11
-3.99613e-11
3.3818e-11
-5.57533e-11
4.81821e-11
-7.25189e-11
6.50011e-11
-8.9858e-11
8.44162e-11
-1.07431e-10
1.06478e-10
-1.24958e-10
1.30447e-10
-1.42222e-10
1.56621e-10
-1.58986e-10
1.8481e-10
-1.7503e-10
2.14847e-10
-1.902e-10
2.46677e-10
-2.04381e-10
2.80305e-10
-2.17533e-10
3.16236e-10
-2.2969e-10
3.53035e-10
-2.40985e-10
3.90859e-10
-2.50691e-10
4.297e-10
-2.59083e-10
4.69468e-10
-2.66206e-10
5.1003e-10
-2.72078e-10
5.51179e-10
-2.76708e-10
5.9286e-10
-2.79559e-10
6.34574e-10
-2.81471e-10
6.76668e-10
-2.82255e-10
7.18369e-10
-2.81961e-10
7.59504e-10
-2.80114e-10
8.00124e-10
-2.76986e-10
8.4011e-10
-2.72657e-10
8.79312e-10
-2.67203e-10
9.17563e-10
-2.60672e-10
9.54686e-10
-2.53085e-10
9.90801e-10
-2.4446e-10
1.02551e-09
-2.34869e-10
1.05838e-09
-2.24311e-10
1.08959e-09
-2.12843e-10
1.11899e-09
-2.00513e-10
1.1465e-09
-1.87408e-10
1.17203e-09
-1.73605e-10
1.19548e-09
-1.59164e-10
1.217e-09
-1.44136e-10
1.23633e-09
-1.28605e-10
1.25302e-09
-1.12565e-10
1.26733e-09
-9.60932e-11
-7.92501e-11
1.27919e-09
1.70145e-12
-4.83e-12
6.4961e-12
-1.76611e-11
1.41864e-11
-3.30155e-11
2.46527e-11
-5.01545e-11
3.7875e-11
-6.86996e-11
5.3793e-11
-8.81857e-11
7.23456e-11
-1.08198e-10
9.36424e-11
-1.28367e-10
1.17703e-10
-1.48316e-10
1.43802e-10
-1.67973e-10
1.72282e-10
-1.87085e-10
2.02878e-10
-2.05294e-10
2.354e-10
-2.22555e-10
2.69715e-10
-2.38694e-10
3.05798e-10
-2.53606e-10
3.44015e-10
-2.67244e-10
3.83865e-10
-2.79733e-10
4.24429e-10
-2.90915e-10
4.65994e-10
-3.0057e-10
5.08478e-10
-3.08504e-10
5.51714e-10
-3.14784e-10
5.9609e-10
-3.19522e-10
6.40149e-10
-3.23256e-10
6.84469e-10
-3.25475e-10
7.29074e-10
-3.26238e-10
7.73756e-10
-3.25762e-10
8.17573e-10
-3.23672e-10
8.6081e-10
-3.20105e-10
9.03299e-10
-3.15048e-10
9.44933e-10
-3.08688e-10
9.85563e-10
-3.01079e-10
1.02501e-09
-2.92267e-10
1.06334e-09
-2.82286e-10
1.10021e-09
-2.71153e-10
1.13513e-09
-2.58966e-10
1.16829e-09
-2.45787e-10
1.1995e-09
-2.31536e-10
1.22868e-09
-2.16408e-10
1.25574e-09
-2.00474e-10
1.2806e-09
-1.83805e-10
1.30338e-09
-1.66466e-10
1.3239e-09
-1.48488e-10
1.3416e-09
-1.29995e-10
1.35679e-09
-1.1106e-10
-9.1618e-11
1.36935e-09
1.89957e-12
-6.5809e-12
7.17565e-12
-2.26522e-11
1.57955e-11
-4.09293e-11
2.73152e-11
-6.11058e-11
4.18404e-11
-8.26768e-11
5.92779e-11
-1.05122e-10
7.95448e-11
-1.28006e-10
1.02798e-10
-1.50972e-10
1.28768e-10
-1.73625e-10
1.5694e-10
-1.95841e-10
1.87761e-10
-2.17086e-10
2.2068e-10
-2.37724e-10
2.5566e-10
-2.57448e-10
2.92493e-10
-2.75905e-10
3.3112e-10
-2.92774e-10
3.7173e-10
-3.07876e-10
4.14122e-10
-3.20766e-10
4.57434e-10
-3.33167e-10
5.01941e-10
-3.4403e-10
5.47277e-10
-3.53139e-10
5.93274e-10
-3.60433e-10
6.39868e-10
-3.66001e-10
6.86635e-10
-3.69981e-10
7.33605e-10
-3.72318e-10
7.80626e-10
-3.73028e-10
8.28135e-10
-3.72223e-10
8.74599e-10
-3.69731e-10
9.20489e-10
-3.65481e-10
9.65426e-10
-3.59863e-10
1.00944e-09
-3.52616e-10
1.05236e-09
-3.43807e-10
1.09404e-09
-3.33591e-10
1.13454e-09
-3.22113e-10
1.17347e-09
-3.09422e-10
1.21033e-09
-2.95522e-10
1.24547e-09
-2.80276e-10
1.2784e-09
-2.6413e-10
1.30919e-09
-2.46974e-10
1.33774e-09
-2.28804e-10
1.36395e-09
-2.09726e-10
1.38798e-09
-1.89897e-10
1.40958e-09
-1.69391e-10
1.42821e-09
-1.48327e-10
1.44433e-09
-1.2649e-10
-1.04374e-10
1.45755e-09
2.10561e-12
-8.15402e-12
8.06048e-12
-2.75902e-11
1.73932e-11
-4.93963e-11
2.98892e-11
-7.30534e-11
4.56692e-11
-9.78688e-11
6.45979e-11
-1.23411e-10
8.65407e-11
-1.49277e-10
1.11732e-10
-1.75095e-10
1.39612e-10
-2.00522e-10
1.70136e-10
-2.25185e-10
2.02847e-10
-2.4912e-10
2.37913e-10
-2.72033e-10
2.75306e-10
-2.93723e-10
3.14856e-10
-3.14081e-10
3.56288e-10
-3.32934e-10
4.00154e-10
-3.50043e-10
4.44056e-10
-3.64928e-10
4.89935e-10
-3.78541e-10
5.37155e-10
-3.90548e-10
5.85287e-10
-4.00742e-10
6.33984e-10
-4.08969e-10
6.83112e-10
-4.15194e-10
7.3249e-10
-4.19494e-10
7.82054e-10
-4.21887e-10
8.31552e-10
-4.22426e-10
8.81687e-10
-4.20596e-10
9.30841e-10
-4.17523e-10
9.7903e-10
-4.12925e-10
1.02651e-09
-4.06498e-10
1.07296e-09
-3.98296e-10
1.11816e-09
-3.88382e-10
1.16195e-09
-3.76861e-10
1.20449e-09
-3.63828e-10
1.24541e-09
-3.49257e-10
1.28438e-09
-3.33337e-10
1.32113e-09
-3.1627e-10
1.35577e-09
-2.98035e-10
1.38821e-09
-2.78633e-10
1.41825e-09
-2.58137e-10
1.44576e-09
-2.36634e-10
1.47098e-09
-2.14229e-10
1.49357e-09
-1.90916e-10
1.51337e-09
-1.66962e-10
1.5301e-09
-1.42552e-10
-1.17653e-10
1.54395e-09
2.33896e-12
-1.01066e-11
8.79243e-12
-3.34753e-11
1.87842e-11
-5.91685e-11
3.23662e-11
-8.641e-11
4.942e-11
-1.14682e-10
6.98288e-11
-1.43538e-10
9.34477e-11
-1.72578e-10
1.20493e-10
-2.01432e-10
1.50465e-10
-2.29796e-10
1.82938e-10
-2.57338e-10
2.17786e-10
-2.83905e-10
2.55103e-10
-3.09194e-10
2.94786e-10
-3.33099e-10
3.36767e-10
-3.55549e-10
3.80797e-10
-3.76388e-10
4.27719e-10
-3.95352e-10
4.73684e-10
-4.11824e-10
5.21959e-10
-4.26638e-10
5.71741e-10
-4.39641e-10
6.22586e-10
-4.50807e-10
6.74018e-10
-4.59966e-10
7.25812e-10
-4.66956e-10
7.77837e-10
-4.71697e-10
8.29949e-10
-4.74176e-10
8.82527e-10
-4.74425e-10
9.34608e-10
-4.72312e-10
9.86003e-10
-4.68612e-10
1.03669e-09
-4.63177e-10
1.08662e-09
-4.5588e-10
1.13544e-09
-4.46684e-10
1.1829e-09
-4.35589e-10
1.22883e-09
-4.22646e-10
1.27352e-09
-4.07945e-10
1.31637e-09
-3.91603e-10
1.35706e-09
-3.73745e-10
1.39552e-09
-3.54543e-10
1.43184e-09
-3.34009e-10
1.46585e-09
-3.12245e-10
1.49735e-09
-2.8931e-10
1.52617e-09
-2.65243e-10
1.55267e-09
-2.40108e-10
1.57623e-09
-2.13995e-10
1.59679e-09
-1.87194e-10
1.61426e-09
-1.59813e-10
-1.31865e-10
1.62877e-09
2.46109e-12
-1.24277e-11
9.31143e-12
-4.0049e-11
2.0124e-11
-6.97264e-11
3.47674e-11
-1.00814e-10
5.30956e-11
-1.32768e-10
7.49664e-11
-1.65137e-10
1.00231e-10
-1.97531e-10
1.29062e-10
-2.2961e-10
1.61012e-10
-2.61201e-10
1.95484e-10
-2.91687e-10
2.32548e-10
-3.20932e-10
2.72088e-10
-3.48696e-10
3.13988e-10
-3.74845e-10
3.58294e-10
-3.99331e-10
4.04836e-10
-4.22082e-10
4.54844e-10
-4.42907e-10
5.0305e-10
-4.61494e-10
5.53701e-10
-4.77617e-10
6.05847e-10
-4.91579e-10
6.59214e-10
-5.03528e-10
7.13312e-10
-5.13404e-10
7.67842e-10
-5.2103e-10
8.22615e-10
-5.26228e-10
8.77402e-10
-5.28877e-10
9.32805e-10
-5.28969e-10
9.86937e-10
-5.26721e-10
1.04053e-09
-5.22363e-10
1.09353e-09
-5.15921e-10
1.1458e-09
-5.07509e-10
1.19696e-09
-4.97145e-10
1.2467e-09
-4.84768e-10
1.2948e-09
-4.70374e-10
1.34156e-09
-4.54045e-10
1.38631e-09
-4.36116e-10
1.42872e-09
-4.16236e-10
1.46888e-09
-3.94692e-10
1.50677e-09
-3.71663e-10
1.54227e-09
-3.4732e-10
1.57521e-09
-3.21763e-10
1.60538e-09
-2.95018e-10
1.63311e-09
-2.6712e-10
1.65758e-09
-2.38294e-10
1.6789e-09
-2.0848e-10
1.69711e-09
-1.77898e-10
-1.46718e-10
1.71222e-09
2.58106e-12
-1.48569e-11
9.87035e-12
-4.70387e-11
2.14495e-11
-8.10266e-11
3.71235e-11
-1.16219e-10
5.67052e-11
-1.52086e-10
8.00065e-11
-1.88182e-10
1.06861e-10
-2.24123e-10
1.37286e-10
-2.59583e-10
1.713e-10
-2.94421e-10
2.07852e-10
-3.27974e-10
2.47131e-10
-3.60075e-10
2.88909e-10
-3.9045e-10
3.33023e-10
-4.18913e-10
3.79551e-10
-4.45421e-10
4.2845e-10
-4.70014e-10
4.81129e-10
-4.92762e-10
5.32096e-10
-5.13688e-10
5.85207e-10
-5.31329e-10
6.39644e-10
-5.46377e-10
6.95344e-10
-5.59056e-10
7.51945e-10
-5.69424e-10
8.09158e-10
-5.7741e-10
8.66733e-10
-5.82894e-10
9.24303e-10
-5.85739e-10
9.82325e-10
-5.85914e-10
1.0387e-09
-5.83725e-10
1.09463e-09
-5.78867e-10
1.14981e-09
-5.71352e-10
1.20425e-09
-5.61601e-10
1.25764e-09
-5.49792e-10
1.3096e-09
-5.35915e-10
1.35985e-09
-5.19965e-10
1.40842e-09
-5.01993e-10
1.45531e-09
-4.82488e-10
1.49958e-09
-4.60576e-10
1.54141e-09
-4.36693e-10
1.58079e-09
-4.1105e-10
1.61768e-09
-3.83917e-10
1.65196e-09
-3.55508e-10
1.68344e-09
-3.25909e-10
1.71224e-09
-2.95155e-10
1.73779e-09
-2.63497e-10
1.75999e-09
-2.30602e-10
1.77889e-09
-1.96758e-10
-1.62226e-10
1.79452e-09
2.72224e-12
-1.74332e-11
1.04514e-11
-5.44627e-11
2.27612e-11
-9.30378e-11
3.94355e-11
-1.32593e-10
6.0244e-11
-1.72604e-10
8.49464e-11
-2.12653e-10
1.13349e-10
-2.52352e-10
1.45288e-10
-2.91353e-10
1.81345e-10
-3.29445e-10
2.19978e-10
-3.66171e-10
2.61493e-10
-4.01266e-10
3.05579e-10
-4.34427e-10
3.51977e-10
-4.65419e-10
4.00672e-10
-4.94124e-10
4.51642e-10
-5.20607e-10
5.06261e-10
-5.4498e-10
5.60616e-10
-5.68884e-10
6.16378e-10
-5.88735e-10
6.7325e-10
-6.05022e-10
7.31277e-10
-6.1779e-10
7.90262e-10
-6.27479e-10
8.49977e-10
-6.34512e-10
9.10175e-10
-6.39207e-10
9.70379e-10
-6.41901e-10
1.03077e-09
-6.42785e-10
1.0898e-09
-6.43308e-10
1.14837e-09
-6.37941e-10
1.20575e-09
-6.29475e-10
1.26222e-09
-6.1834e-10
1.31767e-09
-6.04988e-10
1.3717e-09
-5.89439e-10
1.424e-09
-5.71757e-10
1.4741e-09
-5.51983e-10
1.5234e-09
-5.30547e-10
1.56964e-09
-5.06588e-10
1.61324e-09
-4.80334e-10
1.65412e-09
-4.52154e-10
1.69231e-09
-4.22207e-10
1.7278e-09
-3.90794e-10
1.76045e-09
-3.58109e-10
1.79016e-09
-3.24256e-10
1.81699e-09
-2.89616e-10
1.84011e-09
-2.53428e-10
1.85972e-09
-2.16292e-10
-1.78336e-10
1.87585e-09
2.88061e-12
-2.01725e-11
1.10341e-11
-6.23148e-11
2.40362e-11
-1.0574e-10
4.16994e-11
-1.49944e-10
6.36971e-11
-1.943e-10
8.97714e-11
-2.38516e-10
1.19708e-10
-2.82182e-10
1.5322e-10
-3.24901e-10
1.91174e-10
-3.6626e-10
2.31827e-10
-4.06224e-10
2.75553e-10
-4.44445e-10
3.22002e-10
-4.80623e-10
3.70786e-10
-5.14382e-10
4.21646e-10
-5.45642e-10
4.74728e-10
-5.74315e-10
5.2964e-10
-6.00419e-10
5.88026e-10
-6.23795e-10
6.47094e-10
-6.44677e-10
7.0732e-10
-6.62798e-10
7.68194e-10
-6.7777e-10
8.29587e-10
-6.89548e-10
8.91381e-10
-6.98182e-10
9.53236e-10
-7.03694e-10
1.01508e-09
-7.06194e-10
1.07554e-09
-7.05984e-10
1.1402e-09
-7.03996e-10
1.20151e-09
-6.98429e-10
1.26139e-09
-6.89477e-10
1.31987e-09
-6.77498e-10
1.37727e-09
-6.62759e-10
1.43318e-09
-6.45574e-10
1.48737e-09
-6.2604e-10
1.53892e-09
-6.04211e-10
1.59062e-09
-5.80198e-10
1.63889e-09
-5.53873e-10
1.68434e-09
-5.25438e-10
1.72682e-09
-4.9475e-10
1.76631e-09
-4.62115e-10
1.80292e-09
-4.27716e-10
1.83665e-09
-3.91797e-10
1.86705e-09
-3.54516e-10
1.89533e-09
-3.15882e-10
1.91931e-09
-2.7689e-10
1.93968e-09
-2.36316e-10
-1.94893e-10
1.95633e-09
3.0586e-12
-2.30862e-11
1.16052e-11
-7.05715e-11
2.52418e-11
-1.19094e-10
4.39426e-11
-1.6795e-10
6.7049e-11
-2.16944e-10
9.44544e-11
-2.65645e-10
1.25924e-10
-3.13513e-10
1.61212e-10
-3.60101e-10
2.0084e-10
-4.04842e-10
2.43398e-10
-4.4819e-10
2.89191e-10
-4.89607e-10
3.37975e-10
-5.28983e-10
3.89099e-10
-5.6657e-10
4.42331e-10
-6.0141e-10
4.977e-10
-6.32743e-10
5.54948e-10
-6.6018e-10
6.15422e-10
-6.82153e-10
6.76814e-10
-7.04478e-10
7.39724e-10
-7.24098e-10
8.03305e-10
-7.40527e-10
8.67343e-10
-7.53534e-10
9.31749e-10
-7.63104e-10
9.96057e-10
-7.69196e-10
1.06013e-09
-7.71814e-10
1.1217e-09
-7.70948e-10
1.18959e-09
-7.66959e-10
1.25378e-09
-7.60551e-10
1.31623e-09
-7.5116e-10
1.37694e-09
-7.38429e-10
1.43634e-09
-7.23807e-10
1.49417e-09
-7.05659e-10
1.55024e-09
-6.84139e-10
1.60353e-09
-6.59463e-10
1.65716e-09
-6.31435e-10
1.70728e-09
-6.02729e-10
1.75458e-09
-5.70535e-10
1.79869e-09
-5.38671e-10
1.83967e-09
-5.04442e-10
1.87754e-09
-4.67391e-10
1.91235e-09
-4.27909e-10
1.94392e-09
-3.8675e-10
1.97233e-09
-3.44382e-10
1.99773e-09
-3.00961e-10
2.01876e-09
-2.56858e-10
-2.11832e-10
2.036e-09
3.26694e-12
-2.58216e-11
1.21571e-11
-7.88895e-11
2.66095e-11
-1.32569e-10
4.60823e-11
-1.8648e-10
7.01913e-11
-2.40317e-10
9.89387e-11
-2.9347e-10
1.31994e-10
-3.45566e-10
1.69306e-10
-3.96209e-10
2.10337e-10
-4.44723e-10
2.54703e-10
-4.91271e-10
3.02301e-10
-5.35784e-10
3.52554e-10
-5.77972e-10
4.06007e-10
-6.17483e-10
4.62308e-10
-6.54326e-10
5.20898e-10
-6.88187e-10
5.83057e-10
-7.18556e-10
6.42488e-10
-7.43971e-10
7.05956e-10
-7.67361e-10
7.71208e-10
-7.87989e-10
8.37468e-10
-8.05474e-10
9.04184e-10
-8.19548e-10
9.71298e-10
-8.30106e-10
1.0383e-09
-8.36975e-10
1.10508e-09
-8.39902e-10
1.16909e-09
-8.38779e-10
1.23859e-09
-8.29855e-10
1.30496e-09
-8.21896e-10
1.37005e-09
-8.12403e-10
1.43197e-09
-8.00285e-10
1.49425e-09
-7.83437e-10
1.55477e-09
-7.63399e-10
1.61329e-09
-7.40224e-10
1.66947e-09
-7.14013e-10
1.72307e-09
-6.83674e-10
1.7762e-09
-6.50827e-10
1.82263e-09
-6.18424e-10
1.86872e-09
-5.82725e-10
1.91199e-09
-5.45019e-10
1.95188e-09
-5.04947e-10
1.988e-09
-4.62624e-10
2.02047e-09
-4.18442e-10
2.0496e-09
-3.72776e-10
2.07542e-09
-3.25376e-10
2.09715e-09
-2.77483e-10
-2.28781e-10
2.11492e-09
3.40953e-12
-2.88184e-11
1.2841e-11
-8.77376e-11
2.79433e-11
-1.47126e-10
4.81309e-11
-2.06508e-10
7.33424e-11
-2.65293e-10
1.03375e-10
-3.23095e-10
1.37924e-10
-3.79574e-10
1.77262e-10
-4.34382e-10
2.19982e-10
-4.87335e-10
2.66012e-10
-5.37633e-10
3.15423e-10
-5.85257e-10
3.67723e-10
-6.3024e-10
4.23125e-10
-6.7238e-10
4.81677e-10
-7.11693e-10
5.42889e-10
-7.47975e-10
6.09109e-10
-7.80698e-10
6.6959e-10
-8.08527e-10
7.34898e-10
-8.33241e-10
8.02273e-10
-8.5468e-10
8.70942e-10
-8.73048e-10
9.40147e-10
-8.8771e-10
1.00988e-09
-8.98791e-10
1.07991e-09
-9.06032e-10
1.14952e-09
-9.09053e-10
1.22032e-09
-9.07468e-10
1.28781e-09
-9.01391e-10
1.35494e-09
-8.92436e-10
1.42155e-09
-8.80335e-10
1.48724e-09
-8.65165e-10
1.55177e-09
-8.4665e-10
1.61466e-09
-8.24661e-10
1.67531e-09
-7.99351e-10
1.73484e-09
-7.70986e-10
1.7901e-09
-7.41316e-10
1.84214e-09
-7.06142e-10
1.89118e-09
-6.68278e-10
1.93855e-09
-6.28771e-10
1.98366e-09
-5.87722e-10
2.02524e-09
-5.44748e-10
2.06272e-09
-4.99497e-10
2.09619e-09
-4.52037e-10
2.12668e-09
-4.02686e-10
2.1526e-09
-3.51574e-10
2.17484e-09
-2.99707e-10
-2.46859e-10
2.19325e-09
3.50523e-12
-3.21759e-11
1.33658e-11
-9.73178e-11
2.90532e-11
-1.62595e-10
5.01875e-11
-2.27469e-10
7.65086e-11
-2.91426e-10
1.07788e-10
-3.54044e-10
1.43763e-10
-4.15031e-10
1.84562e-10
-4.74165e-10
2.29367e-10
-5.31701e-10
2.77381e-10
-5.85928e-10
3.28637e-10
-6.37038e-10
3.82897e-10
-6.84962e-10
4.40123e-10
-7.29646e-10
5.00655e-10
-7.71192e-10
5.64271e-10
-8.09625e-10
6.34154e-10
-8.44626e-10
6.96561e-10
-8.758e-10
7.63916e-10
-9.02075e-10
8.33144e-10
-9.24555e-10
9.04072e-10
-9.43448e-10
9.75568e-10
-9.58441e-10
1.04785e-09
-9.69546e-10
1.12084e-09
-9.7676e-10
1.19374e-09
-9.79802e-10
1.26798e-09
-9.78553e-10
1.3368e-09
-9.7345e-10
1.40588e-09
-9.63904e-10
1.47431e-09
-9.49999e-10
1.54225e-09
-9.32663e-10
1.6091e-09
-9.1187e-10
1.67414e-09
-8.87491e-10
1.73678e-09
-8.59706e-10
1.79678e-09
-8.29315e-10
1.85643e-09
-8.00748e-10
1.91015e-09
-7.6325e-10
1.96012e-09
-7.21579e-10
2.00821e-09
-6.77557e-10
2.05448e-09
-6.32312e-10
2.09762e-09
-5.85692e-10
2.13669e-09
-5.37133e-10
2.17147e-09
-4.86324e-10
2.20322e-09
-4.33366e-10
2.22944e-09
-3.78518e-10
2.25226e-09
-3.22531e-10
-2.65477e-10
2.27119e-09
3.58716e-12
-3.56129e-11
1.3838e-11
-1.07229e-10
3.01832e-11
-1.78619e-10
5.22621e-11
-2.49259e-10
7.97265e-11
-3.18634e-10
1.1223e-10
-3.86303e-10
1.49512e-10
-4.52004e-10
1.9119e-10
-5.15591e-10
2.38434e-10
-5.77545e-10
2.88561e-10
-6.35897e-10
3.41915e-10
-6.90776e-10
3.98201e-10
-7.4193e-10
4.5727e-10
-7.89251e-10
5.19553e-10
-8.32898e-10
5.85201e-10
-8.73226e-10
6.57527e-10
-9.1056e-10
7.23236e-10
-9.45192e-10
7.9279e-10
-9.73401e-10
8.63917e-10
-9.97031e-10
9.37316e-10
-1.01795e-09
1.0111e-09
-1.03025e-09
1.0857e-09
-1.03836e-09
1.16126e-09
-1.04308e-09
1.23685e-09
-1.04539e-09
1.31334e-09
-1.0458e-09
1.38517e-09
-1.04847e-09
1.45715e-09
-1.03813e-09
1.52754e-09
-1.02267e-09
1.59746e-09
-1.00304e-09
1.66656e-09
-9.79631e-10
1.73353e-09
-9.52408e-10
1.79765e-09
-9.21894e-10
1.85469e-09
-8.89323e-10
1.92199e-09
-8.61299e-10
1.97872e-09
-8.22337e-10
2.03007e-09
-7.77871e-10
2.07839e-09
-7.29838e-10
2.12513e-09
-6.79972e-10
2.16937e-09
-6.28843e-10
2.20993e-09
-5.76167e-10
2.24616e-09
-5.215e-10
2.27917e-09
-4.64743e-10
2.30599e-09
-4.06243e-10
2.32941e-09
-3.46029e-10
-2.84615e-10
2.34877e-09
3.68728e-12
-3.91789e-11
1.43146e-11
-1.17491e-10
3.13072e-11
-1.95192e-10
5.43168e-11
-2.71807e-10
8.29462e-11
-3.46882e-10
1.16675e-10
-4.19914e-10
1.55203e-10
-4.90633e-10
1.97462e-10
-5.58837e-10
2.47127e-10
-6.24814e-10
2.99392e-10
-6.87402e-10
3.55073e-10
-7.46308e-10
4.13652e-10
-8.01013e-10
4.74783e-10
-8.51404e-10
5.38696e-10
-8.97566e-10
6.0571e-10
-9.3988e-10
6.78905e-10
-9.78891e-10
7.49147e-10
-1.01786e-09
8.21551e-10
-1.04994e-09
8.93565e-10
-1.0757e-09
9.73648e-10
-1.093e-09
1.04962e-09
-1.1091e-09
1.12588e-09
-1.12018e-09
1.20175e-09
-1.12642e-09
1.27764e-09
-1.12806e-09
1.34997e-09
-1.12584e-09
1.43303e-09
-1.12301e-09
1.50812e-09
-1.11303e-09
1.58125e-09
-1.09713e-09
1.6532e-09
-1.07603e-09
1.72453e-09
-1.05063e-09
1.79305e-09
-1.02131e-09
1.85797e-09
-9.88588e-10
1.90928e-09
-9.53797e-10
1.98594e-09
-9.20353e-10
2.04661e-09
-8.79923e-10
2.10048e-09
-8.3414e-10
2.14947e-09
-7.83726e-10
2.1964e-09
-7.30111e-10
2.2412e-09
-6.74515e-10
2.28284e-09
-6.17159e-10
2.32036e-09
-5.58054e-10
2.3544e-09
-4.97111e-10
2.38229e-09
-4.34637e-10
2.40635e-09
-3.70132e-10
-3.04277e-10
2.42613e-09
3.83574e-12
-4.29048e-11
1.48281e-11
-1.28136e-10
3.24184e-11
-2.12349e-10
5.62791e-11
-2.95174e-10
8.60563e-11
-3.7619e-10
1.21011e-10
-4.54834e-10
1.60823e-10
-5.30871e-10
2.03888e-10
-6.03906e-10
2.55472e-10
-6.73548e-10
3.09745e-10
-7.40195e-10
3.67867e-10
-8.03177e-10
4.28962e-10
-8.61935e-10
4.92449e-10
-9.16109e-10
5.5804e-10