/*--------------------------------*- C++ -*----------------------------------*\
  =========                 |
  \\      /  F ield         | OpenFOAM: The Open Source CFD Toolbox
   \\    /   O peration     | Website:  https://openfoam.org
    \\  /    A nd           | Version:  7
     \\/     M anipulation  |
\*---------------------------------------------------------------------------*/
FoamFile
{
    version     2.0;
    format      ascii;
    class       volVectorField;
    location    "4.3";
    object      U;
}
// * * * * * * * * * * * * * * * * * * * * * * * * * * * * * * * * * * * * * //

dimensions      [0 1 -1 0 0 0 0];

internalField   nonuniform List<vector> 
11050
(
(-3.30364e-11 3.00587e-11 0)
(-1.40151e-10 8.90225e-11 0)
(-3.07278e-10 1.06846e-10 0)
(-4.74019e-10 9.58751e-11 0)
(-5.83014e-10 7.09963e-11 0)
(-6.11452e-10 4.17794e-11 0)
(-5.49052e-10 1.49673e-11 0)
(-3.29113e-10 -8.98453e-12 0)
(4.16935e-11 -4.69085e-11 0)
(4.68917e-10 -8.98371e-11 0)
(9.67944e-10 -1.29546e-10 0)
(1.57568e-09 -1.63489e-10 0)
(2.2769e-09 -1.91258e-10 0)
(3.05242e-09 -2.12562e-10 0)
(3.89082e-09 -2.25919e-10 0)
(4.84e-09 -2.32892e-10 0)
(5.92454e-09 -2.50093e-10 0)
(7.04471e-09 -2.93738e-10 0)
(8.15842e-09 -3.27489e-10 0)
(9.29631e-09 -3.36367e-10 0)
(1.04641e-08 -3.29105e-10 0)
(1.16741e-08 -3.21564e-10 0)
(1.29186e-08 -3.19428e-10 0)
(1.41785e-08 -3.18113e-10 0)
(1.55028e-08 -3.14336e-10 0)
(1.685e-08 -3.27003e-10 0)
(1.81232e-08 -3.32031e-10 0)
(1.93632e-08 -3.31178e-10 0)
(2.0604e-08 -3.26804e-10 0)
(2.18301e-08 -3.2001e-10 0)
(2.30231e-08 -3.09574e-10 0)
(2.41747e-08 -2.92897e-10 0)
(2.53425e-08 -2.71825e-10 0)
(2.65063e-08 -2.66973e-10 0)
(2.75664e-08 -2.61199e-10 0)
(2.85452e-08 -2.51087e-10 0)
(2.94828e-08 -2.37102e-10 0)
(3.03681e-08 -2.20024e-10 0)
(3.11864e-08 -1.99279e-10 0)
(3.1932e-08 -1.73074e-10 0)
(3.26632e-08 -1.43621e-10 0)
(3.33635e-08 -1.30912e-10 0)
(3.39361e-08 -1.18353e-10 0)
(3.44024e-08 -1.01991e-10 0)
(3.48046e-08 -8.18839e-11 0)
(-6.84753e-11 1.70827e-10 0)
(-2.68217e-10 3.67646e-10 0)
(-5.3681e-10 4.03685e-10 0)
(-7.51784e-10 3.27573e-10 0)
(-8.09155e-10 1.85158e-10 0)
(-6.52995e-10 8.27325e-12 0)
(-2.47046e-10 -1.80678e-10 0)
(4.99036e-10 -3.72403e-10 0)
(1.58296e-09 -5.80959e-10 0)
(2.88367e-09 -8.01972e-10 0)
(4.41024e-09 -1.01542e-09 0)
(6.21145e-09 -1.2131e-09 0)
(8.26472e-09 -1.39302e-09 0)
(1.05398e-08 -1.55459e-09 0)
(1.30188e-08 -1.69319e-09 0)
(1.57495e-08 -1.80516e-09 0)
(1.8732e-08 -1.88614e-09 0)
(2.18528e-08 -2.04852e-09 0)
(2.5072e-08 -2.19867e-09 0)
(2.83867e-08 -2.28713e-09 0)
(3.17707e-08 -2.32156e-09 0)
(3.52332e-08 -2.33705e-09 0)
(3.87749e-08 -2.35185e-09 0)
(4.23772e-08 -2.36351e-09 0)
(4.60826e-08 -2.36878e-09 0)
(4.98368e-08 -2.39446e-09 0)
(5.34953e-08 -2.3947e-09 0)
(5.70738e-08 -2.37525e-09 0)
(6.06211e-08 -2.34045e-09 0)
(6.41175e-08 -2.29299e-09 0)
(6.75354e-08 -2.23146e-09 0)
(7.08605e-08 -2.15275e-09 0)
(7.41498e-08 -2.0621e-09 0)
(7.73781e-08 -1.98932e-09 0)
(8.04068e-08 -1.9096e-09 0)
(8.32379e-08 -1.817e-09 0)
(8.59264e-08 -1.71149e-09 0)
(8.84582e-08 -1.59449e-09 0)
(9.08125e-08 -1.46568e-09 0)
(9.29821e-08 -1.32364e-09 0)
(9.50285e-08 -1.17448e-09 0)
(9.69349e-08 -1.04643e-09 0)
(9.85702e-08 -9.17684e-10 0)
(9.99394e-08 -7.80681e-10 0)
(1.01102e-07 -6.34168e-10 0)
(-7.17257e-11 3.90297e-10 0)
(-2.60416e-10 7.27063e-10 0)
(-4.67368e-10 7.30411e-10 0)
(-5.44077e-10 5.01105e-10 0)
(-3.66614e-10 1.18377e-10 0)
(1.39747e-10 -3.59182e-10 0)
(1.02815e-09 -8.88816e-10 0)
(2.40178e-09 -1.44166e-09 0)
(4.24961e-09 -1.99549e-09 0)
(6.44802e-09 -2.56254e-09 0)
(9.01567e-09 -3.11747e-09 0)
(1.19968e-08 -3.64869e-09 0)
(1.53631e-08 -4.15187e-09 0)
(1.9082e-08 -4.62397e-09 0)
(2.31376e-08 -5.05173e-09 0)
(2.75942e-08 -5.41043e-09 0)
(3.23364e-08 -5.6166e-09 0)
(3.72595e-08 -5.95833e-09 0)
(4.24386e-08 -6.30585e-09 0)
(4.7812e-08 -6.5774e-09 0)
(5.32944e-08 -6.75146e-09 0)
(5.88726e-08 -6.86283e-09 0)
(6.45541e-08 -6.93862e-09 0)
(7.0326e-08 -6.98967e-09 0)
(7.6222e-08 -7.02028e-09 0)
(8.21913e-08 -7.04332e-09 0)
(8.8066e-08 -7.0183e-09 0)
(9.38271e-08 -6.95286e-09 0)
(9.95236e-08 -6.85017e-09 0)
(1.05132e-07 -6.71372e-09 0)
(1.1062e-07 -6.54491e-09 0)
(1.15967e-07 -6.34498e-09 0)
(1.21217e-07 -6.12059e-09 0)
(1.26344e-07 -5.88544e-09 0)
(1.31194e-07 -5.62676e-09 0)
(1.35754e-07 -5.34183e-09 0)
(1.40075e-07 -5.03049e-09 0)
(1.44142e-07 -4.69451e-09 0)
(1.47929e-07 -4.33543e-09 0)
(1.51425e-07 -3.95563e-09 0)
(1.54686e-07 -3.56257e-09 0)
(1.57694e-07 -3.16761e-09 0)
(1.60308e-07 -2.76565e-09 0)
(1.62523e-07 -2.35137e-09 0)
(1.64401e-07 -1.92292e-09 0)
(-5.41211e-11 5.76245e-10 0)
(-1.5824e-10 9.89108e-10 0)
(-1.86385e-10 8.8159e-10 0)
(6.33144e-12 4.07257e-10 0)
(5.48965e-10 -3.20151e-10 0)
(1.52579e-09 -1.21355e-09 0)
(3.00011e-09 -2.20669e-09 0)
(5.0875e-09 -3.24849e-09 0)
(7.75903e-09 -4.29009e-09 0)
(1.08873e-08 -5.33899e-09 0)
(1.4507e-08 -6.36658e-09 0)
(1.86554e-08 -7.36235e-09 0)
(2.33017e-08 -8.31939e-09 0)
(2.84196e-08 -9.22736e-09 0)
(3.40073e-08 -1.00563e-08 0)
(4.01767e-08 -1.07524e-08 0)
(4.65903e-08 -1.11669e-08 0)
(5.31391e-08 -1.17408e-08 0)
(6.01284e-08 -1.2337e-08 0)
(6.74379e-08 -1.2859e-08 0)
(7.49115e-08 -1.32387e-08 0)
(8.24919e-08 -1.35053e-08 0)
(9.01856e-08 -1.36861e-08 0)
(9.79833e-08 -1.37999e-08 0)
(1.05915e-07 -1.38573e-08 0)
(1.13941e-07 -1.38665e-08 0)
(1.21878e-07 -1.38055e-08 0)
(1.29677e-07 -1.36749e-08 0)
(1.37381e-07 -1.34758e-08 0)
(1.44961e-07 -1.32119e-08 0)
(1.52378e-07 -1.28875e-08 0)
(1.59605e-07 -1.25081e-08 0)
(1.66678e-07 -1.20808e-08 0)
(1.73567e-07 -1.16137e-08 0)
(1.80111e-07 -1.10981e-08 0)
(1.86282e-07 -1.05336e-08 0)
(1.92128e-07 -9.92291e-09 0)
(1.97627e-07 -9.26905e-09 0)
(2.02749e-07 -8.57558e-09 0)
(2.0748e-07 -7.84754e-09 0)
(2.1187e-07 -7.09202e-09 0)
(2.15898e-07 -6.31436e-09 0)
(2.19419e-07 -5.51792e-09 0)
(2.22423e-07 -4.69952e-09 0)
(2.24969e-07 -3.86041e-09 0)
(-2.45249e-11 6.84776e-10 0)
(4.55038e-12 1.06203e-09 0)
(2.37162e-10 7.4606e-10 0)
(7.92586e-10 -7.07209e-11 0)
(1.79559e-09 -1.24158e-09 0)
(3.33312e-09 -2.65059e-09 0)
(5.47305e-09 -4.20797e-09 0)
(8.34026e-09 -5.84279e-09 0)
(1.18875e-08 -7.49127e-09 0)
(1.59806e-08 -9.13843e-09 0)
(2.06641e-08 -1.07451e-08 0)
(2.59681e-08 -1.23046e-08 0)
(3.18672e-08 -1.3806e-08 0)
(3.83507e-08 -1.52299e-08 0)
(4.54419e-08 -1.65346e-08 0)
(5.33157e-08 -1.76596e-08 0)
(6.13443e-08 -1.84447e-08 0)
(6.93886e-08 -1.9316e-08 0)
(7.80433e-08 -2.0184e-08 0)
(8.71646e-08 -2.09854e-08 0)
(9.65273e-08 -2.15907e-08 0)
(1.06007e-07 -2.20501e-08 0)
(1.15607e-07 -2.23751e-08 0)
(1.25316e-07 -2.25782e-08 0)
(1.35163e-07 -2.26696e-08 0)
(1.45108e-07 -2.26498e-08 0)
(1.54964e-07 -2.25431e-08 0)
(1.64668e-07 -2.23288e-08 0)
(1.74254e-07 -2.20081e-08 0)
(1.83681e-07 -2.15839e-08 0)
(1.92903e-07 -2.10618e-08 0)
(2.01884e-07 -2.04503e-08 0)
(2.10657e-07 -1.97576e-08 0)
(2.19188e-07 -1.89904e-08 0)
(2.27313e-07 -1.81494e-08 0)
(2.3499e-07 -1.72273e-08 0)
(2.42261e-07 -1.62336e-08 0)
(2.49098e-07 -1.51734e-08 0)
(2.55468e-07 -1.40514e-08 0)
(2.6135e-07 -1.28747e-08 0)
(2.66794e-07 -1.16506e-08 0)
(2.71772e-07 -1.03836e-08 0)
(2.76136e-07 -9.08632e-09 0)
(2.79877e-07 -7.74986e-09 0)
(2.83046e-07 -6.38386e-09 0)
(1.04343e-11 6.88955e-10 0)
(2.04248e-10 8.92358e-10 0)
(7.53112e-10 2.58926e-10 0)
(1.73374e-09 -1.00403e-09 0)
(3.26506e-09 -2.71828e-09 0)
(5.43052e-09 -4.73923e-09 0)
(8.29574e-09 -6.95554e-09 0)
(1.19878e-08 -9.28182e-09 0)
(1.64484e-08 -1.16472e-08 0)
(2.15432e-08 -1.39995e-08 0)
(2.73115e-08 -1.62722e-08 0)
(3.37716e-08 -1.84658e-08 0)
(4.0911e-08 -2.05585e-08 0)
(4.87355e-08 -2.2526e-08 0)
(5.72826e-08 -2.43476e-08 0)
(6.67763e-08 -2.60062e-08 0)
(7.6381e-08 -2.74461e-08 0)
(8.59034e-08 -2.87105e-08 0)
(9.6124e-08 -2.98571e-08 0)
(1.06951e-07 -3.09091e-08 0)
(1.181e-07 -3.17047e-08 0)
(1.29362e-07 -3.23579e-08 0)
(1.40766e-07 -3.28472e-08 0)
(1.52291e-07 -3.31611e-08 0)
(1.63964e-07 -3.33069e-08 0)
(1.75712e-07 -3.32807e-08 0)
(1.87354e-07 -3.31269e-08 0)
(1.98849e-07 -3.28033e-08 0)
(2.102e-07 -3.23327e-08 0)
(2.21363e-07 -3.17172e-08 0)
(2.3228e-07 -3.09605e-08 0)
(2.42908e-07 -3.00715e-08 0)
(2.53275e-07 -2.90595e-08 0)
(2.63341e-07 -2.7928e-08 0)
(2.72944e-07 -2.66941e-08 0)
(2.82035e-07 -2.53339e-08 0)
(2.90638e-07 -2.38756e-08 0)
(2.98728e-07 -2.23247e-08 0)
(3.06267e-07 -2.06862e-08 0)
(3.13227e-07 -1.89687e-08 0)
(3.19658e-07 -1.71812e-08 0)
(3.25521e-07 -1.53275e-08 0)
(3.30675e-07 -1.34283e-08 0)
(3.35107e-07 -1.14606e-08 0)
(3.38857e-07 -9.45506e-09 0)
(4.95816e-11 5.94029e-10 0)
(4.30552e-10 5.20082e-10 0)
(1.32857e-09 -5.49548e-10 0)
(2.77032e-09 -2.3714e-09 0)
(4.87583e-09 -4.73041e-09 0)
(7.71694e-09 -7.45661e-09 0)
(1.13471e-08 -1.04235e-08 0)
(1.58878e-08 -1.3544e-08 0)
(2.12874e-08 -1.67483e-08 0)
(2.7429e-08 -1.98806e-08 0)
(3.4321e-08 -2.28887e-08 0)
(4.19601e-08 -2.57447e-08 0)
(5.03538e-08 -2.84002e-08 0)
(5.94943e-08 -3.08476e-08 0)
(6.9398e-08 -3.31569e-08 0)
(8.02712e-08 -3.54637e-08 0)
(9.14193e-08 -3.81637e-08 0)
(1.0258e-07 -3.99511e-08 0)
(1.14359e-07 -4.13048e-08 0)
(1.26821e-07 -4.2424e-08 0)
(1.3964e-07 -4.34573e-08 0)
(1.52539e-07 -4.43286e-08 0)
(1.65635e-07 -4.4986e-08 0)
(1.78876e-07 -4.54121e-08 0)
(1.92271e-07 -4.56227e-08 0)
(2.05725e-07 -4.56384e-08 0)
(2.19076e-07 -4.53895e-08 0)
(2.32269e-07 -4.49166e-08 0)
(2.45279e-07 -4.42637e-08 0)
(2.58074e-07 -4.34281e-08 0)
(2.70587e-07 -4.24071e-08 0)
(2.82767e-07 -4.12042e-08 0)
(2.94638e-07 -3.98335e-08 0)
(3.06148e-07 -3.8298e-08 0)
(3.17146e-07 -3.65717e-08 0)
(3.27569e-07 -3.46909e-08 0)
(3.37417e-07 -3.26897e-08 0)
(3.46681e-07 -3.05684e-08 0)
(3.55314e-07 -2.83318e-08 0)
(3.63285e-07 -2.59908e-08 0)
(3.70641e-07 -2.35631e-08 0)
(3.77335e-07 -2.10549e-08 0)
(3.83238e-07 -1.84273e-08 0)
(3.88325e-07 -1.57173e-08 0)
(3.92614e-07 -1.29654e-08 0)
(1.24307e-10 4.93159e-10 0)
(7.03542e-10 -1.7717e-11 0)
(1.93128e-09 -1.69271e-09 0)
(3.85608e-09 -4.20805e-09 0)
(6.57087e-09 -7.32754e-09 0)
(1.0119e-08 -1.08639e-08 0)
(1.45269e-08 -1.46706e-08 0)
(1.99017e-08 -1.86422e-08 0)
(2.62839e-08 -2.27088e-08 0)
(3.35456e-08 -2.66808e-08 0)
(4.16168e-08 -3.05596e-08 0)
(5.05256e-08 -3.42481e-08 0)
(6.02495e-08 -3.76756e-08 0)
(7.06817e-08 -4.08202e-08 0)
(8.17194e-08 -4.37541e-08 0)
(9.32603e-08 -4.6636e-08 0)
(1.05907e-07 -4.99304e-08 0)
(1.19376e-07 -5.22506e-08 0)
(1.32937e-07 -5.40366e-08 0)
(1.4682e-07 -5.5492e-08 0)
(1.61009e-07 -5.68734e-08 0)
(1.75484e-07 -5.79972e-08 0)
(1.90206e-07 -5.88262e-08 0)
(2.05075e-07 -5.93553e-08 0)
(2.20068e-07 -5.95968e-08 0)
(2.35186e-07 -5.95751e-08 0)
(2.50217e-07 -5.92165e-08 0)
(2.64991e-07 -5.86047e-08 0)
(2.79545e-07 -5.77445e-08 0)
(2.93869e-07 -5.66434e-08 0)
(3.07888e-07 -5.53054e-08 0)
(3.21533e-07 -5.37316e-08 0)
(3.34819e-07 -5.19318e-08 0)
(3.47737e-07 -4.99175e-08 0)
(3.60082e-07 -4.76581e-08 0)
(3.71733e-07 -4.52275e-08 0)
(3.82742e-07 -4.26235e-08 0)
(3.93104e-07 -3.9855e-08 0)
(4.02763e-07 -3.6935e-08 0)
(4.11674e-07 -3.38765e-08 0)
(4.19881e-07 -3.06978e-08 0)
(4.27398e-07 -2.74179e-08 0)
(4.34045e-07 -2.39812e-08 0)
(4.39726e-07 -2.04721e-08 0)
(4.4451e-07 -1.68928e-08 0)
(1.51605e-10 2.84512e-10 0)
(8.90884e-10 -8.97865e-10 0)
(2.48487e-09 -3.33457e-09 0)
(4.9348e-09 -6.67147e-09 0)
(8.28537e-09 -1.06673e-08 0)
(1.25706e-08 -1.51206e-08 0)
(1.78063e-08 -1.98601e-08 0)
(2.40744e-08 -2.47421e-08 0)
(3.14381e-08 -2.96607e-08 0)
(3.97344e-08 -3.45618e-08 0)
(4.88992e-08 -3.93948e-08 0)
(5.90169e-08 -4.4051e-08 0)
(7.00316e-08 -4.84573e-08 0)
(8.18004e-08 -5.25447e-08 0)
(9.4164e-08 -5.62829e-08 0)
(1.06938e-07 -5.97016e-08 0)
(1.20973e-07 -6.28817e-08 0)
(1.36027e-07 -6.57044e-08 0)
(1.51112e-07 -6.81442e-08 0)
(1.6647e-07 -7.02213e-08 0)
(1.82155e-07 -7.19561e-08 0)
(1.98178e-07 -7.33228e-08 0)
(2.14467e-07 -7.43226e-08 0)
(2.30913e-07 -7.49536e-08 0)
(2.47484e-07 -7.52155e-08 0)
(2.64164e-07 -7.51146e-08 0)
(2.80718e-07 -7.46896e-08 0)
(2.97003e-07 -7.39389e-08 0)
(3.13061e-07 -7.28423e-08 0)
(3.28849e-07 -7.14271e-08 0)
(3.44298e-07 -6.97141e-08 0)
(3.59341e-07 -6.77111e-08 0)
(3.73981e-07 -6.54186e-08 0)
(3.88199e-07 -6.28519e-08 0)
(4.01771e-07 -6.0052e-08 0)
(4.14596e-07 -5.70237e-08 0)
(4.26733e-07 -5.37521e-08 0)
(4.38147e-07 -5.02621e-08 0)
(4.48784e-07 -4.65768e-08 0)
(4.58598e-07 -4.27128e-08 0)
(4.67625e-07 -3.86809e-08 0)
(4.75886e-07 -3.45057e-08 0)
(4.83182e-07 -3.02194e-08 0)
(4.89425e-07 -2.58378e-08 0)
(4.94701e-07 -2.13463e-08 0)
(1.57623e-10 -1.42075e-10 0)
(1.05283e-09 -2.17978e-09 0)
(3.03107e-09 -5.50146e-09 0)
(6.0079e-09 -9.77528e-09 0)
(9.99807e-09 -1.47512e-08 0)
(1.50298e-08 -2.02157e-08 0)
(2.11159e-08 -2.59821e-08 0)
(2.83348e-08 -3.18837e-08 0)
(3.66682e-08 -3.77666e-08 0)
(4.59584e-08 -4.36547e-08 0)
(5.6211e-08 -4.94294e-08 0)
(6.74935e-08 -5.50152e-08 0)
(7.97563e-08 -6.03451e-08 0)
(9.28597e-08 -6.53349e-08 0)
(1.06609e-07 -6.99012e-08 0)
(1.20793e-07 -7.40049e-08 0)
(1.36166e-07 -7.75923e-08 0)
(1.5255e-07 -8.09758e-08 0)
(1.69073e-07 -8.3978e-08 0)
(1.85914e-07 -8.65214e-08 0)
(2.03099e-07 -8.85833e-08 0)
(2.20622e-07 -9.01884e-08 0)
(2.38414e-07 -9.13612e-08 0)
(2.56368e-07 -9.20947e-08 0)
(2.74445e-07 -9.23964e-08 0)
(2.926e-07 -9.22695e-08 0)
(3.10618e-07 -9.1753e-08 0)
(3.28379e-07 -9.08197e-08 0)
(3.45885e-07 -8.94613e-08 0)
(3.63073e-07 -8.77055e-08 0)
(3.79881e-07 -8.55818e-08 0)
(3.96251e-07 -8.31104e-08 0)
(4.12181e-07 -8.02977e-08 0)
(4.27616e-07 -7.71543e-08 0)
(4.42349e-07 -7.37312e-08 0)
(4.5631e-07 -7.00122e-08 0)
(4.69524e-07 -6.60017e-08 0)
(4.8194e-07 -6.17239e-08 0)
(4.93505e-07 -5.72047e-08 0)
(5.04179e-07 -5.24671e-08 0)
(5.13993e-07 -4.75269e-08 0)
(5.22934e-07 -4.24015e-08 0)
(5.30827e-07 -3.71628e-08 0)
(5.37619e-07 -3.17905e-08 0)
(5.43364e-07 -2.62896e-08 0)
(1.78652e-10 -6.81718e-10 0)
(1.2379e-09 -3.74837e-09 0)
(3.58549e-09 -8.11281e-09 0)
(7.07681e-09 -1.34542e-08 0)
(1.16989e-08 -1.9519e-08 0)
(1.7472e-08 -2.60878e-08 0)
(2.44061e-08 -3.29659e-08 0)
(3.25855e-08 -3.99774e-08 0)
(4.1913e-08 -4.69502e-08 0)
(5.22155e-08 -5.38723e-08 0)
(6.35495e-08 -6.06329e-08 0)
(7.59654e-08 -6.71656e-08 0)
(8.94301e-08 -7.34155e-08 0)
(1.03828e-07 -7.93032e-08 0)
(1.18962e-07 -8.47247e-08 0)
(1.34623e-07 -8.95905e-08 0)
(1.51315e-07 -9.37882e-08 0)
(1.6892e-07 -9.77628e-08 0)
(1.86839e-07 -1.01299e-07 0)
(2.05157e-07 -1.04286e-07 0)
(2.23824e-07 -1.06694e-07 0)
(2.42798e-07 -1.08562e-07 0)
(2.62035e-07 -1.09933e-07 0)
(2.81438e-07 -1.10758e-07 0)
(3.00956e-07 -1.11076e-07 0)
(3.20536e-07 -1.10869e-07 0)
(3.39967e-07 -1.10216e-07 0)
(3.59145e-07 -1.09091e-07 0)
(3.78049e-07 -1.07466e-07 0)
(3.96592e-07 -1.05356e-07 0)
(4.14705e-07 -1.02792e-07 0)
(4.32334e-07 -9.98075e-08 0)
(4.49488e-07 -9.64233e-08 0)
(4.66092e-07 -9.26464e-08 0)
(4.81945e-07 -8.85224e-08 0)
(4.96984e-07 -8.40561e-08 0)
(5.11223e-07 -7.92519e-08 0)
(5.24597e-07 -7.41296e-08 0)
(5.37049e-07 -6.87136e-08 0)
(5.48538e-07 -6.30321e-08 0)
(5.591e-07 -5.71099e-08 0)
(5.68695e-07 -5.09594e-08 0)
(5.77158e-07 -4.46626e-08 0)
(5.84464e-07 -3.82155e-08 0)
(5.9065e-07 -3.16244e-08 0)
(2.07334e-10 -1.30538e-09 0)
(1.43327e-09 -5.58925e-09 0)
(4.14044e-09 -1.11643e-08 0)
(8.13702e-09 -1.77098e-08 0)
(1.33825e-08 -2.49777e-08 0)
(1.98879e-08 -3.27453e-08 0)
(2.76597e-08 -4.08146e-08 0)
(3.67861e-08 -4.9008e-08 0)
(4.71135e-08 -5.71584e-08 0)
(5.84476e-08 -6.51985e-08 0)
(7.08695e-08 -7.30227e-08 0)
(8.44088e-08 -8.05517e-08 0)
(9.90434e-08 -8.77447e-08 0)
(1.14694e-07 -9.45365e-08 0)
(1.31186e-07 -1.00821e-07 0)
(1.48324e-07 -1.06485e-07 0)
(1.66329e-07 -1.11398e-07 0)
(1.85132e-07 -1.15959e-07 0)
(2.04415e-07 -1.19998e-07 0)
(2.24175e-07 -1.23433e-07 0)
(2.44284e-07 -1.26225e-07 0)
(2.6466e-07 -1.284e-07 0)
(2.85319e-07 -1.3001e-07 0)
(3.06156e-07 -1.30921e-07 0)
(3.27094e-07 -1.31209e-07 0)
(3.48043e-07 -1.30825e-07 0)
(3.68789e-07 -1.30014e-07 0)
(3.89316e-07 -1.28687e-07 0)
(4.09575e-07 -1.26782e-07 0)
(4.29441e-07 -1.24304e-07 0)
(4.48825e-07 -1.2128e-07 0)
(4.67673e-07 -1.17746e-07 0)
(4.86004e-07 -1.13735e-07 0)
(5.0373e-07 -1.09251e-07 0)
(5.20643e-07 -1.04374e-07 0)
(5.36706e-07 -9.91107e-08 0)
(5.51924e-07 -9.34542e-08 0)
(5.66221e-07 -8.74283e-08 0)
(5.7953e-07 -8.10555e-08 0)
(5.91806e-07 -7.43634e-08 0)
(6.03091e-07 -6.73811e-08 0)
(6.13312e-07 -6.01199e-08 0)
(6.22306e-07 -5.269e-08 0)
(6.30092e-07 -4.50941e-08 0)
(6.36695e-07 -3.73312e-08 0)
(2.36568e-10 -2.0288e-09 0)
(1.6241e-09 -7.71004e-09 0)
(4.68508e-09 -1.46547e-08 0)
(9.18261e-09 -2.25352e-08 0)
(1.50435e-08 -3.11212e-08 0)
(2.22731e-08 -4.01859e-08 0)
(3.08693e-08 -4.95299e-08 0)
(4.09153e-08 -5.89803e-08 0)
(5.22299e-08 -6.83863e-08 0)
(6.46028e-08 -7.76212e-08 0)
(7.81231e-08 -8.65815e-08 0)
(9.27942e-08 -9.51443e-08 0)
(1.08584e-07 -1.03292e-07 0)
(1.25455e-07 -1.10981e-07 0)
(1.43267e-07 -1.18131e-07 0)
(1.61844e-07 -1.24621e-07 0)
(1.81183e-07 -1.30285e-07 0)
(2.0121e-07 -1.35366e-07 0)
(2.21808e-07 -1.39859e-07 0)
(2.42936e-07 -1.43771e-07 0)
(2.64431e-07 -1.47032e-07 0)
(2.8616e-07 -1.49553e-07 0)
(3.0824e-07 -1.51285e-07 0)
(3.30543e-07 -1.52302e-07 0)
(3.52931e-07 -1.52602e-07 0)
(3.75179e-07 -1.52146e-07 0)
(3.97111e-07 -1.51169e-07 0)
(4.18925e-07 -1.49592e-07 0)
(4.405e-07 -1.47341e-07 0)
(4.61655e-07 -1.44457e-07 0)
(4.82285e-07 -1.40952e-07 0)
(5.02327e-07 -1.3685e-07 0)
(5.21812e-07 -1.32181e-07 0)
(5.40616e-07 -1.26956e-07 0)
(5.58529e-07 -1.21278e-07 0)
(5.75571e-07 -1.15155e-07 0)
(5.9173e-07 -1.08562e-07 0)
(6.06912e-07 -1.01556e-07 0)
(6.21049e-07 -9.41608e-08 0)
(6.3409e-07 -8.63998e-08 0)
(6.46083e-07 -7.83012e-08 0)
(6.56904e-07 -6.98814e-08 0)
(6.66394e-07 -6.12519e-08 0)
(6.74634e-07 -5.24302e-08 0)
(6.81633e-07 -4.33992e-08 0)
(2.63e-10 -2.84805e-09 0)
(1.80459e-09 -1.00779e-08 0)
(5.21906e-09 -1.84983e-08 0)
(1.02146e-08 -2.78341e-08 0)
(1.66789e-08 -3.78493e-08 0)
(2.46219e-08 -4.83072e-08 0)
(3.40249e-08 -5.90148e-08 0)
(4.49549e-08 -6.98186e-08 0)
(5.7237e-08 -8.0595e-08 0)
(7.06526e-08 -9.10912e-08 0)
(8.52991e-08 -1.01205e-07 0)
(1.01138e-07 -1.10781e-07 0)
(1.18083e-07 -1.19817e-07 0)
(1.36132e-07 -1.28319e-07 0)
(1.55195e-07 -1.36307e-07 0)
(1.75172e-07 -1.43735e-07 0)
(1.9593e-07 -1.50506e-07 0)
(2.17239e-07 -1.56211e-07 0)
(2.39025e-07 -1.61153e-07 0)
(2.6135e-07 -1.65453e-07 0)
(2.84183e-07 -1.69074e-07 0)
(3.07422e-07 -1.71885e-07 0)
(3.30918e-07 -1.73781e-07 0)
(3.54517e-07 -1.74929e-07 0)
(3.78256e-07 -1.75282e-07 0)
(4.01801e-07 -1.74877e-07 0)
(4.24978e-07 -1.73694e-07 0)
(4.48073e-07 -1.71724e-07 0)
(4.70918e-07 -1.68985e-07 0)
(4.9329e-07 -1.65617e-07 0)
(5.1512e-07 -1.61612e-07 0)
(5.36329e-07 -1.56947e-07 0)
(5.56944e-07 -1.51636e-07 0)
(5.76799e-07 -1.45712e-07 0)
(5.95686e-07 -1.39192e-07 0)
(6.13692e-07 -1.32096e-07 0)
(6.30768e-07 -1.24441e-07 0)
(6.46785e-07 -1.16345e-07 0)
(6.61706e-07 -1.07852e-07 0)
(6.75478e-07 -9.89794e-08 0)
(6.88147e-07 -8.97515e-08 0)
(6.99554e-07 -8.02019e-08 0)
(7.09531e-07 -7.0316e-08 0)
(7.18225e-07 -6.01571e-08 0)
(7.2561e-07 -4.97416e-08 0)
(2.94295e-10 -3.68678e-09 0)
(2.01985e-09 -1.25784e-08 0)
(5.78467e-09 -2.26264e-08 0)
(1.12402e-08 -3.35869e-08 0)
(1.82944e-08 -4.51738e-08 0)
(2.69351e-08 -5.71494e-08 0)
(3.71034e-08 -6.93212e-08 0)
(4.88384e-08 -8.15393e-08 0)
(6.20822e-08 -9.37089e-08 0)
(7.66245e-08 -1.05513e-07 0)
(9.2478e-08 -1.1683e-07 0)
(1.09562e-07 -1.27597e-07 0)
(1.27697e-07 -1.37707e-07 0)
(1.4684e-07 -1.47144e-07 0)
(1.66913e-07 -1.55966e-07 0)
(1.87864e-07 -1.64237e-07 0)
(2.10061e-07 -1.72115e-07 0)
(2.33038e-07 -1.78615e-07 0)
(2.56153e-07 -1.84089e-07 0)
(2.79705e-07 -1.88701e-07 0)
(3.03787e-07 -1.92518e-07 0)
(3.28335e-07 -1.9552e-07 0)
(3.53168e-07 -1.97663e-07 0)
(3.781e-07 -1.98924e-07 0)
(4.03122e-07 -1.99306e-07 0)
(4.2798e-07 -1.98983e-07 0)
(4.52542e-07 -1.97534e-07 0)
(4.76964e-07 -1.95095e-07 0)
(5.00974e-07 -1.91894e-07 0)
(5.24415e-07 -1.87998e-07 0)
(5.47339e-07 -1.8341e-07 0)
(5.6966e-07 -1.78102e-07 0)
(5.91349e-07 -1.72079e-07 0)
(6.12273e-07 -1.65435e-07 0)
(6.32234e-07 -1.58023e-07 0)
(6.51249e-07 -1.49895e-07 0)
(6.69202e-07 -1.41187e-07 0)
(6.85971e-07 -1.31966e-07 0)
(7.01583e-07 -1.22295e-07 0)
(7.16005e-07 -1.12213e-07 0)
(7.29267e-07 -1.01753e-07 0)
(7.4128e-07 -9.10076e-08 0)
(7.51853e-07 -7.97822e-08 0)
(7.61034e-07 -6.81855e-08 0)
(7.68781e-07 -5.63652e-08 0)
(3.2843e-10 -4.58816e-09 0)
(2.21073e-09 -1.53122e-08 0)
(6.27629e-09 -2.71968e-08 0)
(1.21799e-08 -3.99321e-08 0)
(1.98311e-08 -5.32247e-08 0)
(2.91738e-08 -6.68436e-08 0)
(4.01272e-08 -8.05825e-08 0)
(5.26853e-08 -9.42611e-08 0)
(6.68638e-08 -1.07744e-07 0)
(8.24897e-08 -1.20898e-07 0)
(9.94276e-08 -1.33573e-07 0)
(1.17642e-07 -1.45705e-07 0)
(1.37012e-07 -1.571e-07 0)
(1.57387e-07 -1.67659e-07 0)
(1.78605e-07 -1.77379e-07 0)
(2.00478e-07 -1.86367e-07 0)
(2.23932e-07 -1.94946e-07 0)
(2.48547e-07 -2.02252e-07 0)
(2.73104e-07 -2.08377e-07 0)
(2.97957e-07 -2.13398e-07 0)
(3.23263e-07 -2.17432e-07 0)
(3.4903e-07 -2.20556e-07 0)
(3.75115e-07 -2.22793e-07 0)
(4.01319e-07 -2.24126e-07 0)
(4.27478e-07 -2.24539e-07 0)
(4.53684e-07 -2.24195e-07 0)
(4.79799e-07 -2.22556e-07 0)
(5.05459e-07 -2.19842e-07 0)
(5.3056e-07 -2.16253e-07 0)
(5.55108e-07 -2.11791e-07 0)
(5.79122e-07 -2.06521e-07 0)
(6.02518e-07 -2.00463e-07 0)
(6.25199e-07 -1.93622e-07 0)
(6.47151e-07 -1.86062e-07 0)
(6.68203e-07 -1.77728e-07 0)
(6.88155e-07 -1.68655e-07 0)
(7.0694e-07 -1.5894e-07 0)
(7.24502e-07 -1.48581e-07 0)
(7.40828e-07 -1.37659e-07 0)
(7.55892e-07 -1.26255e-07 0)
(7.69685e-07 -1.14423e-07 0)
(7.82273e-07 -1.02252e-07 0)
(7.9347e-07 -8.96219e-08 0)
(8.03078e-07 -7.66282e-08 0)
(8.11127e-07 -6.33977e-08 0)
(3.44909e-10 -5.65751e-09 0)
(2.34732e-09 -1.84206e-08 0)
(6.71293e-09 -3.2267e-08 0)
(1.30756e-08 -4.68682e-08 0)
(2.13074e-08 -6.19627e-08 0)
(3.13407e-08 -7.73216e-08 0)
(4.30924e-08 -9.27258e-08 0)
(5.65543e-08 -1.07966e-07 0)
(7.1644e-08 -1.22822e-07 0)
(8.8185e-08 -1.37373e-07 0)
(1.0614e-07 -1.51455e-07 0)
(1.25489e-07 -1.64912e-07 0)
(1.46101e-07 -1.77578e-07 0)
(1.67759e-07 -1.89309e-07 0)
(1.90188e-07 -2.00034e-07 0)
(2.13019e-07 -2.09818e-07 0)
(2.37602e-07 -2.18932e-07 0)
(2.63711e-07 -2.27001e-07 0)
(2.89764e-07 -2.33861e-07 0)
(3.16043e-07 -2.39429e-07 0)
(3.42646e-07 -2.43771e-07 0)
(3.69605e-07 -2.4702e-07 0)
(3.96834e-07 -2.49288e-07 0)
(4.24189e-07 -2.50637e-07 0)
(4.51481e-07 -2.51046e-07 0)
(4.78978e-07 -2.50486e-07 0)
(5.06491e-07 -2.48719e-07 0)
(5.33439e-07 -2.4586e-07 0)
(5.59764e-07 -2.41881e-07 0)
(5.85445e-07 -2.36838e-07 0)
(6.10514e-07 -2.30856e-07 0)
(6.3494e-07 -2.24007e-07 0)
(6.58651e-07 -2.16294e-07 0)
(6.81574e-07 -2.07651e-07 0)
(7.03534e-07 -1.9834e-07 0)
(7.24395e-07 -1.88322e-07 0)
(7.44078e-07 -1.77546e-07 0)
(7.62471e-07 -1.66014e-07 0)
(7.7952e-07 -1.53803e-07 0)
(7.95214e-07 -1.41023e-07 0)
(8.09574e-07 -1.27755e-07 0)
(8.22684e-07 -1.14016e-07 0)
(8.34344e-07 -9.99221e-08 0)
(8.44356e-07 -8.55137e-08 0)
(8.52766e-07 -7.07884e-08 0)
(3.64062e-10 -6.84046e-09 0)
(2.49364e-09 -2.18043e-08 0)
(7.15459e-09 -3.77257e-08 0)
(1.39526e-08 -5.43114e-08 0)
(2.27357e-08 -7.13127e-08 0)
(3.34353e-08 -8.85052e-08 0)
(4.59764e-08 -1.05666e-07 0)
(6.03766e-08 -1.22568e-07 0)
(7.63831e-08 -1.38946e-07 0)
(9.37885e-08 -1.54945e-07 0)
(1.12709e-07 -1.70403e-07 0)
(1.33125e-07 -1.85194e-07 0)
(1.54923e-07 -1.99174e-07 0)
(1.77868e-07 -2.12175e-07 0)
(2.01602e-07 -2.24026e-07 0)
(2.25605e-07 -2.3465e-07 0)
(2.51252e-07 -2.44066e-07 0)
(2.78565e-07 -2.52749e-07 0)
(3.06042e-07 -2.60328e-07 0)
(3.3381e-07 -2.66591e-07 0)
(3.61817e-07 -2.71479e-07 0)
(3.90028e-07 -2.75064e-07 0)
(4.18374e-07 -2.77467e-07 0)
(4.46792e-07 -2.78782e-07 0)
(4.75209e-07 -2.79008e-07 0)
(5.03936e-07 -2.77921e-07 0)
(5.32692e-07 -2.75899e-07 0)
(5.60903e-07 -2.72857e-07 0)
(5.88523e-07 -2.68595e-07 0)
(6.15404e-07 -2.6307e-07 0)
(6.4155e-07 -2.56417e-07 0)
(6.66998e-07 -2.48742e-07 0)
(6.91786e-07 -2.40071e-07 0)
(7.1564e-07 -2.30239e-07 0)
(7.38362e-07 -2.19831e-07 0)
(7.60062e-07 -2.08742e-07 0)
(7.80632e-07 -1.96875e-07 0)
(7.99886e-07 -1.84185e-07 0)
(8.177e-07 -1.70694e-07 0)
(8.34043e-07 -1.56504e-07 0)
(8.48999e-07 -1.41727e-07 0)
(8.62597e-07 -1.26358e-07 0)
(8.74627e-07 -1.10683e-07 0)
(8.85006e-07 -9.47109e-08 0)
(8.93775e-07 -7.84158e-08 0)
(3.87578e-10 -8.08933e-09 0)
(2.64931e-09 -2.54052e-08 0)
(7.59841e-09 -4.35528e-08 0)
(1.48151e-08 -6.2258e-08 0)
(2.41291e-08 -8.12718e-08 0)
(3.54723e-08 -1.00382e-07 0)
(4.87854e-08 -1.19371e-07 0)
(6.41248e-08 -1.38017e-07 0)
(8.10576e-08 -1.56055e-07 0)
(9.93196e-08 -1.7357e-07 0)
(1.19162e-07 -1.90437e-07 0)
(1.40563e-07 -2.06569e-07 0)
(1.6345e-07 -2.21846e-07 0)
(1.87644e-07 -2.36128e-07 0)
(2.12792e-07 -2.49171e-07 0)
(2.38347e-07 -2.60693e-07 0)
(2.65114e-07 -2.70114e-07 0)
(2.93266e-07 -2.79098e-07 0)
(3.21918e-07 -2.87294e-07 0)
(3.51042e-07 -2.94497e-07 0)
(3.80459e-07 -3.00444e-07 0)
(4.10026e-07 -3.04963e-07 0)
(4.39641e-07 -3.07965e-07 0)
(4.69281e-07 -3.09365e-07 0)
(4.9908e-07 -3.09049e-07 0)
(5.28926e-07 -3.06522e-07 0)
(5.58496e-07 -3.04007e-07 0)
(5.87787e-07 -3.00698e-07 0)
(6.16697e-07 -2.96194e-07 0)
(6.44873e-07 -2.90267e-07 0)
(6.72197e-07 -2.8301e-07 0)
(6.98748e-07 -2.74526e-07 0)
(7.24722e-07 -2.6486e-07 0)
(7.49487e-07 -2.53833e-07 0)
(7.7281e-07 -2.42226e-07 0)
(7.95232e-07 -2.29948e-07 0)
(8.16616e-07 -2.16885e-07 0)
(8.36729e-07 -2.02984e-07 0)
(8.55369e-07 -1.8821e-07 0)
(8.72434e-07 -1.72608e-07 0)
(8.88051e-07 -1.5629e-07 0)
(9.0213e-07 -1.3929e-07 0)
(9.14454e-07 -1.21907e-07 0)
(9.25139e-07 -1.04238e-07 0)
(9.34226e-07 -8.62695e-08 0)
(4.11985e-10 -9.41426e-09 0)
(2.80267e-09 -2.92279e-08 0)
(8.03084e-09 -4.97471e-08 0)
(1.5663e-08 -7.06994e-08 0)
(2.55057e-08 -9.18213e-08 0)
(3.74784e-08 -1.12924e-07 0)
(5.15362e-08 -1.33807e-07 0)
(6.77652e-08 -1.54279e-07 0)
(8.56226e-08 -1.74134e-07 0)
(1.04778e-07 -1.93257e-07 0)
(1.25536e-07 -2.11582e-07 0)
(1.4789e-07 -2.29018e-07 0)
(1.71793e-07 -2.4544e-07 0)
(1.97146e-07 -2.6082e-07 0)
(2.23744e-07 -2.74979e-07 0)
(2.51417e-07 -2.87615e-07 0)
(2.79603e-07 -2.98138e-07 0)
(3.08102e-07 -3.07662e-07 0)
(3.3729e-07 -3.16183e-07 0)
(3.67213e-07 -3.23716e-07 0)
(3.97792e-07 -3.30057e-07 0)
(4.28822e-07 -3.34985e-07 0)
(4.60151e-07 -3.38347e-07 0)
(4.91747e-07 -3.39956e-07 0)
(5.23948e-07 -3.39593e-07 0)
(5.54732e-07 -3.36623e-07 0)
(5.84131e-07 -3.33574e-07 0)
(6.14196e-07 -3.29714e-07 0)
(6.44305e-07 -3.24711e-07 0)
(6.73816e-07 -3.18184e-07 0)
(7.02404e-07 -3.1026e-07 0)
(7.30153e-07 -3.00993e-07 0)
(7.57384e-07 -2.90435e-07 0)
(7.83087e-07 -2.78513e-07 0)
(8.06975e-07 -2.65713e-07 0)
(8.30055e-07 -2.52154e-07 0)
(8.52177e-07 -2.37626e-07 0)
(8.73078e-07 -2.22283e-07 0)
(8.92538e-07 -2.0611e-07 0)
(9.10373e-07 -1.8909e-07 0)
(9.2668e-07 -1.71287e-07 0)
(9.41301e-07 -1.52884e-07 0)
(9.53961e-07 -1.33705e-07 0)
(9.64891e-07 -1.14201e-07 0)
(9.74228e-07 -9.44223e-08 0)
(4.3643e-10 -1.08161e-08 0)
(2.94786e-09 -3.32557e-08 0)
(8.44752e-09 -5.62628e-08 0)
(1.6509e-08 -7.9525e-08 0)
(2.68927e-08 -1.02822e-07 0)
(3.94826e-08 -1.25974e-07 0)
(5.42413e-08 -1.48819e-07 0)
(7.12502e-08 -1.71234e-07 0)
(9.00135e-08 -1.93125e-07 0)
(1.10146e-07 -2.13976e-07 0)
(1.31892e-07 -2.33797e-07 0)
(1.55303e-07 -2.52353e-07 0)
(1.80256e-07 -2.69533e-07 0)
(2.06641e-07 -2.8558e-07 0)
(2.34391e-07 -3.00641e-07 0)
(2.6338e-07 -3.14742e-07 0)
(2.93008e-07 -3.28062e-07 0)
(3.22869e-07 -3.38664e-07 0)
(3.53188e-07 -3.47447e-07 0)
(3.84143e-07 -3.54768e-07 0)
(4.15797e-07 -3.60714e-07 0)
(4.47964e-07 -3.65249e-07 0)
(4.80508e-07 -3.68367e-07 0)
(5.1348e-07 -3.70039e-07 0)
(5.47467e-07 -3.70167e-07 0)
(5.79611e-07 -3.68501e-07 0)
(6.09689e-07 -3.65129e-07 0)
(6.40562e-07 -3.60391e-07 0)
(6.71777e-07 -3.54302e-07 0)
(7.02522e-07 -3.46501e-07 0)
(7.3225e-07 -3.37539e-07 0)
(7.61114e-07 -3.27476e-07 0)
(7.89437e-07 -3.16338e-07 0)
(8.16154e-07 -3.04231e-07 0)
(8.4084e-07 -2.90433e-07 0)
(8.64734e-07 -2.75642e-07 0)
(8.87663e-07 -2.59096e-07 0)
(9.09198e-07 -2.4173e-07 0)
(9.29312e-07 -2.23867e-07 0)
(9.47818e-07 -2.05435e-07 0)
(9.64647e-07 -1.86278e-07 0)
(9.79948e-07 -1.66504e-07 0)
(9.93235e-07 -1.45902e-07 0)
(1.0044e-06 -1.24612e-07 0)
(1.01392e-06 -1.02936e-07 0)
(4.62674e-10 -1.22256e-08 0)
(3.09878e-09 -3.73976e-08 0)
(8.91465e-09 -6.29885e-08 0)
(1.74378e-08 -8.8715e-08 0)
(2.83498e-08 -1.14384e-07 0)
(4.15251e-08 -1.39759e-07 0)
(5.68796e-08 -1.64688e-07 0)
(7.44487e-08 -1.89083e-07 0)
(9.40977e-08 -2.12995e-07 0)
(1.15409e-07 -2.35724e-07 0)
(1.38424e-07 -2.5714e-07 0)
(1.6327e-07 -2.77082e-07 0)
(1.89436e-07 -2.95542e-07 0)
(2.16578e-07 -3.12594e-07 0)
(2.44721e-07 -3.28502e-07 0)
(2.73674e-07 -3.43582e-07 0)
(3.04846e-07 -3.58587e-07 0)
(3.37329e-07 -3.70285e-07 0)
(3.69212e-07 -3.79718e-07 0)
(4.01361e-07 -3.87285e-07 0)
(4.34098e-07 -3.9321e-07 0)
(4.67316e-07 -3.97537e-07 0)
(5.00861e-07 -4.00362e-07 0)
(5.348e-07 -4.01841e-07 0)
(5.69695e-07 -4.02193e-07 0)
(6.03341e-07 -4.02389e-07 0)
(6.35186e-07 -3.99075e-07 0)
(6.67355e-07 -3.93216e-07 0)
(6.9993e-07 -3.85543e-07 0)
(7.31735e-07 -3.76677e-07 0)
(7.62026e-07 -3.66717e-07 0)
(7.91415e-07 -3.55684e-07 0)
(8.20177e-07 -3.43637e-07 0)
(8.48052e-07 -3.31041e-07 0)
(8.74162e-07 -3.16535e-07 0)
(8.99554e-07 -3.00016e-07 0)
(9.23842e-07 -2.81821e-07 0)
(9.4568e-07 -2.62619e-07 0)
(9.65853e-07 -2.42931e-07 0)
(9.84658e-07 -2.22788e-07 0)
(1.00201e-06 -2.01973e-07 0)
(1.01781e-06 -1.80428e-07 0)
(1.03175e-06 -1.5846e-07 0)
(1.04355e-06 -1.3542e-07 0)
(1.05336e-06 -1.11768e-07 0)
(4.77072e-10 -1.36759e-08 0)
(3.24699e-09 -4.16995e-08 0)
(9.34226e-09 -7.00225e-08 0)
(1.82356e-08 -9.84197e-08 0)
(2.96545e-08 -1.26646e-07 0)
(4.34618e-08 -1.54436e-07 0)
(5.94879e-08 -1.8159e-07 0)
(7.76264e-08 -2.07961e-07 0)
(9.80129e-08 -2.33505e-07 0)
(1.20459e-07 -2.58071e-07 0)
(1.44685e-07 -2.81327e-07 0)
(1.70631e-07 -3.03182e-07 0)
(1.97959e-07 -3.23559e-07 0)
(2.26297e-07 -3.42173e-07 0)
(2.55347e-07 -3.59093e-07 0)
(2.84508e-07 -3.74687e-07 0)
(3.16736e-07 -3.89858e-07 0)
(3.51346e-07 -4.02549e-07 0)
(3.84941e-07 -4.12928e-07 0)
(4.18525e-07 -4.2109e-07 0)
(4.52524e-07 -4.27303e-07 0)
(4.86886e-07 -4.31641e-07 0)
(5.21369e-07 -4.34273e-07 0)
(5.55907e-07 -4.3551e-07 0)
(5.90276e-07 -4.3569e-07 0)
(6.25196e-07 -4.35874e-07 0)
(6.60454e-07 -4.32507e-07 0)
(6.9483e-07 -4.26392e-07 0)