/*--------------------------------*- C++ -*----------------------------------*\
  =========                 |
  \\      /  F ield         | OpenFOAM: The Open Source CFD Toolbox
   \\    /   O peration     | Website:  https://openfoam.org
    \\  /    A nd           | Version:  9
     \\/     M anipulation  |
\*---------------------------------------------------------------------------*/
FoamFile
{
    format      ascii;
    class       volScalarField;
    location    "0.1";
    object      p;
}
// * * * * * * * * * * * * * * * * * * * * * * * * * * * * * * * * * * * * * //

dimensions      [0 2 -2 0 0 0 0];

internalField   nonuniform List<scalar> 
25600
(
-3.39269e-07
0.000111892
0.000147264
5.89381e-05
-0.000163385
-0.000519611
-0.00100273
-0.00160137
-0.00230202
-0.00308998
-0.00395159
-0.00487327
-0.00584216
-0.006846
-0.00787346
-0.00891444
-0.00995968
-0.0110004
-0.0120288
-0.0130378
-0.0140208
-0.0149723
-0.0158869
-0.0167598
-0.0175864
-0.0183625
-0.0190849
-0.0197501
-0.0203559
-0.0209
-0.02138
-0.0217938
-0.0221398
-0.0224164
-0.0226224
-0.0227567
-0.0228187
-0.0228076
-0.0227229
-0.0225646
-0.0223328
-0.0220273
-0.021648
-0.0211951
-0.0206686
-0.0200689
-0.019397
-0.0186539
-0.0178408
-0.0169586
-0.0160087
-0.0149921
-0.0139103
-0.0127648
-0.0115571
-0.0102888
-0.00896131
-0.00757646
-0.00613601
-0.00464186
-0.00309596
-0.00150037
0.000142837
0.00183156
0.00356362
0.0053368
0.00714882
0.00899733
0.01088
0.0127945
0.0147383
0.0167089
0.0187036
0.0207197
0.0227547
0.0248061
0.0268714
0.0289479
0.0310328
0.0331235
0.0352172
0.0373112
0.0394028
0.0414892
0.0435676
0.0456352
0.0476893
0.049727
0.0517457
0.0537427
0.0557154
0.0576609
0.0595763
0.0614588
0.0633058
0.0651148
0.0668834
0.0686089
0.0702888
0.0719205
0.0735016
0.0750298
0.0765029
0.0779186
0.079275
0.0805701
0.081802
0.0829687
0.0840683
0.085099
0.0860595
0.0869483
0.0877645
0.0885071
0.0891748
0.0897668
0.0902823
0.0907206
0.0910815
0.0913647
0.0915701
0.0916978
0.091748
0.0917215
0.0916188
0.0914409
0.0911888
0.0908638
0.0904674
0.0900016
0.0894686
0.0888707
0.0882105
0.0874906
0.0867144
0.0858856
0.0850082
0.0840868
0.083126
0.082131
0.0811073
0.0800612
0.078999
0.0779281
0.0768561
0.0757914
0.0747429
0.0737204
0.0727346
0.0717969
0.0709196
0.0701161
0.0694001
0.0687861
0.0682883
0.0679198
0.06769
0.0676007
0.0676411
0.0677558
-0.000106814
1.96455e-05
3.93082e-05
-5.86373e-05
-0.000270929
-0.000598711
-0.00103775
-0.0015795
-0.00221272
-0.0029261
-0.00370742
-0.00454516
-0.00542783
-0.00634473
-0.00728532
-0.00824036
-0.00920131
-0.0101599
-0.0111089
-0.0120413
-0.0129512
-0.013833
-0.0146815
-0.0154919
-0.0162598
-0.0169813
-0.0176525
-0.0182705
-0.0188329
-0.0193373
-0.0197814
-0.0201632
-0.0204807
-0.0207322
-0.0209164
-0.0210326
-0.02108
-0.0210581
-0.0209663
-0.0208042
-0.0205715
-0.0202679
-0.0198936
-0.0194486
-0.0189331
-0.0183477
-0.0176929
-0.0169695
-0.0161788
-0.0153216
-0.0143992
-0.0134127
-0.0123634
-0.0112528
-0.0100822
-0.00885308
-0.00756703
-0.00622561
-0.00483054
-0.00338361
-0.00188672
-0.000341862
0.0012489
0.00288356
0.0045601
0.00627642
0.00803025
0.00981934
0.0116414
0.0134942
0.0153753
0.0172822
0.0192124
0.0211633
0.0231326
0.0251176
0.027116
0.0291251
0.0311424
0.0331652
0.035191
0.037217
0.0392405
0.0412589
0.0432695
0.0452697
0.0472567
0.0492277
0.0511803
0.053112
0.05502
0.0569017
0.0587542
0.0605748
0.0623611
0.0641107
0.0658213
0.0674903
0.0691152
0.0706936
0.0722231
0.0737017
0.075127
0.076497
0.07781
0.0790639
0.080257
0.0813873
0.0824531
0.0834526
0.0843846
0.0852479
0.0860414
0.0867642
0.0874153
0.0879937
0.0884988
0.08893
0.0892872
0.08957
0.0897785
0.0899126
0.0899729
0.0899599
0.0898745
0.0897176
0.0894901
0.0891934
0.0888291
0.0883993
0.0879062
0.0873519
0.086739
0.0860703
0.0853488
0.0845784
0.0837631
0.0829071
0.0820152
0.0810922
0.0801436
0.0791753
0.0781936
0.0772054
0.076218
0.0752393
0.0742776
0.0733422
0.0724426
0.0715892
0.0707931
0.0700657
0.0694186
0.0688633
0.0684108
0.0680704
0.0678472
0.0677417
0.0677556
0.06787
-0.0001266
3.28474e-05
5.73507e-05
-4.00261e-05
-0.000243543
-0.000551976
-0.000961136
-0.00146353
-0.00204958
-0.00270903
-0.00343158
-0.0042069
-0.0050248
-0.00587517
-0.00674889
-0.00763721
-0.00853202
-0.00942598
-0.0103119
-0.0111833
-0.0120346
-0.0128603
-0.0136552
-0.0144151
-0.0151352
-0.0158118
-0.0164413
-0.0170206
-0.0175472
-0.0180189
-0.0184335
-0.0187887
-0.0190826
-0.0193134
-0.0194798
-0.0195809
-0.0196162
-0.0195851
-0.0194872
-0.0193218
-0.0190885
-0.0187867
-0.0184165
-0.0179782
-0.0174719
-0.0168982
-0.0162577
-0.0155509
-0.014779
-0.0139428
-0.0130435
-0.0120823
-0.0110604
-0.00997905
-0.00883966
-0.00764364
-0.00639243
-0.00508759
-0.0037308
-0.0023237
-0.000868141
0.000633906
0.00218047
0.00376958
0.0053993
0.00706761
0.00877235
0.0105113
0.0122823
0.0140831
0.0159113
0.0177645
0.0196402
0.0215362
0.0234499
0.025379
0.0273209
0.0292731
0.0312333
0.0331989
0.0351673
0.0371359
0.0391021
0.0410632
0.0430168
0.0449601
0.0468905
0.0488054
0.0507024
0.0525792
0.0544329
0.0562609
0.0580605
0.0598291
0.0615645
0.0632643
0.0649262
0.0665477
0.0681265
0.0696602
0.0711466
0.0725834
0.0739687
0.0753005
0.0765771
0.0777966
0.0789573
0.0800573
0.0810947
0.0820682
0.0829763
0.0838182
0.0845929
0.0852993
0.0859365
0.0865035
0.0869999
0.0874252
0.0877793
0.0880617
0.0882725
0.088412
0.0884806
0.088479
0.0884079
0.0882683
0.0880611
0.0877877
0.0874499
0.0870496
0.0865891
0.0860706
0.0854964
0.0848693
0.0841925
0.0834696
0.0827045
0.0819015
0.0810651
0.0801999
0.0793114
0.0784051
0.0774872
0.0765643
0.0756433
0.0747316
0.073837
0.072968
0.0721337
0.0713433
0.0706069
0.0699345
0.069336
0.0688215
0.0683999
0.0680791
0.0678636
0.0677554
0.0677693
0.0679097
-7.44266e-07
0.000175039
0.000203064
0.000105274
-9.41227e-05
-0.000391912
-0.000782927
-0.00125937
-0.0018129
-0.0024338
-0.00311323
-0.00384164
-0.00460984
-0.00540875
-0.0062298
-0.00706492
-0.00790678
-0.00874834
-0.00958268
-0.010404
-0.0112067
-0.0119857
-0.0127361
-0.0134532
-0.014133
-0.0147715
-0.0153655
-0.015912
-0.0164082
-0.0168519
-0.017241
-0.0175733
-0.0178468
-0.0180598
-0.018211
-0.0182994
-0.0183243
-0.0182853
-0.0181818
-0.0180133
-0.0177792
-0.0174792
-0.0171129
-0.0166805
-0.0161824
-0.015619
-0.0149909
-0.0142988
-0.0135434
-0.0127257
-0.0118469
-0.010908
-0.00991019
-0.00885472
-0.00774291
-0.00657608
-0.00535562
-0.00408308
-0.00276009
-0.00138823
3.07554e-05
0.00149492
0.00300239
0.0045513
0.00613972
0.00776559
0.00942686
0.0111215
0.0128473
0.0146022
0.0163836
0.0181893
0.0200169
0.0218641
0.0237287
0.0256082
0.0275002
0.0294023
0.0313121
0.033227
0.0351446
0.0370625
0.038978
0.0408886
0.0427919
0.044685
0.0465654
0.0484309
0.050279
0.0521073
0.0539131
0.0556938
0.0574468
0.0591697
0.0608603
0.0625163
0.0641354
0.0657153
0.0672535
0.0687479
0.0701963
0.0715967
0.0729469
0.0742451
0.0754899
0.0766793
0.0778116
0.0788849
0.0798976
0.0808482
0.0817357
0.0825589
0.0833171
0.0840091
0.084634
0.0851911
0.08568
0.0861001
0.0864513
0.0867334
0.0869462
0.0870903
0.087166
0.0871742
0.0871154
0.0869905
0.0868007
0.0865473
0.0862321
0.0858571
0.0854244
0.0849363
0.0843949
0.0838031
0.0831639
0.082481
0.0817582
0.0809995
0.0802093
0.0793921
0.0785532
0.0776979
0.0768323
0.0759624
0.0750948
0.0742365
0.0733948
0.0725777
0.0717935
0.0710509
0.0703587
0.069726
0.0691618
0.0686749
0.0682736
0.0679653
0.067755
0.0676468
0.0676635
0.0678202
0.000276847
0.000441524
0.000459454
0.000354278
0.000152095
-0.000141703
-0.000521479
-0.000980144
-0.00150903
-0.00209988
-0.00274417
-0.00343379
-0.00416026
-0.00491537
-0.00569088
-0.00647969
-0.00727506
-0.00807012
-0.00885876
-0.00963516
-0.0103941
-0.0111306
-0.0118403
-0.0125183
-0.013161
-0.0137645
-0.0143257
-0.0148415
-0.0153095
-0.0157273
-0.0160925
-0.0164032
-0.0166574
-0.0168534
-0.0169902
-0.0170667
-0.0170821
-0.0170358
-0.0169271
-0.0167556
-0.0165207
-0.0162221
-0.0158596
-0.0154331
-0.0149429
-0.0143894
-0.0137733
-0.0130951
-0.0123557
-0.0115559
-0.0106968
-0.00977928
-0.00880461
-0.00777402
-0.00668871
-0.00554994
-0.0043591
-0.00311767
-0.00182715
-0.000489155
0.000894586
0.00232227
0.0037921
0.0053023
0.00685096
0.00843603
0.0100555
0.0117074
0.0133897
0.0151003
0.0168366
0.0185966
0.0203779
0.0221784
0.0239956
0.0258274
0.0276713
0.0295251
0.0313864
0.0332526
0.0351214
0.0369904
0.0388572
0.0407193
0.0425741
0.044419
0.0462516
0.0480695
0.0498707
0.0516525
0.0534124
0.0551477
0.056856
0.0585351
0.0601828
0.0617969
0.063375
0.0649149
0.0664143
0.0678712
0.0692833
0.0706487
0.0719653
0.0732317
0.074446
0.0756067
0.0767119
0.0777597
0.0787487
0.0796775
0.0805452
0.0813507
0.0820931
0.0827713
0.0833845
0.0839321
0.0844137
0.0848289
0.0851773
0.0854588
0.0856735
0.0858218
0.0859042
0.0859213
0.085874
0.0857628
0.0855892
0.0853544
0.0850603
0.0847088
0.084302
0.0838419
0.0833309
0.0827716
0.0821672
0.0815211
0.080837
0.0801188
0.0793706
0.0785969
0.0778028
0.0769935
0.0761745
0.0753517
0.0745312
0.0737195
0.0729236
0.072151
0.0714092
0.0707063
0.0700501
0.069449
0.068911
0.0684442
0.0680564
0.0677547
0.0675444
0.0674312
0.0674406
0.0675909
0.000698907
0.000828425
0.000822063
0.000700629
0.000488329
0.000191438
-0.000184299
-0.000632071
-0.00114431
-0.0017128
-0.00232993
-0.00298844
-0.00368054
-0.00439884
-0.00513617
-0.0058854
-0.00664036
-0.00739502
-0.00814344
-0.00888013
-0.00960014
-0.0102987
-0.0109714
-0.0116143
-0.0122231
-0.0127947
-0.0133259
-0.0138137
-0.0142556
-0.0146493
-0.0149926
-0.0152833
-0.0155195
-0.0156998
-0.0158231
-0.0158882
-0.0158946
-0.0158415
-0.0157282
-0.0155541
-0.0153185
-0.0150213
-0.0146623
-0.0142413
-0.0137587
-0.0132148
-0.0126101
-0.0119453
-0.011221
-0.0104383
-0.009598
-0.00870104
-0.00774853
-0.00674167
-0.00568168
-0.00456976
-0.00340726
-0.00219558
-0.000936145
0.000369465
0.00171953
0.00311234
0.0045462
0.00601933
0.00752985
0.00907585
0.0106553
0.0122664
0.0139071
0.0155752
0.0172684
0.0189846
0.0207217
0.0224774
0.0242494
0.0260354
0.0278334
0.029641
0.0314559
0.0332755
0.0350977
0.0369201
0.0387404
0.0405561
0.0423646
0.0441634
0.0459503
0.047723
0.0494794
0.0512168
0.0529328
0.0546248
0.0562906
0.0579281
0.0595349
0.061109
0.0626481
0.06415
0.0656126
0.0670337
0.0684113
0.0697434
0.0710282
0.0722642
0.0734498
0.0745831
0.0756624
0.076686
0.0776525
0.0785608
0.0794098
0.0801984
0.0809257
0.0815907
0.0821928
0.0827314
0.083206
0.0836164
0.0839621
0.0842429
0.0844592
0.0846112
0.0846997
0.0847252
0.0846882
0.0845898
0.084431
0.0842134
0.0839387
0.0836089
0.0832257
0.0827914
0.0823082
0.0817786
0.0812059
0.0805932
0.0799441
0.0792624
0.078552
0.0778174
0.0770633
0.0762947
0.0755168
0.0747352
0.0739555
0.0731839
0.072427
0.0716917
0.0709849
0.070314
0.0696862
0.0691089
0.0685896
0.0681357
0.0677545
0.0674527
0.0672359
0.0671104
0.0671006
0.0672238
0.00125111
0.00132752
0.00128504
0.00113885
0.000909146
0.000601796
0.000223111
-0.000220912
-0.0007237
-0.00127749
-0.00187516
-0.00250998
-0.00317513
-0.00386392
-0.00456968
-0.00528605
-0.00600704
-0.00672718
-0.00744089
-0.00814307
-0.00882895
-0.00949417
-0.0101343
-0.0107457
-0.0113244
-0.0118674
-0.0123714
-0.0128339
-0.0132522
-0.0136239
-0.0139469
-0.0142193
-0.0144393
-0.0146053
-0.0147162
-0.014771
-0.014769
-0.0147096
-0.0145919
-0.0144153
-0.0141793
-0.0138836
-0.0135278
-0.0131121
-0.0126367
-0.0121019
-0.0115082
-0.010856
-0.0101463
-0.00937973
-0.00855721
-0.0076797
-0.00674823
-0.0057639
-0.0047279
-0.00364146
-0.0025058
-0.0013223
-9.23945e-05
0.00118244
0.00250057
0.00386034
0.00526009
0.00669805
0.00817235
0.00968118
0.0112227
0.0127951
0.0143963
0.016024
0.0176763
0.019351
0.021046
0.0227592
0.0244883
0.0262312
0.0279856
0.0297493
0.0315202
0.0332957
0.0350737
0.036852
0.0386282
0.0403999
0.0421645
0.0439197
0.0456634
0.0473933
0.0491072
0.0508027
0.0524771
0.0541282
0.0557539
0.057352
0.0589203
0.0604566
0.0619588
0.0634249
0.0648527
0.0662401
0.0675851
0.0688859
0.0701408
0.0713482
0.0725065
0.073614
0.074669
0.0756698
0.0766152
0.0775041
0.0783354
0.079108
0.0798211
0.0804738
0.0810654
0.0815954
0.0820635
0.0824692
0.0828121
0.0830922
0.0833098
0.0834652
0.083559
0.0835919
0.0835644
0.0834774
0.0833322
0.0831302
0.0828733
0.082563
0.0822013
0.0817902
0.0813319
0.0808292
0.0802848
0.079702
0.0790842
0.0784348
0.0777579
0.0770576
0.0763386
0.0756054
0.0748631
0.0741166
0.0733715
0.0726335
0.0719088
0.0712037
0.0705247
0.0698784
0.0692715
0.0687107
0.0682028
0.0677548
0.0673731
0.0670644
0.0668341
0.0666885
0.0666485
0.0667279
0.00191708
0.00192736
0.00183912
0.00166099
0.00140665
0.00108235
0.000693873
0.000246705
-0.000252839
-0.000798629
-0.00138369
-0.0020018
-0.00264669
-0.00331236
-0.00399292
-0.00468255
-0.00537551
-0.00606662
-0.00675077
-0.00742322
-0.00807957
-0.00871552
-0.00932723
-0.00991078
-0.0104629
-0.0109803
-0.0114602
-0.0118999
-0.0122968
-0.0126487
-0.0129534
-0.0132091
-0.0134142
-0.0135671
-0.0136668
-0.0137123
-0.0137028
-0.0136375
-0.0135159
-0.0133371
-0.0131008
-0.0128066
-0.0124541
-0.0120436
-0.011575
-0.0110489
-0.0104655
-0.00982547
-0.00912943
-0.0083782
-0.00757259
-0.00671348
-0.00580191
-0.00483895
-0.00382572
-0.00276339
-0.00165316
-0.000496341
0.000705621
0.00195127
0.00323913
0.00456762
0.005935
0.00733955
0.00877953
0.0102532
0.0117587
0.0132943
0.0148579
0.0164475
0.0180609
0.0196963
0.0213516
0.0230244
0.0247129
0.0264148
0.028128
0.0298503
0.0315794
0.0333132
0.0350494
0.036786
0.0385205
0.0402504
0.0419735
0.0436876
0.0453904
0.0470799
0.0487536
0.0504093
0.0520445
0.0536571
0.0552449
0.0568058
0.0583376
0.0598383
0.0613058
0.0627381
0.0641331
0.0654887
0.066803
0.0680743
0.069301
0.0704815
0.0716142
0.0726973
0.0737293
0.0747087
0.0756342
0.0765049
0.0773196
0.0780772
0.0787768
0.0794178
0.0799995
0.0805215
0.0809833
0.0813845
0.0817247
0.0820039
0.0822224
0.0823807
0.0824794
0.0825189
0.0824998
0.0824232
0.0822902
0.0821024
0.0818614
0.0815687
0.0812262
0.0808359
0.0804
0.0799212
0.0794021
0.0788458
0.0782555
0.0776347
0.0769871
0.0763168
0.0756281
0.0749254
0.0742131
0.0734963
0.0727799
0.0720695
0.0713708
0.0706895
0.0700316
0.0694031
0.0688103
0.0682593
0.0677563
0.0673074
0.0669187
0.0665964
0.0663457
0.0661727
0.0660931
0.0661158
0.00268063
0.0026163
0.00247447
0.00225791
0.0019733
0.0016257
0.00122119
0.00076511
0.000262148
-0.000281337
-0.000859725
-0.00146713
-0.00209782
-0.00274642
-0.00340758
-0.00407588
-0.00474616
-0.0054134
-0.00607289
-0.00672015
-0.00735108
-0.0079618
-0.00854865
-0.00910806
-0.00963677
-0.0101316
-0.0105901
-0.0110094
-0.0113872
-0.0117213
-0.0120096
-0.0122504
-0.012442
-0.0125831
-0.0126726
-0.0127097
-0.0126934
-0.0126231
-0.0124979
-0.0123173
-0.0120809
-0.0117882
-0.011439
-0.0110334
-0.0105715
-0.0100536
-0.00948012
-0.00885158
-0.00816857
-0.00743186
-0.00664226
-0.00580059
-0.00490785
-0.00396512
-0.00297346
-0.00193394
-0.00084776
0.000283765
0.00145928
0.0026774
0.00393662
0.00523541
0.00657213
0.00794505
0.00935249
0.0107928
0.0122643
0.0137649
0.0152929
0.0168463
0.0184231
0.0200213
0.0216388
0.0232736
0.0249236
0.0265867
0.028261
0.029944
0.0316338
0.0333281
0.0350249
0.0367219
0.0384169
0.0401075
0.0417914
0.0434665
0.0451308
0.046782
0.0484178
0.050036
0.0516342
0.0532103
0.0547624
0.0562883
0.0577857
0.0592528
0.0606876
0.0620881
0.0634521
0.0647777
0.0660631
0.0673067
0.0685068
0.069662
0.0707705
0.0718307
0.0728411
0.0738003
0.0747072
0.0755608
0.0763598
0.0771032
0.0777902
0.0784201
0.0789926
0.079507
0.0799628
0.0803596
0.0806971
0.0809752
0.0811945
0.0813553
0.0814581
0.0815034
0.0814919
0.0814245
0.0813026
0.0811275
0.0809006
0.0806236
0.0802982
0.0799264
0.0795105
0.0790528
0.0785561
0.078023
0.0774569
0.0768609
0.0762388
0.0755943
0.0749315
0.0742543
0.0735673
0.0728749
0.072182
0.0714936
0.070815
0.0701515
0.0695087
0.068892
0.0683072
0.0677598
0.0672554
0.0667996
0.0663979
0.0660557
0.0657784
0.0655715
0.0654445
0.065401
0.00352742
0.00338224
0.00318147
0.00292124
0.00260092
0.00222513
0.0017993
0.00132818
0.00081663
0.000269733
-0.000307449
-0.000909583
-0.00153166
-0.00216858
-0.00281549
-0.0034676
-0.00411998
-0.00476799
-0.00540729
-0.00603374
-0.00664331
-0.00723262
-0.00779809
-0.00833663
-0.00884501
-0.00932025
-0.00975981
-0.0101612
-0.0105221
-0.0108404
-0.0111141
-0.0113416
-0.0115212
-0.0116518
-0.0117323
-0.0117619
-0.0117396
-0.0116647
-0.0115366
-0.0113546
-0.0111182
-0.0108271
-0.0104812
-0.0100805
-0.00962497
-0.00911497
-0.00855091
-0.00793324
-0.00726258
-0.00653962
-0.00576514
-0.00493998
-0.00406508
-0.00314143
-0.00217013
-0.0011522
-8.8755e-05
0.00101891
0.00216942
0.00336151
0.00459374
0.0058645
0.00717215
0.00851513
0.00989186
0.0113007
0.0127398
0.0142075
0.0157019
0.0172211
0.0187632
0.0203263
0.0219082
0.0235069
0.0251207
0.0267472
0.0283846
0.0300306
0.0316832
0.0333403
0.0349999
0.0366596
0.0383173
0.0399707
0.0416177
0.0432562
0.0448841
0.0464992
0.0480992
0.049682
0.0512453
0.0527873
0.0543057
0.0557985
0.0572636
0.0586991
0.0601031
0.0614735
0.0628085
0.0641059
0.0653642
0.0665817
0.0677568
0.0688881
0.0699739
0.0710125
0.0720027
0.072943
0.0738325
0.07467
0.0754542
0.0761842
0.0768593
0.077479
0.0780427
0.0785499
0.079
0.0793925
0.0797273
0.0800043
0.0802241
0.0803869
0.0804933
0.0805437
0.0805389
0.0804798
0.0803677
0.0802038
0.0799894
0.0797262
0.0794159
0.0790605
0.0786621
0.078223
0.0777457
0.0772329
0.0766877
0.0761131
0.0755127
0.07489
0.0742487
0.0735929
0.0729264
0.0722537
0.0715792
0.0709076
0.0702438
0.0695928
0.0689595
0.068349
0.0677665
0.0672171
0.0667057
0.0662374
0.0658171
0.0654498
0.0651403
0.0648939
0.0647134
0.0645967
0.0044438
0.00421419
0.00395035
0.00364218
0.00328184
0.00287325
0.00242146
0.00193077
0.00140539
0.00084995
0.000269006
-0.000332989
-0.000951385
-0.00158161
-0.00221917
-0.00285964
-0.00349843
-0.00413142
-0.00475467
-0.00536421
-0.00595638
-0.00652785
-0.00707543
-0.00759611
-0.00808697
-0.00854538
-0.00896857
-0.0093543
-0.00970042
-0.0100048
-0.0102657
-0.0104815
-0.0106506
-0.010772
-0.0108446
-0.0108675
-0.01084
-0.0107612
-0.0106307
-0.0104476
-0.0102115
-0.00992228
-0.00957965
-0.00918361
-0.00873421
-0.00823177
-0.00767669
-0.00706934
-0.00641033
-0.00570038
-0.00494021
-0.00413062
-0.00327257
-0.00236701
-0.00141488
-0.000417251
0.000624711
0.00170981
0.00283682
0.00400441
0.00521113
0.0064554
0.0077357
0.0090505
0.0103982
0.0117773
0.013186
0.0146226
0.0160854
0.0175724
0.0190818
0.0206116
0.02216
0.0237248
0.0253044
0.0268965
0.0284991
0.0301102
0.0317278
0.0333499
0.0349743
0.0365989
0.0382214
0.0398398
0.0414521
0.0430561
0.0446498
0.0462308
0.0477972
0.0493467
0.0508773
0.0523871
0.0538738
0.0553355
0.0567702
0.058176
0.0595511
0.0608934
0.062201
0.063472
0.0647048
0.0658978
0.0670496
0.0681585
0.0692229
0.0702413
0.0712125
0.0721353
0.0730084
0.0738308
0.0746011
0.0753186
0.0759827
0.0765927
0.0771482
0.0776485
0.0780931
0.0784815
0.0788136
0.0790895
0.0793094
0.0794739
0.0795833
0.0796382
0.0796393
0.0795875
0.0794839
0.0793297
0.0791263
0.0788752
0.0785781
0.0782369
0.0778538
0.0774308
0.0769702
0.0764748
0.0759473
0.0753908
0.0748085
0.0742039
0.0735803
0.0729416
0.0722915
0.071634
0.0709733
0.0703137
0.0696598
0.0690162
0.0683875
0.0677782
0.0671929
0.0666362
0.0661127
0.0656269
0.0651832
0.0647859
0.0644396
0.0641491
0.0639103
0.0637155
0.00541769
0.00510143
0.00477168
0.00441238
0.00400832
0.00356301
0.00308137
0.00256685
0.00202337
0.00145498
0.000865482
0.000259085
-0.000360186
-0.000988248
-0.00162082
-0.00225382
-0.00288328
-0.00350522
-0.00411609
-0.00471232
-0.00529065
-0.00584765
-0.00638052
-0.00688634
-0.00736244
-0.00780637
-0.00821562
-0.00858796
-0.0089213
-0.00921374
-0.00946353
-0.00966904
-0.00982906
-0.00994246
-0.0100082
-0.0100254
-0.00999337
-0.00991141
-0.00977885
-0.00959503
-0.00935961
-0.00907234
-0.00873299
-0.00834152
-0.00789805
-0.00740282
-0.00685624
-0.0062587
-0.00561071
-0.004913
-0.00416635
-0.00337151
-0.00252933
-0.00164076
-0.000706752
0.000271676
0.00129346
0.0023574
0.00346227
0.00460678
0.00578948
0.00700886
0.00826343
0.00955171
0.0108722
0.0122233
0.0136034
0.0150108
0.0164438
0.0179006
0.0193792
0.0208778
0.0223946
0.0239276
0.0254749
0.0270345
0.0286045
0.0301828
0.0317675
0.0333566
0.034948
0.0365395
0.0381291
0.0397146
0.0412943
0.0428659
0.0444274
0.0459764
0.0475111
0.0490295
0.0505295
0.0520089
0.0534659
0.0548984
0.0563046
0.0576827
0.0590306
0.0603465
0.0616285
0.0628747
0.0640837
0.0652539
0.0663837
0.0674716
0.068516
0.0695157
0.0704693
0.0713756
0.0722335
0.0730416
0.0737991
0.0745049
0.0751586
0.0757596
0.0763073
0.0768011
0.0772403
0.0776248
0.0779543
0.0782289
0.0784489
0.0786146
0.0787266
0.0787853
0.0787915
0.0787459
0.0786497
0.0785039
0.0783099
0.0780692
0.0777835
0.0774546
0.0770845
0.0766752
0.0762289
0.0757481
0.0752355
0.0746939
0.0741264
0.0735363
0.0729268
0.0723014
0.0716637
0.0710172
0.070366
0.0697141
0.0690657
0.068425
0.0677962
0.0671833
0.0665906
0.0660221
0.065482
0.0649743
0.064503
0.0640716
0.0636845
0.0633461
0.0630454
0.0627692
0.00643848
0.0060344
0.00563672
0.00522386
0.00477322
0.00428796
0.00377293
0.00323098
0.00266554
0.00208008
0.00147803
0.000862994
0.000238728
-0.000391069
-0.00102259
-0.00165214
-0.00227604
-0.00289065
-0.00349269
-0.0040791
-0.00464667
-0.00519236
-0.00571338
-0.00620715
-0.00667121
-0.00710301
-0.00750048
-0.00786152
-0.00818409
-0.00846636
-0.00870662
-0.00890345
-0.00905568
-0.00916219
-0.00922202
-0.00923444
-0.00919873
-0.00911415
-0.00898006
-0.00879591
-0.00856138
-0.00827622
-0.00794016
-0.00755313
-0.00711536
-0.00662707
-0.00608854
-0.0055002
-0.00486265
-0.00417656
-0.00344265
-0.00266165
-0.00183444
-0.000961889
-4.49282e-05
0.000915467
0.00191826
0.00296232
0.00404644
0.0051693
0.00632945
0.00752545
0.0087559
0.0100193
0.0113143
0.0126391
0.0139924
0.0153724
0.0167776
0.018206
0.0196557
0.0211251
0.0226122
0.0241153
0.0256323
0.0271615
0.0287008
0.0302483
0.0318022
0.0333604
0.0349208
0.0364812
0.0380399
0.0395947
0.0411438
0.042685
0.0442162
0.0457353
0.0472405
0.0487297
0.0502009
0.051652
0.0530811
0.0544864
0.0558659
0.057218
0.0585406
0.0598318
0.0610898
0.062313
0.0634998
0.0646487
0.065758
0.0668263
0.0678522
0.0688343
0.0697716
0.0706626
0.0715062
0.0723012
0.0730466
0.0737416
0.0743856
0.0749781
0.0755184
0.0760059
0.0764402
0.0768208
0.0771477
0.077421
0.0776408
0.0778075
0.0779216
0.0779836
0.0779939
0.0779536
0.0778636
0.077725
0.0775391
0.0773072
0.0770312
0.0767126
0.0763535
0.0759557
0.0755212
0.0750524
0.0745517
0.0740221
0.0734664
0.0728876
0.0722888
0.0716732
0.0710441
0.0704049
0.0697593
0.069111
0.068464
0.0678221
0.067189
0.0665685
0.0659641
0.0653797
0.064819
0.0642857
0.0637831
0.0633141
0.0628829
0.0624936
0.0621285
0.0617687
0.00749675
0.00700421
0.00653757
0.00606914
0.00556942
0.00504174
0.00449017
0.0039177
0.00332689
0.00272085
0.0021026
0.00147528
0.000842373
0.00020724
-0.000426761
-0.0010564
-0.00167824
-0.00228902
-0.00288568
-0.00346541
-0.00402519
-0.00456241
-0.00507435
-0.00555862
-0.00601297
-0.00643509
-0.00682294
-0.00717462
-0.00748824
-0.00776201
-0.00799435
-0.00818395
-0.00832963
-0.00843036
-0.0084853
-0.00849377
-0.0084551
-0.00836848
-0.00823334
-0.0080493
-0.00781592
-0.0075329
-0.00720011
-0.00681752
-0.00638522
-0.00590346
-0.00537259
-0.004793
-0.00416528
-0.0034901
-0.00276821
-0.00200027
-0.00118708
-0.00032956
0.000571371
0.00151483
0.00249986
0.00352534
0.00459
0.00569253
0.00683158
0.00800577
0.00921368
0.0104539
0.0117248
0.0130252
0.0143534
0.0157079
0.017087
0.0184888
0.0199115
0.0213535
0.0228129
0.0242879
0.0257767
0.0272773
0.0287879
0.0303067
0.0318318
0.0333609
0.0348922
0.0364237
0.0379534
0.0394796
0.0410001
0.0425128
0.0440157
0.0455069
0.0469845
0.0484464
0.0498907
0.0513154
0.0527185
0.0540984
0.0554531
0.0567809
0.0580799
0.0593481
0.060584
0.0617858
0.062952
0.064081
0.0651713
0.0662215
0.0672302
0.0681961
0.0691181
0.0699949
0.0708253
0.0716081
0.0723423
0.0730272
0.0736622
0.0742467
0.0747801
0.0752618
0.0756912
0.0760682
0.0763925
0.0766644
0.0768838
0.0770512
0.077167
0.0772314
0.0772453
0.0772094
0.0771246
0.076992
0.0768127
0.0765883
0.0763202
0.0760102
0.0756602
0.0752717
0.0748467
0.0743874
0.0738961
0.0733757
0.0728288
0.0722584
0.0716671
0.071058
0.0704341
0.0697986
0.069155
0.0685068
0.0678575
0.0672106
0.0665694
0.0659372
0.0653175
0.0647136
0.064129
0.0635668
0.0630297
0.0625201
0.0620422
0.0615998
0.0611686
0.0607242
0.00858375
0.00800303
0.00746649
0.00694113
0.00639067
0.00581801
0.00522762
0.00462163
0.00400245
0.00337284
0.00273519
0.00209243
0.00144767
0.000803945
0.000164146
-0.000468706
-0.00109169
-0.00170183
-0.00229623
-0.00287214
-0.00342706
-0.00395838
-0.00446376
-0.004941
-0.00538783
-0.00580241
-0.00618275
-0.00652697
-0.00683336
-0.00710021
-0.0073261
-0.00750978
-0.00765009
-0.00774614
-0.00779718
-0.00780254
-0.00776153
-0.00767348
-0.00753781
-0.00735417
-0.00712216
-0.00684145
-0.00651191
-0.00613357
-0.00570657
-0.00523107
-0.0047074
-0.00413604
-0.00351762
-0.00285277
-0.00214212
-0.00138639
-0.000586398
0.000256973
0.00114292
0.0020706
0.00303906
0.00404713
0.00509358
0.00617715
0.00729654
0.00845038
0.00963722
0.0108557
0.0121044
0.0133819
0.0146868
0.0160174
0.0173721
0.0187491
0.0201466
0.021563
0.0229966
0.0244454
0.0259077
0.0273817
0.0288657
0.0303576
0.0318557
0.0333578
0.034862
0.0363665
0.0378694
0.0393687
0.0408625
0.0423487
0.0438253
0.0452905
0.0467424
0.0481789
0.0495982
0.0509983
0.0523773
0.0537336
0.0550653
0.0563706
0.0576476
0.0588947
0.06011
0.061292
0.0624391
0.0635498
0.0646226
0.065656
0.0666489
0.0675999
0.0685078
0.0693715
0.0701897
0.0709612
0.0716851
0.0723606
0.0729872
0.0735642
0.0740911
0.0745672
0.0749921
0.0753655
0.0756874
0.0759577
0.0761767
0.0763444
0.0764613
0.0765277
0.0765444
0.0765121
0.0764316
0.0763039
0.0761301
0.0759115
0.0756499
0.0753469
0.075004
0.0746228
0.0742051
0.073753
0.0732687
0.072755
0.0722143
0.0716494
0.0710627
0.070457
0.0698351
0.0692001
0.0685552
0.0679037
0.0672487
0.0665933
0.0659405
0.0652933
0.0646549
0.0640285
0.0634169
0.062823
0.0622488
0.0616962
0.0611694
0.0606724
0.0601741
0.0596446
0.00969128
0.00902297
0.00841641
0.00783318
0.00723046
0.00661113
0.00597972
0.0053379
0.0046878
0.00403175
0.00337196
0.00271098
0.00205142
0.00139611
0.000747624
0.000108585
-0.000518442
-0.00113072
-0.00172559
-0.00230046
-0.00285308
-0.00338102
-0.00388215
-0.00435453
-0.0047961
-0.00520509
-0.00557975
-0.00591832
-0.0062191
-0.00648058
-0.00670141
-0.00688036
-0.00701642
-0.00710881
-0.00715688
-0.00715992
-0.00711722
-0.00702822
-0.00689253
-0.00670966
-0.00647913
-0.00620076
-0.00587454
-0.00550041
-0.0050784
-0.00460879
-0.004092
-0.00352849
-0.00291881
-0.00226357
-0.00156346
-0.000819211
-3.16005e-05
0.000798589
0.00167059
0.00258356
0.00353653
0.00452836
0.00555785
0.0066238
0.00772488
0.00885972
0.0100269
0.0112252
0.0124531
0.0137094
0.0149926
0.016301
0.017633
0.0189869
0.020361
0.0217537
0.0231631
0.0245876
0.0260253
0.0274746
0.0289338
0.0304008
0.0318738
0.0333508
0.0348299
0.0363093
0.0377872
0.0392616
0.0407306
0.0421922
0.0436444
0.0450855
0.0465135
0.0479265
0.0493226
0.0507
0.0520568
0.0533913
0.0547016
0.0559861
0.057243
0.0584705
0.0596669
0.0608306
0.0619602
0.0630541
0.0641108
0.0651289
0.0661071
0.0670444
0.0679395
0.0687911
0.0695981
0.0703592
0.0710736
0.0717404
0.0723592
0.0729294
0.0734502
0.073921
0.0743415
0.0747116
0.0750311
0.0753
0.0755182
0.0756859
0.0758035
0.0758714
0.0758903
0.0758608
0.0757837
0.0756599
0.0754903
0.0752764
0.0750198
0.0747221
0.0743846
0.0740088
0.0735963
0.0731492
0.0726697
0.0721604
0.0716235
0.0710614
0.0704766
0.0698714
0.0692486
0.0686111
0.067962
0.0673041
0.0666403
0.0659733
0.0653057
0.0646406
0.0639807
0.0633289
0.0626879
0.0620597
0.0614461
0.0608486
0.0602714
0.0597186
0.0591526
0.0585382
0.0108122
0.0100569
0.00938045
0.00873876
0.00808263
0.00741533
0.00674123
0.0060617
0.00537844
0.00469368
0.00400942
0.00332759
0.00265062
0.00198103
0.0013211
0.000673117
3.94296e-05
-0.000577514
-0.00117526
-0.00175156
-0.00230415
-0.00283107
-0.00333021
-0.00379972
-0.00423806
-0.00464341
-0.00501411
-0.0053486
-0.00564532
-0.00590291
-0.00611994
-0.00629526
-0.00642817
-0.00651798
-0.00656385
-0.00656516
-0.00652145
-0.00643217
-0.00629677
-0.0061148
-0.00588597
-0.00561013
-0.00528716
-0.00491702
-0.00449981
-0.00403587
-0.00352561
-0.00296947
-0.00236798
-0.00172178
-0.00103155
-0.000298024
0.000478072
0.00129602
0.00215506
0.00305435
0.00399291
0.00496964
0.00598339
0.00703297
0.00811703
0.00923421
0.0103832
0.0115627
0.0127714
0.014008
0.0152709
0.0165587
0.0178696
0.0192021
0.0205545
0.0219252
0.0233123
0.0247142
0.0261293
0.0275558
0.0289919
0.0304358
0.0318856
0.0333394
0.0347953
0.0362516
0.0377063
0.0391577
0.0406038
0.0420426
0.0434723
0.0448911
0.0462972
0.0476885
0.0490633
0.0504197
0.051756
0.0530704
0.0543612
0.0556267
0.0568651
0.0580746
0.0592538
0.0604009
0.0615145
0.062593
0.0636349
0.0646389
0.0656039
0.0665287
0.067412
0.0682527
0.0690494
0.069801
0.0705067
0.0711657
0.0717774
0.0723412
0.0728562
0.0733222
0.0737387
0.0741057
0.0744229
0.0746901
0.0749073
0.0750747
0.0751926
0.0752616
0.0752822
0.0752549
0.0751803
0.0750593
0.0748928
0.0746823
0.0744294
0.0741355
0.0738017
0.0734295
0.0730204
0.0725763
0.0720995
0.0715924
0.0710569
0.0704953
0.0699097
0.0693024
0.0686762
0.0680337
0.0673776
0.0667105
0.066035
0.0653535
0.0646685
0.0639827
0.0632988
0.0626193
0.0619464
0.0612819
0.060627
0.0599831
0.0593545
0.0587452
0.0581114
0.0574125
0.01194
0.0110985
0.0103522
0.00965174
0.00894174
0.00822521
0.00750702
0.00678816
0.0060701
0.00535471
0.00464382
0.00393901
0.00324239
0.00255609
0.00188219
0.00122279
0.000580054
-4.3894e-05
-0.00064683
-0.00122675
-0.00178151
-0.00230937
-0.00280856
-0.00327733
-0.00371425
-0.00411764
-0.00448604
-0.00481805
-0.00511218
-0.00536702
-0.0055814
-0.00575437
-0.00588518
-0.00597312
-0.00601757
-0.00601794
-0.00597378
-0.00588458
-0.00574978
-0.00556901
-0.00534205
-0.00506875
-0.00474898
-0.0043827
-0.00397011
-0.00351158
-0.00300751
-0.00245831
-0.00186449
-0.00122674
-0.000545759
0.000177785
0.000943218
0.00174984
0.00259688
0.00348348
0.00440868
0.00537145
0.00637065
0.00740505
0.00847333