/*--------------------------------*- C++ -*----------------------------------*\
  =========                 |
  \\      /  F ield         | OpenFOAM: The Open Source CFD Toolbox
   \\    /   O peration     | Website:  https://openfoam.org
    \\  /    A nd           | Version:  9
     \\/     M anipulation  |
\*---------------------------------------------------------------------------*/
FoamFile
{
    format      ascii;
    class       volVectorField;
    location    "0.1";
    object      U;
}
// * * * * * * * * * * * * * * * * * * * * * * * * * * * * * * * * * * * * * //

dimensions      [0 1 -1 0 0 0 0];

internalField   nonuniform List<vector> 
25600
(
(2.47917e-07 -1.26017e-07 0)
(2.74685e-06 -1.50319e-06 0)
(8.48573e-06 -2.38112e-06 0)
(1.55971e-05 -2.72091e-06 0)
(2.28308e-05 -2.69737e-06 0)
(2.93551e-05 -2.42422e-06 0)
(3.4552e-05 -1.96751e-06 0)
(3.79668e-05 -1.38314e-06 0)
(3.92883e-05 -7.10654e-07 0)
(3.82939e-05 1.58557e-08 0)
(3.48309e-05 7.85392e-07 0)
(2.88179e-05 1.57116e-06 0)
(2.02124e-05 2.36827e-06 0)
(9.00825e-06 3.15371e-06 0)
(-4.77147e-06 3.93004e-06 0)
(-2.10838e-05 4.68845e-06 0)
(-3.9869e-05 5.42063e-06 0)
(-6.10497e-05 6.13063e-06 0)
(-8.45425e-05 6.80855e-06 0)
(-0.000110257 7.45115e-06 0)
(-0.00013809 8.06442e-06 0)
(-0.000167947 8.64688e-06 0)
(-0.000199723 9.18985e-06 0)
(-0.000233307 9.70403e-06 0)
(-0.000268592 1.01821e-05 0)
(-0.000305473 1.06243e-05 0)
(-0.000343834 1.10351e-05 0)
(-0.00038357 1.14149e-05 0)
(-0.000424576 1.1761e-05 0)
(-0.000466739 1.20765e-05 0)
(-0.000509957 1.23624e-05 0)
(-0.000554124 1.26151e-05 0)
(-0.000599138 1.28393e-05 0)
(-0.000644896 1.3039e-05 0)
(-0.000691298 1.321e-05 0)
(-0.000738247 1.33503e-05 0)
(-0.000785642 1.34604e-05 0)
(-0.000833386 1.3541e-05 0)
(-0.000881386 1.35933e-05 0)
(-0.00092955 1.36209e-05 0)
(-0.000977788 1.36277e-05 0)
(-0.00102601 1.3614e-05 0)
(-0.00107414 1.35762e-05 0)
(-0.00112209 1.35128e-05 0)
(-0.00116977 1.34247e-05 0)
(-0.0012171 1.33126e-05 0)
(-0.00126401 1.31782e-05 0)
(-0.00131041 1.30234e-05 0)
(-0.00135624 1.28484e-05 0)
(-0.00140141 1.26534e-05 0)
(-0.00144585 1.24379e-05 0)
(-0.00148951 1.22028e-05 0)
(-0.0015323 1.19496e-05 0)
(-0.00157417 1.16791e-05 0)
(-0.00161506 1.13914e-05 0)
(-0.00165489 1.10872e-05 0)
(-0.00169363 1.07669e-05 0)
(-0.0017312 1.04312e-05 0)
(-0.00176757 1.00809e-05 0)
(-0.00180266 9.71611e-06 0)
(-0.00183644 9.33778e-06 0)
(-0.00186885 8.94629e-06 0)
(-0.00189986 8.54132e-06 0)
(-0.0019294 8.12392e-06 0)
(-0.00195746 7.69548e-06 0)
(-0.00198397 7.25651e-06 0)
(-0.00200891 6.80783e-06 0)
(-0.00203225 6.34966e-06 0)
(-0.00205394 5.88166e-06 0)
(-0.00207396 5.40486e-06 0)
(-0.00209228 4.92058e-06 0)
(-0.00210887 4.42925e-06 0)
(-0.00212371 3.93196e-06 0)
(-0.00213678 3.43023e-06 0)
(-0.00214805 2.92407e-06 0)
(-0.00215752 2.41297e-06 0)
(-0.00216517 1.89748e-06 0)
(-0.00217099 1.37862e-06 0)
(-0.00217496 8.57485e-07 0)
(-0.00217708 3.35389e-07 0)
(-0.00217734 -1.8716e-07 0)
(-0.00217574 -7.10635e-07 0)
(-0.00217229 -1.2349e-06 0)
(-0.00216697 -1.75879e-06 0)
(-0.00215981 -2.28137e-06 0)
(-0.00215079 -2.8022e-06 0)
(-0.00213993 -3.32067e-06 0)
(-0.00212724 -3.836e-06 0)
(-0.00211274 -4.34753e-06 0)
(-0.00209644 -4.85443e-06 0)
(-0.00207836 -5.35591e-06 0)
(-0.00205852 -5.85146e-06 0)
(-0.00203695 -6.34031e-06 0)
(-0.00201367 -6.82112e-06 0)
(-0.00198871 -7.29268e-06 0)
(-0.0019621 -7.75452e-06 0)
(-0.00193389 -8.20633e-06 0)
(-0.00190411 -8.64718e-06 0)
(-0.00187279 -9.07586e-06 0)
(-0.00183999 -9.49145e-06 0)
(-0.00180575 -9.89335e-06 0)
(-0.00177013 -1.02808e-05 0)
(-0.00173316 -1.06533e-05 0)
(-0.00169491 -1.10104e-05 0)
(-0.00165544 -1.13514e-05 0)
(-0.00161479 -1.16751e-05 0)
(-0.00157305 -1.19801e-05 0)
(-0.00153026 -1.22656e-05 0)
(-0.0014865 -1.2531e-05 0)
(-0.00144185 -1.27753e-05 0)
(-0.00139637 -1.29976e-05 0)
(-0.00135015 -1.31973e-05 0)
(-0.00130326 -1.33746e-05 0)
(-0.00125578 -1.35294e-05 0)
(-0.00120779 -1.36607e-05 0)
(-0.00115938 -1.37674e-05 0)
(-0.00111064 -1.38485e-05 0)
(-0.00106165 -1.39034e-05 0)
(-0.0010125 -1.3932e-05 0)
(-0.000963299 -1.39343e-05 0)
(-0.000914129 -1.39097e-05 0)
(-0.000865087 -1.38582e-05 0)
(-0.000816271 -1.37791e-05 0)
(-0.000767778 -1.36718e-05 0)
(-0.00071971 -1.35357e-05 0)
(-0.000672168 -1.33704e-05 0)
(-0.000625255 -1.31755e-05 0)
(-0.000579077 -1.29502e-05 0)
(-0.000533738 -1.26936e-05 0)
(-0.000489346 -1.24051e-05 0)
(-0.000446008 -1.20852e-05 0)
(-0.000403831 -1.17342e-05 0)
(-0.000362923 -1.13521e-05 0)
(-0.00032339 -1.09382e-05 0)
(-0.000285341 -1.04921e-05 0)
(-0.000248881 -1.0014e-05 0)
(-0.000214117 -9.50463e-06 0)
(-0.000181149 -8.96512e-06 0)
(-0.000150079 -8.39596e-06 0)
(-0.000121003 -7.79753e-06 0)
(-9.40159e-05 -7.17057e-06 0)
(-6.92075e-05 -6.51589e-06 0)
(-4.66635e-05 -5.83463e-06 0)
(-2.64632e-05 -5.12836e-06 0)
(-8.67827e-06 -4.39847e-06 0)
(6.62825e-06 -3.64719e-06 0)
(1.94054e-05 -2.87802e-06 0)
(2.96165e-05 -2.0951e-06 0)
(3.72441e-05 -1.30428e-06 0)
(4.22963e-05 -5.13438e-07 0)
(4.48128e-05 2.67151e-07 0)
(4.48752e-05 1.02244e-06 0)
(4.26215e-05 1.73115e-06 0)
(3.82645e-05 2.36256e-06 0)
(3.21224e-05 2.87055e-06 0)
(2.46599e-05 3.18561e-06 0)
(1.65384e-05 3.20376e-06 0)
(8.70304e-06 2.76924e-06 0)
(2.6197e-06 1.68999e-06 0)
(1.2184e-07 1.23855e-07 0)
(2.00888e-06 -2.88488e-06 0)
(9.6319e-06 -8.8999e-06 0)
(2.29287e-05 -1.23618e-05 0)
(3.83332e-05 -1.34903e-05 0)
(5.32724e-05 -1.28322e-05 0)
(6.59417e-05 -1.08019e-05 0)
(7.48879e-05 -7.74871e-06 0)
(7.89995e-05 -3.95638e-06 0)
(7.74327e-05 3.71727e-07 0)
(6.96001e-05 5.05408e-06 0)
(5.50968e-05 9.97296e-06 0)
(3.36648e-05 1.50242e-05 0)
(5.16412e-06 2.01235e-05 0)
(-3.04516e-05 2.52174e-05 0)
(-7.31376e-05 3.02465e-05 0)
(-0.000122817 3.51771e-05 0)
(-0.000179338 3.99793e-05 0)
(-0.000242521 4.46295e-05 0)
(-0.000312161 4.91069e-05 0)
(-0.000388018 5.34029e-05 0)
(-0.000469842 5.75041e-05 0)
(-0.000557368 6.13998e-05 0)
(-0.000650309 6.50971e-05 0)
(-0.000748382 6.85742e-05 0)
(-0.000851299 7.18462e-05 0)
(-0.000958748 7.48951e-05 0)
(-0.00107044 7.77366e-05 0)
(-0.00118607 8.03568e-05 0)
(-0.00130533 8.27701e-05 0)
(-0.00142793 8.49704e-05 0)
(-0.00155357 8.69631e-05 0)
(-0.00168194 8.87489e-05 0)
(-0.00181276 9.03304e-05 0)
(-0.00194572 9.17135e-05 0)
(-0.00208055 9.28992e-05 0)
(-0.00221696 9.38885e-05 0)
(-0.00235467 9.46843e-05 0)
(-0.0024934 9.52895e-05 0)
(-0.00263288 9.57071e-05 0)
(-0.00277285 9.59436e-05 0)
(-0.00291304 9.60059e-05 0)
(-0.00305319 9.58979e-05 0)
(-0.00319306 9.56213e-05 0)
(-0.00333241 9.51775e-05 0)
(-0.00347098 9.45691e-05 0)
(-0.00360856 9.37994e-05 0)
(-0.0037449 9.2873e-05 0)
(-0.00387978 9.17957e-05 0)
(-0.00401298 9.05713e-05 0)
(-0.0041443 8.92031e-05 0)
(-0.00427352 8.76955e-05 0)
(-0.00440044 8.60526e-05 0)
(-0.00452488 8.42786e-05 0)
(-0.00464663 8.23791e-05 0)
(-0.00476553 8.03577e-05 0)
(-0.00488139 7.82186e-05 0)
(-0.00499404 7.59659e-05 0)
(-0.00510332 7.36027e-05 0)
(-0.00520907 7.11335e-05 0)
(-0.00531114 6.85629e-05 0)
(-0.00540938 6.58942e-05 0)
(-0.00550366 6.31317e-05 0)
(-0.00559383 6.02799e-05 0)
(-0.00567978 5.73422e-05 0)
(-0.00576137 5.43235e-05 0)
(-0.00583849 5.12286e-05 0)
(-0.00591105 4.80613e-05 0)
(-0.00597892 4.4826e-05 0)
(-0.00604202 4.15271e-05 0)
(-0.00610025 3.81685e-05 0)
(-0.00615354 3.47547e-05 0)
(-0.0062018 3.12914e-05 0)
(-0.00624497 2.77838e-05 0)
(-0.00628299 2.4237e-05 0)
(-0.00631579 2.06555e-05 0)
(-0.00634333 1.70431e-05 0)
(-0.00636557 1.34033e-05 0)
(-0.00638247 9.74076e-06 0)
(-0.00639401 6.06112e-06 0)
(-0.00640015 2.36944e-06 0)
(-0.00640088 -1.33008e-06 0)
(-0.0063962 -5.0332e-06 0)
(-0.00638611 -8.73532e-06 0)
(-0.00637061 -1.2432e-05 0)
(-0.00634971 -1.61189e-05 0)
(-0.00632343 -1.97911e-05 0)
(-0.0062918 -2.34429e-05 0)
(-0.00625485 -2.70697e-05 0)
(-0.00621263 -3.0667e-05 0)
(-0.00616518 -3.42296e-05 0)
(-0.00611257 -3.77518e-05 0)
(-0.00605484 -4.12284e-05 0)
(-0.00599209 -4.46536e-05 0)
(-0.00592438 -4.80214e-05 0)
(-0.00585181 -5.13257e-05 0)
(-0.00577447 -5.45618e-05 0)
(-0.00569246 -5.77253e-05 0)
(-0.00560591 -6.08102e-05 0)
(-0.00551492 -6.381e-05 0)
(-0.00541963 -6.6719e-05 0)
(-0.00532017 -6.95321e-05 0)
(-0.00521668 -7.22444e-05 0)
(-0.00510933 -7.4851e-05 0)
(-0.00499826 -7.7347e-05 0)
(-0.00488364 -7.97273e-05 0)
(-0.00476564 -8.19859e-05 0)
(-0.00464446 -8.41165e-05 0)
(-0.00452027 -8.61127e-05 0)
(-0.00439328 -8.79691e-05 0)
(-0.0042637 -8.96806e-05 0)
(-0.00413172 -9.12425e-05 0)
(-0.00399759 -9.26506e-05 0)
(-0.00386151 -9.39014e-05 0)
(-0.00372373 -9.49913e-05 0)
(-0.00358448 -9.59154e-05 0)
(-0.003444 -9.66682e-05 0)
(-0.00330255 -9.72448e-05 0)
(-0.00316039 -9.76413e-05 0)
(-0.00301778 -9.78548e-05 0)
(-0.00287499 -9.78827e-05 0)
(-0.00273228 -9.77224e-05 0)
(-0.00258994 -9.73705e-05 0)
(-0.00244825 -9.68239e-05 0)
(-0.00230748 -9.60794e-05 0)
(-0.00216794 -9.51342e-05 0)
(-0.00202992 -9.39856e-05 0)
(-0.00189371 -9.26305e-05 0)
(-0.0017596 -9.10663e-05 0)
(-0.00162791 -8.92909e-05 0)
(-0.00149894 -8.73033e-05 0)
(-0.00137298 -8.51033e-05 0)
(-0.00125035 -8.2691e-05 0)
(-0.00113134 -8.00662e-05 0)
(-0.00101627 -7.7229e-05 0)
(-0.000905425 -7.41804e-05 0)
(-0.000799105 -7.09233e-05 0)
(-0.000697602 -6.74614e-05 0)
(-0.000601201 -6.37997e-05 0)
(-0.00051018 -5.99434e-05 0)
(-0.000424807 -5.58985e-05 0)
(-0.000345336 -5.16727e-05 0)
(-0.00027201 -4.72752e-05 0)
(-0.000205054 -4.27173e-05 0)
(-0.000144673 -3.80128e-05 0)
(-9.10453e-05 -3.31788e-05 0)
(-4.43194e-05 -2.82367e-05 0)
(-4.60525e-06 -2.3214e-05 0)
(2.80342e-05 -1.81454e-05 0)
(5.35951e-05 -1.3075e-05 0)
(7.2148e-05 -8.06063e-06 0)
(8.38561e-05 -3.17652e-06 0)
(8.90001e-05 1.48035e-06 0)
(8.801e-05 5.78102e-06 0)
(8.15075e-05 9.55298e-06 0)
(7.03612e-05 1.25614e-05 0)
(5.57534e-05 1.4488e-05 0)
(3.92285e-05 1.49126e-05 0)
(2.27531e-05 1.33001e-05 0)
(9.07704e-06 9.09925e-06 0)
(1.67688e-06 2.61688e-06 0)
(3.18968e-06 -9.42507e-06 0)
(1.40836e-05 -2.27367e-05 0)
(3.17345e-05 -2.95438e-05 0)
(5.10499e-05 -3.11528e-05 0)
(6.86677e-05 -2.85168e-05 0)
(8.22277e-05 -2.24966e-05 0)
(8.97155e-05 -1.38751e-05 0)
(8.9565e-05 -3.28608e-06 0)
(8.0582e-05 8.70131e-06 0)
(6.18739e-05 2.17077e-05 0)
(3.28265e-05 3.53561e-05 0)
(-6.97368e-06 4.94068e-05 0)
(-5.77474e-05 6.3627e-05 0)
(-0.00011959 7.78599e-05 0)
(-0.000192485 9.19555e-05 0)
(-0.000276304 0.000105814 0)
(-0.000370863 0.000119349 0)
(-0.000475902 0.000132482 0)
(-0.000591108 0.000145175 0)
(-0.000716145 0.000157369 0)
(-0.000850635 0.000169043 0)
(-0.000994159 0.000180168 0)
(-0.00114631 0.000190723 0)
(-0.00130663 0.000200694 0)
(-0.00147466 0.000210072 0)
(-0.00164996 0.000218852 0)
(-0.00183204 0.000227022 0)
(-0.00202043 0.000234592 0)
(-0.00221466 0.000241557 0)
(-0.00241425 0.000247921 0)
(-0.00261872 0.00025369 0)
(-0.00282759 0.000258865 0)
(-0.00304041 0.000263454 0)
(-0.00325669 0.000267464 0)
(-0.00347598 0.000270902 0)
(-0.00369783 0.000273774 0)
(-0.00392177 0.000276091 0)
(-0.00414736 0.000277861 0)
(-0.00437418 0.000279093 0)
(-0.00460177 0.000279797 0)
(-0.00482973 0.000279987 0)
(-0.00505764 0.000279672 0)
(-0.00528508 0.000278862 0)
(-0.00551167 0.000277567 0)
(-0.00573701 0.000275797 0)
(-0.00596071 0.000273562 0)
(-0.00618242 0.000270872 0)
(-0.00640176 0.00026774 0)
(-0.00661838 0.000264178 0)
(-0.00683193 0.000260198 0)
(-0.00704208 0.000255811 0)
(-0.00724851 0.00025103 0)
(-0.00745088 0.000245867 0)
(-0.00764891 0.000240333 0)
(-0.00784229 0.000234443 0)
(-0.00803074 0.000228207 0)
(-0.00821397 0.000221638 0)
(-0.00839172 0.000214747 0)
(-0.00856373 0.000207546 0)
(-0.00872975 0.000200046 0)
(-0.00888955 0.000192261 0)
(-0.00904289 0.000184202 0)
(-0.00918956 0.000175882 0)
(-0.00932936 0.000167313 0)
(-0.00946207 0.000158507 0)
(-0.00958752 0.000149477 0)
(-0.00970552 0.000140236 0)
(-0.00981592 0.000130796 0)
(-0.00991855 0.000121171 0)
(-0.0100133 0.000111373 0)
(-0.0100999 0.000101415 0)
(-0.0101784 9.13107e-05 0)
(-0.0102486 8.10753e-05 0)
(-0.0103105 7.07227e-05 0)
(-0.0103638 6.02652e-05 0)
(-0.0104086 4.9716e-05 0)
(-0.0104447 3.90888e-05 0)
(-0.0104722 2.83964e-05 0)
(-0.0104909 1.76525e-05 0)
(-0.0105008 6.87176e-06 0)
(-0.010502 -3.932e-06 0)
(-0.0104943 -1.47459e-05 0)
(-0.0104779 -2.55562e-05 0)
(-0.0104526 -3.63486e-05 0)
(-0.0104185 -4.71092e-05 0)
(-0.0103757 -5.78237e-05 0)
(-0.0103242 -6.84774e-05 0)
(-0.010264 -7.90555e-05 0)
(-0.0101953 -8.95435e-05 0)
(-0.0101181 -9.99266e-05 0)
(-0.0100324 -0.000110189 0)
(-0.0099385 -0.000120316 0)
(-0.00983641 -0.00013029 0)
(-0.00972627 -0.000140095 0)
(-0.00960823 -0.000149716 0)
(-0.00948245 -0.000159137 0)
(-0.00934911 -0.000168342 0)
(-0.00920837 -0.000177317 0)
(-0.00906045 -0.000186044 0)
(-0.00890554 -0.000194507 0)
(-0.00874387 -0.00020269 0)
(-0.00857568 -0.000210579 0)
(-0.0084012 -0.000218159 0)
(-0.00822069 -0.000225414 0)
(-0.00803444 -0.00023233 0)
(-0.00784272 -0.00023889 0)
(-0.00764583 -0.000245077 0)
(-0.00744407 -0.000250876 0)
(-0.00723777 -0.000256272 0)
(-0.00702726 -0.000261249 0)
(-0.00681288 -0.000265794 0)
(-0.00659499 -0.000269893 0)
(-0.00637395 -0.000273535 0)
(-0.00615013 -0.000276708 0)
(-0.00592394 -0.000279398 0)
(-0.00569575 -0.000281591 0)
(-0.00546599 -0.000283275 0)
(-0.00523505 -0.000284438 0)
(-0.00500338 -0.000285071 0)
(-0.00477139 -0.000285165 0)
(-0.00453954 -0.00028471 0)
(-0.00430827 -0.000283699 0)
(-0.00407803 -0.000282121 0)
(-0.00384929 -0.000279969 0)
(-0.00362251 -0.000277234 0)
(-0.00339817 -0.000273911 0)
(-0.00317674 -0.000269992 0)
(-0.00295871 -0.000265473 0)
(-0.00274454 -0.000260348 0)
(-0.00253474 -0.000254616 0)
(-0.00232978 -0.000248276 0)
(-0.00213014 -0.000241328 0)
(-0.00193632 -0.000233774 0)
(-0.00174879 -0.000225617 0)
(-0.00156802 -0.000216862 0)
(-0.00139448 -0.000207519 0)
(-0.00122863 -0.000197598 0)
(-0.00107091 -0.000187115 0)
(-0.000921759 -0.000176085 0)
(-0.00078159 -0.000164531 0)
(-0.000650798 -0.000152477 0)
(-0.000529752 -0.000139954 0)
(-0.00041879 -0.000126999 0)
(-0.000318215 -0.000113657 0)
(-0.000228286 -9.99841e-05 0)
(-0.000149207 -8.60481e-05 0)
(-8.11191e-05 -7.19338e-05 0)
(-2.40834e-05 -5.77462e-05 0)
(2.19337e-05 -4.36172e-05 0)
(5.70832e-05 -2.97128e-05 0)
(8.16591e-05 -1.62426e-05 0)
(9.61317e-05 -3.47326e-06 0)
(0.000101188 8.25471e-06 0)
(9.77814e-05 1.85037e-05 0)
(8.71911e-05 2.67116e-05 0)
(7.10861e-05 3.21649e-05 0)
(5.15497e-05 3.39883e-05 0)
(3.11022e-05 3.11724e-05 0)
(1.32385e-05 2.27567e-05 0)
(2.74225e-06 8.67133e-06 0)
(3.59604e-06 -1.77892e-05 0)
(1.55591e-05 -3.93703e-05 0)
(3.42227e-05 -4.92107e-05 0)
(5.35469e-05 -5.02069e-05 0)
(6.96078e-05 -4.39372e-05 0)
(7.964e-05 -3.17954e-05 0)
(8.13411e-05 -1.50379e-05 0)
(7.2808e-05 5.22884e-06 0)
(5.25896e-05 2.81083e-05 0)
(1.95903e-05 5.28437e-05 0)
(-2.69957e-05 7.88426e-05 0)
(-8.76844e-05 0.000105607 0)
(-0.000162813 0.000132752 0)
(-0.000252523 0.000159944 0)
(-0.000356804 0.000186945 0)
(-0.000475531 0.000213531 0)
(-0.000608485 0.000239535 0)
(-0.000755341 0.000264831 0)
(-0.000915728 0.000289299 0)
(-0.00108921 0.000312861 0)
(-0.0012753 0.000335443 0)
(-0.00147348 0.000356998 0)
(-0.00168319 0.000377468 0)
(-0.00190385 0.000396843 0)
(-0.00213489 0.000415077 0)
(-0.00237567 0.000432169 0)
(-0.00262559 0.000448099 0)
(-0.00288401 0.000462867 0)
(-0.00315029 0.000476466 0)
(-0.00342381 0.000488904 0)
(-0.00370393 0.000500186 0)
(-0.00399 0.000510314 0)
(-0.00428139 0.000519301 0)
(-0.00457748 0.000527158 0)
(-0.00487763 0.000533895 0)
(-0.00518123 0.000539527 0)
(-0.00548768 0.000544072 0)
(-0.00579637 0.000547545 0)
(-0.0061067 0.000549965 0)
(-0.00641809 0.000551352 0)
(-0.00672996 0.000551725 0)
(-0.00704175 0.000551102 0)
(-0.0073529 0.000549505 0)
(-0.00766287 0.000546953 0)
(-0.00797113 0.000543466 0)
(-0.00827716 0.000539065 0)
(-0.00858045 0.000533773 0)
(-0.0088805 0.00052761 0)
(-0.00917683 0.000520601 0)
(-0.00946897 0.000512767 0)
(-0.00975645 0.000504132 0)
(-0.0100388 0.00049472 0)
(-0.0103157 0.000484554 0)
(-0.0105866 0.000473657 0)
(-0.0108512 0.000462054 0)
(-0.011109 0.000449769 0)
(-0.0113596 0.000436825 0)
(-0.0116028 0.000423245 0)
(-0.0118381 0.000409054 0)
(-0.0120652 0.000394274 0)
(-0.0122838 0.00037893 0)
(-0.0124936 0.000363046 0)
(-0.0126943 0.000346646 0)
(-0.0128855 0.000329755 0)
(-0.013067 0.000312398 0)
(-0.0132386 0.000294599 0)
(-0.0134 0.000276383 0)
(-0.013551 0.000257776 0)
(-0.0136914 0.000238803 0)
(-0.013821 0.000219489 0)
(-0.0139395 0.000199861 0)
(-0.0140468 0.000179946 0)
(-0.0141428 0.000159769 0)
(-0.0142274 0.000139358 0)
(-0.0143003 0.00011874 0)
(-0.0143615 9.79389e-05 0)
(-0.0144108 7.69831e-05 0)
(-0.0144483 5.58998e-05 0)
(-0.0144739 3.47159e-05 0)
(-0.0144874 1.3458e-05 0)
(-0.0144889 -7.84608e-06 0)
(-0.0144783 -2.91684e-05 0)
(-0.0144557 -5.04814e-05 0)
(-0.014421 -7.17577e-05 0)
(-0.0143743 -9.29694e-05 0)
(-0.0143156 -0.000114087 0)
(-0.0142451 -0.000135083 0)
(-0.0141627 -0.000155926 0)
(-0.0140686 -0.000176587 0)
(-0.0139628 -0.000197038 0)
(-0.0138456 -0.000217249 0)
(-0.0137171 -0.000237187 0)
(-0.0135774 -0.000256823 0)
(-0.0134266 -0.000276124 0)
(-0.0132651 -0.000295061 0)
(-0.0130931 -0.000313602 0)
(-0.0129106 -0.000331717 0)
(-0.0127181 -0.000349375 0)
(-0.0125158 -0.000366544 0)
(-0.0123039 -0.000383193 0)
(-0.0120829 -0.000399291 0)
(-0.0118528 -0.000414809 0)
(-0.0116143 -0.000429717 0)
(-0.0113674 -0.000443983 0)
(-0.0111128 -0.000457579 0)
(-0.0108507 -0.000470473 0)
(-0.0105815 -0.000482635 0)
(-0.0103057 -0.000494035 0)
(-0.0100237 -0.000504643 0)
(-0.00973589 -0.000514431 0)
(-0.00944285 -0.000523372 0)
(-0.00914501 -0.00053144 0)
(-0.00884286 -0.000538608 0)
(-0.00853693 -0.000544852 0)
(-0.00822774 -0.000550147 0)
(-0.00791583 -0.000554468 0)
(-0.00760175 -0.000557791 0)
(-0.00728607 -0.000560095 0)
(-0.00696937 -0.000561359 0)
(-0.00665223 -0.000561564 0)
(-0.00633524 -0.000560692 0)
(-0.00601903 -0.000558726 0)
(-0.0057042 -0.000555649 0)
(-0.00539139 -0.000551447 0)
(-0.00508122 -0.000546105 0)
(-0.00477434 -0.000539611 0)
(-0.00447139 -0.000531954 0)
(-0.00417301 -0.000523126 0)
(-0.00387986 -0.00051312 0)
(-0.00359259 -0.000501934 0)
(-0.00331185 -0.000489567 0)
(-0.00303828 -0.00047602 0)
(-0.00277254 -0.0004613 0)
(-0.00251527 -0.000445416 0)
(-0.00226708 -0.00042838 0)
(-0.00202862 -0.000410211 0)
(-0.00180047 -0.000390934 0)
(-0.00158323 -0.000370578 0)
(-0.00137747 -0.00034918 0)
(-0.00118374 -0.000326785 0)
(-0.00100253 -0.000303446 0)
(-0.00083434 -0.000279227 0)
(-0.000679587 -0.000254206 0)
(-0.000538655 -0.000228479 0)
(-0.000411861 -0.00020216 0)
(-0.000299448 -0.000175388 0)
(-0.00020157 -0.000148333 0)
(-0.000118275 -0.000121204 0)
(-4.94857e-05 -9.42565e-05 0)
(5.0281e-06 -6.78092e-05 0)
(4.5678e-05 -4.22556e-05 0)
(7.30931e-05 -1.80856e-05 0)
(8.81629e-05 4.09035e-06 0)
(9.20846e-05 2.35109e-05 0)
(8.64199e-05 3.92317e-05 0)
(7.31511e-05 5.00974e-05 0)
(5.46933e-05 5.47381e-05 0)
(3.39182e-05 5.16148e-05 0)
(1.48394e-05 3.9195e-05 0)
(3.16912e-06 1.64592e-05 0)
(3.46561e-06 -2.62525e-05 0)
(1.47465e-05 -5.57805e-05 0)
(3.16449e-05 -6.76482e-05 0)
(4.77211e-05 -6.65057e-05 0)
(5.8705e-05 -5.47681e-05 0)
(6.16215e-05 -3.43754e-05 0)
(5.39143e-05 -7.13232e-06 0)
(3.35257e-05 2.53999e-05 0)
(-1.17169e-06 6.19258e-05 0)
(-5.14414e-05 0.000101334 0)
(-0.000118195 0.00014274 0)
(-0.000202076 0.00018539 0)
(-0.000303475 0.000228681 0)
(-0.000422577 0.000272119 0)
(-0.000559407 0.000315291 0)
(-0.000713844 0.00035787 0)
(-0.000885625 0.000399582 0)
(-0.0010744 0.000440208 0)
(-0.00127974 0.00047956 0)
(-0.00150111 0.000517504 0)
(-0.00173797 0.000553914 0)
(-0.00198968 0.000588698 0)
(-0.00225558 0.00062179 0)
(-0.00253499 0.000653115 0)
(-0.00282717 0.000682645 0)
(-0.00313139 0.000710337 0)
(-0.0034469 0.000736174 0)
(-0.00377292 0.000760141 0)
(-0.00410868 0.000782231 0)
(-0.0044534 0.000802442 0)
(-0.00480628 0.00082078 0)
(-0.00516655 0.000837256 0)
(-0.00553342 0.00085188 0)
(-0.00590612 0.000864669 0)
(-0.00628386 0.000875642 0)
(-0.00666588 0.000884818 0)
(-0.00705142 0.00089222 0)
(-0.00743973 0.000897875 0)
(-0.00783008 0.000901813 0)
(-0.00822172 0.000904063 0)
(-0.00861395 0.000904655 0)
(-0.00900605 0.000903621 0)
(-0.00939733 0.000900992 0)
(-0.00978712 0.000896799 0)
(-0.0101747 0.000891078 0)
(-0.0105595 0.000883861 0)
(-0.0109409 0.000875185 0)
(-0.0113182 0.000865085 0)
(-0.0116908 0.000853597 0)
(-0.0120581 0.000840759 0)
(-0.0124196 0.000826608 0)
(-0.0127746 0.000811182 0)
(-0.0131227 0.00079452 0)
(-0.0134633 0.000776659 0)
(-0.013796 0.000757638 0)
(-0.0141201 0.000737496 0)
(-0.0144352 0.000716272 0)
(-0.014741 0.000694004 0)
(-0.0150368 0.000670732 0)
(-0.0153224 0.000646495 0)
(-0.0155972 0.000621331 0)
(-0.0158609 0.000595282 0)
(-0.0161132 0.000568386 0)
(-0.0163536 0.000540684 0)
(-0.0165818 0.000512217 0)
(-0.0167975 0.000483026 0)
(-0.0170004 0.000453151 0)
(-0.0171902 0.000422634 0)
(-0.0173666 0.000391517 0)
(-0.0175294 0.000359841 0)
(-0.0176784 0.000327649 0)
(-0.0178133 0.000294986 0)
(-0.0179339 0.000261894 0)
(-0.0180401 0.000228417 0)
(-0.0181317 0.000194596 0)
(-0.0182085 0.000160478 0)
(-0.0182705 0.000126106 0)
(-0.0183176 9.15238e-05 0)
(-0.0183496 5.67764e-05 0)
(-0.0183665 2.19091e-05 0)
(-0.0183682 -1.30329e-05 0)
(-0.0183548 -4.80039e-05 0)
(-0.0183262 -8.2958e-05 0)
(-0.0182825 -0.000117849 0)
(-0.0182237 -0.000152632 0)
(-0.0181499 -0.000187257 0)
(-0.018061 -0.000221678 0)
(-0.0179573 -0.000255846 0)
(-0.0178389 -0.000289714 0)
(-0.0177059 -0.000323231 0)
(-0.0175584 -0.00035635 0)
(-0.0173967 -0.00038902 0)
(-0.017221 -0.00042119 0)
(-0.0170315 -0.000452811 0)
(-0.0168284 -0.000483831 0)
(-0.016612 -0.000514201 0)
(-0.0163827 -0.000543871 0)
(-0.0161406 -0.000572788 0)
(-0.0158863 -0.000600903 0)
(-0.01562 -0.000628165 0)
(-0.015342 -0.000654525 0)
(-0.0150529 -0.000679931 0)
(-0.0147531 -0.000704336 0)
(-0.0144429 -0.00072769 0)
(-0.0141228 -0.000749942 0)
(-0.0137934 -0.000771045 0)
(-0.0134551 -0.00079095 0)
(-0.0131085 -0.000809608 0)
(-0.0127541 -0.000826973 0)
(-0.0123925 -0.000842997 0)
(-0.0120243 -0.000857637 0)
(-0.01165 -0.000870849 0)
(-0.0112704 -0.000882591 0)
(-0.010886 -0.000892823 0)
(-0.0104974 -0.000901502 0)
(-0.0101055 -0.00090859 0)
(-0.00971081 -0.000914051 0)
(-0.0093141 -0.000917847 0)
(-0.00891608 -0.000919946 0)
(-0.00851748 -0.000920318 0)
(-0.00811906 -0.00091893 0)
(-0.00772157 -0.000915758 0)
(-0.00732578 -0.000910774 0)
(-0.00693247 -0.000903955 0)
(-0.00654243 -0.00089528 0)
(-0.00615645 -0.000884732 0)
(-0.00577533 -0.000872295 0)
(-0.00539987 -0.000857956 0)
(-0.00503088 -0.000841708 0)
(-0.00466917 -0.000823548 0)
(-0.00431553 -0.000803477 0)
(-0.00397078 -0.000781501 0)
(-0.0036357 -0.000757632 0)
(-0.00331108 -0.000731887 0)
(-0.0029977 -0.000704292 0)
(-0.0026963 -0.000674879 0)
(-0.00240763 -0.000643691 0)
(-0.00213241 -0.00061078 0)
(-0.00187132 -0.000576211 0)
(-0.00162502 -0.000540059 0)
(-0.00139411 -0.000502418 0)
(-0.00117917 -0.000463398 0)
(-0.000980707 -0.000423133 0)
(-0.000799154 -0.000381784 0)
(-0.000634878 -0.000339541 0)
(-0.00048815 -0.000296637 0)
(-0.000359128 -0.000253351 0)
(-0.000247845 -0.00021002 0)
(-0.000154182 -0.000167055 0)
(-7.78416e-05 -0.000124956 0)
(-1.83178e-05 -8.43336e-05 0)
(2.51404e-05 -4.59322e-05 0)
(5.35684e-05 -1.06623e-05 0)
(6.8331e-05 2.03662e-05 0)
(7.11723e-05 4.58084e-05 0)
(6.42689e-05 6.40553e-05 0)
(5.02405e-05 7.32241e-05 0)
(3.21906e-05 7.11917e-05 0)
(1.44434e-05 5.57059e-05 0)
(3.15192e-06 2.45342e-05 0)
(3.01258e-06 -3.3793e-05 0)
(1.23647e-05 -6.98661e-05 0)
(2.53127e-05 -8.21948e-05 0)
(3.55086e-05 -7.71123e-05 0)
(3.85824e-05 -5.78496e-05 0)
(3.14027e-05 -2.70273e-05 0)
(1.13147e-05 1.3031e-05 0)
(-2.38429e-05 6.03144e-05 0)
(-7.58024e-05 0.000113065 0)
(-0.000145905 0.000169862 0)
(-0.00023516 0.000229469 0)
(-0.000344268 0.000290879 0)
(-0.000473678 0.000353254 0)
(-0.000623622 0.000415891 0)
(-0.000794127 0.000478214 0)
(-0.000985062 0.000539749 0)
(-0.00119617 0.000600104 0)
(-0.00142705 0.000658947 0)
(-0.00167723 0.000716023 0)
(-0.00194612 0.000771102 0)
(-0.00223309 0.000824016 0)
(-0.00253741 0.000874613 0)
(-0.00285836 0.000922786 0)
(-0.00319512 0.000968435 0)
(-0.00354686 0.0010115 0)
(-0.00391273 0.00105191 0)
(-0.00429186 0.00108964 0)
(-0.00468333 0.00112466 0)
(-0.00508627 0.00115695 0)
(-0.00549973 0.00118652 0)
(-0.00592282 0.00121335 0)
(-0.00635459 0.00123746 0)
(-0.00679414 0.00125887 0)
(-0.00724054 0.0012776 0)
(-0.00769289 0.00129367 0)
(-0.00815027 0.0013071 0)
(-0.0086118 0.00131794 0)
(-0.00907657 0.00132622 0)
(-0.00954371 0.00133197 0)
(-0.0100124 0.00133524 0)
(-0.0104817 0.00133606 0)
(-0.0109508 0.0013345 0)
(-0.0114189 0.00133059 0)
(-0.0118852 0.00132437 0)
(-0.0123489 0.00131591 0)
(-0.0128092 0.00130524 0)
(-0.0132653 0.00129241 0)
(-0.0137166 0.00127749 0)
(-0.0141622 0.00126053 0)
(-0.0146016 0.00124157 0)
(-0.0150339 0.00122067 0)
(-0.0154586 0.00119789 0)
(-0.0158749 0.00117328 0)
(-0.0162822 0.00114691 0)
(-0.01668 0.00111882 0)
(-0.0170677 0.00108907 0)
(-0.0174446 0.00105773 0)
(-0.0178102 0.00102484 0)
(-0.018164 0.000990467 0)
(-0.0185055 0.000954669 0)
(-0.0188341 0.000917502 0)
(-0.0191495 0.000879025 0)
(-0.0194511 0.000839298 0)
(-0.0197386 0.000798381 0)
(-0.0200114 0.000756332 0)
(-0.0202694 0.000713213 0)
(-0.0205119 0.000669086 0)
(-0.0207389 0.00062401 0)
(-0.0209498 0.000578047 0)
(-0.0211444 0.00053126 0)
(-0.0213224 0.000483712 0)
(-0.0214837 0.000435466 0)
(-0.0216278 0.000386586 0)
(-0.0217547 0.000337136 0)
(-0.0218641 0.000287181 0)
(-0.0219559 0.000236786 0)
(-0.0220299 0.000186015 0)
(-0.0220861 0.000134936 0)
(-0.0221242 8.36125e-05 0)
(-0.0221443 3.21132e-05 0)
(-0.0221462 -1.94946e-05 0)
(-0.0221301 -7.11435e-05 0)
(-0.0220958 -0.000122766 0)
(-0.0220434 -0.000174292 0)
(-0.0219729 -0.000225654 0)
(-0.0218845 -0.00027678 0)
(-0.0217781 -0.000327601 0)
(-0.021654 -0.000378045 0)
(-0.0215123 -0.000428041 0)
(-0.0213531 -0.000477517 0)
(-0.0211767 -0.000526399 0)
(-0.0209833 -0.000574615 0)
(-0.0207731 -0.000622089 0)
(-0.0205464 -0.000668749 0)
(-0.0203035 -0.000714521 0)
(-0.0200447 -0.00075933 0)
(-0.0197704 -0.000803101 0)
(-0.019481 -0.000845761 0)
(-0.0191768 -0.000887234 0)
(-0.0188584 -0.000927448 0)
(-0.0185261 -0.000966328 0)
(-0.0181804 -0.0010038 0)
(-0.0178219 -0.00103979 0)
(-0.017451 -0.00107423 0)
(-0.0170684 -0.00110705 0)
(-0.0166746 -0.00113817 0)
(-0.0162702 -0.00116752 0)
(-0.0158559 -0.00119504 0)
(-0.0154323 -0.00122064 0)
(-0.015 -0.00124428 0)
(-0.0145598 -0.00126588 0)
(-0.0141124 -0.00128537 0)
(-0.0136586 -0.0013027 0)
(-0.013199 -0.00131781 0)
(-0.0127346 -0.00133063 0)
(-0.012266 -0.00134111 0)
(-0.0117941 -0.0013492 0)
(-0.0113198 -0.00135484 0)
(-0.0108439 -0.00135799 0)
(-0.0103672 -0.0013586 0)
(-0.00989077 -0.00135662 0)
(-0.00941536 -0.00135202 0)
(-0.00894192 -0.00134476 0)
(-0.00847138 -0.00133481 0)
(-0.00800466 -0.00132214 0)
(-0.00754271 -0.00130673 0)
(-0.00708647 -0.00128855 0)
(-0.00663688 -0.00126759 0)
(-0.00619489 -0.00124384 0)
(-0.00576146 -0.00121729 0)
(-0.00533753 -0.00118797 0)
(-0.00492404 -0.00115587 0)
(-0.00452191 -0.00112101 0)
(-0.00413207 -0.00108344 0)
(-0.00375541 -0.00104318 0)
(-0.00339283 -0.00100029 0)
(-0.00304517 -0.000954836 0)
(-0.00271327 -0.000906902 0)
(-0.00239791 -0.000856585 0)
(-0.00209986 -0.000804004 0)
(-0.0018198 -0.0007493 0)
(-0.00155838 -0.000692644 0)
(-0.00131617 -0.000634236 0)
(-0.00109367 -0.000574317 0)
(-0.00089128 -0.000513174 0)
(-0.000709285 -0.000451146 0)
(-0.000547854 -0.000388643 0)
(-0.000407004 -0.000326153 0)
(-0.000286583 -0.000264261 0)
(-0.000186246 -0.000203673 0)
(-0.000105417 -0.000145235 0)
(-4.32623e-05 -8.99665e-05 0)
(1.34968e-06 -3.90923e-05 0)
(2.98872e-05 5.91875e-06 0)
(4.42015e-05 4.33158e-05 0)
(4.65757e-05 7.10313e-05 0)
(3.97419e-05 8.66571e-05 0)
(2.69371e-05 8.74508e-05 0)
(1.25893e-05 7.03741e-05 0)
(2.84694e-06 3.19751e-05 0)
(2.37852e-06 -3.97521e-05 0)
(8.93808e-06 -8.00792e-05 0)
(1.62722e-05 -9.07935e-05 0)
(1.85237e-05 -7.96166e-05 0)
(1.13823e-05 -5.06378e-05 0)
(-8.31602e-06 -7.10646e-06 0)
(-4.32377e-05 4.81169e-05 0)
(-9.56088e-05 0.000112518 0)
(-0.000167172 0.000183997 0)
(-0.00025931 0.000260692 0)
(-0.000373087 0.000341096 0)
(-0.000509233 0.000423902 0)
(-0.000668229 0.000508022 0)
(-0.000850318 0.000592547 0)
(-0.00105554 0.000676719 0)
(-0.00128377 0.000759893 0)
(-0.00153471 0.000841546 0)
(-0.00180795 0.000921236 0)
(-0.00210295 0.000998595 0)
(-0.00241908 0.00107332 0)
(-0.00275565 0.00114517 0)
(-0.00311185 0.00121393 0)
(-0.00348687 0.00127944 0)
(-0.00387981 0.00134157 0)
(-0.00428974 0.00140021 0)
(-0.0047157 0.00145528 0)
(-0.00515671 0.00150672 0)
(-0.00561175 0.00155449 0)
(-0.00607981 0.00159857 0)
(-0.00655985 0.00163893 0)
(-0.00705082 0.00167558 0)
(-0.00755167 0.00170852 0)
(-0.00806137 0.00173777 0)
(-0.00857887 0.00176335 0)
(-0.00910311 0.0017853 0)
(-0.00963308 0.00180365 0)
(-0.0101677 0.00181844 0)
(-0.0107061 0.00182972 0)
(-0.0112471 0.00183754 0)
(-0.0117898 0.00184195 0)
(-0.0123331 0.00184301 0)
(-0.0128762 0.00184079 0)
(-0.0134181 0.00183533 0)
(-0.0139579 0.00182671 0)
(-0.0144946 0.00181499 0)
(-0.0150274 0.00180024 0)
(-0.0155553 0.00178253 0)
(-0.0160775 0.00176193 0)
(-0.0165933 0.00173851 0)
(-0.0171017 0.00171235 0)
(-0.0176019 0.00168352 0)
(-0.0180933 0.00165209 0)
(-0.0185751 0.00161815 0)
(-0.0190464 0.00158176 0)
(-0.0195067 0.00154301 0)
(-0.0199552 0.00150198 0)
(-0.0203913 0.00145874 0)
(-0.0208143 0.00141337 0)
(-0.0212236 0.00136595 0)
(-0.0216187 0.00131657 0)
(-0.0219989 0.0012653 0)
(-0.0223637 0.00121222 0)
(-0.0227127 0.00115742 0)
(-0.0230452 0.00110097 0)
(-0.0233608 0.00104296 0)
(-0.0236592 0.000983482 0)
(-0.0239398 0.000922608 0)
(-0.0242022 0.000860426 0)
(-0.0244461 0.000797022 0)
(-0.0246712 0.000732481 0)
(-0.0248771 0.000666891 0)
(-0.0250635 0.000600339 0)
(-0.0252302 0.000532912 0)
(-0.0253769 0.0004647 0)
(-0.0255033 0.000395791 0)
(-0.0256094 0.000326275 0)
(-0.0256949 0.000256244 0)
(-0.0257597 0.000185786 0)
(-0.0258037 0.000114995 0)
(-0.0258268 4.39628e-05 0)
(-0.0258289 -2.72174e-05 0)
(-0.0258101 -9.84518e-05 0)
(-0.0257703 -0.000169646 0)
(-0.0257095 -0.000240706 0)
(-0.0256279 -0.000311534 0)