/*--------------------------------*- C++ -*----------------------------------*\
  =========                 |
  \\      /  F ield         | OpenFOAM: The Open Source CFD Toolbox
   \\    /   O peration     | Website:  https://openfoam.org
    \\  /    A nd           | Version:  7
     \\/     M anipulation  |
\*---------------------------------------------------------------------------*/
FoamFile
{
    version     2.0;
    format      ascii;
    class       volScalarField;
    location    "4";
    object      T;
}
// * * * * * * * * * * * * * * * * * * * * * * * * * * * * * * * * * * * * * //

dimensions      [0 0 0 1 0 0 0];

internalField   nonuniform List<scalar> 
64512
(
1
1
1
1
1
1
1
1
1
1
1
1
1
1
1
1
1
1
1
1
1
1
1
1
1
1
1
1
1
1
1
1
1
1
1
1
1
1
1
1
1
1
1
1
1
1
1
1
1.09432
2.34579
2.68629
2.6883
2.69426
2.69922
2.70364
2.70754
2.71126
2.71513
2.71937
2.72401
2.72878
2.73329
2.73722
2.74043
2.74309
2.7456
2.74836
2.7516
2.75531
2.75921
2.76282
2.7658
2.76826
2.77057
2.7731
2.77604
2.77924
2.78228
2.78475
2.78652
2.78779
2.78891
2.79019
2.79175
2.79358
2.79551
2.79737
2.79903
2.80043
2.80163
2.80281
2.80413
2.80553
2.80679
2.80776
2.80822
1
1
1
1
1
1
1
1
1
1
1
1
1
1
1
1
1
1
1
1
1
1
1
1
1
1
1
1
1
1
1
1
1
1
1
1
1
1
1
1
1
1
1
1
1
1
1
1
1.09739
2.34549
2.68572
2.69039
2.69544
2.69987
2.70397
2.70775
2.71145
2.71531
2.71953
2.72412
2.72885
2.73334
2.73726
2.74047
2.74313
2.74564
2.74839
2.7516
2.75528
2.75916
2.76273
2.76567
2.76809
2.77036
2.77288
2.77583
2.77905
2.78212
2.78461
2.78638
2.78764
2.78875
2.79002
2.79159
2.79341
2.79532
2.79717
2.79882
2.80022
2.80143
2.80262
2.80394
2.80532
2.80655
2.80751
2.80796
1
1
1
1
1
1
1
1
1
1
1
1
1
1
1
1
1
1
1
1
1
1
1
1
1
1
1
1
1
1
1
1
1
1
1
1
1
1
1
1
1
1
1
1
1
1
1
1
1.08569
2.33775
2.68937
2.69385
2.69719
2.70066
2.7041
2.70759
2.71122
2.7151
2.71937
2.72403
2.72881
2.7333
2.73718
2.74037
2.74301
2.74551
2.74824
2.75145
2.75514
2.75901
2.76254
2.76541
2.76774
2.76996
2.77245
2.77542
2.77869
2.78182
2.78436
2.78615
2.78742
2.78854
2.78982
2.79138
2.79319
2.79507
2.79687
2.79848
2.79987
2.80109
2.8023
2.80361
2.80497
2.80616
2.8071
2.80755
1
1
1
1
1
1
1
1
1
1
1
1
1
1
1
1
1
1
1
1
1
1
1
1
1
1
1
1
1
1
1
1
1
1
1
1
1
1
1
1
1
1
1
1
1
1
1
1
1.05451
2.32423
2.69267
2.69574
2.69834
2.7015
2.7046
2.70784
2.71134
2.71521
2.71953
2.72425
2.72907
2.73354
2.73735
2.74045
2.74302
2.74545
2.74813
2.75132
2.75501
2.75886
2.76232
2.76508
2.76729
2.76942
2.77187
2.77485
2.77817
2.78135
2.78392
2.78573
2.78701
2.78813
2.78942
2.791
2.79281
2.79467
2.79644
2.79803
2.79941
2.80064
2.80185
2.80315
2.80447
2.8056
2.8065
2.80693
1
1
1
1
1
1
1
1
1
1
1
1
1
1
1
1
1
1
1
1
1
1
1
1
1
1
1
1
1
1
1
1
1
1
1
1
1
1
1
1
1
1
1
1
1
1
1
1
1.01268
2.30206
2.69311
2.6956
2.6983
2.70164
2.70477
2.70793
2.71133
2.71519
2.71957
2.72437
2.72923
2.73367
2.7374
2.74041
2.7429
2.74526
2.74791
2.7511
2.75479
2.75861
2.76197
2.76462
2.76671
2.76876
2.77119
2.77421
2.7776
2.78085
2.78348
2.78532
2.78661
2.78773
2.789
2.79055
2.79232
2.79414
2.79587
2.79742
2.79879
2.80003
2.80124
2.80254
2.80381
2.80488
2.80573
2.80613
1
1
1
1
1
1
1
1
1
1
1
1
1
1
1
1
1
1
1
1
1
1
1
1
1
1
1
1
1
1
1
1
1
1
1
1
1
1
1
1
1
1
1
1
1
1
1
1
1.00031
2.27288
2.6902
2.69376
2.69699
2.70093
2.70442
2.7078
2.71134
2.71529
2.71973
2.72454
2.72936
2.73374
2.73736
2.74028
2.74269
2.745
2.74766
2.7509
2.7546
2.75835
2.76156
2.76402
2.76596
2.76791
2.77029
2.7733
2.7767
2.77997
2.78263
2.78451
2.78585
2.787
2.78829
2.78985
2.79161
2.79341
2.79513
2.79668
2.79805
2.79929
2.8005
2.80179
2.80301
2.80402
2.80481
2.80515
1
1
1
1
1
1
1
1
1
1
1
1
1
1
1
1
1
1
1
1
1
1
1
1
1
1
1
1
1
1
1
1
1
1
1
1
1
1
1
1
1
1
1
1
1
1
1
1
1
2.23894
2.68662
2.69177
2.6953
2.69989
2.70381
2.7075
2.71122
2.71521
2.71958
2.7243
2.72907
2.73341
2.737
2.73988
2.7423
2.74468
2.74743
2.75076
2.75443
2.75808
2.76107
2.76335
2.76513
2.76701
2.76937
2.77238
2.77579
2.77906
2.78173
2.78365
2.78503
2.78623
2.78754
2.78908
2.7908
2.79258
2.79426
2.79579
2.79714
2.79837
2.79957
2.80086
2.80206
2.80302
2.80376
2.80404
1
1
1
1
1
1
1
1
1
1
1
1
1
1
1
1
1
1
1
1
1
1
1
1
1
1
1
1
1
1
1
1
1
1
1
1
1
1
1
1
1
1
1
1
1
1
1
1
1
2.19823
2.68338
2.69032
2.69394
2.69897
2.7032
2.70712
2.71096
2.71498
2.71927
2.72386
2.72849
2.73274
2.73625
2.73912
2.74163
2.74413
2.74702
2.75042
2.75405
2.75754
2.76031
2.76241
2.76411
2.76598
2.76835
2.77138
2.77477
2.778
2.78064
2.78258
2.78402
2.78527
2.78661
2.78815
2.78985
2.79159
2.79324
2.79474
2.79607
2.79727
2.79847
2.79974
2.80093
2.80186
2.80253
2.80276
1
1
1
1
1
1
1
1
1
1
1
1
1
1
1
1
1
1
1
1
1
1
1
1
1
1
1
1
1
1
1
1
1
1
1
1
1
1
1
1
1
1
1
1
1
1
1
1
1
2.14973
2.67893
2.689
2.69289
2.69832
2.70282
2.70694
2.71084
2.71479
2.71888
2.72319
2.72755
2.73161
2.73503
2.73795
2.74065
2.74341
2.74654
2.75008
2.75366
2.75698
2.7595
2.76141
2.76302
2.76488
2.76727
2.77029
2.77363
2.77679
2.77937
2.78131
2.7828
2.78412
2.78551
2.78707
2.78875
2.79045
2.79206
2.79352
2.79481
2.796
2.79718
2.79847
2.79964
2.80055
2.80116
2.80135
1
1
1
1
1
1
1
1
1
1
1
1
1
1
1
1
1
1
1
1
1
1
1
1
1
1
1
1
1
1
1
1
1
1
1
1
1
1
1
1
1
1
1
1
1
1
1
1
1
2.09288
2.67209
2.68711
2.69164
2.69763
2.7025
2.70684
2.71078
2.71461
2.71844
2.72238
2.72638
2.73017
2.73346
2.73643
2.73936
2.74243
2.74584
2.74957
2.75313
2.75628
2.75855
2.76029
2.76182
2.76368
2.76611
2.76914
2.77244
2.77551
2.77801
2.77991
2.78142
2.7828
2.78425
2.78582
2.78748
2.78915
2.7907
2.7921
2.79334
2.7945
2.79569
2.79697
2.79815
2.79905
2.79961
2.79977
1
1
1
1
1
1
1
1
1
1
1
1
1
1
1
1
1
1
1
1
1
1
1
1
1
1
1
1
1
1
1
1
1
1
1
1
1
1
1
1
1
1
1
1
1
1
1
1
1
2.02728
2.66229
2.68397
2.68949
2.69622
2.70172
2.70648
2.71058
2.71436
2.71797
2.72153
2.72512
2.72858
2.73168
2.73461
2.73773
2.7411
2.74483
2.74879
2.75238
2.75542
2.75747
2.75903
2.76047
2.76233
2.76479
2.76784
2.77111
2.7741
2.77652
2.77837
2.77989
2.78132
2.78282
2.78441
2.78607
2.78769
2.78918
2.7905
2.79168
2.79281
2.79398
2.79528
2.79646
2.79737
2.7979
2.79808
1
1
1
1
1
1
1
1
1
1
1
1
1
1
1
1
1
1
1
1
1
1
1
1
1
1
1
1
1
1
1
1
1
1
1
1
1
1
1
1
1
1
1
1
1
1
1
1
1
1.95164
2.64945
2.67931
2.68616
2.69378
2.70006
2.70548
2.70999
2.71389
2.71739
2.72066
2.72386
2.72698
2.72983
2.73265
2.73585
2.73947
2.74349
2.74768
2.75137
2.75435
2.75623
2.75762
2.75896
2.76078
2.76325
2.76633
2.7696
2.77254
2.77489
2.77669
2.7782
2.77965
2.78119
2.78282
2.78446
2.78604
2.78746
2.78871
2.78982
2.7909
2.79206
2.79335
2.79454
2.79547
2.79601
2.79622
1
1
1
1
1
1
1
1
1
1
1
1
1
1
1
1
1
1
1
1
1
1
1
1
1
1
1
1
1
1
1
1
1
1
1
1
1
1
1
1
1
1
1
1
1
1
1
1
1
1.8644
2.63293
2.67384
2.68191
2.6902
2.69716
2.70326
2.70844
2.71282
2.71645
2.71959
2.72251
2.72529
2.72786
2.73047
2.73364
2.73742
2.74171
2.74621
2.75012
2.75315
2.75496
2.75622
2.75743
2.75914
2.76156
2.76463
2.76789
2.77081
2.7731
2.77485
2.77633
2.7778
2.77936
2.78101
2.78264
2.78417
2.78553
2.7867
2.78775
2.78878
2.7899
2.79117
2.79238
2.79335
2.79393
2.7942
1
1
1
1
1
1
1
1
1
1
1
1
1
1
1
1
1
1
1
1
1
1
1
1
1
1
1
1
1
1
1
1
1
1
1
1
1
1
1
1
1
1
1
1
1
1
1
1
1
1.76485
2.61186
2.67038
2.67773
2.68568
2.69301
2.69968
2.70549
2.71045
2.71459
2.71796
2.72084
2.72346
2.7258
2.72815
2.73114
2.73493
2.73937
2.74416
2.74839
2.75162
2.75349
2.75468
2.75578
2.75737
2.75971
2.76274
2.76599
2.76891
2.77118
2.77288
2.77432
2.77577
2.77733
2.77898
2.78059
2.78207
2.78337
2.78449
2.78547
2.78643
2.7875
2.78872
2.78996
2.791
2.79164
2.79199
1
1
1
1
1
1
1
1
1
1
1
1
1
1
1
1
1
1
1
1
1
1
1
1
1
1
1
1
1
1
1
1
1
1
1
1
1
1
1
1
1
1
1
1
1
1
1
1
1
1.65078
2.58382
2.67046
2.67479
2.6812
2.68802
2.69492
2.70126
2.70687
2.71173
2.71567
2.71874
2.72125
2.72336
2.72543
2.72813
2.73181
2.73634
2.74144
2.74612
2.74972
2.75182
2.75302
2.75402
2.75545
2.75763
2.76057
2.76382
2.76678
2.76907
2.77077
2.77217
2.77358
2.77511
2.77673
2.77829
2.77971
2.78095
2.78201
2.78294
2.78383
2.78484
2.78601
2.78727
2.78839
2.78913
2.78956
1
1
1
1
1
1
1
1
1
1
1
1
1
1
1
1
1
1
1
1
1
1
1
1
1
1
1
1
1
1
1
1
1
1
1
1
1
1
1
1
1
1
1
1
1
1
1
1
1
1.52166
2.54386
2.672
2.67313
2.67754
2.68294
2.68908
2.69552
2.70193
2.70774
2.71248
2.71601
2.71865
2.72071
2.72258
2.72497
2.72844
2.73291
2.73818
2.74327
2.74729
2.74975
2.75104
2.75199
2.75325
2.75526
2.7581
2.76136
2.76441
2.76678
2.7685
2.76986
2.7712
2.77267
2.77422
2.77572
2.77708
2.77825
2.77926
2.78014
2.78098
2.78191
2.78304
2.7843
2.7855
2.78633
2.78685
1
1
1
1
1
1
1
1
1
1
1
1
1
1
1
1
1
1
1
1
1
1
1
1
1
1
1
1
1
1
1
1
1
1
1
1
1
1
1
1
1
1
1
1
1
1
1
1
1
1.37649
2.48829
2.67307
2.67182
2.67534
2.67891
2.68372
2.68967
2.69634
2.70279
2.70824
2.71239
2.71543
2.71767
2.7195
2.72165
2.72483
2.72911
2.73439
2.7398
2.74428
2.74725
2.74877
2.74975
2.75087
2.75267
2.75534
2.75858
2.76172
2.76421
2.76598
2.76733
2.7686
2.76998
2.77146
2.7729
2.77418
2.77528
2.77621
2.77702
2.7778
2.77868
2.77977
2.78104
2.78232
2.78324
2.78382
1
1
1
1
1
1
1
1
1
1
1
1
1
1
1
1
1
1
1
1
1
1
1
1
1
1
1
1
1
1
1
1
1
1
1
1
1
1
1
1
1
1
1
1
1
1
1
1
1
1.22513
2.42195
2.67396
2.67022
2.67324
2.67602
2.68013
2.68534
2.6914
2.69759
2.7033
2.70802
2.71161
2.71422
2.7162
2.7182
2.72106
2.72504
2.73017
2.73575
2.74066
2.74424
2.74615
2.74725
2.74824
2.74981
2.75225
2.75544
2.75869
2.76136
2.76324
2.76457
2.76576
2.76704
2.76843
2.76979
2.771
2.77201
2.77285
2.77358
2.77429
2.77514
2.77621
2.77748
2.7788
2.77977
2.78036
1
1
1
1
1
1
1
1
1
1
1
1
1
1
1
1
1
1
1
1
1
1
1
1
1
1
1
1
1
1
1
1
1
1
1
1
1
1
1
1
1
1
1
1
1
1
1
1
1
1.09086
2.35899
2.67362
2.67243
2.67489
2.67754
2.68074
2.68421
2.68829
2.69317
2.69849
2.70345
2.70748
2.71052
2.71276
2.71475
2.7173
2.72089
2.72565
2.73121
2.73644
2.74063
2.74307
2.7444
2.74533
2.74668
2.74889
2.75197
2.75533
2.7582
2.76021
2.76154
2.76263
2.76378
2.76507
2.76637
2.76751
2.76842
2.76914
2.76976
2.77041
2.77121
2.77228
2.77358
2.77491
2.77589
2.77647
1
1
1
1
1
1
1
1
1
1
1
1
1
1
1
1
1
1
1
1
1
1
1
1
1
1
1
1
1
1
1
1
1
1
1
1
1
1
1
1
1
1
1
1
1
1
1
1
1
1.00362
2.28193
2.67596
2.67488
2.67598
2.67802
2.68071
2.68387
2.68739
2.69133
2.69554
2.69981
2.70372
2.70695
2.70944
2.71145
2.71373
2.71684
2.72106
2.72632
2.73167
2.73634
2.7394
2.74112
2.74211
2.74329
2.74526
2.7482
2.75161
2.75467
2.75684
2.75819
2.75917
2.76018
2.76137
2.7626
2.76368
2.7645
2.7651
2.7656
2.76616
2.76692
2.76798
2.76927
2.77056
2.77149
2.77201
1
1
1
1
1
1
1
1
1
1
1
1
1
1
1
1
1
1
1
1
1
1
1
1
1
1
1
1
1
1
1
1
1
1
1
1
1
1
1
1
1
1
1
1
1
1
1
1
1
1.00002
2.18598
2.67563
2.67684
2.67903
2.68142
2.68341
2.68559
2.6881
2.691
2.69422
2.69769
2.70115
2.7042
2.70669
2.70869
2.71067
2.71325
2.71674
2.72143
2.72661
2.73149
2.73513
2.73734
2.73852
2.73962
2.74136
2.74411
2.74752
2.75075
2.75309
2.75448
2.75537
2.75624
2.75729
2.75845
2.75947
2.76019
2.76066
2.76102
2.76146
2.76216
2.76319
2.76446
2.7657
2.76656
2.76702
1
1
1
1
1
1
1
1
1
1
1
1
1
1
1
1
1
1
1
1
1
1
1
1
1
1
1
1
1
1
1
1
1
1
1
1
1
1
1
1
1
1
1
1
1
1
1
1
1
1
2.05682
2.66043
2.67678
2.67919
2.68208
2.68473
2.68724
2.68956
2.69189
2.69451
2.69735
2.70016
2.70277
2.70507
2.70677
2.70838
2.7104
2.71309
2.71693
2.72157
2.72633
2.73034
2.73304
2.73452
2.73562
2.73718
2.73972
2.74306
2.74638
2.74889
2.75035
2.75117
2.7519
2.75282
2.75389
2.75484
2.75548
2.75583
2.75606
2.75638
2.75695
2.75789
2.75905
2.76016
2.76093
2.76128
1
1
1
1
1
1
1
1
1
1
1
1
1
1
1
1
1
1
1
1
1
1
1
1
1
1
1
1
1
1
1
1
1
1
1
1
1
1
1
1
1
1
1
1
1
1
1
1
1
1
1.89868
2.62639
2.67177
2.67735
2.68112
2.68415
2.68695
2.68946
2.69186
2.69447
2.69721
2.69989
2.70224
2.70426
2.70584
2.70687
2.70831
2.71024
2.71315
2.71698
2.72123
2.72527
2.72831
2.73014
2.73131
2.73272
2.73503
2.73822
2.74153
2.74419
2.74575
2.74655
2.74717
2.74795
2.7489
2.74977
2.7503
2.75051
2.75057
2.75071
2.75111
2.75187
2.75286
2.75387
2.75457
2.75487
1
1
1
1
1
1
1
1
1
1
1
1
1
1
1
1
1
1
1
1
1
1
1
1
1
1
1
1
1
1
1
1
1
1
1
1
1
1
1
1
1
1
1
1
1
1
1
1
1
1
1.72775
2.57482
2.66028
2.66827
2.67416
2.67941
2.68427
2.68811
2.69128
2.69403
2.6966
2.69913
2.70142
2.70336
2.70493
2.706
2.70696
2.70828
2.71021
2.71312
2.7166
2.72028
2.72334
2.72543
2.72671
2.72799
2.73006
2.73304
2.73619
2.73889
2.7406
2.74145
2.742
2.74265
2.74346
2.74421
2.74461
2.74466
2.74459
2.74455
2.74469
2.74514
2.74585
2.74664
2.74717
2.74735
1
1
1
1
1
1
1
1
1
1
1
1
1
1
1
1
1
1
1
1
1
1
1
1
1
1
1
1
1
1
1
1
1
1
1
1
1
1
1
1
1
1
1
1
1
1
1
1
1
1
1.5086
2.49185
2.64671
2.65456
2.66282
2.6698
2.67626
2.68221
2.68747
2.69165
2.69509
2.69787
2.70018
2.70212
2.7037
2.70492
2.70585
2.70679
2.70814
2.7101
2.71265
2.71565
2.71843
2.72057
2.72192
2.72308
2.72485
2.72751
2.7304
2.73305
2.73487
2.73583
2.73636
2.7369
2.73756
2.73812
2.73836
2.73824
2.73788
2.73749
2.73728
2.73735
2.73772
2.7383
2.73871
2.73885
1
1
1
1
1
1
1
1
1
1
1
1
1
1
1
1
1
1
1
1
1
1
1
1
1
1
1
1
1
1
1
1
1
1
1
1
1
1
1
1
1
1
1
1
1
1
1
1
1
1
1.24117
2.40273
2.64542
2.64087
2.64757
2.65589
2.66469
2.67284
2.67977
2.68551
2.69036
2.69428
2.6974
2.69991
2.70195
2.70346
2.70454
2.7054
2.70626
2.70761
2.70948
2.71159
2.71384
2.71577
2.71708
2.71805
2.71947
2.72167
2.72414
2.72671
2.72858
2.72962
2.7302
2.73064
2.7311
2.73143
2.73145
2.73111
2.73045
2.72967
2.729
2.72861
2.72851
2.72856
2.7286
2.7285
1
1
1
1
1
1
1
1
1
1
1
1
1
1
1
1
1
1
1
1
1
1
1
1
1
1
1
1
1
1
1
1
1
1
1
1
1
1
1
1
1
1
1
1
1
1
1
1
1
1
1.02226
2.32823
2.64823
2.64131
2.64497
2.6494
2.65508
2.66215
2.66974
2.67672
2.68263
2.68776
2.69202
2.69559
2.69861
2.70098
2.70263
2.70371
2.70455
2.70534
2.70663
2.70814
2.70972
2.71121
2.71231
2.71303
2.71402
2.71564
2.71758
2.71989
2.72178
2.72291
2.72349
2.72382
2.72405
2.72412
2.72389
2.72323
2.72213
2.72073
2.71929
2.71811
2.71734
2.71691
2.71667
2.71655
1
1
1
1
1
1
1
1
1
1
1
1
1
1
1
1
1
1
1
1
1
1
1
1
1
1
1
1
1
1
1
1
1
1
1
1
1
1
1
1
1
1
1
1
1
1
1
1
1
1
1.00015
2.21773
2.64634
2.64333
2.6447
2.64718
2.65103
2.65572
2.66123
2.66748
2.67353
2.67905
2.68416
2.68887
2.69311
2.69664
2.69931
2.70112
2.70234
2.70319
2.70404
2.70507
2.70607
2.70699
2.70774
2.70815
2.70862
2.70956
2.71086
2.7127
2.71445
2.71561
2.71617
2.71635
2.71632
2.71613
2.71556
2.71447
2.71275
2.71059
2.70833
2.70631
2.70463
2.70313
2.70184
2.70085
1
1
1
1
1
1
1
1
1
1
1
1
1
1
1
1
1
1
1
1
1
1
1
1
1
1
1
1
1
1
1
1
1
1
1
1
1
1
1
1
1
1
1
1
1
1
1
1
1
1
1
2.06141
2.64875
2.64967
2.65053
2.65166
2.65276
2.65474
2.65774
2.66121
2.66526
2.66999
2.67512
2.68041
2.68557
2.69022
2.69408
2.69696
2.69896
2.70028
2.70125
2.70214
2.70273
2.70312
2.70343
2.70349
2.70345
2.70368
2.70425
2.70537
2.70673
2.70775
2.70821
2.70822
2.70796
2.70742
2.70643
2.70476
2.70225
2.69907
2.69549
2.69179
2.68826
2.68521
2.68285
2.68192
1
1
1
1
1
1
1
1
1
1
1
1
1
1
1
1
1
1
1
1
1
1
1
1
1
1
1
1
1
1
1
1
1
1
1
1
1
1
1
1
1
1
1
1
1
1
1
1
1
1
1
1.85878
2.60879
2.65505
2.65433
2.65493
2.65552
2.65597
2.65696
2.65815
2.66029
2.66329
2.66708
2.67179
2.67701
2.68219
2.68691
2.69085
2.69391
2.69609
2.6976
2.69872
2.6993
2.69935
2.69926
2.69899
2.69851
2.69813
2.69792
2.69809
2.69873
2.69937
2.69962
2.69943
2.69887
2.69792
2.69638
2.69396
2.69043
2.68587
2.68059
2.67505
2.66961
2.6643
2.65833
2.65292
1
1
1
1
1
1
1
1
1
1
1
1
1
1
1
1
1
1
1
1
1
1
1
1
1
1
1
1
1
1
1
1
1
1
1
1
1
1
1
1
1
1
1
1
1
1
1
1
1
1
1
1.59368
2.50878
2.64633
2.64966
2.65282
2.65506
2.6569
2.65753
2.65823
2.65898
2.66012
2.66217
2.66524
2.66924
2.67384
2.67861
2.68309
2.68701
2.69018
2.69258
2.69432
2.69525
2.69534
2.69511
2.69461
2.6938
2.69291
2.69189
2.69104
2.69078
2.69071
2.69055
2.69004
2.68908
2.6876
2.68536
2.68201
2.67725
2.67108
2.66368
2.65513
2.645
2.63301
2.62071
2.61146
1
1
1
1
1
1
1
1
1
1
1
1
1
1
1
1
1
1
1
1
1
1
1
1
1
1
1
1
1
1
1
1
1
1
1
1
1
1
1
1
1
1
1
1
1
1
1
1
1
1
1
1.26077
2.38733
2.63585
2.63563
2.64212
2.64867
2.65331
2.65589
2.65747
2.65844
2.65919
2.66
2.66137
2.66367
2.66677
2.67055
2.67468
2.67883
2.68264
2.68589
2.68847
2.69014
2.69065
2.6905
2.69001
2.68908
2.68783
2.68614
2.68435
2.68299
2.68198
2.68112
2.68007
2.67855
2.6764
2.67331
2.66889
2.66271
2.65453
2.64414
2.63125
2.61552
2.59671
2.5783
2.57042
1
1
1
1
1
1
1
1
1
1
1
1
1
1
1
1
1
1
1
1
1
1
1
1
1
1
1
1
1
1
1
1
1
1
1
1
1
1
1
1
1
1
1
1
1
1
1
1
1
1
1
1.01943
2.28533
2.63357
2.62957
2.63234
2.63777
2.64508
2.65056
2.65418
2.65645
2.65782
2.65869
2.65946
2.6605
2.66203
2.6642
2.66708
2.67056
2.67429
2.67788
2.68113
2.68365
2.68497
2.68522
2.68492
2.68411
2.68271
2.68059
2.67804
2.67558
2.67344
2.67159
2.6697
2.6674
2.6644
2.6603
2.65466
2.64685
2.63639
2.62272
2.60511
2.5811
2.54477
2.47932
2.33974
1
1
1
1
1
1
1
1
1
1
1
1
1
1
1
1
1
1
1
1
1
1
1
1
1
1
1
1
1
1
1
1
1
1
1
1
1
1
1
1
1
1
1
1
1
1
1
1
1
1
1
1.00007
2.14311
2.62016
2.62024
2.62426
2.62964
2.636
2.64227
2.64758
2.6517
2.65459
2.65637
2.65742
2.65816
2.65885
2.65972
2.6611
2.66325
2.6662
2.66936
2.67271
2.67574
2.67794
2.67892
2.67895
2.67844
2.67715
2.6749
2.67188
2.66849
2.66518
2.66212
2.65911
2.65578
2.65172
2.64646
2.63944
2.62988
2.61696
2.59959
2.57578
2.54146
2.48608
2.40416
2.18998
1
1
1
1
1
1
1
1
1
1
1
1
1
1
1
1
1
1
1
1
1
1
1
1
1
1
1
1
1
1
1
1
1
1
1
1
1
1
1
1
1
1
1
1
1
1
1
1
1
1
1
0.999999
1.93666
2.60068
2.62511
2.62574
2.62776
2.63046
2.63454
2.63962
2.6446
2.64888
2.6521
2.65422
2.65547
2.65612
2.65641
2.65677
2.65761
2.65925
2.66149
2.66418
2.66703
2.66962
2.67138
2.67203
2.67185
2.67089
2.66884
2.66568
2.6617
2.65733
2.65294
2.64858
2.64395
2.63861
2.63201
2.62347
2.61207
2.5967
2.57567
2.54678
2.50393
2.44483
2.32221
2.11534
1
1
1
1
1
1
1
1
1
1
1
1
1
1
1
1
1
1
1
1
1
1
1
1
1
1
1
1
1
1
1
1
1
1
1
1
1
1
1
1
1
1
1
1
1
1
1
1
1
1
1
1
1.64786
2.51873
2.62406
2.62417
2.62532
2.62703
2.62968
2.6332
2.63742
2.64185
2.6459
2.64915
2.6514
2.65271
2.65314
2.65314
2.6532
2.6537
2.65485
2.65639
2.65838
2.66062
2.66269
2.66396
2.66421
2.66365
2.662
2.65901
2.65478
2.64966
2.64407
2.63828
2.63217
2.62537
2.61726
2.60713
2.59385
2.57627
2.55207
2.51929
2.4712
2.40143
2.27323
2.08664
1
1
1
1
1
1
1
1
1
1
1
1
1
1
1
1
1
1
1
1
1
1
1
1
1
1
1
1
1
1
1
1
1
1
1
1
1
1
1
1
1
1
1
1
1
1
1
1
1
1
1
1
1.27957
2.39065
2.61829
2.61599
2.61864
2.62248
2.62551
2.62834
2.6315
2.6351
2.63894
2.64261
2.64569
2.6479
2.64907
2.64936
2.64927
2.64924
2.64951
2.64987
2.65065
2.65188
2.65347
2.65489
2.65554
2.65532
2.65415
2.65161
2.64753
2.64206
2.63556
2.62843
2.62075
2.61232
2.60256
2.59078
2.5757
2.55612
2.52955
2.49334
2.44286
2.36774
2.24942
2.09869
1
1
1
1
1
1
1
1
1
1
1
1
1
1
1
1
1
1
1
1
1
1
1
1
1
1
1
1
1
1
1
1
1
1
1
1
1
1
1
1
1
1
1
1
1
1
1
1
1
1
1
1
1.02189
2.27011
2.61543
2.61139
2.61279
2.61703
2.62074
2.62367
2.62641
2.62929
2.63242
2.63572
2.63896
2.64169
2.64363
2.64467
2.64496
2.64491
2.64469
2.64431
2.64398
2.64401
2.64448
2.64535
2.64603
2.64603
2.6453
2.64328
2.63958
2.63413
2.6271
2.61894
2.60981
2.59978
2.58831
2.57485
2.55811
2.53676
2.50856
2.47035
2.41845
2.34452
2.24189
2.11679
1
1
1
1
1
1
1
1
1
1
1
1
1
1
1
1
1
1
1
1
1
1
1
1
1
1
1
1
1
1
1
1
1
1
1
1
1
1
1
1
1
1
1
1
1
1
1
1
1
1
1
1
1.00008
2.08924
2.59295
2.60133
2.60664
2.61128
2.61504
2.61834
2.62123
2.62389
2.62649
2.62921
2.63208
2.6347
2.63698
2.63872
2.63976
2.64012
2.63992
2.63931
2.6383
2.63723
2.63643
2.63618
2.63626
2.63615
2.63554
2.63389
2.63067
2.62559
2.61851
2.60974
2.59949
2.58799
2.57484
2.55968
2.54139
2.51859
2.48934
2.45063
2.39837
2.33008
2.24148
2.13424
1
1
1
1
1
1
1
1
1
1
1
1
1
1
1
1
1
1
1
1
1
1
1
1
1
1
1
1
1
1
1
1
1
1
1
1
1
1
1
1
1
1
1
1
1
1
1
1
1
1
1
1
0.999999
1.82197
2.54868
2.60166
2.60425
2.60741
2.61007
2.61294
2.61586
2.61855
2.62095
2.62321
2.62552
2.62769
2.62975
2.63172
2.63338
2.63439
2.63453
2.63406
2.63288
2.63116
2.62932
2.62782
2.62685
2.62615
2.62527
2.62371
2.62086
2.61623
2.60945
2.60053
2.58958
2.57696
2.56239
2.54567
2.52593
2.50193
2.47211
2.43356
2.3833
2.32096
2.24352
2.15223
1
1
1
1
1
1
1
1
1
1
1
1
1
1
1
1
1
1
1
1
1
1
1
1
1
1
1
1
1
1
1
1
1
1
1
1
1
1
1
1
1
1
1
1
1
1
1
1
1
1
1
1
1
1.44435
2.43414
2.59925
2.59884
2.60145
2.60459
2.60768
2.61059
2.61331
2.61569
2.61773
2.61961
2.62125
2.62277
2.62441
2.62616
2.62766
2.62839
2.62821
2.62726
2.62542
2.62301
2.62051
2.61836
2.61662
2.615
2.61307
2.61022
2.60592
2.5996
2.59098
2.57992
2.56661
2.55101
2.53302
2.51199
2.487
2.45695
2.41884
2.37201
2.31545
2.24643
2.16897
1
1
1
1
1
1
1
1
1
1
1
1
1
1
1
1
1
1
1
1
1
1
1
1
1
1
1
1
1
1
1
1
1
1
1
1
1
1
1
1
1
1
1
1
1
1
1
1
1
1
1
1
1
1.05621
2.29595
2.59941
2.59434
2.59528
2.59853
2.60184
2.60484
2.60762
2.61008
2.61212
2.61384
2.61508
2.6161
2.61721
2.61861
2.62017
2.62135
2.62159
2.62099
2.61939
2.61685
2.61379
2.61068
2.60785
2.60523
2.60254
2.59932
2.59502
2.58904
2.58087
2.57013
2.55669
2.54056
2.52172
2.49975
2.47401
2.44389
2.40649
2.36303
2.31195
2.24982
2.18424
1
1
1
1
1
1
1
1
1
1
1
1
1
1
1
1
1
1
1
1
1
1
1
1
1
1
1
1
1
1
1
1
1
1
1
1
1
1
1
1
1
1
1
1
1
1
1
1
1
1
1
1
1
1.00067
2.12867
2.57482
2.58131
2.58726
2.59159
2.59532
2.59862
2.60156
2.60414
2.60631
2.60808
2.60917
2.60988
2.61051
2.61136
2.61254
2.61374
2.6143
2.61397
2.61275
2.61045
2.6073
2.60368
2.59999
2.59632
2.59261
2.58856
2.58381
2.57782
2.57002
2.55983
2.54679
2.53073
2.51157
2.48912
2.4629
2.43313
2.39646
2.35588
2.30939
2.25344
2.19656
1
1
1
1
1
1
1
1
1
1
1
1
1
1
1
1
1
1
1
1
1
1
1
1
1
1
1
1
1
1
1
1
1
1
1
1
1
1
1
1
1
1
1
1
1
1
1
1
1
1
1
1
1
0.999995
1.84222
2.53184
2.57764
2.58237
2.58596
2.58917
2.59228
2.59522
2.59785
2.60014
2.60198
2.60316
2.60377
2.60409
2.60447
2.60511
2.60597
2.60656
2.60639
2.60549
2.60355
2.60059
2.59683
2.59263
2.58814
2.58347
2.57844
2.57293
2.56653
2.55876
2.54899
2.53657
2.52108
2.5022
2.47981
2.45366
2.42435
2.38858
2.351
2.30727
2.25641
2.20563
1
1
1
1
1
1
1
1
1
1
1
1
1
1
1
1
1
1
1
1
1
1
1
1
1
1
1
1
1
1
1
1
1
1
1
1
1
1
1
1
1
1
1
1
1
1
1
1
1
1
1
1
1
0.999999
1.42696
2.41927
2.57589
2.57563
2.57834
2.58246
2.58605
2.58887
2.59144
2.59373
2.59563
2.59698
2.59769
2.5979
2.59795
2.59809
2.59843
2.59871
2.59852
2.59772
2.59603
2.59335
2.58975
2.58544
2.58052
2.57513
2.56921
2.56275
2.55556
2.5474
2.53772
2.52586
2.51118
2.4931
2.47137
2.44596
2.41689
2.38309
2.34797
2.30526
2.25952
2.21321
1
1
1
1
1
1
1
1
1
1
1
1
1
1
1
1
1
1
1
1
1
1
1
1
1
1
1
1
1
1
1
1
1
1
1
1
1
1
1
1
1
1
1
1
1
1
1
1
1
1
1
1
1
1
1.04953
2.27424
2.57797
2.57211
2.57296
2.57582
2.57912
2.58189
2.5845
2.58685
2.58886
2.5904
2.59132
2.59162
2.59153
2.59134
2.59118
2.59104
2.59064
2.58975
2.58813
2.58567
2.58231
2.5781
2.57307
2.56727
2.56071
2.55345
2.5454
2.53655
2.52654
2.51489
2.50094
2.48388
2.4633
2.43897
2.41067
2.37946
2.34549
2.30474
2.26393
2.22017
1
1
1
1
1
1
1
1
1
1
1
1
1
1
1
1
1
1
1
1
1
1
1
1
1
1
1
1
1
1
1
1
1
1
1
1
1
1
1
1
1
1
1
1
1
1
1
1
1
1
1
1
1
1
1.00047
2.06711
2.5473
2.55915
2.56612
2.57032
2.57281
2.5751
2.57747
2.57973
2.58177
2.58347
2.5846
2.58511
2.58502
2.58468
2.5842
2.58367
2.58294
2.58179
2.58005
2.57761
2.57438
2.57034
2.56541
2.55954
2.5527
2.54493
2.53618
2.52655
2.51589
2.50403
2.49047
2.47435
2.45514
2.43213
2.40547
2.37652
2.3434
2.30551
2.26845
2.22636
1
1
1
1
1
1
1
1
1
1
1
1
1
1
1
1
1
1
1
1
1
1
1
1
1
1
1
1
1
1
1
1
1
1
1
1
1
1
1
1
1
1
1
1
1
1
1
1
1
1
1
1
1
1
0.999997
1.68885
2.47615
2.55996
2.56221
2.56446
2.56664
2.56874
2.5708
2.57282
2.57471
2.57639
2.57762
2.57832
2.57832
2.57797
2.57732
2.57648
2.57542
2.57399
2.57204
2.56949
2.56627
2.56232
2.55752
2.55175
2.54491
2.53692
2.52776
2.51755
2.50623
2.49385
2.48025
2.46466
2.44674
2.42518
2.40042
2.37332
2.34183
2.30751
2.27243
2.23213
1
1
1
1
1
1
1
1
1
1
1
1
1
1
1
1
1
1
1
1
1
1
1
1
1
1
1
1
1
1
1
1
1
1
1
1
1
1
1
1
1
1
1
1
1
1
1
1
1
1
1
1
1
1
0.999999
1.19463
2.3388
2.55936
2.55376
2.55488
2.5581
2.56112
2.56355
2.56564
2.56748
2.56909
2.57035
2.57115
2.57131
2.57099
2.57028
2.56928
2.568
2.56635
2.56418
2.56145
2.5581
2.55409
2.54932
2.54366
2.53697
2.52905
2.51983
2.50933
2.49758
2.48467
2.47072
2.45521
2.43818
2.4178
2.39498
2.37015
2.34061
2.30919
2.27532
2.23801
1
1
1
1
1
1
1
1
1
1
1
1
1
1
1
1
1
1
1
1
1
1
1
1
1
1
1
1
1
1
1
1
1
1
1
1
1
1
1
1
1
1
1
1
1
1
1
1
1
1
1
1
1
1
1
1.00904
2.19321
2.54003
2.53991
2.54443
2.54904
2.55285
2.55583
2.55823
2.56016
2.56177
2.56302
2.56386
2.56413
2.56384
2.56311
2.56204
2.56062
2.55881
2.55648
2.55359
2.55007
2.54593
2.54109
2.53547
2.5289
2.52118
2.51214
2.50167
2.48979
2.47659
2.46233
2.44648
2.42974
2.41026
2.38965
2.36645
2.33829
2.30958
2.27805
2.24462
1
1
1
1
1
1
1
1
1
1
1
1
1
1
1
1
1
1
1
1
1
1
1
1
1
1
1
1
1
1
1
1
1
1
1
1
1
1
1
1
1
1
1
1
1
1
1
1
1
1
1
1
1
1
1
0.999995
1.8807
2.50458
2.53419
2.53888
2.54281
2.54529
2.54801
2.55049
2.55256
2.55423
2.55553
2.55639
2.55674
2.55647
2.55573
2.55461
2.5531
2.55119
2.54878
2.54582
2.54219
2.5379
2.53292
2.52722
2.52069
2.51314
2.50436
2.49417
2.48248
2.46933
2.45491
2.4388
2.42203
2.40324
2.38408
2.36108
2.33547
2.31009
2.28046
2.24976
1
1
1
1
1
1
1
1
1
1
1
1
1
1
1
1
1
1
1
1
1
1
1
1
1
1
1
1
1
1
1
1
1
1
1
1
1
1
1
1
1
1
1
1
1
1
1
1
1
1
1
1
1
1
1
0.999996
1.397
2.39389
2.53633
2.53415
2.53594
2.53819
2.54045
2.54264
2.54467
2.5464
2.5478
2.54876
2.54922
2.549
2.54829
2.54713
2.54555
2.54356
2.54111
2.53811
2.53444
2.53007
2.52496
2.51917
2.51259
2.50511
2.49654
2.48669
2.47539
2.46256
2.44826
2.43227
2.41539
2.39704
2.3781
2.35575
2.33343
2.30931
2.2815
2.25335
1
1
1
1
1
1
1
1
1
1
1
1
1
1
1
1
1
1
1
1
1
1
1
1
1
1
1
1
1
1
1
1
1
1
1
1
1
1
1
1
1
1
1
1
1
1
1
1
1
1
1
1
1
1
1
0.999999
1.04012
2.23946
2.53538
2.52933
2.52945
2.53172
2.53343
2.53514
2.53688
2.53847
2.53985
2.5409
2.54151
2.54137
2.54072
2.53955
2.53789
2.53581
2.5333
2.5303
2.52665
2.52229
2.51716
2.5113
2.50464
2.49714
2.48868
2.47911
2.46824
2.45585
2.44205
2.42651
2.40954
2.39159
2.37284
2.35172
2.33065
2.30676
2.28184
2.25602
1
1
1
1
1
1
1
1
1
1
1
1
1
1
1
1
1
1
1
1
1
1
1
1
1
1
1
1
1
1
1
1
1
1
1
1
1
1
1
1
1
1
1
1
1
1
1
1
1
1
1
1
1
1
1
1
1.00026
1.9473
2.49591
2.519
2.52458
2.52737
2.52779
2.5286
2.52964
2.53075
2.53187
2.53286
2.53357
2.53356
2.53306
2.53194
2.53025
2.5281
2.52553
2.52251
2.51888
2.51457
2.5095
2.50366
2.49698
2.48944
2.48102
2.47159
2.46106
2.44909
2.43598
2.42092
2.4043
2.38716
2.36861
2.34805
2.32712
2.30473
2.28217
2.25738
1
1
1
1
1
1
1
1
1
1
1
1
1
1
1
1
1
1
1
1
1
1
1
1
1
1
1
1
1
1
1
1
1
1
1
1
1
1
1
1
1
1
1
1
1
1
1
1
1
1
1
1
1
1
1
1
0.999998
1.44677
2.38895
2.5197
2.51874
2.52106
2.52227
2.52284
2.52323
2.5237
2.52428
2.52495
2.52553
2.52561
2.52521
2.52418
2.52252
2.52033
2.51769
2.51461
2.51098
2.50675
2.50181
2.49607
2.48945
2.48191
2.47355
2.46414
2.45385
2.44221
2.42977
2.41517
2.3996
2.38341
2.36457
2.34467
2.3247
2.30392
2.2819
2.25723
1
1
1
1
1
1
1
1
1
1
1
1
1
1
1
1
1
1
1
1
1
1
1
1
1
1
1
1
1
1
1
1
1
1
1
1
1
1
1
1
1
1
1
1
1
1
1
1
1
1
1
1
1
1
1
1
1
1.0504
2.23035
2.51801
2.51317
2.51362
2.51554
2.51642
2.51676
2.51696
2.51711
2.51734
2.51759
2.51757
2.51721
2.51629
2.51475
2.5126
2.50994
2.50681
2.50317
2.49898
2.49414
2.48853
2.48204
2.4746
2.46636
2.45696
2.44681
2.43545
2.4234
2.40945
2.39516
2.37924
2.3608
2.34242
2.32327
2.30288
2.28065
2.25698
1
1
1
1
1
1
1
1
1
1
1
1
1
1
1
1
1
1
1
1
1
1
1
1
1
1
1
1
1
1
1
1
1
1
1
1
1
1
1
1
1
1
1
1
1
1
1
1
1
1
1
1
1
1
1
1
1
1.00044
1.92776
2.47291
2.49792
2.50575
2.50941
2.51016
2.51056
2.51069
2.51057
2.51038
2.51013
2.50981
2.50926
2.50832
2.50685
2.50477
2.50214
2.49898
2.49532
2.49114
2.48638
2.48088
2.47455
2.4673
2.45926
2.44992
2.43992
2.42887
2.41708
2.40389
2.39035
2.37458
2.35772
2.34071
2.32161
2.30122
2.28003
2.25801
1
1
1
1
1
1
1
1
1
1
1
1
1
1
1
1
1
1
1
1
1
1
1
1
1
1
1
1
1
1
1
1
1
1
1
1
1
1
1
1
1
1
1
1
1
1
1
1
1
1
1
1
1
1
1
1
1
0.999998
1.39447
2.3608
2.50008
2.49898
2.50114
2.50246
2.5037
2.5044
2.50428
2.50386
2.5032
2.50245
2.50157
2.50046
2.49897
2.49696
2.4944
2.49127
2.48761
2.48343
2.47868
2.47326
2.46706
2.46005
2.45224
2.44308
2.43329
2.4226
2.41102
2.39847
2.38517
2.37013
2.3548
2.33814
2.31923
2.30018
2.28053
2.25946
1
1
1
1
1
1
1
1
1
1
1
1
1
1
1
1
1
1
1
1
1
1
1
1
1
1
1
1
1
1
1
1
1
1
1
1
1
1
1
1
1
1
1
1
1
1
1
1
1
1
1
1
1
1
1
1
1
0.999999
1.03776
2.20562
2.48956
2.48927
2.4914
2.49315
2.49544
2.49702
2.49728
2.49697
2.49624
2.49527
2.49411
2.49278
2.49116
2.48915
2.48663
2.48353
2.47988
2.47569
2.47093
2.46557
2.45941
2.45272
2.44508
2.4363
2.42684
2.4165
2.40514
2.39305
2.38011
2.36599
2.35124
2.33483
2.31707
2.29965
2.281
2.26006
1
1
1
1
1
1
1
1
1
1
1
1
1
1
1
1
1
1
1
1
1
1
1
1
1
1
1
1
1
1
1
1
1
1
1
1
1
1
1
1
1
1
1
1
1
1
1
1
1
1
1
1
1
1
1
1
1
1
1.00022
1.8411
2.44085
2.47989
2.48321
2.48539
2.48829
2.48991
2.49038
2.49016
2.48953
2.48852
2.48718
2.4856
2.48376
2.48161
2.47904
2.47594
2.4723
2.46809
2.46331
2.45793
2.45192
2.44523
2.43794
2.4296
2.42052
2.41049
2.3994
2.38777
2.37531
2.3617
2.34718
2.33155
2.31521
2.29873
2.28054
2.2599
1
1
1
1
1
1
1
1
1
1
1
1
1
1
1
1
1
1
1
1
1
1
1
1
1
1
1
1
1
1
1
1
1
1
1
1
1
1
1
1
1
1
1
1
1
1
1
1
1
1
1
1
1
1
1
1
1
1
0.999999
1.25097
2.31343
2.48623
2.47766
2.47888
2.48019
2.48144
2.48188
2.48203
2.48183
2.4812
2.48004
2.47847
2.47652
2.47424
2.47157
2.4684
2.46472
2.46049
2.45569
2.45032
2.44437
2.43782
2.43074
2.42281
2.41414
2.40441
2.39376
2.38264
2.37057
2.35722
2.34325
2.32879
2.31309
2.29692
2.27921
2.25985
1
1
1
1
1
1
1
1
1
1
1
1
1
1
1
1
1
1
1
1
1
1
1
1
1
1
1
1
1
1
1
1
1
1
1
1
1
1
1
1
1
1
1
1
1
1
1
1
1
1
1
1
1
1
1
1
1
1
1
1.01438
2.14127
2.46412
2.46386
2.46717
2.47182
2.47253
2.4729
2.47343
2.47369
2.47347
2.47272
2.47139
2.46951
2.46718
2.46441
2.46117
2.45741
2.45312
2.44829
2.44291
2.43699
2.43055
2.42359
2.41597
2.40766
2.39829
2.38818
2.37751
2.36573
2.35278
2.33964
2.3259
2.31032
2.29459
2.27794
2.25997
1
1
1
1
1
1
1
1
1
1
1
1
1
1
1
1
1
1
1
1
1
1
1
1
1
1
1
1
1
1
1
1
1
1
1
1
1
1
1
1
1
1
1
1
1
1
1
1
1
1
1
1
1
1
1
1
1
1
1
1.00001
1.68599
2.39457
2.46519
2.46641
2.46636
2.4651
2.46504
2.46529
2.46556
2.4655
2.46503
2.46401
2.46234
2.46011
2.45734
2.45404
2.45021
2.44585
2.44098
2.4356
2.4297
2.42334
2.41651
2.40916
2.40115
2.39219
2.38259
2.3723
2.36091
2.34858
2.33616
2.32265
2.30732
2.2925
2.27695
2.25998
1
1
1
1
1
1
1
1
1
1
1
1
1
1
1
1
1
1
1
1
1
1
1
1
1
1
1
1
1
1
1
1
1
1
1
1
1
1
1
1
1
1
1
1
1
1
1
1
1
1
1
1
1
1
1
1
1
1
1
0.999997
1.12705
2.24819
2.47001
2.46207
2.45898
2.458
2.45767
2.45748
2.45742
2.45729
2.45692
2.45614
2.45477
2.45281
2.45022
2.44703
2.44323
2.43886
2.43398
2.4286
2.42272
2.41638
2.4096
2.4024
2.39461
2.38605
2.37684
2.36693
2.35607
2.34436
2.33236
2.31908
2.30445
2.29056
2.27578
2.2595
1
1
1
1
1
1
1
1
1
1
1
1
1
1
1
1
1
1
1
1
1
1
1
1
1
1
1
1
1
1
1
1
1
1
1
1
1
1
1
1
1
1
1
1
1
1
1
1
1
1
1
1
1
1
1
1
1
1
1
0.999999
1.00348
1.98435
2.43388
2.44384
2.44964
2.45102
2.45153
2.45117
2.45062
2.45
2.44924
2.44829
2.44698
2.44521
2.44285
2.43988
2.43623
2.43197
2.42713
2.42179
2.41595
2.40964
2.4029
2.39578
2.38817
2.37995
2.37106
2.36158
2.35129
2.34002
2.32836
2.31558