/*--------------------------------*- C++ -*----------------------------------*\
  =========                 |
  \\      /  F ield         | OpenFOAM: The Open Source CFD Toolbox
   \\    /   O peration     | Website:  https://openfoam.org
    \\  /    A nd           | Version:  7
     \\/     M anipulation  |
\*---------------------------------------------------------------------------*/
FoamFile
{
    version     2.0;
    format      ascii;
    class       volScalarField;
    location    "3.7";
    object      T;
}
// * * * * * * * * * * * * * * * * * * * * * * * * * * * * * * * * * * * * * //

dimensions      [0 0 0 1 0 0 0];

internalField   nonuniform List<scalar> 
64512
(
1
1
1
1
1
1
1
1
1
1
1
1
1
1
1
1
1
1
1
1
1
1
1
1
1
1
1
1
1
1
1
1
1
1
1
1
1
1
1
1
1
1
1
1
1
1
1
1
1.0112
2.29826
2.68196
2.69404
2.70083
2.70596
2.70986
2.71313
2.71615
2.71916
2.72221
2.72532
2.72853
2.73191
2.73554
2.7395
2.74372
2.74791
2.75169
2.75479
2.75717
2.7591
2.76107
2.76357
2.76676
2.77046
2.77421
2.77746
2.77986
2.78159
2.7831
2.78481
2.78689
2.78922
2.79151
2.79353
2.79527
2.79685
2.79839
2.79993
2.80145
2.80292
2.80439
2.8059
2.8074
2.80865
2.80948
2.80984
1
1
1
1
1
1
1
1
1
1
1
1
1
1
1
1
1
1
1
1
1
1
1
1
1
1
1
1
1
1
1
1
1
1
1
1
1
1
1
1
1
1
1
1
1
1
1
1
1.00603
2.29474
2.68202
2.69419
2.70056
2.70562
2.70952
2.71281
2.71588
2.71893
2.72204
2.7252
2.72847
2.73189
2.73554
2.73949
2.74368
2.74783
2.75158
2.75466
2.75705
2.759
2.76099
2.7635
2.76668
2.77035
2.77406
2.77726
2.77965
2.78138
2.7829
2.78463
2.78672
2.78906
2.79134
2.79335
2.79508
2.79666
2.7982
2.79975
2.80127
2.80274
2.8042
2.80568
2.80716
2.8084
2.80924
2.80961
1
1
1
1
1
1
1
1
1
1
1
1
1
1
1
1
1
1
1
1
1
1
1
1
1
1
1
1
1
1
1
1
1
1
1
1
1
1
1
1
1
1
1
1
1
1
1
1
1.00037
2.28478
2.68254
2.69375
2.6997
2.70468
2.70864
2.71206
2.71528
2.71849
2.72173
2.725
2.72834
2.73182
2.73552
2.73947
2.74363
2.74772
2.7514
2.75444
2.7568
2.75878
2.76081
2.76335
2.76653
2.77017
2.77383
2.77697
2.77932
2.78105
2.78259
2.78434
2.78646
2.7888
2.79107
2.79308
2.7948
2.79637
2.79791
2.79947
2.80099
2.80245
2.80388
2.80534
2.80678
2.80801
2.80885
2.80923
1
1
1
1
1
1
1
1
1
1
1
1
1
1
1
1
1
1
1
1
1
1
1
1
1
1
1
1
1
1
1
1
1
1
1
1
1
1
1
1
1
1
1
1
1
1
1
1
1.00001
2.26981
2.68329
2.69347
2.6989
2.70371
2.70762
2.71108
2.71442
2.7178
2.72122
2.72463
2.7281
2.73168
2.73543
2.7394
2.74354
2.74755
2.75113
2.7541
2.75642
2.75841
2.76049
2.76308
2.76628
2.76989
2.77348
2.77656
2.77885
2.78056
2.78212
2.7839
2.78603
2.78838
2.79066
2.79266
2.79437
2.79594
2.7975
2.79906
2.80059
2.80203
2.80343
2.80482
2.80621
2.80742
2.80825
2.80865
1
1
1
1
1
1
1
1
1
1
1
1
1
1
1
1
1
1
1
1
1
1
1
1
1
1
1
1
1
1
1
1
1
1
1
1
1
1
1
1
1
1
1
1
1
1
1
1
1
2.24938
2.68423
2.69335
2.69813
2.70266
2.70643
2.7099
2.71337
2.71696
2.72062
2.72426
2.72792
2.73163
2.73544
2.73942
2.74351
2.74742
2.75085
2.7537
2.75593
2.75791
2.76003
2.76268
2.76592
2.76952
2.77306
2.77605
2.77827
2.77994
2.7815
2.7833
2.78546
2.78782
2.7901
2.79209
2.79381
2.79538
2.79695
2.79854
2.80007
2.80149
2.80284
2.80417
2.8055
2.80667
2.8075
2.8079
1
1
1
1
1
1
1
1
1
1
1
1
1
1
1
1
1
1
1
1
1
1
1
1
1
1
1
1
1
1
1
1
1
1
1
1
1
1
1
1
1
1
1
1
1
1
1
1
1
2.22281
2.68469
2.69328
2.69758
2.70185
2.70545
2.70886
2.71238
2.71611
2.71996
2.72377
2.72757
2.7314
2.73529
2.73931
2.7434
2.74723
2.75052
2.75322
2.75533
2.75728
2.75943
2.76214
2.76543
2.76905
2.77253
2.77544
2.77758
2.77919
2.78073
2.78254
2.78472
2.7871
2.78938
2.79137
2.79309
2.79468
2.79627
2.79787
2.7994
2.8008
2.8021
2.80337
2.80464
2.80578
2.8066
2.80701
1
1
1
1
1
1
1
1
1
1
1
1
1
1
1
1
1
1
1
1
1
1
1
1
1
1
1
1
1
1
1
1
1
1
1
1
1
1
1
1
1
1
1
1
1
1
1
1
1
2.18939
2.68394
2.69315
2.69726
2.70136
2.70475
2.70799
2.71142
2.71516
2.7191
2.72304
2.727
2.73101
2.73505
2.73918
2.74329
2.74705
2.75016
2.75268
2.75461
2.75649
2.75866
2.76144
2.76481
2.76847
2.77192
2.77473
2.77678
2.77833
2.77983
2.78164
2.78383
2.78621
2.7885
2.7905
2.79222
2.79383
2.79545
2.79707
2.79859
2.79995
2.80119
2.8024
2.80361
2.80472
2.80553
2.80594
1
1
1
1
1
1
1
1
1
1
1
1
1
1
1
1
1
1
1
1
1
1
1
1
1
1
1
1
1
1
1
1
1
1
1
1
1
1
1
1
1
1
1
1
1
1
1
1
1
2.1486
2.68085
2.69283
2.69715
2.70122
2.70439
2.70737
2.71056
2.71415
2.71803
2.72202
2.72612
2.73035
2.73463
2.73893
2.74311
2.74682
2.74976
2.75206
2.7538
2.75555
2.75771
2.76056
2.76403
2.76774
2.77118
2.77391
2.77585
2.77732
2.77879
2.78058
2.78278
2.78518
2.78746
2.78946
2.7912
2.79284
2.79448
2.79612
2.79763
2.79895
2.80013
2.80127
2.80243
2.80351
2.80429
2.80468
1
1
1
1
1
1
1
1
1
1
1
1
1
1
1
1
1
1
1
1
1
1
1
1
1
1
1
1
1
1
1
1
1
1
1
1
1
1
1
1
1
1
1
1
1
1
1
1
1
2.09971
2.67431
2.69231
2.69717
2.70137
2.70435
2.70699
2.7098
2.71306
2.71672
2.72064
2.7248
2.72926
2.73386
2.73844
2.7428
2.74654
2.74932
2.75141
2.75292
2.7545
2.75661
2.7595
2.76308
2.76687
2.77031
2.77296
2.77479
2.77618
2.77759
2.77936
2.78156
2.78396
2.78624
2.78824
2.78999
2.79165
2.79332
2.79497
2.79647
2.79774
2.79887
2.79997
2.80111
2.80216
2.80291
2.80327
1
1
1
1
1
1
1
1
1
1
1
1
1
1
1
1
1
1
1
1
1
1
1
1
1
1
1
1
1
1
1
1
1
1
1
1
1
1
1
1
1
1
1
1
1
1
1
1
1
2.042
2.66407
2.69139
2.69708
2.70157
2.70442
2.70675
2.70912
2.71192
2.71522
2.7189
2.723
2.72762
2.73256
2.73752
2.7422
2.74608
2.74879
2.75069
2.75197
2.75334
2.75534
2.75824
2.76193
2.76583
2.76931
2.77192
2.77365
2.77495
2.7763
2.77804
2.78023
2.78262
2.78489
2.78688
2.78862
2.79029
2.79198
2.79362
2.79509
2.79633
2.79741
2.79848
2.7996
2.80063
2.80135
2.80168
1
1
1
1
1
1
1
1
1
1
1
1
1
1
1
1
1
1
1
1
1
1
1
1
1
1
1
1
1
1
1
1
1
1
1
1
1
1
1
1
1
1
1
1
1
1
1
1
1
1.97436
2.65046
2.68931
2.69626
2.70139
2.70429
2.70641
2.70843
2.71079
2.71362
2.71692
2.72077
2.72537
2.73059
2.736
2.74113
2.74533
2.7481
2.74986
2.75093
2.75203
2.75385
2.75669
2.76046
2.76449
2.76807
2.77068
2.77235
2.77356
2.77485
2.77656
2.77875
2.78114
2.7834
2.78537
2.78711
2.78877
2.79044
2.79206
2.7935
2.79469
2.79574
2.7968
2.79792
2.79894
2.79963
2.79994
1
1
1
1
1
1
1
1
1
1
1
1
1
1
1
1
1
1
1
1
1
1
1
1
1
1
1
1
1
1
1
1
1
1
1
1
1
1
1
1
1
1
1
1
1
1
1
1
1
1.89531
2.63341
2.68544
2.6942
2.70034
2.70366
2.70585
2.70769
2.70971
2.71209
2.71491
2.71832
2.72268
2.72801
2.73385
2.73956
2.74428
2.74732
2.74904
2.74992
2.75072
2.75226
2.75491
2.7587
2.76285
2.76656
2.76922
2.77085
2.772
2.77322
2.7749
2.77708
2.77948
2.78175
2.78371
2.78542
2.78705
2.78869
2.79028
2.79167
2.79283
2.79386
2.79491
2.79603
2.79703
2.79769
2.79799
1
1
1
1
1
1
1
1
1
1
1
1
1
1
1
1
1
1
1
1
1
1
1
1
1
1
1
1
1
1
1
1
1
1
1
1
1
1
1
1
1
1
1
1
1
1
1
1
1
1.8051
2.61287
2.67971
2.69067
2.698
2.70194
2.70461
2.70657
2.70845
2.71048
2.71279
2.71566
2.71958
2.72482
2.73096
2.73725
2.74266
2.74619
2.74803
2.74882
2.74934
2.75055
2.75294
2.75665
2.76092
2.76481
2.76759
2.76924
2.77031
2.77146
2.77308
2.77525
2.77766
2.77994
2.78189
2.78356
2.78513
2.78671
2.78824
2.7896
2.79074
2.79176
2.79282
2.79392
2.79491
2.79555
2.79585
1
1
1
1
1
1
1
1
1
1
1
1
1
1
1
1
1
1
1
1
1
1
1
1
1
1
1
1
1
1
1
1
1
1
1
1
1
1
1
1
1
1
1
1
1
1
1
1
1
1.70398
2.58957
2.67277
2.68575
2.69441
2.69919
2.70253
2.70491
2.70686
2.70867
2.71057
2.7129
2.71624
2.72113
2.72733
2.73407
2.74024
2.74452
2.74674
2.74758
2.74786
2.74872
2.75074
2.75428
2.75862
2.76274
2.76573
2.76746
2.76851
2.76958
2.77113
2.77325
2.77567
2.77795
2.77987
2.78149
2.78298
2.78448
2.78595
2.78728
2.78841
2.78943
2.79049
2.79157
2.79254
2.79316
2.79346
1
1
1
1
1
1
1
1
1
1
1
1
1
1
1
1
1
1
1
1
1
1
1
1
1
1
1
1
1
1
1
1
1
1
1
1
1
1
1
1
1
1
1
1
1
1
1
1
1
1.58932
2.55945
2.66768
2.68045
2.68979
2.69536
2.69952
2.70251
2.70486
2.70677
2.70849
2.7104
2.71316
2.71747
2.72343
2.73032
2.73706
2.74216
2.74494
2.74601
2.74613
2.74669
2.7483
2.75159
2.75596
2.76034
2.76361
2.76551
2.76657
2.76756
2.76901
2.77107
2.77347
2.77574
2.77764
2.77918
2.78058
2.78198
2.78338
2.78469
2.78583
2.78686
2.78791
2.78897
2.78991
2.79053
2.79083
1
1
1
1
1
1
1
1
1
1
1
1
1
1
1
1
1
1
1
1
1
1
1
1
1
1
1
1
1
1
1
1
1
1
1
1
1
1
1
1
1
1
1
1
1
1
1
1
1
1.45856
2.51685
2.66564
2.67518
2.6841
2.68976
2.69483
2.69882
2.70192
2.70432
2.70623
2.70802
2.71033
2.71398
2.71939
2.72609
2.73312
2.73896
2.74248
2.74403
2.74417
2.74455
2.74579
2.74872
2.75299
2.75756
2.76115
2.76328
2.7644
2.76535
2.76671
2.7687
2.77107
2.77334
2.77519
2.77664
2.77792
2.77921
2.78055
2.78184
2.78298
2.78401
2.78505
2.78607
2.78698
2.78759
2.78789
1
1
1
1
1
1
1
1
1
1
1
1
1
1
1
1
1
1
1
1
1
1
1
1
1
1
1
1
1
1
1
1
1
1
1
1
1
1
1
1
1
1
1
1
1
1
1
1
1
1.31139
2.45851
2.6695
2.67146
2.67843
2.68385
2.68939
2.69417
2.69817
2.70133
2.70373
2.70567
2.70775
2.71075
2.7154
2.72157
2.72854
2.7349
2.73923
2.74149
2.74195
2.74229
2.74321
2.74569
2.74973
2.75439
2.75831
2.76075
2.76202
2.76296
2.76424
2.76614
2.76846
2.77068
2.77246
2.77381
2.77496
2.77613
2.7774
2.77868
2.77983
2.78087
2.78189
2.78288
2.78376
2.78436
2.78467
1
1
1
1
1
1
1
1
1
1
1
1
1
1
1
1
1
1
1
1
1
1
1
1
1
1
1
1
1
1
1
1
1
1
1
1
1
1
1
1
1
1
1
1
1
1
1
1
1
1.15917
2.3893
2.67335
2.67133
2.67566
2.68002
2.68509
2.68992
2.69441
2.69822
2.70118
2.70342
2.70543
2.70792
2.71172
2.71706
2.72358
2.73012
2.73519
2.73828
2.73935
2.7398
2.74054
2.74258
2.74627
2.7509
2.7551
2.75791
2.75938
2.76035
2.76155
2.76334
2.76556
2.76772
2.76942
2.77067
2.7717
2.77277
2.77398
2.77523
2.77637
2.7774
2.77839
2.77933
2.78018
2.78076
2.78105
1
1
1
1
1
1
1
1
1
1
1
1
1
1
1
1
1
1
1
1
1
1
1
1
1
1
1
1
1
1
1
1
1
1
1
1
1
1
1
1
1
1
1
1
1
1
1
1
1
1.03453
2.32869
2.67503
2.67304
2.67652
2.68005
2.68433
2.68858
2.69255
2.69605
2.69898
2.70139
2.70345
2.7056
2.7086
2.71294
2.71861
2.72491
2.73045
2.73432
2.73621
2.73697
2.73769
2.73937
2.74264
2.74711
2.7515
2.75468
2.75642
2.75747
2.75861
2.76027
2.76238
2.76444
2.76606
2.7672
2.76813
2.76909
2.77021
2.77141
2.77252
2.77352
2.77449
2.7754
2.77624
2.77679
2.77707
1
1
1
1
1
1
1
1
1
1
1
1
1
1
1
1
1
1
1
1
1
1
1
1
1
1
1
1
1
1
1
1
1
1
1
1
1
1
1
1
1
1
1
1
1
1
1
1
1
1.00071
2.24476
2.67541
2.67612
2.67824
2.6811
2.68436
2.6877
2.69105
2.69434
2.69734
2.69984
2.7019
2.70385
2.70623
2.70958
2.71415
2.71977
2.72536
2.72978
2.73253
2.73377
2.73463
2.73603
2.73886
2.74305
2.74751
2.75101
2.75307
2.75426
2.75536
2.75689
2.75886
2.76083
2.76236
2.76341
2.76423
2.7651
2.76612
2.76724
2.7683
2.76926
2.77017
2.77103
2.77182
2.77233
2.77258
1
1
1
1
1
1
1
1
1
1
1
1
1
1
1
1
1
1
1
1
1
1
1
1
1
1
1
1
1
1
1
1
1
1
1
1
1
1
1
1
1
1
1
1
1
1
1
1
1
1
2.13803
2.67039
2.6768
2.68016
2.68373
2.68651
2.68917
2.69186
2.69461
2.6972
2.6995
2.70146
2.70307
2.70483
2.70726
2.71069
2.71527
2.72042
2.725
2.72839
2.73018
2.7313
2.73253
2.73493
2.73872
2.74313
2.74687
2.74928
2.75066
2.75177
2.75319
2.755
2.75686
2.7583
2.75927
2.75999
2.76072
2.76162
2.76261
2.76357
2.76447
2.76532
2.76614
2.76692
2.7674
2.76762
1
1
1
1
1
1
1
1
1
1
1
1
1
1
1
1
1
1
1
1
1
1
1
1
1
1
1
1
1
1
1
1
1
1
1
1
1
1
1
1
1
1
1
1
1
1
1
1
1
1
1.99889
2.6466
2.67543
2.67978
2.68353
2.68644
2.68914
2.69198
2.69483
2.69739
2.69958
2.70139
2.70282
2.70416
2.70589
2.70834
2.7118
2.71616
2.72046
2.7241
2.72632
2.72771
2.72887
2.73087
2.73419
2.73838
2.74225
2.74498
2.7466
2.74777
2.74909
2.75076
2.7525
2.75388
2.75476
2.75536
2.75596
2.7567
2.75755
2.7584
2.7592
2.75993
2.76065
2.76136
2.76177
2.76195
1
1
1
1
1
1
1
1
1
1
1
1
1
1
1
1
1
1
1
1
1
1
1
1
1
1
1
1
1
1
1
1
1
1
1
1
1
1
1
1
1
1
1
1
1
1
1
1
1
1
1.83143
2.6032
2.66723
2.67618
2.68196
2.68571
2.68865
2.69149
2.69424
2.6968
2.69915
2.70114
2.70271
2.70399
2.70537
2.70707
2.70958
2.71288
2.71658
2.72
2.72239
2.72396
2.72508
2.72672
2.72952
2.73334
2.73718
2.74015
2.74203
2.74329
2.74455
2.7461
2.74776
2.74908
2.74987
2.75032
2.75072
2.75125
2.75191
2.75259
2.7532
2.75378
2.75443
2.75509
2.75546
2.75562
1
1
1
1
1
1
1
1
1
1
1
1
1
1
1
1
1
1
1
1
1
1
1
1
1
1
1
1
1
1
1
1
1
1
1
1
1
1
1
1
1
1
1
1
1
1
1
1
1
1
1.64417
2.54135
2.65342
2.66697
2.67463
2.67951
2.68413
2.68843
2.69216
2.69539
2.69805
2.7002
2.70196
2.70343
2.70474
2.70623
2.70806
2.71069
2.71355
2.71639
2.71867
2.72023
2.72129
2.72258
2.7248
2.72809
2.73175
2.7348
2.7369
2.73829
2.73953
2.74098
2.7426
2.74387
2.74454
2.74481
2.74498
2.74529
2.74573
2.74616
2.74656
2.74694
2.74739
2.74787
2.74812
2.7482
1
1
1
1
1
1
1
1
1
1
1
1
1
1
1
1
1
1
1
1
1
1
1
1
1
1
1
1
1
1
1
1
1
1
1
1
1
1
1
1
1
1
1
1
1
1
1
1
1
1
1.408
2.45548
2.64492
2.65233
2.66176
2.66907
2.67541
2.68094
2.68615
2.69093
2.69495
2.69811
2.70047
2.70228
2.70375
2.7052
2.70681
2.7087
2.71126
2.71341
2.7153
2.71663
2.71758
2.71853
2.72015
2.72279
2.72604
2.72901
2.73124
2.73275
2.734
2.73542
2.73698
2.73817
2.73873
2.73876
2.73868
2.7387
2.73878
2.73887
2.73892
2.739
2.73922
2.73956
2.73975
2.73983
1
1
1
1
1
1
1
1
1
1
1
1
1
1
1
1
1
1
1
1
1
1
1
1
1
1
1
1
1
1
1
1
1
1
1
1
1
1
1
1
1
1
1
1
1
1
1
1
1
1
1.14302
2.36895
2.64727
2.64345
2.64809
2.65509
2.66276
2.67005
2.67704
2.68331
2.68882
2.69336
2.69692
2.69971
2.70191
2.70371
2.70537
2.70702
2.70884
2.71083
2.71231
2.7133
2.71401
2.71465
2.71568
2.71756
2.7202
2.72291
2.72511
2.72668
2.72798
2.72937
2.73079
2.7319
2.73233
2.73216
2.73175
2.73139
2.73108
2.73078
2.73045
2.73012
2.72992
2.72983
2.72973
2.7296
1
1
1
1
1
1
1
1
1
1
1
1
1
1
1
1
1
1
1
1
1
1
1
1
1
1
1
1
1
1
1
1
1
1
1
1
1
1
1
1
1
1
1
1
1
1
1
1
1
1
1.00566
2.29713
2.64801
2.64035
2.64497
2.6497
2.6548
2.66036
2.66704
2.67396
2.68039
2.68603
2.69081
2.69479
2.69813
2.70085
2.70307
2.70493
2.70663
2.70829
2.7095
2.71015
2.71064
2.71099
2.71148
2.71257
2.71443
2.71666
2.71862
2.72018
2.72148
2.72277
2.72403
2.72501
2.7253
2.72491
2.72414
2.7233
2.72246
2.72157
2.72054
2.71951
2.7187
2.7182
2.71791
2.71781
1
1
1
1
1
1
1
1
1
1
1
1
1
1
1
1
1
1
1
1
1
1
1
1
1
1
1
1
1
1
1
1
1
1
1
1
1
1
1
1
1
1
1
1
1
1
1
1
1
1
1.00001
2.16903
2.64945
2.64756
2.6486
2.65005
2.65261
2.65618
2.66033
2.66545
2.67137
2.67718
2.68258
2.68753
2.69203
2.69594
2.69914
2.70164
2.70366
2.70543
2.70667
2.70724
2.70739
2.70749
2.70757
2.70791
2.70889
2.71042
2.71193
2.7133
2.71449
2.71559
2.71668
2.71746
2.71755
2.71695
2.71576
2.71433
2.7128
2.71117
2.70941
2.70762
2.70596
2.70445
2.70317
2.70222
1
1
1
1
1
1
1
1
1
1
1
1
1
1
1
1
1
1
1
1
1
1
1
1
1
1
1
1
1
1
1
1
1
1
1
1
1
1
1
1
1
1
1
1
1
1
1
1
1
1
1
2.00377
2.64158
2.65133
2.65242
2.65388
2.65477
2.65622
2.65814
2.66104
2.66461
2.66893
2.67385
2.67897
2.68409
2.68894
2.69321
2.69667
2.69938
2.70159
2.7032
2.70405
2.70424
2.70409
2.70384
2.70363
2.70378
2.70443
2.70525
2.70622
2.70711
2.70794
2.70875
2.70923
2.70906
2.70818
2.70654
2.70442
2.70205
2.69943
2.69644
2.69306
2.68961
2.68657
2.68426
2.68339
1
1
1
1
1
1
1
1
1
1
1
1
1
1
1
1
1
1
1
1
1
1
1
1
1
1
1
1
1
1
1
1
1
1
1
1
1
1
1
1
1
1
1
1
1
1
1
1
1
1
1
1.79511
2.58648
2.6521
2.6544
2.6566
2.65779
2.65812
2.65861
2.65954
2.66112
2.66362
2.66684
2.67091
2.67565
2.6807
2.68558
2.68985
2.69339
2.69632
2.69856
2.70003
2.70066
2.70058
2.70018
2.69954
2.69901
2.69884
2.69879
2.69909
2.69948
2.69987
2.70022
2.7003
2.69983
2.69856
2.6964
2.6935
2.69004
2.68605
2.68143
2.67632
2.671
2.66568
2.65975
2.65439
1
1
1
1
1
1
1
1
1
1
1
1
1
1
1
1
1
1
1
1
1
1
1
1
1
1
1
1
1
1
1
1
1
1
1
1
1
1
1
1
1
1
1
1
1
1
1
1
1
1
1
1.50787
2.47284
2.64208
2.64742
2.65202
2.65504
2.65719
2.65858
2.65956
2.66042
2.66129
2.66275
2.66518
2.66853
2.67271
2.67733
2.68183
2.68588
2.68947
2.69247
2.69478
2.6962
2.69657
2.69627
2.6955
2.6945
2.69347
2.69264
2.69215
2.6918
2.69154
2.69126
2.69078
2.68982
2.68807
2.6853
2.68149
2.67673
2.67109
2.66441
2.65639
2.64645
2.63443
2.62214
2.61295
1
1
1
1
1
1
1
1
1
1
1
1
1
1
1
1
1
1
1
1
1
1
1
1
1
1
1
1
1
1
1
1
1
1
1
1
1
1
1
1
1
1
1
1
1
1
1
1
1
1
1
1.1606
2.35279
2.63453
2.63224
2.63802
2.64512
2.65138
2.65552
2.65795
2.65931
2.66012
2.66085
2.66191
2.66375
2.66644
2.66987
2.67371
2.67762
2.68141
2.68493
2.68804
2.69044
2.69166
2.69167
2.69108
2.68986
2.68827
2.68673
2.6854
2.6842
2.6831
2.68201
2.68077
2.67913
2.67674
2.67321
2.66837
2.66213
2.6544
2.64474
2.63249
2.61699
2.59815
2.57977
2.57197
1
1
1
1
1
1
1
1
1
1
1
1
1
1
1
1
1
1
1
1
1
1
1
1
1
1
1
1
1
1
1
1
1
1
1
1
1
1
1
1
1
1
1
1
1
1
1
1
1
1
1
1.00687
2.26363
2.62334
2.62099
2.62706
2.63408
2.64185
2.64851
2.65317
2.65613
2.65786
2.65894
2.65985
2.66092
2.66239
2.66437
2.66688
2.66984
2.67314
2.67656
2.68004
2.68322
2.68547
2.68624
2.68591
2.68479
2.68303
2.68098
2.67889
2.6768
2.67474
2.67265
2.67045
2.6679
2.66465
2.66021
2.65419
2.64624
2.63611
2.62312
2.60621
2.58258
2.54635
2.48076
2.34106
1
1
1
1
1
1
1
1
1
1
1
1
1
1
1
1
1
1
1
1
1
1
1
1
1
1
1
1
1
1
1
1
1
1
1
1
1
1
1
1
1
1
1
1
1
1
1
1
1
1
1
1
2.10074
2.61505
2.62326
2.62722
2.63056
2.63493
2.64052
2.6458
2.65012
2.65332
2.65554
2.65709
2.6583
2.65938
2.66044
2.66166
2.66333
2.66558
2.66824
2.67141
2.67482
2.67784
2.67958
2.67975
2.67899
2.67735
2.67507
2.67242
2.66956
2.66655
2.66336
2.66001
2.65633
2.65199
2.64643
2.63909
2.62933
2.61657
2.5998
2.5767
2.54285
2.48772
2.40633
2.19158
1
1
1
1
1
1
1
1
1
1
1
1
1
1
1
1
1
1
1
1
1
1
1
1
1
1
1
1
1
1
1
1
1
1
1
1
1
1
1
1
1
1
1
1
1
1
1
1
1
1
1
0.999999
1.88042
2.58899
2.62834
2.62843
2.63017
2.63234
2.63478
2.63847
2.64268
2.64668
2.65009
2.65279
2.65482
2.65627
2.65716
2.65767
2.65828
2.65931
2.66085
2.66307
2.66599
2.66912
2.67159
2.67255
2.67219
2.6709
2.66871
2.66581
2.66238
2.65855
2.65429
2.64967
2.64465
2.63898
2.63209
2.62327
2.61163
2.59629
2.5757
2.54743
2.50506
2.44685
2.32406
2.11553
1
1
1
1
1
1
1
1
1
1
1
1
1
1
1
1
1
1
1
1
1
1
1
1
1
1
1
1
1
1
1
1
1
1
1
1
1
1
1
1
1
1
1
1
1
1
1
1
1
1
1
1
1.56529
2.48661
2.62449
2.62561
2.62758
2.62919
2.63111
2.63359
2.63661
2.64005
2.64361
2.64698
2.64989
2.65212
2.6535
2.65398
2.65405
2.65421
2.65467
2.6557
2.65759
2.66008
2.66262
2.66421
2.6643
2.66349
2.6616
2.65874
2.65502
2.65058
2.64542
2.6396
2.63315
2.62595
2.61751
2.60709
2.59357
2.5759
2.55195
2.51971
2.47219
2.40292
2.27426
2.08725
1
1
1
1
1
1
1
1
1
1
1
1
1
1
1
1
1
1
1
1
1
1
1
1
1
1
1
1
1
1
1
1
1
1
1
1
1
1
1
1
1
1
1
1
1
1
1
1
1
1
1
1
1.18042
2.35787
2.62076
2.6164
2.61894
2.62301
2.62657
2.62919
2.63158
2.63417
2.63712
2.64037
2.64365
2.64657
2.64873
2.6498
2.64992
2.64974
2.64941
2.64952
2.65021
2.65154
2.65337
2.65499
2.65551
2.65503
2.65353
2.65093
2.64723
2.64247
2.63666
2.62985
2.622
2.6132
2.60304
2.59093
2.57559
2.55585
2.52938
2.49359
2.44361
2.36893
2.25056
2.09946
1
1
1
1
1
1
1
1
1
1
1
1
1
1
1
1
1
1
1
1
1
1
1
1
1
1
1
1
1
1
1
1
1
1
1
1
1
1
1
1
1
1
1
1
1
1
1
1
1
1
1
1
1.00856
2.24552
2.60429
2.60422
2.60933
2.61529
2.62046
2.62405
2.6267
2.62898
2.63132
2.63397
2.63697
2.64004
2.64271
2.64453
2.64526
2.6451
2.64451
2.64398
2.64377
2.64396
2.64463
2.64558
2.64608
2.64575
2.64454
2.64225
2.63876
2.63399
2.62782
2.62029
2.61131
2.601
2.58909
2.57521
2.55816
2.53663
2.5084
2.47035
2.41907
2.34547
2.24338
2.11798
1
1
1
1
1
1
1
1
1
1
1
1
1
1
1
1
1
1
1
1
1
1
1
1
1
1
1
1
1
1
1
1
1
1
1
1
1
1
1
1
1
1
1
1
1
1
1
1
1
1
1
1
1
2.04472
2.58584
2.60325
2.60805
2.61144
2.61484
2.61839
2.62137
2.62377
2.62588
2.62804
2.63051
2.63322
2.63589
2.63817
2.63959
2.6399
2.63949
2.63873
2.63794
2.63726
2.63682
2.63671
2.63656
2.636
2.63478
2.63267
2.62942
2.62484
2.61866
2.61075
2.60098
2.58948
2.57594
2.56032
2.54165
2.51863
2.48928
2.4505
2.39876
2.33072
2.24304
2.1355
1
1
1
1
1
1
1
1
1
1
1
1
1
1
1
1
1
1
1
1
1
1
1
1
1
1
1
1
1
1
1
1
1
1
1
1
1
1
1
1
1
1
1
1
1
1
1
1
1
1
1
1
0.999998
1.75248
2.53091
2.60089
2.60476
2.60766
2.61029
2.61303
2.61577
2.61824
2.62036
2.62229
2.62433
2.62651
2.62881
2.63109
2.63294
2.6339
2.63378
2.63319
2.63221
2.63104
2.6298
2.62864
2.62755
2.6263
2.6247
2.62248
2.61933
2.61495
2.60895
2.60101
2.59086
2.57853
2.56379
2.54663
2.52645
2.50218
2.47219
2.43364
2.38316
2.32115
2.24492
2.15313
1
1
1
1
1
1
1
1
1
1
1
1
1
1
1
1
1
1
1
1
1
1
1
1
1
1
1
1
1
1
1
1
1
1
1
1
1
1
1
1
1
1
1
1
1
1
1
1
1
1
1
1
0.999999
1.35875
2.40735
2.59755
2.59706
2.60064
2.6048
2.60786
2.61054
2.61293
2.61499
2.61684
2.61863
2.62029
2.62211
2.62403
2.62581
2.62712
2.62742
2.62707
2.62619
2.62489
2.62323
2.62134
2.61931
2.61716
2.61478
2.61205
2.60867
2.60431
2.5985
2.59078
2.58068
2.56797
2.55253
2.53428
2.51284
2.48749
2.4573
2.4192
2.37148
2.31548
2.24792
2.16931
1
1
1
1
1
1
1
1
1
1
1
1
1
1
1
1
1
1
1
1
1
1
1
1
1
1
1
1
1
1
1
1
1
1
1
1
1
1
1
1
1
1
1
1
1
1
1
1
1
1
1
1
1
1.03576
2.27248
2.59884
2.59426
2.59539
2.599
2.60222
2.60499
2.60735
2.60938
2.6112
2.61279
2.61419
2.61562
2.61713
2.61859
2.61988
2.62048
2.62031
2.61961
2.6184
2.61665
2.61441
2.61173
2.60875
2.60546
2.60191
2.59796
2.5933
2.58747
2.57995
2.57016
2.55758
2.54196
2.52317
2.50097
2.4748
2.44451
2.40693
2.36293
2.3124
2.2508
2.18355
1
1
1
1
1
1
1
1
1
1
1
1
1
1
1
1
1
1
1
1
1
1
1
1
1
1
1
1
1
1
1
1
1
1
1
1
1
1
1
1
1
1
1
1
1
1
1
1
1
1
1
1
1
1.00023
2.079
2.56989
2.58232
2.58927
2.59302
2.59615
2.59917
2.60163
2.60368
2.60551
2.60692
2.60819
2.60938
2.61056
2.61165
2.61264
2.61322
2.61307
2.61247
2.61137
2.60971
2.60742
2.60446
2.60092
2.59688
2.59243
2.58759
2.58227
2.5761
2.56859
2.55911
2.54698
2.53172
2.51299
2.49061
2.46407
2.43392
2.39719
2.3565
2.31002
2.25351
2.19594
1
1
1
1
1
1
1
1
1
1
1
1
1
1
1
1
1
1
1
1
1
1
1
1
1
1
1
1
1
1
1
1
1
1
1
1
1
1
1
1
1
1
1
1
1
1
1
1
1
1
1
1
1
0.999998
1.76178
2.51298
2.58006
2.5835
2.58637
2.58995
2.59318
2.59581
2.59794
2.59969
2.60101
2.60219
2.60323
2.60417
2.60499
2.60561
2.60595
2.60572
2.60505
2.60395
2.60234
2.60013
2.59717
2.59341
2.58887
2.58372
2.57797
2.57177
2.56492
2.55708
2.54767
2.53599
2.52139
2.50327
2.48135
2.45513
2.4255
2.38967
2.35165
2.30788
2.25669
2.20602
1
1
1
1
1
1
1
1
1
1
1
1
1
1
1
1
1
1
1
1
1
1
1
1
1
1
1
1
1
1
1
1
1
1
1
1
1
1
1
1
1
1
1
1
1
1
1
1
1
1
1
1
1
1
1.32953
2.3897
2.57323
2.57206
2.57606
2.58196
2.58621
2.58933
2.59165
2.59344
2.59482
2.59598
2.59697
2.5978
2.59843
2.59875
2.59877
2.59839
2.59752
2.59623
2.59453
2.59235
2.5895
2.5858
2.58112
2.57554
2.56913
2.56205
2.55431
2.54582
2.53616
2.5247
2.51075
2.49356
2.4726
2.44751
2.41856
2.38412
2.34858
2.30673
2.26055
2.21396
1
1
1
1
1
1
1
1
1
1
1
1
1
1
1
1
1
1
1
1
1
1
1
1
1
1
1
1
1
1
1
1
1
1
1
1
1
1
1
1
1
1
1
1
1
1
1
1
1
1
1
1
1
1
1.02827
2.25188
2.57263
2.56849
2.57019
2.57429
2.57847
2.58197
2.58465
2.58672
2.58832
2.58959
2.59062
2.59142
2.59194
2.59204
2.59185
2.59126
2.59014
2.58857
2.58662
2.58431
2.5815
2.57794
2.57336
2.56766
2.56088
2.5532
2.54461
2.53529
2.52504
2.51345
2.4999
2.48359
2.46386
2.4404
2.41247
2.38023
2.34672
2.30678
2.26482
2.22065
1
1
1
1
1
1
1
1
1
1
1
1
1
1
1
1
1
1
1
1
1
1
1
1
1
1
1
1
1
1
1
1
1
1
1
1
1
1
1
1
1
1
1
1
1
1
1
1
1
1
1
1
1
1
1.00013
2.01305
2.5405
2.55979
2.5653
2.56907
2.57205
2.57466
2.57721
2.57944
2.58126
2.5827
2.58388
2.58473
2.58521
2.58519
2.58491
2.58418
2.58288
2.58102
2.57873
2.57613
2.57319
2.56968
2.56529
2.55975
2.55291
2.54489
2.53576
2.52572
2.51472
2.50269
2.48918
2.47345
2.45495
2.43303
2.40664
2.37744
2.34549
2.30712
2.2688
2.22703
1
1
1
1
1
1
1
1
1
1
1
1
1
1
1
1
1
1
1
1
1
1
1
1
1
1
1
1
1
1
1
1
1
1
1
1
1
1
1
1
1
1
1
1
1
1
1
1
1
1
1
1
1
1
0.999999
1.60684
2.45819
2.5634
2.56298
2.56403
2.56614
2.56833
2.57042
2.57242
2.57419
2.57569
2.57693
2.57783
2.5783
2.57826
2.57793
2.57714
2.57575
2.57371
2.57111
2.56814
2.56489
2.56126
2.55695
2.55161
2.54497
2.53693
2.52756
2.51706
2.50545
2.49282
2.47902
2.4635
2.44595
2.42514
2.40102
2.37471
2.34363
2.30804
2.27315
2.23362
1
1
1
1
1
1
1
1
1
1
1
1
1
1
1
1
1
1
1
1
1
1
1
1
1
1
1
1
1
1
1
1
1
1
1
1
1
1
1
1
1
1
1
1
1
1
1
1
1
1
1
1
1
1
1
1.11187
2.31322
2.56263
2.55585
2.55684
2.5591
2.56153
2.56349
2.56532
2.56696
2.56839
2.5696
2.57052
2.57102
2.57099
2.57067
2.5699
2.56851
2.56643
2.56366
2.56038
2.55675
2.55282
2.54841
2.54318
2.5368
2.52899
2.51971
2.50904
2.49709
2.48399
2.46982
2.45411
2.43707
2.41712
2.39517
2.3707
2.34113
2.30992
2.2771
2.23948
1
1
1
1
1
1
1
1
1
1
1
1
1
1
1
1
1
1
1
1
1
1
1
1
1
1
1
1
1
1
1
1
1
1
1
1
1
1
1
1
1
1
1
1
1
1
1
1
1
1
1
1
1
1
1
1.00294
2.1434
2.53636
2.54074
2.54782
2.55256
2.55481
2.5568
2.55854
2.55999
2.56123
2.56227
2.56306
2.56353
2.5635
2.56319
2.56247
2.56115
2.55914
2.55634
2.55289
2.54894
2.54464
2.53994
2.53465
2.52841
2.5209
2.51192
2.50143
2.48945
2.47614
2.4617
2.44561
2.42883
2.40939
2.38887
2.36592
2.33859
2.31057
2.27929
2.24521
1
1
1
1
1
1
1
1
1
1
1
1
1
1
1
1
1
1
1
1
1
1
1
1
1
1
1
1
1
1
1
1
1
1
1
1
1
1
1
1
1
1
1
1
1
1
1
1
1
1
1
1
1
1
1
0.999985
1.78514
2.4835
2.53835
2.54355
2.54586
2.54825
2.55044
2.55217
2.55349
2.55449
2.55522
2.55572
2.55597
2.55587
2.5555
2.55479
2.55354
2.55164
2.54895
2.5455
2.54137
2.53675
2.53172
2.52619
2.51994
2.51264
2.50402
2.49389
2.48219
2.46898
2.45441
2.43823
2.42146
2.40219
2.38283
2.36067
2.33541
2.30988
2.28043
2.25037
1
1
1
1
1
1
1
1
1
1
1
1
1
1
1
1
1
1
1
1
1
1
1
1
1
1
1
1
1
1
1
1
1
1
1
1
1
1
1
1
1
1
1
1
1
1
1
1
1
1
1
1
1
1
1
0.999996
1.27477
2.35755
2.53937
2.53479
2.53652
2.53963
2.5425
2.54479
2.54646
2.54755
2.54818
2.54846
2.54845
2.54822
2.54773
2.54695
2.54572
2.54394
2.54141
2.53808
2.53396
2.52918
2.52385
2.51804
2.5116
2.50435
2.496
2.48628
2.47505
2.46218
2.44779
2.43187
2.41486
2.39611
2.37748
2.35542
2.33223
2.30828
2.28161
2.25431
1
1
1
1
1
1
1
1
1
1
1
1
1
1
1
1
1
1
1
1
1
1
1
1
1
1
1
1
1
1
1
1
1
1
1
1
1
1
1
1
1
1
1
1
1
1
1
1
1
1
1
1
1
1
1
0.999999
1.01817
2.20783
2.52407
2.52316
2.52654
2.53045
2.53378
2.53667
2.53887
2.5403
2.54107
2.54129
2.54112
2.5407
2.54003
2.53911
2.53781
2.53607
2.53368
2.53053
2.52653
2.52175
2.51628
2.51022
2.50355
2.49622
2.48797
2.47858
2.46786
2.45544
2.44156
2.42604
2.40903
2.39112
2.37251
2.35072
2.3294
2.3064
2.28164
2.25566
1
1
1
1
1
1
1
1
1
1
1
1
1
1
1
1
1
1
1
1
1
1
1
1
1
1
1
1
1
1
1
1
1
1
1
1
1
1
1
1
1
1
1
1
1
1
1
1
1
1
1
1
1
1
1
1
1.00003
1.87385
2.48599
2.51591
2.52036
2.524
2.52644
2.52909
2.53134
2.53294
2.53389
2.53419
2.53396
2.53338
2.53252
2.5314
2.52995
2.52813
2.52578
2.52278
2.51897
2.51434
2.50888
2.50272
2.49588
2.4884
2.48014
2.47094
2.46065
2.44865
2.43546
2.42041
2.40389
2.38676
2.36797
2.34733
2.32705
2.30458
2.28126
2.25649
1
1
1
1
1
1
1
1
1
1
1
1
1
1
1
1
1
1
1
1
1
1
1
1
1
1
1
1
1
1
1
1
1
1
1
1
1
1
1
1
1
1
1
1
1
1
1
1
1
1
1
1
1
1
1
1
0.999999
1.35086
2.372
2.52034
2.51654
2.51767
2.51908
2.52108
2.52307
2.52474
2.52596
2.52659
2.52649
2.52597
2.52507
2.52381
2.52221
2.52025
2.51785
2.51492
2.51127
2.50683
2.50152
2.49539
2.48851
2.48092
2.47261
2.46344
2.45343
2.4418
2.4293
2.41477
2.39906
2.38269
2.36413
2.34474
2.3247
2.3029
2.28085
2.25743
1
1
1
1
1
1
1
1
1
1
1
1
1
1
1
1
1
1
1
1
1
1
1
1
1
1
1
1
1
1
1
1
1
1
1
1
1
1
1
1
1
1
1
1
1
1
1
1
1
1
1
1
1
1
1
1
1
1.02982
2.21443
2.50836
2.50711
2.509
2.51116
2.51324
2.51495
2.5165
2.51778
2.51864
2.51878
2.51843
2.5176
2.51632
2.51461
2.51251
2.51001
2.50703
2.50345
2.49917
2.49406
2.48811
2.48133
2.47376
2.46545
2.45624
2.44637
2.43503
2.42308
2.40909
2.39442
2.37868
2.36071
2.34229
2.32266
2.30209
2.28083
2.2585
1
1
1
1
1
1
1
1
1
1
1
1
1
1
1
1
1
1
1
1
1
1
1
1
1
1
1
1
1
1
1
1
1
1
1
1
1
1
1
1
1
1
1
1
1
1
1
1
1
1
1
1
1
1
1
1
1
1.00012
1.86324
2.46607
2.49822
2.50281
2.50572
2.50733
2.5084
2.5094
2.51026
2.51089
2.51108
2.51078
2.51003
2.50878
2.50706
2.50489
2.5023
2.49924
2.49566
2.49145
2.48651
2.48076
2.47418
2.46677
2.45855
2.44928
2.43945
2.42848
2.41686
2.40346
2.38978
2.37439
2.35734
2.33985
2.32112
2.30161
2.28059
2.25913
1
1
1
1
1
1
1
1
1
1
1
1
1
1
1
1
1
1
1
1
1
1
1
1
1
1
1
1
1
1
1
1
1
1
1
1
1
1
1
1
1
1
1
1
1
1
1
1
1
1
1
1
1
1
1
1
1
0.999999
1.30194
2.34328
2.50467
2.49864
2.49954
2.50026
2.50109
2.5019
2.50254
2.50296
2.5031
2.50285
2.50219
2.50104
2.49941
2.49728
2.49467
2.49156
2.48794
2.48375
2.47891
2.47336
2.46697
2.45989
2.45177
2.44257
2.43283
2.42224
2.41076
2.39805
2.38495
2.36992
2.35403
2.33735
2.31963
2.30083
2.28023
2.26001
1
1
1
1
1
1
1
1
1
1
1
1
1
1
1
1
1
1
1
1
1
1
1
1
1
1
1
1
1
1
1
1
1
1
1
1
1
1
1
1
1
1
1
1
1
1
1
1
1
1
1
1
1
1
1
1
1
1
1.02142
2.18178
2.48675
2.4877
2.49099
2.49236
2.49369
2.4946
2.49519
2.49542
2.49535
2.49502
2.49433
2.49322
2.49165
2.4896
2.48704
2.48395
2.48032
2.47612
2.47132
2.46589
2.45972
2.45281
2.44495
2.43604
2.42649
2.41617
2.40481
2.39275
2.37991
2.36548
2.35064
2.33454
2.31768
2.29962
2.27989
2.26095
1
1
1
1
1
1
1
1
1
1
1
1
1
1
1
1
1
1
1
1
1
1
1
1
1
1
1
1
1
1
1
1
1
1
1
1
1
1
1
1
1
1
1
1
1
1
1
1
1
1
1
1
1
1
1
1
1
1
1.00005
1.77237
2.43111
2.48501
2.48503
2.48545
2.48706
2.48836
2.48864
2.48849
2.48813
2.48754
2.48666
2.48544
2.48385
2.48184
2.47934
2.47632
2.47275
2.46858
2.46383
2.45847
2.45244
2.44565
2.43816
2.42962
2.42036
2.41023
2.39907
2.38751
2.37489
2.3612
2.34701
2.33137
2.31541
2.29832
2.27954
2.2616
1
1
1
1
1
1
1
1
1
1
1
1
1
1
1
1
1
1
1
1
1
1
1
1
1
1
1
1
1
1
1
1
1
1
1
1
1
1
1
1
1
1
1
1
1
1
1
1
1
1
1
1
1
1
1
1
1
1
1
1.17072
2.29369
2.49035
2.47974
2.47932
2.47981
2.48104
2.48103
2.48092
2.48063
2.48003
2.47906
2.47773
2.47607
2.47402
2.47156
2.46861
2.46512
2.46104
2.45636
2.45108
2.44516
2.43857
2.43129
2.42308
2.4142
2.4043
2.39349
2.38231
2.36997
2.35692
2.34312
2.32802
2.31302
2.29678
2.27882
2.26151
1
1
1
1
1
1
1
1
1
1
1
1
1
1
1
1
1
1
1
1
1
1
1
1
1
1
1
1
1
1
1
1
1
1
1
1
1
1
1
1
1
1
1
1
1
1
1
1
1
1
1
1
1
1
1
1
1
1
1
1.00666
2.09822
2.46136
2.46236
2.46628
2.47196
2.47332
2.47327
2.47341
2.47333
2.47281
2.47179
2.47034
2.46853
2.46637
2.46384
2.46091
2.45749
2.45351
2.44894
2.44377
2.43798
2.43155
2.42445
2.41655
2.40802
2.3984
2.38804
2.3772
2.36516
2.35261
2.3392
2.32474
2.31049
2.29485
2.27766
2.2611
1
1
1
1
1
1
1
1
1
1
1
1
1
1
1
1
1
1
1
1
1
1
1
1
1
1
1
1
1
1
1
1
1
1
1
1
1
1
1
1
1
1
1
1
1
1
1
1
1
1
1
1
1
1
1
1
1
1
1
0.999985
1.61142
2.37814
2.46351
2.46685
2.46763
2.46612
2.46593
2.46628
2.46624
2.46573
2.46466
2.46311
2.46117
2.45887
2.45622
2.45322
2.4498
2.4459
2.44145
2.43642
2.43078
2.42452
2.4176
2.41001
2.40178
2.3925
2.38263
2.37211
2.3604
2.34833
2.33536
2.32148
2.30769
2.2925
2.27626
2.26041
1
1
1
1
1
1
1
1
1
1
1
1
1
1
1
1
1
1
1
1
1
1
1
1
1
1
1
1
1
1
1
1
1
1
1
1
1
1
1
1
1
1
1
1
1
1
1
1
1
1
1
1
1
1
1
1
1
1
1
0.999995
1.09897
2.22213
2.4643
2.46033
2.45952
2.45809
2.4586
2.45925
2.45907
2.45844
2.45738
2.45588
2.45393
2.45158
2.44884
2.44574
2.44227
2.43838
2.43401
2.4291
2.42362
2.41756
2.41084
2.40354
2.39557
2.38664
2.37722
2.36702
2.35569
2.34411
2.33158
2.31821
2.30472
2.2901
2.27483
2.25952
1
1
1
1
1
1
1
1
1
1
1
1
1
1
1
1
1
1
1
1
1
1
1
1
1
1
1
1
1
1
1
1
1
1
1
1
1
1
1
1
1
1
1
1
1
1
1
1
1
1
1
1
1
1
1
1
1
1
1
0.999999
1.002
1.90205
2.41912
2.44576
2.44895
2.4499
2.45229
2.45292
2.4525
2.45165
2.45052
2.44898
2.44698
2.44453
2.44166
2.43844
2.43485
2.43092
2.42655
2.42174
2.41642
2.41055
2.40407
2.39705
2.38934
2.38078
2.37178
2.36191
2.35105
2.33989
2.32781
2.31492
2.30172
2.28783
2.2733
2.25838
1
1
1
1
1
1
1
1
1
1
1
1
1
1
1
1
1
1
1
1
1
1