/*--------------------------------*- C++ -*----------------------------------*\
  =========                 |
  \\      /  F ield         | OpenFOAM: The Open Source CFD Toolbox
   \\    /   O peration     | Website:  https://openfoam.org
    \\  /    A nd           | Version:  9
     \\/     M anipulation  |
\*---------------------------------------------------------------------------*/
FoamFile
{
    format      ascii;
    class       surfaceScalarField;
    location    "0.4";
    object      phi;
}
// * * * * * * * * * * * * * * * * * * * * * * * * * * * * * * * * * * * * * //

dimensions      [0 3 -1 0 0 0 0];

internalField   nonuniform List<scalar> 
16735
(
0.00130877
-0.00130877
1.20425e-10
0.0104672
-0.0091584
2.2581e-10
0.0306277
-0.0201605
2.58316e-10
0.0625291
-0.0319015
2.4706e-10
0.104401
-0.0418721
2.04879e-10
0.153138
-0.0487368
1.38773e-10
0.205765
-0.0526269
9.71735e-11
0.260384
-0.0546189
6.94008e-11
0.316198
-0.0558143
6.7763e-11
-0.0572196
6.48305e-11
0.373418
0.00134222
-0.00265098
0.0105571
-0.0183733
0.0307668
-0.0403702
0.0626824
-0.063817
0.104518
-0.0837081
0.153173
-0.0973912
0.205688
-0.105142
0.260184
-0.109115
0.315879
-0.111509
-0.114322
0.372981
0.00140872
-0.0040597
0.0107358
-0.0277004
0.0310429
-0.0606773
0.0629856
-0.0957596
0.104749
-0.125471
0.153238
-0.145881
0.205531
-0.157435
0.259782
-0.163366
0.315238
-0.166964
-0.171191
0.372107
0.00150749
-0.00556719
0.0110008
-0.0371937
0.0314515
-0.081128
0.0634323
-0.12774
0.105085
-0.167124
0.153327
-0.194122
0.205286
-0.209395
0.259172
-0.217252
0.314272
-0.222064
-0.227712
0.370792
0.00163735
-0.00720454
0.0113486
-0.0469049
0.0319859
-0.101765
0.064013
-0.159768
0.105515
-0.208626
0.153426
-0.242034
0.204944
-0.260912
0.258346
-0.270654
0.312976
-0.276693
-0.283772
0.369036
0.00179677
-0.00900131
0.0117745
-0.0568827
0.0326376
-0.122628
0.0647152
-0.191845
0.106025
-0.249936
0.153523
-0.289532
0.204491
-0.311881
0.257294
-0.323457
0.311342
-0.330741
-0.339263
0.366834
0.00198389
-0.0109852
0.012273
-0.0671718
0.0333961
-0.143752
0.0655237
-0.223973
0.106595
-0.291008
0.153597
-0.336533
0.203911
-0.362196
0.256002
-0.375548
0.309363
-0.384102
-0.394081
0.36418
0.00219653
-0.0131817
0.0128373
-0.0778125
0.0342492
-0.165163
0.0664211
-0.256145
0.107207
-0.331793
0.153628
-0.382954
0.203186
-0.411753
0.254456
-0.426818
0.307027
-0.436672
-0.448123
0.361068
0.00243226
-0.015614
0.0134602
-0.0888405
0.0351831
-0.186886
0.0673875
-0.288349
0.107835
-0.372241
0.153594
-0.428713
0.202294
-0.460453
0.252639
-0.477164
0.304321
-0.488354
-0.50129
0.357489
0.00268845
-0.0183024
0.0141336
-0.100286
0.0361828
-0.208935
0.0684014
-0.320568
0.108456
-0.412296
0.153469
-0.473725
0.201214
-0.508199
0.250534
-0.526483
0.301232
-0.539053
-0.553487
0.353429
0.00296226
-0.0212647
0.0148489
-0.112172
0.0372321
-0.231319
0.0694401
-0.352776
0.109043
-0.451899
0.153227
-0.517909
0.199923
-0.554896
0.24812
-0.57468
0.297743
-0.588675
-0.604615
0.348871
0.00325076
-0.0245155
0.0155969
-0.124518
0.0383142
-0.254036
0.0704796
-0.384941
0.109568
-0.490987
0.152841
-0.561182
0.198398
-0.600453
0.24538
-0.621661
0.293834
-0.637129
-0.654574
0.343793
0.00355091
-0.0280664
0.0163682
-0.137336
0.0394115
-0.277079
0.0714954
-0.417025
0.110003
-0.529495
0.152285
-0.603464
0.196616
-0.644784
0.242294
-0.667338
0.289488
-0.684324
-0.70326
0.338174
0.00385963
-0.031926
0.0171531
-0.150629
0.0405059
-0.300432
0.0724626
-0.448982
0.110322
-0.567354
0.151533
-0.644675
0.194555
-0.687806
0.238845
-0.711628
0.284689
-0.730168
-0.750562
0.331991
0.00417382
-0.0360998
0.0179419
-0.164397
0.0415796
-0.32407
0.0733565
-0.480759
0.110496
-0.604494
0.15056
-0.684739
0.192195
-0.729441
0.235019
-0.754452
0.279421
-0.77457
-0.796365
0.325224
0.00449041
-0.0405902
0.0187247
-0.178631
0.0426145
-0.34796
0.0741531
-0.512297
0.1105
-0.640841
0.149343
-0.723582
0.189518
-0.769617
0.230806
-0.79574
0.273675
-0.817439
-0.840551
0.317861
0.00480633
-0.0453966
0.0194919
-0.193317
0.043593
-0.372061
0.074829
-0.543533
0.11031
-0.676321
0.14786
-0.761132
0.18651
-0.808268
0.226198
-0.835427
0.267439
-0.85868
-0.883008
0.309896
0.00511861
-0.0505152
0.0202338
-0.208432
0.0444979
-0.396325
0.0753618
-0.574397
0.109902
-0.710862
0.146093
-0.797323
0.18316
-0.845334
0.221196
-0.873463
0.2607
-0.898184
-0.92361
0.301301
0.00542434
-0.0559395
0.0209412
-0.223949
0.0453127
-0.420696
0.0757307
-0.604815
0.109256
-0.744387
0.144026
-0.832093
0.179461
-0.880769
0.215806
-0.909808
0.253438
-0.935816
-0.962282
0.29211
0.00572068
-0.0616602
0.0216051
-0.239834
0.0460217
-0.445113
0.0759163
-0.63471
0.108354
-0.776825
0.141645
-0.865384
0.175409
-0.914533
0.210037
-0.944436
0.245707
-0.971487
-0.999409
0.282834
0.00600489
-0.0676651
0.0222168
-0.256045
0.0466102
-0.469507
0.075901
-0.664
0.10718
-0.808104
0.138939
-0.897143
0.170999
-0.946593
0.203882
-0.977319
0.237925
-1.00553
-1.03752
0.276034
0.00627434
-0.0739394
0.022768
-0.272539
0.0470645
-0.493803
0.0756689
-0.692605
0.105718
-0.838153
0.135897
-0.927323
0.166223
-0.976918
0.197334
-1.00843
0.229601
-1.0378
-1.07285
0.264934
0.00652647
-0.0804659
0.023251
-0.289264
0.0473721
-0.517924
0.0752063
-0.720439
0.103959
-0.866905
0.132514
-0.955878
0.161078
-1.00548
0.190391
-1.03774
0.220905
-1.06831
-1.1059
0.253956
0.00675886
-0.0872248
0.0236584
-0.306163
0.0475216
-0.541787
0.0745015
-0.747419
0.101892
-0.894296
0.128783
-0.982769
0.155563
-1.03226
0.183058
-1.06524
0.211798
-1.09705
-1.13683
0.242725
0.00696916
-0.0941939
0.0239836
-0.323178
0.0475034
-0.565307
0.073545
-0.77346
0.099513
-0.920264
0.124704
-1.00796
0.14968
-1.05724
0.175341
-1.0909
0.20227
-1.12398
-1.16571
0.231148
0.00715514
-0.101349
0.0242203
-0.340243
0.0473087
-0.588396
0.0723295
-0.798481
0.0968174
-0.944752
0.120278
-1.03142
0.143434
-1.08039
0.167247
-1.11471
0.192336
-1.14907
-1.19257
0.2192
0.00731471
-0.108664
0.0243629
-0.357291
0.0469307
-0.610963
0.07085
-0.822401
0.0938044
-0.967706
0.115508
-1.05312
0.136831
-1.10172
0.158787
-1.13667
0.182013
-1.1723
-1.21744
0.206881
0.00744587
-0.11611
0.0244066
-0.374252
0.0463637
-0.63292
0.0691037
-0.845141
0.0904758
-0.989079
0.1104
-1.07305
0.129882
-1.1212
0.149974
-1.15676
0.171318
-1.19364
-1.24032
0.194198
0.00754677
-0.123656
0.0243471
-0.391052
0.0456037
-0.654177
0.0670897
-0.866627
0.0868356
-1.00882
0.104963
-1.09118
0.122598
-1.13883
0.14082
-1.17498
0.16027
-1.21309
-1.26121
0.181163
0.00761567
-0.131272
0.0241809
-0.407617
0.0446481
-0.674644
0.0648095
-0.886788
0.0828899
-1.0269
0.0992066
-1.10749
0.114992
-1.15462
0.131343
-1.19133
0.148887
-1.23064
-1.28012
0.167792
0.00765101
-0.138923
0.0239051
-0.423871
0.0434958
-0.694235
0.0622663
-0.905558
0.0786471
-1.04329
0.0931432
-1.12199
0.107078
-1.16855
0.121558
-1.20581
0.137189
-1.24627
-1.29703
0.154101
0.00765138
-0.146574
0.0235176
-0.439738
0.0421472
-0.712865
0.0594654
-0.922877
0.0741173
-1.05794
0.0867868
-1.13466
0.0988741
-1.18064
0.111483
-1.21842
0.125196
-1.25998
-1.31194
0.140111
0.00761555
-0.15419
0.0230171
-0.455139
0.0406041
-0.730452
0.0564137
-0.938686
0.0693125
-1.07084
0.0801527
-1.1455
0.0903967
-1.19088
0.101137
-1.22916
0.112928
-1.27177
-1.32486
0.125842
0.00754248
-0.161732
0.0224029
-0.469999
0.0388694
-0.746918
0.0531196
-0.952937
0.0642461
-1.08196
0.0732576
-1.15451
0.0816647
-1.19929
0.0905409
-1.23804
0.100409
-1.28164
-1.33576
0.111317
0.00743131
-0.169164
0.0216752
-0.484243
0.0369476
-0.76219
0.0495931
-0.965582
0.0589326
-1.0913
0.0661192
-1.1617
0.0726977
-1.20587
0.0797151
-1.24506
0.0876592
-1.28958
-1.34466
0.0965599
0.00728143
-0.176445
0.0208349
-0.497797
0.0348441
-0.776199
0.0458454
-0.976583
0.053388
-1.09884
0.0587561
-1.16706
0.0635159
-1.21063
0.0686812
-1.25022
0.0747033
-1.29561
-1.35156
0.081594
0.00709242
-0.183538
0.0198836
-0.510588
0.0325657
-0.788882
0.0418889
-0.985907
0.0476289
-1.10458
0.0511876
-1.17062
0.05414
-1.21358
0.0574614
-1.25354
0.0615645
-1.29971
-1.35644
0.0664447
0.00686413
-0.190402
0.0188235
-0.522547
0.0301199
-0.800178
0.0377367
-0.993523
0.0416729
-1.10852
0.0434334
-1.17238
0.0445912
-1.21474
0.0460779
-1.25503
0.0482668
-1.3019
-1.35931
0.0511373
0.00659663
-0.196998
0.0176575
-0.533608
0.0275154
-0.810036
0.0334031
-0.999411
0.0355377
-1.11066
0.0355135
-1.17236
0.0348907
-1.21412
0.0345529
-1.25469
0.0348346
-1.30218
-1.36017
0.0356974
0.00629026
-0.203289
0.0163893
-0.543707
0.0247615
-0.818408
0.0289029
-1.00355
0.0292419
-1.11099
0.0274478
-1.17057
0.0250594
-1.21173
0.0229078
-1.25254
0.0212914
-1.30056
-1.35903
0.0201515
0.00594564
-0.209234
0.0150229
-0.552785
0.0218683
-0.825253
0.0242513
-1.00594
0.0228038
-1.10955
0.0192564
-1.16702
0.0151167
-1.20759
0.0111592
-1.24858
0.00765971
-1.29706
-1.35589
0.00452238
0.00556367
-0.214798
0.0135639
-0.560785
0.0188466
-0.830536
0.0194643
-1.00655
0.0162421
-1.10632
0.0109583
-1.16173
0.00507517
-1.20171
-0.000712595
-1.24279
-0.00603439
-1.29174
-1.35076
-0.0111636
0.00514554
-0.219944
0.0120182
-0.567658
0.0157081
-0.834226
0.0145582
-1.0054
0.00957553
-1.10134
0.0025579
-1.15472
-0.00501071
-1.19414
-0.0125147
-1.23529
-0.0197641
-1.28449
-1.34365
-0.0268741
0.00469273
-0.224636
0.010392
-0.573357
0.012465
-0.836299
0.00954946
-1.00249
0.00282019
-1.09461
-0.00586455
-1.14603
-0.0151344
-1.18487
-0.0243994
-1.22603
-0.0335121
-1.27538
-1.33457
-0.042594
0.00420697
-0.228843
0.00869206
-0.577842
0.00913
-0.836737
0.00445684
-0.997815
-0.00399283
-1.08616
-0.0143417
-1.13568
-0.0252944
-1.17391
-0.0363016
-1.21502
-0.0472589
-1.26442
-1.32353
-0.0583006
0.00369026
-0.232533
0.00692599
-0.581078
0.00571732
-0.835528
-0.000697297
-0.9914
-0.0108538
-1.07601
-0.0228528
-1.12368
-0.0354649
-1.1613
-0.0481985
-1.20228
-0.0609853
-1.25164
-1.31054
-0.0739734
0.00314496
-0.235678
0.0051022
-0.583035
0.00224899
-0.832675
-0.00592979
-0.983221
-0.0177495
-1.06419
-0.0313736
-1.11006
-0.0456255
-1.14705
-0.0600701
-1.18784
-0.0746728
-1.23703
-1.29562
-0.0895934
0.00257453
-0.238253
0.00323041
-0.583691
-0.00129112
-0.828154
-0.0111877
-0.973325
-0.024658
-1.05072
-0.0398837
-1.09483
-0.0557565
-1.13118
-0.0718969
-1.1717
-0.0883023
-1.22063
-1.27878
-0.105141
0.00197916
-0.240232
0.00133111
-0.583043
-0.0049125
-0.82191
-0.0164691
-0.961768
-0.0315603
-1.03563
-0.0483628
-1.07803
-0.0658371
-1.1137
-0.0836579
-1.15388
-0.101853
-1.20243
-1.26004
-0.120596
0.00135659
-0.241589
-0.00060443
-0.581082
-0.00853669
-0.813978
-0.0217556
-0.948549
-0.0384374
-1.01894
-0.0567904
-1.05968
-0.0758454
-1.09465
-0.0953299
-1.13439
-0.1153
-1.18246
-1.23941
-0.135933
0.000704294
-0.242293
-0.00264747
-0.57773
-0.0121755
-0.80445
-0.0270304
-0.933694
-0.0452705
-1.0007
-0.0651453
-1.0398
-0.0857577
-1.07404
-0.106886
-1.11327
-0.128614
-1.16073
-1.2169
-0.151122
-8.99915e-06
-0.242284
-0.00468428
-0.573055
-0.0158164
-0.793318
-0.0322773
-0.917233
-0.0520407
-0.98094
-0.073406
-1.01844
-0.0955485
-1.05189
-0.118296
-1.09052
-0.141761
-1.13727
-1.19253
-0.166126
-0.000647055
-0.241637
-0.00672604
-0.566976
-0.0194479
-0.780596
-0.03748
-0.899201
-0.0587295
-0.959691
-0.0815508
-0.995617
-0.105191
-1.02825
-0.129527
-1.06618
-0.154701
-1.1121
-1.16633
-0.180904
-0.00132695
-0.24031
-0.00877055
-0.559532
-0.023058
-0.766308
-0.0426232
-0.879636
-0.0653189
-0.936995
-0.0895584
-0.971378
-0.11466
-1.00315
-0.140545
-1.0403
-0.167392
-1.08525
-1.13831
-0.195411
-0.00201814
-0.238292
-0.0108113
-0.550739
-0.0266349
-0.750485
-0.0476919
-0.858579
-0.0717916
-0.912895
-0.0974084
-0.945761
-0.123929
-0.97663
-0.151316
-1.01291
-0.179795
-1.05677
-1.1085
-0.209605
-0.00271504
-0.235577
-0.0128409
-0.540613
-0.0301671
-0.733158
-0.0526719
-0.836074
-0.0781314
-0.887436
-0.105082
-0.918811
-0.132975
-0.948738
-0.161813
-0.984073
-0.191871
-1.02671
-1.07693
-0.223445
-0.00341373
-0.232163
-0.014852
-0.529175
-0.0336431
-0.714367
-0.0575498
-0.812168
-0.0843232
-0.860662
-0.112562
-0.890572
-0.141778
-0.919522
-0.172008
-0.953842
-0.203592
-0.995128
-1.04362
-0.236898
-0.00411074
-0.228052
-0.0168373
-0.516448
-0.0370524
-0.694152
-0.0623129
-0.786907
-0.0903529
-0.832622
-0.119833
-0.861092
-0.15032
-0.889035
-0.181886
-0.922276
-0.214937
-0.962077
-1.00862
-0.249933
-0.00480278
-0.22325
-0.0187897
-0.502461
-0.0403849
-0.672557
-0.0669493
-0.760343
-0.0962076
-0.803364
-0.126881
-0.830418
-0.158588
-0.857328
-0.191429
-0.889435
-0.225881
-0.927625
-0.972047
-0.262458
-0.00548673
-0.217763
-0.0207022
-0.487246
-0.0436305
-0.649629
-0.071448
-0.732525
-0.101875
-0.772937
-0.133694
-0.798599
-0.166568
-0.824454
-0.200622
-0.855381
-0.236374
-0.891874
-0.934017
-0.274403
-0.00615953
-0.211603
-0.0225682
-0.470837
-0.0467802
-0.625417
-0.0757983
-0.703507
-0.107345
-0.74139
-0.140261
-0.765683
-0.174256
-0.790459
-0.20946
-0.820177
-0.245898
-0.855436
-0.896554
-0.283361
-0.00681825
-0.204785
-0.0243811
-0.453274
-0.0498251
-0.599973
-0.0799905
-0.673342
-0.112607
-0.708774
-0.146573
-0.731717
-0.181644
-0.755388
-0.217967
-0.783853
-0.255653
-0.81775
-0.857535
-0.294672
-0.00746004
-0.197325
-0.0261349
-0.434599
-0.052757
-0.573351
-0.0840153
-0.642084
-0.11765
-0.675139
-0.152617
-0.69675
-0.188718
-0.719288
-0.226117
-0.746454
-0.264987
-0.77888
-0.817053
-0.305469
-0.00808216
-0.189243
-0.0278237
-0.414858
-0.0555681
-0.545606
-0.0878639
-0.609788
-0.122466
-0.640537
-0.158385
-0.66083
-0.195466
-0.682208
-0.23389
-0.70803
-0.27387
-0.738901
-0.775265
-0.315658
-0.00868199
-0.180561
-0.029442
-0.394098
-0.0582511
-0.516797
-0.0915283
-0.576511
-0.127045
-0.605021
-0.163867
-0.624008
-0.201877
-0.644198
-0.241274
-0.668632
-0.282299
-0.697876
-0.732305
-0.325259
-0.00925701
-0.171304
-0.0309846
-0.37237
-0.0607991
-0.486982
-0.0950006
-0.542309
-0.131379
-0.568642
-0.169053
-0.586335
-0.20794
-0.60531
-0.248258
-0.628315
-0.290264
-0.655869
-0.688273
-0.334295
-0.00980486
-0.161499
-0.0324465
-0.349729
-0.0632058
-0.456223
-0.0982737
-0.507241
-0.135461
-0.531455
-0.173934
-0.547862
-0.213647
-0.565597
-0.254828
-0.587133
-0.297755
-0.612943
-0.643256
-0.342773
-0.0103233
-0.151176
-0.0338232
-0.326229
-0.0654652
-0.424581
-0.101341
-0.471366
-0.139282
-0.493514
-0.178502
-0.508642
-0.218986
-0.525113
-0.260976
-0.545143
-0.304761
-0.569158
-0.597326
-0.35069
-0.0108101
-0.140366
-0.0351104
-0.301929
-0.0675718
-0.39212
-0.104196
-0.434741
-0.142836
-0.454874
-0.18275
-0.468728
-0.22395
-0.483913
-0.266691
-0.502402
-0.311272
-0.524577
-0.550555
-0.358044
-0.0112635
-0.129102
-0.0363042
-0.276888
-0.0695206
-0.358903
-0.106833
-0.397429
-0.146117
-0.41559
-0.186669
-0.428176
-0.22853
-0.442053
-0.271964
-0.458968
-0.317279
-0.479262
-0.503008
-0.364826
-0.0116816
-0.117421
-0.037401
-0.251168
-0.0713068
-0.324998
-0.109247
-0.359488
-0.149119
-0.375719
-0.190254
-0.38704
-0.232718
-0.399589
-0.276786
-0.4149
-0.322772
-0.433275
-0.454754
-0.371027
-0.0120626
-0.105358
-0.0383975
-0.224834
-0.0729264
-0.290469
-0.111434
-0.32098
-0.151835
-0.335317
-0.193499
-0.345377
-0.236509
-0.356579
-0.281149
-0.37026
-0.327743
-0.386681
-0.405859
-0.376638
-0.0124052
-0.0929527
-0.0392907
-0.197948
-0.0743754
-0.255384
-0.113388
-0.281968
-0.154262
-0.294443
-0.196397
-0.303242
-0.239894
-0.313082
-0.285046
-0.325107
-0.332183
-0.339545
-0.356391
-0.381651
-0.0127079
-0.0802449
-0.040078
-0.170578
-0.0756507
-0.219811
-0.115106
-0.242512
-0.156395
-0.253154
-0.198943
-0.260694
-0.242869
-0.269156
-0.288471
-0.279505
-0.336085
-0.291931
-0.306421
-0.386056
-0.0129696
-0.0672753
-0.0407571
-0.14279
-0.0767492
-0.183819
-0.116585
-0.202677
-0.158231
-0.211508
-0.201134
-0.217791
-0.245428
-0.224862
-0.291418
-0.233515
-0.339442
-0.243906
-0.256016
-0.389846
-0.0131892
-0.0540861
-0.0413261
-0.114654
-0.0776684
-0.147477
-0.117822
-0.162523
-0.159765
-0.169565
-0.202966
-0.17459
-0.247568
-0.180261
-0.293881
-0.187202
-0.342248
-0.195539
-0.20525
-0.393015
-0.013366
-0.0407201
-0.0417832
-0.0862363
-0.0784063
-0.110854
-0.118814
-0.122115
-0.160996
-0.127383
-0.204435
-0.131152
-0.249284
-0.135412
-0.295856
-0.14063
-0.344499
-0.146896
-0.154193
-0.395557
-0.0134991
-0.027221
-0.0421272
-0.0576082
-0.0789612
-0.0740198
-0.11956
-0.0815164
-0.161921
-0.0850215
-0.205539
-0.087534
-0.250573
-0.0903779
-0.297341
-0.0938616
-0.346191
-0.0980455
-0.102917
-0.397467
-0.0135882
-0.0136328
-0.0423571
-0.0288394
-0.0793318
-0.0370451
-0.120058
-0.0407901
-0.162539
-0.0425406
-0.206276
-0.0437969
-0.251434
-0.0452199
-0.298332
-0.0469634
-0.34732
-0.0490573
-0.051495
-0.398742
-0.0136328
7.51488e-11
-0.0424722
6.52312e-11
-0.0795173
2.70802e-11
-0.120307
8.97999e-12
-0.162848
1.1441e-11
-0.206645
1.60935e-11
-0.251865
1.35889e-11
-0.298828
4.27603e-12
-0.347886
-4.72457e-12
-7.18126e-12
-0.39938
-0.0136328
0.0136328
-0.0424722
0.0288394
-0.0795173
0.0370451
-0.120307
0.0407901
-0.162848
0.0425406
-0.206645
0.0437969
-0.251865
0.0452199
-0.298828
0.0469634
-0.347886
0.0490573
0.051495
-0.39938
-0.0135882
0.027221
-0.0423571
0.0576082
-0.0793318
0.0740198
-0.120058
0.0815164
-0.162539
0.0850215
-0.206276
0.087534
-0.251434
0.0903779
-0.298332
0.0938616
-0.34732
0.0980455
0.102917
-0.398742
-0.0134991
0.0407201
-0.0421272
0.0862363
-0.0789612
0.110854
-0.11956
0.122115
-0.161921
0.127383
-0.205539
0.131152
-0.250573
0.135412
-0.297341
0.14063
-0.346191
0.146896
0.154193
-0.397467
-0.013366
0.0540861
-0.0417832
0.114654
-0.0784063
0.147477
-0.118814
0.162523
-0.160996
0.169565
-0.204435
0.17459
-0.249284
0.180261
-0.295856
0.187202
-0.344499
0.195539
0.20525
-0.395557
-0.0131892
0.0672753
-0.0413261
0.14279
-0.0776684
0.183819
-0.117822
0.202677
-0.159765
0.211508
-0.202966
0.217791
-0.247568
0.224862
-0.293881
0.233515
-0.342248
0.243906
0.256016
-0.393015
-0.0129696
0.0802449
-0.0407571
0.170578
-0.0767492
0.219811
-0.116585
0.242512
-0.158231
0.253154
-0.201134
0.260694
-0.245428
0.269156
-0.291418
0.279505
-0.339442
0.291931
0.306421
-0.389846
-0.0127079
0.0929527
-0.040078
0.197948
-0.0756507
0.255384
-0.115106
0.281968
-0.156395
0.294443
-0.198943
0.303242
-0.242869
0.313082
-0.288471
0.325107
-0.336085
0.339545
0.356391
-0.386056
-0.0124052
0.105358
-0.0392907
0.224834
-0.0743754
0.290469
-0.113388
0.32098
-0.154262
0.335317
-0.196397
0.345377
-0.239894
0.356579
-0.285046
0.37026
-0.332183
0.386681
0.405859
-0.381651
-0.0120626
0.117421
-0.0383975
0.251168
-0.0729264
0.324998
-0.111434
0.359488
-0.151835
0.375719
-0.193499
0.38704
-0.236509
0.399589
-0.281149
0.4149
-0.327743
0.433275
0.454754
-0.376638
-0.0116816
0.129102
-0.037401
0.276888
-0.0713068
0.358903
-0.109247
0.397429
-0.149119
0.41559
-0.190254
0.428176
-0.232718
0.442053
-0.276786
0.458968
-0.322772
0.479262
0.503008
-0.371027
-0.0112635
0.140366
-0.0363042
0.301929
-0.0695206
0.39212
-0.106833
0.434741
-0.146117
0.454874
-0.186669
0.468728
-0.22853
0.483913
-0.271964
0.502402
-0.317279
0.524577
0.550555
-0.364826
-0.0108101
0.151176
-0.0351104
0.326229
-0.0675718
0.424581
-0.104196
0.471366
-0.142836
0.493514
-0.18275
0.508642
-0.22395
0.525113
-0.266691
0.545143
-0.311272
0.569158
0.597326
-0.358044
-0.0103233
0.161499
-0.0338232
0.349729
-0.0654652
0.456223
-0.101341
0.507241
-0.139282
0.531455
-0.178502
0.547862
-0.218986
0.565597
-0.260976
0.587133
-0.304761
0.612943
0.643256
-0.35069
-0.00980486
0.171304
-0.0324465
0.37237
-0.0632058
0.486982
-0.0982737
0.542309
-0.135461
0.568642
-0.173934
0.586335
-0.213647
0.60531
-0.254828
0.628315
-0.297755
0.655869
0.688273
-0.342773
-0.00925701
0.180561
-0.0309846
0.394098
-0.0607991
0.516797
-0.0950006
0.576511
-0.131379
0.605021
-0.169053
0.624008
-0.20794
0.644198
-0.248258
0.668632
-0.290264
0.697876
0.732305
-0.334295
-0.00868199
0.189243
-0.029442
0.414858
-0.0582511
0.545606
-0.0915283
0.609788
-0.127045
0.640537
-0.163867
0.66083
-0.201877
0.682208
-0.241274
0.70803
-0.282299
0.738901
0.775265
-0.325259
-0.00808216
0.197325
-0.0278237
0.434599
-0.0555681
0.573351
-0.0878639
0.642084
-0.122466
0.675139
-0.158385
0.69675
-0.195466
0.719288
-0.23389
0.746454
-0.27387
0.77888
0.817053
-0.315658
-0.00746004
0.204785
-0.0261349
0.453274
-0.052757
0.599973
-0.0840153
0.673342
-0.11765
0.708774
-0.152617
0.731717
-0.188718
0.755388
-0.226117
0.783853
-0.264987
0.81775
0.857535
-0.305469
-0.00681825
0.211603
-0.0243811
0.470837
-0.0498251
0.625417
-0.0799905
0.703507
-0.112607
0.74139
-0.146573
0.765683
-0.181644
0.790459
-0.217967
0.820177
-0.255653
0.855436
0.896554
-0.294672
-0.00615953
0.217763
-0.0225682
0.487246
-0.0467802
0.649629
-0.0757983
0.732525
-0.107345
0.772937
-0.140261
0.798599
-0.174256
0.824454
-0.20946
0.855381
-0.245898
0.891874
0.934017
-0.283361
-0.00548673
0.22325
-0.0207022
0.502461
-0.0436305
0.672557
-0.071448
0.760343
-0.101875
0.803364
-0.133694
0.830418
-0.166568
0.857328
-0.200622
0.889435
-0.236374
0.927625
0.972047
-0.274403
-0.00480278
0.228052
-0.0187897
0.516448
-0.0403849
0.694152
-0.0669493
0.786907
-0.0962076
0.832622
-0.126881
0.861092
-0.158588
0.889035
-0.191429
0.922276
-0.225881
0.962077
1.00862
-0.262458
-0.00411074
0.232163
-0.0168373
0.529175
-0.0370524
0.714367
-0.0623129
0.812168
-0.0903529
0.860662
-0.119833
0.890572
-0.15032
0.919522
-0.181886
0.953842
-0.214937
0.995128
1.04362
-0.249933
-0.00341373
0.235577
-0.014852
0.540613
-0.0336431
0.733158
-0.0575498
0.836074
-0.0843232
0.887436
-0.112562
0.918811
-0.141778
0.948738
-0.172008
0.984073
-0.203592
1.02671
1.07693
-0.236898
-0.00271504
0.238292
-0.0128409
0.550739
-0.0301671
0.750485
-0.0526719
0.858579
-0.0781314
0.912895
-0.105082
0.945761
-0.132975
0.97663
-0.161813
1.01291
-0.191871
1.05677
1.1085
-0.223445
-0.00201814
0.24031
-0.0108113
0.559532
-0.0266349
0.766308
-0.0476919
0.879636
-0.0717916
0.936995
-0.0974084
0.971378
-0.123929
1.00315
-0.151316
1.0403
-0.179795
1.08525
1.13831
-0.209605
-0.00132695
0.241637
-0.00877055
0.566976
-0.023058
0.780596
-0.0426232
0.899201
-0.0653189
0.959691
-0.0895584
0.995617
-0.11466
1.02825
-0.140545
1.06618
-0.167392
1.1121
1.16633
-0.195411
-0.000647055
0.242284
-0.00672604
0.573055
-0.0194479
0.793318
-0.03748
0.917233
-0.0587295
0.98094
-0.0815508
1.01844
-0.105191
1.05189
-0.129527
1.09052
-0.154701
1.13727
1.19253
-0.180904
-8.99913e-06
0.242293
-0.00468428
0.57773
-0.0158164
0.80445
-0.0322773
0.933694
-0.0520407
1.0007
-0.073406
1.0398
-0.0955485
1.07404
-0.118296
1.11327
-0.141761
1.16073
1.2169
-0.166126
0.000704294
0.241589
-0.00264747
0.581082
-0.0121755
0.813978
-0.0270304
0.948549
-0.0452705
1.01894
-0.0651453
1.05968
-0.0857577
1.09465
-0.106886
1.13439
-0.128614
1.18246
1.23941
-0.151122
0.00135659
0.240232
-0.00060443
0.583043
-0.00853669
0.82191
-0.0217556
0.961768
-0.0384374
1.03563
-0.0567904
1.07803
-0.0758454
1.1137
-0.0953299
1.15388
-0.1153
1.20243
1.26004
-0.135933
0.00197916
0.238253
0.00133111
0.583691
-0.0049125
0.828154
-0.0164691
0.973325
-0.0315603
1.05072
-0.0483628
1.09483
-0.0658371
1.13118
-0.0836579
1.1717
-0.101853
1.22063
1.27878
-0.120596
0.00257454
0.235678
0.00323041
0.583035
-0.00129112
0.832675
-0.0111877
0.983221
-0.024658
1.06419
-0.0398837
1.11006
-0.0557565
1.14705
-0.0718969
1.18784
-0.0883023
1.23703
1.29562
-0.105141
0.00314496
0.232533
0.0051022
0.581078
0.00224899
0.835528
-0.00592979
0.9914
-0.0177495
1.07601
-0.0313736
1.12368
-0.0456255
1.1613
-0.0600701
1.20228
-0.0746728
1.25164
1.31054
-0.0895934
0.00369026
0.228843
0.00692599
0.577842
0.00571732
0.836737
-0.000697297
0.997815
-0.0108538
1.08616
-0.0228528
1.13568
-0.0354649
1.17391
-0.0481985
1.21502
-0.0609853
1.26442
1.32353
-0.0739734
0.00420697
0.224636
0.00869206
0.573357
0.00913
0.836299
0.00445684
1.00249
-0.00399283
1.09461
-0.0143417
1.14603
-0.0252944
1.18487
-0.0363016
1.22603
-0.0472589
1.27538
1.33457
-0.0583006
0.00469273
0.219944
0.010392
0.567658
0.012465
0.834226
0.00954946
1.0054
0.00282019
1.10134
-0.00586455
1.15472
-0.0151344
1.19414
-0.0243994
1.23529
-0.0335121
1.28449
1.34365
-0.042594
0.00514554
0.214798
0.0120182
0.560785
0.0157081
0.830536
0.0145582
1.00655
0.00957553
1.10632
0.0025579
1.16173
-0.00501071
1.20171
-0.0125147
1.24279
-0.0197641
1.29174
1.35076
-0.0268741
0.00556367
0.209234
0.0135639
0.552785
0.0188466
0.825253
0.0194643
1.00594
0.0162421
1.10955
0.0109583
1.16702
0.00507517
1.20759
-0.000712595
1.24858
-0.00603439
1.29706
1.35589
-0.0111636
0.00594564
0.203289
0.0150229
0.543707
0.0218683
0.818408
0.0242513
1.00355
0.0228038
1.11099
0.0192564
1.17057
0.0151167
1.21173
0.0111592
1.25254
0.00765971
1.30056
1.35903
0.00452238
0.00629026
0.196998
0.0163893
0.533608
0.0247615
0.810036
0.0289029
0.999411
0.0292419
1.11066
0.0274478
1.17236
0.0250594
1.21412
0.0229078
1.25469
0.0212914
1.30218
1.36017
0.0201515
0.00659663
0.190402
0.0176575
0.522547
0.0275154
0.800178
0.0334031
0.993523
0.0355377
1.10852
0.0355135
1.17238
0.0348907
1.21474
0.0345529
1.25503
0.0348346
1.3019
1.35931
0.0356974
0.00686413
0.183538
0.0188235
0.510588
0.0301199
0.788882
0.0377367
0.985907
0.0416729
1.10458
0.0434334
1.17062
0.0445912
1.21358
0.0460779
1.25354
0.0482668
1.29971
1.35644
0.0511373
0.00709242
0.176445
0.0198836
0.497797
0.0325657
0.776199
0.0418889
0.976583
0.0476289
1.09884
0.0511876
1.16706
0.05414
1.21063
0.0574614
1.25022
0.0615645
1.29561
1.35156
0.0664447
0.00728143
0.169164
0.0208349
0.484243
0.0348441
0.76219
0.0458454
0.965582
0.053388
1.0913
0.0587561
1.1617
0.0635159
1.20587
0.0686812
1.24506
0.0747033
1.28958
1.34466
0.081594
0.00743131
0.161732
0.0216752
0.469999
0.0369476
0.746918
0.0495931
0.952937
0.0589326
1.08196
0.0661192
1.15451
0.0726977
1.19929
0.0797151
1.23804
0.0876592
1.28164
1.33576
0.0965599
0.00754248
0.15419
0.0224029
0.455139
0.0388694
0.730452
0.0531196
0.938686
0.0642461
1.07084
0.0732576
1.1455
0.0816647
1.19088
0.0905409
1.22916
0.100409
1.27177
1.32486
0.111317
0.00761555
0.146574
0.0230171
0.439738
0.0406041
0.712865
0.0564137
0.922877
0.0693125
1.05794
0.0801527
1.13466
0.0903967
1.18064
0.101137
1.21842
0.112928
1.25998
1.31194
0.125842
0.00765138
0.138923
0.0235176
0.423871
0.0421472
0.694235
0.0594654
0.905558
0.0741173
1.04329
0.0867868
1.12199
0.0988741
1.16855
0.111483
1.20581
0.125196
1.24627
1.29703
0.140111
0.00765101
0.131272
0.0239051
0.407617
0.0434958
0.674644
0.0622663
0.886788
0.0786471
1.0269
0.0931432
1.10749
0.107078
1.15462
0.121558
1.19133
0.137189
1.23064
1.28012
0.154101
0.00761567
0.123656
0.0241809
0.391052
0.0446481
0.654177
0.0648095
0.866627
0.0828899
1.00882
0.0992066
1.09118
0.114992
1.13883
0.131343
1.17498
0.148887
1.21309
1.26121
0.167792
0.00754677
0.11611
0.0243471
0.374252
0.0456037
0.63292
0.0670897
0.845141
0.0868356
0.989079
0.104963
1.07305
0.122598
1.1212
0.14082
1.15676
0.16027
1.19364
1.24032
0.181163
0.00744587
0.108664
0.0244066
0.357291
0.0463637
0.610963
0.0691037
0.822401
0.0904758
0.967706
0.1104
1.05312
0.129882
1.10172
0.149974
1.13667
0.171318
1.1723
1.21744
0.194198
0.00731471
0.101349
0.0243629
0.340243
0.0469307
0.588396
0.07085
0.798481
0.0938044
0.944752
0.115508
1.03142
0.136831
1.08039
0.158787
1.11471
0.182013
1.14907
1.19257
0.206881
0.00715514
0.0941939
0.0242203
0.323178
0.0473087
0.565307
0.0723295
0.77346
0.0968174
0.920264
0.120278
1.00796
0.143434
1.05724
0.167247
1.0909
0.192336
1.12398
1.16571
0.2192
0.00696916
0.0872248
0.0239836
0.306163
0.0475034
0.541787
0.073545
0.747419
0.099513
0.894296
0.124704
0.982769
0.14968
1.03226
0.175341
1.06524
0.20227
1.09705
1.13683
0.231148
0.00675886
0.0804659
0.0236584
0.289264
0.0475216
0.517924
0.0745015
0.720439
0.101892
0.866905
0.128783
0.955878
0.155563
1.00548
0.183058
1.03774
0.211798
1.06831
1.1059
0.242725
0.00652647
0.0739394
0.023251
0.272539
0.0473721
0.493803
0.0752063
0.692605
0.103959
0.838153
0.132514
0.927323
0.161078
0.976918
0.190391
1.00843
0.220905
1.0378
1.07285
0.253956
0.00627434
0.0676651
0.022768
0.256045
0.0470645
0.469507
0.0756689
0.664
0.105718
0.808104
0.135897
0.897143
0.166223
0.946593
0.197334
0.977319
0.229601
1.00553
1.03752
0.264934
0.00600489
0.0616602
0.0222168
0.239834
0.0466102
0.445113
0.075901
0.63471
0.10718
0.776825
0.138939
0.865384
0.170999
0.914533
0.203882
0.944436
0.237925
0.971487
0.999409
0.276034
0.00572068
0.0559395
0.0216051
0.223949
0.0460217
0.420696
0.0759163
0.604815
0.108354
0.744387
0.141645
0.832093
0.175409
0.880769
0.210037
0.909808
0.245707
0.935816
0.962282
0.282834
0.00542434
0.0505152
0.0209412
0.208432
0.0453127
0.396325
0.0757307
0.574397
0.109256
0.710862
0.144026
0.797323
0.179461
0.845334
0.215806
0.873463
0.253438
0.898184
0.92361
0.29211
0.00511861
0.0453966
0.0202338
0.193317
0.0444979
0.372061
0.0753618
0.543533
0.109902
0.676321
0.146093
0.761132
0.18316
0.808268
0.221196
0.835427
0.2607
0.85868
0.883008
0.301301
0.00480633
0.0405902
0.0194919
0.178631
0.043593
0.34796
0.074829
0.512297
0.11031
0.640841
0.14786
0.723582
0.18651
0.769617
0.226198
0.79574
0.267439
0.817439
0.840551
0.309896
0.00449041
0.0360998
0.0187247
0.164397
0.0426145
0.32407
0.0741531
0.480759
0.1105
0.604494
0.149343
0.684739
0.189518
0.729441
0.230806
0.754452
0.273675
0.77457
0.796365
0.317861
0.00417382
0.031926
0.0179419
0.150629
0.0415796
0.300432
0.0733565
0.448982
0.110496
0.567354
0.15056
0.644675
0.192195
0.687806
0.235019
0.711628
0.279421
0.730168
0.750562
0.325224
0.00385963
0.0280664
0.0171531
0.137336
0.0405059
0.277079
0.0724626
0.417025
0.110322
0.529495
0.151533
0.603464
0.194555
0.644784
0.238845
0.667338
0.284689
0.684324
0.70326
0.331991
0.00355091
0.0245155
0.0163682
0.124518
0.0394115
0.254036
0.0714954
0.384941
0.110003
0.490987
0.152285
0.561182
0.196616
0.600453
0.242294
0.621661
0.289488
0.637129
0.654574
0.338174
0.00325076
0.0212647
0.0155969
0.112172
0.0383142
0.231319
0.0704796
0.352776
0.109568
0.451899
0.152841
0.517909
0.198398
0.554896
0.24538
0.57468
0.293834
0.588675
0.604615
0.343793
0.00296226
0.0183024
0.0148489
0.100286
0.0372321
0.208935
0.0694401
0.320568
0.109043
0.412296
0.153227
0.473725
0.199923
0.508199
0.24812
0.526483
0.297743
0.539053
0.553487
0.348871
0.00268845
0.015614
0.0141336
0.0888405
0.0361828
0.186886
0.0684014
0.288349
0.108456
0.372241
0.153469
0.428713
0.201214
0.460453
0.250534
0.477164
0.301232
0.488354
0.50129
0.353429
0.00243226
0.0131817
0.0134602