/*--------------------------------*- C++ -*----------------------------------*\
  =========                 |
  \\      /  F ield         | OpenFOAM: The Open Source CFD Toolbox
   \\    /   O peration     | Website:  https://openfoam.org
    \\  /    A nd           | Version:  7
     \\/     M anipulation  |
\*---------------------------------------------------------------------------*/
FoamFile
{
    version     2.0;
    format      ascii;
    class       volVectorField;
    location    "3";
    object      U;
}
// * * * * * * * * * * * * * * * * * * * * * * * * * * * * * * * * * * * * * //

dimensions      [0 1 -1 0 0 0 0];

internalField   nonuniform List<vector> 
11050
(
(-3.38362e-11 2.92855e-11 0)
(-1.33852e-10 9.39716e-11 0)
(-2.90342e-10 1.15409e-10 0)
(-4.54596e-10 1.06196e-10 0)
(-5.65296e-10 8.27647e-11 0)
(-5.9947e-10 5.58013e-11 0)
(-5.47322e-10 3.28521e-11 0)
(-3.15272e-10 1.30663e-11 0)
(8.3336e-11 -2.9284e-11 0)
(5.11684e-10 -7.58104e-11 0)
(9.95982e-10 -1.16762e-10 0)
(1.59377e-09 -1.50276e-10 0)
(2.28819e-09 -1.7658e-10 0)
(3.05721e-09 -1.95671e-10 0)
(3.88851e-09 -2.06675e-10 0)
(4.84824e-09 -2.12635e-10 0)
(5.94875e-09 -2.35257e-10 0)
(7.0578e-09 -2.78484e-10 0)
(8.15239e-09 -3.10052e-10 0)
(9.28511e-09 -3.20228e-10 0)
(1.04565e-08 -3.17632e-10 0)
(1.16686e-08 -3.14457e-10 0)
(1.29072e-08 -3.13693e-10 0)
(1.41535e-08 -3.10285e-10 0)
(1.54752e-08 -3.0266e-10 0)
(1.68333e-08 -3.16062e-10 0)
(1.8107e-08 -3.23101e-10 0)
(1.93383e-08 -3.23996e-10 0)
(2.05719e-08 -3.20466e-10 0)
(2.17908e-08 -3.13505e-10 0)
(2.29743e-08 -3.01821e-10 0)
(2.41138e-08 -2.82513e-10 0)
(2.52841e-08 -2.58139e-10 0)
(2.64617e-08 -2.55118e-10 0)
(2.75206e-08 -2.51697e-10 0)
(2.84892e-08 -2.43136e-10 0)
(2.94196e-08 -2.29727e-10 0)
(3.02984e-08 -2.12367e-10 0)
(3.11079e-08 -1.90323e-10 0)
(3.18414e-08 -1.61247e-10 0)
(3.25762e-08 -1.28013e-10 0)
(3.32922e-08 -1.17365e-10 0)
(3.38631e-08 -1.07402e-10 0)
(3.43174e-08 -9.26578e-11 0)
(3.47115e-08 -7.31411e-11 0)
(-6.40367e-11 1.78322e-10 0)
(-2.46951e-10 3.9206e-10 0)
(-4.9722e-10 4.38791e-10 0)
(-7.04683e-10 3.69014e-10 0)
(-7.61129e-10 2.31887e-10 0)
(-6.09987e-10 6.13604e-11 0)
(-2.13732e-10 -1.19635e-10 0)
(5.49186e-10 -3.04888e-10 0)
(1.67445e-09 -5.21455e-10 0)
(2.98535e-09 -7.4942e-10 0)
(4.49381e-09 -9.64849e-10 0)
(6.2788e-09 -1.15979e-09 0)
(8.3185e-09 -1.33333e-09 0)
(1.05793e-08 -1.48684e-09 0)
(1.30436e-08 -1.62084e-09 0)
(1.57825e-08 -1.73804e-09 0)
(1.87905e-08 -1.84049e-09 0)
(2.19043e-08 -2.00431e-09 0)
(2.50905e-08 -2.14556e-09 0)
(2.83832e-08 -2.2313e-09 0)
(3.17606e-08 -2.27343e-09 0)
(3.52213e-08 -2.29935e-09 0)
(3.87543e-08 -2.31945e-09 0)
(4.23385e-08 -2.32878e-09 0)
(4.60369e-08 -2.32744e-09 0)
(4.98008e-08 -2.35204e-09 0)
(5.3456e-08 -2.35507e-09 0)
(5.70169e-08 -2.33917e-09 0)
(6.05479e-08 -2.30663e-09 0)
(6.40279e-08 -2.25922e-09 0)
(6.74271e-08 -2.19526e-09 0)
(7.07321e-08 -2.1115e-09 0)
(7.40194e-08 -2.01515e-09 0)
(7.72621e-08 -1.94433e-09 0)
(8.02876e-08 -1.86848e-09 0)
(8.31002e-08 -1.7789e-09 0)
(8.57723e-08 -1.6746e-09 0)
(8.82888e-08 -1.55691e-09 0)
(9.06257e-08 -1.42521e-09 0)
(9.2776e-08 -1.27759e-09 0)
(9.4823e-08 -1.12211e-09 0)
(9.67476e-08 -9.96644e-10 0)
(9.83803e-08 -8.72168e-10 0)
(9.97293e-08 -7.38064e-10 0)
(1.00875e-07 -5.92484e-10 0)
(-6.41949e-11 4.11024e-10 0)
(-2.2995e-10 7.74849e-10 0)
(-4.12614e-10 7.96172e-10 0)
(-4.76117e-10 5.79261e-10 0)
(-2.92688e-10 2.06832e-10 0)
(2.12321e-10 -2.60834e-10 0)
(1.09323e-09 -7.81649e-10 0)
(2.48447e-09 -1.33031e-09 0)
(4.37841e-09 -1.89082e-09 0)
(6.5951e-09 -2.46398e-09 0)
(9.14974e-09 -3.01913e-09 0)
(1.21171e-08 -3.5428e-09 0)
(1.54693e-08 -4.03126e-09 0)
(1.91668e-08 -4.48663e-09 0)
(2.31925e-08 -4.90937e-09 0)
(2.76404e-08 -5.28854e-09 0)
(3.24161e-08 -5.5444e-09 0)
(3.73549e-08 -5.89771e-09 0)
(4.25024e-08 -6.2293e-09 0)
(4.78374e-08 -6.48417e-09 0)
(5.32956e-08 -6.65648e-09 0)
(5.88636e-08 -6.77628e-09 0)
(6.4536e-08 -6.86007e-09 0)
(7.02917e-08 -6.9127e-09 0)
(7.61808e-08 -6.93961e-09 0)
(8.21561e-08 -6.95815e-09 0)
(8.80206e-08 -6.9334e-09 0)
(9.37568e-08 -6.87064e-09 0)
(9.94307e-08 -6.77063e-09 0)
(1.05018e-07 -6.63513e-09 0)
(1.10483e-07 -6.46478e-09 0)
(1.15804e-07 -6.26101e-09 0)
(1.21048e-07 -6.03258e-09 0)
(1.26185e-07 -5.79663e-09 0)
(1.31028e-07 -5.53989e-09 0)
(1.35564e-07 -5.25718e-09 0)
(1.39864e-07 -4.94689e-09 0)
(1.4391e-07 -4.61015e-09 0)
(1.47675e-07 -4.24825e-09 0)
(1.51148e-07 -3.86388e-09 0)
(1.54406e-07 -3.46677e-09 0)
(1.57429e-07 -3.07227e-09 0)
(1.60038e-07 -2.67274e-09 0)
(1.62229e-07 -2.26017e-09 0)
(1.64085e-07 -1.83179e-09 0)
(-4.51698e-11 6.02351e-10 0)
(-1.22162e-10 1.0503e-09 0)
(-1.2052e-10 9.68679e-10 0)
(9.09566e-11 5.13469e-10 0)
(6.44786e-10 -1.98621e-10 0)
(1.62413e-09 -1.07885e-09 0)
(3.09245e-09 -2.06161e-09 0)
(5.19611e-09 -3.09873e-09 0)
(7.91582e-09 -4.14506e-09 0)
(1.10705e-08 -5.19862e-09 0)
(1.46871e-08 -6.22404e-09 0)
(1.88309e-08 -7.20762e-09 0)
(2.34675e-08 -8.14258e-09 0)
(2.85552e-08 -9.02623e-09 0)
(3.40868e-08 -9.84853e-09 0)
(4.02116e-08 -1.05758e-08 0)
(4.6665e-08 -1.10678e-08 0)
(5.32734e-08 -1.16693e-08 0)
(6.02515e-08 -1.22497e-08 0)
(6.75139e-08 -1.27428e-08 0)
(7.49427e-08 -1.31056e-08 0)
(8.24989e-08 -1.33713e-08 0)
(9.01801e-08 -1.35578e-08 0)
(9.7964e-08 -1.36756e-08 0)
(1.05892e-07 -1.37325e-08 0)
(1.13922e-07 -1.37365e-08 0)
(1.21843e-07 -1.36739e-08 0)
(1.2961e-07 -1.35438e-08 0)
(1.37287e-07 -1.33464e-08 0)
(1.44842e-07 -1.30838e-08 0)
(1.52233e-07 -1.27594e-08 0)
(1.59433e-07 -1.23782e-08 0)
(1.66497e-07 -1.19482e-08 0)
(1.73392e-07 -1.1479e-08 0)
(1.79925e-07 -1.09637e-08 0)
(1.86068e-07 -1.03999e-08 0)
(1.91888e-07 -9.78952e-09 0)
(1.97363e-07 -9.13497e-09 0)
(2.0246e-07 -8.43949e-09 0)
(2.07165e-07 -7.70855e-09 0)
(2.11549e-07 -6.95071e-09 0)
(2.1559e-07 -6.17299e-09 0)
(2.19104e-07 -5.37773e-09 0)
(2.22082e-07 -4.55943e-09 0)
(2.24603e-07 -3.71918e-09 0)
(-1.42994e-11 7.10847e-10 0)
(4.60388e-11 1.12778e-09 0)
(3.13232e-10 8.46359e-10 0)
(8.91315e-10 5.58309e-11 0)
(1.90951e-09 -1.0951e-09 0)
(3.45287e-09 -2.48832e-09 0)
(5.5881e-09 -4.03356e-09 0)
(8.47003e-09 -5.66062e-09 0)
(1.20661e-08 -7.3082e-09 0)
(1.61929e-08 -8.95778e-09 0)
(2.08846e-08 -1.05614e-08 0)
(2.6196e-08 -1.21115e-08 0)
(3.20924e-08 -1.35965e-08 0)
(3.85376e-08 -1.50018e-08 0)
(4.55429e-08 -1.62995e-08 0)
(5.33254e-08 -1.74444e-08 0)
(6.13941e-08 -1.82957e-08 0)
(6.95488e-08 -1.91969e-08 0)
(7.82258e-08 -2.00627e-08 0)
(8.73037e-08 -2.08412e-08 0)
(9.66062e-08 -2.14242e-08 0)
(1.06045e-07 -2.18735e-08 0)
(1.15625e-07 -2.21977e-08 0)
(1.2532e-07 -2.24038e-08 0)
(1.35167e-07 -2.24973e-08 0)
(1.45116e-07 -2.24741e-08 0)
(1.54951e-07 -2.23666e-08 0)
(1.6462e-07 -2.21507e-08 0)
(1.74174e-07 -2.18294e-08 0)
(1.83573e-07 -2.14054e-08 0)
(1.92767e-07 -2.08836e-08 0)
(2.0172e-07 -2.02716e-08 0)
(2.10482e-07 -1.95776e-08 0)
(2.19018e-07 -1.88085e-08 0)
(2.27128e-07 -1.79681e-08 0)
(2.34775e-07 -1.70453e-08 0)
(2.42016e-07 -1.60508e-08 0)
(2.48826e-07 -1.49897e-08 0)
(2.55169e-07 -1.38664e-08 0)
(2.61022e-07 -1.26881e-08 0)
(2.66458e-07 -1.14627e-08 0)
(2.71446e-07 -1.01956e-08 0)
(2.75803e-07 -8.89984e-09 0)
(2.79516e-07 -7.5622e-09 0)
(2.82658e-07 -6.19409e-09 0)
(2.19996e-11 7.08189e-10 0)
(2.5265e-10 9.53309e-10 0)
(8.40758e-10 3.64905e-10 0)
(1.84505e-09 -8.63101e-10 0)
(3.3932e-09 -2.55271e-09 0)
(5.56682e-09 -4.55607e-09 0)
(8.42988e-09 -6.75895e-09 0)
(1.21381e-08 -9.07373e-09 0)
(1.66468e-08 -1.14291e-08 0)
(2.17782e-08 -1.37798e-08 0)
(2.75609e-08 -1.60492e-08 0)
(3.40334e-08 -1.82469e-08 0)
(4.11744e-08 -2.03499e-08 0)
(4.89611e-08 -2.23273e-08 0)
(5.74152e-08 -2.41466e-08 0)
(6.67933e-08 -2.57853e-08 0)
(7.64306e-08 -2.72094e-08 0)
(8.60825e-08 -2.84753e-08 0)
(9.63444e-08 -2.96378e-08 0)
(1.07141e-07 -3.06844e-08 0)
(1.1823e-07 -3.14742e-08 0)
(1.29442e-07 -3.21193e-08 0)
(1.40817e-07 -3.26038e-08 0)
(1.52323e-07 -3.29192e-08 0)
(1.63997e-07 -3.3073e-08 0)
(1.7575e-07 -3.30554e-08 0)
(1.87371e-07 -3.29074e-08 0)
(1.9883e-07 -3.25815e-08 0)
(2.10147e-07 -3.21081e-08 0)
(2.21279e-07 -3.14903e-08 0)
(2.32165e-07 -3.07319e-08 0)
(2.42764e-07 -2.98422e-08 0)
(2.53119e-07 -2.88306e-08 0)
(2.63187e-07 -2.76994e-08 0)
(2.72774e-07 -2.64683e-08 0)
(2.81834e-07 -2.51054e-08 0)
(2.90406e-07 -2.36451e-08 0)
(2.98466e-07 -2.20929e-08 0)
(3.05975e-07 -2.04533e-08 0)
(3.12905e-07 -1.87349e-08 0)
(3.19325e-07 -1.69474e-08 0)
(3.25196e-07 -1.50937e-08 0)
(3.30341e-07 -1.31972e-08 0)
(3.34747e-07 -1.12262e-08 0)
(3.38469e-07 -9.21804e-09 0)
(6.29308e-11 6.07001e-10 0)
(4.88707e-10 5.98671e-10 0)
(1.43124e-09 -4.1092e-10 0)
(2.89402e-09 -2.19066e-09 0)
(5.01434e-09 -4.52171e-09 0)
(7.86444e-09 -7.22963e-09 0)
(1.14961e-08 -1.01835e-08 0)
(1.60589e-08 -1.32936e-08 0)
(2.15069e-08 -1.64862e-08 0)
(2.76836e-08 -1.95992e-08 0)
(3.45844e-08 -2.26004e-08 0)
(4.22224e-08 -2.54795e-08 0)
(5.06117e-08 -2.81863e-08 0)
(5.973e-08 -3.06934e-08 0)
(6.95807e-08 -3.30225e-08 0)
(8.03792e-08 -3.52631e-08 0)
(9.15488e-08 -3.77778e-08 0)
(1.02791e-07 -3.95183e-08 0)
(1.146e-07 -4.09074e-08 0)
(1.2704e-07 -4.20747e-08 0)
(1.398e-07 -4.31366e-08 0)
(1.52656e-07 -4.40126e-08 0)
(1.65721e-07 -4.46658e-08 0)
(1.78935e-07 -4.50917e-08 0)
(1.92321e-07 -4.53135e-08 0)
(2.05781e-07 -4.53537e-08 0)
(2.19121e-07 -4.51102e-08 0)
(2.32285e-07 -4.46347e-08 0)
(2.45261e-07 -4.39785e-08 0)
(2.58022e-07 -4.3138e-08 0)
(2.70503e-07 -4.21116e-08 0)
(2.8265e-07 -4.09064e-08 0)
(2.94507e-07 -3.95399e-08 0)
(3.06016e-07 -3.8013e-08 0)
(3.17e-07 -3.62841e-08 0)
(3.27393e-07 -3.43972e-08 0)
(3.37208e-07 -3.23935e-08 0)
(3.4644e-07 -3.02707e-08 0)
(3.55041e-07 -2.80328e-08 0)
(3.6298e-07 -2.56916e-08 0)
(3.70323e-07 -2.32675e-08 0)
(3.77023e-07 -2.07647e-08 0)
(3.82919e-07 -1.81313e-08 0)
(3.8798e-07 -1.54144e-08 0)
(3.92237e-07 -1.26602e-08 0)
(1.54767e-10 5.42817e-10 0)
(7.89071e-10 1.26484e-10 0)
(2.04828e-09 -1.48651e-09 0)
(3.98602e-09 -3.95857e-09 0)
(6.71311e-09 -7.04723e-09 0)
(1.02704e-08 -1.05621e-08 0)
(1.46812e-08 -1.43527e-08 0)
(2.00818e-08 -1.83105e-08 0)
(2.65305e-08 -2.23625e-08 0)
(3.38323e-08 -2.63083e-08 0)
(4.18823e-08 -3.01798e-08 0)
(5.07513e-08 -3.38859e-08 0)
(6.04452e-08 -3.73617e-08 0)
(7.08758e-08 -4.05716e-08 0)
(8.19504e-08 -4.35366e-08 0)
(9.35844e-08 -4.63587e-08 0)
(1.06247e-07 -4.94574e-08 0)
(1.19628e-07 -5.17193e-08 0)
(1.33138e-07 -5.35387e-08 0)
(1.46999e-07 -5.50694e-08 0)
(1.61171e-07 -5.64932e-08 0)
(1.75629e-07 -5.76278e-08 0)
(1.90327e-07 -5.84532e-08 0)
(2.05162e-07 -5.89773e-08 0)
(2.20132e-07 -5.92187e-08 0)
(2.35261e-07 -5.92046e-08 0)
(2.50297e-07 -5.88427e-08 0)
(2.65043e-07 -5.82335e-08 0)
(2.79564e-07 -5.73748e-08 0)
(2.93857e-07 -5.6271e-08 0)
(3.07841e-07 -5.49273e-08 0)
(3.21445e-07 -5.33485e-08 0)
(3.34708e-07 -5.15482e-08 0)
(3.47633e-07 -4.95395e-08 0)
(3.59974e-07 -4.72724e-08 0)
(3.71591e-07 -4.48405e-08 0)
(3.82561e-07 -4.22366e-08 0)
(3.9289e-07 -3.94679e-08 0)
(4.02516e-07 -3.6547e-08 0)
(4.11389e-07 -3.34874e-08 0)
(4.19577e-07 -3.03088e-08 0)
(4.27109e-07 -2.70306e-08 0)
(4.33757e-07 -2.35838e-08 0)
(4.39405e-07 -2.00731e-08 0)
(4.44152e-07 -1.64944e-08 0)
(1.80082e-10 3.70689e-10 0)
(9.66812e-10 -7.14986e-10 0)
(2.5914e-09 -3.09254e-09 0)
(5.062e-09 -6.3835e-09 0)
(8.42932e-09 -1.03429e-08 0)
(1.27269e-08 -1.47675e-08 0)
(1.79704e-08 -1.9484e-08 0)
(2.42704e-08 -2.43456e-08 0)
(3.17044e-08 -2.92471e-08 0)
(4.00369e-08 -3.41388e-08 0)
(4.9174e-08 -3.89627e-08 0)
(5.92414e-08 -4.36059e-08 0)
(7.02096e-08 -4.80097e-08 0)
(8.19787e-08 -5.21127e-08 0)
(9.44189e-08 -5.58692e-08 0)
(1.07349e-07 -5.9281e-08 0)
(1.21407e-07 -6.24225e-08 0)
(1.36317e-07 -6.52202e-08 0)
(1.51301e-07 -6.76695e-08 0)
(1.6663e-07 -6.97815e-08 0)
(1.82323e-07 -7.15409e-08 0)
(1.9835e-07 -7.29158e-08 0)
(2.14625e-07 -7.39126e-08 0)
(2.31041e-07 -7.45346e-08 0)
(2.47592e-07 -7.47827e-08 0)
(2.64281e-07 -7.4661e-08 0)
(2.8083e-07 -7.42295e-08 0)
(2.97081e-07 -7.34842e-08 0)
(3.13109e-07 -7.23935e-08 0)
(3.28871e-07 -7.09818e-08 0)
(3.44289e-07 -6.92679e-08 0)
(3.59292e-07 -6.72596e-08 0)
(3.73907e-07 -6.49581e-08 0)
(3.88131e-07 -6.23824e-08 0)
(4.01693e-07 -5.958e-08 0)
(4.14479e-07 -5.65556e-08 0)
(4.26579e-07 -5.32859e-08 0)
(4.37961e-07 -4.9797e-08 0)
(4.48564e-07 -4.6112e-08 0)
(4.58343e-07 -4.22463e-08 0)
(4.67353e-07 -3.82087e-08 0)
(4.75628e-07 -3.40246e-08 0)
(4.82917e-07 -2.97373e-08 0)
(4.89121e-07 -2.53605e-08 0)
(4.94362e-07 -2.08708e-08 0)
(1.74269e-10 -6.62437e-11 0)
(1.10821e-09 -2.00872e-09 0)
(3.12556e-09 -5.26252e-09 0)
(6.13224e-09 -9.48351e-09 0)
(1.01452e-08 -1.44165e-08 0)
(1.51924e-08 -1.98453e-08 0)
(2.12878e-08 -2.55837e-08 0)
(2.85382e-08 -3.14661e-08 0)
(3.69367e-08 -3.73419e-08 0)
(4.62675e-08 -4.32297e-08 0)
(5.65101e-08 -4.89892e-08 0)
(6.77528e-08 -5.45406e-08 0)
(7.99632e-08 -5.98291e-08 0)
(9.30496e-08 -6.47902e-08 0)
(1.06863e-07 -6.93582e-08 0)
(1.21202e-07 -7.34923e-08 0)
(1.36613e-07 -7.71291e-08 0)
(1.52864e-07 -8.05182e-08 0)
(1.69277e-07 -8.35116e-08 0)
(1.86085e-07 -8.60525e-08 0)
(2.03282e-07 -8.812e-08 0)
(2.20818e-07 -8.97309e-08 0)
(2.38605e-07 -9.09038e-08 0)
(2.56537e-07 -9.16292e-08 0)
(2.74604e-07 -9.19161e-08 0)
(2.92763e-07 -9.17658e-08 0)
(3.10761e-07 -9.12388e-08 0)
(3.28483e-07 -9.03015e-08 0)
(3.45957e-07 -8.89451e-08 0)
(3.63121e-07 -8.71952e-08 0)
(3.79903e-07 -8.50762e-08 0)
(3.96239e-07 -8.26042e-08 0)
(4.12149e-07 -7.97846e-08 0)
(4.27583e-07 -7.66308e-08 0)
(4.42299e-07 -7.32059e-08 0)
(4.56221e-07 -6.94853e-08 0)
(4.69397e-07 -6.54726e-08 0)
(4.8178e-07 -6.11944e-08 0)
(4.93312e-07 -5.66762e-08 0)
(5.03952e-07 -5.19395e-08 0)
(5.13753e-07 -4.69979e-08 0)
(5.22703e-07 -4.18682e-08 0)
(5.30582e-07 -3.66318e-08 0)
(5.37335e-07 -3.12597e-08 0)
(5.43045e-07 -2.57569e-08 0)
(1.89741e-10 -6.18802e-10 0)
(1.28291e-09 -3.58788e-09 0)
(3.67328e-09 -7.87818e-09 0)
(7.2004e-09 -1.31614e-08 0)
(1.18506e-08 -1.91786e-08 0)
(1.76412e-08 -2.57072e-08 0)
(2.45815e-08 -3.25538e-08 0)
(3.27837e-08 -3.95457e-08 0)
(4.21722e-08 -4.65157e-08 0)
(5.25273e-08 -5.34364e-08 0)
(6.38755e-08 -6.0182e-08 0)
(7.62742e-08 -6.66774e-08 0)
(8.96927e-08 -7.28723e-08 0)
(1.04053e-07 -7.87078e-08 0)
(1.1921e-07 -8.41122e-08 0)
(1.34984e-07 -8.90164e-08 0)
(1.51728e-07 -9.32982e-08 0)
(1.6925e-07 -9.72941e-08 0)
(1.87079e-07 -1.00811e-07 0)
(2.05357e-07 -1.03773e-07 0)
(2.24025e-07 -1.06169e-07 0)
(2.43011e-07 -1.08037e-07 0)
(2.62251e-07 -1.09407e-07 0)
(2.8164e-07 -1.10228e-07 0)
(3.01155e-07 -1.10541e-07 0)
(3.20742e-07 -1.10325e-07 0)
(3.40149e-07 -1.09659e-07 0)
(3.59282e-07 -1.08519e-07 0)
(3.78147e-07 -1.06885e-07 0)
(3.9666e-07 -1.04776e-07 0)
(4.14748e-07 -1.02219e-07 0)
(4.32349e-07 -9.92393e-08 0)
(4.49487e-07 -9.58555e-08 0)
(4.66091e-07 -9.2075e-08 0)
(4.81925e-07 -8.79467e-08 0)
(4.96926e-07 -8.34727e-08 0)
(5.11125e-07 -7.86601e-08 0)
(5.24462e-07 -7.35329e-08 0)
(5.36878e-07 -6.81166e-08 0)
(5.48332e-07 -6.24386e-08 0)
(5.58881e-07 -5.6522e-08 0)
(5.68484e-07 -5.03779e-08 0)
(5.76935e-07 -4.40829e-08 0)
(5.84205e-07 -3.76316e-08 0)
(5.90354e-07 -3.1034e-08 0)
(2.16756e-10 -1.24795e-09 0)
(1.47447e-09 -5.43555e-09 0)
(4.22546e-09 -1.09348e-08 0)
(8.26122e-09 -1.74184e-08 0)
(1.35383e-08 -2.46363e-08 0)
(2.00628e-08 -3.23624e-08 0)
(2.78377e-08 -4.03976e-08 0)
(3.69783e-08 -4.85654e-08 0)
(4.73621e-08 -5.67025e-08 0)
(5.87572e-08 -6.47355e-08 0)
(7.12126e-08 -7.25493e-08 0)
(8.47588e-08 -8.00529e-08 0)
(9.9362e-08 -8.72031e-08 0)
(1.14964e-07 -9.39441e-08 0)
(1.31434e-07 -1.00199e-07 0)
(1.48629e-07 -1.05885e-07 0)
(1.66694e-07 -1.10876e-07 0)
(1.8547e-07 -1.15462e-07 0)
(2.04695e-07 -1.19485e-07 0)
(2.24416e-07 -1.22884e-07 0)
(2.44514e-07 -1.25642e-07 0)
(2.64895e-07 -1.27795e-07 0)
(2.85557e-07 -1.29377e-07 0)
(3.06377e-07 -1.30282e-07 0)
(3.27311e-07 -1.30588e-07 0)
(3.48275e-07 -1.30232e-07 0)
(3.69008e-07 -1.29421e-07 0)
(3.89492e-07 -1.28078e-07 0)
(4.09704e-07 -1.26155e-07 0)
(4.2953e-07 -1.23669e-07 0)
(4.48884e-07 -1.20647e-07 0)
(4.67704e-07 -1.17118e-07 0)
(4.86024e-07 -1.1311e-07 0)
(5.03754e-07 -1.08628e-07 0)
(5.20653e-07 -1.03748e-07 0)
(5.3668e-07 -9.84762e-08 0)
(5.51857e-07 -9.28083e-08 0)
(5.66112e-07 -8.67739e-08 0)
(5.79378e-07 -8.03979e-08 0)
(5.91613e-07 -7.37081e-08 0)
(6.02882e-07 -6.67329e-08 0)
(6.13113e-07 -5.94819e-08 0)
(6.22103e-07 -5.20554e-08 0)
(6.29857e-07 -4.44565e-08 0)
(6.36423e-07 -3.66856e-08 0)
(2.45764e-10 -1.97751e-09 0)
(1.66365e-09 -7.56634e-09 0)
(4.76911e-09 -1.44355e-08 0)
(9.30782e-09 -2.22494e-08 0)
(1.52009e-08 -3.07839e-08 0)
(2.24505e-08 -3.98081e-08 0)
(3.10509e-08 -4.91169e-08 0)
(4.11097e-08 -5.85333e-08 0)
(5.24761e-08 -6.79068e-08 0)
(6.49067e-08 -7.71254e-08 0)
(7.84667e-08 -8.60811e-08 0)
(9.31598e-08 -9.46395e-08 0)
(1.08935e-07 -1.02778e-07 0)
(1.2576e-07 -1.10443e-07 0)
(1.43527e-07 -1.17558e-07 0)
(1.62114e-07 -1.24029e-07 0)
(1.81506e-07 -1.29718e-07 0)
(2.01547e-07 -1.34823e-07 0)
(2.22121e-07 -1.39317e-07 0)
(2.43228e-07 -1.43191e-07 0)
(2.64713e-07 -1.46391e-07 0)
(2.86453e-07 -1.48854e-07 0)
(3.0852e-07 -1.50547e-07 0)
(3.30765e-07 -1.51563e-07 0)
(3.5312e-07 -1.51891e-07 0)
(3.75394e-07 -1.51489e-07 0)
(3.97346e-07 -1.50534e-07 0)
(4.19134e-07 -1.48958e-07 0)
(4.40663e-07 -1.46695e-07 0)
(4.61769e-07 -1.43799e-07 0)
(4.82362e-07 -1.40286e-07 0)
(5.02373e-07 -1.36178e-07 0)
(5.21846e-07 -1.31505e-07 0)
(5.40656e-07 -1.26277e-07 0)
(5.5856e-07 -1.20598e-07 0)
(5.7557e-07 -1.14475e-07 0)
(5.9169e-07 -1.07876e-07 0)
(6.06827e-07 -1.00865e-07 0)
(6.20916e-07 -9.34643e-08 0)
(6.33911e-07 -8.56997e-08 0)
(6.45882e-07 -7.75996e-08 0)
(6.56714e-07 -6.91805e-08 0)
(6.66203e-07 -6.05543e-08 0)
(6.74417e-07 -5.17357e-08 0)
(6.81381e-07 -4.27007e-08 0)
(2.71986e-10 -2.80396e-09 0)
(1.84235e-09 -9.94048e-09 0)
(5.30388e-09 -1.82719e-08 0)
(1.03419e-08 -2.75337e-08 0)
(1.68343e-08 -3.74966e-08 0)
(2.47974e-08 -4.79163e-08 0)
(3.42103e-08 -5.85899e-08 0)
(4.51622e-08 -6.93562e-08 0)
(5.74921e-08 -8.00875e-08 0)
(7.09486e-08 -9.05564e-08 0)
(8.56238e-08 -1.00657e-07 0)
(1.0148e-07 -1.10251e-07 0)
(1.1842e-07 -1.19329e-07 0)
(1.3645e-07 -1.2786e-07 0)
(1.55491e-07 -1.35825e-07 0)
(1.75471e-07 -1.43174e-07 0)
(1.96248e-07 -1.49841e-07 0)
(2.17558e-07 -1.55542e-07 0)
(2.39351e-07 -1.60508e-07 0)
(2.61701e-07 -1.64807e-07 0)
(2.84547e-07 -1.68389e-07 0)
(3.07771e-07 -1.71149e-07 0)
(3.31215e-07 -1.73026e-07 0)
(3.54735e-07 -1.74169e-07 0)
(3.78417e-07 -1.74525e-07 0)
(4.01984e-07 -1.74143e-07 0)
(4.25201e-07 -1.72987e-07 0)
(4.48289e-07 -1.71037e-07 0)
(4.71099e-07 -1.68316e-07 0)
(4.93431e-07 -1.64945e-07 0)
(5.15224e-07 -1.60921e-07 0)
(5.364e-07 -1.56234e-07 0)
(5.57001e-07 -1.50903e-07 0)
(5.76857e-07 -1.44966e-07 0)
(5.95727e-07 -1.38443e-07 0)
(6.13702e-07 -1.31348e-07 0)
(6.30742e-07 -1.23699e-07 0)
(6.46715e-07 -1.1561e-07 0)
(6.61591e-07 -1.07114e-07 0)
(6.75318e-07 -9.82299e-08 0)
(6.87966e-07 -8.89873e-08 0)
(6.99378e-07 -7.94241e-08 0)
(7.09347e-07 -6.9536e-08 0)
(7.18015e-07 -5.93752e-08 0)
(7.25369e-07 -4.89647e-08 0)
(3.05088e-10 -3.6285e-09 0)
(2.06915e-09 -1.24097e-08 0)
(5.88387e-09 -2.23559e-08 0)
(1.13701e-08 -3.32431e-08 0)
(1.84424e-08 -4.47759e-08 0)
(2.71017e-08 -5.67102e-08 0)
(3.72866e-08 -6.88457e-08 0)
(4.90559e-08 -8.10252e-08 0)
(6.23499e-08 -9.31481e-08 0)
(7.69264e-08 -1.04908e-07 0)
(9.27796e-08 -1.16196e-07 0)
(1.09836e-07 -1.2698e-07 0)
(1.27954e-07 -1.37142e-07 0)
(1.4712e-07 -1.46633e-07 0)
(1.67259e-07 -1.55456e-07 0)
(1.88305e-07 -1.63636e-07 0)
(2.10486e-07 -1.71329e-07 0)
(2.33352e-07 -1.77776e-07 0)
(2.56441e-07 -1.83286e-07 0)
(2.80038e-07 -1.87961e-07 0)
(3.04163e-07 -1.91819e-07 0)
(3.28705e-07 -1.94832e-07 0)
(3.53482e-07 -1.96971e-07 0)
(3.78338e-07 -1.98206e-07 0)
(4.033e-07 -1.98538e-07 0)
(4.28162e-07 -1.98144e-07 0)
(4.52749e-07 -1.96688e-07 0)
(4.77155e-07 -1.94286e-07 0)
(5.01142e-07 -1.91134e-07 0)
(5.24571e-07 -1.8726e-07 0)
(5.47479e-07 -1.82659e-07 0)
(5.6977e-07 -1.77321e-07 0)
(5.91437e-07 -1.71267e-07 0)
(6.12351e-07 -1.64596e-07 0)
(6.32289e-07 -1.57164e-07 0)
(6.51263e-07 -1.49029e-07 0)
(6.6917e-07 -1.40336e-07 0)
(6.85902e-07 -1.31132e-07 0)
(7.01485e-07 -1.21466e-07 0)
(7.15872e-07 -1.11371e-07 0)
(7.29114e-07 -1.00889e-07 0)
(7.41125e-07 -9.01157e-08 0)
(7.51685e-07 -7.88746e-08 0)
(7.60832e-07 -6.7274e-08 0)
(7.68535e-07 -5.54707e-08 0)
(3.42988e-10 -4.50741e-09 0)
(2.26766e-09 -1.51083e-08 0)
(6.37587e-09 -2.68991e-08 0)
(1.23035e-08 -3.95641e-08 0)
(1.99737e-08 -5.27954e-08 0)
(2.93358e-08 -6.63619e-08 0)
(4.03096e-08 -8.00571e-08 0)
(5.29105e-08 -9.36977e-08 0)
(6.71506e-08 -1.07143e-07 0)
(8.28073e-08 -1.20248e-07 0)
(9.972e-08 -1.32883e-07 0)
(1.17877e-07 -1.44989e-07 0)
(1.37209e-07 -1.56386e-07 0)
(1.5762e-07 -1.66974e-07 0)
(1.78967e-07 -1.76711e-07 0)
(2.01034e-07 -1.8565e-07 0)
(2.2447e-07 -1.94076e-07 0)
(2.48867e-07 -2.01304e-07 0)
(2.73319e-07 -2.07448e-07 0)
(2.98196e-07 -2.1256e-07 0)
(3.2357e-07 -2.167e-07 0)
(3.4937e-07 -2.199e-07 0)
(3.75443e-07 -2.22163e-07 0)
(4.01615e-07 -2.23459e-07 0)
(4.27765e-07 -2.23779e-07 0)
(4.53952e-07 -2.23286e-07 0)
(4.80001e-07 -2.2159e-07 0)
(5.05599e-07 -2.18896e-07 0)
(5.30684e-07 -2.15354e-07 0)
(5.55252e-07 -2.10931e-07 0)
(5.7928e-07 -2.0567e-07 0)
(6.02663e-07 -1.99598e-07 0)
(6.25328e-07 -1.92733e-07 0)
(6.47269e-07 -1.85144e-07 0)
(6.68283e-07 -1.76777e-07 0)
(6.8817e-07 -1.67686e-07 0)
(7.06895e-07 -1.57971e-07 0)
(7.24424e-07 -1.47621e-07 0)
(7.40734e-07 -1.3671e-07 0)
(7.55781e-07 -1.25304e-07 0)
(7.69567e-07 -1.13457e-07 0)
(7.82153e-07 -1.01257e-07 0)
(7.93318e-07 -8.86074e-08 0)
(8.02867e-07 -7.56154e-08 0)
(8.10863e-07 -6.24005e-08 0)
(3.56642e-10 -5.57854e-09 0)
(2.3947e-09 -1.82227e-08 0)
(6.8021e-09 -3.19805e-08 0)
(1.31962e-08 -4.65053e-08 0)
(2.14528e-08 -6.15282e-08 0)
(3.15049e-08 -7.68223e-08 0)
(4.32719e-08 -9.21759e-08 0)
(5.67721e-08 -1.07385e-07 0)
(7.19316e-08 -1.22229e-07 0)
(8.85171e-08 -1.36745e-07 0)
(1.06455e-07 -1.50768e-07 0)
(1.2574e-07 -1.64147e-07 0)
(1.46286e-07 -1.76746e-07 0)
(1.67955e-07 -1.8845e-07 0)
(1.90531e-07 -1.99191e-07 0)
(2.13633e-07 -2.08994e-07 0)
(2.38233e-07 -2.18057e-07 0)
(2.6406e-07 -2.26062e-07 0)
(2.89921e-07 -2.32897e-07 0)
(3.16162e-07 -2.38509e-07 0)
(3.42826e-07 -2.42943e-07 0)
(3.69862e-07 -2.46281e-07 0)
(3.9715e-07 -2.48597e-07 0)
(4.24551e-07 -2.49932e-07 0)
(4.51898e-07 -2.50271e-07 0)
(4.79366e-07 -2.49596e-07 0)
(5.06738e-07 -2.47746e-07 0)
(5.33565e-07 -2.44837e-07 0)
(5.5985e-07 -2.40848e-07 0)
(5.85558e-07 -2.35823e-07 0)
(6.10662e-07 -2.29864e-07 0)
(6.35093e-07 -2.23033e-07 0)
(6.58798e-07 -2.15337e-07 0)
(6.81719e-07 -2.06708e-07 0)
(7.03645e-07 -1.97378e-07 0)
(7.24433e-07 -1.87315e-07 0)
(7.44043e-07 -1.76493e-07 0)
(7.62388e-07 -1.64938e-07 0)
(7.79419e-07 -1.5273e-07 0)
(7.95105e-07 -1.39963e-07 0)
(8.09472e-07 -1.26705e-07 0)
(8.22584e-07 -1.12973e-07 0)
(8.34201e-07 -9.88765e-08 0)
(8.44143e-07 -8.44619e-08 0)
(8.52493e-07 -6.97308e-08 0)
(3.72849e-10 -6.77178e-09 0)
(2.53373e-09 -2.16222e-08 0)
(7.23862e-09 -3.74516e-08 0)
(1.40766e-08 -5.39562e-08 0)
(2.28915e-08 -7.08798e-08 0)
(3.36073e-08 -8.79997e-08 0)
(4.61483e-08 -1.05104e-07 0)
(6.0563e-08 -1.2198e-07 0)
(7.6644e-08 -1.38366e-07 0)
(9.41329e-08 -1.54343e-07 0)
(1.13077e-07 -1.69735e-07 0)
(1.33452e-07 -1.84415e-07 0)
(1.55165e-07 -1.98266e-07 0)
(1.78066e-07 -2.11171e-07 0)
(2.01888e-07 -2.23015e-07 0)
(2.26155e-07 -2.33729e-07 0)
(2.5187e-07 -2.43279e-07 0)
(2.78942e-07 -2.51973e-07 0)
(3.06208e-07 -2.59487e-07 0)
(3.33888e-07 -2.65675e-07 0)
(3.61921e-07 -2.70519e-07 0)
(3.90211e-07 -2.74092e-07 0)
(4.18652e-07 -2.765e-07 0)
(4.47159e-07 -2.77838e-07 0)
(4.75671e-07 -2.78112e-07 0)
(5.04395e-07 -2.77085e-07 0)
(5.33022e-07 -2.75026e-07 0)
(5.61099e-07 -2.71864e-07 0)
(5.88636e-07 -2.67487e-07 0)
(6.15505e-07 -2.61911e-07 0)
(6.41666e-07 -2.55263e-07 0)
(6.67107e-07 -2.47632e-07 0)
(6.91882e-07 -2.39032e-07 0)
(7.15761e-07 -2.29289e-07 0)
(7.38505e-07 -2.18893e-07 0)
(7.60167e-07 -2.07739e-07 0)
(7.80656e-07 -1.95777e-07 0)
(7.99828e-07 -1.83015e-07 0)
(8.17591e-07 -1.69501e-07 0)
(8.3391e-07 -1.55327e-07 0)
(8.48866e-07 -1.40588e-07 0)
(8.62475e-07 -1.25274e-07 0)
(8.74486e-07 -1.09625e-07 0)
(8.8481e-07 -9.36427e-08 0)
(8.93515e-07 -7.7321e-08 0)
(3.95065e-10 -8.02625e-09 0)
(2.68607e-09 -2.52325e-08 0)
(7.68053e-09 -4.32879e-08 0)
(1.49436e-08 -6.19132e-08 0)
(2.42963e-08 -8.08512e-08 0)
(3.56536e-08 -9.98903e-08 0)
(4.89492e-08 -1.18822e-07 0)
(6.42729e-08 -1.37433e-07 0)
(8.12784e-08 -1.55468e-07 0)
(9.96658e-08 -1.72967e-07 0)
(1.19587e-07 -1.89784e-07 0)
(1.40994e-07 -2.05822e-07 0)
(1.63803e-07 -2.20967e-07 0)
(1.87891e-07 -2.35121e-07 0)
(2.13003e-07 -2.48115e-07 0)
(2.38691e-07 -2.59737e-07 0)
(2.65558e-07 -2.69464e-07 0)
(2.93629e-07 -2.78571e-07 0)
(3.22176e-07 -2.86702e-07 0)
(3.51244e-07 -2.93699e-07 0)
(3.80664e-07 -2.99392e-07 0)
(4.10263e-07 -3.03681e-07 0)
(4.39905e-07 -3.0654e-07 0)
(4.69551e-07 -3.0795e-07 0)
(4.99372e-07 -3.07841e-07 0)
(5.29278e-07 -3.05712e-07 0)
(5.58888e-07 -3.03279e-07 0)
(5.88138e-07 -2.99836e-07 0)
(6.1694e-07 -2.95139e-07 0)
(6.45024e-07 -2.89086e-07 0)
(6.72288e-07 -2.81794e-07 0)
(6.98776e-07 -2.73344e-07 0)
(7.24701e-07 -2.63761e-07 0)
(7.49524e-07 -2.52852e-07 0)
(7.72967e-07 -2.4128e-07 0)
(7.95425e-07 -2.28947e-07 0)
(8.16743e-07 -2.15787e-07 0)
(8.36736e-07 -2.01801e-07 0)
(8.55272e-07 -1.86978e-07 0)
(8.72269e-07 -1.71369e-07 0)
(8.87854e-07 -1.55082e-07 0)
(9.01947e-07 -1.38152e-07 0)
(9.14295e-07 -1.20814e-07 0)
(9.24962e-07 -1.03145e-07 0)
(9.33995e-07 -8.51477e-08 0)
(4.19862e-10 -9.35765e-09 0)
(2.83846e-09 -2.90651e-08 0)
(8.10939e-09 -4.94945e-08 0)
(1.579e-08 -7.03727e-08 0)
(2.56755e-08 -9.14264e-08 0)
(3.76626e-08 -1.12469e-07 0)
(5.16971e-08 -1.33296e-07 0)
(6.78944e-08 -1.53712e-07 0)
(8.58156e-08 -1.73518e-07 0)
(1.05109e-07 -1.92615e-07 0)
(1.25975e-07 -2.10926e-07 0)
(1.48376e-07 -2.28348e-07 0)
(1.72232e-07 -2.44735e-07 0)
(1.97462e-07 -2.60048e-07 0)
(2.23924e-07 -2.7413e-07 0)
(2.51509e-07 -2.8674e-07 0)
(2.79742e-07 -2.97401e-07 0)
(3.08373e-07 -3.07037e-07 0)
(3.37683e-07 -3.15573e-07 0)
(3.6771e-07 -3.22978e-07 0)
(3.98339e-07 -3.29095e-07 0)
(4.29343e-07 -3.33774e-07 0)
(4.60531e-07 -3.36936e-07 0)
(4.91869e-07 -3.38485e-07 0)
(5.23781e-07 -3.38275e-07 0)
(5.54691e-07 -3.35733e-07 0)
(5.84496e-07 -3.32828e-07 0)
(6.14703e-07 -3.28917e-07 0)
(6.44723e-07 -3.23779e-07 0)
(6.74064e-07 -3.17155e-07 0)
(7.02508e-07 -3.09184e-07 0)
(7.30132e-07 -2.99902e-07 0)
(7.57266e-07 -2.89342e-07 0)
(7.83044e-07 -2.7744e-07 0)
(8.07127e-07 -2.64641e-07 0)
(8.30301e-07 -2.51066e-07 0)
(8.52376e-07 -2.36535e-07 0)
(8.73148e-07 -2.21182e-07 0)
(8.92477e-07 -2.04979e-07 0)
(9.1021e-07 -1.87916e-07 0)
(9.26442e-07 -1.70082e-07 0)
(9.41061e-07 -1.5168e-07 0)
(9.53772e-07 -1.32535e-07 0)
(9.6472e-07 -1.13041e-07 0)
(9.74023e-07 -9.32536e-08 0)
(4.46117e-10 -1.07691e-08 0)
(2.98319e-09 -3.31046e-08 0)
(8.51768e-09 -5.60209e-08 0)
(1.66248e-08 -7.9203e-08 0)
(2.70508e-08 -1.0244e-07 0)
(3.9658e-08 -1.25548e-07 0)
(5.44079e-08 -1.48343e-07 0)
(7.14023e-08 -1.70678e-07 0)
(9.02173e-08 -1.92459e-07 0)
(1.10448e-07 -2.13256e-07 0)
(1.32266e-07 -2.3309e-07 0)
(1.5571e-07 -2.51732e-07 0)
(1.80642e-07 -2.69056e-07 0)
(2.06967e-07 -2.85211e-07 0)
(2.34644e-07 -3.0023e-07 0)
(2.63553e-07 -3.141e-07 0)
(2.93144e-07 -3.27043e-07 0)
(3.23052e-07 -3.37583e-07 0)
(3.53508e-07 -3.46469e-07 0)
(3.84649e-07 -3.53917e-07 0)
(4.16429e-07 -3.59934e-07 0)
(4.48607e-07 -3.64473e-07 0)
(4.80995e-07 -3.67532e-07 0)
(5.13624e-07 -3.6909e-07 0)
(5.4715e-07 -3.69087e-07 0)
(5.79366e-07 -3.67373e-07 0)
(6.09966e-07 -3.64035e-07 0)
(6.41078e-07 -3.59374e-07 0)
(6.72233e-07 -3.53346e-07 0)
(7.02799e-07 -3.45638e-07 0)
(7.32385e-07 -3.36704e-07 0)
(7.61142e-07 -3.26578e-07 0)
(7.89381e-07 -3.15291e-07 0)
(8.16154e-07 -3.02984e-07 0)
(8.40997e-07 -2.89084e-07 0)
(8.64933e-07 -2.74292e-07 0)
(8.8779e-07 -2.57924e-07 0)
(9.09236e-07 -2.4073e-07 0)
(9.29277e-07 -2.22921e-07 0)
(9.4772e-07 -2.04428e-07 0)
(9.64474e-07 -1.85159e-07 0)
(9.79724e-07 -1.65274e-07 0)
(9.93027e-07 -1.44625e-07 0)
(1.00421e-06 -1.23332e-07 0)
(1.01371e-06 -1.01676e-07 0)
(4.75171e-10 -1.21748e-08 0)
(3.1364e-09 -3.72383e-08 0)
(8.98611e-09 -6.27247e-08 0)
(1.75462e-08 -8.83559e-08 0)
(2.84815e-08 -1.13959e-07 0)
(4.16758e-08 -1.39288e-07 0)
(5.70546e-08 -1.64163e-07 0)
(7.46616e-08 -1.88475e-07 0)
(9.43577e-08 -2.12251e-07 0)
(1.15691e-07 -2.34885e-07 0)
(1.3868e-07 -2.56283e-07 0)
(1.63447e-07 -2.7631e-07 0)
(1.8955e-07 -2.94961e-07 0)
(2.16759e-07 -3.12209e-07 0)
(2.45107e-07 -3.28147e-07 0)
(2.74309e-07 -3.42959e-07 0)
(3.05361e-07 -3.57361e-07 0)
(3.37499e-07 -3.68845e-07 0)
(3.69317e-07 -3.78379e-07 0)
(4.01606e-07 -3.86223e-07 0)
(4.34518e-07 -3.92446e-07 0)
(4.67844e-07 -3.97017e-07 0)
(5.01372e-07 -3.9996e-07 0)
(5.35129e-07 -4.01343e-07 0)
(5.69673e-07 -4.01331e-07 0)
(6.03285e-07 -4.00856e-07 0)
(6.35413e-07 -3.97329e-07 0)
(6.677e-07 -3.91626e-07 0)
(7.00171e-07 -3.84252e-07 0)
(7.3184e-07 -3.75625e-07 0)
(7.62144e-07 -3.65753e-07 0)
(7.91585e-07 -3.54663e-07 0)
(8.20388e-07 -3.42454e-07 0)
(8.48291e-07 -3.29575e-07 0)
(8.74399e-07 -3.14851e-07 0)
(8.99606e-07 -2.98328e-07 0)
(9.23677e-07 -2.80359e-07 0)
(9.45511e-07 -2.61438e-07 0)
(9.65788e-07 -2.41917e-07 0)
(9.84659e-07 -2.21779e-07 0)
(1.00199e-06 -2.0086e-07 0)
(1.01772e-06 -1.79166e-07 0)
(1.03161e-06 -1.57061e-07 0)
(1.04335e-06 -1.33989e-07 0)
(1.05312e-06 -1.10369e-07 0)
(4.90215e-10 -1.36111e-08 0)
(3.29246e-09 -4.15216e-08 0)
(9.42664e-09 -6.97327e-08 0)
(1.83459e-08 -9.80281e-08 0)
(2.97765e-08 -1.26165e-07 0)
(4.36034e-08 -1.53875e-07 0)
(5.967e-08 -1.80963e-07 0)
(7.78871e-08 -2.07276e-07 0)
(9.83449e-08 -2.32747e-07 0)
(1.20779e-07 -2.5721e-07 0)
(1.44903e-07 -2.80368e-07 0)
(1.7068e-07 -3.02178e-07 0)
(1.97881e-07 -3.22587e-07 0)
(2.26323e-07 -3.41308e-07 0)
(2.55767e-07 -3.58306e-07 0)
(2.85483e-07 -3.73793e-07 0)
(3.17621e-07 -3.88549e-07 0)
(3.51576e-07 -4.00997e-07 0)
(3.8482e-07 -4.11402e-07 0)
(4.18394e-07 -4.19806e-07 0)
(4.52557e-07 -4.26322e-07 0)
(4.87113e-07 -4.30942e-07 0)
(5.21785e-07 -4.33767e-07 0)
(5.56467e-07 -4.34989e-07 0)
(5.90954e-07 -4.34855e-07 0)
(6.25801e-07 -4.34309e-07 0)
(6.60757e-07 -4.30608e-07 0)
(6.94864e-07 -4.2451e-07 0)