/*--------------------------------*- C++ -*----------------------------------*\
  =========                 |
  \\      /  F ield         | OpenFOAM: The Open Source CFD Toolbox
   \\    /   O peration     | Website:  https://openfoam.org
    \\  /    A nd           | Version:  7
     \\/     M anipulation  |
\*---------------------------------------------------------------------------*/
FoamFile
{
    version     2.0;
    format      ascii;
    class       volScalarField;
    location    "6.7";
    object      p;
}
// * * * * * * * * * * * * * * * * * * * * * * * * * * * * * * * * * * * * * //

dimensions      [0 2 -2 0 0 0 0];

internalField   nonuniform List<scalar> 
306000
(
-0.325968
-0.328539
-0.329496
-0.330841
-0.331824
-0.332796
-0.333675
-0.334537
-0.335392
-0.336267
-0.337177
-0.338137
-0.339158
-0.340249
-0.341416
-0.342664
-0.343997
-0.345416
-0.346925
-0.348524
-0.350213
-0.351993
-0.353863
-0.355823
-0.357871
-0.360007
-0.362228
-0.364533
-0.366919
-0.369385
-0.371926
-0.37454
-0.377222
-0.379969
-0.382776
-0.385637
-0.388548
-0.391501
-0.394491
-0.397509
-0.40055
-0.403603
-0.406662
-0.409717
-0.412759
-0.415779
-0.418766
-0.421711
-0.424604
-0.427433
-0.430189
-0.432862
-0.435441
-0.437914
-0.440272
-0.442502
-0.444592
-0.446532
-0.448305
-0.44987
-0.32599
-0.328559
-0.329515
-0.330858
-0.331841
-0.332812
-0.333691
-0.334552
-0.335406
-0.336281
-0.337191
-0.338151
-0.339172
-0.340263
-0.341429
-0.342677
-0.34401
-0.34543
-0.346938
-0.348537
-0.350227
-0.352007
-0.353877
-0.355837
-0.357885
-0.360021
-0.362242
-0.364547
-0.366934
-0.369399
-0.371941
-0.374555
-0.377238
-0.379985
-0.382793
-0.385655
-0.388566
-0.39152
-0.39451
-0.397529
-0.40057
-0.403625
-0.406685
-0.409741
-0.412784
-0.415805
-0.418793
-0.421739
-0.424632
-0.427463
-0.430221
-0.432895
-0.435474
-0.437949
-0.440308
-0.44254
-0.444631
-0.446574
-0.448349
-0.44991
-0.326035
-0.328598
-0.329552
-0.330893
-0.331874
-0.332844
-0.333722
-0.334582
-0.335436
-0.336309
-0.337219
-0.338178
-0.339199
-0.34029
-0.341456
-0.342704
-0.344036
-0.345456
-0.346965
-0.348564
-0.350253
-0.352033
-0.353903
-0.355863
-0.357912
-0.360048
-0.36227
-0.364575
-0.366962
-0.369429
-0.371971
-0.374586
-0.377269
-0.380018
-0.382826
-0.385689
-0.388601
-0.391557
-0.394548
-0.397569
-0.400612
-0.403668
-0.40673
-0.409788
-0.412833
-0.415856
-0.418846
-0.421794
-0.42469
-0.427523
-0.430283
-0.432959
-0.435541
-0.438018
-0.44038
-0.442615
-0.44471
-0.446657
-0.448437
-0.44999
-0.326102
-0.328656
-0.329608
-0.330945
-0.331924
-0.332891
-0.333768
-0.334627
-0.335479
-0.336352
-0.337261
-0.33822
-0.33924
-0.34033
-0.341496
-0.342744
-0.344076
-0.345496
-0.347004
-0.348603
-0.350293
-0.352073
-0.353943
-0.355904
-0.357952
-0.360089
-0.362311
-0.364617
-0.367005
-0.369472
-0.372016
-0.374632
-0.377316
-0.380066
-0.382876
-0.385741
-0.388655
-0.391612
-0.394606
-0.397629
-0.400674
-0.403733
-0.406797
-0.409858
-0.412906
-0.415932
-0.418925
-0.421877
-0.424776
-0.427612
-0.430375
-0.433055
-0.435641
-0.438122
-0.440488
-0.442727
-0.444827
-0.44678
-0.448568
-0.450108
-0.326191
-0.328734
-0.329682
-0.331015
-0.331991
-0.332955
-0.333829
-0.334687
-0.335538
-0.336409
-0.337317
-0.338275
-0.339295
-0.340384
-0.34155
-0.342797
-0.344129
-0.345548
-0.347057
-0.348656
-0.350345
-0.352125
-0.353996
-0.355957
-0.358006
-0.360143
-0.362366
-0.364673
-0.367062
-0.36953
-0.372075
-0.374692
-0.377379
-0.38013
-0.382942
-0.385809
-0.388726
-0.391685
-0.394682
-0.397708
-0.400757
-0.403819
-0.406887
-0.409951
-0.413003
-0.416033
-0.41903
-0.421986
-0.424889
-0.42773
-0.430498
-0.433182
-0.435773
-0.438259
-0.44063
-0.442876
-0.444982
-0.446943
-0.44874
-0.450265
-0.326302
-0.328831
-0.329775
-0.331101
-0.332073
-0.333034
-0.333906
-0.334761
-0.33561
-0.33648
-0.337387
-0.338344
-0.339362
-0.340451
-0.341616
-0.342863
-0.344194
-0.345614
-0.347122
-0.348721
-0.35041
-0.352191
-0.354062
-0.356023
-0.358073
-0.360211
-0.362435
-0.364743
-0.367133
-0.369603
-0.372149
-0.374768
-0.377456
-0.38021
-0.383024
-0.385894
-0.388813
-0.391776
-0.394776
-0.397806
-0.400859
-0.403925
-0.406997
-0.410066
-0.413123
-0.416158
-0.41916
-0.422121
-0.42503
-0.427876
-0.430649
-0.433339
-0.435936
-0.438428
-0.440806
-0.443059
-0.445173
-0.447145
-0.448953
-0.450459
-0.326435
-0.328948
-0.329886
-0.331205
-0.332172
-0.333129
-0.333997
-0.33485
-0.335697
-0.336565
-0.33747
-0.338426
-0.339443
-0.340531
-0.341696
-0.342942
-0.344273
-0.345692
-0.3472
-0.348799
-0.350488
-0.352269
-0.354141
-0.356102
-0.358153
-0.360291
-0.362516
-0.364826
-0.367217
-0.369688
-0.372236
-0.374858
-0.377549
-0.380305
-0.383122
-0.385995
-0.388918
-0.391885
-0.394889
-0.397923
-0.40098
-0.404051
-0.407129
-0.410203
-0.413265
-0.416306
-0.419314
-0.422281
-0.425196
-0.428049
-0.430828
-0.433525
-0.436129
-0.438629
-0.441015
-0.443276
-0.445399
-0.447383
-0.449205
-0.450687
-0.326589
-0.329083
-0.330015
-0.331325
-0.332287
-0.333239
-0.334104
-0.334953
-0.335797
-0.336664
-0.337567
-0.338521
-0.339537
-0.340624
-0.341788
-0.343033
-0.344364
-0.345782
-0.34729
-0.348889
-0.350579
-0.35236
-0.354231
-0.356194
-0.358245
-0.360385
-0.362611
-0.364921
-0.367314
-0.369787
-0.372338
-0.374961
-0.377655
-0.380414
-0.383235
-0.386111
-0.389038
-0.392009
-0.395018
-0.398057
-0.401119
-0.404196
-0.40728
-0.41036
-0.413429
-0.416476
-0.419492
-0.422466
-0.425388
-0.428247
-0.431035
-0.433739
-0.436351
-0.438859
-0.441254
-0.443525
-0.445658
-0.447656
-0.449494
-0.450948
-0.326765
-0.329236
-0.330162
-0.331462
-0.332418
-0.333364
-0.334225
-0.33507
-0.335912
-0.336776
-0.337677
-0.338629
-0.339644
-0.34073
-0.341892
-0.343137
-0.344467
-0.345885
-0.347393
-0.348991
-0.350681
-0.352462
-0.354334
-0.356297
-0.358349
-0.36049
-0.362717
-0.36503
-0.367424
-0.3699
-0.372452
-0.375078
-0.377775
-0.380538
-0.383362
-0.386242
-0.389174
-0.39215
-0.395164
-0.398208
-0.401277
-0.40436
-0.40745
-0.410538
-0.413613
-0.416668
-0.419691
-0.422673
-0.425603
-0.428471
-0.431267
-0.43398
-0.4366
-0.439117
-0.441522
-0.443804
-0.445948
-0.447962
-0.449818
-0.451239
-0.326962
-0.329408
-0.330326
-0.331615
-0.332564
-0.333504
-0.33436
-0.335202
-0.33604
-0.336901
-0.3378
-0.338751
-0.339764
-0.340848
-0.342009
-0.343253
-0.344582
-0.346
-0.347507
-0.349105
-0.350795
-0.352577
-0.354449
-0.356413
-0.358466
-0.360607
-0.362836
-0.36515
-0.367547
-0.370024
-0.372579
-0.375208
-0.377908
-0.380675
-0.383503
-0.386388
-0.389324
-0.392305
-0.395325
-0.398376
-0.401451
-0.404541
-0.407638
-0.410733
-0.413817
-0.41688
-0.419911
-0.422902
-0.425841
-0.428718
-0.431522
-0.434244
-0.436874
-0.439402
-0.441817
-0.444111
-0.446267
-0.448297
-0.450175
-0.451558
-0.327179
-0.329598
-0.330507
-0.331785
-0.332726
-0.333659
-0.334509
-0.335347
-0.336181
-0.337039
-0.337936
-0.338884
-0.339895
-0.340978
-0.342138
-0.343381
-0.344709
-0.346126
-0.347633
-0.349231
-0.350921
-0.352702
-0.354575
-0.356539
-0.358593
-0.360736
-0.362966
-0.365282
-0.367681
-0.37016
-0.372718
-0.375351
-0.378054
-0.380824
-0.383657
-0.386547
-0.389488
-0.392475
-0.395501
-0.398558
-0.40164
-0.404738
-0.407843
-0.410947
-0.414039
-0.417111
-0.420151
-0.423151
-0.426099
-0.428986
-0.4318
-0.434532
-0.437172
-0.43971
-0.442137
-0.444443
-0.446613
-0.44866
-0.450561
-0.451903
-0.327417
-0.329806
-0.330706
-0.33197
-0.332903
-0.333829
-0.334673
-0.335505
-0.336336
-0.337191
-0.338084
-0.33903
-0.340039
-0.34112
-0.342279
-0.34352
-0.344848
-0.346264
-0.34777
-0.349368
-0.351057
-0.352839
-0.354712
-0.356677
-0.358732
-0.360876
-0.363107
-0.365425
-0.367826
-0.370308
-0.372869
-0.375504
-0.378211
-0.380986
-0.383823
-0.386718
-0.389665
-0.392658
-0.395691
-0.398755
-0.401844
-0.40495
-0.408064
-0.411176
-0.414278
-0.417359
-0.420409
-0.423419
-0.426377
-0.429273
-0.432098
-0.434841
-0.437492
-0.440041
-0.44248
-0.444799
-0.446982
-0.449048
-0.450974
-0.452269
-0.327674
-0.330031
-0.330921
-0.33217
-0.333095
-0.334012
-0.33485
-0.335677
-0.336503
-0.337354
-0.338244
-0.339188
-0.340195
-0.341274
-0.342431
-0.343671
-0.344997
-0.346412
-0.347918
-0.349515
-0.351205
-0.352986
-0.35486
-0.356825
-0.358881
-0.361026
-0.363259
-0.365578
-0.367981
-0.370466
-0.37303
-0.375669
-0.37838
-0.381159
-0.384001
-0.386901
-0.389854
-0.392854
-0.395893
-0.398965
-0.402062
-0.405176
-0.408299
-0.41142
-0.414531
-0.417622
-0.420683
-0.423703
-0.426672
-0.429579
-0.432415
-0.435168
-0.43783
-0.440391
-0.442842
-0.445175
-0.447373
-0.449456
-0.45141
-0.452653
-0.327951
-0.330273
-0.331152
-0.332386
-0.333301
-0.334209
-0.33504
-0.335861
-0.336683
-0.33753
-0.338416
-0.339357
-0.340361
-0.341438
-0.342593
-0.343832
-0.345157
-0.346571
-0.348076
-0.349673
-0.351362
-0.353144
-0.355017
-0.356983
-0.35904
-0.361186
-0.36342
-0.365741
-0.368147
-0.370634
-0.373201
-0.375844
-0.378559
-0.381342
-0.384189
-0.387095
-0.390054
-0.39306
-0.396107
-0.399187
-0.402292
-0.405415
-0.408547
-0.411678
-0.414799
-0.417901
-0.420972
-0.424003
-0.426983
-0.429901
-0.432748
-0.435513
-0.438186
-0.440759
-0.443222
-0.445569
-0.447781
-0.449884
-0.451867
-0.453053
-0.328246
-0.330532
-0.331399
-0.332617
-0.333521
-0.33442
-0.335243
-0.336058
-0.336875
-0.337717
-0.3386
-0.339537
-0.340539
-0.341614
-0.342767
-0.344003
-0.345327
-0.34674
-0.348244
-0.34984
-0.351529
-0.35331
-0.355184
-0.357151
-0.359208
-0.361355
-0.363591
-0.365914
-0.368322
-0.370812
-0.373381
-0.376028
-0.378747
-0.381535
-0.384387
-0.387299
-0.390264
-0.393277
-0.396331
-0.399419
-0.402533
-0.405665
-0.408806
-0.411947
-0.415079
-0.418191
-0.421273
-0.424315
-0.427307
-0.430237
-0.433095
-0.435871
-0.438556
-0.441141
-0.443617
-0.445977
-0.448205
-0.450326
-0.452341
-0.453465
-0.32856
-0.330807
-0.331662
-0.332862
-0.333754
-0.334643
-0.335459
-0.336267
-0.337078
-0.337916
-0.338795
-0.339729
-0.340728
-0.341799
-0.34295
-0.344185
-0.345507
-0.346918
-0.348421
-0.350017
-0.351705
-0.353486
-0.35536
-0.357327
-0.359385
-0.361533
-0.36377
-0.366095
-0.368505
-0.370997
-0.37357
-0.37622
-0.378943
-0.381736
-0.384594
-0.387511
-0.390483
-0.393502
-0.396564
-0.39966
-0.402783
-0.405924
-0.409075
-0.412227
-0.415369
-0.418492
-0.421586
-0.424639
-0.427642
-0.430584
-0.433453
-0.436242
-0.438939
-0.441535
-0.444024
-0.446398
-0.44864
-0.450779
-0.452829
-0.453884
-0.328892
-0.331098
-0.331939
-0.33312
-0.334001
-0.334879
-0.335687
-0.336488
-0.337293
-0.338126
-0.339
-0.339931
-0.340926
-0.341995
-0.343143
-0.344376
-0.345696
-0.347106
-0.348608
-0.350202
-0.35189
-0.35367
-0.355544
-0.357511
-0.359569
-0.361719
-0.363957
-0.366283
-0.368695
-0.371191
-0.373767
-0.37642
-0.379147
-0.381945
-0.384807
-0.387731
-0.390709
-0.393736
-0.396805
-0.399909
-0.403041
-0.406192
-0.409353
-0.412515
-0.415668
-0.418802
-0.421907
-0.424973
-0.427987
-0.43094
-0.433822
-0.436622
-0.43933
-0.441939
-0.44444
-0.446828
-0.449084
-0.45124
-0.453328
-0.454308
-0.329242
-0.331404
-0.332231
-0.333393
-0.334261
-0.335128
-0.335926
-0.33672
-0.337519
-0.338346
-0.339216
-0.340142
-0.341134
-0.3422
-0.343346
-0.344576
-0.345894
-0.347302
-0.348802
-0.350396
-0.352082
-0.353862
-0.355736
-0.357703
-0.359761
-0.361911
-0.364151
-0.366479
-0.368893
-0.371391
-0.373969
-0.376626
-0.379358
-0.38216
-0.385028
-0.387957
-0.390941
-0.393975
-0.397052
-0.400165
-0.403306
-0.406466
-0.409637
-0.412809
-0.415974
-0.419119
-0.422236
-0.425313
-0.428339
-0.431304
-0.434197
-0.437009
-0.439729
-0.442349
-0.444862
-0.447263
-0.449534
-0.451706
-0.453833
-0.454732
-0.329608
-0.331724
-0.332537
-0.333678
-0.334534
-0.335388
-0.336177
-0.336963
-0.337755
-0.338577
-0.339442
-0.340364
-0.341352
-0.342414
-0.343557
-0.344785
-0.3461
-0.347507
-0.349005
-0.350597
-0.352282
-0.354062
-0.355935
-0.357901
-0.35996
-0.362111
-0.364351
-0.366681
-0.369096
-0.371596
-0.374178
-0.376838
-0.379574
-0.38238
-0.385253
-0.388188
-0.391179
-0.39422
-0.397305
-0.400425
-0.403575
-0.406745
-0.409926
-0.413109
-0.416284
-0.419441
-0.422569
-0.425658
-0.428696
-0.431672
-0.434577
-0.4374
-0.440131
-0.442763
-0.445288
-0.447702
-0.449986
-0.452172
-0.454341
-0.455152
-0.32999
-0.332059
-0.332857
-0.333976
-0.334818
-0.33566
-0.336439
-0.337217
-0.338001
-0.338817
-0.339677
-0.340594
-0.341578
-0.342637
-0.343777
-0.345001
-0.346314
-0.347718
-0.349215
-0.350805
-0.352489
-0.354267
-0.35614
-0.358106
-0.360165
-0.362316
-0.364557
-0.366887
-0.369305
-0.371807
-0.374391
-0.377055
-0.379794
-0.382605
-0.385483
-0.388423
-0.39142
-0.394468
-0.39756
-0.400689
-0.403848
-0.407027
-0.410218
-0.413411
-0.416597
-0.419766
-0.422905
-0.426005
-0.429055
-0.432043
-0.434959
-0.437793
-0.440536
-0.443178
-0.445714
-0.44814
-0.450437
-0.452636
-0.454849
-0.455564
-0.330388
-0.332408
-0.333189
-0.334287
-0.335114
-0.335943
-0.336712
-0.33748
-0.338257
-0.339066
-0.339921
-0.340833
-0.341813
-0.342868
-0.344004
-0.345225
-0.346536
-0.347937
-0.349431
-0.351019
-0.352702
-0.354479
-0.35635
-0.358316
-0.360375
-0.362525
-0.364767
-0.367099
-0.369517
-0.372021
-0.374608
-0.377275
-0.380017
-0.382832
-0.385715
-0.388661
-0.391664
-0.394718
-0.397818
-0.400955
-0.404122
-0.40731
-0.410511
-0.413715
-0.416912
-0.420091
-0.423242
-0.426353
-0.429414
-0.432414
-0.435341
-0.438186
-0.440939
-0.443592
-0.446138
-0.448574
-0.450884
-0.453094
-0.455355
-0.455964
-0.3308
-0.332769
-0.333534
-0.334608
-0.335421
-0.336236
-0.336994
-0.337753
-0.338522
-0.339325
-0.340173
-0.34108
-0.342055
-0.343106
-0.344238
-0.345456
-0.346763
-0.348162
-0.349654
-0.35124
-0.35292
-0.354696
-0.356566
-0.358531
-0.360589
-0.362739
-0.364981
-0.367313
-0.369733
-0.372239
-0.374828
-0.377497
-0.380243
-0.383061
-0.385949
-0.388899
-0.391908
-0.39497
-0.398076
-0.401221
-0.404396
-0.407594
-0.410804
-0.414018
-0.417225
-0.420415
-0.423577
-0.4267
-0.429772
-0.432782
-0.43572
-0.438575
-0.441338
-0.444
-0.446556
-0.449002
-0.451323
-0.453541
-0.455854
-0.456348
-0.331227
-0.333143
-0.333892
-0.334941
-0.335738
-0.336539
-0.337286
-0.338035
-0.338796
-0.339591
-0.340433
-0.341335
-0.342305
-0.343351
-0.344479
-0.345694
-0.346997
-0.348393
-0.349882
-0.351465
-0.353144
-0.354917
-0.356786
-0.358749
-0.360806
-0.362957
-0.365198
-0.367531
-0.369951
-0.372458
-0.375049
-0.37772
-0.380469
-0.383291
-0.386183
-0.389138
-0.392153
-0.39522
-0.398333
-0.401486
-0.404669
-0.407875
-0.411095
-0.414318
-0.417535
-0.420736
-0.423908
-0.427042
-0.430124
-0.433145
-0.436093
-0.438958
-0.44173
-0.444402
-0.446966
-0.449421
-0.451753
-0.453975
-0.456343
-0.456711
-0.331668
-0.333529
-0.33426
-0.335285
-0.336065
-0.336851
-0.337586
-0.338326
-0.339078
-0.339866
-0.340701
-0.341597
-0.342561
-0.343603
-0.344726
-0.345937
-0.347237
-0.348629
-0.350115
-0.351695
-0.353371
-0.355142
-0.357009
-0.358971
-0.361027
-0.363176
-0.365418
-0.36775
-0.370171
-0.372679
-0.375271
-0.377944
-0.380695
-0.383521
-0.386416
-0.389376
-0.392395
-0.395468
-0.398588
-0.401747
-0.404938
-0.408153
-0.411381
-0.414614
-0.417841
-0.421051
-0.424234
-0.427377
-0.43047
-0.433501
-0.436459
-0.439333
-0.442114
-0.444793
-0.447365
-0.449828
-0.452169
-0.454392
-0.456821
-0.45705
-0.332121
-0.333927
-0.334639
-0.335639
-0.336402
-0.337173
-0.337896
-0.338624
-0.339368
-0.340148
-0.340976
-0.341865
-0.342824
-0.34386
-0.344979
-0.346185
-0.347481
-0.348869
-0.350352
-0.351929
-0.353602
-0.355371
-0.357235
-0.359195
-0.361249
-0.363397
-0.365638
-0.367969
-0.370391
-0.372899
-0.375492
-0.378167
-0.38092
-0.383748
-0.386647
-0.389611
-0.392635
-0.395713
-0.398838
-0.402004
-0.405202
-0.408424
-0.411661
-0.414903
-0.418139
-0.421359
-0.424551
-0.427705
-0.430807
-0.433848
-0.436815
-0.439697
-0.442486
-0.445172
-0.44775
-0.45022
-0.45257
-0.45479
-0.457285
-0.457359
-0.332586
-0.334335
-0.335029
-0.336002
-0.336748
-0.337503
-0.338213
-0.338931
-0.339665
-0.340436
-0.341257
-0.34214
-0.343093
-0.344123
-0.345237
-0.346438
-0.347729
-0.349113
-0.350592
-0.352166
-0.353835
-0.355601
-0.357463
-0.35942
-0.361472
-0.363619
-0.365858
-0.368189
-0.37061
-0.373118
-0.375712
-0.378387
-0.381142
-0.383973
-0.386874
-0.389841
-0.39287
-0.395952
-0.399083
-0.402255
-0.40546
-0.408689
-0.411933
-0.415183
-0.418428
-0.421657
-0.424858
-0.428021
-0.431133
-0.434182
-0.437157
-0.440048
-0.442843
-0.445536
-0.448119
-0.450594
-0.452952
-0.455163
-0.457733
-0.457634
-0.333062
-0.334753
-0.335428
-0.336374
-0.337103
-0.337841
-0.338538
-0.339244
-0.339969
-0.340731
-0.341544
-0.34242
-0.343366
-0.344391
-0.345499
-0.346695
-0.347981
-0.349361
-0.350835
-0.352405
-0.354071
-0.355833
-0.357692
-0.359646
-0.361696
-0.36384
-0.366078
-0.368407
-0.370827
-0.373335
-0.375928
-0.378605
-0.381361
-0.384193
-0.387096
-0.390067
-0.393098
-0.396185
-0.399321
-0.402498
-0.405709
-0.408944
-0.412196
-0.415453
-0.418706
-0.421943
-0.425153
-0.428324
-0.431444
-0.434502
-0.437485
-0.440382
-0.443184
-0.445882
-0.44847
-0.450948
-0.453313
-0.45551
-0.458164
-0.457869
-0.33355
-0.335181
-0.335836
-0.336754
-0.337465
-0.338187
-0.33887
-0.339564
-0.340278
-0.341032
-0.341837
-0.342705
-0.343645
-0.344663
-0.345765
-0.346955
-0.348236
-0.349611
-0.351081
-0.352646
-0.354308
-0.356066
-0.357921
-0.359872
-0.361919
-0.364061
-0.366296
-0.368623
-0.371042
-0.373549
-0.376142
-0.378818
-0.381575
-0.384408
-0.387313
-0.390285
-0.39332
-0.39641
-0.39955
-0.402732
-0.405948
-0.409189
-0.412447
-0.415711
-0.418971
-0.422215
-0.425433
-0.428612
-0.43174
-0.434805
-0.437795
-0.440699
-0.443506
-0.446208
-0.448799
-0.451279
-0.453652
-0.455827
-0.458577
-0.458059
-0.334047
-0.335618
-0.336253
-0.337143
-0.337835
-0.338539
-0.339208
-0.339891
-0.340594
-0.341338
-0.342134
-0.342995
-0.343927
-0.344938
-0.346034
-0.347218
-0.348494
-0.349863
-0.351327
-0.352888
-0.354545
-0.356299
-0.35815
-0.360097
-0.36214
-0.364279
-0.366511
-0.368837
-0.371253
-0.373758
-0.37635
-0.379026
-0.381782
-0.384616
-0.387522
-0.390496
-0.393532
-0.396625
-0.399769
-0.402954
-0.406175
-0.409421
-0.412685
-0.415955
-0.419221
-0.422472
-0.425697
-0.428883
-0.432018
-0.43509
-0.438086
-0.440995
-0.443806
-0.446512
-0.449105
-0.451585
-0.453965
-0.45611
-0.458972
-0.458196
-0.334553
-0.336063
-0.336677
-0.337538
-0.338211
-0.338898
-0.339553
-0.340222
-0.340915
-0.341649
-0.342436
-0.343288
-0.344213
-0.345217
-0.346306
-0.347484
-0.348753
-0.350116
-0.351575
-0.35313
-0.354782
-0.356531
-0.358377
-0.36032
-0.36236
-0.364494
-0.366724
-0.369046
-0.371459
-0.373962
-0.376552
-0.379227
-0.381983
-0.384816
-0.387722
-0.390697
-0.393735
-0.39683
-0.399975
-0.403164
-0.406389
-0.409639
-0.412907
-0.416183
-0.419455
-0.422712
-0.425943
-0.429135
-0.432276
-0.435353
-0.438354
-0.441268
-0.444083
-0.446791
-0.449385
-0.451863
-0.45425
-0.456356
-0.459349
-0.458274
-0.335068
-0.336515
-0.337109
-0.337941
-0.338594
-0.339262
-0.339903
-0.340559
-0.34124
-0.341964
-0.342742
-0.343585
-0.344502
-0.345498
-0.34658
-0.347751
-0.349013
-0.35037
-0.351823
-0.353372
-0.355018
-0.356762
-0.358603
-0.360541
-0.362576
-0.364706
-0.366931
-0.36925
-0.37166
-0.37416
-0.376748
-0.37942
-0.382174
-0.385007
-0.387912
-0.390887
-0.393926
-0.397022
-0.400169
-0.40336
-0.406587
-0.409842
-0.413113
-0.416393
-0.41967
-0.422932
-0.426168
-0.429365
-0.432511
-0.435594
-0.438599
-0.441516
-0.444334
-0.447044
-0.449638
-0.452113
-0.454507
-0.456562
-0.45971
-0.458285
-0.33559
-0.336975
-0.337547
-0.338349
-0.338983
-0.339632
-0.340258
-0.3409
-0.341569
-0.342282
-0.343051
-0.343885
-0.344793
-0.345781
-0.346855
-0.348019
-0.349274
-0.350624
-0.35207
-0.353613
-0.355253
-0.356991
-0.358826
-0.360759
-0.362788
-0.364913
-0.367134
-0.369448
-0.371854
-0.374351
-0.376935
-0.379605
-0.382357
-0.385187
-0.388092
-0.391066
-0.394104
-0.3972
-0.400349
-0.403541
-0.40677
-0.410027
-0.413301
-0.416584
-0.419864
-0.423131
-0.426371
-0.429572
-0.432723
-0.435809
-0.438818
-0.441738
-0.444558
-0.447267
-0.44986
-0.45233
-0.454734
-0.456725
-0.460055
-0.458224
-0.336119
-0.337441
-0.337991
-0.338763
-0.339377
-0.340007
-0.340617
-0.341246
-0.341903
-0.342604
-0.343362
-0.344187
-0.345086
-0.346066
-0.347132
-0.348287
-0.349535
-0.350878
-0.352316
-0.353852
-0.355485
-0.357216
-0.359045
-0.360972
-0.362995
-0.365115
-0.36733
-0.369639
-0.372041
-0.374533
-0.377114
-0.37978
-0.382529
-0.385356
-0.388259
-0.391231
-0.394268
-0.397364
-0.400512
-0.403705
-0.406935
-0.410193
-0.413469
-0.416754
-0.420037
-0.423306
-0.42655
-0.429755
-0.432908
-0.435998
-0.439009
-0.441931
-0.444751
-0.447461
-0.450052
-0.452514
-0.454928
-0.456842
-0.460386
-0.45807
-0.336655
-0.337912
-0.338441
-0.339182
-0.339775
-0.340386
-0.34098
-0.341595
-0.342239
-0.342929
-0.343676
-0.344491
-0.34538
-0.346351
-0.347408
-0.348555
-0.349795
-0.35113
-0.35256
-0.354089
-0.355714
-0.357438
-0.35926
-0.36118
-0.363197
-0.365311
-0.36752
-0.369823
-0.372219
-0.374706
-0.377282
-0.379944
-0.382689
-0.385513
-0.388412
-0.391382
-0.394417
-0.397511
-0.400658
-0.403851
-0.40708
-0.410338
-0.413616
-0.416902
-0.420187
-0.423458
-0.426703
-0.42991
-0.433066
-0.436157
-0.439171
-0.442093
-0.444914
-0.447621
-0.450209
-0.452663
-0.455089
-0.456912
-0.460711
-0.45777
-0.337195
-0.338388
-0.338895
-0.339606
-0.340178
-0.340769
-0.341347
-0.341947
-0.342578
-0.343256
-0.343992
-0.344796
-0.345676
-0.346637
-0.347685
-0.348823
-0.350054
-0.35138
-0.352802
-0.354322
-0.35594
-0.357656
-0.35947
-0.361383
-0.363392
-0.365499
-0.367701
-0.369998
-0.372388
-0.374869
-0.37744
-0.380096
-0.382836
-0.385656
-0.388551
-0.391518
-0.394549
-0.397641
-0.400786
-0.403977
-0.407205
-0.410463
-0.41374
-0.417026
-0.420311
-0.423583
-0.42683
-0.430038
-0.433195
-0.436287
-0.439301
-0.442224
-0.445043
-0.447748
-0.450332
-0.452776
-0.455214
-0.456923
-0.46102
-0.457368
-0.337741
-0.338869
-0.339354
-0.340033
-0.340584
-0.341156
-0.341716
-0.342301
-0.342919
-0.343585
-0.344309
-0.345102
-0.345971
-0.346922
-0.34796
-0.349089
-0.35031
-0.351627
-0.353041
-0.354552
-0.356161
-0.357869
-0.359675
-0.361579
-0.363581
-0.365679
-0.367874
-0.370164
-0.372547
-0.375021
-0.377585
-0.380236
-0.38297
-0.385784
-0.388675
-0.391637
-0.394664
-0.397752
-0.400894
-0.404082
-0.407308
-0.410564
-0.41384
-0.417125
-0.42041
-0.423681
-0.426927
-0.430136
-0.433293
-0.436385
-0.439398
-0.44232
-0.445137
-0.447838
-0.450418
-0.452851
-0.4553
-0.456882
-0.461158
-0.457514
-0.33829
-0.339354
-0.339816
-0.340464
-0.340993
-0.341545
-0.342088
-0.342658
-0.343261
-0.343915
-0.344627
-0.345409
-0.346267
-0.347207
-0.348235
-0.349353
-0.350565
-0.351872
-0.353276
-0.354777
-0.356377
-0.358076
-0.359873
-0.361768
-0.363761
-0.365851
-0.368038
-0.370319
-0.372694
-0.375161
-0.377718
-0.380361
-0.383089
-0.385897
-0.388782
-0.391738
-0.394761
-0.397844
-0.400981
-0.404166
-0.407388
-0.410641
-0.413914
-0.417198
-0.42048
-0.42375
-0.426995
-0.430202
-0.433358
-0.436449
-0.439461
-0.44238
-0.445195
-0.447892
-0.450466
-0.452885
-0.455336
-0.456962
-0.460982
-0.457712
-0.338843
-0.339842
-0.340282
-0.340898
-0.341405
-0.341936
-0.342462
-0.343016
-0.343605
-0.344245
-0.344945
-0.345715
-0.346561
-0.347491
-0.348507
-0.349615
-0.350816
-0.352113
-0.353506
-0.354998
-0.356588
-0.358276
-0.360063
-0.361949
-0.363932
-0.366013
-0.368191
-0.370463
-0.37283
-0.375288
-0.377837
-0.380472
-0.383192
-0.385993
-0.388871
-0.391821
-0.394837
-0.397915
-0.401047
-0.404226
-0.407444
-0.410693
-0.413962
-0.417242
-0.420522
-0.423789
-0.427031
-0.430236
-0.43339
-0.436478
-0.439488
-0.442404
-0.445215
-0.447907
-0.450474
-0.452886
-0.455303
-0.457002
-0.460797
-0.457792
-0.339398
-0.340332
-0.34075
-0.341334
-0.341819
-0.342329
-0.342838
-0.343375
-0.34395
-0.344576
-0.345263
-0.34602
-0.346855
-0.347772
-0.348777
-0.349874
-0.351064
-0.352349
-0.353732
-0.355212
-0.356792
-0.358469
-0.360246
-0.362121
-0.364095
-0.366165
-0.368333
-0.370596
-0.372953
-0.375402
-0.377941
-0.380568
-0.383279
-0.386072
-0.388942
-0.391884
-0.394893
-0.397964
-0.40109
-0.404263
-0.407475
-0.410718
-0.413983
-0.417258
-0.420533
-0.423796
-0.427035
-0.430237
-0.433387
-0.436472
-0.439478
-0.44239
-0.445196
-0.447882
-0.450442
-0.452846
-0.455234
-0.456969
-0.460622
-0.457779
-0.339954
-0.340825
-0.341219
-0.341772
-0.342235
-0.342724
-0.343214
-0.343735
-0.344295
-0.344907
-0.345581
-0.346325
-0.347147
-0.348052
-0.349045
-0.350129
-0.351307
-0.352581
-0.353952
-0.355421
-0.356989
-0.358655
-0.360421
-0.362285
-0.364247
-0.366307
-0.368463
-0.370715
-0.373062
-0.375501
-0.37803
-0.380647
-0.383349
-0.386132
-0.388993
-0.391927
-0.394928
-0.397991
-0.401108
-0.404274
-0.40748
-0.410717
-0.413975
-0.417244
-0.420514
-0.423772
-0.427006
-0.430202
-0.433348
-0.436429
-0.43943
-0.442337
-0.445137
-0.447816
-0.450368
-0.452762
-0.455127
-0.456879
-0.460426
-0.457694
-0.340512
-0.341318
-0.34169
-0.342211
-0.342652
-0.343119
-0.343592
-0.344096
-0.34464
-0.345237
-0.345897
-0.346628
-0.347436
-0.348329
-0.349309
-0.35038
-0.351546
-0.352808
-0.354166
-0.355623
-0.357178
-0.358833
-0.360586
-0.362438
-0.364388
-0.366436
-0.368581
-0.370822
-0.373157
-0.375585
-0.378103
-0.380709
-0.383401
-0.386174
-0.389024
-0.391948
-0.39494
-0.397994
-0.401103
-0.40426
-0.407458
-0.410687
-0.413937
-0.4172
-0.420463
-0.423714
-0.426942
-0.430132
-0.433272
-0.436347
-0.439343
-0.442244
-0.445037
-0.447709
-0.450251
-0.452634
-0.454979
-0.456736
-0.460199
-0.457539
-0.34107
-0.341813
-0.342162
-0.342651
-0.343069
-0.343515
-0.343969
-0.344456
-0.344984
-0.345567
-0.346212
-0.346929
-0.347724
-0.348602
-0.349569
-0.350627
-0.35178
-0.353028
-0.354374
-0.355817
-0.35736
-0.359001
-0.360742
-0.362581
-0.364518
-0.366554
-0.368686
-0.370915
-0.373237
-0.375653
-0.378159
-0.380754
-0.383434
-0.386195
-0.389035
-0.391948
-0.394929
-0.397973
-0.401072
-0.40422
-0.407408
-0.410628
-0.41387
-0.417124
-0.420379
-0.423623
-0.426843
-0.430026
-0.433159
-0.436227
-0.439216
-0.44211
-0.444896
-0.447559
-0.450091
-0.452463
-0.454789
-0.456543
-0.459939
-0.457319
-0.341628
-0.342308
-0.342634
-0.343091
-0.343487
-0.343911
-0.344346
-0.344816
-0.345328
-0.345894
-0.346525
-0.347227
-0.348008
-0.348872
-0.349825
-0.35087
-0.352008
-0.353243
-0.354574
-0.356004
-0.357533
-0.35916
-0.360887
-0.362713
-0.364637
-0.366659
-0.368778
-0.370993
-0.373302
-0.375705
-0.378198
-0.38078
-0.383447
-0.386196
-0.389024
-0.391925
-0.394895
-0.397927
-0.401015
-0.404152
-0.40733
-0.410539
-0.413772
-0.417016
-0.420262
-0.423497
-0.426708
-0.429883
-0.433008
-0.436068
-0.439048
-0.441934
-0.444711
-0.447365
-0.449887
-0.452246
-0.454555
-0.456298
-0.459644
-0.457034
-0.342185
-0.342802
-0.343106
-0.343531
-0.343904
-0.344307
-0.344723
-0.345174
-0.34567
-0.346221
-0.346836
-0.347523
-0.348289
-0.349138
-0.350077
-0.351106
-0.35223
-0.35345
-0.354767
-0.356183
-0.357697
-0.35931
-0.361022
-0.362833
-0.364743
-0.36675
-0.368855
-0.371055
-0.373351
-0.375739
-0.378219
-0.380787
-0.383441
-0.386177
-0.388991
-0.391879
-0.394836
-0.397855
-0.400931
-0.404056
-0.407222
-0.410421
-0.413642
-0.416876
-0.420111
-0.423336
-0.426537
-0.429703
-0.432818
-0.435869
-0.43884
-0.441717
-0.444484
-0.447128
-0.449639
-0.451984
-0.454276
-0.456004
-0.459311
-0.456689
-0.342741
-0.343296
-0.343577
-0.343971
-0.344321
-0.344702
-0.345098
-0.345532
-0.34601
-0.346545
-0.347144
-0.347815
-0.348566
-0.3494
-0.350323
-0.351337
-0.352446
-0.353651
-0.354952
-0.356352
-0.357851
-0.359449
-0.361146
-0.362941
-0.364835
-0.366828
-0.368917
-0.371103
-0.373383
-0.375756
-0.378221
-0.380774
-0.383413
-0.386135
-0.388935
-0.391809
-0.394752
-0.397758
-0.400821
-0.403933
-0.407086
-0.410272
-0.413481
-0.416702
-0.419926
-0.423139
-0.42633
-0.429484
-0.432589
-0.435629
-0.43859
-0.441457
-0.444214
-0.446846
-0.449345
-0.451676
-0.453953
-0.45566
-0.458938
-0.456285
-0.343294
-0.343788
-0.344047
-0.344409
-0.344737
-0.345095
-0.345472
-0.345888
-0.346349
-0.346866
-0.347449
-0.348104
-0.348839
-0.349657
-0.350564
-0.351562
-0.352655
-0.353843
-0.355129
-0.356513
-0.357995
-0.359577
-0.361257
-0.363037
-0.364915
-0.366891
-0.368964
-0.371134
-0.373398
-0.375755
-0.378204
-0.380742
-0.383365
-0.386071
-0.388856
-0.391715
-0.394643
-0.397635
-0.400683
-0.40378
-0.40692
-0.410092
-0.413287
-0.416496
-0.419706
-0.422907
-0.426085
-0.429228
-0.432321
-0.435349
-0.438299
-0.441154
-0.4439
-0.44652
-0.449007
-0.451322
-0.453584
-0.455266
-0.458523
-0.455823
-0.343845
-0.344279
-0.344516
-0.344847
-0.345151
-0.345487
-0.345845
-0.346241
-0.346685
-0.347185
-0.347751
-0.348389
-0.349107
-0.349909
-0.350799
-0.351781
-0.352857
-0.354028
-0.355297
-0.356664
-0.358129
-0.359694
-0.361357
-0.36312
-0.364981
-0.36694
-0.368996
-0.371148
-0.373395
-0.375736
-0.378168
-0.380689
-0.383296
-0.385985
-0.388754
-0.391597
-0.394509
-0.397484
-0.400517
-0.403599
-0.406723
-0.409881
-0.413061
-0.416256
-0.419452
-0.422639
-0.425804
-0.428933
-0.432013
-0.435029
-0.437966
-0.440809
-0.443542
-0.44615
-0.448623
-0.450922
-0.453169
-0.454824
-0.458066
-0.455307
-0.344392
-0.344767
-0.344982
-0.345282
-0.345564
-0.345878
-0.346215
-0.346593
-0.347018
-0.347501
-0.348049
-0.348671
-0.349371
-0.350156
-0.351028
-0.351993
-0.353051
-0.354205
-0.355456
-0.356805
-0.358252
-0.359799
-0.361445
-0.363189
-0.365032
-0.366973
-0.369011
-0.371146
-0.373375
-0.375698
-0.378112
-0.380615
-0.383204
-0.385877
-0.388628
-0.391453
-0.394348
-0.397307
-0.400323
-0.403389
-0.406497
-0.409638
-0.412803
-0.415982
-0.419163
-0.422335
-0.425486
-0.428601
-0.431666
-0.434669
-0.437592
-0.440422
-0.443141
-0.445735
-0.448194
-0.450476
-0.452709
-0.454333
-0.457565
-0.454736
-0.344936
-0.345253
-0.345446
-0.345715
-0.345975
-0.346266
-0.346583
-0.346942
-0.347348
-0.347813
-0.348344
-0.348947
-0.34963
-0.350396
-0.351251
-0.352197
-0.353237
-0.354373
-0.355605
-0.356936
-0.358365
-0.359892
-0.361519
-0.363245
-0.365069
-0.366991
-0.36901
-0.371126
-0.373336
-0.37564
-0.378036
-0.38052
-0.383091
-0.385745
-0.388478
-0.391285
-0.394162
-0.397103
-0.400101
-0.403149
-0.40624
-0.409364
-0.412513
-0.415675
-0.41884
-0.421996
-0.425131
-0.42823
-0.431281
-0.434268
-0.437177
-0.439992
-0.442697
-0.445275
-0.44772
-0.449984
-0.452202
-0.453794
-0.457019
-0.454112
-0.345475
-0.345735
-0.345907
-0.346146
-0.346383
-0.346651
-0.346949
-0.347288
-0.347676
-0.348122
-0.348634
-0.349219
-0.349883
-0.350631
-0.351467
-0.352394
-0.353415
-0.354532
-0.355745
-0.357056