/*--------------------------------*- C++ -*----------------------------------*\
  =========                 |
  \\      /  F ield         | OpenFOAM: The Open Source CFD Toolbox
   \\    /   O peration     | Website:  https://openfoam.org
    \\  /    A nd           | Version:  9
     \\/     M anipulation  |
\*---------------------------------------------------------------------------*/
FoamFile
{
    format      ascii;
    class       surfaceScalarField;
    location    "8.7";
    object      phi;
}
// * * * * * * * * * * * * * * * * * * * * * * * * * * * * * * * * * * * * * //

dimensions      [0 3 -1 0 0 0 0];

internalField   nonuniform List<scalar> 
16735
(
-0.00150812
0.00150812
-2.57302e-11
-0.0041276
0.00261948
-2.36757e-11
-0.00699495
0.00286735
1.9526e-12
-0.00937123
0.00237627
5.01646e-11
-0.0106901
0.00131887
1.24561e-10
-0.0104125
-0.000277573
2.25481e-10
-0.00804048
-0.00237204
3.52688e-10
-0.00299914
-0.00504134
5.07263e-10
0.00474084
-0.00773998
6.84201e-10
-0.0111802
8.74452e-10
0.015921
-0.00147681
0.00298493
-0.00401869
0.00516137
-0.00676126
0.00560991
-0.00896137
0.00457639
-0.0100451
0.00240259
-0.00946391
-0.00085876
-0.00670742
-0.00512853
-0.00121325
-0.0105355
0.0071539
-0.0161071
-0.0231006
0.0190743
-0.00141473
0.00439966
-0.00380247
0.0075491
-0.00629698
0.00810443
-0.00814681
0.00642622
-0.00876298
0.00301876
-0.0075776
-0.00204414
-0.0040529
-0.00865323
0.00239305
-0.0169815
0.0119513
-0.0256654
-0.0364783
0.0253291
-0.00132296
0.00572262
-0.00348205
0.0097082
-0.00560822
0.0102306
-0.00693769
0.00775569
-0.00685959
0.00294066
-0.00477681
-0.00412693
-6.69972e-05
-0.013363
0.00775969
-0.0248081
0.0190643
-0.0369701
-0.0519946
0.0345806
-0.00120303
0.00692565
-0.00306195
0.0115671
-0.00470381
0.0118725
-0.00534869
0.00840057
-0.00435757
0.00194954
-0.00110375
-0.00738075
0.00505001
-0.0195168
0.0147789
-0.034537
0.0283865
-0.0505777
-0.0702805
0.0466724
-0.0010569
0.00798255
-0.00254788
0.0130581
-0.00359496
0.0129195
-0.00339846
0.00820406
-0.00128451
-0.000164405
0.00341424
-0.0120795
0.0113798
-0.0274824
0.0233682
-0.0465254
0.0397808
-0.0669903
-0.0918978
0.0613982
-0.000886803
0.00886935
-0.00194646
0.0141177
-0.00229484
0.0132679
-0.00110905
0.00701827
0.00232231
-0.00359576
0.00871653
-0.0184737
0.0188067
-0.0375725
0.0334142
-0.0611329
0.0530783
-0.0866544
-0.117323
0.0785037
-0.00069521
0.00956456
-0.00126498
0.0146875
-0.000818054
0.012821
0.00149428
0.00470593
0.00642573
-0.00852721
0.014744
-0.026792
0.0272391
-0.0500675
0.0447828
-0.0786766
0.0680795
-0.109951
-0.146932
0.0976884
-0.000484788
0.0100493
-0.000510945
0.0147137
0.000820012
0.01149
0.00438536
0.00114058
0.0109838
-0.0151256
0.0214322
-0.0372405
0.0365773
-0.0652126
0.0573225
-0.0994218
0.0845554
-0.137184
-0.180983
0.118606
-0.000258993
0.0103083
0.000306554
0.0141481
0.00260308
0.00919352
0.00753632
-0.00379265
0.0159509
-0.0235402
0.0287108
-0.0500004
0.0467129
-0.0832147
0.0708663
-0.123575
0.102249
-0.168567
-0.219598
0.140864
-1.01131e-05
0.0103185
0.00118223
0.0129558
0.00451551
0.00586024
0.0109187
-0.0101959
0.0212804
-0.0339019
0.0365056
-0.0652256
0.0575294
-0.104239
0.0852337
-0.151279
0.120878
-0.204211
-0.26275
0.16403
0.000240074
0.0100784
0.00210757
0.0110883
0.00654185
0.00142596
0.0145044
-0.0181584
0.0269243
-0.0463217
0.0447385
-0.0830398
0.0689029
-0.128403
0.100232
-0.182608
0.140136
-0.244115
-0.310252
0.187638
0.000503884
0.0095745
0.00307632
0.00851585
0.00866738
-0.0041651
0.0182655
-0.0277566
0.0328339
-0.0608901
0.0533285
-0.103534
0.0807015
-0.155776
0.115656
-0.217563
0.159701
-0.288159
-0.361749
0.211198
0.000776894
0.0087976
0.00408273
0.00521002
0.0108783
-0.0109607
0.0221748
-0.039053
0.0389598
-0.0776751
0.0621909
-0.126766
0.0927856
-0.186371
0.131293
-0.256071
0.179229
-0.336096
-0.416723
0.234203
0.00105771
0.0077399
0.0051217
0.00114602
0.0131619
-0.0190009
0.0262054
-0.0520966
0.0452515
-0.0967211
0.071237
-0.152751
0.105007
-0.22014
0.146917
-0.297981
0.19837
-0.387549
-0.474503
0.256151
0.00134546
0.00639443
0.00618886
-0.00369737
0.0155058
-0.0283179
0.0303307
-0.0669214
0.0516565
-0.118047
0.0803727
-0.181467
0.117207
-0.256974
0.162293
-0.343067
0.216766
-0.442022
-0.534303
0.276566
0.00163962
0.00475482
0.00728036
-0.00933811
0.0178985
-0.038936
0.0345232
-0.0835462
0.05812
-0.141644
0.0894986
-0.212846
0.129219
-0.296695
0.177183
-0.391031
0.234057
-0.498896
-0.595304
0.295058
0.00193986
0.00281496
0.00839271
-0.015791
0.020328
-0.0508713
0.0387545
-0.101973
0.0645834
-0.167473
0.098508
-0.246771
0.140872
-0.339059
0.191347
-0.441507
0.249891
-0.55744
-0.656781
0.311369
0.00224602
0.000568936
0.00952246
-0.0230674
0.0227822
-0.064131
0.042994
-0.122184
0.0709836
-0.195462
0.107287
-0.283074
0.151986
-0.383758
0.204562
-0.494083
0.263987
-0.616865
-0.718199
0.325404
0.00255797
-0.00198903
0.010666
-0.0311754
0.0252477
-0.0787127
0.0472083
-0.144145
0.0772522
-0.225506
0.115713
-0.321534
0.162376
-0.430421
0.216569
-0.548276
0.276185
-0.67648
-0.78032
0.338306
0.00287548
-0.00486452
0.0118191
-0.040119
0.0277095
-0.0946031
0.0513607
-0.167796
0.083316
-0.257461
0.123658
-0.361877
0.171838
-0.478601
0.226953
-0.603391
0.286569
-0.736096
-0.855539
0.361788
0.00319817
-0.00806269
0.0129768
-0.0498977
0.0301507
-0.111777
0.0554113
-0.193057
0.0890976
-0.291148
0.130995
-0.403775
0.180185
-0.527791
0.235447
-0.658653
0.293977
-0.794627
-0.923496
0.361934
0.00352534
-0.011588
0.0141332
-0.0605056
0.0325523
-0.130196
0.0593165
-0.219821
0.0945179
-0.326349
0.137603
-0.44686
0.187265
-0.577453
0.241909
-0.713297
0.298546
-0.851263
-0.985089
0.360139
0.00385595
-0.015444
0.0152811
-0.0719307
0.0348928
-0.149808
0.0630301
-0.247958
0.0994968
-0.362816
0.143369
-0.490732
0.192961
-0.627045
0.246322
-0.766658
0.300531
-0.905471
-1.04101
0.356448
0.0041885
-0.0196325
0.0164119
-0.0841541
0.0371481
-0.170544
0.0665035
-0.277314
0.103956
-0.400269
0.148196
-0.534972
0.197186
-0.676035
0.248693
-0.818165
0.299993
-0.956771
-1.09174
0.35073
0.00452107
-0.0241535
0.0175158
-0.0971488
0.0392926
-0.192321
0.0696869
-0.307708
0.107822
-0.438404
0.152001
-0.57915
0.199882
-0.723916
0.249051
-0.867334
0.297058
-1.00478
-1.13766
0.342975
0.00485121
-0.0290048
0.0185817
-0.110879
0.0412986
-0.215038
0.072531
-0.33894
0.111027
-0.4769
0.154717
-0.622841
0.201024
-0.770222
0.247459
-0.913769
0.291901
-1.04922
-1.17903
0.333274
0.00517605
-0.0341808
0.0195975
-0.125301
0.0431377
-0.238578
0.0749878
-0.370791
0.113511
-0.515424
0.156301
-0.66563
0.200617
-0.814538
0.244008
-0.95716
0.284717
-1.08993
-1.2161
0.321784
0.00549227
-0.0396731
0.0205501
-0.140359
0.0447811
-0.262809
0.0770128
-0.403022
0.115227
-0.553638
0.156728
-0.707131
0.198697
-0.856507
0.238817
-0.997281
0.275714
-1.12683
-1.24908
0.308695
0.00579618
-0.0454693
0.0214258
-0.155988
0.0462007
-0.287584
0.0785662
-0.435388
0.11614
-0.591212
0.155996
-0.746986
0.195323
-0.895834
0.232021
-1.03398
0.265105
-1.15991
-1.27818
0.294208
0.0060838
-0.0515531
0.0222108
-0.172115
0.0473696
-0.312743
0.0796144
-0.467633
0.116227
-0.627825
0.154122
-0.784882
0.190576
-0.932288
0.22377
-1.06717
0.253095
-1.18924
-1.30361
0.278524
0.00635097
-0.057904
0.0228915
-0.188656
0.0482636
-0.338115
0.080131
-0.4995
0.115481
-0.663175
0.151144
-0.820544
0.184555
-0.965699
0.214217
-1.09684
0.239883
-1.2149
-1.32556
0.261834
0.00659339
-0.0644974
0.0234545
-0.205517
0.0488612
-0.363521
0.0800976
-0.530736
0.113908
-0.696986
0.147112
-0.853748
0.177366
-0.995954
0.20352
-1.12299
0.225654
-1.23704
-1.34422
0.244311
0.00680677
-0.0713042
0.0238874
-0.222597
0.0491445
-0.388779
0.0795041
-0.561096
0.111526
-0.729008
0.14209
-0.884312
0.169125
-1.02299
0.191829
-1.14569
0.210576
-1.25578
-1.35976
0.226112
0.00698692
-0.0782911
0.0241792
-0.23979
0.0491
-0.413699
0.0783488
-0.590345
0.108364
-0.759022
0.136153
-0.912101
0.159948
-1.04678
0.179291
-1.16504
0.194801
-1.27129
-1.37233
0.207374
0.00712982
-0.0854209
0.0243202
-0.25698
0.0487185
-0.438098
0.0766382
-0.618264
0.104461
-0.786845
0.12938
-0.93702
0.149952
-1.06736
0.16604
-1.18112
0.178465
-1.28372
-1.38208
0.188218
0.00723177
-0.0926527
0.0243023
-0.274051
0.0479955
-0.461791
0.0743862
-0.644655
0.0998641
-0.812323
0.121855
-0.959011
0.139249
-1.08475
0.152201
-1.19408
0.161687
-1.2932
-1.38914
0.168748
0.00728939
-0.0999421
0.0241195
-0.290881
0.0469309
-0.484602
0.0716134
-0.669337
0.0946261
-0.835336
0.113665
-0.97805
0.127948
-1.09903
0.137887
-1.20402
0.144572
-1.29989
-1.39363
0.149054
0.00729978
-0.107242
0.0237678
-0.307349
0.0455291
-0.506364
0.0683461
-0.692154
0.0888036
-0.855793
0.104893
-0.994139
0.116147
-1.11029
0.123199
-1.21107
0.127211
-1.3039
-1.39563
0.129213
0.00726052
-0.114502
0.0232452
-0.323333
0.0437989
-0.526917
0.0646157
-0.712971
0.0824558
-0.873633
0.0956211
-1.0073
0.103941
-1.11861
0.108229
-1.21536
0.109684
-1.30535
-1.39524
0.109292
0.00716973
-0.121672
0.0225518
-0.338715
0.0417526
-0.546118
0.060457
-0.731675
0.0756431
-0.888819
0.0859294
-1.01759
0.0914152
-1.12409
0.0930567
-1.217
0.0920593
-1.30436
-1.39253
0.0893511
0.00702614
-0.128698
0.0216899
-0.353379
0.0394058
-0.563834
0.0559077
-0.748177
0.0684256
-0.901337
0.0758924
-1.02506
0.0786475
-1.12685
0.0777535
-1.2161
0.0743972
-1.301
-1.38757
0.0694383
0.00682907
-0.135527
0.0206634
-0.367214
0.0367772
-0.579948
0.0510074
-0.762408
0.0608626
-0.911193
0.0655802
-1.02977
0.0657087
-1.12698
0.0623824
-1.21278
0.0567509
-1.29537
-1.38041
0.0495969
0.00657844
-0.142106
0.0194783
-0.380113
0.0338874
-0.594357
0.0457968
-0.774317
0.0530112
-0.918407
0.0550582
-1.03182
0.0526625
-1.12458
0.0469997
-1.20711
0.0391679
-1.28754
-1.37111
0.0298622
0.0062748
-0.148381
0.0181421
-0.391981
0.0307592
-0.606974
0.0403167
-0.783874
0.0449264
-0.923017
0.0443863
-1.03128
0.0395661
-1.11976
0.0316564
-1.1992
0.0216928
-1.27757
-1.35966
0.0102441
0.00591928
-0.1543
0.0166638
-0.402725
0.0274166
-0.617727
0.0346076
-0.791065
0.0366602
-0.925069
0.0336201
-1.02824
0.0264698
-1.11261
0.016395
-1.18913
0.00439947
-1.26558
-1.34609
-0.00916611
0.00551357
-0.159813
0.0150534
-0.412265
0.0238844
-0.626558
0.0287093
-0.79589
0.0282617
-0.924622
0.0228104
-1.02279
0.0134202
-1.10322
0.00120774
-1.17692
-0.0127778
-1.25159
-1.33057
-0.0283007
0.00505992
-0.164873
0.0133221
-0.420527
0.0201881
-0.633424
0.0226603
-0.798363
0.0197767
-0.921738
0.012003
-1.01502
0.000453025
-1.09167
-0.0137229
-1.16274
-0.0297402
-1.23557
-1.31309
-0.0472205
0.00456103
-0.169434
0.011482
-0.427448
0.016353
-0.638295
0.0164979
-0.798507
0.0112476
-0.916488
0.00123376
-1.005
-0.0123627
-1.07807
-0.0284993
-1.1466
-0.0464529
-1.21762
-1.29367
-0.065876
0.00402008
-0.173454
0.00954541
-0.432974
0.0124048
-0.641154
0.0102571
-0.79636
0.00271493
-0.908946
-0.00943701
-0.992851
-0.025027
-1.06248
-0.0430577
-1.12857
-0.0628972
-1.19778
-1.27233
-0.0842377
0.00344064
-0.176895
0.00752523
-0.437058
0.00836823
-0.641997
0.00397229
-0.791964
-0.00578589
-0.899188
-0.019997
-0.97864
-0.0374979
-1.04498
-0.0573649
-1.10871
-0.0790483
-1.1761
-1.2491
-0.10228
0.00282664
-0.179722
0.00543536
-0.439667
0.00426871
-0.640831
-0.00232539
-0.78537
-0.0142217
-0.887291
-0.0304086
-0.962453
-0.0497464
-1.02565
-0.0713928
-1.08706
-0.0948809
-1.15261
-1.224
-0.119978
0.00218238
-0.181904
0.00329232
-0.440777
0.000160093
-0.637698
-0.00860997
-0.7766
-0.0225627
-0.873339
-0.0406427
-0.944373
-0.0617458
-1.00454
-0.085115
-1.06369
-0.110369
-1.12736
-1.19706
-0.137309
0.00151326
-0.183417
0.00111593
-0.44038
-0.00404149
-0.632541
-0.0148534
-0.765788
-0.0307801
-0.857412
-0.0506732
-0.92448
-0.0734719
-0.981743
-0.0985067
-1.03866
-0.125488
-1.10037
-1.1683
-0.154251
0.000823169
-0.184241
-0.001093
-0.438463
-0.00820522
-0.625429
-0.0210281
-0.752965
-0.0388489
-0.839591
-0.0604764
-0.902852
-0.0849021
-0.957318
-0.111544
-1.01201
-0.14021
-1.07171
-1.13773
-0.170778
9.08753e-05
-0.184331
-0.00333937
-0.435033
-0.0123448
-0.616423
-0.0271111
-0.738199
-0.0467458
-0.819956
-0.0700312
-0.879567
-0.0960164
-0.931333
-0.124204
-0.983827
-0.154509
-1.0414
-1.10537
-0.186866
-0.0006272
-0.183704
-0.00558227
-0.430078
-0.0164429
-0.605563
-0.0330812
-0.72156
-0.0544498
-0.798588
-0.0793185
-0.854698
-0.106796
-0.903855
-0.136467
-0.954156
-0.168358
-1.00951
-1.07124
-0.202492
-0.00135776
-0.182346
-0.00781601
-0.42362
-0.020482
-0.592897
-0.0389188
-0.703124
-0.0619421
-0.775564
-0.0883211
-0.828319
-0.117225
-0.874951
-0.148314
-0.923067
-0.181734
-0.976094
-1.03535
-0.217624
-0.00209405
-0.180252
-0.0100302
-0.415684
-0.0244461
-0.578481
-0.0446057
-0.682964
-0.0692056
-0.750965
-0.0970235
-0.800501
-0.127288
-0.844687
-0.159729
-0.890626
-0.194594
-0.941229
-0.997776
-0.232164
-0.00283026
-0.177422
-0.0122141
-0.4063
-0.0283199
-0.562375
-0.0501255
-0.661158
-0.0762248
-0.724865
-0.105412
-0.771314
-0.136974
-0.813125
-0.170698
-0.856901
-0.206891
-0.905036
-0.958529
-0.246138
-0.00356171
-0.17386
-0.0143574
-0.395504
-0.0320893
-0.544643
-0.0554632
-0.637785
-0.0829859
-0.697342
-0.113474
-0.740825
-0.146274
-0.780325
-0.181212
-0.821964
-0.218245
-0.868003
-0.919295
-0.257479
-0.00428404
-0.169576
-0.0164505
-0.383338
-0.0357411
-0.525352
-0.0606052
-0.61292
-0.0894762
-0.668471
-0.1212
-0.709102
-0.155181
-0.746344
-0.191285
-0.785859
-0.229543
-0.829745
-0.878807
-0.270031
-0.0049931
-0.164583
-0.0184841
-0.369847
-0.0392632
-0.504573
-0.065539
-0.586645
-0.0956841
-0.638326
-0.128577
-0.676209
-0.163681
-0.71124
-0.200899
-0.748641
-0.240307
-0.790337
-0.837058
-0.282057
-0.00568493
-0.158898
-0.0204496
-0.355082
-0.0426444
-0.482379
-0.0702533
-0.559036
-0.101599
-0.60698
-0.135597
-0.642212
-0.171765
-0.675072
-0.210043
-0.710363
-0.250537
-0.749842
-0.794134
-0.293461
-0.00635578
-0.152543
-0.0223389
-0.339099
-0.0458744
-0.458843
-0.0747379
-0.530172
-0.107212
-0.574506
-0.14225
-0.607174
-0.179425
-0.637897
-0.21871
-0.671077
-0.26024
-0.708313
-0.750114
-0.30426
-0.0070021
-0.14554
-0.0241446
-0.321956
-0.0489439
-0.434044
-0.0789833
-0.500133
-0.112515
-0.540975
-0.14853
-0.571159
-0.186654
-0.599773
-0.226893
-0.630838
-0.269408
-0.665798
-0.705058
-0.314464
-0.00762054
-0.13792
-0.0258597
-0.303717
-0.0518443
-0.408059
-0.0829812
-0.468996
-0.117498
-0.506458
-0.154428
-0.534229
-0.193443
-0.560757
-0.234583
-0.589698
-0.278031
-0.622351
-0.659024
-0.324065
-0.00820797
-0.129712
-0.0274779
-0.284447
-0.0545679
-0.380969
-0.0867238
-0.43684
-0.122156
-0.471025
-0.159937
-0.496449
-0.199786
-0.520908
-0.241772
-0.547712
-0.286099
-0.578023
-0.612068
-0.333055
-0.00876147
-0.12095
-0.0289933
-0.264215
-0.0571077
-0.352855
-0.0902042
-0.403743
-0.126481
-0.434748
-0.16505
-0.45788
-0.205675
-0.480283
-0.24845
-0.504937
-0.293602
-0.532872
-0.564247
-0.341422
-0.00927834
-0.111672
-0.0304006
-0.243093
-0.0594572
-0.323798
-0.0934159
-0.369785
-0.130468
-0.397697
-0.169762
-0.418586
-0.211102
-0.438943
-0.25461
-0.461429
-0.300527
-0.486955
-0.51562
-0.349154
-0.00975611
-0.101916
-0.0316949
-0.221154
-0.0616106
-0.293883
-0.0963534
-0.335042
-0.13411
-0.35994
-0.174066
-0.37863
-0.216061
-0.396948
-0.260241
-0.417249
-0.306865
-0.440331
-0.46625
-0.356235
-0.0101925
-0.0917235
-0.0328719
-0.198475
-0.0635629
-0.263192
-0.0990114
-0.299593
-0.137403
-0.321549
-0.177956
-0.338077
-0.220545
-0.354359
-0.265336
-0.372458
-0.312603
-0.393064
-0.416201
-0.362652
-0.0105856
-0.081138
-0.0339277
-0.175133
-0.0653095
-0.23181
-0.101385
-0.263517
-0.140341
-0.282593
-0.181427
-0.29699
-0.224547
-0.311239
-0.269886
-0.327119
-0.317731
-0.34522
-0.365541
-0.368391
-0.0109334
-0.0702045
-0.034859
-0.151207
-0.0668463
-0.199822
-0.103471
-0.226892
-0.142922
-0.243143
-0.184476
-0.255437
-0.228063
-0.267652
-0.273885
-0.281296
-0.32224
-0.296865
-0.314341
-0.37344
-0.0112345
-0.05897
-0.0356626
-0.126779
-0.06817
-0.167315
-0.105266
-0.189797
-0.145141
-0.203268
-0.187096
-0.213481
-0.231086
-0.223663
-0.277325
-0.235057
-0.326121
-0.248068
-0.262673
-0.377789
-0.0114875
-0.0474826
-0.0363361
-0.101931
-0.0692775
-0.134374
-0.106766
-0.152308
-0.146994
-0.16304
-0.189286
-0.171189
-0.233612
-0.179337
-0.280201
-0.188468
-0.329367
-0.198902
-0.210614
-0.381427
-0.0116912
-0.0357914
-0.0368774
-0.0767443
-0.0701664
-0.101085
-0.107969
-0.114506
-0.14848
-0.122528
-0.191042
-0.128628
-0.235638
-0.13474
-0.282508
-0.141598
-0.331972
-0.149439
-0.158238
-0.384347
-0.0118448
-0.0239466
-0.0372849
-0.0513042
-0.0708347
-0.0675349
-0.108873
-0.0764682
-0.149597
-0.0818034
-0.19236
-0.0858644
-0.23716
-0.0899398
-0.284242
-0.0945163
-0.33393
-0.0997506
-0.105625
-0.386543
-0.0119475
-0.011999
-0.0375572
-0.0256945
-0.0712811
-0.033811
-0.109476
-0.0382734
-0.150342
-0.0409371
-0.193241
-0.042966
-0.238177
-0.0450039
-0.285399
-0.0472936
-0.335237
-0.0499128
-0.0528522
-0.38801
-0.011999
9.37616e-12
-0.0376936
3.72067e-11
-0.0715045
4.84144e-11
-0.109778
4.94948e-11
-0.150715
4.43783e-11
-0.193681
3.70759e-11
-0.238685
3.10947e-11
-0.285979
2.62007e-11
-0.335891
2.31111e-11
2.0412e-11
-0.388744
-0.011999
0.011999
-0.0376936
0.0256945
-0.0715045
0.033811
-0.109778
0.0382734
-0.150715
0.0409371
-0.193681
0.042966
-0.238685
0.0450039
-0.285979
0.0472936
-0.335891
0.0499128
0.0528522
-0.388744
-0.0119475
0.0239466
-0.0375572
0.0513042
-0.0712811
0.0675349
-0.109476
0.0764682
-0.150342
0.0818034
-0.193241
0.0858644
-0.238177
0.0899398
-0.285399
0.0945163
-0.335237
0.0997506
0.105625
-0.38801
-0.0118448
0.0357914
-0.0372849
0.0767443
-0.0708347
0.101085
-0.108873
0.114506
-0.149597
0.122528
-0.19236
0.128628
-0.23716
0.13474
-0.284242
0.141598
-0.33393
0.149439
0.158238
-0.386543
-0.0116912
0.0474826
-0.0368774
0.101931
-0.0701664
0.134374
-0.107969
0.152308
-0.14848
0.16304
-0.191042
0.171189
-0.235638
0.179337
-0.282508
0.188468
-0.331972
0.198902
0.210614
-0.384347
-0.0114875
0.05897
-0.0363361
0.126779
-0.0692775
0.167315
-0.106766
0.189797
-0.146994
0.203268
-0.189286
0.213481
-0.233612
0.223663
-0.280201
0.235057
-0.329367
0.248068
0.262673
-0.381427
-0.0112345
0.0702045
-0.0356626
0.151207
-0.06817
0.199822
-0.105266
0.226892
-0.145141
0.243143
-0.187096
0.255437
-0.231086
0.267652
-0.277325
0.281296
-0.326121
0.296865
0.314341
-0.377789
-0.0109334
0.081138
-0.034859
0.175133
-0.0668463
0.23181
-0.103471
0.263517
-0.142922
0.282593
-0.184476
0.29699
-0.228063
0.311239
-0.273885
0.327119
-0.32224
0.34522
0.365541
-0.37344
-0.0105856
0.0917235
-0.0339277
0.198475
-0.0653095
0.263192
-0.101385
0.299593
-0.140341
0.321549
-0.181427
0.338077
-0.224547
0.354359
-0.269886
0.372458
-0.317731
0.393064
0.416201
-0.368391
-0.0101925
0.101916
-0.0328719
0.221154
-0.0635629
0.293883
-0.0990114
0.335042
-0.137403
0.35994
-0.177956
0.37863
-0.220545
0.396948
-0.265336
0.417249
-0.312603
0.440331
0.46625
-0.362652
-0.00975611
0.111672
-0.0316949
0.243093
-0.0616106
0.323798
-0.0963534
0.369785
-0.13411
0.397697
-0.174066
0.418586
-0.216061
0.438943
-0.260241
0.461429
-0.306865
0.486955
0.51562
-0.356235
-0.00927834
0.12095
-0.0304006
0.264215
-0.0594572
0.352855
-0.0934159
0.403743
-0.130468
0.434748
-0.169762
0.45788
-0.211102
0.480283
-0.25461
0.504937
-0.300527
0.532872
0.564247
-0.349154
-0.00876147
0.129712
-0.0289933
0.284447
-0.0571077
0.380969
-0.0902042
0.43684
-0.126481
0.471025
-0.16505
0.496449
-0.205675
0.520908
-0.24845
0.547712
-0.293602
0.578023
0.612068
-0.341422
-0.00820797
0.13792
-0.0274779
0.303717
-0.0545679
0.408059
-0.0867238
0.468996
-0.122156
0.506458
-0.159937
0.534229
-0.199786
0.560757
-0.241772
0.589698
-0.286099
0.622351
0.659024
-0.333055
-0.00762054
0.14554
-0.0258597
0.321956
-0.0518443
0.434044
-0.0829812
0.500133
-0.117498
0.540975
-0.154428
0.571159
-0.193443
0.599773
-0.234583
0.630838
-0.278031
0.665798
0.705058
-0.324065
-0.0070021
0.152543
-0.0241446
0.339099
-0.0489439
0.458843
-0.0789833
0.530172
-0.112515
0.574506
-0.14853
0.607174
-0.186654
0.637897
-0.226893
0.671077
-0.269408
0.708313
0.750114
-0.314464
-0.00635578
0.158898
-0.0223389
0.355082
-0.0458744
0.482379
-0.0747379
0.559036
-0.107212
0.60698
-0.14225
0.642212
-0.179425
0.675072
-0.21871
0.710363
-0.26024
0.749842
0.794134
-0.30426
-0.00568493
0.164583
-0.0204496
0.369847
-0.0426444
0.504573
-0.0702533
0.586645
-0.101599
0.638326
-0.135597
0.676209
-0.171765
0.71124
-0.210043
0.748641
-0.250537
0.790337
0.837058
-0.293461
-0.0049931
0.169576
-0.0184841
0.383338
-0.0392632
0.525352
-0.065539
0.61292
-0.0956841
0.668471
-0.128577
0.709102
-0.163681
0.746344
-0.200899
0.785859
-0.240307
0.829745
0.878807
-0.282057
-0.00428404
0.17386
-0.0164505
0.395504
-0.0357411
0.544643
-0.0606052
0.637785
-0.0894762
0.697342
-0.1212
0.740825
-0.155181
0.780325
-0.191285
0.821964
-0.229543
0.868003
0.919295
-0.270031
-0.00356171
0.177422
-0.0143574
0.4063
-0.0320893
0.562375
-0.0554632
0.661158
-0.0829859
0.724865
-0.113474
0.771314
-0.146274
0.813125
-0.181212
0.856901
-0.218245
0.905036
0.958529
-0.257479
-0.00283026
0.180252
-0.0122141
0.415684
-0.0283199
0.578481
-0.0501255
0.682964
-0.0762248
0.750965
-0.105412
0.800501
-0.136974
0.844687
-0.170698
0.890626
-0.206891
0.941229
0.997776
-0.246138
-0.00209405
0.182346
-0.0100302
0.42362
-0.0244461
0.592897
-0.0446057
0.703124
-0.0692056
0.775564
-0.0970235
0.828319
-0.127288
0.874951
-0.159729
0.923067
-0.194594
0.976094
1.03535
-0.232164
-0.00135776
0.183704
-0.00781601
0.430078
-0.020482
0.605563
-0.0389188
0.72156
-0.0619421
0.798588
-0.0883211
0.854698
-0.117225
0.903855
-0.148314
0.954156
-0.181734
1.00951
1.07124
-0.217624
-0.0006272
0.184331
-0.00558227
0.435033
-0.0164429
0.616423
-0.0330812
0.738199
-0.0544498
0.819956
-0.0793185
0.879567
-0.106796
0.931333
-0.136467
0.983827
-0.168358
1.0414
1.10537
-0.202492
9.08753e-05
0.184241
-0.00333937
0.438463
-0.0123448
0.625429
-0.0271111
0.752965
-0.0467458
0.839591
-0.0700312
0.902852
-0.0960164
0.957318
-0.124204
1.01201
-0.154509
1.07171
1.13773
-0.186866
0.000823169
0.183417
-0.001093
0.44038
-0.00820522
0.632541
-0.0210281
0.765788
-0.0388489
0.857412
-0.0604764
0.92448
-0.0849021
0.981743
-0.111544
1.03866
-0.14021
1.10037
1.1683
-0.170778
0.00151326
0.181904
0.00111593
0.440777
-0.00404149
0.637698
-0.0148534
0.7766
-0.0307801
0.873339
-0.0506732
0.944373
-0.0734719
1.00454
-0.0985067
1.06369
-0.125488
1.12736
1.19706
-0.154251
0.00218238
0.179722
0.00329232
0.439667
0.000160093
0.640831
-0.00860997
0.78537
-0.0225627
0.887291
-0.0406427
0.962453
-0.0617458
1.02565
-0.085115
1.08706
-0.110369
1.15261
1.224
-0.137309
0.00282664
0.176895
0.00543536
0.437058
0.00426871
0.641997
-0.00232539
0.791964
-0.0142217
0.899188
-0.0304086
0.97864
-0.0497464
1.04498
-0.0713928
1.10871
-0.0948809
1.1761
1.2491
-0.119978
0.00344064
0.173454
0.00752523
0.432974
0.00836823
0.641154
0.00397229
0.79636
-0.00578589
0.908946
-0.019997
0.992851
-0.0374979
1.06248
-0.0573649
1.12857
-0.0790483
1.19778
1.27233
-0.10228
0.00402008
0.169434
0.00954541
0.427448
0.0124048
0.638295
0.0102571
0.798507
0.00271493
0.916488
-0.00943701
1.005
-0.025027
1.07807
-0.0430577
1.1466
-0.0628972
1.21762
1.29367
-0.0842377
0.00456103
0.164873
0.011482
0.420527
0.016353
0.633424
0.0164979
0.798363
0.0112476
0.921738
0.00123376
1.01502
-0.0123627
1.09167
-0.0284993
1.16274
-0.0464529
1.23557
1.31309
-0.065876
0.00505992
0.159813
0.0133221
0.412265
0.0201881
0.626558
0.0226603
0.79589
0.0197767
0.924622
0.012003
1.02279
0.000453025
1.10322
-0.0137229
1.17692
-0.0297402
1.25159
1.33057
-0.0472205
0.00551357
0.1543
0.0150534
0.402725
0.0238844
0.617727
0.0287093
0.791065
0.0282617
0.925069
0.0228104
1.02824
0.0134202
1.11261
0.00120774
1.18913
-0.0127778
1.26558
1.34609
-0.0283007
0.00591928
0.148381
0.0166638
0.391981
0.0274166
0.606974
0.0346076
0.783874
0.0366602
0.923017
0.0336201
1.03128
0.0264698
1.11976
0.016395
1.1992
0.00439947
1.27757
1.35966
-0.00916611
0.0062748
0.142106
0.0181421
0.380113
0.0307592
0.594357
0.0403167
0.774317
0.0449264
0.918407
0.0443863
1.03182
0.0395661
1.12458
0.0316564
1.20711
0.0216928
1.28754
1.37111
0.0102441
0.00657844
0.135527
0.0194783
0.367214
0.0338874
0.579948
0.0457968
0.762408
0.0530112
0.911193
0.0550582
1.02977
0.0526625
1.12698
0.0469997
1.21278
0.0391679
1.29537
1.38041
0.0298622
0.00682907
0.128698
0.0206634
0.353379
0.0367772
0.563834
0.0510074
0.748177
0.0608626
0.901337
0.0655802
1.02506
0.0657087
1.12685
0.0623824
1.2161
0.0567509
1.301
1.38757
0.0495969
0.00702614
0.121672
0.0216899
0.338715
0.0394058
0.546118
0.0559077
0.731675
0.0684256
0.888819
0.0758924
1.01759
0.0786475
1.12409
0.0777535
1.217
0.0743972
1.30436
1.39253
0.0694383
0.00716973
0.114502
0.0225518
0.323333
0.0417526
0.526917
0.060457
0.712971
0.0756431
0.873633
0.0859294
1.0073
0.0914152
1.11861
0.0930567
1.21536
0.0920593
1.30535
1.39524
0.0893511
0.00726052
0.107242
0.0232452
0.307349
0.0437989
0.506364
0.0646157
0.692154
0.0824558
0.855793
0.0956211
0.994139
0.103941
1.11029
0.108229
1.21107
0.109684
1.3039
1.39563
0.109292
0.00729978
0.0999421
0.0237678
0.290881
0.0455291
0.484602
0.0683461
0.669337
0.0888036
0.835336
0.104893
0.97805
0.116147
1.09903
0.123199
1.20402
0.127211
1.29989
1.39363
0.129213
0.00728939
0.0926527
0.0241195
0.274051
0.0469309
0.461791
0.0716134
0.644655
0.0946261
0.812323
0.113665
0.959011
0.127948
1.08475
0.137887
1.19408
0.144572
1.2932
1.38914
0.149054
0.00723177
0.0854209
0.0243023
0.25698
0.0479955
0.438098
0.0743862
0.618264
0.0998641
0.786845
0.121855
0.93702
0.139249
1.06736
0.152201
1.18112
0.161687
1.28372
1.38208
0.168748
0.00712982
0.0782911
0.0243202
0.23979
0.0487185
0.413699
0.0766382
0.590345
0.104461
0.759022
0.12938
0.912101
0.149952
1.04678
0.16604
1.16504
0.178465
1.27129
1.37233
0.188218
0.00698692
0.0713042
0.0241792
0.222597
0.0491
0.388779
0.0783488
0.561096
0.108364
0.729008
0.136153
0.884312
0.159948
1.02299
0.179291
1.14569
0.194801
1.25578
1.35976
0.207374
0.00680677
0.0644974
0.0238874
0.205517
0.0491445
0.363521
0.0795041
0.530736
0.111526
0.696986
0.14209
0.853748
0.169125
0.995954
0.191829
1.12299
0.210576
1.23704
1.34422
0.226112
0.00659339
0.057904
0.0234545
0.188656
0.0488612
0.338115
0.0800976
0.4995
0.113908
0.663175
0.147112
0.820544
0.177366
0.965699
0.20352
1.09684
0.225654
1.2149
1.32556
0.244311
0.00635097
0.0515531
0.0228915
0.172115
0.0482636
0.312743
0.080131
0.467633
0.115481
0.627825
0.151144
0.784882
0.184555
0.932288
0.214217
1.06717
0.239883
1.18924
1.30361
0.261834
0.0060838
0.0454693
0.0222108
0.155988
0.0473696
0.287584
0.0796144
0.435388
0.116227
0.591212
0.154122
0.746986
0.190576
0.895834
0.22377
1.03398
0.253095
1.15991
1.27818
0.278524
0.00579618
0.0396731
0.0214258
0.140359
0.0462007
0.262809
0.0785662
0.403022
0.11614
0.553638
0.155996
0.707131
0.195323
0.856507
0.232021
0.997281
0.265105
1.12683
1.24908
0.294208
0.00549227
0.0341808
0.0205501
0.125301
0.0447811
0.238578
0.0770128
0.370791
0.115227
0.515424
0.156728
0.66563
0.198697
0.814538
0.238817
0.95716
0.275714
1.08993
1.2161
0.308695
0.00517605
0.0290048
0.0195975
0.110879
0.0431377
0.215038
0.0749878
0.33894
0.113511
0.4769
0.156301
0.622841
0.200617
0.770222
0.244008
0.913769
0.284717
1.04922
1.17903
0.321784
0.00485121
0.0241535
0.0185817
0.0971488
0.0412986
0.192321
0.072531
0.307708
0.111027
0.438404
0.154717
0.57915
0.201024
0.723916
0.247459
0.867334
0.291901
1.00478
1.13766
0.333274
0.00452107
0.0196325
0.0175158
0.0841541
0.0392926
0.170544
0.0696869
0.277314
0.107822
0.400269
0.152001
0.534972
0.199882
0.676035
0.249051
0.818165
0.297058
0.956771
1.09174
0.342975
0.0041885
0.015444
0.0164119
0.0719307
0.0371481
0.149808
0.0665035
0.247958
0.103956
0.362816
0.148196
0.490732
0.197186
0.627045
0.248693
0.766658
0.299993
0.905471
1.04101
0.35073
0.00385595
0.011588
0.0152811
0.0605056
0.0348928
0.130196
0.0630301
0.219821
0.0994968
0.326349
0.143369
0.44686
0.192961
0.577453
0.246322
0.713297
0.300531
0.851263
0.985089
0.356448
0.00352534
0.00806269
0.0141332
0.0498977
0.0325523
0.111777
0.0593165
0.193057
0.0945179
0.291148
0.137603
0.403775
0.187265
0.527791
0.241909
0.658653
0.298546
0.794627
0.923496
0.360139
0.00319817
0.00486452
0.0129768
0.040119
0.0301507
0.0946031
0.0554113
0.167796
0.0890976
0.257461
0.130995
0.361877
0.180185
0.478601
0.235447
0.603391
0.293977
0.736096
0.855539
0.361934
0.00287548
0.00198903
0.0118191
0.0311754
0.0277095
0.0787127
0.0513607
0.144145
0.083316
0.225506
0.123658
0.321534
0.171838
0.430421
0.226953
0.548276
0.286569
0.67648
0.78032
0.361788
0.00255797
-0.000568936
0.010666
0.0230674
0.0252477
0.064131
0.0472083
0.122184
0.0772522
0.195462
0.115713
0.283074
0.162376
0.383758
0.216569
0.494083
0.276185
0.616865
0.718199
0.338306
0.00224602
-0.00281496
0.00952246
0.015791
0.0227822
0.0508713
0.042994
0.101973
0.0709836
0.167473
0.107287
0.246771
0.151986
0.339059
0.204562
0.441507
0.263987
0.55744
0.656781
0.325404
0.00193986
-0.00475482
0.00839271
0.00933811
0.020328
0.038936
0.0387545
0.0835462
0.0645834
0.141644
0.098508
0.212846
0.140872
0.296695
0.191347
0.391031
0.249891
0.498896
0.595304
0.311369
0.00163962
-0.00639443
0.00728036
0.00369737
0.0178985
0.0283179
0.0345232
0.0669214
0.05812
0.118047
0.0894986
0.181467
0.129219
0.256974
0.177183
0.343067
0.234057
0.442022
0.534303
0.295058
0.00134546
-0.0077399
0.00618886
-0.00114602
0.0155058
0.0190009
0.0303307
0.0520966
0.0516565
0.0967211
0.0803727
0.152751
0.117207
0.22014
0.162293
0.297981
0.216766
0.387549
0.474503
0.276566
0.00105771
-0.0087976
0.0051217
-0.00521002
0.0131619
0.0109607
0.0262054
0.039053
0.0452514
0.0776751
0.071237
0.126766
0.105007
0.186371
0.146917
0.256071
0.19837
0.336096
0.416723
0.256151
0.000776894
-0.0095745
0.00408273
-0.00851585
0.0108783
0.0041651
0.0221748
0.0277566
0.0389598
0.0608901
0.0621909
0.103534
0.0927856
0.155776
0.131293
0.217563
0.179229
0.288159
0.361749
0.234203
0.000503884
-0.0100784
0.00307632
-0.0110883
0.00866738
-0.00142596
0.0182655
0.0181584
0.0328339
0.0463217
0.0533285
0.0830398
0.0807015
0.128403
0.115656
0.182608
0.159701
0.244115
0.310252
0.211198
0.000240074
-0.0103185
0.00210757
-0.0129558
0.00654185
-0.00586024
0.0145044
0.0101959
0.0269243
0.0339019
0.0447385
0.0652256
0.0689029
0.104239
0.100232
0.151279
0.140136
0.204211
0.26275