/*--------------------------------*- C++ -*----------------------------------*\
  =========                 |
  \\      /  F ield         | OpenFOAM: The Open Source CFD Toolbox
   \\    /   O peration     | Website:  https://openfoam.org
    \\  /    A nd           | Version:  9
     \\/     M anipulation  |
\*---------------------------------------------------------------------------*/
FoamFile
{
    format      ascii;
    class       volVectorField;
    location    "8.7";
    object      U;
}
// * * * * * * * * * * * * * * * * * * * * * * * * * * * * * * * * * * * * * //

dimensions      [0 1 -1 0 0 0 0];

internalField   nonuniform List<vector> 
8500
(
(-0.00376629 0.00129909 0)
(-0.0142897 0.00193134 -6.79382e-23)
(-0.0269839 0.0017174 -3.76112e-24)
(-0.0351232 0.00104414 6.98567e-37)
(-0.0385997 0.000149554 -9.81549e-24)
(-0.0364162 -0.000852522 8.23237e-24)
(-0.0290937 -0.00188664 -5.18294e-23)
(-0.0155982 -0.0029286 -7.72129e-23)
(0.000757422 -0.00372374 -6.61825e-23)
(0.0234479 -0.00455125 -3.34211e-24)
(-0.00391596 0.00386604 1.90288e-22)
(-0.0142923 0.00573786 6.34866e-23)
(-0.0265143 0.00509137 2.54751e-22)
(-0.0340238 0.00307601 0)
(-0.036738 0.00040318 0)
(-0.0336916 -0.00258748 1.58112e-23)
(-0.0254409 -0.00567143 3.85511e-23)
(-0.0108877 -0.00876258 8.22339e-23)
(0.00643555 -0.0111617 5.00548e-23)
(0.0306479 -0.0135887 1.33694e-23)
(-0.00420763 0.00634014 -1.69088e-22)
(-0.0142842 0.00937722 0)
(-0.0255617 0.00828425 -2.39906e-22)
(-0.0318137 0.00494002 0)
(-0.0330069 0.000521675 -3.93907e-23)
(-0.0282399 -0.0044119 3.30375e-23)
(-0.0181346 -0.00949905 0)
(-0.00148846 -0.0145461 0)
(0.0177552 -0.0185461 0)
(0.0450008 -0.0224257 0)
(-0.00462611 0.00866215 3.43494e-22)
(-0.0142389 0.0127423 -2.57165e-22)
(-0.0240994 0.01118 -6.02854e-23)
(-0.0284698 0.00652892 -3.73409e-22)
(-0.0273911 0.000419545 -3.6361e-22)
(-0.0200587 -0.00638222 3.17843e-23)
(-0.00717808 -0.013414 -2.66924e-23)
(0.0125703 -0.020259 2.90145e-22)
(0.0346522 -0.0258105 2.26005e-24)
(0.0663996 -0.0309178 2.54627e-22)
(-0.00514917 0.0107767 -3.43494e-22)
(-0.0141175 0.0157324 -3.34484e-22)
(-0.0220873 0.0136694 9.07065e-23)
(-0.0239574 0.00774243 4.96595e-22)
(-0.019867 1.82243e-05 -4.26617e-23)
(-0.00914892 -0.00854386 5.22539e-22)
(0.00741582 -0.0174042 0)
(0.0312595 -0.0258999 -3.30513e-22)
(0.0570339 -0.0329048 -6.34563e-23)
(0.0946746 -0.0389148 -3.50682e-22)
(-0.00574799 0.0126337 8.76351e-23)
(-0.0138687 0.0182555 5.54529e-22)
(-0.0194723 0.0156532 -4.30712e-22)
(-0.0182299 0.00848993 1.31399e-24)
(-0.0104006 -0.000751695 -3.66409e-22)
(0.00450639 -0.0109345 1.33656e-22)
(0.025614 -0.0214427 -5.38267e-23)
(0.0545107 -0.031447 4.13928e-22)
(0.0847945 -0.0397816 -6.84831e-23)
(0.129596 -0.0462582 2.01499e-22)
(-0.00638793 0.0141893 4.43339e-23)
(-0.01343 0.0202305 0)
(-0.0161886 0.0170439 -4.44307e-24)
(-0.0112286 0.00869325 0)
(0.00104984 -0.00194684 6.5224e-22)
(0.0209266 -0.0135858 -5.25198e-22)
(0.047394 -0.0255391 0)
(0.0822341 -0.0368244 1.20769e-24)
(0.117791 -0.0463759 0)
(0.170866 -0.0527794 0)
(-0.00702934 0.0154073 -7.27488e-22)
(-0.012728 0.0215886 -7.51463e-23)
(-0.0121581 0.0177691 5.58522e-22)
(-0.00288293 0.00828989 1.00051e-22)
(0.0145351 -0.00360787 -6.58096e-22)
(0.0401315 -0.0165102 -3.99006e-22)
(0.0727323 -0.0296798 -5.44253e-23)
(0.114324 -0.0419541 4.18509e-22)
(0.155846 -0.052606 -6.91294e-23)
(0.218108 -0.0583012 5.14031e-23)
(-0.00762866 0.0162597 8.19046e-22)
(-0.0116801 0.0222751 -6.18355e-22)
(-0.00729076 0.017773 -1.87803e-22)
(0.00688957 0.00723545 1.03973e-22)
(0.0301155 -0.00575803 6.6116e-22)
(0.0621435 -0.0196999 5.96748e-22)
(0.101599 -0.0338246 -5.47673e-23)
(0.150655 -0.0467481 8.53016e-23)
(0.198746 -0.058371 -1.32922e-22)
(0.270854 -0.0626426 5.34572e-23)
(-0.00813895 0.0167261 7.56004e-22)
(-0.0101959 0.0222522 6.1749e-22)
(-0.00148569 0.0170183 -8.98783e-22)
(0.0181822 0.00550574 -1.05053e-22)
(0.04786 -0.0083994 0)
(0.0869874 -0.0231265 0)
(0.133956 -0.0379101 0)
(0.191071 -0.0510995 -1.34884e-21)
(0.246242 -0.0635457 -5.5078e-22)
(0.32853 -0.0656245 3.8672e-22)
(-0.00850794 0.0167892 -1.52799e-21)
(-0.00817981 0.021503 0)
(0.00536682 0.0154892 2.06143e-21)
(0.031098 0.00309974 8.39781e-22)
(0.0678447 -0.0115095 8.59915e-23)
(0.114688 -0.0267381 0)
(0.169755 -0.0418493 -8.68416e-22)
(0.235384 -0.0548821 6.75868e-22)
(0.298036 -0.0679754 5.50775e-22)
(0.390449 -0.0670742 -3.86731e-22)
(-0.00868193 0.0164486 8.68419e-22)
(-0.00552585 0.0200219 -8.0961e-23)
(0.0133827 0.0131913 -1.03711e-21)
(0.0457472 4.16735e-05 -9.4341e-22)
(0.0901491 -0.0150393 0)
(0.145266 -0.030457 1.09386e-21)
(0.208929 -0.0455295 -5.71487e-24)
(0.283364 -0.0579528 5.98172e-22)
(0.353779 -0.0714741 6.28213e-22)
(0.455806 -0.0668352 -3.80031e-22)
(-0.00861169 0.0157143 -1.42589e-24)
(-0.00212517 0.017817 1.38673e-21)
(0.022686 0.010154 -1.34077e-22)
(0.0622449 -0.00361758 7.53046e-22)
(0.114853 -0.0189111 4.34186e-22)
(0.178733 -0.034178 2.83299e-22)
(0.251386 -0.0488127 8.67362e-22)
(0.334732 -0.0601568 -7.71041e-22)
(0.413055 -0.0738245 -4.30811e-22)
(0.523676 -0.0647779 2.73184e-22)
(-0.00824407 0.0145971 0)
(0.00213067 0.0149205 -1.14618e-21)
(0.0334034 0.00643035 -1.36081e-22)
(0.0807071 -0.0077995 9.54507e-24)
(0.142031 -0.0230183 6.89719e-22)
(0.21508 -0.0377685 -9.67227e-22)
(0.296998 -0.0515369 8.78521e-22)
(0.38915 -0.0613348 -8.95174e-23)
(0.475369 -0.0747834 0)
(0.59302 -0.0608143 0)
(-0.00752573 0.0131158 1.04388e-22)
(0.00735119 0.011382 -1.35207e-21)
(0.0456614 0.00209727 0)
(0.101246 -0.0123976 -9.69266e-23)
(0.171744 -0.027225 8.9485e-23)
(0.254277 -0.0410699 0)
(0.34559 -0.0535203 -8.85469e-22)
(0.44622 -0.0613329 -6.92267e-22)
(0.540145 -0.0740922 1.26734e-22)
(0.662704 -0.0549227 -1.0683e-22)
(-0.00640443 0.0112967 -1.0434e-22)
(0.013645 0.00726696 1.43967e-21)
(0.0595827 -0.00274482 0)
(0.123965 -0.017278 -9.85096e-22)
(0.204035 -0.0313678 9.04383e-23)
(0.296255 -0.0439004 -1.12864e-21)
(0.396929 -0.0545677 -1.07682e-22)
(0.505472 -0.0600124 7.82811e-22)
(0.606709 -0.0714935 0)
(0.731534 -0.0471762 7.45371e-22)
(-0.00482923 0.00917304 -1.66531e-21)
(0.021117 0.00265683 -8.94148e-23)
(0.0752827 -0.00797292 -1.36835e-22)
(0.148953 -0.0222812 1.14506e-22)
(0.238918 -0.0352586 -1.43319e-21)
(0.340902 -0.0460604 1.12863e-21)
(0.450712 -0.0544797 9.0155e-22)
(0.566376 -0.0572606 6.9983e-22)
(0.674291 -0.0667403 1.12815e-21)
(0.798262 -0.0377197 -6.38345e-22)
(-0.00275085 0.00678332 1.77181e-21)
(0.0298667 -0.00235146 0)
(0.0928649 -0.0134429 1.28393e-21)
(0.176273 -0.027224 -1.1607e-22)
(0.276367 -0.0386895 2.88064e-21)
(0.388047 -0.0473389 0)
(0.50656 -0.053066 -9.01543e-22)
(0.628348 -0.0530027 4.0641e-24)
(0.742025 -0.0595795 -1.25462e-21)
(0.861518 -0.0266813 1.06626e-22)
(-0.000122171 0.0041715 0)
(0.039985 -0.00764683 1.44745e-21)
(0.112416 -0.0189915 -1.14522e-21)
(0.205965 -0.0319041 0)
(0.316313 -0.0414382 -1.44745e-21)
(0.437459 -0.0475225 0)
(0.564016 -0.0501641 9.11332e-22)
(0.690788 -0.0472085 -7.03883e-22)
(0.809033 -0.0497494 -1.1175e-21)
(0.920153 -0.0144456 -7.59926e-22)
(0.0031012 0.0013864 -2.26691e-22)
(0.0515522 -0.0131053 -1.25714e-21)
(0.134003 -0.024439 0)
(0.238027 -0.0361034 0)
(0.35863 -0.0432754 0)
(0.488833 -0.0464048 -1.40791e-22)
(0.62254 -0.0456549 -9.19434e-22)
(0.753077 -0.0398737 -9.26057e-23)
(0.874501 -0.0372024 1.11749e-21)
(0.974783 -0.00353216 8.67626e-22)
(0.00696028 -0.00151856 0)
(0.0646356 -0.0185913 -1.49844e-21)
(0.157664 -0.0295925 0)
(0.272418 -0.0395945 0)
(0.403136 -0.0439721 0)
(0.54179 -0.0437958 1.41694e-22)
(0.681514 -0.0394623 -1.14963e-21)
(0.814484 -0.0309865 7.8807e-23)
(0.937244 -0.0227922 8.28486e-22)
(1.02884 0.000576287 8.55661e-22)
(0.0114919 -0.00448565 0)
(0.0792863 -0.0239596 1.49844e-21)
(0.18341 -0.0342492 -1.21756e-21)
(0.309052 -0.0421458 0)
(0.449582 -0.0433083 -1.50655e-21)
(0.595884 -0.0395295 0)
(0.740274 -0.0315387 9.19965e-22)
(0.87413 -0.0205616 -7.16585e-22)
(0.995017 -0.00839118 -1.10516e-21)
(1.08247 0.00359908 -8.50005e-22)
(0.0167281 -0.00745303 2.03627e-21)
(0.0955374 -0.0290569 0)
(0.211217 -0.0382006 1.06884e-21)
(0.347787 -0.043529 1.24445e-22)
(0.497662 -0.0410814 3.02776e-21)
(0.650612 -0.0334728 0)
(0.798144 -0.0218665 -9.2618e-22)
(0.93121 -0.0085954 -1.43336e-21)
(1.04754 0.00624964 -9.58201e-22)
(1.13006 0.0122842 -1.3161e-23)
(0.0226946 -0.0103551 -2.15917e-21)
(0.113401 -0.0337236 1.0318e-22)
(0.241023 -0.041237 1.50787e-22)
(0.388435 -0.0435253 -1.26181e-22)
(0.547012 -0.037115 -1.52121e-21)
(0.70543 -0.0255355 1.19741e-21)
(0.85447 -0.0104696 9.26176e-22)
(0.985037 0.00484065 7.16773e-22)
(1.09484 0.0212929 1.09072e-21)
(1.17089 0.0244534 -9.47821e-22)
(0.0294107 -0.0131227 1.25292e-22)
(0.132866 -0.0377965 1.49746e-21)
(0.272729 -0.0431521 0)
(0.430753 -0.0419329 -8.70673e-22)
(0.597217 -0.0312667 -9.99184e-23)
(0.75977 -0.0156762 -1.1974e-21)
(0.908638 0.00257874 1.11394e-22)
(1.03506 0.0195802 6.18802e-22)
(1.13691 0.0366906 0)
(1.20537 0.0383366 8.51042e-22)
(0.0368872 -0.0156837 -1.34188e-22)
(0.153896 -0.0411111 -1.60264e-21)
(0.306193 -0.0437477 0)
(0.47445 -0.0385735 1.09262e-22)
(0.647823 -0.0234343 -1.00937e-22)
(0.813063 -0.00390509 0)
(0.960089 0.0171584 -9.27229e-22)
(1.08086 0.0354044 -7.12473e-22)
(1.17378 0.0523484 -1.28489e-22)
(1.23392 0.0530176 -1.08324e-22)
(0.0451259 -0.0179633 0)
(0.176429 -0.0435038 -1.85309e-21)
(0.341235 -0.0428384 1.67326e-22)
(0.519191 -0.0332978 -1.06574e-23)
(0.698348 -0.0135597 -7.86148e-22)
(0.864752 0.00971751 -1.35563e-21)
(1.00834 0.0331106 1.04893e-21)
(1.12215 0.0520737 0)
(1.20551 0.068147 0)
(1.25697 0.0679277 0)
(0.0541183 -0.0198851 7.26462e-24)
(0.200375 -0.0448154 1.561e-21)
(0.377635 -0.0402565 1.69702e-22)
(0.564603 -0.0259903 1.13451e-21)
(0.748296 -0.00163058 6.83384e-22)
(0.914318 0.0250861 -1.45559e-22)
(1.05299 0.0502474 9.31395e-22)
(1.15879 0.0693474 -6.01012e-22)
(1.2323 0.0839518 -6.36614e-22)
(1.27507 0.0826957 4.95855e-22)
(0.0638447 -0.0213716 1.00967e-21)
(0.225615 -0.0448937 1.12713e-22)
(0.415137 -0.035856 -1.34244e-21)
(0.610285 -0.0165733 -1.03043e-21)
(0.797174 0.0123196 0)
(0.961289 0.0420563 1.21148e-21)
(1.09374 0.0683629 -6.95765e-24)
(1.19074 0.0869972 7.74445e-22)
(1.25438 0.0996293 4.44503e-22)
(1.28874 0.0970901 -3.91423e-22)
(0.0742735 -0.0223456 -2.30524e-21)
(0.252004 -0.0435966 0)
(0.453451 -0.0295168 2.69922e-21)
(0.655814 -0.00500862 9.06121e-22)
(0.844502 0.0282147 1.04126e-22)
(1.00526 0.0604537 0)
(1.13039 0.0872431 -9.12705e-22)
(1.21807 0.104816 6.71467e-22)
(1.27205 0.11506 4.90838e-22)
(1.29852 0.110977 -3.67637e-22)
(0.0853601 -0.0227315 1.16131e-21)
(0.279368 -0.0407955 8.69456e-22)
(0.49226 -0.0211479 -1.52019e-21)
(0.700759 0.00870116 1.36743e-22)
(0.889829 0.0459393 0)
(1.04588 0.0800817 0)
(1.16281 0.106675 0)
(1.24093 0.122621 -1.32903e-21)
(1.28567 0.130142 -4.90841e-22)
(1.3049 0.124288 3.67625e-22)
(0.097047 -0.0224563 1.05084e-21)
(0.307508 -0.0363784 -8.58445e-22)
(0.531224 -0.0106902 8.87986e-23)
(0.74469 0.0245135 0)
(0.932745 0.0653447 7.94577e-22)
(1.08291 0.10073 5.2319e-22)
(1.19099 0.126455 5.918e-23)
(1.25953 0.140258 -5.99478e-23)
(1.2956 0.144799 1.19297e-22)
(1.30834 0.136998 -4.66934e-23)
(0.109263 -0.0214518 -1.19045e-21)
(0.3362 -0.0302528 1.06995e-22)
(0.569989 0.00188151 6.86747e-22)
(0.787188 0.0423474 -1.94222e-22)
(0.972885 0.0862547 -5.95914e-22)
(1.11614 0.122183 -7.41904e-22)
(1.21495 0.146392 5.83585e-23)
(1.27411 0.157598 3.2982e-22)
(1.30219 0.158971 0)
(1.30923 0.149107 -3.76344e-23)
(0.121926 -0.0196557 -7.54028e-23)
(0.365204 -0.0223485 0)
(0.608191 0.0165576 2.24378e-24)
(0.827852 0.0620865 0)
(1.00994 0.108472 7.84524e-22)
(1.14546 0.144225 -5.77244e-22)
(1.23482 0.166311 0)
(1.28497 0.174536 1.00595e-23)
(1.30581 0.172619 0)
(1.30794 0.160631 0)
(0.134938 -0.0170136 -1.47185e-22)
(0.394257 -0.0126204 9.51429e-22)
(0.645463 0.0332933 -7.78656e-22)
(0.866313 0.0835823 1.31315e-22)
(1.04366 0.131783 -3.56844e-22)
(1.17082 0.166645 -6.57095e-23)
(1.25073 0.186056 0)
(1.2924 0.190989 2.33169e-22)
(1.30678 0.185716 5.77443e-23)
(1.30478 0.171592 1.4627e-22)
(0.148192 -0.0134806 -6.08375e-22)
(0.423087 -0.00105002 -3.91562e-22)
(0.681445 0.0520091 -1.27746e-22)
(0.902232 0.106659 5.24891e-22)
(1.07384 0.155967 4.56226e-23)
(1.19222 0.189241 5.6598e-22)
(1.26287 0.205489 0)
(1.29667 0.206889 -2.78443e-22)
(1.30541 0.198245 4.63052e-23)
(1.30001 0.18201 -3.22663e-22)
(0.161569 -0.00902271 -6.08375e-22)
(0.451412 0.0123526 3.92072e-22)
(0.715789 0.0725922 -4.02651e-24)
(0.935313 0.131116 -6.12213e-22)
(1.10035 0.180797 -3.31187e-22)
(1.20972 0.211823 -3.15935e-23)
(1.27146 0.224488 2.65324e-23)
(1.29808 0.222183 3.09689e-22)
(1.30198 0.210197 -4.49487e-24)
(1.29384 0.191907 1.04039e-22)
(0.174943 -0.00361855 -3.02058e-22)
(0.478948 0.0275479 0)
(0.748164 0.0948987 -3.42346e-22)
(0.965301 0.156736 0)
(1.1231 0.206046 -4.177e-22)
(1.2234 0.234214 3.61044e-23)
(1.2767 0.242948 0)
(1.29691 0.236828 0)
(1.29673 0.221565 0)
(1.28647 0.201296 0)
(0.18818 0.00273957 2.65567e-22)
(0.505409 0.044467 1.24399e-22)
(0.778264 0.118756 3.42346e-22)
(0.991986 0.183286 0)
(1.14204 0.23149 0)
(1.2334 0.256248 -1.46224e-23)
(1.27885 0.260776 5.53598e-23)
(1.29339 0.250791 5.88805e-23)
(1.28989 0.232342 4.94026e-23)
(1.27804 0.210186 -7.95808e-24)
(0.201139 0.0100446 -4.65124e-24)
(0.530517 0.0630112 -1.1611e-22)
(0.80581 0.143966 5.47991e-24)
(1.0152 0.210523 7.10424e-24)
(1.15719 0.25691 -1.09791e-23)
(1.23987 0.277773 4.217e-24)
(1.27811 0.27789 -4.78411e-23)
(1.28777 0.26404 -5.48775e-23)
(1.28162 0.242522 -3.77949e-23)
(1.2687 0.218578 1.03826e-24)
(0.21368 0.0182738 0)
(0.554005 0.0830535 -1.12651e-22)
(0.830557 0.170309 -4.22384e-24)
(1.03483 0.238199 8.041e-24)
(1.16859 0.282096 1.5229e-37)
(1.24298 0.298651 -1.05659e-37)
(1.27471 0.29422 -4.24022e-23)
(1.28025 0.27655 -4.66921e-23)
(1.27211 0.252096 -3.32283e-23)
(1.25854 0.22647 0)
(0.225658 0.0273888 3.18433e-22)
(0.57562 0.10444 9.20472e-23)
(0.852292 0.197546 3.34312e-22)
(1.05079 0.266062 -1.56248e-23)
(1.1763 0.306845 0)
(1.2429 0.318753 1.23618e-23)
(1.26888 0.3097 2.75775e-23)
(1.27103 0.288293 5.04292e-23)
(1.26148 0.26105 2.62703e-23)
(1.24765 0.233851 5.86225e-24)
(0.236934 0.0373348 -2.83609e-22)
(0.595129 0.126991 0)
(0.870843 0.225423 -3.15641e-22)
(1.06305 0.293859 0)
(1.18045 0.330967 -3.45227e-23)
(1.23983 0.337963 2.89548e-23)
(1.2608 0.324273 0)
(1.26027 0.299246 0)
(1.24986 0.269368 0)
(1.23612 0.240709 0)
(0.247371 0.0480413 5.32431e-22)
(0.612323 0.150506 -3.42841e-22)
(0.886071 0.253678 -7.41805e-23)
(1.07161 0.321344 -3.31909e-22)
(1.18114 0.354279 -3.16892e-22)
(1.23396 0.356172 2.10593e-23)
(1.25069 0.337885 -1.76858e-23)
(1.24814 0.309382 1.26798e-22)
(1.23735 0.277029 3.9705e-24)
(1.224 0.247019 6.42594e-23)
(0.256839 0.0594225 -5.32431e-22)
(0.627017 0.174762 -4.04142e-22)
(0.897881 0.282038 1.03807e-22)
(1.0765 0.348272 3.98743e-22)
(1.17854 0.376611 -1.68981e-23)
(1.22548 0.373282 3.27751e-22)
(1.23872 0.350487 0)
(1.23478 0.318676 -1.43665e-22)
(1.22405 0.284017 -1.65629e-23)
(1.21132 0.252754 -7.22656e-23)
(0.265217 0.0713781 1.21042e-22)
(0.639058 0.199523 6.99628e-22)
(0.906212 0.310228 -4.63891e-22)
(1.0778 0.374408 -9.3705e-23)
(1.1728 0.397803 -2.30215e-22)
(1.21459 0.389203 4.30833e-23)
(1.22506 0.36203 -2.83949e-23)
(1.2203 0.327095 1.24012e-22)
(1.21007 0.290322 -1.98611e-23)
(1.19812 0.257883 3.66266e-23)
(0.272397 0.0837946 5.90838e-23)
(0.648321 0.224536 0)
(0.911043 0.337973 3.49146e-23)
(1.07559 0.399527 0)
(1.16409 0.417706 4.66988e-22)
(1.20148 0.403851 -2.91589e-22)
(1.20987 0.372472 0)
(1.2048 0.3346 -2.27861e-23)
(1.19547 0.295922 0)
(1.1845 0.262369 0)
(0.278283 0.0965464 -8.54382e-22)
(0.654716 0.249542 -7.63541e-23)
(0.912389 0.364999 5.54855e-22)
(1.07002 0.423411 6.91494e-23)
(1.15261 0.436183 -4.68372e-22)
(1.18633 0.41715 -1.53186e-22)
(1.19331 0.381775 -2.06625e-23)
(1.18844 0.341164 4.34426e-23)
(1.18028 0.300765 -1.07003e-23)
(1.17054 0.266218 -9.12715e-26)
(0.282792 0.109498 9.51139e-22)
(0.658184 0.274272 -5.89551e-22)
(0.910297 0.39104 -1.55648e-22)
(1.06121 0.445856 8.0961e-23)
(1.13855 0.453106 3.67975e-22)
(1.16932 0.429031 2.33113e-22)
(1.17552 0.389893 -1.65438e-23)
(1.1713 0.346769 -4.12307e-23)
(1.16455 0.304825 -5.74573e-24)
(1.15626 0.269389 -1.42943e-25)
(0.285862 0.122506 7.13528e-22)
(0.6587 0.298459 5.78759e-22)
(0.90485 0.415836 -6.46624e-22)
(1.04935 0.466671 -7.20906e-23)
(1.12209 0.46836 0)
(1.15065 0.439426 0)
(1.15665 0.396785 0)
(1.15348 0.351385 -7.07922e-23)
(1.14835 0.308076 3.52676e-23)
(1.14169 0.271846 -6.45219e-23)
(0.287443 0.135419 -1.34819e-21)
(0.656272 0.321831 0)
(0.896162 0.439139 1.37011e-21)
(1.03461 0.485679 3.80108e-22)
(1.10346 0.481839 0)
(1.13049 0.448281 0)
(1.13681 0.402414 -3.2757e-23)
(1.13504 0.354983 1.06732e-23)
(1.13176 0.310495 -3.52679e-23)
(1.12687 0.273558 6.45193e-23)
(0.287509 0.148085 7.04655e-22)
(0.650942 0.344125 -5.87606e-23)
(0.884383 0.460718 -6.37338e-22)
(1.0172 0.502713 -4.14549e-22)
(1.08284 0.493446 2.88495e-23)
(1.10901 0.455541 7.52425e-23)
(1.11615 0.406749 6.8892e-23)
(1.11609 0.357535 -8.0378e-23)
(1.11481 0.312053 -1.2104e-22)
(1.11184 0.274493 1.22507e-22)
(0.286049 0.160347 -3.57967e-24)
(0.642788 0.365081 7.15847e-22)
(0.869689 0.480358 -6.9964e-23)
(0.997292 0.51762 1.94023e-22)
(1.06046 0.503096 7.95878e-23)
(1.08638 0.461158 -8.3724e-23)
(1.09479 0.409757 -4.64342e-23)
(1.0967 0.359015 1.02018e-22)
(1.09757 0.312728 -1.48514e-22)
(1.09663 0.27462 -9.17152e-23)
(0.283076 0.172051 0)
(0.631925 0.384455 -6.15277e-22)
(0.852229 0.49784 -5.61329e-23)
(0.97515 0.530284 -8.49253e-23)
(1.03652 0.510711 -7.49994e-23)
(1.06277 0.465094 4.58099e-24)
(1.07284 0.411414 -1.86532e-22)
(1.07695 0.359403 0)
(1.08008 0.312498 0)
(1.08129 0.273909 0)
(0.278618 0.183042 3.99654e-23)
(0.618484 0.402025 -4.02171e-22)
(0.832189 0.51296 0)
(0.951025 0.540587 -9.18529e-23)
(1.01123 0.516235 3.71503e-24)
(1.03835 0.467313 0)
(1.05043 0.411695 1.77338e-22)
(1.05694 0.358679 2.48782e-22)
(1.06238 0.311345 -5.51638e-23)
(1.06586 0.272329 4.64456e-23)
(0.272709 0.193158 -2.60703e-23)
(0.602623 0.417578 4.24058e-22)
(0.809834 0.525572 0)
(0.92514 0.548413 -4.03259e-23)
(0.984797 0.519618 -5.10006e-24)
(1.01327 0.467789 3.10471e-22)
(1.02768 0.410582 3.81374e-23)
(1.03674 0.356829 -2.80854e-22)
(1.04454 0.309257 0)
(1.05035 0.269847 -4.78111e-22)
(0.265419 0.202251 -1.13078e-22)
(0.584517 0.430899 -1.16969e-23)
(0.78542 0.535539 4.62261e-24)
(0.897737 0.553679 -3.86841e-24)
(0.957433 0.520819 3.79453e-22)
(0.987696 0.4665 -3.10473e-22)
(1.0047 0.40806 -3.93607e-22)
(1.01645 0.353844 -3.54936e-22)
(1.02659 0.306222 -6.18658e-22)
(1.03481 0.266428 4.17649e-22)
(0.256848 0.2102 1.27011e-22)
(0.564364 0.441806 0)
(0.759197 0.542728 -1.80622e-22)
(0.869062 0.55632 1.60703e-23)
(0.929343 0.519808 -8.94764e-22)
(0.961787 0.463432 0)
(0.981616 0.40412 3.93609e-22)
(0.996144 0.349719 -5.28629e-23)
(1.00858 0.302227 7.01553e-22)
(1.01929 0.262027 -6.97808e-23)
(0.247092 0.216884 0)
(0.542395 0.450144 -2.1817e-22)
(0.731431 0.547035 1.61419e-22)
(0.839368 0.556283 0)
(0.900732 0.516565 5.15312e-22)
(0.935697 0.458579 0)
(0.958547 0.398759 -5.37373e-22)
(0.975919 0.344455 4.07804e-22)
(0.990587 0.297264 7.75823e-22)
(1.00393 0.256599 6.41103e-22)
(0.236262 0.222189 4.84426e-23)
(0.518852 0.455782 1.77501e-22)
(0.702396 0.548376 0)
(0.808907 0.553537 0)
(0.871802 0.511084 0)
(0.90958 0.45194 8.35575e-23)
(0.935605 0.391979 3.95257e-22)
(0.955864 0.338061 6.05014e-23)
(0.972762 0.291364 -7.75828e-22)
(0.988837 0.250268 -7.21471e-22)
(0.224485 0.226017 0)
(0.493994 0.458612 5.43773e-22)
(0.672371 0.546695 0)
(0.77793 0.548066 0)
(0.842751 0.503369 0)
(0.883584 0.443525 -9.49279e-23)
(0.912903 0.383788 8.37972e-22)
(0.93609 0.33054 -2.00719e-22)
(0.955385 0.28461 -7.04709e-22)
(0.973993 0.243057 -7.39417e-22)
(0.211901 0.228285 0)
(0.468087 0.458549 -5.43774e-22)
(0.641641 0.541954 6.6488e-22)
(0.746687 0.53987 0)
(0.813776 0.493436 1.05301e-21)
(0.857855 0.433349 0)
(0.89055 0.374194 -6.78051e-22)
(0.916719 0.321867 6.1278e-22)
(0.938614 0.276987 9.2562e-22)
(0.959769 0.236532 7.40861e-22)
(0.198657 0.228927 -1.19071e-21)
(0.441405 0.455537 0)
(0.610491 0.534142 -5.71717e-22)
(0.715424 0.528966 -7.79661e-23)
(0.785067 0.481311 -2.23567e-21)
(0.832537 0.421436 0)
(0.868649 0.363216 8.13215e-22)
(0.897808 0.31206 4.83455e-23)
(0.922277 0.268377 9.427e-22)
(0.945504 0.22941 9.4326e-25)
(0.184912 0.227893 1.26701e-21)
(0.414229 0.449544 -6.40547e-23)
(0.579203 0.523269 -1.07576e-22)
(0.684383 0.51539 -9.00251e-23)
(0.75681 0.467033 1.18265e-21)
(0.807768 0.407818 -1.07925e-21)
(0.847308 0.350877 -8.13219e-22)
(0.879436 0.301145 -6.61132e-22)
(0.90644 0.258825 -1.06846e-21)
(0.93157 0.22145 1.00904e-21)
(0.170829 0.225151 -8.89833e-23)
(0.38684 0.440566 -1.11076e-21)
(0.548059 0.509368 0)
(0.653799 0.499193 7.56385e-22)
(0.729185 0.450652 8.5597e-23)
(0.783683 0.392537 1.07926e-21)
(0.826629 0.337208 -1.11328e-22)
(0.861686 0.289144 -6.59331e-22)
(0.891175 0.248371 0)
(0.918116 0.212667 -8.98355e-22)
(0.156574 0.220686 1.07898e-22)
(0.359519 0.428626 1.18547e-21)
(0.517334 0.492495 0)
(0.623902 0.48044 -2.94107e-23)
(0.702367 0.432228 9.38014e-23)
(0.760412 0.375641 0)
(0.806712 0.322244 1.00043e-21)
(0.844636 0.276084 7.52952e-22)
(0.876544 0.237035 1.49438e-22)
(0.905223 0.203098 -1.25865e-22)
(0.142317 0.214502 0)
(0.332546 0.41377 1.66271e-21)
(0.487297 0.472727 -1.4886e-22)
(0.594911 0.459215 7.91548e-23)
(0.676523 0.411835 8.31122e-22)
(0.738081 0.357186 1.48792e-21)
(0.787654 0.30603 -1.13276e-21)
(0.82836 0.261998 0)
(0.862604 0.224844 0)
(0.892959 0.192766 0)
(0.128226 0.206622 -7.99648e-24)
(0.306193 0.396074 -1.39441e-21)
(0.458207 0.450162 1.63206e-22)
(0.567038 0.435614 -1.15066e-21)
(0.651811 0.389554 -7.21915e-22)
(0.71681 0.337239 2.42441e-22)
(0.769547 0.288616 -1.11979e-21)
(0.812929 0.246925 7.65009e-22)
(0.84941 0.211828 8.52823e-22)
(0.881377 0.181697 -6.77941e-22)
(0.114467 0.197087 -1.06471e-21)
(0.280724 0.375636 -1.14082e-22)
(0.430313 0.424919 1.46123e-21)
(0.540484 0.409751 1.16659e-21)
(0.628383 0.365478 0)
(0.69671 0.315872 -1.40617e-21)
(0.752476 0.270059 -5.0725e-23)
(0.79841 0.230911 -9.84108e-22)
(0.837015 0.198024 -5.9817e-22)
(0.870523 0.169926 5.40256e-22)
(0.101202 0.185955 2.48636e-21)
(0.256394 0.35258 0)
(0.403851 0.397136 -3.01592e-21)
(0.515437 0.381751 -1.01976e-21)
(0.606382 0.339712 -1.23007e-22)
(0.67789 0.293168 0)
(0.736523 0.250424 1.16235e-21)
(0.784866 0.214008 -9.45842e-22)
(0.825468 0.183475 -7.39831e-22)
(0.860438 0.157492 5.77845e-22)
(0.0885885 0.1733 -1.28577e-21)
(0.233444 0.32705 -9.99855e-22)
(0.379044 0.366967 1.74945e-21)
(0.492077 0.351753 -1.6299e-22)
(0.585939 0.312366 0)
(0.660448 0.269214 0)
(0.721766 0.229781 0)
(0.772356 0.196274 1.92268e-21)
(0.814815 0.168228 7.39834e-22)
(0.851157 0.144441 -5.77845e-22)
(0.0767731 0.159213 -1.27219e-21)
(0.212099 0.299213 9.88652e-22)
(0.356097 0.334588 1.06359e-22)
(0.470565 0.319908 0)
(0.567178 0.283564 -1.06463e-21)
(0.644477 0.244106 -7.31483e-22)
(0.708275 0.208206 -8.28548e-23)
(0.760935 0.177771 1.47711e-22)
(0.805099 0.152335 -1.93892e-22)
(0.842712 0.13082 7.84906e-23)
(0.0658949 0.143803 1.43703e-21)
(0.192569 0.269256 -1.33158e-22)
(0.335202 0.300185 -1.11332e-21)
(0.451053 0.286379 2.56288e-22)
(0.55021 0.253434 7.9379e-22)
(0.630061 0.217947 1.04158e-21)
(0.696113 0.185782 -8.54159e-23)
(0.750652 0.158567 -4.89916e-22)
(0.796359 0.135852 0)
(0.835131 0.116681 7.48449e-23)
(0.056081 0.127188 9.57936e-23)
(0.175045 0.237385 0)
(0.316529 0.263963 -3.11699e-23)
(0.433676 0.251339 0)
(0.535136 0.222115 -1.13085e-21)
(0.617277 0.190846 8.76753e-22)
(0.685341 0.162595 0)
(0.741552 0.138733 1.10049e-23)
(0.78863 0.11884 0)
(0.82844 0.10208 0)
(0.0474463 0.109502 1.9233e-22)
(0.159698 0.203819 -1.25702e-21)
(0.300233 0.226136 1.04035e-21)
(0.418554 0.21497 -1.83835e-22)
(0.522047 0.189749 4.88477e-22)
(0.60619 0.162917 1.34345e-22)
(0.676008 0.138739 0)
(0.733677 0.118347 -3.98214e-22)
(0.781944 0.101363 -1.07631e-22)
(0.822661 0.087073 -3.22188e-22)
(0.0400913 0.0908913 8.24682e-22)
(0.146675 0.168794 -1.85662e-21)
(0.286446 0.186933 1.78038e-22)
(0.405791 0.177463 -7.6319e-22)
(0.511019 0.156489 -8.68669e-23)
(0.596861 0.134278 -8.95378e-22)
(0.668162 0.114309 0)
(0.727059 0.0974861 5.43194e-22)
(0.77633 0.0834861 -1.00637e-22)
(0.817815 0.0717196 7.33236e-22)
(0.034102 0.0715089 -8.24682e-22)
(0.136103 0.13256 6.79423e-22)
(0.27528 0.14659 -1.22218e-22)
(0.395475 0.139014 8.9826e-22)
(0.502117 0.122489 5.12332e-22)
(0.589338 0.105053 5.51562e-23)
(0.661838 0.0894049 -4.63206e-23)
(0.721729 0.0762335 -6.08915e-22)
(0.77181 0.0652796 4.43239e-24)
(0.813918 0.0560806 -2.43843e-22)
(0.0295479 0.051518 4.26101e-22)
(0.128083 0.0953727 0)
(0.266825 0.105352 5.02617e-22)
(0.387675 0.0998267 0)
(0.495395 0.0879093 7.23628e-23)
(0.583661 0.0753685 -6.06925e-23)
(0.657068 0.0641283 0)
(0.717711 0.0546736 0)
(0.768403 0.0468144 0)
(0.810983 0.0402181 0)
(0.0264821 0.0310879 -3.74151e-22)
(0.122694 0.0574996 -1.36265e-22)
(0.261151 0.0634699 -5.02617e-22)
(0.382445 0.0601092 0)
(0.490891 0.0529129 0)
(0.579859 0.0453538 2.80783e-23)
(0.653876 0.0385844 -1.13783e-22)
(0.715022 0.0328929 -1.39059e-22)
(0.766123 0.0281633 -1.33307e-22)
(0.80902 0.0241952 2.17461e-23)
(0.0249402 0.0103922 -6.73019e-24)
(0.119986 0.0192127 1.47716e-22)
(0.258302 0.0211999 -7.18867e-24)
(0.379822 0.020072 2.46288e-23)
(0.488633 0.0176656 -9.91396e-24)
(0.577953 0.0151401 0)
(0.652276 0.0128794 9.02025e-23)
(0.713674 0.0109791 1.39059e-22)
(0.764981 0.00940024 1.01014e-22)
(0.808038 0.00807582 1.54945e-23)
(0.0249402 -0.0103922 -6.73019e-24)
(0.119986 -0.0192127 1.47716e-22)
(0.258302 -0.0211999 -7.18867e-24)
(0.379822 -0.020072 2.46288e-23)
(0.488633 -0.0176656 -9.91396e-24)
(0.577953 -0.0151401 0)
(0.652276 -0.0128794 7.93532e-23)
(0.713674 -0.0109791 1.48183e-22)
(0.764981 -0.00940024 1.07487e-22)
(0.808038 -0.00807582 0)
(0.0264821 -0.0310879 -4.78052e-22)
(0.122694 -0.0574996 -1.78537e-22)
(0.261151 -0.0634699 -5.33049e-22)
(0.382445 -0.0601092 2.54672e-23)
(0.490891 -0.0529129 0)
(0.579859 -0.0453538 -2.80783e-23)
(0.653876 -0.0385844 -6.66221e-23)
(0.715022 -0.0328929 -1.39059e-22)
(0.766123 -0.0281633 -8.16673e-23)
(0.80902 -0.0241952 -2.17461e-23)
(0.0295479 -0.051518 4.26101e-22)
(0.128083 -0.0953727 0)
(0.266825 -0.105352 5.02617e-22)
(0.387675 -0.0998267 0)
(0.495395 -0.0879093 7.23628e-23)
(0.583661 -0.0753685 -6.06925e-23)
(0.657068 -0.0641283 0)
(0.717711 -0.0546736 0)
(0.768403 -0.0468144 0)
(0.810983 -0.0402181 0)
(0.034102 -0.0715089 -8.24682e-22)
(0.136103 -0.13256 5.29248e-22)
(0.27528 -0.14659 1.22218e-22)
(0.395475 -0.139014 6.1431e-22)
(0.502117 -0.122489 6.66884e-22)
(0.589338 -0.105053 -5.51562e-23)
(0.661838 -0.0894049 4.63206e-23)
(0.721729 -0.0762335 -4.77475e-22)
(0.77181 -0.0652796 -4.43239e-24)
(0.813918 -0.0560806 -4.08734e-22)
(0.0400913 -0.0908913 8.24682e-22)
(0.146675 -0.168794 6.4795e-22)
(0.286446 -0.186933 -1.78038e-22)
(0.405791 -0.177463 -7.49378e-22)
(0.511019 -0.156489 6.49969e-23)
(0.596861 -0.134278 -8.95378e-22)
(0.668162 -0.114309 0)
(0.727059 -0.0974861 5.43194e-22)
(0.77633 -0.0834861 1.00637e-22)
(0.817815 -0.0717196 5.63718e-22)
(0.0474463 -0.109502 -1.9233e-22)
(0.159698 -0.203819 1.25702e-21)
(0.300233 -0.226136 8.12878e-22)
(0.418554 -0.21497 1.83835e-22)
(0.522047 -0.189749 6.15893e-22)
(0.60619 -0.162917 -2.03854e-22)
(0.676008 -0.138739 8.96527e-23)
(0.733677 -0.118347 -6.5387e-22)
(0.781944 -0.101363 1.07631e-22)
(0.822661 -0.087073 -3.22188e-22)
(0.056081 -0.127188 -9.57936e-23)
(0.175045 -0.237385 0)
(0.316529 -0.263963 -3.11699e-23)
(0.433676 -0.251339 0)
(0.535136 -0.222115 -1.13085e-21)
(0.617277 -0.190846 8.76753e-22)
(0.685341 -0.162595 0)
(0.741552 -0.138733 1.10049e-23)
(0.78863 -0.11884 0)
(0.82844 -0.10208 0)
(0.0658949 -0.143803 1.43703e-21)
(0.192569 -0.269256 1.33158e-22)
(0.335202 -0.300185 -7.84084e-22)
(0.451053 -0.286379 -1.67143e-22)
(0.55021 -0.253434 1.33547e-21)
(0.630061 -0.217947 6.18711e-22)
(0.696113 -0.185782 8.54159e-23)
(0.750652 -0.158567 -6.12615e-22)
(0.796359 -0.135852 1.03313e-22)
(0.835131 -0.116681 -7.48449e-23)
(0.0767731 -0.159213 -1.60186e-21)
(0.212099 -0.299213 1.01106e-21)
(0.356097 -0.334588 9.80016e-23)
(0.470565 -0.319908 -1.71021e-22)
(0.567178 -0.283564 -1.06463e-21)
(0.644477 -0.244106 -9.28801e-22)
(0.708275 -0.208206 8.28548e-23)
(0.760935 -0.177771 -9.14808e-23)
(0.805099 -0.152335 1.93892e-22)
(0.842712 -0.13082 -7.84906e-23)
(0.0885885 -0.1733 -1.28577e-21)
(0.233444 -0.32705 -9.99855e-22)
(0.379044 -0.366967 1.35992e-21)
(0.492077 -0.351753 1.6299e-22)
(0.585939 -0.312366 0)
(0.660448 -0.269214 0)
(0.721766 -0.229781 0)
(0.772356 -0.196274 1.92268e-21)
(0.814815 -0.168228 7.39834e-22)
(0.851157 -0.144441 -5.77845e-22)
(0.101202 -0.185955 2.48636e-21)
(0.256394 -0.35258 0)
(0.403851 -0.397136 -3.01592e-21)
(0.515437 -0.381751 -1.1666e-21)
(0.606382 -0.339712 0)
(0.67789 -0.293168 0)
(0.736523 -0.250424 1.16235e-21)
(0.784866 -0.214008 -9.45842e-22)
(0.825468 -0.183475 -7.39831e-22)
(0.860438 -0.157492 5.77845e-22)
(0.114467 -0.197087 -1.33648e-21)
(0.280724 -0.375636 1.14082e-22)
(0.430313 -0.424919 1.46123e-21)
(0.540484 -0.409751 1.30546e-21)
(0.628383 -0.365478 -1.16331e-22)
(0.69671 -0.315872 -1.40617e-21)
(0.752476 -0.270059 -5.07249e-23)
(0.79841 -0.230911 -7.67523e-22)
(0.837015 -0.198024 -7.80535e-22)
(0.870523 -0.169926 5.40256e-22)
(0.128226 -0.206622 7.99648e-24)
(0.306193 -0.396074 -1.57501e-21)
(0.458207 -0.450162 -1.63206e-22)
(0.567038 -0.435614 -8.89927e-22)
(0.651811 -0.389554 -7.30667e-22)
(0.71681 -0.337239 -2.66675e-22)
(0.769547 -0.288616 -1.10344e-21)
(0.812929 -0.246925 9.86614e-22)
(0.84941 -0.211828 5.25877e-22)
(0.881377 -0.181697 -4.02572e-22)
(0.142317 -0.214502 0)
(0.332546 -0.41377 1.30671e-21)
(0.487297 -0.472727 1.4886e-22)
(0.594911 -0.459215 7.91548e-23)
(0.676523 -0.411835 8.31122e-22)
(0.738081 -0.357186 1.17278e-21)
(0.787654 -0.30603 -9.93394e-22)
(0.82836 -0.261998 1.05358e-22)
(0.862604 -0.224844 0)
(0.892959 -0.192766 0)