/*--------------------------------*- C++ -*----------------------------------*\
  =========                 |
  \\      /  F ield         | OpenFOAM: The Open Source CFD Toolbox
   \\    /   O peration     | Website:  https://openfoam.org
    \\  /    A nd           | Version:  7
     \\/     M anipulation  |
\*---------------------------------------------------------------------------*/
FoamFile
{
    version     2.0;
    format      ascii;
    class       volVectorField;
    location    "0.2";
    object      U;
}
// * * * * * * * * * * * * * * * * * * * * * * * * * * * * * * * * * * * * * //

dimensions      [0 1 -1 0 0 0 0];

internalField   nonuniform List<vector> 
252
(
(3 -1.59414e-16 0)
(3 -2.18832e-16 0)
(3 -3.98898e-16 0)
(3 3.20278e-16 0)
(2.76747 0.01748 0)
(1.39685 0.127121 0)
(3 -9.81847e-17 0)
(3 -1.68834e-16 0)
(3 2.21006e-17 0)
(3 7.14466e-16 0)
(2.94963 0.022534 0)
(1.53684 0.674921 0)
(3 -5.36212e-17 0)
(3 7.10118e-17 0)
(3 3.74986e-16 0)
(3 8.02868e-16 0)
(2.99998 0.000157545 0)
(2.17865 1.07838 0)
(3 -6.15919e-18 0)
(3 -1.69197e-16 0)
(3 -8.04318e-16 0)
(3 -6.04687e-16 0)
(3 2.47531e-09 0)
(2.95334 0.229033 0)
(3 6.77511e-17 0)
(3 -1.81153e-16 0)
(3 -2.34774e-16 0)
(3 -8.77865e-16 0)
(3 9.38008e-16 0)
(3.00002 0.00440093 0)
(3 -2.46368e-17 0)
(3 1.34053e-16 0)
(3 4.54331e-16 0)
(3 1.13039e-16 0)
(3 -2.88757e-16 0)
(3 7.08807e-06 0)
(3 7.60841e-17 0)
(3 6.54323e-16 0)
(3 8.20259e-16 0)
(3 4.38027e-16 0)
(3 1.90935e-16 0)
(3 7.64242e-10 0)
(3 -4.2752e-17 0)
(3 9.41993e-17 0)
(3 1.84728e-16 0)
(3 4.55828e-16 0)
(3 6.51062e-16 0)
(3 2.67471e-14 0)
(3 -1.59414e-17 0)
(3 -2.05427e-16 0)
(3 -7.00645e-16 0)
(3 -5.78601e-16 0)
(3 -6.65555e-16 0)
(3 -1.70484e-15 0)
(3 1.15213e-16 0)
(3 5.76065e-17 0)
(3 -2.49266e-16 0)
(3 -8.80264e-16 0)
(3 -1.24611e-15 0)
(3 -1.81479e-15 0)
(2.61896 0.917494 0)
(2.87671 0.707909 0)
(3.0289 0.39144 0)
(3.11657 0.197171 0)
(3.06517 0.0587876 0)
(3.02175 0.0218 0)
(3.00013 0.00338023 0)
(2.99998 8.16843e-05 0)
(3 2.05023e-07 0)
(3 3.9334e-11 0)
(3 -2.28252e-16 0)
(3 2.21368e-16 0)
(3 4.21361e-16 0)
(3 2.64483e-17 0)
(3 -2.16296e-16 0)
(3 -2.81511e-16 0)
(3 -4.73533e-16 0)
(3 -2.48541e-16 0)
(3 -3.22452e-17 0)
(3 -2.18832e-16 0)
(3 -1.34778e-16 0)
(3 1.67747e-16 0)
(3 3.5832e-16 0)
(3 2.42744e-16 0)
(2.87115 0.44508 0)
(2.93262 0.376695 0)
(3.01701 0.248311 0)
(3.06495 0.12532 0)
(3.05456 0.0499842 0)
(3.02541 0.0150153 0)
(3.00491 0.00206635 0)
(3.00021 6.41593e-05 0)
(3 2.03323e-07 0)
(3 2.82248e-11 0)
(3 2.35861e-16 0)
(3 1.67023e-16 0)
(3 4.94909e-16 0)
(3 -7.3548e-17 0)
(3 -3.08684e-16 0)
(3 -4.75344e-16 0)
(3 -5.86572e-16 0)
(3 -3.40929e-16 0)
(3 1.44922e-17 0)
(3 1.65573e-16 0)
(3 1.67023e-16 0)
(3 2.72816e-16 0)
(3 4.73533e-16 0)
(3 3.8658e-16 0)
(2.97291 0.0746192 0)
(2.97642 0.135534 0)
(2.99619 0.117344 0)
(3.01714 0.0796866 0)
(3.02134 0.039221 0)
(3.01103 0.0117351 0)
(3.00191 0.00141787 0)
(3.00006 3.54811e-05 0)
(3 8.35955e-08 0)
(3 8.03718e-12 0)
(3 7.88014e-16 0)
(3 -1.98181e-16 0)
(3 1.15938e-17 0)
(3 7.46349e-16 0)
(3 4.57591e-16 0)
(3 -2.01442e-16 0)
(3 -2.57237e-16 0)
(3 -1.72457e-16 0)
(3 -1.23184e-16 0)
(3 4.49621e-16 0)
(3 6.15557e-16 0)
(3 4.37302e-16 0)
(3 1.18111e-16 0)
(3 -1.85863e-16 0)
(2.99947 0.00133711 0)
(2.99742 0.00931257 0)
(2.99743 0.015643 0)
(2.99917 0.0135461 0)
(3.00146 0.00736559 0)
(3.00111 0.00187261 0)
(3.00015 0.00014805 0)
(3 2.01566e-06 0)
(3 2.34139e-09 0)
(3 1.12165e-13 0)
(3 -1.1246e-15 0)
(3 -9.67717e-16 0)
(3 -4.73171e-16 0)
(3 -2.67019e-16 0)
(3 2.7825e-16 0)
(3 1.40937e-16 0)
(3 4.34766e-16 0)
(3 7.35117e-16 0)
(3 5.56138e-16 0)
(3 5.72442e-16 0)
(3 4.64838e-16 0)
(3 2.89844e-18 0)
(3 -4.29332e-16 0)
(3 -8.68446e-16 0)
(3 2.22319e-06 0)
(2.99998 6.66207e-05 0)
(2.99995 0.000246022 0)
(2.99995 0.000277905 0)
(3 0.000172964 0)
(3.00001 3.76343e-05 0)
(3 1.77602e-06 0)
(3 1.09894e-08 0)
(3 5.18317e-12 0)
(3 -1.84558e-15 0)
(3 -8.07941e-16 0)
(3 -5.19546e-16 0)
(3 1.63037e-17 0)
(3 -5.17734e-16 0)
(3 -5.71718e-16 0)
(3 6.15919e-17 0)
(3 2.91656e-16 0)
(3 3.58682e-16 0)
(3 3.68464e-16 0)
(3 1.22821e-16 0)
(3 -4.28109e-16 0)
(3 -2.72453e-16 0)
(3 -3.98898e-16 0)
(3 -2.33325e-16 0)
(3 2.59321e-10 0)
(3 3.49488e-08 0)
(3 2.56782e-07 0)
(3 3.73858e-07 0)
(3 2.49996e-07 0)
(3 4.67384e-08 0)
(3 1.35472e-09 0)
(3 3.90302e-12 0)
(3 2.38433e-15 0)
(3 1.52422e-15 0)
(3 1.14546e-15 0)
(3 1.25412e-15 0)
(3 6.7896e-16 0)
(3 7.61928e-16 0)
(3 2.32633e-16 0)
(3 2.47266e-16 0)
(3 -2.61584e-16 0)
(3 -6.43092e-16 0)
(3 -4.95791e-16 0)
(3 -3.74624e-16 0)
(3 -1.25297e-16 0)
(3 3.93463e-16 0)
(3 2.33325e-16 0)
(3 2.12311e-16 0)
(3 6.70968e-15 0)
(3 1.11562e-12 0)
(3 1.08941e-11 0)
(3 1.88551e-11 0)
(3 1.26965e-11 0)
(3 2.0651e-12 0)
(3 4.68482e-14 0)
(3 1.73704e-16 0)
(3 9.114e-16 0)
(3 1.2014e-15 0)
(3 1.13365e-15 0)
(3 7.33258e-16 0)
(3 1.8591e-16 0)
(3 3.27524e-16 0)
(3 9.24241e-16 0)
(3 8.79488e-16 0)
(3 3.91479e-16 0)
(3 2.38035e-16 0)
(3 1.07242e-16 0)
(3 2.77769e-17 0)
(3 4.34766e-16 0)
(3 -1.30413e-17 0)
(3 -3.76073e-16 0)
(3 -1.34053e-16 0)
(3 -1.30873e-15 0)
(3 -6.11852e-16 0)
(3 -1.26807e-17 0)
(3 3.78609e-16 0)
(3 3.64004e-16 0)
(3 1.9141e-16 0)
(3 1.8224e-16 0)
(3 -1.41264e-17 0)
(3 -2.17418e-17 0)
(3 -2.07963e-16 0)
(3 4.20274e-17 0)
(3 -7.01954e-19 0)
(3 1.45624e-16 0)
(3 -7.10118e-17 0)
(3 7.31856e-17 0)
(3 3.98438e-16 0)
(3 4.38125e-16 0)
(3 5.49979e-16 0)
(3 4.53244e-16 0)
(3 1.01058e-16 0)
(3 2.70667e-16 0)
(3 -1.99268e-16 0)
(3 -3.65204e-16 0)
(3 -1.3043e-17 0)
)
;

boundaryField
{
    inlet
    {
        type            fixedValue;
        value           uniform (3 0 0);
    }
    outlet
    {
        type            inletOutlet;
        inletValue      uniform (3 0 0);
        value           nonuniform List<vector> 8((3 2.42744e-16 0) (3 3.8658e-16 0) (3 -1.85863e-16 0) (3 -8.68446e-16 0) (3 -2.33325e-16 0) (3 2.12311e-16 0) (3 -1.34053e-16 0) (3 -1.3043e-17 0));
    }
    bottom
    {
        type            symmetryPlane;
    }
    top
    {
        type            symmetryPlane;
    }
    obstacle
    {
        type            slip;
    }
    defaultFaces
    {
        type            empty;
    }
}


// ************************************************************************* //
