/*--------------------------------*- C++ -*----------------------------------*\
  =========                 |
  \\      /  F ield         | OpenFOAM: The Open Source CFD Toolbox
   \\    /   O peration     | Website:  https://openfoam.org
    \\  /    A nd           | Version:  7
     \\/     M anipulation  |
\*---------------------------------------------------------------------------*/
FoamFile
{
    version     2.0;
    format      ascii;
    class       volScalarField;
    location    "1";
    object      p;
}
// * * * * * * * * * * * * * * * * * * * * * * * * * * * * * * * * * * * * * //

dimensions      [1 -1 -2 0 0 0 0];

internalField   nonuniform List<scalar> 
6300
(
1
1
1
1
1
1
1
1
1
1
1
1
1
1
1
1
2.30746
9.27206
10.7742
10.9687
11.1835
11.3613
11.5224
11.6645
11.7794
11.8762
11.9791
12.069
12.1755
12.2544
1
1
1
1
1
1
1
1
1
1
1
1
1
1
1
1
2.23723
9.1412
10.7429
10.9416
11.1638
11.3445
11.5071
11.6466
11.7551
11.847
11.9418
12.0251
12.1292
12.2085
1
1
1
1
1
1
1
1
1
1
1
1
1
1
1
1
2.0788
8.90511
10.6943
10.8961
11.1343
11.3189
11.4835
11.621
11.7243
11.8114
11.8936
11.9672
12.0628
12.1392
1
1
1
1
1
1
1
1
1
1
1
1
1
1
1
1
1.84349
8.5197
10.637
10.8389
11.0959
11.2786
11.4415
11.5747
11.6716
11.7519
11.8216
11.887
11.9711
12.0406
1
1
1
1
1
1
1
1
1
1
1
1
1
1
1
1
1.51362
7.94957
10.6394
10.7991
11.053
11.2225
11.372
11.4927
11.5808
11.6552
11.7189
11.7811
11.8542
11.9174
1
1
1
1
1
1
1
1
1
1
1
1
1
1
1
1
1.13522
7.13553
10.6535
10.8004
11.0045
11.1382
11.2593
11.3658
11.4521
11.5311
11.5995
11.6566
11.7067
11.7464
1
1
1
1
1
1
1
1
1
1
1
1
1
1
1
1
1.00375
6.14569
10.4781
10.6851
10.8715
11.0075
11.1154
11.2056
11.284
11.357
11.4182
11.4706
11.5008
11.5421
1
1
1
1
1
1
1
1
1
1
1
1
1
1
1
1
1.00001
4.97293
10.1998
10.5842
10.7383
10.8643
10.9502
11.0204
11.0875
11.1587
11.2245
11.2775
11.2649
11.2063
1
1
1
1
1
1
1
1
1
1
1
1
1
1
1
1
1
3.78531
9.71879
10.4771
10.6178
10.7362
10.8055
10.8527
10.8895
10.9321
10.9465
10.9068
10.8187
10.7284
1
1
1
1
1
1
1
1
1
1
1
1
1
1
1
1
1
2.57673
8.91059
10.3675
10.4633
10.5836
10.6473
10.6694
10.6554
10.6294
10.5817
10.493
10.3466
10.3009
1
1
1
1
1
1
1
1
1
1
1
1
1
1
1
1
1
1.49818
7.96649
10.4508
10.4381
10.4656
10.4893
10.4759
10.419
10.3278
10.1643
9.86253
9.04913
7.07399
1
1
1
1
1
1
1
1
1
1
1
1
1
1
1
1
1
1.02944
6.47804
9.99577
10.1
10.1876
10.2277
10.1998
10.1162
9.96864
9.69635
9.17035
8.27902
6.1279
1
1
1
1
1
1
1
1
1
1
1
1
1
1
1
1
1
1.00008
4.60921
9.57659
9.96655
10.0254
10.0494
9.98607
9.84659
9.60858
9.24219
8.61376
7.69199
5.71699
1
1
1
1
1
1
1
1
1
1
1
1
1
1
1
1
1
1
2.69133
8.68457
9.8651
9.85576
9.83771
9.73594
9.5551
9.2663
8.84486
8.21964
7.20975
5.65044
1
1
1
1
1
1
1
1
1
1
1
1
1
1
1
1
1
1
1.2448
7.26914
9.74441
9.64806
9.62094
9.48829
9.26754
8.93617
8.51836
7.87334
6.9252
5.70422
1
1
1
1
1
1
1
1
1
1
1
1
1
1
1
1
1
1
1.00611
5.08913
9.2787
9.50267
9.47109
9.32517
9.06884
8.69541
8.26313
7.60899
6.77372
5.81346
1
1
1
1
1
1
1
1
1
1
1
1
1
1
1
1
1
1
0.99998
2.52499
8.43154
9.47758
9.32136
9.12659
8.83424
8.45406
8.00447
7.40437
6.67814
5.88567
1
1
1
1
1
1
1
1
1
1
1
1
1
1
1
1
1
1
0.999997
1.16739
6.69626
9.25228
9.01647
8.87783
8.62468
8.27265
7.82407
7.27508
6.63546
5.9721
1
1
1
1
1
1
1
1
1
1
1
1
1
1
1
1
1
1
1
1.00214
3.86366
8.61244
8.85139
8.72786
8.50666
8.16973
7.72378
7.19467
6.61005
6.0315
1
1
1
1
1
1
1
1
1
1
1
1
1
1
1
1
1
1
1
0.999997
1.47292
7.23063
8.83976
8.57472
8.33968
8.02781
7.62396
7.13626
6.60712
6.0845
1
1
1
1
1
1
1
1
1
1
1
1
1
1
1
1
1
1
1
1
1.01755
4.5345
8.28582
8.37223
8.16877
7.90163
7.53794
7.09116
6.60877
6.12927
1
1
1
1
1
1
1
1
1
1
1
1
1
1
1
1
1
1
1
1
1.00002
1.72467
7.07509
8.38263
8.09194
7.80335
7.45247
7.04322
6.60308
6.16349
1
1
1
1
1
1
1
1
1
1
1
1
1
1
1
1
1
1
1
1
1
1.03849
4.35133
7.88927
7.95339
7.66723
7.35709
6.99493
6.60008
6.19562
1
1
1
1
1
1
1
1
1
1
1
1
1
1
1
1
1
1
1
1
1
1.00018
1.66435
6.47797
8.00004
7.64025
7.32743
6.97514
6.59656
6.20909
1
1
1
1
1
1
1
1
1
1
1
1
1
1
1
1
1
1
1
1
1
1
1.03066
3.41619
7.30694
7.58305
7.24155
6.92305
6.58427
6.23044
1
1
1
1
1
1
1
1
1
1
1
1
1
1
1
1
1
1
1
1
1
1
1.00019
1.35802
5.45438
7.60147
7.27627
6.94541
6.60406
6.2591
1
1
1
1
1
1
1
1
1
1
1
1
1
1
1
1
1
1
1
1
1
1
1
1.00949
2.37735
6.51211
7.33327
6.94268
6.63722
6.30938
1
1
1
1
1
1
1
1
1
1
1
1
1
1
1
1
1
1
1
1
1
1
1
1.00004
1.12042
3.82293
6.83386
6.96447
6.63797
6.31511
1
1
1
1
1
1
1
1
1
1
1
1
1
1
1
1
1
1
1
1
1
1
1
1
1.00176
1.50982
5.03449
6.93387
6.71936
6.38947
1
1
1
1
1
1
1
1
1
1
1
1
1
1
1
1
1
1
1
1
1
1
1
1
1.00001
1.01933
2.21295
5.76109
6.73314
6.47702
1
1
1
1
1
1
1
1
1
1
1
1
1
1
1
1
1
1
1
1
1
1
1
1
1
1.00014
1.09797
3.03304
6.06379
6.51652
1
1
1
1
1
1
1
1
1
1
1
1
1
1
1
1
1
1
1
1
1
1
1
1
1
1
1.00146
1.27175
3.81635
6.06799
1
1
1
1
1
1
1
1
1
1
1
1
1
1
1
1
1
1
1
1
1
1
1
1
1
1
1
1.00716
1.55263
4.39555
1
1
1
1
1
1
1
1
1
1
1
1
1
1
1
1
1
1
1
1
1
1
1
1
1
1
1
1.00004
1.02396
1.89727
1
1
1
1
1
1
1
1
1
1
1
1
1
1
1
1
1
1
1
1
1
1
1
1
1
1
1
1
1.0002
1.05797
1
1
1
1
1
1
1
1
1
1
1
1
1
1
1
1
1
1
1
1
1
1
1
1
1
1
1
1
1
1.00071
1
1
1
1
1
1
1
1
1
1
1
1
1
1
1
1
1
1
1
1
1
1
1
1
1
1
1
1
1
1
1
1
1
1
1
1
1
1
1
1
1
1
1
1
1
1
1
1
1
1
1
1
1
1
1
1
1
1
1
1
1
1
1
1
1
1
1
1
1
1
1
1
1
1
1
1
1
1
1
1
1
1
1
1
1
1
1
1
1
1
1
1
1
1
1
1
1
1
1
1
1
1
1
1
1
1
1
1
1
1
1
1
1
1
1
1
1
1
1
1
1
1
1
1
1
1
1
1
1
1
1
1
1
1
1
1
1
1
1
1
1
1
1
1
1
1
1
1
1
1
1
1
1
1
1
1
1
1
1
1
1
1
1
1
1
1
1
1
1
1
1
1
1
1
1
1
1
1
1
1
1
1
1
1
1
1
1
1
1
1
1
1
1
1
1
1
1
1
1
1
1
1
1
1
1
1
1
1
1
1
1
1
1
1
1
1
1
1
1
1
1
1
1
1
1
1
1
1
1
1
1
1
1
1
1
1
1
1
1
1
1
1
1
1
1
1
1
1
1
1
1
1
1
1
1
1
1
1
1
1
1
1
1
1
1
1
1
1
1
1
1
1
1
1
1
1
1
1
1
1
1
1
1
1
1
1
1
1
1
1
1
1
1
1
1
1
1
1
1
1
1
1
1
1
1
1
1
1
1
1
1
1
1
1
1
1
1
1
1
1
1
1
1
1
1
1
1
1
1
1
1
1
1
1
1
1
1
1
1
1
1
1
1
1
1
1
1
1
1
1
1
1
1
1
1
1
1
1
1
1
1
1
1
1
1
1
1
1
1
1
1
1
1
1
1
1
1
1
1
1
1
1
1
1
1
1
1
1
1
1
1
1
1
1
1
1
1
1
1
1
1
1
1
1
1
1
1
1
1
1
1
1
1
1
1
1
1
1
1
1
1.46259
0.311891
0.0811295
0.0898251
0.140932
0.197214
0.268862
0.377104
0.509361
0.609707
0.67342
0.751286
0.83986
0.894083
0.950574
1.04183
1.12303
1.14031
1.12714
1.12118
1.11419
1.10808
1.10989
1.11537
1.11764
1.11579
1.10623
1.10012
1.10017
1.10458
1.10921
1.11357
1.12241
1.12989
1.1257
1.11497
1.09939
1.08698
1.08053
1.07508
1.07035
1.06729
1.06258
1.0583
1.05221
1.04288
1.02927
1.01418
1.00893
1.00624
1.00308
0.9984
0.993362
0.990342
0.988851
0.986083
0.981066
0.974361
0.965294
0.953625
0.943025
0.934676
0.927993
0.923485
0.920387
0.91769
0.914188
0.908468
0.899015
0.88479
0.867021
0.856032
0.854339
0.857229
0.863263
0.875174
0.877705
0.873296
0.861286
0.837628
0.82509
0.823508
0.8236
0.825223
0.830365
0.835232
0.837062
0.835917
0.829196
0.828886
0.833944
0.842396
0.855579
0.863948
0.86827
0.871149
0.870614
0.863992
0.865671
0.869939
0.875223
0.881587
0.88462
0.88698
0.888455
0.886809
0.884559
0.887366
0.891425
0.89663
0.906164
0.915106
0.918998
0.919757
0.918447
0.915625
0.913711
0.912582
0.912054
0.91863
2.56647
1.31926
0.699458
0.503003
0.474066
0.422565
0.410432
0.411945
0.421583
0.44483
0.483671
0.531472
0.591974
0.676623
0.759936
0.834054
0.925046
0.995782
1.02258
1.04639
1.07799
1.08309
1.08622
1.09863
1.10278
1.10596
1.1042
1.10543
1.10686
1.11346
1.11728
1.11862
1.12513
1.12846
1.12216
1.11013
1.09667
1.08542
1.07578
1.06885
1.06487
1.06072
1.05527
1.04958
1.04321
1.03548
1.02625
1.01657
1.01349
1.01051
1.00544
0.998304
0.990074
0.981671
0.97682
0.973917
0.971909
0.969123
0.965422
0.960978
0.954176
0.944286
0.934568
0.926724
0.921605
0.918586
0.916106
0.913089
0.90946
0.903077
0.890919
0.873037
0.858606
0.854656
0.857553
0.862717
0.864979
0.862596
0.856546
0.847084
0.835701
0.828332
0.824572
0.823286
0.824702
0.826748
0.828524
0.829947
0.829086
0.832517
0.838727
0.847501
0.85878
0.865118
0.868948
0.871287
0.86842
0.857421
0.858087
0.862635
0.869913
0.881566
0.890132
0.893851
0.896292
0.896754
0.893278
0.889361
0.890512
0.895179
0.901592
0.908607
0.915193
0.919094
0.920664
0.921617
0.921305
0.918882
0.916506
0.920133
3.37415
2.22675
1.56108
1.10524
0.891007
0.713893
0.597349
0.55507
0.500138
0.473881
0.502356
0.543054
0.56154
0.59824
0.653223
0.697767
0.756079
0.840478
0.90619
0.965756
1.04379
1.08173
1.09513
1.11196
1.12255
1.12679
1.12249
1.11419
1.11818
1.12924
1.13026
1.12666
1.12618
1.1244
1.1156
1.10483
1.09688
1.09031
1.08329
1.07672
1.07156
1.0671
1.06166
1.05428
1.04394
1.03143
1.01673
1.00668
1.00718
1.00608
1.00275
0.99763
0.991564
0.983642
0.973414
0.965993
0.961619
0.958629
0.957246
0.957158
0.953978
0.948886
0.942111
0.931867
0.920995
0.913125
0.907477
0.90428
0.903604
0.904059
0.903578
0.899534
0.89034
0.87666
0.860619
0.847755
0.84297
0.843282
0.844408
0.843949
0.844162
0.845151
0.844535
0.841125
0.834389
0.824629
0.816228
0.812749
0.815472
0.822723
0.833447
0.847674
0.863444
0.87397
0.879066
0.881395
0.874441
0.853306
0.846892
0.850019
0.854762
0.864951
0.881285
0.892161
0.898236
0.90287
0.906328
0.907042
0.903011
0.897469
0.897801
0.901515
0.904422
0.907029
0.911731
0.91778
0.924326
0.929588
0.929751
0.931611
4.05914
2.9695
2.23736
1.75427
1.39787
1.13142
0.934617
0.845455
0.749469
0.665092
0.653355
0.627806
0.584928
0.585144
0.589181
0.592474
0.606126
0.656384
0.740049
0.825151
0.913364
0.984874
1.00951
1.0235
1.05382
1.09271
1.10036
1.10165
1.12547
1.15405
1.15468
1.14907
1.14158
1.12819
1.1067
1.08945
1.08062
1.07583
1.07313
1.07131
1.06956
1.06865
1.06613
1.05839
1.04625
1.03276
1.01629
1.00262
1.00256
1.00132
0.998819
0.995068
0.989894
0.98374
0.974503
0.964224
0.960271
0.957947
0.956837
0.954176
0.950972
0.948426
0.943988
0.936466
0.926412
0.916893
0.909451
0.904439
0.901881
0.90264
0.904625
0.905387
0.900858
0.885608
0.861784
0.843272
0.83503
0.831841
0.831121
0.832395
0.835349
0.839292
0.842188
0.843461
0.842636
0.838974
0.832668
0.825211
0.820343
0.822694
0.830401
0.841064
0.854195
0.866284
0.873359
0.877558
0.875472
0.865063
0.858239
0.858401
0.860624
0.866147
0.877057
0.887135
0.893469
0.898613
0.902759
0.905109
0.904757
0.903815
0.904419
0.907071
0.909231
0.910606
0.911734
0.913462
0.917187
0.923959
0.928747
0.932731
4.50663
3.58167
2.82174
2.30124
1.88692
1.53409
1.29214
1.15836
1.03635
0.905165
0.839394
0.782414
0.696932
0.661683
0.645593
0.613716
0.610753
0.622602
0.642874
0.674261
0.730734
0.817241
0.886341
0.924537
0.966563
1.02136
1.04222
1.04864
1.07047
1.11339
1.13015
1.12968
1.13347
1.13369
1.12358
1.10219
1.08558
1.07926
1.07324
1.06617
1.05951
1.05486
1.05317
1.04784
1.03644
1.02671
1.01813
1.01039
1.00818
1.00564
1.00241
0.998533
0.992702
0.985279
0.976471
0.964643
0.956212
0.952935
0.950703
0.946989
0.944313
0.942803
0.940911
0.93786
0.933197
0.92693
0.920539
0.916109
0.914401
0.913768
0.912143
0.907855
0.897483
0.877032
0.847967
0.829732
0.826445
0.827837
0.829971
0.832595
0.834004
0.834901
0.834974
0.833622
0.83188
0.831183
0.831948
0.832556
0.831185
0.831484
0.837514
0.846089
0.853517
0.859188
0.863311
0.863964
0.8609
0.858527
0.861529
0.865333
0.869507
0.875034
0.882334
0.890445
0.896495
0.899634
0.900472
0.897574
0.895484
0.896452
0.898398
0.901593
0.906964
0.912593
0.916188
0.918448
0.920408
0.923484
0.926903
0.927585
4.86847
4.04015
3.33819
2.77324
2.3253
1.95881
1.66937
1.46781
1.30652
1.15575
1.06818
1.00063
0.908224
0.835767
0.801002
0.742795
0.697514
0.687774
0.676651
0.666278
0.668977
0.685257
0.711755
0.746302
0.793777
0.859716
0.925527
0.969756
1.00012
1.05363
1.09198
1.09253
1.09801
1.10711
1.10525
1.09539
1.09417
1.09594
1.09315
1.08198
1.06276
1.04655
1.03744
1.03235
1.02386
1.02085
1.02102
1.02102
1.01993
1.01573
1.01235
1.00795
1.0021
0.993502
0.982587
0.96979
0.95559
0.94676
0.941811
0.93658
0.934285
0.934373
0.937134
0.939401
0.939407
0.936439
0.929973
0.921804
0.913539
0.905708
0.898169
0.890292
0.880949
0.867735
0.851055
0.837957
0.832925
0.832583
0.832983
0.832823
0.830874
0.828239
0.827419
0.82811
0.829864
0.83632
0.844745
0.850384
0.852633
0.850007
0.844705
0.843741
0.845627
0.847417
0.848842
0.849831
0.852035
0.85724
0.864657
0.870857
0.874776
0.87866
0.883354
0.88794
0.892657
0.894977
0.893467
0.892864
0.894872
0.89648
0.897414
0.900774
0.907656
0.911871
0.913298
0.915343
0.918947
0.923257
0.929596
0.930139
5.10362
4.34843
3.72613
3.19548
2.72109
2.32869
2.04566
1.78816
1.58872
1.42277
1.2967
1.18319
1.08177
1.01044
0.955513
0.890969
0.821231
0.790499
0.761889
0.710573
0.687792
0.687715
0.687328
0.688509
0.696507
0.719697
0.759251
0.811614
0.864424
0.920567
0.987254
1.02088
1.03814
1.06521
1.08328
1.07875
1.07872
1.08764
1.08722
1.07705
1.0618
1.04863
1.0379
1.02915
1.02263
1.02063
1.02169
1.02455
1.02121
1.01156
1.00019
0.993312
0.988686
0.984313
0.978753
0.971674
0.96363
0.955053
0.947388
0.940088
0.933532
0.931315
0.931779
0.931823
0.929639
0.925593
0.920425
0.91438
0.907323
0.899689
0.892406
0.885477
0.879185
0.873845
0.86735
0.856633
0.844706
0.835628
0.829611
0.825593
0.823363
0.823326
0.8251
0.831321
0.84579
0.861648
0.868942
0.87067
0.864657
0.848208
0.829712
0.819793
0.818128
0.820518
0.825193
0.833749
0.846446
0.863009
0.877025
0.88387
0.88655
0.885012
0.878871
0.875031
0.874884
0.876896
0.879506
0.883679
0.889425
0.893928
0.896315
0.89985
0.905422
0.907306
0.907641
0.908556
0.911327
0.915576
0.920919
0.926003
5.27726
4.59994
4.03971
3.53088
3.04051
2.67511
2.37296
2.09516
1.83732
1.67921
1.53731
1.39914
1.26839
1.1839
1.11249
1.03686
0.966812
0.931074
0.895994
0.834531
0.791175
0.767004
0.737102
0.707756
0.706414
0.702855
0.697397
0.701767
0.720533
0.751782
0.791889
0.849566
0.901723
0.952189
1.01726
1.03818
1.05271
1.07177
1.07686
1.06934
1.05247
1.03722
1.02952
1.02772
1.02495
1.02442
1.02503
1.02271
1.01539
1.00231
0.985499
0.97792
0.974287
0.970952
0.968417
0.969604
0.971094
0.968576
0.962602
0.953255
0.942309
0.933327
0.927525
0.923022
0.918242
0.913793
0.911323
0.909749
0.907664
0.905129
0.901661
0.896431
0.889997
0.881584
0.870336
0.856719
0.844161
0.835642
0.830027
0.826705
0.826355
0.828387
0.835125
0.848547
0.859318
0.861033
0.860114
0.857317
0.849032
0.828697
0.808048
0.801919
0.803125
0.807197
0.815508
0.835239
0.864052
0.884908
0.89257
0.894594
0.891033
0.876216
0.864537
0.862439
0.864015
0.869126
0.878484
0.888963
0.89598
0.900487
0.902795
0.904143
0.903769
0.902865
0.901573
0.901555
0.903178
0.906978
0.911536
0.921004
5.40738
4.80114
4.28125
3.79482
3.32668
2.97179
2.65342
2.36447
2.1019
1.9273
1.7538
1.59519
1.45651
1.3714
1.28579
1.1935
1.1027
1.05361
1.00482
0.942058
0.891458
0.857758
0.818573
0.762439
0.7438
0.732281
0.7126
0.703395
0.708703
0.711424
0.709573
0.714879
0.739493
0.782952
0.852065
0.928395
0.982354
1.02558
1.05922
1.06096
1.04939
1.03037
1.02469
1.02068
1.01908
1.02422
1.02446
1.0205
1.01093
0.996879
0.982416
0.969188
0.962936
0.959546
0.958431
0.963729
0.972601
0.974714
0.971147
0.962227
0.948217
0.935449
0.92685
0.91943
0.91137
0.90779
0.909164
0.910795
0.912055
0.912528
0.910356
0.902441
0.889873
0.875376
0.86106
0.849576
0.842594
0.839237
0.837285
0.836003
0.8363
0.84031
0.846289
0.84765
0.847131
0.846867
0.845305
0.839923
0.826347
0.813036
0.803615
0.803766
0.810201
0.822085
0.844239
0.878007
0.905651
0.920061
0.928487
0.932507
0.926165
0.913884
0.909221
0.909791
0.914703
0.929872
0.953243
0.969408
0.973661
0.973393
0.96888
0.960607
0.947952
0.934153
0.923188
0.917519
0.914511
0.914302
0.917783
0.927329
5.52377
4.97836
4.49166
4.01376
3.56924
3.22646
2.9258
2.5997
2.3404
2.15468
1.97417
1.79445
1.64459
1.54474
1.44229
1.34221
1.25397
1.19646
1.1371
1.05701
1.00086
0.964923
0.925147
0.868123
0.839246
0.819764
0.788892
0.748444
0.739885
0.732221
0.71086
0.69543
0.696729
0.7047
0.724482
0.767711
0.828338
0.890888
0.946611
0.994434
1.00636
1.0112
1.01699
1.01751
1.01415
1.00846
1.00685
1.00675
1.00216
0.992447
0.982158
0.969812
0.961809
0.957677
0.955757
0.961375
0.968684
0.968159
0.964601
0.95755
0.945809
0.934969
0.928016
0.920872
0.912304
0.910934
0.912903
0.914238
0.914619
0.91326
0.908866
0.900743
0.885881
0.866856
0.85231
0.846585
0.844377
0.843172
0.844437
0.846439
0.845282
0.843273
0.841179
0.839722
0.834102
0.829403
0.825637
0.823447
0.827099
0.835618
0.850583
0.873555
0.90719
0.953312
1.00916
1.06155
1.10537
1.14015
1.16139
1.17493
1.18687
1.19433
1.19854
1.20338
1.21387
1.23497
1.25699
1.27218
1.274
1.2666
1.25101
1.22637
1.19225
1.15197
1.11186
1.08239
1.06241
1.04711
1.03402
1.0097
5.6193
5.115
4.6559
4.21338
3.79235
3.44061
3.13691
2.82604
2.58146
2.37704
2.17858
1.95959
1.82527
1.72173
1.61288
1.49005
1.39607
1.32944
1.25985
1.17853
1.11775
1.07393
1.02385
0.96011
0.925068
0.898906
0.864463
0.814524
0.787875
0.769193
0.740652
0.709897
0.705131
0.708318
0.71281
0.713017
0.721364
0.748467
0.783889
0.832617
0.88711
0.929088
0.967203
0.998133
1.0024
0.991196
0.990155
0.992181
0.991294
0.984835
0.976672
0.970873
0.966541
0.963881
0.965938
0.968731
0.965086
0.960232
0.956726
0.949249
0.935804
0.931023
0.928382
0.924523
0.918993
0.914642
0.914884
0.914977
0.912657
0.908371
0.902018
0.893708
0.883334
0.868814
0.856019
0.850233
0.84866
0.848613
0.848598
0.847525
0.846633
0.844602
0.840201
0.838557
0.850247
0.870901
0.897759
0.932485
0.981778
1.04398
1.11413
1.19037
1.2653
1.33283
1.3909
1.44021
1.48542
1.51487
1.52484
1.52829
1.53412
1.54348
1.55104
1.56025
1.57094
1.57712
1.57459
1.57116
1.57644
1.57686
1.56375
1.54412
1.52105
1.48877
1.44521
1.41561
1.40063
1.3806
1.35389
1.29855
5.69546
5.23303
4.8142
4.39063
3.97662
3.64856
3.34215
3.0195
2.77491
2.57517
2.37027
2.14964
2.00547
1.88012
1.76063
1.63675
1.55033
1.47385
1.38917
1.28357
1.22289
1.17747
1.1273
1.06463
1.02872
0.998858
0.959136
0.901211
0.867505
0.844742
0.815804
0.77079
0.751368
0.750575
0.739946
0.72194
0.712954
0.710446
0.712337
0.718831
0.745453
0.792515
0.849943
0.907038
0.948182
0.960051
0.969644
0.978252
0.977051
0.96866
0.961067
0.960646
0.963367
0.971942
0.977857
0.976619
0.970777
0.959535
0.947459
0.935209
0.928123
0.927244
0.927032
0.926404
0.925097
0.92198
0.916145
0.909983
0.903673
0.897018
0.890971
0.885415
0.881239
0.876423
0.870241
0.863286
0.858662
0.856757
0.856561
0.861592
0.875469
0.902575
0.948601
1.01246
1.09465
1.1837
1.2727
1.36039
1.43911
1.4944
1.53362
1.56504
1.59658
1.62015
1.63517
1.64787
1.66117
1.67921
1.68804
1.68807
1.68907
1.69712
1.69768
1.69496
1.69243
1.68494
1.67298
1.66237
1.66359
1.67603
1.67466
1.66483
1.6566
1.64166
1.62392
1.61405
1.61268
1.61253
1.60381
1.56718
5.76109
5.33096
4.93641
4.54172
4.15177
3.82612
3.52105
3.20701
2.96701
2.76176
2.53491
2.31762
2.18589
2.05239
1.91317
1.77282
1.68994
1.6022
1.50982
1.40668
1.33568
1.28196
1.22041
1.15253
1.11791
1.08644
1.04531
0.984554
0.943815
0.91442
0.882267
0.833062
0.802454
0.795205
0.778643
0.75083
0.721563
0.718279
0.717024
0.713731
0.712311
0.719846
0.742668
0.777583
0.816317
0.848934
0.873424
0.904866
0.926965
0.926311
0.927769
0.935363
0.950308
0.969365
0.978798
0.979108
0.976025
0.964498
0.943434
0.927888
0.925185
0.925666
0.927668
0.928025
0.927536
0.926097
0.918427
0.904546
0.893348
0.887047
0.883757
0.883306
0.888396
0.89088
0.892352
0.899861
0.913281
0.938844
0.981171
1.04464
1.12929
1.23244
1.34053
1.43937
1.52699
1.59606
1.66046
1.72098
1.7484
1.74919
1.73758
1.71139
1.68532
1.67434
1.66842
1.667
1.67821
1.70208
1.71529
1.7149
1.7131
1.70832
1.69489
1.681
1.67109
1.66077
1.6499
1.6427
1.64656
1.66212
1.67145
1.66814
1.66006
1.65265
1.64776
1.64349
1.63993
1.64164
1.65145
1.63998
5.80482
5.40094
5.02872
4.66505
4.30486
3.98958
3.68637
3.37761
3.12896
2.92149
2.6968
2.49476
2.35026
2.21009
2.04405
1.90773
1.82768
1.73361
1.62444
1.51117
1.44983
1.38689
1.32059
1.25089
1.20938
1.17136
1.122
1.05485
1.01655
0.99051
0.960533
0.91462
0.88166
0.870311
0.850432
0.815839
0.769123
0.75932
0.751134
0.73272
0.718054
0.718089
0.719833
0.719437
0.719473
0.727807
0.745692
0.77602
0.814231
0.857756
0.88206
0.902523
0.928198
0.955509
0.96445
0.965431
0.964577
0.957049
0.94224
0.928953
0.925364
0.9257
0.928769
0.929344
0.926148
0.922358
0.914517
0.899407
0.886655
0.884791
0.886474
0.898709
0.928125
0.972593
1.0402
1.13354
1.23921
1.34284
1.43882
1.52279
1.59334
1.65396
1.69972
1.73112
1.75149
1.76909
1.78688
1.79525
1.78955
1.77672
1.75324
1.71412
1.67452
1.65631
1.6487
1.64872
1.66491
1.68265
1.68518
1.67856
1.6719
1.66125
1.64232
1.62404
1.61167
1.60395
1.60438
1.60833
1.61541
1.62512
1.62901
1.62119
1.61236
1.61109
1.61022
1.60557
1.59776
1.59612
1.61043
1.6202
5.85811
5.47524
5.11714
4.7794
4.4436
4.13831
3.8445
3.54917
3.30189
3.08647
2.84496
2.64995
2.507
2.36906
2.19521
2.047
1.94898
1.84911
1.7377
1.63017
1.56246
1.49353
1.41223
1.3346
1.29916
1.25957
1.20594
1.13124
1.08513
1.05485
1.02266
0.976913
0.948674
0.938013
0.91848
0.883514
0.8323
0.809603
0.794086
0.769587
0.735908
0.722573
0.723347
0.720092
0.711873
0.707984
0.706167
0.710115
0.719491
0.740061
0.774059
0.815029
0.861677
0.899254
0.912631
0.919777
0.933065
0.937948
0.934172
0.925464
0.92227
0.923112
0.925742
0.925727
0.920673
0.914891
0.909385
0.902968
0.909
0.931367
0.982732
1.07721
1.20605
1.35737
1.5052
1.62573
1.71744
1.77988
1.81917
1.83525
1.83651
1.82896
1.82208
1.81232
1.78967
1.76884
1.7581
1.75528
1.75184
1.73424
1.71342
1.6838
1.64915
1.63312
1.62463
1.61321
1.60098
1.60177
1.60372
1.60098
1.59854
1.59781
1.58783
1.57378
1.56991
1.58014
1.58216
1.57449
1.5624
1.56041
1.57198
1.57208
1.56461
1.55786
1.55242
1.54707
1.54171
1.53853
1.55148
1.57635
5.90407
5.54447
5.20351
4.87907
4.55849
4.26167
3.98317
3.70211
3.44985
3.23306
3.01211
2.81082
2.65313
2.50881
2.33308
2.18964
2.07927
1.97204
1.84935
1.74952
1.67944
1.60482
1.52055
1.42909
1.38059
1.33525
1.2786
1.21103
1.17101
1.13871
1.10229
1.04433
1.01091
1.00182
0.981414
0.946335
0.89808
0.873909
0.85746
0.832803
0.791243
0.767262
0.764569
0.754966
0.734343
0.716013
0.706087
0.701329
0.693325
0.687366
0.690545
0.705606
0.739275
0.782085
0.821524
0.844345
0.867585
0.89085
0.903712
0.910072
0.913755
0.917543
0.917494
0.91916
0.916061
0.915831
0.934029
0.992877
1.10999
1.26381
1.43945
1.61749
1.74322
1.83491
1.89654
1.90861
1.90911
1.92636
1.93838
1.92384
1.89563
1.86393
1.83201
1.79385
1.7493
1.71022
1.69336
1.69013
1.68716
1.67989
1.67102
1.65641
1.62613
1.57858
1.55003
1.53917
1.53132
1.53083
1.54252
1.55143
1.55731
1.55972
1.56282
1.56112
1.54592
1.52742
1.51279
1.50381
1.50377
1.508
1.52542
1.54104
1.53624
1.52197
1.50922
1.49827
1.48841
1.48459
1.49965
1.52925
5.97032
5.62702
5.29431
4.98055
4.67919
4.3834
4.10103
3.84638
3.60939
3.37595
3.15534
2.96026
2.78954
2.63853
2.47887
2.32875
2.20041
2.08591
1.96248
1.87086
1.7927
1.71179
1.62293
1.52885
1.47449
1.41933
1.35336
1.28083
1.24737
1.21958
1.18292
1.12082
1.08433
1.06896
1.04241
1.00182
0.950663
0.929465
0.913172
0.88752
0.847809
0.820623
0.813652
0.799807
0.772201
0.73917
0.713395
0.705478
0.697767
0.685006
0.682475
0.685847
0.69262
0.701946
0.709887
0.723015
0.745275
0.780631
0.815361
0.846245
0.880386
0.906064
0.926357
0.943498
0.985355
1.08576
1.23962
1.45393
1.64884
1.80613
1.93187
1.98321
2.01847
2.01846
1.99311
1.96099
1.94711
1.95181
1.94398
1.90959
1.8734
1.83971
1.78834
1.71776
1.66504
1.64396
1.63419
1.63514
1.64525
1.64597
1.63441
1.61663
1.58204
1.52448
1.49282
1.48497
1.48103
1.48024
1.49292
1.52425
1.54334
1.54388
1.53362
1.51491
1.49071
1.47424
1.46293
1.4536
1.45472
1.47839
1.5164
1.53026
1.51618
1.49344
1.47428
1.46242
1.45263
1.44617
1.45811
1.49948
5.99255
5.66871
5.35292
5.05183
4.76196
4.47903
4.2016
3.95199
3.72231
3.49607
3.29197
3.10877
2.9291
2.75082
2.59969
2.46251
2.32611
2.19964
2.07416
1.98249
1.89897
1.8205
1.72859
1.63122
1.56402
1.50166
1.43598
1.36688
1.33172
1.29851
1.25519
1.18809
1.15384
1.13678
1.10685
1.06148
1.00758
0.988188
0.971331
0.944413
0.903898
0.874319
0.868363
0.855592
0.827276
0.787492
0.752105
0.741542
0.733307
0.715065
0.698596
0.696832
0.698065
0.693124
0.6794
0.666411
0.666294
0.676165
0.704285
0.748998
0.805538
0.878696
0.976156
1.14213
1.37078
1.61319
1.79901
1.933
2.02678
2.05873
2.07681
2.06476
2.05149
2.01693
1.95874
1.93314
1.928
1.92722
1.90426
1.87957
1.8493
1.79585
1.72232
1.65048
1.61099
1.60019
1.59391
1.59458
1.60226
1.59413
1.57981
1.56403
1.53422
1.48421
1.45099
1.44053
1.43777
1.44806
1.47919
1.49867
1.5013
1.49485
1.48355
1.46581
1.44374
1.42912
1.41982
1.41809
1.43689
1.4764
1.49093
1.47604
1.45787
1.44375
1.43475
1.42432
1.41336
1.41169
1.43296
1.45178
6.06195
5.74477
5.44222
5.14708
4.85657
4.57634
4.31869
4.07314
3.83815
3.61749
3.41668
3.22255
3.0389
2.86609
2.72393
2.58357
2.44703
2.30923
2.18521
2.09023
1.9955
1.9119
1.82487
1.73765
1.6621
1.58873
1.5142
1.4471
1.41461
1.38263
1.33747
1.26505
1.22523
1.20082
1.16498
1.11624
1.06341
1.04634
1.02984
1.00208
0.959803
0.924163
0.915768
0.901298
0.870807
0.829945
0.792743
0.780064
0.771065
0.753166
0.726598
0.718092
0.715286
0.704696
0.683747
0.664643
0.658791
0.659655
0.670114
0.707488
0.817273
1.00669
1.27272
1.52903
1.74975
1.85649
1.94997
2.02101
2.04192
2.05879
2.06584
2.05598
2.03078
1.99968
1.94882
1.9091
1.87783
1.84986
1.8236
1.79896
1.76817
1.72284
1.66458
1.60476
1.5776
1.56701
1.56604
1.56917
1.55768
1.545
1.53397
1.52098
1.50019
1.46515
1.43158
1.41685
1.41252
1.42059
1.43736
1.44527
1.4426
1.44428
1.44015
1.42488
1.40584
1.39502
1.39589
1.41294
1.4475
1.46557
1.45178
1.43201
1.41445
1.40174
1.39177
1.38312
1.38466
1.40754
1.43284
1.41519
6.14252
5.83847
5.54871
5.25214
4.95879
4.68988
4.43635
4.19082
3.9546
3.74466
3.5478
3.35682
3.16754
2.99213
2.84129
2.69372
2.56753
2.43734
2.31358
2.19893
2.09582
2.0021
1.90486
1.8339
1.75459
1.67752
1.60697
1.53259
1.49296
1.45306
1.40239
1.33818
1.29928
1.27021
1.23067
1.17436
1.1175
1.10151
1.08485
1.05576
1.01475
0.977946
0.968418
0.952894
0.92112
0.87812
0.841772
0.831342
0.821789
0.80436
0.775819
0.762749
0.756336
0.741064
0.714563
0.690856
0.697166
0.733105
0.848278
1.03484
1.26025
1.46518
1.60839
1.70232
1.7338
1.76416
1.81269
1.87529
1.89539
1.89524
1.91145
1.90082
1.88421
1.87706
1.846
1.80618
1.79902
1.79348
1.77244
1.74667
1.71371
1.66694
1.62009
1.59074
1.57355
1.55703
1.54061
1.52612
1.51307
1.50254
1.49313
1.48466
1.47497
1.45855
1.42949
1.4064
1.39866
1.39382
1.38842
1.38662
1.38757
1.39101
1.40015
1.39767
1.38567
1.38145
1.39461
1.41632
1.41898
1.4079
1.39399
1.38219
1.37232
1.36311
1.35433
1.35595
1.38039
1.40368
1.39363
1.3693
6.2334
5.90955
5.62626
5.33766
5.05299
4.8012
4.55614
4.30959
4.08121
3.88114
3.67557
3.46985
3.27263
3.12011
2.96652
2.81718
2.67421
2.54778
2.42301
2.30542
2.20839
2.09296
1.99277
1.91856
1.83801
1.76891
1.68819
1.62131
1.58366
1.53691
1.48007
1.4053
1.36456
1.3355
1.29445
1.24066
1.18631
1.16521
1.14228
1.10835
1.06033
1.01938
1.01184
0.999563
0.969428
0.926485
0.891216
0.880488
0.869242
0.848518
0.817983
0.800477
0.792547
0.780062
0.769404
0.803055
0.917761
1.12757
1.37548
1.59013
1.67337
1.72701
1.74738
1.7189
1.69441
1.67001
1.66333
1.65783
1.62878
1.59205
1.57874
1.5904
1.61531
1.66783
1.69184
1.69639
1.71266
1.7377
1.73657
1.71911
1.68048
1.63938
1.62299
1.60831
1.58233
1.54855
1.51434
1.49498
1.48193
1.47095
1.46263
1.45602
1.44935
1.43914
1.41851
1.38027
1.35208
1.34231
1.33539
1.32967
1.32767
1.33527
1.35391
1.36971
1.38264
1.3919
1.39019
1.37931
1.36675
1.35351
1.34141
1.33408
1.33155
1.33131
1.34128
1.36539
1.37938
1.36838
1.34985
1.32377
6.32751
6.02641
5.71499
5.4329
5.16536
4.90877
4.6561
4.40678
4.19613
3.9974
3.7994
3.59615
3.41699
3.2477
3.07168
2.90871
2.7785
2.66953
2.5422
2.40956
2.29841
2.19103
2.09262
2.00364
1.92294
1.8596
1.77592
1.71119
1.66613
1.61162
1.55341
1.48426
1.43838
1.40119
1.35275
1.29465
1.24622
1.22817
1.20488
1.17095
1.12272
1.06786
1.05325
1.04059
1.01139
0.970564
0.939989
0.931779
0.920364
0.898765
0.867863
0.851686
0.865118
0.930666
1.06533
1.31775
1.55716
1.80303
1.90939
1.89978
1.86275
1.83225
1.78032
1.70202
1.65989
1.64259
1.61154
1.56494
1.51858
1.47008
1.42562
1.41138
1.41344
1.44596
1.50562
1.55464
1.58225
1.62452
1.64514
1.63252
1.62432
1.62516
1.61776
1.59597
1.57451
1.54051
1.50237
1.47415
1.4544
1.44005
1.43081
1.42522
1.41867
1.40833
1.39103
1.35955
1.31806
1.29774
1.28971
1.28303
1.27941
1.28815
1.31808
1.36074
1.37224
1.36298
1.34289
1.32825
1.3194
1.30747
1.29469
1.28992
1.2962
1.31691
1.347
1.35394
1.34303
1.32744
1.30888
1.28785
6.01271
6.09692
5.82673
5.51583
5.26815
5.02446
4.767
4.5235
4.31897
4.10807
3.89051
3.68602
3.53394
3.37267
3.20552
3.0346
2.8845
2.76645
2.64131
2.51848
2.3924
2.28734
2.19478
2.09123
2.01595
1.95179
1.86295
1.80412
1.74789
1.6872
1.62181
1.54612
1.50962
1.46988
1.41956
1.36219
1.3071
1.28512
1.26006
1.22255
1.17732
1.12465
1.10346
1.08657
1.0565
1.01245
0.982199
0.974864
0.968914
0.95644
0.962735
1.02371
1.20278
1.46949
1.74474
1.97769
2.09346
2.141
2.10673
2.03172
1.93118
1.84538
1.77507
1.71125
1.66298
1.62464
1.58052
1.53049
1.48738
1.44437
1.40098
1.37857
1.36806
1.36492
1.36455
1.36299
1.3705
1.38634
1.41341
1.45671
1.50391
1.54549
1.54598
1.54425
1.53623
1.51243
1.48221
1.45121
1.43044
1.41525
1.40233
1.39595
1.38933
1.37296
1.3528
1.32762
1.29416
1.26547
1.25356
1.24694
1.24511
1.26349
1.29997
1.31377
1.31308
1.30371
1.28885
1.2753
1.27269
1.26877
1.25955
1.2583
1.28129
1.32516
1.34045
1.33206
1.31443
1.2903
1.27236
1.25918
4.72149
5.94864
5.92438
5.62534
5.34832
5.1084
4.85981
4.64039
4.43865
4.22631
3.99343
3.80036
3.64159
3.46534
3.29648
3.13704
3.01723
2.88424
2.74302
2.60059
2.47544
2.39408
2.29938
2.19643
2.10805
2.02916
1.95905
1.89378
1.82333
1.76188
1.69079
1.61702
1.58126
1.53749
1.48594
1.42611
1.37462
1.35315
1.32282
1.27968
1.2292
1.17213
1.15013
1.13349
1.1048
1.06321
1.03442
1.03359
1.05976
1.15956
1.36528
1.67733
1.99999
2.15621
2.27179
2.31492
2.29236
2.2389
2.15655
2.03662
1.90884
1.84054
1.79898
1.75346
1.69799
1.64332
1.58862
1.55078
1.5225
1.48803
1.44606
1.39676
1.3667
1.35076
1.338
1.32942
1.31548
1.29597
1.28356
1.28511
1.30527
1.35424
1.3977
1.41545
1.42466
1.42914
1.41767
1.40682
1.40277
1.40396
1.39336
1.36908
1.34556
1.32875
1.30986
1.28728
1.26734
1.24593
1.23441
1.22973
1.23545
1.25674
1.26317
1.25404
1.24884
1.24544
1.23795
1.22794
1.22648
1.23125
1.23642
1.25252
1.28574
1.30126
1.29899
1.28935
1.27924
1.25715
1.23687
1.22227
2.21801
4.91098
5.82609
5.76339
5.48817
5.19495
4.94143
4.7442
4.54289
4.32785
4.09403
3.92201
3.75084
3.57628
3.39667
3.24368
3.1213
2.97746
2.84266
2.70155
2.59133
2.50049
2.39429
2.29933
2.20932