/*--------------------------------*- C++ -*----------------------------------*\
  =========                 |
  \\      /  F ield         | OpenFOAM: The Open Source CFD Toolbox
   \\    /   O peration     | Website:  https://openfoam.org
    \\  /    A nd           | Version:  7
     \\/     M anipulation  |
\*---------------------------------------------------------------------------*/
FoamFile
{
    version     2.0;
    format      ascii;
    class       volScalarField;
    location    "1";
    object      T;
}
// * * * * * * * * * * * * * * * * * * * * * * * * * * * * * * * * * * * * * //

dimensions      [0 0 0 1 0 0 0];

internalField   nonuniform List<scalar> 
6300
(
1
1
1
1
1
1
1
1
1
1
1
1
1
1
1
1
1.55061
2.62801
2.74348
2.76559
2.79263
2.82108
2.84576
2.86101
2.8685
2.87886
2.90436
2.95292
3.0154
3.04976
1
1
1
1
1
1
1
1
1
1
1
1
1
1
1
1
1.5303
2.61743
2.74158
2.7639
2.7916
2.82037
2.84499
2.85977
2.86672
2.87693
2.90227
2.95068
3.01284
3.04699
1
1
1
1
1
1
1
1
1
1
1
1
1
1
1
1
1.47871
2.5923
2.73552
2.76
2.78994
2.81943
2.84387
2.85796
2.8644
2.87458
2.89982
2.94836
3.00982
3.04339
1
1
1
1
1
1
1
1
1
1
1
1
1
1
1
1
1.39538
2.54333
2.72367
2.75368
2.78775
2.81767
2.84143
2.85451
2.86039
2.8703
2.89533
2.94432
3.00524
3.03816
1
1
1
1
1
1
1
1
1
1
1
1
1
1
1
1
1.2586
2.46034
2.71365
2.74926
2.78638
2.81518
2.83678
2.84805
2.85322
2.8628
2.88765
2.93722
2.99817
3.03098
1
1
1
1
1
1
1
1
1
1
1
1
1
1
1
1
1.07108
2.34897
2.70893
2.75092
2.78593
2.81068
2.82809
2.83726
2.84245
2.85256
2.87756
2.92691
2.98736
3.01934
1
1
1
1
1
1
1
1
1
1
1
1
1
1
1
1
1.00157
2.23545
2.70028
2.7489
2.78009
2.80105
2.81462
2.82209
2.82756
2.83767
2.8613
2.90958
2.96967
3.00307
1
1
1
1
1
1
1
1
1
1
1
1
1
1
1
1
1
2.08377
2.69135
2.7466
2.76885
2.78505
2.79549
2.80241
2.80887
2.81969
2.84256
2.88932
2.94658
2.97297
1
1
1
1
1
1
1
1
1
1
1
1
1
1
1
1
1
1.88562
2.65612
2.73215
2.75055
2.76434
2.77358
2.78088
2.78787
2.79796
2.81558
2.85305
2.90533
2.9319
1
1
1
1
1
1
1
1
1
1
1
1
1
1
1
1
1
1.60054
2.55698
2.70561
2.72454
2.73886
2.74792
2.75534
2.76085
2.76795
2.78076
2.81155
2.8657
2.91654
1
1
1
1
1
1
1
1
1
1
1
1
1
1
1
1
1
1.22227
2.41491
2.69504
2.70613
2.71341
2.72046
2.72643
2.73141
2.73646
2.74133
2.74848
2.73876
2.67339
1
1
1
1
1
1
1
1
1
1
1
1
1
1
1
1
1
1.01215
2.26247
2.65508
2.6698
2.67968
2.68839
2.69336
2.69769
2.70035
2.69676
2.67943
2.64517
2.50699
1
1
1
1
1
1
1
1
1
1
1
1
1
1
1
1
1
1.00003
2.01775
2.61676
2.65187
2.66115
2.66908
2.66932
2.66894
2.66517
2.65343
2.62194
2.56789
2.39843
1
1
1
1
1
1
1
1
1
1
1
1
1
1
1
1
1
1
1.61145
2.50111
2.6324
2.63873
2.64529
2.64404
2.64077
2.63246
2.6144
2.57828
2.50371
2.3554
1
1
1
1
1
1
1
1
1
1
1
1
1
1
1
1
1
1
1.09951
2.31297
2.607
2.60947
2.61756
2.6165
2.6117
2.59947
2.57968
2.53821
2.46232
2.34332
1
1
1
1
1
1
1
1
1
1
1
1
1
1
1
1
1
1
1.00238
2.05334
2.54419
2.59101
2.5963
2.59367
2.5858
2.56957
2.54741
2.50299
2.43442
2.34175
1
1
1
1
1
1
1
1
1
1
1
1
1
1
1
1
1
1
0.999995
1.53736
2.41144
2.57203
2.56855
2.56513
2.55483
2.53693
2.51171
2.47026
2.41041
2.33529
1
1
1
1
1
1
1
1
1
1
1
1
1
1
1
1
1
1
0.999999
1.06744
2.22624
2.53619
2.52688
2.53028
2.52361
2.50726
2.48033
2.44145
2.38917
2.32811
1
1
1
1
1
1
1
1
1
1
1
1
1
1
1
1
1
1
1
1.00082
1.82803
2.44297
2.50799
2.50412
2.49689
2.48118
2.45414
2.41587
2.36841
2.31668
1
1
1
1
1
1
1
1
1
1
1
1
1
1
1
1
1
1
1
0.999999
1.18687
2.25454
2.48581
2.47365
2.46585
2.4514
2.4273
2.39226
2.3496
2.30392
1
1
1
1
1
1
1
1
1
1
1
1
1
1
1
1
1
1
1
1
1.00693
1.92882
2.40132
2.44319
2.43499
2.42161
2.39924
2.36795
2.33036
2.28996
1
1
1
1
1
1
1
1
1
1
1
1
1
1
1
1
1
1
1
1
1.00001
1.27419
2.21672
2.41942
2.40472
2.39093
2.36994
2.34205
2.30927
2.27425
1
1
1
1
1
1
1
1
1
1
1
1
1
1
1
1
1
1
1
1
1
1.01519
1.87801
2.33535
2.37354
2.35793
2.33912
2.31527
2.28758
2.25748
1
1
1
1
1
1
1
1
1
1
1
1
1
1
1
1
1
1
1
1
1
1.00006
1.25117
2.13942
2.35284
2.33163
2.3144
2.29192
2.26598
2.23825
1
1
1
1
1
1
1
1
1
1
1
1
1
1
1
1
1
1
1
1
1
1
1.01199
1.69248
2.23284
2.30911
2.28462
2.26489
2.24305
2.21911
1
1
1
1
1
1
1
1
1
1
1
1
1
1
1
1
1
1
1
1
1
1
1.00006
1.13954
2.00095
2.28513
2.26507
2.24471
2.22253
2.19966
1
1
1
1
1
1
1
1
1
1
1
1
1
1
1
1
1
1
1
1
1
1
1
1.00357
1.44981
2.12161
2.24715
2.21907
2.20114
2.18113
1
1
1
1
1
1
1
1
1
1
1
1
1
1
1
1
1
1
1
1
1
1
1
1.00001
1.04708
1.7491
2.15633
2.20529
2.18021
2.15927
1
1
1
1
1
1
1
1
1
1
1
1
1
1
1
1
1
1
1
1
1
1
1
1
1.00059
1.19165
1.9145
2.17667
2.16431
2.1437
1
1
1
1
1
1
1
1
1
1
1
1
1
1
1
1
1
1
1
1
1
1
1
1
1
1.00719
1.39598
2.00061
2.14225
2.12664
1
1
1
1
1
1
1
1
1
1
1
1
1
1
1
1
1
1
1
1
1
1
1
1
1
1.00004
1.03758
1.57636
2.02506
2.11145
1
1
1
1
1
1
1
1
1
1
1
1
1
1
1
1
1
1
1
1
1
1
1
1
1
1
1.00048
1.10318
1.7071
2.02264
1
1
1
1
1
1
1
1
1
1
1
1
1
1
1
1
1
1
1
1
1
1
1
1
1
1
1
1.00251
1.19995
1.7866
1
1
1
1
1
1
1
1
1
1
1
1
1
1
1
1
1
1
1
1
1
1
1
1
1
1
1
1.00001
1.00875
1.30186
1
1
1
1
1
1
1
1
1
1
1
1
1
1
1
1
1
1
1
1
1
1
1
1
1
1
1
1
1.00006
1.02164
1
1
1
1
1
1
1
1
1
1
1
1
1
1
1
1
1
1
1
1
1
1
1
1
1
1
1
1
1
1.00022
1
1
1
1
1
1
1
1
1
1
1
1
1
1
1
1
1
1
1
1
1
1
1
1
1
1
1
1
1
1
1
1
1
1
1
1
1
1
1
1
1
1
1
1
1
1
1
1
1
1
1
1
1
1
1
1
1
1
1
1
1
1
1
1
1
1
1
1
1
1
1
1
1
1
1
1
1
1
1
1
1
1
1
1
1
1
1
1
1
1
1
1
1
1
1
1
1
1
1
1
1
1
1
1
1
1
1
1
1
1
1
1
1
1
1
1
1
1
1
1
1
1
1
1
1
1
1
1
1
1
1
1
1
1
1
1
1
1
1
1
1
1
1
1
1
1
1
1
1
1
1
1
1
1
1
1
1
1
1
1
1
1
1
1
1
1
1
1
1
1
1
1
1
1
1
1
1
1
1
1
1
1
1
1
1
1
1
1
1
1
1
1
1
1
1
1
1
1
1
1
1
1
1
1
1
1
1
1
1
1
1
1
1
1
1
1
1
1
1
1
1
1
1
1
1
1
1
1
1
1
1
1
1
1
1
1
1
1
1
1
1
1
1
1
1
1
1
1
1
1
1
1
1
1
1
1
1
1
1
1
1
1
1
1
1
1
1
1
1
1
1
1
1
1
1
1
1
1
1
1
1
1
1
1
1
1
1
1
1
1
1
1
1
1
1
1
1
1
1
1
1
1
1
1
1
1
1
1
1
1
1
1
1
1
1
1
1
1
1
1
1
1
1
1
1
1
1
1
1
1
1
1
1
1
1
1
1
1
1
1
1
1
1
1
1
1
1
1
1
1
1
1
1
1
1
1
1
1
1
1
1
1
1
1
1
1
1
1
1
1
1
1
1
1
1
1
1
1
1
1
1
1
1
1
1
1
1
1
1
1
1
1
1
1
1
1
1
1
1
1
1
1
1
1
1
1
1
1
1
1
1
1
1
1
1
1
1
1
1
1
1.79005
1.14364
0.864734
0.999416
1.23233
1.38549
1.49568
1.56426
1.58667
1.60469
1.63799
1.72497
1.82332
1.83943
1.84324
1.84937
1.8525
1.86748
1.87232
1.87214
1.86323
1.85405
1.85586
1.8609
1.8599
1.85164
1.83598
1.82924
1.83054
1.83905
1.84947
1.85428
1.85524
1.85366
1.84501
1.83185
1.82377
1.82269
1.82404
1.82507
1.82482
1.82321
1.81914
1.81799
1.81852
1.82069
1.8235
1.82403
1.82489
1.82481
1.82331
1.81985
1.81741
1.81745
1.81832
1.81842
1.81741
1.81461
1.80898
1.79998
1.78985
1.78074
1.77515
1.77425
1.77485
1.77695
1.78043
1.78359
1.7845
1.78321
1.77908
1.77821
1.78281
1.79319
1.80596
1.8201
1.82526
1.82647
1.82413
1.81172
1.80501
1.80504
1.80631
1.80932
1.81449
1.81883
1.82111
1.82131
1.81838
1.81866
1.82327
1.83069
1.84136
1.84913
1.85345
1.85565
1.85518
1.84987
1.84924
1.8482
1.84765
1.84927
1.85104
1.85289
1.85432
1.85395
1.85368
1.85668
1.86003
1.8628
1.86646
1.86813
1.86724
1.86363
1.85781
1.85128
1.846
1.84069
1.83458
1.81688
2.0451
1.75266
1.47584
1.35159
1.37521
1.38135
1.3816
1.35918
1.32973
1.33937
1.38407
1.44526
1.50546
1.5618
1.60044
1.62248
1.65401
1.69534
1.72736
1.74694
1.76119
1.7676
1.77601
1.78825
1.78717
1.7822
1.77709
1.77849
1.78349
1.79438
1.8012
1.80313
1.8051
1.80479
1.79875
1.78843
1.78143
1.77985
1.7799
1.78149
1.78375
1.78364
1.78158
1.78063
1.78119
1.78374
1.78902
1.7943
1.79774
1.79772
1.79578
1.79156
1.78717
1.78461
1.78442
1.78456
1.78474
1.78401
1.78138
1.7768
1.76965
1.76087
1.75495
1.75253
1.75239
1.75399
1.75798
1.76355
1.76954
1.77316
1.7733
1.77062
1.76972
1.77435
1.7847
1.79493
1.8012
1.80408
1.80447
1.80209
1.79702
1.79453
1.7942
1.79491
1.79756
1.80039
1.803
1.80547
1.80634
1.81008
1.81602
1.82373
1.83332
1.84002
1.84429
1.84642
1.84482
1.83689
1.83596
1.83567
1.83644
1.84178
1.84718
1.84976
1.85173
1.8525
1.85163
1.85082
1.85237
1.85539
1.85779
1.85913
1.85936
1.85817
1.85453
1.8498
1.84465
1.83817
1.83124
1.8136
2.11115
1.92548
1.76314
1.61691
1.54469
1.46857
1.40042
1.35557
1.29441
1.26795
1.29063
1.32478
1.33608
1.3567
1.38467
1.40704
1.43819
1.48653
1.5283
1.56531
1.60659
1.63827
1.66039
1.67774
1.67958
1.67806
1.67714
1.67903
1.68811
1.69768
1.69745
1.69511
1.69624
1.69778
1.6961
1.69076
1.68642
1.68563
1.68616
1.68898
1.69405
1.69823
1.69946
1.69941
1.69892
1.69937
1.70246
1.70956
1.71745
1.71898
1.71831
1.71597
1.71297
1.71049
1.70801
1.70643
1.70538
1.70409
1.70248
1.70102
1.69745
1.69378
1.69126
1.68844
1.68624
1.68615
1.68824
1.69437
1.70386
1.71441
1.72401
1.73083
1.73444
1.73572
1.73563
1.73541
1.73795
1.74339
1.74881
1.7528
1.75678
1.7609
1.76312
1.76341
1.76214
1.75878
1.7565
1.7563
1.76035
1.76851
1.77854
1.7904
1.80333
1.81327
1.81919
1.82197
1.81934
1.80738
1.80218
1.8025
1.80269
1.80699
1.81699
1.82427
1.82862
1.83231
1.8357
1.8372
1.83659
1.83468
1.83519
1.83641
1.83553
1.83349
1.83161
1.82956
1.82726
1.82436
1.81913
1.80417
2.16746
2.01256
1.88096
1.77497
1.67987
1.58993
1.50956
1.46394
1.40703
1.35152
1.33823
1.31885
1.29095
1.29149
1.29481
1.2962
1.30285
1.33015
1.3754
1.42086
1.46452
1.50329
1.52711
1.5403
1.55505
1.56938
1.57662
1.58242
1.60142
1.61016
1.60727
1.60308
1.60075
1.59776
1.59141
1.58356
1.57926
1.57899
1.58015
1.58389
1.59018
1.59766
1.60297
1.60383
1.60324
1.60314
1.60454
1.60974
1.61795
1.61981
1.61959
1.61837
1.61598
1.6137
1.6112
1.60829
1.60702
1.6054
1.60358
1.60083
1.59912
1.59909
1.59901
1.59841
1.59731
1.59712
1.5985
1.6036
1.61263
1.62494
1.63817
1.64988
1.65715
1.65837
1.65594
1.65398
1.65546
1.65966
1.66468
1.67048
1.6771
1.68392
1.68925
1.69303
1.69553
1.69702
1.69752
1.69755
1.69861
1.70437
1.71513
1.7268
1.73904
1.75046
1.75895
1.76502
1.76613
1.76334
1.75934
1.75877
1.75863
1.76032
1.7671
1.77477
1.78005
1.78435
1.78796
1.79068
1.79211
1.79412
1.79722
1.80015
1.79986
1.79765
1.79416
1.7899
1.78566
1.78232
1.77903
1.76944
2.20385
2.07934
1.95818
1.86364
1.77337
1.6789
1.60233
1.55518
1.50701
1.44818
1.41362
1.38066
1.33219
1.3125
1.30412
1.28544
1.28254
1.28904
1.30093
1.3173
1.34744
1.39272
1.42871
1.44724
1.46516
1.48683
1.49766
1.50349
1.51575
1.53215
1.53433
1.53369
1.53561
1.53588
1.53186
1.52257
1.5158
1.5149
1.51397
1.51401
1.51568
1.51991
1.52576
1.5285
1.5282
1.5285
1.53071
1.53584
1.54175
1.54241
1.54175
1.54018
1.53716
1.53343
1.52987
1.52524
1.52098
1.51818
1.51543
1.51263
1.51243
1.51323
1.51474
1.51631
1.51769
1.519
1.5212
1.52608
1.53472
1.54565
1.55651
1.56527
1.56951
1.5694
1.56516
1.56363
1.56782
1.57559
1.58237
1.5885
1.59368
1.59835
1.60207
1.6046
1.60692
1.61028
1.61538
1.6213
1.62689
1.63348
1.64379
1.65524
1.66499
1.67321
1.68042
1.68551
1.68885
1.69094
1.69445
1.69691
1.69886
1.702
1.70725
1.71385
1.7195
1.72289
1.72417
1.72385
1.72418
1.72687
1.73116
1.7361
1.74002
1.74072
1.74001
1.73729
1.73221
1.72589
1.72071
1.71195
2.23527
2.12772
2.02368
1.92915
1.84207
1.75941
1.68587
1.62865
1.57577
1.52049
1.4864
1.45773
1.41672
1.3832
1.36599
1.33643
1.31244
1.30862
1.30234
1.30031
1.30345
1.31321
1.32741
1.345
1.36745
1.39686
1.42449
1.44217
1.45307
1.47255
1.48472
1.48437
1.48614
1.48882
1.48792
1.48442
1.48483
1.48801
1.48787
1.48508
1.47999
1.47927
1.48069
1.48319
1.48373
1.48516
1.48844
1.49319
1.49711
1.49696
1.49599
1.4937
1.49
1.48482
1.47908
1.47281
1.46548
1.46018
1.45657
1.45342
1.45337
1.45446
1.45781
1.46169
1.46498
1.46746
1.46923
1.47166
1.47605
1.4821
1.48824
1.49347
1.49771
1.50017
1.50082
1.50199
1.50599
1.51156
1.51618
1.51967
1.52202
1.524
1.52674
1.5302
1.53428
1.54162
1.551
1.56027
1.56825
1.57433
1.57879
1.5845
1.59149
1.59775
1.60319
1.60843
1.61446
1.62194
1.62864
1.63269
1.63523
1.63828
1.64244
1.64687
1.65181
1.65487
1.65479
1.65492
1.65645
1.65844
1.66088
1.66575
1.67153
1.67252
1.67177
1.66995
1.66688
1.662
1.65706
1.64813
2.25012
2.15572
2.06859
1.98516
1.90074
1.82136
1.75909
1.6948
1.63967
1.59004
1.5502
1.51011
1.47073
1.44292
1.42144
1.39462
1.36364
1.35072
1.3375
1.31285
1.30237
1.30378
1.30391
1.30464
1.3081
1.31764
1.3351
1.35931
1.38199
1.40353
1.42826
1.43948
1.44399
1.45125
1.4579
1.45786
1.45985
1.4671
1.46771
1.46451
1.46157
1.46171
1.46233
1.46228
1.46243
1.46331
1.46522
1.46851
1.46864
1.46671
1.46177
1.45736
1.45381
1.45033
1.44642
1.44197
1.43712
1.43214
1.428
1.42408
1.42148
1.42186
1.42396
1.42677
1.4291
1.43094
1.43279
1.43555
1.4397
1.4447
1.44948
1.45342
1.45731
1.46193
1.46574
1.46656
1.46622
1.46601
1.46612
1.46661
1.46803
1.47088
1.47487
1.48152
1.49219
1.50427
1.5132
1.51928
1.52261
1.52214
1.51944
1.51928
1.52317
1.52963
1.53662
1.54488
1.55521
1.56742
1.57694
1.58165
1.58385
1.58377
1.58224
1.58191
1.58313
1.58618
1.5884
1.59007
1.59197
1.59374
1.5953
1.59831
1.60236
1.60294
1.6023
1.60071
1.59838
1.59484
1.59021
1.582
2.25535
2.1751
2.10114
2.02584
1.94363
1.8763
1.81563
1.75412
1.69049
1.64935
1.61005
1.56827
1.52527
1.49726
1.47303
1.44523
1.41823
1.40569
1.39227
1.36563
1.34573
1.33437
1.32012
1.30543
1.3026
1.29901
1.29393
1.29469
1.30187
1.31493
1.33218
1.35762
1.37889
1.39739
1.42147
1.43138
1.43921
1.4499
1.45379
1.45163
1.44772
1.44678
1.44775
1.45065
1.45112
1.45155
1.45232
1.45182
1.4496
1.44502
1.43714
1.43148
1.42833
1.42567
1.4233
1.42246
1.42162
1.41911
1.41523
1.41103
1.40695
1.40429
1.40425
1.40503
1.40626
1.40789
1.41087
1.4154
1.42099
1.42725
1.43266
1.4361
1.43848
1.43962
1.43941
1.43737
1.43471
1.4336
1.43335
1.43363
1.43557
1.43951
1.44652
1.4565
1.46569
1.47059
1.47502
1.47908
1.48055
1.47743
1.47193
1.47239
1.47734
1.48458
1.49282
1.50509
1.52112
1.53326
1.53853
1.54043
1.53981
1.53431
1.52959
1.52923
1.53123
1.53591
1.54116
1.5447
1.54574
1.5456
1.54446
1.5431
1.54172
1.54026
1.53819
1.53609
1.53366
1.531
1.52772
1.52249
2.2535
2.1852
2.12034
2.05264
1.97965
1.91961
1.86066
1.80212
1.74367
1.70327
1.65981
1.6165
1.57602
1.55211
1.52678
1.49706
1.46554
1.44917
1.43146
1.40662
1.38562
1.37056
1.35202
1.32456
1.31259
1.30468
1.29369
1.28571
1.2869
1.28644
1.28195
1.28343
1.29522
1.31608
1.34787
1.38237
1.40689
1.42632
1.44199
1.44369
1.44077
1.43674
1.43774
1.43902
1.4396
1.44167
1.44152
1.43976
1.43577
1.42983
1.42277
1.41517
1.41073
1.40794
1.40667
1.4077
1.40958
1.40947
1.40665
1.40224
1.39737
1.39363
1.39209
1.39201
1.39223
1.39411
1.39904
1.40457
1.41052
1.41708
1.42192
1.42287
1.42182
1.41882
1.41499
1.41201
1.41116
1.41145
1.41226
1.41363
1.41616
1.42132
1.42768
1.4318
1.43535
1.43913
1.44297
1.44546
1.44519
1.44547
1.44582
1.44849
1.45618
1.46579
1.47846
1.49558
1.50995
1.51835
1.52412
1.52784
1.52694
1.52305
1.52129
1.52174
1.52454
1.53185
1.54163
1.54652
1.54597
1.54256
1.53618
1.52766
1.51826
1.50943
1.50157
1.49535
1.49006
1.48544
1.48179
1.47743
2.24946
2.19131
2.1341
2.07151
2.00704
1.95342
1.90244
1.84118
1.78839
1.74903
1.70787
1.66371
1.62497
1.59961
1.57132
1.5414
1.51396
1.49638
1.47655
1.44697
1.42497
1.4098
1.39197
1.3657
1.35059
1.33934
1.32276
1.30171
1.29542
1.28985
1.27685
1.2678
1.26847
1.2726
1.28289
1.30586
1.337
1.36714
1.39266
1.4133
1.42001
1.42394
1.42845
1.42942
1.42815
1.4253
1.42418
1.42397
1.42195
1.41769
1.41248
1.40569
1.40073
1.39771
1.39607
1.39738
1.39899
1.39807
1.39528
1.39165
1.38772
1.38473
1.38369
1.38363
1.38395
1.38748
1.39294
1.39751
1.40196
1.40638
1.40926
1.40975
1.40679
1.39956
1.39396
1.393
1.39316
1.3936
1.39549
1.39853
1.40052
1.40271
1.40501
1.40819
1.41031
1.41348
1.41711
1.4218
1.42903
1.43818
1.44986
1.46516
1.48499
1.50859
1.53476
1.55941
1.58071
1.5972
1.60756
1.6145
1.61945
1.62056
1.62078
1.62171
1.62432
1.62973
1.63435
1.6356
1.63459
1.62835
1.61651
1.60092
1.58352
1.56496
1.54519
1.528
1.51439
1.50237
1.49174
1.47753
2.24288
2.19125
2.14048
2.08649
2.02992
1.97878
1.93081
1.87675
1.83179
1.79237
1.75094
1.70047
1.66923
1.64499
1.61744
1.58324
1.55594
1.53622
1.51374
1.48558
1.46337
1.44619
1.42545
1.39799
1.38158
1.36862
1.35172
1.32733
1.3131
1.30282
1.28777
1.27117
1.26885
1.27055
1.27356
1.27497
1.28058
1.2961
1.31476
1.33913
1.36518
1.38402
1.4006
1.41254
1.41388
1.40901
1.40835
1.40872
1.40816
1.40534
1.40171
1.39825
1.39469
1.39213
1.39228
1.39259
1.39008
1.38707
1.38499
1.38131
1.37618
1.37558
1.37583
1.37682
1.37887
1.38199
1.38636
1.38992
1.3924
1.39432
1.3949
1.39443
1.39197
1.38611
1.38052
1.37837
1.37813
1.37849
1.37956
1.3812
1.38416
1.38756
1.39046
1.39575
1.40702
1.42342
1.4426
1.46492
1.49187
1.5215
1.55247
1.58488
1.6146
1.63918
1.65915
1.67522
1.68884
1.69716
1.69903
1.69788
1.69628
1.69505
1.69355
1.69327
1.6934
1.69245
1.68791
1.68214
1.67934
1.67494
1.66397
1.64964
1.63616
1.62209
1.60462
1.58988
1.57957
1.56863
1.55596
1.54334
2.23361
2.18935
2.14618
2.09788
2.04591
2.00199
1.9573
1.90531
1.86393
1.8282
1.78833
1.74147
1.71043
1.68213
1.65292
1.62022
1.59711
1.57564
1.54989
1.51499
1.49362
1.47673
1.45745
1.43262
1.41733
1.40403
1.38631
1.36023
1.34446
1.33366
1.3199
1.29768
1.28828
1.28864
1.28439
1.27659
1.27398
1.27443
1.2757
1.27879
1.29245
1.31569
1.34194
1.36623
1.38331
1.38836
1.39234
1.39505
1.39414
1.39009
1.38692
1.38664
1.38688
1.38837
1.38954
1.38839
1.38488
1.37979
1.37468
1.36907
1.36644
1.36654
1.36741
1.36962
1.37349
1.37724
1.37886
1.37939
1.37934
1.37905
1.37851
1.37726
1.37599
1.37444
1.3723
1.36957
1.3678
1.36762
1.36927
1.3742
1.38513
1.40395
1.43249
1.46925
1.51143
1.55191
1.5882
1.62
1.64483
1.66047
1.67112
1.67904
1.68705
1.69334
1.69702
1.69925
1.70027
1.70293
1.70277
1.70052
1.69709
1.69555
1.69264
1.6883
1.6836
1.67674
1.66677
1.65667
1.65126
1.64807
1.64144
1.63036
1.62049
1.60984
1.59899
1.58893
1.58148
1.57454
1.56536
1.55528
2.22213
2.18405
2.14567
2.10424
2.05915
2.01874
1.97756
1.93085
1.89342
1.85915
1.81746
1.77413
1.74772
1.7189
1.68657
1.65133
1.63025
1.60629
1.57916
1.54718
1.52397
1.50544
1.48335
1.45792
1.44413
1.43141
1.41483
1.38993
1.37297
1.36062
1.3468
1.32459
1.31084
1.3084
1.30146
1.28904
1.27606
1.27486
1.27433
1.27193
1.27011
1.27336
1.28396
1.30031
1.31829
1.33334
1.34435
1.35786
1.36624
1.36536
1.36574
1.36895
1.37472
1.38062
1.38261
1.38229
1.38026
1.37509
1.36642
1.35971
1.35864
1.35898
1.36067
1.36288
1.36669
1.37106
1.37149
1.36842
1.36472
1.36314
1.36248
1.36263
1.36568
1.36712
1.36845
1.37267
1.38088
1.39615
1.41923
1.45114
1.49034
1.53393
1.57598
1.61211
1.64147
1.66212
1.67851
1.69368
1.69863
1.69721
1.69277
1.68511
1.67677
1.67259
1.66963
1.6676
1.66823
1.67244
1.67454
1.67288
1.66822
1.66146
1.6523
1.64369
1.63537
1.62568
1.61421
1.60294
1.59542
1.59201
1.5885
1.58116
1.57204
1.56321
1.55473
1.54545
1.5351
1.52531
1.51776
1.50622
2.20739
2.17435
2.1416
2.10617
2.06764
2.03144
1.99328
1.95042
1.91382
1.88115
1.84235
1.80484
1.77696
1.74779
1.71044
1.67789
1.65842
1.63397
1.60385
1.57042
1.55143
1.53116
1.50911
1.48514
1.4704
1.45661
1.43833
1.41265
1.39814
1.38831
1.37658
1.35757
1.34402
1.34003
1.33196
1.31714
1.29631
1.29089
1.28606
1.27646
1.268
1.26666
1.26654
1.26564
1.2643
1.26863
1.278
1.29313
1.31098
1.33041
1.34067
1.34877
1.35893
1.36793
1.36909
1.369
1.36827
1.3647
1.35851
1.35313
1.35206
1.3529
1.3559
1.35755
1.35894
1.36173
1.36206
1.35809
1.35216
1.35127
1.35188
1.35706
1.37036
1.39101
1.42221
1.46395
1.50938
1.55029
1.58429
1.6112
1.63169
1.64769
1.65849
1.66508
1.67084
1.67693
1.68135
1.68092
1.67802
1.67282
1.66489
1.65388
1.64227
1.63582
1.63182
1.63047
1.63203
1.63286
1.63223
1.62761
1.62061
1.61131
1.59936
1.58813
1.57826
1.56875
1.56016
1.55115
1.54226
1.53439
1.52736
1.51934
1.51139
1.50578
1.49877
1.48867
1.47517
1.462
1.45345
1.44102
2.19247
2.16331
2.13456
2.10465
2.07159
2.03907
2.0047
1.96649
1.93235
1.90029
1.86032
1.82602
1.79983
1.77287
1.73618
1.70261
1.67939
1.65431
1.62503
1.59532
1.5759
1.55534
1.53015
1.50511
1.49378
1.4809
1.46294
1.43669
1.42047
1.40977
1.39788
1.37993
1.3692
1.36573
1.35821
1.34394
1.32187
1.31054
1.30199
1.28902
1.27149
1.2625
1.26197
1.25937
1.25436
1.2532
1.25283
1.25476
1.25948
1.26951
1.28573
1.30407
1.32371
1.33753
1.34053
1.34222
1.34678
1.34824
1.34664
1.34358
1.34332
1.34525
1.34919
1.3502
1.34981
1.35061
1.35235
1.35098
1.35314
1.36246
1.38506
1.42499
1.47517
1.52963
1.5791
1.61691
1.64371
1.65991
1.66926
1.6716
1.66957
1.66562
1.66247
1.65963
1.65314
1.64554
1.64045
1.63875
1.63735
1.63198
1.62562
1.61751
1.60778
1.60025
1.59386
1.58587
1.57828
1.57637
1.57469
1.57065
1.56558
1.55958
1.55017
1.53875
1.5313
1.52584
1.51644
1.50302
1.48726
1.47482
1.46828
1.46252
1.45544
1.44836
1.4406
1.43067
1.41798
1.40308
1.39293
1.38098
2.17562
2.15034
2.12534
2.09954
2.07038
2.04019
2.00944
1.97503
1.94169
1.91127
1.87742
1.84424
1.8168
1.79006
1.7548
1.72416
1.69933
1.67404
1.6437
1.61786
1.59912
1.57835
1.55423
1.52717
1.5132
1.49982
1.48225
1.4602
1.44735
1.43672
1.42415
1.40273
1.39045
1.38752
1.37965
1.36548
1.34524
1.33359
1.3248
1.31209
1.29148
1.2782
1.27566
1.27009
1.25966
1.25207
1.24842
1.24583
1.24182
1.23652
1.23719
1.24358
1.25914
1.27863
1.29519
1.30371
1.31227
1.32092
1.3253
1.32785
1.33115
1.3355
1.33793
1.3411
1.34152
1.34415
1.35486
1.38243
1.43111
1.48768
1.5442
1.59515
1.62858
1.65204
1.66672
1.66802
1.667
1.67013
1.67354
1.67017
1.66202
1.6516
1.64086
1.62733
1.61164
1.5985
1.59312
1.59224
1.5914
1.58964
1.58747
1.58317
1.57277
1.55485
1.54052
1.53202
1.52623
1.525
1.52593
1.52534
1.52315
1.51783
1.51073
1.50281
1.49048
1.47576
1.46157
1.44931
1.43794
1.42676
1.42043
1.41686
1.40997
1.40013
1.39051
1.3797
1.36677
1.35248
1.3429
1.3312
2.1601
2.13802
2.11535
2.0922
2.06709
2.03891
2.00843
1.97894
1.94963
1.91819
1.88614
1.85636
1.82843
1.8021
1.77229
1.7424
1.71523
1.68965
1.66067
1.63843
1.61893
1.59815
1.57471
1.5491
1.53496
1.51994
1.5008
1.47838
1.46839
1.45978
1.44784
1.42642
1.41362
1.40814
1.39791
1.38188
1.36094
1.35055
1.34202
1.32935
1.31037
1.29669
1.29272
1.28584
1.27281
1.25826
1.24681
1.24237
1.2379
1.23056
1.22713
1.22803
1.22978
1.23245
1.23531
1.24041
1.2497
1.2649
1.27959
1.29291
1.30849
1.32127
1.33295
1.3431
1.36551
1.41435
1.47653
1.54714
1.59932
1.63546
1.65993
1.66779
1.67578
1.67715
1.67114
1.66199
1.65714
1.65791
1.65541
1.64525
1.63384
1.6217
1.60319
1.57893
1.56093
1.55386
1.55083
1.55102
1.5534
1.55327
1.54957
1.54365
1.53117
1.50939
1.49384
1.4874
1.48355
1.48157
1.48273
1.48797
1.48822
1.48267
1.47151
1.45706
1.44158
1.42826
1.41711
1.40618
1.39681
1.39125
1.3889
1.38383
1.37186
1.35881
1.3477
1.33691
1.32488
1.31092
1.30206
1.2937
2.14031
2.12115
2.10114
2.08006
2.05715
2.0316
2.00308
1.97507
1.94721
1.91789
1.89066
1.86522
1.83811
1.80857
1.78214
1.75681
1.72971
1.70312
1.67529
1.65444
1.63502
1.6166
1.59435
1.57004
1.55363
1.53767
1.51987
1.49994
1.48998
1.48004
1.46639
1.44416
1.43244
1.42623
1.41487
1.39757
1.37628
1.36673
1.3582
1.34556
1.32701
1.31326
1.31048
1.30489
1.29263
1.27592
1.26032
1.25417
1.24902
1.23909
1.2299
1.22703
1.22641
1.22239
1.21403
1.20376
1.20182
1.20606
1.21975
1.24171
1.26981
1.30455
1.35142
1.42626
1.51517
1.59082
1.63534
1.6599
1.67765
1.67805
1.67629
1.67215
1.66901
1.66056
1.64551
1.63795
1.63561
1.63443
1.62672
1.61758
1.60587
1.58652
1.56078
1.53571
1.52137
1.51678
1.51383
1.51323
1.51432
1.51127
1.50613
1.50037
1.48965
1.47074
1.45472
1.44694
1.44412
1.44467
1.44918
1.45132
1.44807
1.43886
1.42777
1.41383
1.39854
1.38638
1.37742
1.36992
1.36573
1.36472
1.35828
1.34247
1.32687
1.31604
1.30761
1.29809
1.28709
1.27649
1.27031
1.25776
2.12531
2.1077
2.08931
2.06877
2.04578
2.02095
1.99606
1.97019
1.94361
1.91706
1.89149
1.86524
1.83922
1.81325
1.79075
1.76661
1.74128
1.71386
1.6878
1.66749
1.64687
1.6288
1.60971
1.59016
1.57277
1.55467
1.53508
1.51656
1.50791
1.4989
1.48545
1.46262
1.44922
1.44038
1.42718
1.40934
1.38922
1.38089
1.37287
1.36057
1.3423
1.32704
1.32393
1.31833
1.30598
1.2897
1.27388
1.26657
1.2608
1.25064
1.23634
1.23005
1.22721
1.2206
1.20973
1.19822
1.19244
1.19264
1.19826
1.21982
1.28095
1.37427
1.4811
1.56156
1.61801
1.63642
1.65281
1.66396
1.66376
1.6629
1.66075
1.656
1.64747
1.63934
1.62707
1.61457
1.60294
1.59218
1.58205
1.57186
1.55881
1.54054
1.51888
1.49868
1.48731
1.48068
1.47831
1.4773
1.47231
1.46781
1.46403
1.45942
1.45156
1.43776
1.42262
1.41297
1.40856
1.40844
1.40888
1.40829
1.40346
1.3972
1.3887
1.37596
1.36085
1.34979
1.34383
1.34201
1.34278
1.33921
1.32453
1.30657
1.29163
1.28012
1.27058
1.26215
1.25567
1.25214
1.24836
1.22936
2.10856
2.0935
2.07699
2.05648
2.03334
2.01035
1.98706
1.96295
1.93818
1.9151
1.89195
1.86802
1.84331
1.81875
1.79608
1.77192
1.7502
1.72613
1.70189
1.67879
1.65814
1.6395
1.61939
1.60511
1.58761
1.56938
1.55213
1.53268
1.52224
1.51102
1.49609
1.47655
1.46412
1.45423
1.44045
1.42085
1.39991
1.39217
1.38443
1.37228
1.35557
1.34112
1.33829
1.33292
1.32079
1.30442
1.28926
1.28263
1.27637
1.26631
1.2512
1.24339
1.23902
1.23053
1.2178
1.20468
1.20777
1.22754
1.28865
1.37509
1.46136
1.52983
1.56632
1.5863
1.58158
1.57959
1.5852
1.59582
1.59568
1.59181
1.5916
1.5876
1.58005
1.57508
1.56534
1.55344
1.54888
1.5455
1.53804
1.52759
1.51313
1.49478
1.4772
1.46483
1.45599
1.4476
1.4398
1.43358
1.42852
1.42456
1.42084
1.41693
1.41208
1.40458
1.39287
1.38233
1.37651
1.37186
1.36706
1.36361
1.3599
1.35526
1.35034
1.34157
1.32887
1.32001
1.3176
1.3165
1.3116
1.29998
1.28593
1.27264
1.26036
1.24914
1.23933
1.23357
1.23292
1.23135
1.22109
1.20011
2.09297
2.07443
2.05884
2.03993
2.01855
1.99863
1.97786
1.95539
1.93327
1.91309
1.89077
1.86688
1.84251
1.82302
1.80114
1.77822
1.75454
1.73261
1.70976
1.68796
1.67065
1.64866
1.6291
1.61458
1.59747
1.58237
1.56341
1.54685
1.53731
1.52457
1.50855
1.48651
1.47398
1.46462
1.4511
1.43326
1.41419
1.40528
1.39578
1.38261
1.36421
1.34926
1.34776
1.34403
1.33304
1.31731
1.30278
1.29577
1.28854
1.27706
1.26151
1.25243
1.24807
1.24162
1.23746
1.25754
1.31838
1.40901
1.49565
1.55798
1.57259
1.57926
1.57568
1.56091
1.54392
1.52693
1.5182
1.51129
1.49799
1.48414
1.47781
1.47869
1.48154
1.49022
1.49151
1.49047
1.4921
1.49568
1.49446
1.48676
1.47118
1.45386
1.44419
1.43623
1.4258
1.41382
1.40168
1.39332
1.38722
1.38207
1.37779
1.37416
1.37073
1.36636
1.35874
1.34538
1.33354
1.32747
1.32244
1.3175
1.31373
1.31095
1.30949
1.30656
1.30307
1.29838
1.29122
1.282
1.27256
1.26214
1.25063
1.23981
1.23041
1.2229
1.2189
1.21777
1.2149
1.20482
1.19195
1.17461
2.0832
2.06144
2.04123
2.02321
2.00504
1.98643
1.96675
1.94533
1.92651
1.90758
1.88773
1.86628
1.84645
1.82558
1.80132
1.77702
1.75699
1.7399
1.7185
1.69538
1.67607
1.65709
1.63916
1.6221
1.60575
1.59283
1.57412
1.55876
1.54745
1.53288
1.51708
1.49795
1.48491
1.47381
1.4587
1.44004
1.42345
1.41623
1.40735
1.39519
1.3783
1.35937
1.35548
1.35163
1.34117
1.32644
1.31362
1.30766
1.3005
1.28919
1.27445
1.26671
1.27331
1.30448
1.36588
1.46578
1.54239
1.60293
1.62356
1.61436
1.59639
1.58124
1.55906
1.53096
1.51262
1.50044
1.48405
1.46419
1.44601
1.42892
1.41445
1.40369
1.40131
1.40662
1.41819
1.42657
1.43131
1.43952
1.44132
1.43685
1.4288
1.42135
1.41403
1.40405
1.39543
1.38329
1.36933
1.35747
1.3486
1.3419
1.33702
1.33358
1.33047
1.32704
1.32192
1.31183
1.29676
1.28644
1.28027
1.27463
1.27034
1.26925
1.27177
1.27737
1.27608
1.26725
1.25361
1.24411
1.23751
1.229
1.2179
1.20888
1.20373
1.20307
1.20415
1.20067
1.19007
1.17791
1.16805
1.15482
2.01065
2.04922
2.02977
2.00696
1.99116
1.9752
1.95643
1.93692
1.9199
1.90078
1.88012
1.8598
1.84434
1.82577
1.80475
1.78121
1.75872
1.74036
1.72068
1.70153
1.68084
1.66331
1.64742
1.62782
1.61365
1.60139
1.58217
1.56881
1.55499
1.53953
1.5228
1.50292
1.49345
1.48237
1.46752
1.44998
1.43206
1.42413
1.41536
1.40285
1.38821
1.37138
1.36526
1.35984
1.34912
1.33317
1.32022
1.31468
1.31027
1.30299
1.30633
1.33491
1.41128
1.503
1.58305
1.63471
1.65605
1.65336
1.64274
1.62346
1.59382
1.56275
1.53556
1.51142
1.49207
1.47526
1.45668
1.43784
1.4222
1.40722
1.39228
1.37998
1.37051
1.36417
1.35887
1.35264
1.35219
1.35355
1.35855
1.3701
1.37772
1.37816
1.37243
1.36523
1.35835
1.34863
1.33785
1.32596
1.31678
1.30957
1.30337
1.29932
1.29565
1.29068
1.28572
1.27865
1.26693
1.25414
1.24576
1.23974
1.23592
1.23635
1.2406
1.24062
1.23669
1.22818
1.21778
1.20966
1.20587
1.2004
1.19077
1.18458
1.1853
1.19001
1.18931
1.18128
1.16863
1.15654
1.1485
1.13853
1.82024
2.00075
2.01534
1.99634
1.97767
1.9616
1.94346
1.92712
1.91149
1.89387
1.87271
1.85485
1.83979
1.8206
1.80052
1.77954
1.76316
1.7436
1.72244
1.70073
1.68153
1.66971
1.65412
1.63579
1.61936
1.60394
1.58978
1.57567
1.55924
1.54468
1.52758
1.50934
1.50065
1.48912
1.47468
1.45715
1.44118
1.43416
1.42455
1.41122
1.39598
1.37869
1.37223
1.36674
1.35664
1.34175
1.33
1.3266
1.33654
1.37658
1.45359
1.55493
1.63722
1.66285
1.68054
1.67673
1.66732
1.65252
1.63187
1.6006
1.56507
1.53981
1.52054
1.50049
1.4792
1.45963
1.43998
1.42408
1.41173
1.39822
1.38329
1.36699
1.3543
1.3451
1.33663
1.32913
1.31961
1.30879
1.30071
1.2999
1.30338
1.31334
1.31772
1.31499
1.30951
1.30689
1.30187
1.2949
1.28921
1.28616
1.2801
1.27026
1.2625
1.25797
1.25318
1.24703
1.23982
1.22981
1.22175
1.21656
1.21391
1.21382
1.21142
1.20401
1.19863
1.19441
1.18803
1.18115
1.17858
1.17622
1.17107
1.16933
1.17198
1.17246
1.16786
1.15853
1.14981
1.13949
1.13146
1.12155
1.37976
1.83774
1.97855
1.98489
1.9696
1.94915
1.93009
1.9159
1.90071
1.88383
1.8635
1.84927
1.83341
1.81561
1.7954
1.77683
1.76132
1.74146
1.72275
1.70267
1.68727
1.67404
1.65657
1.64067
1.62518
1.60798
1.59528
1.57892
1.56091
1.54869
1.53174
1.51524
1.50709
1.49473
1.48067
1.46237
1.44677
1.4405
1.43099
1.41757
1.40313
1.38651
1.37864
1.37253
1.36315
1.35315
1.36287
1.40923
1.50108
1.60262
1.66927
1.72351
1.71846
1.69865
1.682
1.66697
1.65314
1.63269
1.60338
1.57422
1.54873
1.52633
1.50521
1.48506
1.46828
1.45292
1.43519
1.41791
1.40604
1.39228
1.37691
1.36321
1.34941
1.33397
1.31964
1.30812
1.29673
1.28647
1.27858
1.27151
1.26778
1.26552
1.26536
1.26046
1.25238
1.25151
1.25336
1.25628
1.25633
1.25583
1.25224
1.2438
1.23789
1.2347
1.22875
1.22029
1.21532
1.21059
1.2041
1.20224
1.20179
1.1978
1.18819
1.17782
1.17206
1.16839
1.16404
1.15884
1.15641
1.15536
1.1533
1.15142
1.15289
1.15317
1.14892
1.14097
1.13315
1.12412
1.11647
1.10628
1.0403
1.43563
1.83913
1.95399
1.95913
1.94168
1.91897
1.90419
1.88982
1.87223
1.85398
1.84119
1.82545
1.80856
1.78778
1.77446
1.75905
1.74013
1.72116
1.70046
1.69044
1.67693
1.65863
1.64371
1.62481
1.61131
1.59933
1.58092
1.56418
1.55089
1.53317
1.52054
1.51157
1.49933
1.48607
1.46663
1.45218
1.446
1.43601
1.42219
1.40773
1.3923
1.38763
1.3849
1.39433
1.43583
1.53489
1.65605
1.71967
1.75942
1.75572
1.7399
1.71277
1.68938
1.6722
1.65263
1.62286
1.59481
1.57155
1.55336
1.5376
1.52093
1.5015
1.47841
1.45746
1.44129
1.4274
1.41546
1.40315
1.38894
1.37375