/*--------------------------------*- C++ -*----------------------------------*\
  =========                 |
  \\      /  F ield         | OpenFOAM: The Open Source CFD Toolbox
   \\    /   O peration     | Website:  https://openfoam.org
    \\  /    A nd           | Version:  7
     \\/     M anipulation  |
\*---------------------------------------------------------------------------*/
FoamFile
{
    version     2.0;
    format      ascii;
    class       volScalarField;
    location    "2.4";
    object      rho;
}
// * * * * * * * * * * * * * * * * * * * * * * * * * * * * * * * * * * * * * //

dimensions      [1 -3 0 0 0 0 0];

internalField   nonuniform List<scalar> 
6300
(
1.40001
1.40001
1.40001
1.40001
1.40001
1.40001
1.40001
1.40001
1.40001
1.40001
1.40001
1.40001
1.40001
1.40001
1.40001
3.48405
5.38137
5.47303
5.52969
5.59372
5.64987
5.69799
5.73667
5.77018
5.80489
5.84278
5.87887
5.90539
5.92101
5.93227
1.40001
1.40001
1.40001
1.40001
1.40001
1.40001
1.40001
1.40001
1.40001
1.40001
1.40001
1.40001
1.40001
1.40001
1.40001
3.42422
5.35798
5.46692
5.52432
5.58868
5.64436
5.69167
5.72932
5.76169
5.79521
5.83174
5.8664
5.89166
5.90639
5.91732
1.40001
1.40001
1.40001
1.40001
1.40001
1.40001
1.40001
1.40001
1.40001
1.40001
1.40001
1.40001
1.40001
1.40001
1.40001
3.30255
5.33106
5.45515
5.51301
5.57801
5.63365
5.68068
5.71785
5.74945
5.78186
5.81652
5.84851
5.8711
5.88347
5.89346
1.40001
1.40001
1.40001
1.40001
1.40001
1.40001
1.40001
1.40001
1.40001
1.40001
1.40001
1.40001
1.40001
1.40001
1.40001
3.12576
5.29142
5.44176
5.49956
5.56474
5.61987
5.66604
5.70201
5.73209
5.76288
5.79555
5.82448
5.84306
5.85095
5.85747
1.40001
1.40001
1.40001
1.40001
1.40001
1.40001
1.40001
1.40001
1.40001
1.40001
1.40001
1.40001
1.40001
1.40001
1.40001
2.89638
5.22986
5.42672
5.483
5.54651
5.59967
5.6436
5.67685
5.70351
5.73064
5.75994
5.7862
5.80319
5.8098
5.81722
1.40001
1.40001
1.40001
1.40001
1.40001
1.40001
1.40001
1.40001
1.40001
1.40001
1.40001
1.40001
1.40001
1.40001
1.40001
2.62095
5.12896
5.41566
5.46817
5.5281
5.57722
5.61679
5.64555
5.66773
5.69093
5.71728
5.74033
5.75268
5.75278
5.75378
1.40001
1.40001
1.40001
1.40001
1.40001
1.40001
1.40001
1.40001
1.40001
1.40001
1.40001
1.40001
1.40001
1.40001
1.40001
2.30874
4.9773
5.42838
5.46381
5.5152
5.55793
5.59224
5.61516
5.62992
5.64397
5.66024
5.67248
5.67872
5.67445
5.68059
1.40001
1.40001
1.40001
1.40001
1.40001
1.40001
1.40001
1.40001
1.40001
1.40001
1.40001
1.40001
1.40001
1.40001
1.40001
1.96558
4.76277
5.43839
5.4547
5.50032
5.53595
5.56362
5.57975
5.5858
5.58922
5.59584
5.59975
5.60018
5.58404
5.56065
1.40001
1.40001
1.40001
1.40001
1.40001
1.40001
1.40001
1.40001
1.40001
1.40001
1.40001
1.40001
1.40001
1.40001
1.40001
1.61674
4.50206
5.4712
5.43854
5.47212
5.50122
5.52611
5.53742
5.53519
5.52664
5.51717
5.49682
5.45909
5.41339
5.38424
1.40001
1.40001
1.40001
1.40001
1.40001
1.40001
1.40001
1.40001
1.40001
1.40001
1.40001
1.40001
1.40001
1.40001
1.40001
1.4141
4.03677
5.36055
5.37311
5.42116
5.45335
5.4734
5.4809
5.47037
5.449
5.41978
5.37471
5.31465
5.23228
5.18203
1.40001
1.40001
1.40001
1.40001
1.40001
1.40001
1.40001
1.40001
1.40001
1.40001
1.40001
1.40001
1.40001
1.40001
1.40001
1.40002
3.42165
5.20673
5.30596
5.35624
5.38725
5.40581
5.41106
5.39322
5.36128
5.31337
5.23171
5.10146
4.76819
3.90642
1.40001
1.40001
1.40001
1.40001
1.40001
1.40001
1.40001
1.40001
1.40001
1.40001
1.40001
1.40001
1.40001
1.40001
1.40001
1.4
2.7867
5.02233
5.28068
5.31327
5.33549
5.34362
5.33918
5.31398
5.26962
5.19525
5.07298
4.86087
4.50621
3.58308
1.40001
1.40001
1.40001
1.40001
1.40001
1.40001
1.40001
1.40001
1.40001
1.40001
1.40001
1.40001
1.40001
1.40001
1.40001
1.4
2.11671
4.81425
5.2914
5.27806
5.28413
5.28204
5.26514
5.23122
5.17287
5.0746
4.92355
4.67142
4.2876
3.46813
1.40001
1.40001
1.40001
1.40001
1.40001
1.40001
1.40001
1.40001
1.40001
1.40001
1.40001
1.40001
1.40001
1.40001
1.40001
1.40001
1.52589
4.34875
5.34047
5.26858
5.23579
5.21482
5.18429
5.13934
5.0696
4.95818
4.78698
4.53279
4.1183
3.45277
1.40001
1.40001
1.40001
1.40001
1.40001
1.40001
1.40001
1.40001
1.40001
1.40001
1.40001
1.40001
1.40001
1.40001
1.40001
1.40001
1.40195
3.56214
5.14353
5.19889
5.17872
5.14818
5.10771
5.05061
4.96884
4.85075
4.67188
4.41978
4.01974
3.49671
1.40001
1.40001
1.40001
1.40001
1.40001
1.40001
1.40001
1.40001
1.40001
1.40001
1.40001
1.40001
1.40001
1.40001
1.40001
1.40001
1.39998
2.59496
4.92809
5.19335
5.1518
5.11657
5.06476
4.98764
4.88696
4.75595
4.57778
4.33131
3.96897
3.54443
1.40001
1.40001
1.40001
1.40001
1.40001
1.40001
1.40001
1.40001
1.40001
1.40001
1.40001
1.40001
1.40001
1.40001
1.40001
1.40001
1.4
1.70445
4.61066
5.2561
5.15434
5.07995
5.01069
4.92105
4.8107
4.67336
4.49857
4.26119
3.94438
3.59185
1.40001
1.40001
1.40001
1.40001
1.40001
1.40001
1.40001
1.40001
1.40001
1.40001
1.40001
1.40001
1.40001
1.40001
1.40001
1.40001
1.4
1.41487
3.75087
5.05283
5.05153
5.02195
4.95847
4.86658
4.75029
4.61303
4.43433
4.20814
3.9331
3.63178
1.40001
1.40001
1.40001
1.40001
1.40001
1.40001
1.40001
1.40001
1.40001
1.40001
1.40001
1.40001
1.40001
1.40001
1.40001
1.40001
1.4
1.39989
2.57269
4.82468
5.03976
5.00582
4.94028
4.84166
4.71885
4.57448
4.39288
4.18075
3.93785
3.67446
1.40001
1.40001
1.40001
1.40001
1.40001
1.40001
1.40001
1.40001
1.40001
1.40001
1.40001
1.40001
1.40001
1.40001
1.40001
1.40001
1.40001
1.39998
1.6309
4.32736
5.07987
4.99463
4.91162
4.80647
4.68401
4.53935
4.36425
4.16743
3.94469
3.70888
1.40001
1.40001
1.40001
1.40001
1.40001
1.40001
1.40001
1.40001
1.40001
1.40001
1.40001
1.40001
1.40001
1.40001
1.40001
1.40001
1.40001
1.4
1.40658
3.22969
4.88193
4.92058
4.86297
4.77705
4.66216
4.5177
4.35016
4.16626
3.95807
3.74296
1.40001
1.40001
1.40001
1.40001
1.40001
1.40001
1.40001
1.40001
1.40001
1.40001
1.40001
1.40001
1.40001
1.40001
1.40001
1.40001
1.40001
1.4
1.39997
1.90813
4.64137
4.99151
4.87934
4.77743
4.65064
4.50237
4.3396
4.16473
3.97051
3.77239
1.40001
1.40001
1.40001
1.40001
1.40001
1.40001
1.40001
1.40001
1.40001
1.40001
1.40001
1.40001
1.40001
1.40001
1.40001
1.40001
1.40001
1.40001
1.4
1.43779
3.6517
4.87149
4.83527
4.75412
4.63403
4.49142
4.33395
4.16509
3.9841
3.80135
1.40001
1.40001
1.40001
1.40001
1.40001
1.40001
1.40001
1.40001
1.40001
1.40001
1.40001
1.40001
1.40001
1.40001
1.40001
1.40001
1.40001
1.40001
1.4
1.40005
2.1988
4.65367
4.86939
4.76602
4.64054
4.49873
4.34366
4.17828
4.00638
3.83255
1.40001
1.40001
1.40001
1.40001
1.40001
1.40001
1.40001
1.40001
1.40001
1.40001
1.40001
1.40001
1.40001
1.40001
1.40001
1.40001
1.40001
1.40001
1.4
1.4
1.49302
3.75128
4.82398
4.75359
4.63678
4.50397
4.3538
4.19431
4.02936
3.86087
1.40001
1.40001
1.40001
1.40001
1.40001
1.40001
1.40001
1.40001
1.40001
1.40001
1.40001
1.40001
1.40001
1.40001
1.40001
1.40001
1.40001
1.40001
1.40001
1.4
1.40084
2.23407
4.55578
4.78343
4.65529
4.5228
4.37432
4.22078
4.06289
3.89943
1.40001
1.40001
1.40001
1.40001
1.40001
1.40001
1.40001
1.40001
1.40001
1.40001
1.40001
1.40001
1.40001
1.40001
1.40001
1.40001
1.40001
1.40001
1.40001
1.40001
1.40001
1.49871
3.64061
4.73759
4.65078
4.52368
4.3858
4.24216
4.09183
3.93684
1.40001
1.40001
1.40001
1.40001
1.40001
1.40001
1.40001
1.40001
1.40001
1.40001
1.40001
1.40001
1.40001
1.40001
1.40001
1.40001
1.40001
1.40001
1.40001
1.40001
1.40001
1.40109
2.15744
4.37557
4.66372
4.53492
4.40923
4.2721
4.12659
3.97783
1.40001
1.40001
1.40001
1.40001
1.40001
1.40001
1.40001
1.40001
1.40001
1.40001
1.40001
1.40001
1.40001
1.40001
1.40001
1.40001
1.40001
1.40001
1.40001
1.40001
1.40001
1.40001
1.47728
3.30092
4.60348
4.55027
4.42955
4.29555
4.15705
4.01479
1.40001
1.40001
1.40001
1.40001
1.40001
1.40001
1.40001
1.40001
1.40001
1.40001
1.40001
1.40001
1.40001
1.40001
1.40001
1.40001
1.40001
1.40001
1.40001
1.40001
1.40001
1.40001
1.40091
1.93504
4.07035
4.58806
4.45241
4.32648
4.19394
4.058
1.40001
1.40001
1.40001
1.40001
1.40001
1.40001
1.40001
1.40001
1.40001
1.40001
1.40001
1.40001
1.40001
1.40001
1.40001
1.40001
1.40001
1.40001
1.40001
1.40001
1.40001
1.40001
1.40001
1.43687
2.74027
4.39584
4.47241
4.36216
4.2366
4.10464
1.40001
1.40001
1.40001
1.40001
1.40001
1.40001
1.40001
1.40001
1.40001
1.40001
1.40001
1.40001
1.40001
1.40001
1.40001
1.40001
1.40001
1.40001
1.40001
1.40001
1.40001
1.40001
1.40001
1.40041
1.65324
3.57347
4.51216
4.41791
4.29039
4.15822
1.40001
1.40001
1.40001
1.40001
1.40001
1.40001
1.40001
1.40001
1.40001
1.40001
1.40001
1.40001
1.40001
1.40001
1.40001
1.40001
1.40001
1.40001
1.40001
1.40001
1.40001
1.40001
1.40001
1.40001
1.40859
2.15513
4.09322
4.44567
4.33115
4.19854
1.40001
1.40001
1.40001
1.40001
1.40001
1.40001
1.40001
1.40001
1.40001
1.40001
1.40001
1.40001
1.40001
1.40001
1.40001
1.40001
1.40001
1.40001
1.40001
1.40001
1.40001
1.40001
1.40001
1.40001
1.40007
1.47388
2.83013
4.29062
4.3719
4.25639
1.40001
1.40001
1.40001
1.40001
1.40001
1.40001
1.40001
1.40001
1.40001
1.40001
1.40001
1.40001
1.40001
1.40001
1.40001
1.40001
1.40001
1.40001
1.40001
1.40001
1.40001
1.40001
1.40001
1.40001
1.40001
1.40126
1.68221
3.45553
4.35571
4.31927
1.40001
1.40001
1.40001
1.40001
1.40001
1.40001
1.40001
1.40001
1.40001
1.40001
1.40001
1.40001
1.40001
1.40001
1.40001
1.40001
1.40001
1.40001
1.40001
1.40001
1.40001
1.40001
1.40001
1.40001
1.40001
1.40001
1.41116
2.06534
3.87087
4.3336
1.40001
1.40001
1.40001
1.40001
1.40001
1.40001
1.40001
1.40001
1.40001
1.40001
1.40001
1.40001
1.40001
1.40001
1.40001
1.40001
1.40001
1.40001
1.40001
1.40001
1.40001
1.40001
1.40001
1.40001
1.40001
1.40001
1.4001
1.45721
2.53528
4.10096
1.40001
1.40001
1.40001
1.40001
1.40001
1.40001
1.40001
1.40001
1.40001
1.40001
1.40001
1.40001
1.40001
1.40001
1.40001
1.40001
1.40001
1.40001
1.40001
1.40001
1.40001
1.40001
1.40001
1.40001
1.40001
1.40001
1.40001
1.40095
1.57221
3.01546
1.40001
1.40001
1.40001
1.40001
1.40001
1.40001
1.40001
1.40001
1.40001
1.40001
1.40001
1.40001
1.40001
1.40001
1.40001
1.40001
1.40001
1.40001
1.40001
1.40001
1.40001
1.40001
1.40001
1.40001
1.40001
1.40001
1.40001
1.40001
1.4051
1.77432
1.40001
1.40001
1.40001
1.40001
1.40001
1.40001
1.40001
1.40001
1.40001
1.40001
1.40001
1.40001
1.40001
1.40001
1.40001
1.40001
1.40001
1.40001
1.40001
1.40001
1.40001
1.40001
1.40001
1.40001
1.40001
1.40001
1.40001
1.40001
1.40004
1.41973
1.40001
1.40001
1.40001
1.40001
1.40001
1.40001
1.40001
1.40001
1.40001
1.40001
1.40001
1.40001
1.40001
1.40001
1.40001
1.40001
1.40001
1.40001
1.40001
1.40001
1.40001
1.40001
1.40001
1.40001
1.40001
1.40001
1.40001
1.40001
1.40001
1.40023
1.40001
1.40001
1.40001
1.40001
1.40001
1.40001
1.40001
1.40001
1.40001
1.40001
1.40001
1.40001
1.40001
1.40001
1.40001
1.40001
1.40001
1.40001
1.40001
1.40001
1.40001
1.40001
1.40001
1.40001
1.40001
1.40001
1.40001
1.40001
1.40001
1.40001
1.40001
1.40001
1.40001
1.40001
1.40001
1.40001
1.40001
1.40001
1.40001
1.40001
1.40001
1.40001
1.40001
1.40001
1.40001
1.40001
1.40001
1.40001
1.40001
1.40001
1.40001
1.40001
1.40001
1.40001
1.40001
1.40001
1.40001
1.40001
1.40001
1.40001
1.40001
1.40001
1.40001
1.40001
1.40001
1.40001
1.40001
1.40001
1.40001
1.40001
1.40001
1.40001
1.40001
1.40001
1.40001
1.40001
1.40001
1.40001
1.40001
1.40001
1.40001
1.40001
1.40001
1.40001
1.40001
1.40001
1.40001
1.40001
1.40001
1.40001
1.40001
1.40001
1.40001
1.40001
1.40001
1.40001
1.40001
1.40001
1.40001
1.40001
1.40001
1.40001
1.40001
1.40001
1.40001
1.40001
1.40001
1.40001
1.40001
1.40001
1.40001
1.40001
1.40001
1.40001
1.40001
1.40001
1.40001
1.40001
1.40001
1.40001
1.40001
1.40001
1.40001
1.40001
1.40001
1.40001
1.40001
1.40001
1.40001
1.40001
1.40001
1.40001
1.40001
1.40001
1.40001
1.40001
1.40001
1.40001
1.40001
1.40001
1.40001
1.40001
1.40001
1.40001
1.40001
1.40001
1.40001
1.40001
1.40001
1.40001
1.40001
1.40001
1.40001
1.40001
1.40001
1.40001
1.40001
1.40001
1.40001
1.40001
1.40001
1.40001
1.40001
1.40001
1.40001
1.40001
1.40001
1.40001
1.40001
1.40001
1.40001
1.40001
1.40001
1.40001
1.40001
1.40001
1.40001
1.40001
1.40001
1.40001
1.40001
1.40001
1.40001
1.40001
1.40001
1.40001
1.40001
1.40001
1.40001
1.40001
1.40001
1.40001
1.40001
1.40001
1.40001
1.40001
1.40001
1.40001
1.40001
1.40001
1.40001
1.40001
1.40001
1.40001
1.40001
1.40001
1.40001
1.40001
1.40001
1.40001
1.40001
1.40001
1.40001
1.40001
1.40001
1.40001
1.40001
1.40001
1.40001
1.40001
1.40001
1.40001
1.40001
1.40001
1.40001
1.40001
1.40001
1.40001
1.40001
1.40001
1.40001
1.40001
1.40001
1.40001
1.40001
1.40001
1.40001
1.40001
1.40001
1.40001
1.40001
1.40001
1.40001
1.40001
1.40001
1.40001
1.40001
1.40001
1.40001
1.40001
1.40001
1.40001
1.40001
1.40001
1.40001
1.40001
1.40001
1.40001
1.40001
1.40001
1.40001
1.40001
1.40001
1.40001
1.40001
1.40001
1.40001
1.40001
1.40001
1.40001
1.25274
0.480008
0.151096
0.130623
0.167008
0.236019
0.299317
0.380149
0.497935
0.611944
0.670724
0.709417
0.743574
0.788306
0.860579
0.944243
0.970797
0.974789
0.962646
0.955047
0.960288
0.979565
1.0059
1.02536
1.03052
1.03264
1.03322
1.03588
1.0426
1.05085
1.05819
1.06125
1.06212
1.06434
1.07008
1.08091
1.09621
1.10551
1.1061
1.10195
1.09034
1.08115
1.08044
1.08493
1.09706
1.11739
1.20924
1.86298
3.26663
3.538
3.45048
3.444
3.39051
3.30778
3.23347
3.18757
3.15562
3.1332
3.1058
3.07452
3.03419
2.9958
2.96087
2.9281
2.89422
2.85854
2.82062
2.78076
2.74699
2.7198
2.70263
2.69683
2.68681
2.6615
2.6303
2.58489
2.52636
2.48267
2.45727
2.43743
2.42561
2.41959
2.40385
2.38144
2.34964
2.29964
2.2531
2.22774
2.21021
2.19551
2.18576
2.17455
2.15937
2.14168
2.11081
2.0668
2.03954
2.02474
2.01185
2.00297
1.99804
1.98708
1.9729
1.95457
1.92056
1.87373
1.84692
1.8341
1.8231
1.8141
1.80919
1.80241
1.79178
1.77939
1.75694
1.71301
1.66931
1.64843
1.63846
1.62235
1.87017
1.17614
0.778159
0.545907
0.530511
0.510337
0.467759
0.467592
0.478533
0.517622
0.55957
0.596331
0.643518
0.706178
0.778451
0.865635
0.916396
0.93267
0.943289
0.950685
0.965539
0.996752
1.03261
1.04364
1.04402
1.04585
1.05123
1.05508
1.06058
1.06837
1.07482
1.08023
1.08606
1.08914
1.09136
1.09594
1.09934
1.10226
1.10782
1.10926
1.108
1.10594
1.10003
1.09935
1.1096
1.20143
1.51053
1.92025
2.74959
3.32183
3.41592
3.43132
3.38043
3.31238
3.26027
3.22304
3.19265
3.15965
3.12425
3.09142
3.0547
3.01772
2.98173
2.94858
2.91845
2.88789
2.85457
2.81759
2.77701
2.74265
2.71734
2.69739
2.67762
2.65742
2.63066
2.59666
2.55788
2.51549
2.47771
2.45247
2.43353
2.41587
2.3954
2.37353
2.34785
2.3155
2.28191
2.24926
2.22402
2.20694
2.19219
2.17632
2.15935
2.13884
2.11214
2.07857
2.04932
2.03108
2.01795
2.00725
1.99788
1.98571
1.97119
1.95307
1.92592
1.88836
1.85557
1.83834
1.82731
1.81811
1.8108
1.80121
1.78941
1.77498
1.75531
1.723
1.68433
1.65602
1.64335
1.62628
2.38048
1.7061
1.32823
1.06291
0.892609
0.777744
0.652987
0.606133
0.592299
0.576792
0.591243
0.635016
0.67491
0.713256
0.751991
0.808871
0.868181
0.903017
0.944465
0.988108
1.02073
1.06252
1.1036
1.10478
1.09986
1.10524
1.11478
1.1138
1.11331
1.11625
1.11587
1.11545
1.11798
1.1268
1.13888
1.14413
1.14425
1.13853
1.13224
1.13247
1.1344
1.13828
1.14485
1.16042
1.24267
1.56989
2.02335
2.11062
2.28117
2.84125
3.40626
3.58613
3.52622
3.46715
3.38415
3.32062
3.27197
3.22233
3.1839
3.15079
3.11355
3.07041
3.02738
2.98872
2.95535
2.92765
2.9014
2.87287
2.84332
2.81091
2.7715
2.72802
2.69114
2.65997
2.63209
2.61107
2.59068
2.5665
2.53794
2.50197
2.4627
2.42934
2.40142
2.37275
2.34647
2.32887
2.31195
2.2923
2.26746
2.23906
2.2128
2.18979
2.16616
2.13924
2.11229
2.09141
2.07195
2.05118
2.0336
2.01963
2.00587
1.99109
1.97354
1.95183
1.92856
1.9056
1.88033
1.85497
1.83879
1.82798
1.81709
1.80521
1.79107
1.7732
1.75121
1.72809
1.70384
1.67879
1.6601
1.63735
2.70879
2.17191
1.74103
1.43796
1.25327
1.09273
0.951196
0.858358
0.819076
0.762145
0.731826
0.729831
0.715265
0.702948
0.707955
0.722291
0.753462
0.802197
0.862962
0.932614
0.986557
1.03072
1.08277
1.09393
1.09895
1.11803
1.15034
1.17047
1.17306
1.17002
1.16579
1.16271
1.16333
1.168
1.1762
1.17971
1.17991
1.17715
1.17016
1.1653
1.16507
1.16991
1.19024
1.30546
1.61845
2.06564
2.2559
2.23387
2.22681
2.32182
2.82145
3.32846
3.50867
3.55083
3.48896
3.41704
3.34347
3.28356
3.24756
3.21726
3.18405
3.14602
3.09948
3.05553
3.01727
2.98581
2.95652
2.92815
2.9002
2.86923
2.83139
2.78624
2.74097
2.70278
2.67527
2.65303
2.63383
2.61441
2.591
2.55886
2.51131
2.46306
2.42582
2.39784
2.3775
2.36287
2.35072
2.33443
2.31402
2.2849
2.24802
2.21357
2.1822
2.1535
2.13292
2.11673
2.10006
2.08119
2.05994
2.03977
2.02231
2.00421
1.98271
1.95945
1.94079
1.92562
1.90962
1.88855
1.86281
1.84294
1.82953
1.81636
1.80036
1.77958
1.75612
1.73743
1.72207
1.7056
1.68772
1.65769
2.93913
2.49646
2.10789
1.78689
1.56586
1.37503
1.20279
1.11278
1.03833
0.954588
0.891738
0.857503
0.816737
0.763885
0.750056
0.743324
0.747789
0.759545
0.778849
0.816876
0.871218
0.9225
0.982313
1.03358
1.06393
1.08838
1.12711
1.16063
1.16841
1.17146
1.18085
1.1885
1.19354
1.19763
1.20032
1.20375
1.20604
1.20494
1.20197
1.19554
1.19481
1.20667
1.31545
1.71597
2.0753
2.28263
2.29733
2.28489
2.25656
2.23574
2.30925
2.67706
3.17609
3.41894
3.53564
3.50584
3.41935
3.35448
3.3015
3.25861
3.21833
3.18574
3.1538
3.1156
3.07729
3.04125
3.00754
2.97606
2.94424
2.90844
2.86661
2.82304
2.78502
2.75346
2.72525
2.70041
2.67826
2.65676
2.63315
2.59885
2.54579
2.49309
2.45991
2.43882
2.42167
2.40977
2.39768
2.37979
2.3584
2.32599
2.27679
2.23036
2.20131
2.18296
2.16778
2.15257
2.13583
2.11671
2.09293
2.06475
2.03796
2.0147
1.99384
1.9778
1.96513
1.95303
1.93997
1.92339
1.898
1.8655
1.84238
1.82746
1.81114
1.79053
1.77114
1.75752
1.74557
1.73259
1.71705
1.68262
3.10564
2.72816
2.37208
2.0796
1.84499
1.64768
1.45464
1.33568
1.24644
1.14432
1.06974
1.02235
0.975014
0.914149
0.878568
0.851017
0.816389
0.800048
0.804078
0.804468
0.806219
0.815127
0.838491
0.880227
0.930992
0.976256
1.03027
1.09506
1.13093
1.15221
1.17327
1.19134
1.19583
1.1957
1.19873
1.20236
1.20679
1.21316
1.21659
1.21714
1.22846
1.32231
1.72781
2.12496
2.28753
2.3175
2.29633
2.27106
2.25679
2.24229
2.21078
2.24025
2.49283
2.93546
3.35918
3.43188
3.44091
3.39679
3.3446
3.28772
3.23243
3.19428
3.16543
3.13781
3.10751
3.07196
3.03554
2.99916
2.96135
2.92057
2.87846
2.8427
2.81449
2.78862
2.76203
2.73368
2.70692
2.68258
2.65374
2.6143
2.56875
2.53044
2.50286
2.4809
2.46268
2.44676
2.42851
2.40891
2.38581
2.34971
2.29369
2.24848
2.22887
2.21396
2.20126
2.18778
2.17143
2.15168
2.12304
2.08278
2.04479
2.02136
2.00715
1.99606
1.98792
1.9798
1.96771
1.95352
1.93306
1.89832
1.85866
1.83162
1.81331
1.79973
1.78987
1.78008
1.76949
1.75803
1.74527
1.71034
3.2396
2.91056
2.5786
2.31219
2.08593
1.86938
1.68282
1.5494
1.43853
1.33292
1.23979
1.17077
1.10584
1.03812
0.989569
0.955682
0.921964
0.883736
0.862813
0.844665
0.826834
0.822621
0.822212
0.825182
0.836133
0.859462
0.895966
0.953515
1.01875
1.06946
1.11455
1.16319
1.18479
1.18502
1.18363
1.18536
1.19084
1.19936
1.21086
1.23583
1.36669
1.7178
2.18568
2.30042
2.30969
2.29179
2.26802
2.25892
2.24989
2.23894
2.2157
2.17397
2.18286
2.33103
2.75378
3.14532
3.37096
3.3905
3.36406
3.30156
3.24605
3.20052
3.16835
3.14366
3.11645
3.08242
3.04478
3.00563
2.96317
2.91755
2.87746
2.84897
2.82591
2.80404
2.78142
2.7551
2.72097
2.68116
2.64194
2.60824
2.58139
2.56019
2.53955
2.51754
2.49391
2.46883
2.44355
2.41878
2.39163
2.35488
2.30566
2.27101
2.2546
2.24065
2.22924
2.21712
2.20118
2.18089
2.14462
2.08845
2.04768
2.03094
2.01925
2.00867
2.00225
1.99747
1.98676
1.97365
1.95717
1.92429
1.87214
1.83619
1.82072
1.81079
1.80276
1.79621
1.78658
1.77593
1.76509
1.73089
3.33061
3.03555
2.74836
2.49503
2.27115
2.05445
1.88597
1.74205
1.60623
1.48371
1.40196
1.32251
1.24836
1.17973
1.11774
1.06216
1.03141
1.00531
0.967199
0.934419
0.910954
0.887199
0.864485
0.849774
0.843583
0.841736
0.844691
0.857036
0.887619
0.930536
0.974118
1.02487
1.07753
1.1379
1.16623
1.16604
1.16849
1.1745
1.19776
1.36322
1.76092
2.16062
2.34156
2.30425
2.27893
2.25922
2.24939
2.25815
2.25354
2.24146
2.21601
2.17376
2.14633
2.14529
2.23265
2.53075
2.97129
3.2397
3.3323
3.31244
3.25826
3.20745
3.17449
3.1454
3.11632
3.08335
3.04815
3.01031
2.96877
2.92611
2.88615
2.85306
2.82979
2.81072
2.78906
2.76214
2.72563
2.68025
2.63723
2.60865
2.58919
2.57178
2.5548
2.53582
2.51448
2.48903
2.45935
2.42673
2.39081
2.35292
2.32037
2.29257
2.27209
2.257
2.24337
2.23122
2.21591
2.19496
2.15724
2.0987
2.05824
2.04136
2.02927
2.01856
2.0098
2.00418
1.999
1.98916
1.97137
1.93669
1.88581
1.84979
1.83331
1.82192
1.81197
1.80296
1.7956
1.78636
1.77733
1.74546
3.41011
3.13638
2.87947
2.65047
2.42859
2.21794
2.05194
1.90384
1.76911
1.64174
1.54471
1.45461
1.36584
1.30348
1.251
1.19041
1.12852
1.09887
1.06315
1.01586
0.976919
0.951858
0.927107
0.90118
0.872701
0.857877
0.857957
0.864889
0.870734
0.87041
0.872626
0.884731
0.917608
0.974454
1.03565
1.11275
1.14473
1.16727
1.31109
1.77328
2.13888
2.30238
2.34071
2.31617
2.27108
2.25079
2.24748
2.25324
2.24418
2.22763
2.2064
2.18399
2.16557
2.14292
2.12419
2.15853
2.34263
2.73465
3.08312
3.27276
3.25304
3.22096
3.18742
3.15052
3.11539
3.08128
3.04923
3.01681
2.98281
2.94801
2.91046
2.87065
2.83163
2.79903
2.77322
2.74885
2.72133
2.68841
2.6538
2.62036
2.59278
2.57238
2.55479
2.5387
2.52046
2.49905
2.47217
2.43791
2.39944
2.36739
2.34122
2.31271
2.28545
2.26935
2.25571
2.24041
2.22173
2.19766
2.16377
2.1208
2.08083
2.05364
2.03841
2.02746
2.01913
2.01098
1.99935
1.98217
1.9588
1.92991
1.89889
1.87215
1.85007
1.83282
1.82042
1.8108
1.8025
1.79563
1.78363
1.74299
3.47115
3.21951
2.98907
2.77404
2.5522
2.36283
2.20315
2.04989
1.89928
1.7865
1.68208
1.58768
1.49333
1.41127
1.35313
1.29726
1.23709
1.19464
1.16038
1.12134
1.07105
1.03132
1.00587
0.983597
0.95346
0.920861
0.905181
0.898468
0.89064
0.880225
0.873158
0.864669
0.864949
0.873594
0.899681
0.954669
1.03984
1.20789
1.64677
2.07505
2.22702
2.2999
2.30251
2.27994
2.27752
2.26981
2.25783
2.24584
2.22763
2.21368
2.20334
2.19576
2.18349
2.16069
2.1232
2.10401
2.10968
2.20577
2.48929
2.90634
3.15226
3.21707
3.20681
3.16966
3.12222
3.08208
3.05048
3.02449
2.99966
2.97329
2.93963
2.89483
2.84189
2.79723
2.76644
2.74031
2.71723
2.69586
2.67377
2.6453
2.60951
2.57651
2.55319
2.53358
2.51488
2.4964
2.47605
2.45029
2.42181
2.39591
2.36909
2.33853
2.30543
2.27496
2.24961
2.2271
2.20552
2.18319
2.16082
2.13997
2.11682
2.08804
2.05783
2.03748
2.02407
2.01085
1.99316
1.96943
1.94352
1.9209
1.90474
1.88923
1.87081
1.85145
1.83489
1.82076
1.8064
1.7887
1.76769
1.7318
3.5229
3.29267
3.08181
2.87789
2.66553
2.49142
2.33252
2.17538
2.02781
1.91945
1.80758
1.70125
1.60428
1.53516
1.46419
1.39702
1.33762
1.28683
1.23701
1.20176
1.16819
1.12347
1.07643
1.04816
1.02715
1.00229
0.970073
0.934553
0.907214
0.89788
0.895364
0.895048
0.889175
0.878354
0.871684
0.881186
0.969625
1.36545
1.83725
1.98157
2.09525
2.16123
2.1761
2.18934
2.22602
2.25096
2.25324
2.24193
2.21681
2.20237
2.20104
2.19797
2.18376
2.16351
2.13348
2.09823
2.08764
2.08319
2.12253
2.3153
2.67474
2.99368
3.15272
3.13794
3.12167
3.09004
3.05371
3.03748
3.02041
2.99612
2.96543
2.92126
2.86344
2.80549
2.76795
2.74457
2.72577
2.7084
2.68883
2.66676
2.63737
2.59815
2.56058
2.53403
2.51292
2.49318
2.47385
2.45514
2.43657
2.41642
2.39278
2.36402
2.32804
2.28705
2.25246
2.22598
2.2013
2.17838
2.16305
2.15156
2.13942
2.12201
2.0925
2.05664
2.02802
2.00478
1.98311
1.96045
1.93669
1.91996
1.90826
1.89673
1.88409
1.86884
1.85189
1.83249
1.8108
1.78263
1.75455
1.72462
3.56692
3.35743
3.16033
2.96481
2.77063
2.60253
2.44826
2.28408
2.14853
2.03549
1.92667
1.80975
1.71632
1.63982
1.56554
1.48864
1.43571
1.38815
1.33051
1.27005
1.23872
1.20406
1.15463
1.1134
1.09715
1.08088
1.05619
1.02231
0.980354
0.940547
0.929598
0.930511
0.919529
0.900859
0.899092
0.980674
1.30326
1.69587
1.79868
1.84797
1.88264
1.92062
1.96958
2.02594
2.0907
2.14932
2.18032
2.18391
2.18096
2.18511
2.19521
2.19207
2.17751
2.15796
2.13953
2.11533
2.08891
2.07408
2.06859
2.08034
2.16896
2.40613
2.76489
2.98749
3.08667
3.07495
3.06326
3.05984
3.04083
3.01455
2.98797
2.95202
2.89719
2.82868
2.77803
2.75323
2.73428
2.71763
2.70112
2.6817
2.65992
2.63219
2.59303
2.54979
2.51826
2.49563
2.47591
2.45773
2.44021
2.42206
2.4016
2.37622
2.34304
2.3034
2.2658
2.23469
2.20922
2.19003
2.17546
2.16291
2.15107
2.13748
2.11602
2.08021
2.03641
2.00319
1.97789
1.95582
1.94025
1.92919
1.91721
1.90433
1.89247
1.88189
1.86674
1.84271
1.81333
1.78069
1.75065
1.72808
3.6085
3.41584
3.2323
3.04553
2.86408
2.70268
2.54953
2.39298
2.26222
2.14289
2.02927
1.91136
1.82519
1.7448
1.66742
1.58004
1.52033
1.47097
1.4172
1.357
1.31563
1.2798
1.23777
1.18764
1.14805
1.12801
1.11289
1.09334
1.06946
1.03454
0.983882
0.955096
0.942915
0.943921
1.00949
1.35756
1.73014
1.84897
1.85861
1.84707
1.82454
1.81136
1.81542
1.82765
1.8449
1.89176
1.94865
2.00689
2.06099
2.09384
2.11721
2.13069
2.14558
2.1462
2.14
2.12709
2.10275
2.07696
2.05465
2.04879
2.04398
2.06857
2.1951
2.47581
2.79287
2.96503
3.00245
3.023
3.04005
3.03773
3.00663
2.97822
2.9366
2.8803
2.81436
2.76516
2.73892
2.7199
2.70496
2.69045
2.67436
2.65617
2.63049
2.58839
2.5382
2.50313
2.48107
2.46212
2.44357
2.4245
2.40398
2.38037
2.35052
2.31335
2.27763
2.25213
2.23528
2.2199
2.20187
2.18119
2.16193
2.1453
2.12549
2.09343
2.04876
2.00605
1.97848
1.96453
1.95482
1.94503
1.93338
1.91931
1.90114
1.87619
1.85183
1.83066
1.80901
1.7822
1.76316
1.74277
3.64981
3.46952
3.29569
3.11749
2.94861
2.79537
2.6409
2.4906
2.36499
2.24555
2.12579
2.01422
1.9247
1.83852
1.75678
1.67404
1.61446
1.55811
1.49566
1.43142
1.38571
1.34742
1.31289
1.278
1.24116
1.19246
1.14976
1.13759
1.13143
1.11111
1.06621
1.01569
1.00613
1.07042
1.36902
1.83833
1.96056
1.92485
1.89684
1.86989
1.84502
1.82686
1.81416
1.81286
1.81138
1.79973
1.7913
1.79804
1.8239
1.86649
1.91052
1.96434
2.0185
2.07223
2.09442
2.09695
2.08897
2.07076
2.04836
2.02894
2.01821
2.01865
2.02405
2.07294
2.23652
2.53235
2.79236
2.94184
2.97842
2.99224
3.00835
2.99245
2.96207
2.92816
2.87282
2.80393
2.7526
2.72617
2.70759
2.69284
2.68321
2.67023
2.65095
2.62373
2.57822
2.5214
2.48577
2.46598
2.448
2.42974
2.41048
2.38958
2.36422
2.32793
2.28699
2.26748
2.25604
2.2446
2.22982
2.20878
2.18112
2.14989
2.11544
2.08363
2.0541
2.02259
1.99703
1.9828
1.97273
1.96256
1.95035
1.93539
1.91342
1.87992
1.84188
1.81503
1.79705
1.78644
1.77987
1.76381
3.68925
3.52042
3.35227
3.18466
3.0287
2.87655
2.72219
2.58592
2.46118
2.33958
2.21375
2.11423
2.02234
1.93326
1.84135
1.76479
1.70068
1.6379
1.57657
1.51969
1.47077
1.41528
1.36199
1.337
1.31539
1.28093
1.23798
1.1874
1.16121
1.14581
1.12312
1.10333
1.17136
1.49118
1.91592
2.09278
2.06715
2.00105
1.95205
1.9292
1.90691
1.88699
1.8653
1.84059
1.81811
1.80301
1.79286
1.76761
1.73897
1.73093
1.73285
1.75597
1.80106
1.85775
1.92557
1.97197
2.00185
2.01605
2.00907
1.98763
1.98187
1.98637
2.00378
2.013
2.01669
2.08892
2.2798
2.55046
2.76549
2.87038
2.94035
2.96871
2.97982
2.95693
2.92216
2.86983
2.79667
2.74144
2.71403
2.69686
2.68531
2.67751
2.66123
2.63966
2.60764
2.55613
2.50136
2.47042
2.45221
2.43577
2.41935
2.4018
2.38241
2.35425
2.31024
2.28023
2.26846
2.25723
2.24277
2.22505
2.2006
2.16361
2.11904
2.0792
2.05431
2.03878
2.02419
2.00798
1.9924
1.97899
1.96501
1.9489
1.92615
1.88666
1.83936
1.80984
1.79823
1.79098
1.78905
1.77828
3.73469
3.57199
3.40677
3.24894
3.10027
2.94968
2.79994
2.67263
2.54881
2.42519
2.30423
2.20865
2.11159
2.0199
1.92585
1.85727
1.7878
1.71908
1.64506
1.59323
1.54912
1.49936
1.44906
1.39742
1.3532
1.33269
1.31194
1.27371
1.22026
1.18215
1.17322
1.23436
1.5761
2.048
2.20252
2.17987
2.12985
2.07964
2.03927
2.01077
1.98508
1.95711
1.92831
1.90296
1.87589
1.85071
1.82713
1.80012
1.75691
1.72423
1.71732
1.71251
1.70862
1.7115
1.7283
1.75333
1.7833
1.80895
1.83305
1.86808
1.89314
1.91251
1.93279
1.96012
1.98037
1.98998
2.00997
2.08482
2.26788
2.50802
2.71543
2.82792
2.9095
2.94969
2.95003
2.91829
2.86304
2.79455
2.73631
2.70499
2.68793
2.67521
2.6616
2.64133
2.61692
2.58334
2.53425
2.48512
2.45859
2.44205
2.42823
2.41525
2.40002
2.381
2.34973
2.30142
2.26255
2.24661
2.23811
2.22787
2.20943
2.1818
2.14315
2.09624
2.06558
2.0516
2.03958
2.02535
2.00949
1.99246
1.97578
1.9576
1.93119
1.89117
1.8453
1.82001
1.80962
1.80177
1.79912
1.7885
3.77791
3.61723
3.45886
3.31093
3.16513
3.01542
2.87876
2.7541
2.63116
2.50354
2.39648
2.29678
2.19988
2.10126
2.01491
1.94217
1.86672
1.7986
1.72767
1.67152
1.61508
1.56077
1.52011
1.4818
1.43432
1.37608
1.35047
1.32772
1.2888
1.26107
1.33159
1.66046
2.13157
2.30349
2.28904
2.25337
2.21479
2.18127
2.14091
2.09701
2.05996
2.02878
1.99929
1.97085
1.94223
1.91216
1.88467
1.85786
1.82155
1.77041
1.73303
1.71318
1.70209
1.69524
1.69314
1.6951
1.68821
1.67549
1.66755
1.67511
1.70546
1.74385
1.78836
1.83677
1.88759
1.91375
1.92082
1.9343
1.96434
2.04735
2.24227
2.48794
2.68418
2.84931
2.90014
2.9083
2.89978
2.85385
2.79385
2.72898
2.69356
2.67494
2.65734
2.63806
2.61797
2.59632
2.56605
2.51864
2.47195
2.44922
2.43487
2.42339
2.41203
2.39718
2.37704
2.3337
2.27495
2.24239
2.22524
2.21253
2.20126
2.18703
2.16858
2.14296
2.10222
2.06324
2.0486
2.03898
2.02467
2.00414
1.97953
1.95126
1.92187
1.8916
1.86847
1.84955
1.83076
1.81825
1.81307
1.80181
3.82535
3.6685
3.51674
3.37289
3.22864
3.08413
2.95621
2.83161
2.70632
2.58405
2.48343
2.38008
2.28198
2.17999
2.10334
2.02325
1.94739
1.86976
1.80599
1.74926
1.69156
1.63466
1.57428
1.54165
1.50654
1.45655
1.40139
1.36329
1.35287
1.44171
1.83995
2.29074
2.45285
2.41848
2.36371
2.32094
2.29332
2.26403
2.22886
2.185
2.13398
2.09023
2.05599
2.0265
2.00127
1.97687
1.95144
1.92529
1.8929
1.84367
1.78433
1.75111
1.73358
1.71665
1.70068
1.68905
1.68119
1.67505
1.66349
1.62579
1.59862
1.59542
1.6088
1.6423
1.68362
1.73577
1.77491
1.7987
1.82548
1.85164
1.89355
2.02106
2.23913
2.4917
2.6845
2.81475
2.85077
2.85609
2.84144
2.78197
2.72262
2.67347
2.64932
2.63377
2.61882
2.60454
2.58744
2.55703
2.5054
2.46126
2.4439
2.43465
2.42783
2.41306
2.39219
2.35713
2.29952
2.24292
2.21852
2.20661
2.19825
2.19318
2.18374
2.17034
2.14381
2.09803
2.05737
2.02986
2.01123
1.99599
1.97588
1.94775
1.91764
1.90125
1.89021
1.87692
1.86006
1.84139
1.82876
1.80765
3.86766
3.72029
3.57732
3.43399
3.28867
3.15564
3.03055
2.90528
2.77554
2.66645
2.5626
2.46048
2.35438
2.26373
2.1839
2.09998
2.02284
1.94417
1.88564
1.82052
1.76117
1.70253
1.65327