/*--------------------------------*- C++ -*----------------------------------*\
  =========                 |
  \\      /  F ield         | OpenFOAM: The Open Source CFD Toolbox
   \\    /   O peration     | Website:  https://openfoam.org
    \\  /    A nd           | Version:  7
     \\/     M anipulation  |
\*---------------------------------------------------------------------------*/
FoamFile
{
    version     2.0;
    format      ascii;
    class       volScalarField;
    location    "2.4";
    object      T;
}
// * * * * * * * * * * * * * * * * * * * * * * * * * * * * * * * * * * * * * //

dimensions      [0 0 0 1 0 0 0];

internalField   nonuniform List<scalar> 
6300
(
1
1
1
1
1
1
1
1
1
1
1
1
1
1
1
2.12627
2.7119
2.72397
2.73161
2.74153
2.75194
2.76411
2.77801
2.79205
2.80357
2.81143
2.81737
2.82375
2.8305
2.83504
1
1
1
1
1
1
1
1
1
1
1
1
1
1
1
2.10916
2.70813
2.72312
2.73074
2.74066
2.75096
2.763
2.77674
2.79054
2.80173
2.80922
2.81487
2.82105
2.82766
2.83215
1
1
1
1
1
1
1
1
1
1
1
1
1
1
1
2.06765
2.70207
2.72122
2.72887
2.73877
2.74894
2.76092
2.77466
2.78837
2.79921
2.80613
2.81122
2.81699
2.82326
2.8276
1
1
1
1
1
1
1
1
1
1
1
1
1
1
1
2.0024
2.6894
2.71832
2.72618
2.73601
2.7459
2.75766
2.77133
2.78495
2.7955
2.80188
2.80632
2.81147
2.81708
2.82081
1
1
1
1
1
1
1
1
1
1
1
1
1
1
1
1.91028
2.66655
2.71302
2.72117
2.73089
2.74042
2.75182
2.76524
2.77865
2.78884
2.79466
2.79856
2.80356
2.80927
2.81335
1
1
1
1
1
1
1
1
1
1
1
1
1
1
1
1.78869
2.63059
2.70379
2.71276
2.72301
2.73247
2.74346
2.75652
2.76985
2.78011
2.78582
2.78916
2.79346
2.79826
2.80115
1
1
1
1
1
1
1
1
1
1
1
1
1
1
1
1.64033
2.58026
2.69235
2.70232
2.71354
2.72299
2.73355
2.74614
2.75919
2.76906
2.77384
2.77555
2.77844
2.78198
2.78583
1
1
1
1
1
1
1
1
1
1
1
1
1
1
1
1.42833
2.49085
2.67684
2.68885
2.70153
2.71081
2.72068
2.73259
2.74534
2.75504
2.75974
2.76104
2.7623
2.76132
2.75769
1
1
1
1
1
1
1
1
1
1
1
1
1
1
1
1.15741
2.37907
2.67368
2.67362
2.68423
2.69416
2.70422
2.71563
2.72798
2.7374
2.74115
2.7391
2.73316
2.72552
2.71969
1
1
1
1
1
1
1
1
1
1
1
1
1
1
1
1.00739
2.27027
2.65664
2.65953
2.66941
2.6773
2.68515
2.69495
2.70547
2.71384
2.71588
2.71148
2.70321
2.69714
2.70597
1
1
1
1
1
1
1
1
1
1
1
1
1
1
1
1.00001
2.09693
2.63781
2.65157
2.65806
2.66213
2.66667
2.67321
2.67971
2.68566
2.6856
2.67753
2.65691
2.60426
2.49989
1
1
1
1
1
1
1
1
1
1
1
1
1
1
1
1
1.84107
2.57538
2.64057
2.64994
2.65299
2.65349
2.65452
2.65496
2.65581
2.65189
2.63762
2.60245
2.54197
2.37309
1
1
1
1
1
1
1
1
1
1
1
1
1
1
1
1
1.46985
2.44404
2.61543
2.63444
2.64107
2.64062
2.6377
2.63328
2.62755
2.61703
2.59696
2.55475
2.48277
2.30016
1
1
1
1
1
1
1
1
1
1
1
1
1
1
1
1
1.06388
2.28486
2.6028
2.61063
2.61989
2.62254
2.61927
2.61205
2.60114
2.58465
2.55822
2.51466
2.43186
2.27094
1
1
1
1
1
1
1
1
1
1
1
1
1
1
1
1
1.00092
2.09467
2.55136
2.57769
2.59142
2.59799
2.59637
2.58951
2.57626
2.55623
2.52527
2.47951
2.39716
2.27549
1
1
1
1
1
1
1
1
1
1
1
1
1
1
1
1
0.999992
1.70605
2.4605
2.54892
2.56356
2.57404
2.57354
2.56722
2.55317
2.53091
2.49841
2.45115
2.375
2.27791
1
1
1
1
1
1
1
1
1
1
1
1
1
1
1
1
0.999998
1.17287
2.31007
2.54375
2.53852
2.54304
2.54456
2.53973
2.52746
2.50619
2.47466
2.428
2.36069
2.28074
1
1
1
1
1
1
1
1
1
1
1
1
1
1
1
1
1
1.00728
2.12508
2.49521
2.50366
2.51133
2.51341
2.51006
2.5
2.48196
2.45173
2.40808
2.35008
2.28221
1
1
1
1
1
1
1
1
1
1
1
1
1
1
1
1
1
0.999983
1.66433
2.394
2.47968
2.49058
2.48997
2.4853
2.47514
2.45801
2.42966
2.39089
2.34134
2.28332
1
1
1
1
1
1
1
1
1
1
1
1
1
1
1
1
1
0.999994
1.1195
2.22347
2.4721
2.46761
2.4662
2.4604
2.44995
2.43321
2.40747
2.3737
2.33048
2.28065
1
1
1
1
1
1
1
1
1
1
1
1
1
1
1
1
1
0.999999
1.00312
1.91661
2.40262
2.44219
2.43937
2.43596
2.42695
2.41046
2.38671
2.35647
2.31809
2.27494
1
1
1
1
1
1
1
1
1
1
1
1
1
1
1
1
1
1
0.999993
1.27775
2.24404
2.42882
2.41783
2.41362
2.40395
2.38783
2.36588
2.33834
2.30384
2.26578
1
1
1
1
1
1
1
1
1
1
1
1
1
1
1
1
1
1
0.999998
1.01765
2.02407
2.38127
2.38801
2.38516
2.37703
2.36333
2.34397
2.31909
2.28884
2.2554
1
1
1
1
1
1
1
1
1
1
1
1
1
1
1
1
1
1
1
1.00004
1.42916
2.23976
2.37222
2.36173
2.35177
2.33916
2.32237
2.3009
2.27467
2.24491
1
1
1
1
1
1
1
1
1
1
1
1
1
1
1
1
1
1
1
1
1.0446
2.03217
2.34369
2.33696
2.3258
2.31369
2.29843
2.28
2.2579
2.23205
1
1
1
1
1
1
1
1
1
1
1
1
1
1
1
1
1
1
1
1
1.00038
1.43393
2.19423
2.32149
2.30515
2.29207
2.27676
2.26013
2.2413
2.21911
1
1
1
1
1
1
1
1
1
1
1
1
1
1
1
1
1
1
1
1
1
1.047
1.97863
2.29579
2.28546
2.27099
2.25582
2.24021
2.22318
2.20413
1
1
1
1
1
1
1
1
1
1
1
1
1
1
1
1
1
1
1
1
1
1.00046
1.3902
2.13773
2.26964
2.25223
2.23921
2.22431
2.20764
2.18983
1
1
1
1
1
1
1
1
1
1
1
1
1
1
1
1
1
1
1
1
1
1
1.03615
1.84629
2.2357
2.23343
2.2216
2.2075
2.19215
2.17549
1
1
1
1
1
1
1
1
1
1
1
1
1
1
1
1
1
1
1
1
1
1
1.00035
1.27053
2.04716
2.21951
2.20188
2.19038
2.17727
2.16255
1
1
1
1
1
1
1
1
1
1
1
1
1
1
1
1
1
1
1
1
1
1
1
1.01636
1.61952
2.11622
2.19019
2.17593
2.16303
2.14946
1
1
1
1
1
1
1
1
1
1
1
1
1
1
1
1
1
1
1
1
1
1
1
1.00014
1.12322
1.87626
2.16861
2.16092
2.14916
2.13636
1
1
1
1
1
1
1
1
1
1
1
1
1
1
1
1
1
1
1
1
1
1
1
1
1.00349
1.3581
2.0009
2.14215
2.12964
2.11764
1
1
1
1
1
1
1
1
1
1
1
1
1
1
1
1
1
1
1
1
1
1
1
1
1.00002
1.03287
1.62088
2.04842
2.1189
2.10445
1
1
1
1
1
1
1
1
1
1
1
1
1
1
1
1
1
1
1
1
1
1
1
1
1
1.00043
1.13464
1.8044
2.08015
2.09275
1
1
1
1
1
1
1
1
1
1
1
1
1
1
1
1
1
1
1
1
1
1
1
1
1
1
1.00444
1.30894
1.90256
2.06989
1
1
1
1
1
1
1
1
1
1
1
1
1
1
1
1
1
1
1
1
1
1
1
1
1
1
1.00003
1.02466
1.48943
1.95538
1
1
1
1
1
1
1
1
1
1
1
1
1
1
1
1
1
1
1
1
1
1
1
1
1
1
1
1.00031
1.07826
1.64704
1
1
1
1
1
1
1
1
1
1
1
1
1
1
1
1
1
1
1
1
1
1
1
1
1
1
1
1
1.00188
1.17379
1
1
1
1
1
1
1
1
1
1
1
1
1
1
1
1
1
1
1
1
1
1
1
1
1
1
1
1
1.00001
1.00786
1
1
1
1
1
1
1
1
1
1
1
1
1
1
1
1
1
1
1
1
1
1
1
1
1
1
1
1
1
1.00007
1
1
1
1
1
1
1
1
1
1
1
1
1
1
1
1
1
1
1
1
1
1
1
1
1
1
1
1
1
1
1
1
1
1
1
1
1
1
1
1
1
1
1
1
1
1
1
1
1
1
1
1
1
1
1
1
1
1
1
1
1
1
1
1
1
1
1
1
1
1
1
1
1
1
1
1
1
1
1
1
1
1
1
1
1
1
1
1
1
1
1
1
1
1
1
1
1
1
1
1
1
1
1
1
1
1
1
1
1
1
1
1
1
1
1
1
1
1
1
1
1
1
1
1
1
1
1
1
1
1
1
1
1
1
1
1
1
1
1
1
1
1
1
1
1
1
1
1
1
1
1
1
1
1
1
1
1
1
1
1
1
1
1
1
1
1
1
1
1
1
1
1
1
1
1
1
1
1
1
1
1
1
1
1
1
1
1
1
1
1
1
1
1
1
1
1
1
1
1
1
1
1
1
1
1
1
1
1
1
1
1
1
1
1
1
1
1
1
1
1
1
1
1
1
1
1
1
1
1
1
1
1
1
1
1
1
1
1
1
1
1
1
1
1
1
1
1
1
1
1
1
1
1
1
1
1
1
1
1
1
1
1
1
1
1
1
1
1
1
1
1.66413
1.14557
0.825602
0.8552
1.06526
1.22223
1.3127
1.39492
1.45647
1.49578
1.52224
1.57826
1.66468
1.71084
1.71243
1.7088
1.70301
1.7127
1.72689
1.72485
1.70964
1.68644
1.68167
1.69108
1.71392
1.7274
1.72624
1.71528
1.69432
1.68473
1.68607
1.69619
1.7062
1.70728
1.70526
1.69822
1.69061
1.68748
1.68697
1.68696
1.68608
1.68389
1.68203
1.67826
1.67471
1.68215
1.74103
2.13688
2.71605
2.76699
2.73755
2.72316
2.69126
2.64834
2.61334
2.59251
2.57771
2.56532
2.55057
2.53493
2.51817
2.50364
2.49006
2.47562
2.45899
2.44108
2.42342
2.40703
2.39417
2.38403
2.37741
2.37493
2.37101
2.36216
2.35221
2.33774
2.31867
2.30455
2.29605
2.2891
2.28519
2.28362
2.27818
2.26974
2.25731
2.23704
2.21723
2.20484
2.19519
2.18691
2.18122
2.17547
2.16837
2.15981
2.14519
2.12455
2.11007
2.10062
2.09207
2.08553
2.08119
2.07489
2.06786
2.05931
2.04448
2.02414
2.01137
2.00427
1.99767
1.99194
1.98857
1.98525
1.98153
1.97804
1.97104
1.95484
1.93778
1.9305
1.92814
1.92362
1.89169
1.62829
1.44961
1.23298
1.23255
1.24197
1.24017
1.23219
1.22304
1.24053
1.28097
1.33983
1.41317
1.47574
1.50839
1.53457
1.55515
1.57739
1.61484
1.63091
1.63031
1.62786
1.62833
1.63714
1.65615
1.67364
1.67603
1.67008
1.65733
1.65252
1.65363
1.66347
1.67775
1.68097
1.67924
1.67296
1.66183
1.65625
1.65711
1.66107
1.66683
1.66908
1.6667
1.65844
1.66199
1.71384
1.89599
2.0703
2.41927
2.61225
2.65666
2.65293
2.62659
2.59877
2.58023
2.56711
2.55488
2.5406
2.52478
2.51024
2.49628
2.48375
2.47139
2.45838
2.44443
2.42946
2.41433
2.39978
2.38561
2.37419
2.36547
2.35801
2.35068
2.34415
2.33666
2.32723
2.31575
2.30234
2.28994
2.28149
2.275
2.26906
2.26224
2.25498
2.24595
2.2333
2.21874
2.20387
2.19181
2.18312
2.17573
2.16831
2.16056
2.15116
2.13884
2.12292
2.10795
2.09729
2.08885
2.08171
2.07558
2.06887
2.06176
2.05362
2.0419
2.02544
2.01037
2.00139
1.99485
1.98911
1.98466
1.98017
1.97606
1.97201
1.96631
1.955
1.94023
1.92992
1.92653
1.92163
2.00836
1.80219
1.65442
1.51927
1.42979
1.36604
1.28858
1.24088
1.20771
1.17835
1.1903
1.23344
1.27278
1.30107
1.32426
1.35479
1.39069
1.4181
1.45558
1.49746
1.52537
1.5446
1.55734
1.5647
1.57494
1.59374
1.59818
1.5946
1.58985
1.58877
1.58878
1.5926
1.60209
1.61284
1.61883
1.61864
1.6147
1.60614
1.60159
1.60315
1.60962
1.61832
1.6213
1.6324
1.68114
1.85251
2.04627
2.04494
2.09231
2.30757
2.49877
2.56572
2.55458
2.54591
2.52783
2.51229
2.49778
2.48182
2.46895
2.45754
2.44574
2.43342
2.4214
2.40955
2.39747
2.38599
2.37542
2.36578
2.35757
2.34916
2.33787
2.32386
2.31152
2.3018
2.29437
2.29028
2.28639
2.28046
2.27253
2.26125
2.24827
2.23749
2.22923
2.22097
2.21302
2.20731
2.20051
2.19203
2.1815
2.16958
2.15863
2.1492
2.13956
2.12855
2.11714
2.10723
2.09725
2.08649
2.07687
2.06883
2.06122
2.05374
2.04574
2.03659
2.02688
2.01674
2.00527
1.99324
1.98468
1.97853
1.9728
1.96761
1.96272
1.95739
1.95086
1.9436
1.93549
1.92697
1.92083
1.91369
2.07216
1.92057
1.77542
1.65317
1.57959
1.50264
1.42509
1.36602
1.33061
1.28157
1.25557
1.25349
1.24299
1.23706
1.24126
1.25053
1.26836
1.29781
1.33396
1.3781
1.41356
1.43898
1.46436
1.47571
1.48526
1.50197
1.5206
1.53366
1.53841
1.53724
1.5356
1.53541
1.53838
1.54515
1.55171
1.55374
1.5534
1.55091
1.5471
1.54591
1.54838
1.55522
1.57116
1.63888
1.79751
1.98439
2.03566
2.02148
2.00828
2.04337
2.2219
2.38297
2.44624
2.48047
2.47008
2.45444
2.43576
2.41985
2.40996
2.40096
2.39099
2.38035
2.36801
2.35647
2.3453
2.33491
2.32522
2.31726
2.31114
2.30486
2.29606
2.28346
2.26931
2.25711
2.24923
2.24442
2.2415
2.23844
2.23325
2.2244
2.20995
2.19536
2.18496
2.1776
2.17243
2.16893
2.16611
2.16127
2.15429
2.14389
2.13045
2.11784
2.10648
2.09598
2.08806
2.08151
2.07443
2.0659
2.05595
2.04626
2.03787
2.02963
2.02044
2.01083
2.00313
1.99683
1.98981
1.98026
1.96831
1.9588
1.95258
1.94723
1.94178
1.9351
1.92787
1.92288
1.91906
1.9144
1.90862
1.89885
2.12686
2.00017
1.87636
1.76485
1.68754
1.60853
1.52364
1.47799
1.43723
1.38837
1.34881
1.32536
1.29727
1.26196
1.25373
1.24666
1.24893
1.25541
1.26649
1.2872
1.31851
1.34805
1.38128
1.40969
1.42591
1.43788
1.45668
1.47701
1.48714
1.49176
1.49788
1.5013
1.50387
1.50734
1.51179
1.51673
1.51842
1.51732
1.51502
1.51271
1.51397
1.52299
1.58604
1.78797
1.93644
2.0132
2.0146
2.00912
1.99987
1.99225
2.02061
2.15314
2.30925
2.38997
2.43332
2.42883
2.40995
2.39315
2.37794
2.36473
2.35165
2.34153
2.33286
2.3228
2.3119
2.30059
2.28983
2.28077
2.27308
2.26518
2.25514
2.24299
2.23102
2.22063
2.21192
2.20543
2.20056
2.19621
2.19097
2.18179
2.16617
2.15061
2.14178
2.13694
2.13339
2.13162
2.12966
2.12537
2.11974
2.11012
2.0938
2.07794
2.06852
2.06303
2.05858
2.05395
2.04832
2.04117
2.03162
2.01998
2.00879
1.99899
1.99033
1.98374
1.97856
1.97366
1.96822
1.96104
1.95
1.93597
1.92618
1.92036
1.91464
1.9079
1.90223
1.89915
1.89671
1.89385
1.88937
1.87862
2.16594
2.05999
1.94996
1.85578
1.77653
1.70113
1.6186
1.56795
1.52665
1.474
1.43407
1.4081
1.38039
1.34299
1.32055
1.30225
1.28156
1.27004
1.27155
1.27033
1.2711
1.27671
1.29088
1.31612
1.34486
1.36801
1.39434
1.42731
1.44765
1.46026
1.47245
1.48211
1.48354
1.48305
1.48545
1.49061
1.4957
1.49937
1.50013
1.50137
1.5081
1.56074
1.76178
1.93396
1.99873
2.01162
2.00409
1.99599
1.99329
1.99074
1.98234
1.99539
2.09129
2.23997
2.3663
2.39099
2.39736
2.38511
2.36935
2.35162
2.33382
2.32161
2.31308
2.30475
2.29475
2.28259
2.27047
2.25936
2.24893
2.23835
2.22727
2.21707
2.20807
2.19913
2.18983
2.18037
2.17211
2.16523
2.15731
2.14596
2.13269
2.12202
2.11482
2.1093
2.10485
2.10111
2.09668
2.09196
2.08628
2.07614
2.05863
2.04465
2.03963
2.03615
2.03347
2.03029
2.02563
2.01927
2.00909
1.99397
1.9794
1.97012
1.96431
1.95965
1.95609
1.95257
1.94745
1.94138
1.93271
1.91837
1.90218
1.89161
1.88495
1.88067
1.87832
1.8763
1.87419
1.87184
1.86858
1.85853
2.19457
2.1065
2.00909
1.9275
1.85322
1.77445
1.70127
1.64898
1.60181
1.55406
1.51099
1.47729
1.44199
1.40356
1.37647
1.35751
1.33883
1.31648
1.30246
1.2902
1.27826
1.27468
1.2745
1.27645
1.28349
1.29698
1.31796
1.35063
1.38696
1.41398
1.43824
1.46532
1.47236
1.47104
1.4696
1.47132
1.47658
1.48284
1.48883
1.50167
1.57237
1.74624
1.94817
1.99913
2.0075
2.00221
1.9944
1.99137
1.98925
1.98785
1.98276
1.96875
1.97289
2.03061
2.18001
2.30201
2.37066
2.37226
2.36381
2.34434
2.32725
2.31367
2.30366
2.29496
2.28456
2.27192
2.25893
2.24661
2.23432
2.22164
2.21049
2.20235
2.19507
2.1873
2.17859
2.16832
2.15569
2.1418
2.1292
2.11926
2.11148
2.10571
2.10024
2.09412
2.08709
2.07934
2.0716
2.06442
2.05696
2.04676
2.03265
2.02348
2.02028
2.01771
2.01586
2.01346
2.00922
2.0031
1.9908
1.97041
1.9556
1.94959
1.9451
1.94073
1.93771
1.93515
1.93016
1.9245
1.91759
1.9043
1.88354
1.86938
1.86373
1.86047
1.85832
1.85705
1.85475
1.85217
1.84928
1.83976
2.21029
2.13459
2.05537
1.9813
1.9101
1.83448
1.77392
1.72101
1.66688
1.61374
1.57863
1.54273
1.5068
1.47208
1.44063
1.41124
1.3941
1.37962
1.35819
1.33862
1.32378
1.30915
1.29591
1.2876
1.28342
1.28191
1.28379
1.29184
1.31092
1.33647
1.36199
1.39139
1.42016
1.45049
1.46233
1.46173
1.46326
1.46723
1.47998
1.5704
1.77056
1.93629
2.01508
2.00598
1.99838
1.99112
1.98764
1.99062
1.98857
1.98434
1.97612
1.96128
1.95171
1.94639
1.97837
2.08799
2.23452
2.3136
2.33787
2.33278
2.31998
2.30715
2.29668
2.28557
2.27408
2.2618
2.24962
2.23771
2.22559
2.21349
2.20211
2.1927
2.1859
2.17948
2.17111
2.16023
2.14603
2.12932
2.114
2.10416
2.09813
2.09316
2.08818
2.0822
2.07518
2.06667
2.05686
2.04632
2.03539
2.02487
2.01669
2.01011
2.00604
2.00343
2.00111
1.99893
1.99514
1.98881
1.97607
1.95535
1.94076
1.93526
1.93125
1.92714
1.92341
1.92069
1.91788
1.91316
1.90567
1.89198
1.87214
1.85795
1.85152
1.84748
1.8443
1.8416
1.83965
1.8372
1.83474
1.82563
2.22209
2.15431
2.08694
2.02314
1.95589
1.88703
1.83147
1.77896
1.72764
1.67656
1.63757
1.59861
1.55691
1.52747
1.50331
1.47478
1.44311
1.42725
1.40803
1.38214
1.36011
1.34591
1.33192
1.31713
1.29982
1.29025
1.29019
1.29442
1.298
1.29788
1.29927
1.30696
1.32731
1.36131
1.39551
1.43545
1.45113
1.46309
1.54587
1.78494
1.93992
1.99847
2.01907
2.01167
1.99494
1.98416
1.9803
1.9815
1.97717
1.97022
1.96207
1.95281
1.94353
1.93191
1.91662
1.92676
1.99466
2.13111
2.23797
2.29398
2.2991
2.29448
2.28482
2.27201
2.25986
2.24839
2.23755
2.22706
2.2168
2.20685
2.19665
2.18599
2.17515
2.1654
2.1565
2.14689
2.13566
2.12258
2.10879
2.09593
2.08614
2.07953
2.07407
2.06877
2.06243
2.05497
2.04583
2.03475
2.02292
2.01395
2.00741
2.00059
1.99441
1.99184
1.98972
1.98642
1.98134
1.97389
1.9626
1.94801
1.93436
1.92544
1.92042
1.91657
1.91327
1.90972
1.90454
1.89704
1.88752
1.87627
1.8643
1.8541
1.84578
1.83947
1.83507
1.83173
1.82894
1.8268
1.8226
1.8083
2.22716
2.16692
2.10902
2.05156
1.98748
1.92996
1.87964
1.82811
1.77352
1.73145
1.69128
1.65221
1.61145
1.5759
1.55037
1.52416
1.49483
1.47398
1.45674
1.43687
1.41066
1.38904
1.37461
1.36199
1.34501
1.32609
1.31635
1.31205
1.30744
1.30153
1.29731
1.29181
1.2919
1.29701
1.31283
1.34612
1.39533
1.48675
1.72269
1.91612
1.97494
2.00164
2.00165
1.99099
1.98445
1.97697
1.96928
1.96335
1.95611
1.95086
1.94654
1.94175
1.93323
1.91933
1.89977
1.8855
1.88268
1.91673
2.01869
2.15477
2.23758
2.26026
2.26104
2.253
2.24111
2.22957
2.21928
2.21029
2.20235
2.1952
2.18705
2.17623
2.16246
2.14993
2.14045
2.13114
2.12167
2.11212
2.10229
2.09086
2.07744
2.06537
2.05732
2.05108
2.0451
2.03891
2.03198
2.02369
2.01512
2.00802
2.00136
1.99403
1.98588
1.97819
1.97159
1.96551
1.95935
1.95273
1.94608
1.93986
1.93301
1.9237
1.91342
1.90635
1.90141
1.89602
1.88871
1.87934
1.86926
1.86078
1.85503
1.84952
1.84304
1.83612
1.83002
1.82468
1.81906
1.81179
1.80319
1.78892
2.22672
2.17383
2.12304
2.0709
2.01277
1.96345
1.91615
1.86604
1.81575
1.77823
1.73723
1.69589
1.65646
1.62885
1.59898
1.56899
1.54154
1.51785
1.4936
1.47593
1.45936
1.43681
1.41178
1.39612
1.3847
1.37131
1.35321
1.33218
1.31555
1.30977
1.30829
1.30801
1.30437
1.29733
1.29323
1.29961
1.36142
1.5968
1.82135
1.88385
1.92713
1.94223
1.94016
1.93985
1.94658
1.94936
1.94776
1.94187
1.93261
1.92798
1.92697
1.92442
1.91535
1.90198
1.88488
1.86628
1.85711
1.85004
1.86293
1.93304
2.05847
2.15962
2.20898
2.21008
2.21133
2.20514
2.19592
2.19001
2.18395
2.17743
2.1706
2.16088
2.14696
2.13138
2.12063
2.11308
2.1059
2.09853
2.09042
2.08134
2.06987
2.05521
2.04134
2.03203
2.02536
2.01933
2.01361
2.00829
2.0034
1.9985
1.99303
1.98628
1.97709
1.96559
1.9555
1.94793
1.9408
1.93414
1.93015
1.92737
1.92401
1.91856
1.90915
1.89714
1.88719
1.87899
1.87116
1.86279
1.85422
1.84851
1.84475
1.84096
1.83655
1.83124
1.82543
1.8183
1.80959
1.79773
1.78614
1.77296
2.22307
2.17637
2.13036
2.08239
2.03227
1.98737
1.94399
1.89417
1.85126
1.81456
1.77723
1.73441
1.69917
1.66997
1.63988
1.60681
1.58383
1.56297
1.53682
1.50792
1.49252
1.47526
1.45029
1.42863
1.41977
1.41109
1.39809
1.37987
1.35624
1.33256
1.32551
1.32585
1.31928
1.30796
1.30768
1.36425
1.56379
1.75682
1.80353
1.81889
1.82723
1.83551
1.84754
1.86318
1.88257
1.89975
1.9083
1.90602
1.90261
1.90325
1.90516
1.90229
1.89371
1.88245
1.87014
1.85532
1.8415
1.83198
1.82504
1.82647
1.8574
1.94524
2.06426
2.13363
2.16321
2.16759
2.16895
2.16899
2.16394
2.15624
2.14965
2.1417
2.1289
2.11143
2.09766
2.09073
2.08486
2.07902
2.07293
2.06569
2.05711
2.04607
2.03109
2.01517
2.00433
1.99776
1.99284
1.98892
1.9855
1.98196
1.97781
1.97213
1.96374
1.95278
1.94182
1.93241
1.92475
1.91917
1.91495
1.91151
1.9084
1.90464
1.89819
1.88696
1.87278
1.86195
1.85401
1.847
1.84233
1.83911
1.83543
1.83157
1.8281
1.82502
1.81978
1.81062
1.79877
1.78511
1.77261
1.76176
2.21713
2.17578
2.13478
2.09086
2.04629
2.00529
1.96427
1.91961
1.88122
1.84468
1.80776
1.767
1.73698
1.70782
1.67802
1.64226
1.61764
1.59678
1.57311
1.54582
1.52655
1.50943
1.48923
1.46447
1.44382
1.43292
1.42491
1.41482
1.40221
1.38308
1.35406
1.33701
1.32963
1.33076
1.37396
1.58287
1.76461
1.81492
1.81361
1.80587
1.79077
1.77841
1.77176
1.77366
1.77849
1.79486
1.81262
1.83072
1.84781
1.85679
1.86299
1.86168
1.86294
1.86102
1.85376
1.84371
1.82996
1.81591
1.80379
1.7982
1.79333
1.80157
1.84833
1.94749
2.04619
2.10047
2.11551
2.12648
2.13504
2.13497
2.12755
2.12004
2.10954
2.09595
2.07923
2.06597
2.05895
2.05369
2.04921
2.04444
2.0384
2.0306
2.01953
2.00338
1.98578
1.975
1.97007
1.96672
1.96381
1.96082
1.95724
1.95239
1.94505
1.93463
1.92407
1.9165
1.91146
1.90669
1.90107
1.89478
1.88927
1.88508
1.8803
1.87124
1.85784
1.84482
1.83717
1.83407
1.83191
1.82967
1.82682
1.8231
1.81782
1.8095
1.80042
1.79211
1.78333
1.77237
1.76437
1.75447
2.21045
2.17389
2.13669
2.09637
2.05665
2.01933
1.97961
1.93898
1.90439
1.86974
1.83289
1.79689
1.76748
1.73735
1.7071
1.67514
1.65215
1.6295
1.6031
1.57491
1.55442
1.5368
1.52091
1.50487
1.48741
1.46301
1.44056
1.43388
1.43047
1.41969
1.39593
1.36785
1.36292
1.40677
1.58713
1.8048
1.84917
1.83414
1.81922
1.80167
1.78381
1.77022
1.76179
1.75947
1.75548
1.74765
1.73948
1.74015
1.7469
1.75833
1.77116
1.78719
1.80449
1.81832
1.81873
1.81659
1.80846
1.79685
1.785
1.77474
1.76845
1.76643
1.76462
1.78106
1.83992
1.94043
2.02241
2.0697
2.08316
2.09171
2.09941
2.09559
2.08741
2.07836
2.06523
2.0477
2.03377
2.0272
2.0229
2.01901
2.01565
2.01018
2.00151
1.98996
1.97367
1.95555
1.9463
1.94297
1.94047
1.93809
1.93529
1.93159
1.9259
1.91587
1.90343
1.89769
1.89415
1.89029
1.88537
1.87889
1.87061
1.86161
1.85226
1.84462
1.83762
1.82978
1.82361
1.82122
1.8198
1.81804
1.81526
1.8111
1.80393
1.79189
1.77803
1.76823
1.76158
1.75741
1.75448
1.74718
2.20245
2.17075
2.13648
2.10057
2.06563
2.02968
1.99118
1.95638
1.9235
1.88978
1.85259
1.82261
1.7937
1.76398
1.73147
1.70367
1.68007
1.65568
1.6309
1.60754
1.58707
1.56287
1.53869
1.52731
1.51744
1.50137
1.48071
1.45503
1.44106
1.43297
1.42106
1.4109
1.45253
1.63959
1.83439
1.8923
1.8798
1.85201
1.82678
1.81008
1.79466
1.78184
1.77025
1.75792
1.74735
1.73885
1.73313
1.72028
1.70158
1.68944
1.68755
1.69379
1.70682
1.72359
1.74461
1.75655
1.76252
1.76107
1.75534
1.74445
1.73916
1.73826
1.74011
1.74151
1.73919
1.76397
1.83203
1.92254
1.99067
2.02553
2.0469
2.05823
2.06365
2.05819
2.04923
2.0357
2.0171
2.00301
1.99687
1.99324
1.99012
1.98703
1.98038
1.97136
1.95944
1.94304
1.92698
1.91965
1.9168
1.91469
1.91267
1.91009
1.90652
1.89968
1.88675
1.8776
1.8742
1.87037
1.86529
1.85937
1.85193
1.84121
1.82831
1.81809
1.81367
1.81187
1.81052
1.80854
1.80595
1.80335
1.79997
1.79543
1.78793
1.77371
1.7564
1.74622
1.74274
1.74043
1.73956
1.73452
2.19378
2.16607
2.13497
2.10309
2.07134
2.03702
2.00105
1.96995
1.9383
1.90506
1.87075
1.84317
1.81346
1.78413
1.75247
1.72927
1.70477
1.67941
1.65068
1.63055
1.61321
1.59293
1.57183
1.54907
1.52878
1.51934
1.50973
1.49182
1.4658
1.44598
1.44197
1.47714
1.66073
1.87345
1.92355
1.91253
1.89035
1.86713
1.84515
1.82745
1.81205
1.79703
1.78266
1.77006
1.75724
1.74472
1.7315
1.71615
1.69568
1.68024
1.67132
1.66281
1.65502
1.6515
1.65481
1.66075
1.66922
1.67462
1.67748
1.68589
1.69222
1.69599
1.69977
1.70676
1.71092
1.71083
1.71498
1.73997
1.80693
1.88845
1.95263
1.98581
2.01176
2.0284
2.02916
2.02157
2.00708
1.98945
1.97553
1.96843
1.96454
1.96091
1.95605
1.94852
1.93973
1.92879
1.91416
1.90031
1.89445
1.8919
1.89017
1.88866
1.88633
1.88264
1.87479
1.86048
1.84834
1.84332
1.84049
1.83693
1.83125
1.82388
1.81359
1.80068
1.79421
1.79354
1.79318
1.7918
1.78923
1.78573
1.78193
1.77717
1.76889
1.75513
1.73896
1.73044
1.7272
1.7248
1.72388
1.7192
2.18232
2.15771
2.13078
2.10294
2.07361
2.04129
2.01049
1.9811
1.95043
1.9166
1.88757
1.8594
1.83076
1.80027
1.77283
1.74926
1.72355
1.69971
1.67401
1.65358
1.63216
1.61062
1.59435
1.57868
1.55855
1.53255
1.52077
1.51039
1.49225
1.47971
1.52106
1.69129
1.89065
1.94878
1.94103
1.92448
1.90628
1.8884
1.86713
1.84504
1.82667
1.81129
1.79677
1.78264
1.76866
1.75426
1.74023
1.72568
1.70693
1.68205
1.66333
1.6512
1.64217
1.63498
1.62858
1.62455
1.61788
1.61095
1.60169
1.60154
1.60767
1.6184
1.63279
1.64895
1.66426
1.66923
1.66959
1.66992
1.6778
1.70813
1.77857
1.85879
1.91908
1.96788
1.98738
1.99312
1.99063
1.979
1.96392
1.94799
1.93965
1.93514
1.9301
1.92377
1.91702
1.9099
1.90065
1.88725
1.87492
1.87038
1.86802
1.86636
1.86494
1.86263
1.85863
1.84698
1.82868
1.81861
1.81357
1.80974
1.80658
1.80288
1.79907
1.79413
1.78407
1.77489
1.77367
1.7733
1.77124
1.76684
1.76083
1.75282
1.74395
1.73471
1.7276
1.72139
1.7151
1.71131
1.70973
1.70562
2.17028
2.14813
2.12481
2.10062
2.07349
2.04432
2.01722
1.98892
1.95844
1.9271
1.90075
1.87218
1.84414
1.81359
1.7906
1.76541
1.74085
1.71483
1.69329
1.67382
1.65296
1.63165
1.608
1.59533
1.5812
1.56047
1.53657
1.51914
1.51609
1.5642
1.76095
1.93718
1.98718
1.9732
1.95077
1.93217
1.91775
1.90153
1.88278
1.86179
1.83958
1.8204
1.80431
1.78956
1.77634
1.7637
1.75073
1.73701
1.72005
1.69571
1.66695
1.64895
1.63781
1.62737
1.61808
1.61022
1.60387
1.59864
1.59193
1.57491
1.55593
1.54774
1.55097
1.56052
1.5733
1.59156
1.60432
1.60964
1.61535
1.62154
1.63442
1.67973
1.75487
1.83632
1.89803
1.93668
1.95096
1.95512
1.9513
1.93649
1.92122
1.90949
1.90336
1.89881
1.89407
1.88932
1.88404
1.87575
1.86226
1.85102
1.84739
1.8461
1.84575
1.84356
1.83976
1.83131
1.81501
1.79789
1.79084
1.78754
1.7852
1.78428
1.78272
1.7806
1.77505
1.76336
1.75234
1.74611
1.74304
1.7407
1.73654
1.72933
1.72116
1.71739
1.71481
1.71103
1.70579
1.69982
1.69572
1.68966
2.15709
2.13748
2.11725
2.09519
2.07029
2.04516
2.01986
1.99275
1.9626
1.93652
1.91017
1.88295
1.85322
1.8274
1.80424
1.77886
1.75515
1.73005
1.71159
1.68982
1.66924
1.64819
1.63025
1.61193
1.59421
1.57638
1.55563
1.54839
1.60372
1.8017
1.99812
2.03096
2.00795
1.97223
1.95134
1.93806
1.92557
1.90972
1.89353
1.87671
1.85559
1.83098
1.81101
1.79601
1.7828
1.76967
1.75646
1.74304
1.72801
1.70837
1.68302
1.66047
1.64428
1.63084
1.61833
1.60688
1.59843
1.59062
1.58193
1.57055
1.55533
1.53936
1.52501
1.51462
1.5088
1.51018
1.51791
1.5277
1.53757
1.54606
1.55503
1.56618
1.59085
1.64918
1.73197
1.80792
1.86308
1.90694
1.91637
1.91566
1.90935
1.89356
1.88095
1.87576
1.87174
1.8684
1.86429
1.859
1.85102
1.83989
1.82828
1.82225
1.81804
1.8142
1.81136
1.80834
1.80166
1.78932
1.77611
1.77019
1.76707
1.76509
1.76475
1.76284
1.75929
1.75095
1.73537
1.72236
1.71741
1.71465
1.71111
1.70606
1.70458
1.70393
1.70203
1.6986
1.69346
1.68653
1.67991
1.6702
2.14556
2.12748
2.10877
2.08808
2.06526
2.04299
2.0191
1.99272
1.96601
1.94232
1.91652
1.89015
1.86148
1.83937
1.81481
1.79188
1.7665
1.7458
1.72634
1.70493
1.68439
1.66282
1.64712
1.62941
1.60821
1.58764
1.58296
1.64417
1.85306
2.02887
2.06065
2.04835
2.02144
1.98886
1.96066
1.94463
1.93108
1.91554
1.90021
1.88576
1.86859
1.84274
1.81686
1.79997
1.78562
1.77185
1.75855
1.74543
1.73189
1.71621
1.69494
1.66881
1.64871
1.63497
1.62259
1.61047
1.59818
1.58688
1.57707
1.56749
1.55655
1.54202
1.52398
1.50892
1.49833
1.48577
1.477
1.47355
1.47464
1.47707
1.47985
1.48533
1.49252
1.50353
1.53083
1.59683
1.68463
1.77197
1.83635
1.86868
1.8805
1.87749
1.87115
1.86346
1.85583
1.84802
1.84271
1.83894
1.83464
1.82681
1.81341
1.80039
1.79378
1.78994
1.7868
1.78421
1.78183
1.77748
1.76765
1.75504
1.74943
1.74651
1.74362
1.741
1.738
1.73294
1.72307
1.70807
1.69644
1.69062
1.68758
1.68741
1.6883
1.68868
1.68815
1.68573
1.67993
1.67121
1.66286
1.64959
2.13426
2.11748
2.09897
2.07878
2.05861
2.03772
2.01521
1.99015
1.96759
1.94419
1.92023
1.8933
1.87033
1.8484
1.82498
1.80163
1.77771
1.75988
1.73828
1.71853
1.6962
1.6785
1.66092
1.64102
1.62024
1.61709
1.6832
1.89182
2.06826
2.08832
2.07405
2.05442
2.03343
2.00597
1.97213
1.94829
1.93231
1.91826
1.90347
1.88959
1.87489
1.85392
1.82443
1.80254
1.78708
1.77266
1.75921
1.74656
1.73414
1.72109
1.70603
1.68529
1.65838
1.63648
1.6225
1.61126
1.601
1.5902
1.57862
1.56786
1.55738
1.54591
1.53215
1.51536
1.49685
1.4805
1.46818
1.45876
1.45101
1.44643
1.44513
1.44337
1.43873
1.43109
1.42452
1.42978
1.46032
1.53588
1.64375
1.73281
1.80665
1.84179
1.84684
1.84751
1.84398
1.83362
1.82407
1.82111
1.81687
1.80991
1.79985
1.78684
1.77413
1.76888
1.76647
1.76503
1.7639
1.76212
1.75622
1.74212
1.73083
1.72678
1.72285
1.71927
1.71662
1.71345
1.70757
1.69625
1.68007
1.67065
1.66978
1.67023
1.6716
1.67273
1.67268
1.67107
1.66555
1.6546
1.64151
1.62718
2.12207
2.10634
2.08851
2.06936
2.05034
2.03062
2.0091
1.98751
1.96694
1.94481
1.92167
1.89755
1.8779
1.85542
1.83418
1.80928
1.7901
1.77054
1.74963
1.72942
1.70856
1.69217
1.67197
1.65091
1.65404
1.73921
1.94853
2.10126
2.11723
2.09861
2.07501
2.05514
2.0364
2.0134
1.98347
1.95539
1.93708
1.92136
1.90583
1.89097
1.87594
1.85859
1.835
1.80877
1.78933
1.77331
1.75829
1.74442
1.73169
1.71958
1.70734
1.69292
1.67327
1.64852
1.62577
1.60827
1.59581
1.58638
1.57847
1.56991
1.55993
1.54846
1.53593
1.52208
1.50395
1.48257
1.46609
1.45315
1.44363
1.43665
1.43089
1.42392
1.41759
1.4132
1.40247
1.38562
1.37919
1.38446
1.41301
1.48845
1.59696
1.70708
1.76503
1.81369
1.81906
1.81378
1.80751
1.80361
1.79768
1.79183
1.78655
1.77748
1.76402
1.7544
1.75084
1.7483
1.74625
1.74421
1.74031
1.73148
1.71754
1.70656
1.70174
1.69837
1.69502
1.69173
1.68826
1.68242
1.67142
1.65996
1.65417
1.65274
1.65312
1.65401
1.65518
1.65422
1.64995
1.63822
1.62111
1.60538
2.10525
2.09089
2.07523
2.05888
2.04103
2.02193
2.00231
1.98463
1.96499
1.94444
1.92135
1.90223
1.88211
1.86137
1.83914
1.81737
1.79992
1.77875
1.75975
1.73761
1.72055
1.70144
1.68099
1.6884
1.79428
2.02526
2.14972
2.1422
2.11932
2.09542
2.07554
2.05732
2.03703
2.01601
1.99242
1.96483
1.94154
1.92359
1.90703
1.89079
1.87457
1.85801
1.83958
1.81743
1.79348
1.77376
1.75754
1.74283
1.7297
1.71738
1.70519
1.69238
1.67765
1.65963
1.63765
1.61622
1.59852
1.58365
1.57196
1.5617
1.5519
1.54333
1.53481
1.52441
1.50983
1.4913
1.47014
1.45351
1.44305
1.43447
1.42581
1.41706
1.4087
1.39974
1.38874
1.37423
1.36565
1.36117
1.35604
1.35818
1.37736
1.44772
1.54711
1.65203
1.71897
1.77249
1.78538
1.78135
1.77949
1.77788
1.77153
1.76456
1.75586
1.74558
1.73862
1.73568
1.73316
1.72998
1.72564
1.71828
1.70597
1.69143
1.68495
1.68191
1.67875
1.6753
1.6714
1.66643
1.65992
1.65093
1.64063
1.63541
1.63456
1.63423
1.63341
1.63205
1.62918
1.61931
1.60156
1.5877
2.09079
2.07744
2.06345
2.04877
2.03284
2.01505
1.99794
1.98054
1.96211
1.94186
1.92214
1.90423
1.88407
1.86481
1.84224
1.82544
1.80618
1.787
1.7663
1.74675
1.72933
1.70968
1.7213
1.8448
2.07304
2.19495
2.18823
2.15655
2.12436
2.09725
2.07653
2.05774
2.03737
2.01678
1.9959
1.97319
1.94809
1.92498
1.90545
1.88766
1.87081
1.855
1.83923
1.82148
1.80071
1.77806
1.75744
1.73999
1.72483
1.71159
1.69953
1.68823
1.67641
1.66249
1.6459
1.62576
1.60296
1.58376
1.56988
1.55856
1.54754
1.53649
1.52569
1.51558
1.50618
1.49447
1.47757
1.45999
1.44627
1.43542
1.42575
1.41674
1.40772
1.39701
1.38351
1.3666
1.35379
1.3466
1.34245
1.34033
1.33924
1.33735
1.34892
1.39134
1.47852
1.58503
1.66963
1.71898
1.75653
1.76283
1.75928
1.75622
1.75075
1.74202
1.73263
1.72331
1.71649
1.71321
1.71052
1.70664
1.69905
1.68751
1.67616
1.66885
1.66498
1.66185
1.65911
1.65593
1.65139
1.64234
1.62823
1.61814
1.61559
1.61408
1.61217
1.60933
1.60508
1.59859
1.58844
1.5781
2.07933
2.06514
2.05186
2.03802
2.02273
2.00688
1.99157
1.97477
1.95715
1.93784
1.92143
1.90299
1.8848
1.86448
1.84678
1.83027
1.81076
1.79225
1.77085
1.75404
1.73674
1.75362
1.89706
2.10808
2.21476
2.20706
2.17957
2.15622
2.13016
2.10103
2.07682
2.05592
2.03511
2.01466
1.99466
1.97413
1.9517
1.92735
1.90461
1.88456
1.86646
1.84982
1.83426
1.81879
1.80217
1.78354
1.76289
1.74131
1.72194
1.70573
1.69163
1.67936
1.66858
1.65787
1.6456
1.63018
1.61102
1.5882
1.56832
1.55463
1.54292
1.53148
1.52015
1.50888
1.49766
1.48621
1.47391
1.46005
1.44713
1.4364
1.42656
1.4177
1.40958
1.40061
1.38831
1.36928
1.34952
1.34032
1.33526
1.3304
1.32588
1.32147
1.31995
1.31444
1.31405
1.33557
1.41782
1.51976
1.63541
1.68882
1.72076
1.73723
1.73922
1.73801
1.73158
1.71913
1.71059
1.70564
1.70038
1.69301
1.68511
1.6788
1.67045
1.66027
1.65503
1.65187
1.64822
1.64331
1.63687
1.62878
1.61745
1.60559
1.59959
1.59728
1.59498
1.59133
1.58631
1.58021
1.57623
1.57033
2.06395
2.05049
2.03855
2.02566