/*--------------------------------*- C++ -*----------------------------------*\
  =========                 |
  \\      /  F ield         | OpenFOAM: The Open Source CFD Toolbox
   \\    /   O peration     | Website:  https://openfoam.org
    \\  /    A nd           | Version:  9
     \\/     M anipulation  |
\*---------------------------------------------------------------------------*/
FoamFile
{
    format      ascii;
    class       volScalarField;
    location    "0.2";
    object      p;
}
// * * * * * * * * * * * * * * * * * * * * * * * * * * * * * * * * * * * * * //

dimensions      [0 2 -2 0 0 0 0];

internalField   nonuniform List<scalar> 
6400
(
7.64521e-08
-5.93326e-06
-0.000131266
-0.000372461
-0.000700247
-0.00108821
-0.00151317
-0.00195515
-0.00239743
-0.00282614
-0.00322985
-0.00359928
-0.00392689
-0.00420669
-0.00443401
-0.00460515
-0.00471736
-0.00476863
-0.00475765
-0.00468368
-0.0045465
-0.00434633
-0.00408376
-0.0037597
-0.00337533
-0.00293216
-0.00243193
-0.00187661
-0.00126839
-0.000609702
9.67754e-05
0.00084813
0.00164124
0.00247275
0.00333907
0.00423636
0.00516054
0.0061073
0.00707212
0.00805024
0.0090367
0.0100264
0.0110141
0.0119943
0.0129615
0.0139102
0.0148346
0.0157293
0.0165885
0.017407
0.0181793
0.0189004
0.0195654
0.02017
0.0207102
0.0211823
0.0215833
0.0219108
0.022163
0.0223389
0.0224382
0.0224616
0.0224103
0.0222868
0.0220943
0.0218373
0.0215212
0.0211525
0.020739
0.0202898
0.0198155
0.019328
0.018841
0.0183704
0.0179336
0.0175504
0.0172417
0.0170293
0.0169345
0.01695
5.65711e-06
-1.04165e-06
-0.000111907
-0.00031611
-0.000589856
-0.000914338
-0.00127173
-0.001646
-0.00202278
-0.00238984
-0.00273683
-0.00305505
-0.00333733
-0.00357782
-0.00377179
-0.00391552
-0.00400613
-0.00404144
-0.00401994
-0.0039407
-0.00380329
-0.0036077
-0.00335433
-0.00304386
-0.0026773
-0.00225596
-0.00178142
-0.00125546
-0.000680074
-5.75457e-05
0.000609637
0.00131874
0.00206683
0.00285075
0.00366707
0.00451218
0.00538224
0.0062732
0.00718077
0.00810048
0.00902766
0.00995752
0.0108851
0.0118054
0.0127133
0.0136035
0.0144707
0.0153099
0.0161159
0.0168836
0.0176082
0.0182851
0.0189098
0.0194783
0.0199871
0.0204329
0.0208131
0.0211256
0.0213687
0.0215419
0.021645
0.0216788
0.0216447
0.0215452
0.0213835
0.0211638
0.0208914
0.0205726
0.0202147
0.0198261
0.0194166
0.0189971
0.0185797
0.0181782
0.0178073
0.0174829
0.0172209
0.0170366
0.0169496
0.0169655
0.000129365
0.000107813
-3.41068e-06
-0.000191453
-0.000436532
-0.000723779
-0.0010391
-0.00136903
-0.00170136
-0.00202536
-0.00233174
-0.00261259
-0.00286128
-0.00307224
-0.00324089
-0.0033636
-0.00343747
-0.00346033
-0.00343058
-0.00334719
-0.00320961
-0.0030177
-0.00277171
-0.00247218
-0.00211998
-0.00171628
-0.00126249
-0.000760252
-0.000211417
0.000381871
0.00101727
0.00169222
0.00240396
0.00314949
0.00392555
0.0047287
0.00555532
0.00640156
0.00726335
0.00813643
0.00901639
0.0098987
0.0107787
0.0116516
0.0125126
0.0133567
0.014179
0.0149747
0.015739
0.0164671
0.0171545
0.0177969
0.0183902
0.0189308
0.0194152
0.0198407
0.0202047
0.0205054
0.0207415
0.0209123
0.0210181
0.0210595
0.0210381
0.0209562
0.0208171
0.0206249
0.0203845
0.0201018
0.0197838
0.0194383
0.0190742
0.0187015
0.018331
0.0179746
0.0176452
0.0173558
0.0171195
0.0169486
0.0168621
0.0168713
0.00036825
0.000309995
0.000181718
-7.19939e-06
-0.000242561
-0.000512
-0.000803723
-0.00110647
-0.00140986
-0.00170453
-0.00198229
-0.00223609
-0.00245988
-0.00264856
-0.00279787
-0.00290431
-0.00296512
-0.00297821
-0.002942
-0.00285542
-0.00271789
-0.0025292
-0.00228949
-0.00199919
-0.0016591
-0.00127029
-0.000834005
-0.000351749
0.000174713
0.000743371
0.00135202
0.00199826
0.00267947
0.0033928
0.00413516
0.00490327
0.0056937
0.00650276
0.00732658
0.00816107
0.00900207
0.00984526
0.0106862
0.0115203
0.0123431
0.0131497
0.0139355
0.0146961
0.0154266
0.0161228
0.0167803
0.0173951
0.0179633
0.0184815
0.0189465
0.0193557
0.0197067
0.0199979
0.0202281
0.0203968
0.0205042
0.0205511
0.0205389
0.02047
0.0203475
0.0201753
0.019958
0.0197013
0.0194117
0.0190963
0.0187634
0.0184218
0.0180814
0.0177526
0.0174465
0.0171744
0.0169474
0.0167766
0.0166776
0.0166607
0.000695668
0.000583363
0.000425018
0.000223794
-1.34394e-05
-0.000276379
-0.000555125
-0.000840453
-0.00112367
-0.0013968
-0.00165277
-0.00188535
-0.00208918
-0.00225968
-0.00239296
-0.00248582
-0.0025357
-0.0025406
-0.00249903
-0.00240996
-0.0022728
-0.00208729
-0.00185352
-0.00157188
-0.00124306
-0.000868016
-0.000447905
1.58899e-05
0.000521704
0.00106766
0.00165169
0.00227154
0.00292473
0.00360854
0.00432004
0.00505617
0.00581362
0.00658888
0.00737823
0.00817782
0.00898365
0.00979161
0.0105975
0.0113969
0.0121854
0.0129586
0.013712
0.0144413
0.0151421
0.0158101
0.0164412
0.0170317
0.0175778
0.0180764
0.0185243
0.0189192
0.0192588
0.0195415
0.0197664
0.0199329
0.0200412
0.0200922
0.0200873
0.0200288
0.0199194
0.019763
0.0195639
0.0193275
0.0190596
0.018767
0.018457
0.0181377
0.0178177
0.0175063
0.017213
0.0169476
0.0167195
0.0165385
0.0164146
0.0163541
0.00108782
0.00091091
0.000712763
0.000490041
0.000241609
-2.4182e-05
-0.000299005
-0.000575362
-0.000846155
-0.00110477
-0.00134517
-0.00156197
-0.00175054
-0.00190683
-0.00202739
-0.00210936
-0.00215043
-0.00214878
-0.00210303
-0.00201225
-0.00187584
-0.00169356
-0.00146546
-0.00119191
-0.000873531
-0.000511164
-0.000105887
0.000340983
0.000827895
0.00135311
0.00191472
0.00251055
0.00313826
0.00379531
0.00447893
0.00518617
0.00591392
0.0066588
0.00741728
0.00818568
0.00896019
0.00973685
0.0105116
0.0112803
0.0120388
0.0127826
0.0135077
0.0142098
0.0148846
0.0155281
0.0161364
0.0167058
0.0172329
0.0177145
0.0181477
0.0185302
0.0188599
0.0191352
0.0193552
0.0195195
0.0196282
0.0196821
0.0196826
0.0196318
0.0195324
0.0193878
0.0192023
0.0189807
0.0187285
0.0184518
0.0181573
0.0178521
0.017544
0.017241
0.0169514
0.0166834
0.0164453
0.0162452
0.0160872
0.0159715
0.00152364
0.00127612
0.00103179
0.000780543
0.000513351
0.000236955
-4.15941e-05
-0.000316377
-0.000581709
-0.000832157
-0.00106271
-0.00126886
-0.00144663
-0.00159254
-0.00170361
-0.00177738
-0.00181179
-0.00180526
-0.00175658
-0.00166489
-0.00152965
-0.00135066
-0.001128
-0.000861994
-0.000553198
-0.000202399
0.000189383
0.000620922
0.00109078
0.00159731
0.00213872
0.00271301
0.00331793
0.00395108
0.00460986
0.00529146
0.00599291
0.00671099
0.0074423
0.00818335
0.00893048
0.00967989
0.0104277
0.0111699
0.0119024
0.0126211
0.0133219
0.0140008
0.0146535
0.0152763
0.0158653
0.0164171
0.0169282
0.0173957
0.0178166
0.0181887
0.01851
0.018779
0.0189948
0.0191569
0.0192654
0.0193211
0.0193253
0.0192797
0.0191872
0.0190508
0.0188745
0.0186627
0.0184204
0.0181532
0.0178672
0.0175687
0.0172648
0.0169622
0.0166682
0.0163896
0.0161338
0.0159077
0.0157086
0.0155311
0.00198494
0.00166418
0.00136959
0.00108472
0.000793007
0.000499966
0.000211541
-6.77324e-05
-0.000333399
-0.000581106
-0.000806784
-0.00100673
-0.00117765
-0.00131664
-0.0014212
-0.00148922
-0.00151901
-0.00150919
-0.00145874
-0.00136693
-0.00123331
-0.00105773
-0.000840315
-0.000581354
-0.000281378
5.88728e-05
0.000438428
0.000856125
0.00131063
0.00180043
0.00232381
0.00287889
0.00346356
0.00407556
0.00471242
0.00537147
0.00604987
0.00674453
0.00745223
0.00816959
0.0088931
0.0096191
0.0103438
0.0110635
0.0117741
0.0124716
0.0131521
0.0138115
0.014446
0.0150516
0.0156248
0.0161621
0.0166602
0.0171161
0.0175271
0.0178908
0.0182053
0.0184691
0.0186812
0.0188412
0.0189492
0.0190057
0.019012
0.0189697
0.0188813
0.0187498
0.0185787
0.0183722
0.0181348
0.0178716
0.017588
0.0172899
0.0169834
0.0166745
0.0163693
0.0160737
0.015794
0.0155365
0.0152918
0.0150488
0.00245622
0.00206173
0.0017146
0.00139263
0.00107219
0.000757848
0.000454678
0.000166025
-0.000104749
-0.000354253
-0.00057929
-0.000776897
-0.000944425
-0.00107955
-0.00118025
-0.00124478
-0.00127178
-0.00126016
-0.00120905
-0.00111786
-0.000986293
-0.000814279
-0.000601941
-0.00034957
-5.76947e-05
0.000272944
0.000641434
0.0010467
0.0014875
0.00196239
0.00246979
0.00300788
0.00357473
0.0041682
0.00478593
0.00542538
0.00608382
0.00675833
0.00744578
0.00814294
0.00884642
0.00955269
0.0102581
0.010959
0.0116514
0.0123315
0.0129954
0.0136392
0.0142589
0.0148509
0.0154115
0.0159375
0.0164254
0.0168724
0.0172756
0.0176328
0.017942
0.0182018
0.018411
0.0185692
0.0186763
0.0187329
0.01874
0.0186991
0.0186125
0.018483
0.0183138
0.0181086
0.0178717
0.0176076
0.0173213
0.0170182
0.0167034
0.0163825
0.0160605
0.0157425
0.0154343
0.0151413
0.014848
0.0145382
0.0029247
0.0024571
0.00205639
0.00169507
0.00134292
0.00100375
0.000682025
0.000380078
0.000100279
-0.000154815
-0.000382768
-0.000581347
-0.00074852
-0.000882466
-0.000981629
-0.00104471
-0.00107062
-0.00105851
-0.00100774
-0.000917901
-0.000788817
-0.00062048
-0.000413048
-0.000166853
0.000117564
0.000439482
0.000798033
0.00119222
0.00162087
0.00208261
0.00257596
0.00309924
0.00365061
0.00422806
0.00482934
0.00545203
0.0060935
0.00675096
0.00742142
0.00810174
0.00878866
0.00947873
0.0101684
0.0108541
0.0115321
0.0121985
0.0128494
0.013481
0.0140895
0.0146712
0.0152225
0.01574
0.0162206
0.0166612
0.0170589
0.0174116
0.0177171
0.017974
0.0181812
0.0183379
0.0184442
0.0185003
0.0185071
0.0184662
0.0183795
0.0182494
0.0180791
0.0178718
0.0176315
0.0173624
0.017069
0.016756
0.0164283
0.0160905
0.0157472
0.0154025
0.015062
0.0147306
0.0143869
0.0140101
0.00337961
0.00284013
0.00238563
0.00198359
0.00159762
0.00123104
0.000887841
0.000569483
0.000277525
1.37308e-05
-0.000220151
-0.000422512
-0.000591896
-0.000727012
-0.000826736
-0.000890134
-0.000916436
-0.000905041
-0.000855535
-0.000767689
-0.000641446
-0.000476874
-0.00027419
-3.37818e-05
0.000243793
0.00055784
0.000907537
0.00129193
0.00170992
0.0021602
0.00264139
0.00315192
0.00369008
0.00425394
0.00484135
0.00545
0.00607739
0.00672082
0.00737742
0.00804415
0.00871784
0.00939513
0.0100726
0.0107467
0.0114138
0.0120699
0.0127114
0.0133343
0.0139349
0.0145096
0.0150547
0.0155669
0.0160429
0.0164795
0.0168741
0.0172241
0.0175277
0.0177831
0.0179891
0.018145
0.0182505
0.0183058
0.0183117
0.0182695
0.0181809
0.0180483
0.0178743
0.017662
0.017415
0.0171373
0.0168329
0.0165062
0.0161614
0.0158027
0.0154342
0.0150593
0.0146836
0.0143116
0.0139167
0.0134734
0.00381174
0.00320201
0.00269396
0.00225042
0.00182924
0.00143339
0.00106652
0.000729338
0.000422682
0.00014767
-9.45999e-05
-0.000303104
-0.000476908
-0.000615199
-0.000717275
-0.000782539
-0.000810522
-0.000800894
-0.000753469
-0.000668182
-0.00054508
-0.000384332
-0.000186237
4.87607e-05
0.000320093
0.000627095
0.000968976
0.00134482
0.00175356
0.002194
0.00266486
0.00316466
0.00369177
0.00424437
0.0048204
0.00541765
0.00603373
0.00666606
0.00731183
0.00796811
0.00863179
0.00929962
0.00996824
0.0106342
0.0112938
0.0119432
0.0125786
0.0131963
0.0137924
0.0143633
0.0149053
0.0154151
0.0158892
0.0163245
0.0167183
0.0170679
0.0173713
0.0176266
0.0178326
0.0179883
0.0180933
0.0181478
0.0181523
0.0181079
0.0180162
0.0178792
0.0176994
0.0174796
0.0172232
0.0169338
0.0166151
0.0162712
0.0159059
0.0155229
0.015126
0.0147181
0.0143049
0.0138908
0.013444
0.0129351
0.00421313
0.00353488
0.00297383
0.00248848
0.00203123
0.00160478
0.00121259
0.000854747
0.000531423
0.000243151
-9.52885e-06
-0.000226117
-0.000406186
-0.000549353
-0.000655294
-0.000723736
-0.000754516
-0.000747578
-0.000702937
-0.000620667
-0.000500942
-0.000344055
-0.000150394
7.95698e-05
0.000345265
0.000646025
0.000981077
0.00134954
0.00175041
0.00218259
0.00264487
0.00313587
0.00365403
0.00419761
0.00476466
0.00535306
0.00596054
0.00658459
0.00722246
0.00787131
0.00852813
0.00918975
0.00985286
0.010514
0.0111695
0.0118155
0.0124483
0.0130641
0.013659
0.0142294
0.0147715
0.0152818
0.0157569
0.0161935
0.0165889
0.0169402
0.0172453
0.0175022
0.0177093
0.0178658
0.0179709
0.0180248
0.0180277
0.0179805
0.0178846
0.0177419
0.0175546
0.0173253
0.0170572
0.0167535
0.0164178
0.0160537
0.0156648
0.0152548
0.0148267
0.0143836
0.0139309
0.0134734
0.0129745
0.0124008
0.00457681
0.00383171
0.00321843
0.00269125
0.00219741
0.0017395
0.00132081
0.000940891
0.00059936
0.000296218
3.15078e-05
-0.000194766
-0.000382626
-0.000532071
-0.000643122
-0.000715853
-0.000750397
-0.000746923
-0.000705623
-0.000626737
-0.000510588
-0.000357578
-0.000168161
5.71588e-05
0.0003178
0.00061309
0.000942264
0.00130448
0.00169882
0.00212426
0.00257966
0.0030637
0.00357492
0.00411164
0.00467203
0.00525407
0.00585556
0.00647404
0.00710687
0.00775126
0.00840431
0.00906289
0.00972373
0.0103834
0.0110381
0.0116841
0.0123177
0.0129349
0.0135319
0.014105
0.0146503
0.0151642
0.0156431
0.0160839
0.0164833
0.0168387
0.0171475
0.0174077
0.0176175
0.0177758
0.0178819
0.0179356
0.0179369
0.0178867
0.017786
0.0176365
0.0174403
0.0171999
0.0169181
0.0165979
0.0162428
0.015856
0.0154411
0.0150015
0.0145401
0.0140597
0.0135661
0.0130641
0.0125128
0.0118749
0.00489652
0.00408615
0.00342144
0.00285264
0.00232201
0.00183207
0.00138605
0.000983015
0.000622113
0.000302847
2.48017e-05
-0.000212448
-0.000409309
-0.000566162
-0.000683372
-0.000761326
-0.000800417
-0.000801024
-0.000763521
-0.000688321
-0.000575889
-0.000426725
-0.000241336
-2.02577e-05
0.000235901
0.000526456
0.000850666
0.00120775
0.00159685
0.00201701
0.00246715
0.00294602
0.00345221
0.00398419
0.00454019
0.00511826
0.00571626
0.00633183
0.00696238
0.00760524
0.00825755
0.00891621
0.00957795
0.0102393
0.0108966
0.0115459
0.0121836
0.0128056
0.0134081
0.0139872
0.0145388
0.0150594
0.0155452
0.0159929
0.0163991
0.0167609
0.0170757
0.0173411
0.0175553
0.0177169
0.017825
0.0178791
0.0178793
0.017826
0.0177201
0.0175632
0.0173572
0.0171043
0.0168071
0.0164687
0.0160921
0.0156807
0.0152376
0.0147662
0.0142695
0.0137502
0.0132142
0.0126668
0.0120626
0.011361
0.00516663
0.00429244
0.0035771
0.00296696
0.00239951
0.00187723
0.00140333
0.00097645
0.000595287
0.000258935
-3.34465e-05
-0.000282669
-0.0004895
-0.000654673
-0.00077889
-0.00086282
-0.000907078
-0.000912247
-0.000878901
-0.000807625
-0.000699002
-0.000553601
-0.000371986
-0.000154746
9.74783e-05
0.000384013
0.000704157
0.00105719
0.0014423
0.00185857
0.002305
0.00278039
0.00328345
0.00381271
0.00436649
0.00494289
0.00553986
0.00615509
0.00678611
0.00743029
0.00808482
0.00874661
0.00941238
0.0100786
0.0107417
0.0113978
0.0120429
0.0126732
0.0132845
0.0138728
0.0144341
0.0149646
0.0154604
0.0159179
0.0163336
0.0167045
0.0170276
0.0173004
0.0175209
0.0176874
0.0177988
0.0178545
0.0178541
0.017798
0.017687
0.0175223
0.0173057
0.0170394
0.0167257
0.0163676
0.0159679
0.0155298
0.0150568
0.0145519
0.0140182
0.0134583
0.0128786
0.0122848
0.0116273
0.010862
0.00538195
0.0044452
0.00367998
0.00302887
0.0024247
0.00186994
0.0013678
0.000916568
0.00051451
0.000160351
-0.000147118
-0.000409061
-0.000626612
-0.000800842
-0.000932741
-0.00102322
-0.00107311
-0.00108322
-0.00105431
-0.000987125
-0.000882327
-0.000740558
-0.000562457
-0.000348664
-9.9831e-05
0.000183396
0.00050036
0.000850377
0.00123268
0.0016464
0.0020906
0.00256417
0.0030659
0.00359439
0.00414803
0.00472499
0.00532329
0.00594072
0.00657487
0.00722317
0.00788282
0.00855073
0.00922363
0.00989802
0.0105702
0.0112363
0.0118923
0.0125341
0.0131577
0.0137587
0.0143331
0.0148767
0.0153857
0.0158562
0.0162845
0.0166672
0.0170012
0.0172838
0.0175127
0.017686
0.0178023
0.0178608
0.0178608
0.0178026
0.0176867
0.0175142
0.0172868
0.0170063
0.0166752
0.0162961
0.0158719
0.0154059
0.0149012
0.0143612
0.0137888
0.0131869
0.0125622
0.0119209
0.0112093
0.01038
0.00553757
0.00453936
0.00372499
0.00303327
0.00239253
0.00180527
0.00127472
0.000798793
0.000375408
2.94898e-06
-0.000320139
-0.000595377
-0.000824234
-0.00100807
-0.00114814
-0.00124558
-0.00130147
-0.00131682
-0.00129256
-0.00122953
-0.0011285
-0.000990216
-0.000815368
-0.000604625
-0.000358629
-7.80002e-05
0.000236632
0.000584617
0.000965229
0.00137767
0.00182107
0.00229441
0.00279653
0.00332612
0.00388162
0.0044613
0.00506325
0.00568534
0.00632523
0.00698037
0.00764798
0.00832498
0.00900808
0.00969377
0.0103783
0.0110578
0.0117281
0.012385
0.0130242
0.0136414
0.0142323
0.0147927
0.0153183
0.015805
0.016249
0.0166465
0.0169943
0.0172894
0.0175291
0.0177114
0.0178345
0.0178973
0.0178991
0.0178397
0.0177195
0.0175396
0.0173012
0.0170063
0.0166571
0.0162561
0.0158064
0.0153111
0.0147734
0.0141968
0.0135842
0.0129387
0.0122677
0.0115777
0.0108111
0.00991687
0.00562881
0.00457007
0.00370716
0.00297524
0.00229815
0.00167846
0.00111941
0.000618605
0.000173641
-0.000217442
-0.000556532
-0.000845489
-0.00108607
-0.0012799
-0.00142847
-0.00153319
-0.00159535
-0.00161614
-0.00159663
-0.00153777
-0.00144044
-0.00130547
-0.00113359
-0.000925479
-0.000681767
-0.000403056
-8.99511e-05
0.000256931
0.000636925
0.0010493
0.00149327
0.00196788
0.00247205
0.00300451
0.00356381
0.0041483
0.00475614
0.0053853
0.00603346
0.00669811
0.00737647
0.00806548
0.00876183
0.00946201
0.0101622
0.0108584
0.0115465
0.012222
0.0128805
0.0135175
0.0141286
0.0147092
0.015255
0.0157614
0.0162245
0.0166402
0.0170049
0.0173153
0.0175686
0.0177623
0.0178945
0.0179636
0.0179687
0.0179094
0.0177859
0.017599
0.0173501
0.0170407
0.016673
0.0162496
0.0157734
0.0152477
0.0146758
0.0140611
0.013407
0.0127165
0.0119976
0.0112576
0.0104347
0.0094743
0.00565114
0.00453265
0.00362176
0.00284999
0.00213681
0.0014848
0.000897277
0.000371551
-9.51266e-05
-0.00050504
-0.000860394
-0.00116334
-0.0014159
-0.00161997
-0.00177729
-0.00188952
-0.00195813
-0.00198447
-0.00196974
-0.00191502
-0.00182129
-0.00168943
-0.00152022
-0.00131432
-0.00107236
-0.000794924
-0.000482589
-0.000135924
0.000244472
0.000657948
0.00110377
0.00158107
0.00208884
0.00262589
0.00319085
0.00378217
0.00439809
0.00503663
0.00569554
0.00637231
0.00706417
0.00776808
0.00848074
0.00919859
0.00991776
0.0106341
0.0113434
0.0120411
0.0127226
0.0133832
0.0140182
0.0146229
0.0151926
0.0157225
0.0162083
0.0166456
0.0170307
0.0173597
0.0176296
0.0178376
0.0179812
0.0180589
0.0180692
0.0180116
0.0178862
0.0176934
0.0174344
0.0171107
0.0167245
0.0162783
0.0157751
0.015218
0.0146107
0.0139567
0.0132596
0.0125226
0.0117544
0.0109628
0.0100819
0.00905367
0.00560016
0.00442254
0.00346414
0.00265287
0.00190384
0.0012197
0.000603815
5.31956e-05
-0.000435248
-0.000864094
-0.00123584
-0.0015529
-0.00181759
-0.00203206
-0.00219831
-0.00231817
-0.00239332
-0.00242525
-0.0024153
-0.00236467
-0.00227442
-0.00214546
-0.00197859
-0.0017745
-0.00153379
-0.00125702
-0.000944743
-0.000597459
-0.000215701
0.000199958
0.000648857
0.00113019
0.00164304
0.0021863
0.00275871
0.00335881
0.00398492
0.0046351
0.00530714
0.00599857
0.00670665
0.00742834
0.00816034
0.00889903
0.00964049
0.0103805
0.0111146
0.0118382
0.0125464
0.0132345
0.0138974
0.0145301
0.0151277
0.015685
0.0161974
0.0166602
0.0170693
0.0174205
0.0177104
0.0179357
0.0180938
0.0181826
0.0182005
0.0181467
0.0180209
0.0178234
0.0175553
0.017218
0.0168135
0.0163443
0.0158135
0.0152244
0.0145807
0.0138862
0.0131445
0.0123595
0.0115403
0.0106954
0.00975468
0.00865631
0.00547151
0.00423527
0.00322976
0.00237929
0.00159469
0.000878642
0.000234543
-0.000340901
-0.000851081
-0.00129886
-0.00168701
-0.00201824
-0.00229513
-0.00252009
-0.00269534
-0.0028229
-0.00290462
-0.00294214
-0.00293694
-0.00289032
-0.00280339
-0.0026771
-0.00251227
-0.00230959
-0.00206966
-0.00179301
-0.00148012
-0.00113144
-0.00074742
-0.000328569
0.000124527
0.000611152
0.00113047
0.0016815
0.00226307
0.00287381
0.00351211
0.00417609
0.0048636
0.00557219
0.00629916
0.00704148
0.00779583
0.00855855
0.00932562
0.0100927
0.0108553
0.0116086
0.0123475
0.0130671
0.013762
0.0144269
0.0150565
0.0156455
0.0161887
0.0166812
0.0171183
0.0174956
0.0178092
0.0180554
0.0182312
0.0183342
0.0183624
0.0183147
0.0181905
0.0179901
0.0177141
0.017364
0.0169416
0.0164496
0.015891
0.0152693
0.0145882
0.013852
0.0130645
0.0122298
0.0113577
0.0104576
0.00945477
0.00828361
0.00526083
0.0039664
0.00291412
0.00202476
0.00120486
0.000457109
-0.000215036
-0.000815172
-0.00134698
-0.0018136
-0.00221811
-0.00256349
-0.00285259
-0.00308806
-0.00327231
-0.00340758
-0.00349585
-0.00353894
-0.00353843
-0.00349571
-0.00341194
-0.0032881
-0.00312502
-0.00292339
-0.00268381
-0.00240675
-0.00209264
-0.00174184
-0.00135475
-0.000931791
-0.000473461
1.96159e-05
0.000546714
0.00110696
0.0016993
0.00232245
0.00297486
0.00365472
0.00435993
0.00508812
0.00583661
0.00660238
0.00738208
0.008172
0.00896804
0.00976579
0.0105606
0.0113474
0.0121211
0.0128763
0.0136075
0.014309
0.0149751
0.0156002
0.0161788
0.0167054
0.017175
0.0175827
0.0179241
0.0181952
0.0183924
0.018513
0.0185546
0.0185158
0.0183958
0.0181944
0.0179122
0.0175505
0.0171111
0.0165966
0.0160101
0.0153553
0.0146362
0.0138572
0.0130224
0.0121361
0.0112092
0.0102517
0.00918419
0.00793709
0.00496382
0.00361151
0.00251276
0.00158478
0.000729816
-4.94097e-05
-0.000749404
-0.00137404
-0.0019273
-0.00241264
-0.00283341
-0.00319288
-0.00349414
-0.00374006
-0.00393328
-0.0040762
-0.004171
-0.00421961
-0.00422371
-0.00418476
-0.00410396
-0.00398235
-0.00382076
-0.00361988
-0.00338026
-0.00310232
-0.00278642
-0.00243288
-0.00204199
-0.00161409
-0.00114959
-0.000649
-0.000112914
0.000457911
0.00106252
0.00169971
0.00236804
0.00306576
0.00379085
0.00454101
0.00531359
0.00610558
0.0069136
0.00773388
0.00856227
0.00939425
0.010225
0.0110494
0.011862
0.0126572
0.0134292
0.0141719
0.0148793
0.0155454
0.0161641
0.0167297
0.0172365
0.0176793
0.0180531
0.0183534
0.0185763
0.0187184
0.0187771
0.0187505
0.0186374
0.0184375
0.0181511
0.0177793
0.017324
0.0167876
0.0161735
0.0154854
0.0147275
0.0139046
0.013021
0.0120815
0.0110976
0.0100802
0.00894513
0.00761845
0.00457614
0.00316619
0.00202122
0.00105485
0.000165045
-0.00064542
-0.00137303
-0.00202193
-0.00259646
-0.00310035
-0.00353725
-0.00391068
-0.00422399
-0.00448028
-0.00468238
-0.00483289
-0.00493414
-0.00498819
-0.00499679
-0.00496147
-0.0048835
-0.00476392
-0.00460359
-0.00440318
-0.00416317
-0.00388394
-0.00356579
-0.00320895
-0.00281363
-0.00238007
-0.00190857
-0.0013995
-0.000853327
-0.000270695
0.000347552
0.00100032
0.00168626
0.00240372
0.00315078
0.00392519
0.00472436
0.00554528
0.00638455
0.00723836
0.00810248
0.00897233
0.00984293
0.010709
0.0115648
0.0124045
0.013222
0.0140108
0.0147645
0.0154766
0.0161407
0.0167505
0.0172998
0.0177828
0.0181941
0.0185285
0.0187817
0.0189497
0.0190296
0.0190189
0.0189162
0.0187207
0.0184325
0.0180526
0.0175827
0.0170255
0.0163841
0.0156626
0.0148655
0.0139975
0.0130636
0.0120689
0.0110258
0.00994591
0.00874001
0.00732966
0.00409342
0.00262599
0.00143497
0.000430418
-0.000493976
-0.00133543
-0.00209039
-0.00276335
-0.00335893
-0.00388118
-0.00433402
-0.00472125
-0.00504646
-0.00531297
-0.00552385
-0.00568186
-0.00578946
-0.00584883
-0.00586181
-0.00583
-0.0057547
-0.005637
-0.00547774
-0.00527754
-0.00503686
-0.004756
-0.0044352
-0.00407461
-0.00367433
-0.0032345
-0.00275526
-0.00223686
-0.00167964
-0.0010841
-0.00045098
0.000218758
0.000923876
0.00166285
0.00243385
0.00323472
0.0040629
0.00491538
0.00578878
0.00667925
0.00758252
0.0084939
0.00940829
0.0103202
0.0112237
0.0121126
0.0129804
0.0138204
0.0146257
0.0153893
0.0161044
0.016764
0.0173615
0.0178903
0.0183445
0.0187185
0.0190072
0.0192061
0.0193118
0.0193213
0.0192328
0.0190451
0.018758
0.0183724
0.0178899
0.017313
0.0166451
0.0158904
0.0150534
0.0141395
0.0131539
0.0121019
0.0109971
0.00985189
0.00857158
0.007073
0.00351117
0.00198639
0.000749491
-0.000293044
-0.00125179
-0.00212399
-0.00290606
-0.00360283
-0.00421923
-0.00475961
-0.00522817
-0.00562899
-0.00596591
-0.0062425
-0.00646202
-0.00662738
-0.00674121
-0.00680576
-0.00682299
-0.00679457
-0.00672183
-0.00660586
-0.00644749
-0.00624732
-0.00600573
-0.00572299
-0.00539924
-0.00503454
-0.00462888
-0.00418225
-0.00369466
-0.00316621
-0.00259711
-0.00198772
-0.00133863
-0.000650669
7.50727e-05
0.000837203
0.00163401
0.00246341
0.00332289
0.0042095
0.00511985
0.00605009
0.0069959
0.0079525
0.00891466
0.00987667
0.0108324
0.0117753
0.0126987
0.0135952
0.0144577
0.0152787
0.0160507
0.0167662
0.0174179
0.0179987
0.018502
0.0189214
0.0192513
0.0194868
0.0196235
0.0196581
0.0195881
0.0194121
0.0191296
0.0187411
0.0182482
0.0176533
0.0169599
0.0161722
0.0152952
0.0143345
0.0132955
0.0121843
0.0110152
0.00980164
0.00844301
0.00685121
0.00282489
0.00124285
-3.97928e-05
-0.00112012
-0.00211301
-0.00301572
-0.00382467
-0.00454499
-0.00518196
-0.0057402
-0.00622422
-0.0066384
-0.00698682
-0.00727329
-0.00750125
-0.00767381
-0.00779369
-0.00786328
-0.00788465
-0.00785949
-0.0077892
-0.00767485
-0.00751725
-0.00731694
-0.0070743
-0.0067895
-0.00646258
-0.00609351
-0.00568213
-0.00522829
-0.00473185
-0.00419278
-0.00361111
-0.00298708
-0.00232108
-0.00161378
-0.000866111
-7.93233e-05
0.000744996
0.00160486
0.00249783
0.00342101
0.00437105
0.00534411
0.00633583
0.00734136
0.00835531
0.0093718
0.0103844
0.0113864
0.0123706
0.0133294
0.014255
0.0151394
0.0159746
0.0167525
0.0174651
0.0181045
0.0186635
0.019135
0.0195126
0.0197906
0.0199642
0.0200294
0.0199831
0.0198234
0.0195494
0.0191614
0.0186607
0.0180499
0.0173323
0.0165123
0.0155952
0.0145868
0.0134931
0.0123205
0.0110844
0.00979914
0.00835799
0.00666749
0.00203002
0.000390768
-0.000937502
-0.00205546
-0.00308231
-0.00401531
-0.00485089
-0.00559448
-0.00625171
-0.00682753
-0.00732675
-0.00775402
-0.0081137
-0.00840981
-0.00864599
-0.00882552
-0.00895127
-0.00902577
-0.00905114
-0.00902914
-0.00896118
-0.00884834
-0.0086914
-0.00849089
-0.0082471
-0.00796013
-0.00762992
-0.00725629
-0.00683896
-0.00637762
-0.00587198
-0.00532185
-0.00472711
-0.00408777
-0.00340407
-0.00267647
-0.00190574
-0.00109296
-0.000239591
0.000652511
0.00158101
0.0025431
0.00353549
0.00455436
0.00559532
0.00665345
0.00772324
0.00879861
0.00987295
0.0109392
0.0119897
0.0130166
0.0140115
0.0149659
0.0158711
0.0167183
0.0174989
0.0182042
0.0188261
0.0193568
0.0197891
0.0201166
0.0203336
0.0204355
0.0204185
0.0202803
0.0200195
0.0196359
0.0191308
0.0185064
0.0177663
0.016915
0.0159578
0.0149012
0.0137514
0.0125153
0.0112093
0.00984893
0.00832072
0.0065256
0.00112191
-0.000574522
-0.00194834
-0.00310381
-0.00416443
-0.00512749
-0.00598942
-0.006756
-0.0074332
-0.00802629
-0.0085404
-0.00898047
-0.0093511
-0.00965656
-0.00990069
-0.010087
-0.0102184
-0.0102976
-0.0103268
-0.0103079
-0.0102421
-0.0101307
-0.0099744
-0.00977365
-0.00952868
-0.0092395
-0.00890593
-0.00852765
-0.00810424
-0.00763524
-0.00712019
-0.00655873
-0.00595052
-0.0052954
-0.00459337
-0.00384468
-0.00304993
-0.00221001
-0.00132622
-0.000400266
0.000565657
0.00156886
0.00260613
0.00367369
0.00476714
0.00588151
0.00701116
0.00814986
0.00929078
0.0104265
0.0115491
0.0126502
0.013721
0.0147522
0.0157346
0.0166585
0.0175147
0.0182936
0.0189863
0.0195841
0.0200789
0.0204634
0.0207311
0.0208766
0.0208955
0.0207846
0.0205422
0.0201676
0.0196618
0.019027
0.0182666
0.0173851
0.0163884
0.0152831
0.0140758
0.0127741
0.0113953
0.00995608
0.00833599
0.00642988
9.58539e-05
-0.00165778
-0.0030771
-0.00426995
-0.00536416
-0.00635705
-0.00724506
-0.00803432
-0.00873117
-0.00934121
-0.00986987
-0.0103224
-0.0107036
-0.0110181
-0.0112699
-0.0114626
-0.0115995
-0.0116832
-0.0117161
-0.0117
-0.0116364
-0.0115264
-0.0113706
-0.0111696
-0.0109235
-0.0106321
-0.0102952
-0.00991227
-0.00948277
-0.00900607
-0.00848155
-0.0079086
-0.00728672
-0.00661547
-0.00589464
-0.00512427
-0.00430474
-0.00343673
-0.00252135
-0.00156012
-0.000555048
0.00049131
0.00157585
0.00269485
0.00384394
0.0050181
0.00621162
0.00741812
0.00863053
0.00984117
0.0110417
0.0122234
0.0133767
0.014492
0.015559
0.0165677
0.0175077
0.0183686
0.0191406
0.019814
0.0203798
0.0208297
0.0211562
0.021353
0.0214149
0.0213381
0.0211201
0.0207598
0.0202578
0.0196161
0.0188379
0.0179281
0.0168926
0.0157383
0.0144724
0.0131028
0.0116483
0.0101264
0.00840931
0.0063854
-0.00105295
-0.00286383
-0.00432861
-0.00555872
-0.00668635
-0.00770883
-0.00862266
-0.0094343
-0.0101505
-0.0107771
-0.0113199
-0.0117844
-0.0121758
-0.012499
-0.012758
-0.0129569
-0.0130989
-0.0131869
-0.0132232
-0.0132099
-0.0131483
-0.0130395
-0.0128844
-0.0126831
-0.0124359
-0.0121424
-0.0118022
-0.0114147
-0.0109792
-0.0104949
-0.00996094
-0.00937652
-0.00874087
-0.00805334
-0.00731344
-0.006521
-0.00567613
-0.0047793
-0.00383136
-0.00283361
-0.00178787
-0.000696505
0.000437511
0.00161054
0.00281828
0.00405569
0.00531701
0.00659573
0.0078846
0.00917563
0.0104602
0.0117289
0.0129718
0.0141786
0.0153384
0.0164402
0.0174726
0.0184246
0.0192851
0.0200434
0.0206895
0.0212139
0.0216081
0.0218648
0.0219779
0.0219427
0.0217559
0.021416
0.020923
0.0202786
0.019486
0.01855
0.0174767
0.0162735
0.014948
0.0135085
0.0119751
0.0103666
0.00854702
0.00639806
-0.00232934
-0.00419754
-0.00570776
-0.00697506
-0.00813594
-0.00918781
-0.0101272
-0.0109609
-0.0116959
-0.0123387
-0.0128952
-0.0133713
-0.0137725
-0.0141038
-0.0143697
-0.0145743
-0.0147211
-0.014813
-0.0148525
-0.0148416
-0.0147819
-0.0146744
-0.0145198
-0.0143183
-0.01407
-0.0137744
-0.0134311
-0.0130392
-0.0125979
-0.0121062
-0.011563
-0.0109673
-0.0103179
-0.00961413
-0.0088551
-0.00804039
-0.00716985
-0.00624367
-0.00526243
-0.00422716
-0.00313944
-0.00200142
-0.000815932
0.000413535
0.00168275
0.00298674
0.0043197
0.00567502
0.00704528
0.00842224
0.00979685
0.0111593
0.0124992
0.0138054
0.0150662
0.0162699
0.0174042
0.0184569
0.0194157
0.0202691
0.0210055
0.0216144
0.0220862
0.0224124
0.0225857
0.0226005
0.0224528
0.0221402
0.0216621
0.02102
0.0202168
0.0192573
0.0181479
0.0168961
0.0155101
0.0139987
0.0123833
0.0106841
0.00875639
0.00647469
-0.0037382
-0.00566384
-0.00721955
-0.00852398
-0.00971799
-0.010799
-0.0117636
-0.012619
-0.0133725
-0.0140309
-0.0146006
-0.0150877
-0.0154981
-0.0158371
-0.0161093
-0.0163192
-0.0164702
-0.0165656
-0.016608
-0.0165993
-0.0165413
-0.0164348
-0.0162807
-0.016079
-0.0158297
-0.0155322
-0.0151859
-0.0147899
-0.0143431
-0.0138443
-0.0132921
-0.0126853
-0.0120225
-0.0113026
-0.0105246
-0.00968766
-0.00879133
-0.0078355
-0.00682043
-0.00574686
-0.00461609
-0.00343004
-0.00219131
-0.000903227
0.000430119
0.00180383
0.00321212
0.00464834
0.00610489
0.00757329
0.00904415
0.0105072
0.0119515
0.0133651
0.0147359
0.0160508
0.0172967