/*--------------------------------*- C++ -*----------------------------------*\
  =========                 |
  \\      /  F ield         | OpenFOAM: The Open Source CFD Toolbox
   \\    /   O peration     | Website:  https://openfoam.org
    \\  /    A nd           | Version:  9
     \\/     M anipulation  |
\*---------------------------------------------------------------------------*/
FoamFile
{
    format      ascii;
    class       volVectorField;
    location    "0.2";
    object      U;
}
// * * * * * * * * * * * * * * * * * * * * * * * * * * * * * * * * * * * * * //

dimensions      [0 1 -1 0 0 0 0];

internalField   nonuniform List<vector> 
6400
(
(6.84389e-06 -6.86053e-06 0)
(2.689e-05 -1.28155e-05 0)
(5.14292e-05 -1.19214e-05 0)
(6.70063e-05 -7.37076e-06 0)
(6.66826e-05 -1.34654e-06 0)
(4.80068e-05 5.08084e-06 0)
(1.04472e-05 1.13785e-05 0)
(-4.55831e-05 1.73073e-05 0)
(-0.000119096 2.27567e-05 0)
(-0.000208783 2.76772e-05 0)
(-0.000313182 3.2054e-05 0)
(-0.000430739 3.58929e-05 0)
(-0.000559884 3.92122e-05 0)
(-0.000699067 4.20335e-05 0)
(-0.00084676 4.43779e-05 0)
(-0.00100149 4.62728e-05 0)
(-0.00116185 4.77434e-05 0)
(-0.00132647 4.88107e-05 0)
(-0.00149405 4.94977e-05 0)
(-0.00166337 4.98278e-05 0)
(-0.00183324 4.98195e-05 0)
(-0.00200255 4.94911e-05 0)
(-0.00217023 4.88606e-05 0)
(-0.00233528 4.79435e-05 0)
(-0.00249672 4.67537e-05 0)
(-0.00265365 4.53034e-05 0)
(-0.00280517 4.36053e-05 0)
(-0.00295045 4.16717e-05 0)
(-0.0030887 3.95125e-05 0)
(-0.00321915 3.71378e-05 0)
(-0.00334107 3.45569e-05 0)
(-0.00345378 3.17798e-05 0)
(-0.00355663 2.88175e-05 0)
(-0.003649 2.56799e-05 0)
(-0.00373032 2.23782e-05 0)
(-0.00380006 1.89247e-05 0)
(-0.00385774 1.53323e-05 0)
(-0.00390292 1.16169e-05 0)
(-0.00393523 7.7947e-06 0)
(-0.00395434 3.88138e-06 0)
(-0.00396001 -1.04105e-07 0)
(-0.00395203 -4.14046e-06 0)
(-0.00393031 -8.20587e-06 0)
(-0.00389479 -1.22766e-05 0)
(-0.00384554 -1.63269e-05 0)
(-0.00378267 -2.03297e-05 0)
(-0.00370643 -2.42565e-05 0)
(-0.00361714 -2.80782e-05 0)
(-0.00351522 -3.17648e-05 0)
(-0.00340119 -3.52849e-05 0)
(-0.00327569 -3.86067e-05 0)
(-0.00313944 -4.16987e-05 0)
(-0.00299329 -4.45284e-05 0)
(-0.00283817 -4.70635e-05 0)
(-0.00267512 -4.92739e-05 0)
(-0.00250528 -5.11312e-05 0)
(-0.00232987 -5.26081e-05 0)
(-0.00215021 -5.36782e-05 0)
(-0.00196769 -5.43177e-05 0)
(-0.00178377 -5.45055e-05 0)
(-0.00159996 -5.42232e-05 0)
(-0.00141783 -5.34554e-05 0)
(-0.001239 -5.21908e-05 0)
(-0.00106509 -5.04217e-05 0)
(-0.000897744 -4.81434e-05 0)
(-0.000738604 -4.5355e-05 0)
(-0.000589286 -4.20605e-05 0)
(-0.000451372 -3.8269e-05 0)
(-0.00032638 -3.39951e-05 0)
(-0.000215745 -2.92598e-05 0)
(-0.000120785 -2.40931e-05 0)
(-4.26582e-05 -1.85389e-05 0)
(1.76993e-05 -1.26628e-05 0)
(5.96673e-05 -6.56928e-06 0)
(8.30972e-05 -4.37798e-07 0)
(8.85597e-05 5.41465e-06 0)
(7.77135e-05 1.04195e-05 0)
(5.41049e-05 1.35146e-05 0)
(2.55936e-05 1.27515e-05 0)
(5.74041e-06 5.74245e-06 0)
(1.26481e-05 -2.68402e-05 0)
(4.34021e-05 -4.35632e-05 0)
(7.13951e-05 -3.39499e-05 0)
(7.424e-05 -9.09344e-06 0)
(3.87806e-05 2.33977e-05 0)
(-4.11054e-05 5.89672e-05 0)
(-0.000167797 9.49348e-05 0)
(-0.000341222 0.000129738 0)
(-0.000559725 0.000162472 0)
(-0.000820604 0.000192616 0)
(-0.00112051 0.000219897 0)
(-0.00145571 0.000244186 0)
(-0.00182231 0.00026545 0)
(-0.00221629 0.000283719 0)
(-0.00263367 0.000299062 0)
(-0.00307051 0.00031157 0)
(-0.00352299 0.000321351 0)
(-0.00398739 0.000328517 0)
(-0.00446012 0.000333186 0)
(-0.00493776 0.000335473 0)
(-0.005417 0.00033549 0)
(-0.0058947 0.000333345 0)
(-0.00636785 0.000329142 0)
(-0.00683357 0.000322979 0)
(-0.0072891 0.000314945 0)
(-0.00773184 0.000305127 0)
(-0.00815925 0.000293606 0)
(-0.00856897 0.000280463 0)
(-0.00895871 0.00026577 0)
(-0.00932629 0.000249603 0)
(-0.00966966 0.000232033 0)
(-0.00998685 0.000213135 0)
(-0.010276 0.000192987 0)
(-0.0105355 0.000171666 0)
(-0.0107636 0.000149255 0)
(-0.0109589 0.000125847 0)
(-0.01112 0.000101537 0)
(-0.0112458 7.64282e-05 0)
(-0.0113353 5.06354e-05 0)
(-0.0113874 2.42786e-05 0)
(-0.0114017 -2.51136e-06 0)
(-0.0113776 -2.95933e-05 0)
(-0.0113148 -5.68177e-05 0)
(-0.0112133 -8.40239e-05 0)
(-0.0110733 -0.000111041 0)
(-0.0108951 -0.000137692 0)
(-0.0106796 -0.00016379 0)
(-0.0104275 -0.000189141 0)
(-0.0101402 -0.00021355 0)
(-0.0098192 -0.000236815 0)
(-0.00946622 -0.000258731 0)
(-0.00908336 -0.000279093 0)
(-0.00867298 -0.000297698 0)
(-0.0082377 -0.000314348 0)
(-0.00778043 -0.000328849 0)
(-0.00730434 -0.000341019 0)
(-0.00681283 -0.000350686 0)
(-0.00630953 -0.000357691 0)
(-0.00579827 -0.000361889 0)
(-0.00528308 -0.000363153 0)
(-0.00476812 -0.000361378 0)
(-0.00425769 -0.00035648 0)
(-0.00375618 -0.000348401 0)
(-0.00326801 -0.000337107 0)
(-0.00279764 -0.000322595 0)
(-0.00234946 -0.000304893 0)
(-0.0019278 -0.000284066 0)
(-0.00153682 -0.000260217 0)
(-0.00118048 -0.000233499 0)
(-0.000862435 -0.000204125 0)
(-0.000585953 -0.000172384 0)
(-0.000353756 -0.000138675 0)
(-0.000167848 -0.000103552 0)
(-2.92655e-05 -6.78101e-05 0)
(6.23007e-05 -3.26267e-05 0)
(0.000109033 2.09444e-07 0)
(0.000115635 2.79296e-05 0)
(9.03824e-05 4.61927e-05 0)
(4.82614e-05 4.82641e-05 0)
(1.27156e-05 2.55509e-05 0)
(1.17556e-05 -5.11842e-05 0)
(3.38596e-05 -7.15215e-05 0)
(3.83139e-05 -3.83285e-05 0)
(7.59561e-07 2.74337e-05 0)
(-9.39338e-05 0.000111373 0)
(-0.000253741 0.000203778 0)
(-0.00048219 0.000298318 0)
(-0.000779649 0.000390892 0)
(-0.00114419 0.000478895 0)
(-0.00157229 0.000560703 0)
(-0.00205937 0.000635335 0)
(-0.00260014 0.000702239 0)
(-0.00318893 0.000761164 0)
(-0.00381983 0.000812051 0)
(-0.00448685 0.000854978 0)
(-0.00518403 0.000890113 0)
(-0.0059055 0.000917679 0)
(-0.00664551 0.000937937 0)
(-0.0073985 0.00095117 0)
(-0.00815908 0.000957665 0)
(-0.00892208 0.000957712 0)
(-0.00968251 0.000951593 0)
(-0.0104356 0.000939586 0)
(-0.0111768 0.000921955 0)
(-0.0119016 0.000898952 0)
(-0.012606 0.000870821 0)
(-0.0132859 0.000837796 0)
(-0.0139374 0.000800099 0)
(-0.014557 0.000757952 0)
(-0.0151412 0.00071157 0)
(-0.0156866 0.000661172 0)
(-0.0161902 0.000606978 0)
(-0.0166491 0.000549214 0)
(-0.0170605 0.000488119 0)
(-0.0174218 0.000423941 0)
(-0.0177308 0.000356946 0)
(-0.0179854 0.000287418 0)
(-0.0181837 0.000215663 0)
(-0.0183241 0.00014201 0)
(-0.0184052 6.68108e-05 0)
(-0.0184262 -9.55823e-06 0)
(-0.0183861 -8.66914e-05 0)
(-0.0182848 -0.000164158 0)
(-0.0181221 -0.000241502 0)
(-0.0178983 -0.000318242 0)
(-0.0176142 -0.000393873 0)
(-0.017271 -0.000467872 0)
(-0.0168702 -0.000539695 0)
(-0.0164137 -0.00060879 0)
(-0.0159039 -0.000674593 0)
(-0.0153438 -0.000736535 0)
(-0.0147366 -0.000794047 0)
(-0.0140861 -0.000846566 0)
(-0.0133963 -0.000893542 0)
(-0.0126719 -0.000934447 0)
(-0.0119178 -0.000968774 0)
(-0.0111394 -0.000996053 0)
(-0.0103424 -0.00101585 0)
(-0.00953266 -0.00102777 0)
(-0.00871653 -0.00103148 0)
(-0.0079005 -0.00102671 0)
(-0.00709121 -0.00101323 0)
(-0.00629546 -0.000990908 0)
(-0.00552009 -0.00095968 0)
(-0.00477192 -0.000919572 0)
(-0.0040577 -0.000870704 0)
(-0.003384 -0.000813306 0)
(-0.00275712 -0.000747735 0)
(-0.00218299 -0.000674494 0)
(-0.001667 -0.000594271 0)
(-0.00121389 -0.000507986 0)
(-0.000827471 -0.000416874 0)
(-0.00051043 -0.000322599 0)
(-0.000263932 -0.000227444 0)
(-8.7169e-05 -0.000134587 0)
(2.32506e-05 -4.85202e-05 0)
(7.39704e-05 2.4342e-05 0)
(7.57812e-05 7.48879e-05 0)
(4.6583e-05 9.04646e-05 0)
(1.35325e-05 5.40466e-05 0)
(7.47789e-06 -6.6867e-05 0)
(9.6873e-06 -7.4616e-05 0)
(-2.65064e-05 -9.08182e-07 0)
(-0.000122803 0.000123721 0)
(-0.000293712 0.000278149 0)
(-0.000547599 0.000447387 0)
(-0.000888303 0.000620988 0)
(-0.00131621 0.000791828 0)
(-0.00182909 0.00095513 0)
(-0.00242281 0.00110773 0)
(-0.00309186 0.00124761 0)
(-0.00382979 0.00137355 0)
(-0.00462954 0.00148488 0)
(-0.00548371 0.00158133 0)
(-0.00638467 0.00166292 0)
(-0.00732479 0.00172984 0)
(-0.00829647 0.00178242 0)
(-0.00929224 0.00182109 0)
(-0.0103048 0.00184631 0)
(-0.0113271 0.0018586 0)
(-0.0123522 0.00185845 0)
(-0.0133736 0.0018464 0)
(-0.0143848 0.00182293 0)
(-0.0153798 0.00178855 0)
(-0.0163527 0.00174373 0)
(-0.0172979 0.00168894 0)
(-0.01821 0.00162462 0)
(-0.0190838 0.00155121 0)
(-0.0199146 0.00146915 0)
(-0.0206976 0.00137885 0)
(-0.0214284 0.00128076 0)
(-0.0221029 0.00117531 0)
(-0.0227171 0.00106295 0)
(-0.0232674 0.000944147 0)
(-0.0237504 0.000819408 0)
(-0.0241631 0.000689255 0)
(-0.0245027 0.000554253 0)
(-0.0247667 0.000415001 0)
(-0.024953 0.000272144 0)
(-0.02506 0.000126372 0)
(-0.0250863 -2.15745e-05 0)
(-0.0250309 -0.000170911 0)
(-0.0248935 -0.000320803 0)
(-0.0246741 -0.000470366 0)
(-0.0243731 -0.000618673 0)
(-0.0239916 -0.000764755 0)
(-0.0235311 -0.000907603 0)
(-0.0229938 -0.00104618 0)
(-0.0223823 -0.00117943 0)
(-0.0216998 -0.00130628 0)
(-0.0209503 -0.00142563 0)
(-0.020138 -0.00153642 0)
(-0.0192679 -0.00163757 0)
(-0.0183456 -0.00172804 0)
(-0.0173771 -0.00180683 0)
(-0.016369 -0.001873 0)
(-0.0153283 -0.00192564 0)
(-0.0142626 -0.00196395 0)
(-0.0131796 -0.00198721 0)
(-0.0120878 -0.00199479 0)
(-0.0109954 -0.00198619 0)
(-0.00991142 -0.00196102 0)
(-0.00884454 -0.00191906 0)
(-0.00780374 -0.00186021 0)
(-0.00679788 -0.00178458 0)
(-0.00583569 -0.00169245 0)
(-0.00492564 -0.00158433 0)
(-0.00407582 -0.00146097 0)
(-0.00329376 -0.00132342 0)
(-0.00258626 -0.00117309 0)
(-0.00195921 -0.00101185 0)
(-0.00141731 -0.000842137 0)
(-0.000963754 -0.000667161 0)
(-0.000599857 -0.00049119 0)
(-0.000324568 -0.000319934 0)
(-0.000133901 -0.000161113 0)
(-2.03343e-05 -2.52153e-05 0)
(2.7988e-05 7.36381e-05 0)
(2.94648e-05 0.000116697 0)
(1.06541e-05 7.80111e-05 0)
(1.75321e-06 -6.71214e-05 0)
(-2.21186e-05 -3.98226e-05 0)
(-0.000109779 9.35672e-05 0)
(-0.000277123 0.000294656 0)
(-0.000536149 0.000536436 0)
(-0.000894542 0.000799019 0)
(-0.00135566 0.00106799 0)
(-0.00191943 0.00133314 0)
(-0.00258311 0.00158731 0)
(-0.00334192 0.0018256 0)
(-0.00418955 0.00204473 0)
(-0.0051186 0.0022426 0)
(-0.00612088 0.00241797 0)
(-0.00718773 0.00257025 0)
(-0.00831021 0.00269929 0)
(-0.00947926 0.00280526 0)
(-0.0106858 0.00288857 0)
(-0.011921 0.00294979 0)
(-0.0131759 0.00298957 0)
(-0.014442 0.00300864 0)
(-0.015711 0.00300777 0)
(-0.0169747 0.00298774 0)
(-0.0182255 0.00294933 0)
(-0.0194559 0.00289329 0)
(-0.0206585 0.00282038 0)
(-0.0218266 0.00273134 0)
(-0.0229535 0.00262688 0)
(-0.0240328 0.00250771 0)
(-0.0250586 0.00237452 0)
(-0.0260251 0.00222802 0)
(-0.0269269 0.00206892 0)
(-0.0277589 0.00189793 0)
(-0.0285162 0.0017158 0)
(-0.0291944 0.00152331 0)
(-0.0297893 0.00132128 0)
(-0.0302972 0.00111056 0)
(-0.0307148 0.000892091 0)
(-0.031039 0.000666848 0)
(-0.0312673 0.000435884 0)
(-0.0313976 0.000200323 0)
(-0.0314284 -3.86376e-05 0)
(-0.0313587 -0.000279723 0)
(-0.0311878 -0.000521588 0)
(-0.0309159 -0.000762808 0)
(-0.0305437 -0.00100189 0)
(-0.0300724 -0.00123728 0)
(-0.029504 -0.00146738 0)
(-0.0288412 -0.00169051 0)
(-0.0280872 -0.00190499 0)
(-0.027246 -0.00210911 0)
(-0.0263223 -0.00230114 0)
(-0.0253215 -0.00247936 0)
(-0.0242498 -0.00264209 0)
(-0.0231137 -0.00278768 0)
(-0.0219207 -0.00291455 0)
(-0.0206789 -0.00302119 0)
(-0.0193967 -0.00310621 0)
(-0.0180833 -0.00316834 0)
(-0.0167482 -0.00320644 0)
(-0.0154015 -0.00321956 0)
(-0.0140533 -0.00320692 0)
(-0.0127143 -0.00316795 0)
(-0.011395 -0.00310233 0)
(-0.0101063 -0.00300998 0)
(-0.0088587 -0.0028911 0)
(-0.00766272 -0.00274623 0)
(-0.00652844 -0.00257624 0)
(-0.00546543 -0.00238244 0)
(-0.0044826 -0.00216659 0)
(-0.00358796 -0.00193104 0)
(-0.00278838 -0.00167881 0)
(-0.00208932 -0.00141384 0)
(-0.00149452 -0.00114117 0)
(-0.00100557 -0.000867344 0)
(-0.000621532 -0.000600832 0)
(-0.000338406 -0.000352725 0)
(-0.000148601 -0.000137552 0)
(-4.02688e-05 2.58055e-05 0)
(3.69275e-06 0.000112905 0)
(6.04303e-06 9.00315e-05 0)
(-4.46296e-06 -4.94155e-05 0)
(-5.74833e-05 3.93946e-05 0)
(-0.000202912 0.000253832 0)
(-0.000449013 0.000549842 0)
(-0.00080407 0.000895591 0)
(-0.00127424 0.00126696 0)
(-0.00186173 0.00164595 0)
(-0.00256554 0.00201937 0)
(-0.00338213 0.00237774 0)
(-0.00430596 0.00271431 0)
(-0.00532991 0.00302442 0)
(-0.00644567 0.003305 0)
(-0.00764409 0.00355414 0)
(-0.00891542 0.00377079 0)
(-0.0102496 0.00395457 0)
(-0.0116363 0.00410557 0)
(-0.0130654 0.00422424 0)
(-0.0145264 0.00431124 0)
(-0.0160094 0.00436743 0)
(-0.0175045 0.00439378 0)
(-0.019002 0.0043913 0)
(-0.0204926 0.00436107 0)
(-0.0219672 0.00430414 0)
(-0.0234172 0.00422161 0)
(-0.024834 0.00411453 0)
(-0.0262097 0.00398395 0)
(-0.0275364 0.00383091 0)
(-0.0288069 0.00365642 0)
(-0.0300139 0.00346152 0)
(-0.0311509 0.00324722 0)
(-0.0322115 0.00301457 0)
(-0.0331895 0.00276463 0)
(-0.0340796 0.0024985 0)
(-0.0348763 0.00221733 0)
(-0.035575 0.00192232 0)
(-0.0361712 0.00161477 0)
(-0.0366609 0.00129602 0)
(-0.0370409 0.000967528 0)
(-0.0373081 0.00063083 0)
(-0.0374601 0.000287573 0)
(-0.0374953 -6.04935e-05 0)
(-0.0374123 -0.000411515 0)
(-0.0372106 -0.000763528 0)
(-0.0368904 -0.00111447 0)
(-0.0364525 -0.00146218 0)
(-0.0358984 -0.00180442 0)
(-0.0352305 -0.00213884 0)
(-0.0344519 -0.00246308 0)
(-0.0335663 -0.00277468 0)
(-0.0325786 -0.00307118 0)
(-0.0314941 -0.00335012 0)
(-0.0303192 -0.00360903 0)
(-0.0290609 -0.00384548 0)
(-0.0277271 -0.00405714 0)
(-0.0263263 -0.00424173 0)
(-0.0248677 -0.00439712 0)
(-0.0233614 -0.00452131 0)
(-0.0218178 -0.00461252 0)
(-0.020248 -0.00466915 0)
(-0.0186635 -0.00468984 0)
(-0.0170761 -0.00467352 0)
(-0.0154979 -0.00461944 0)
(-0.0139413 -0.00452716 0)
(-0.0124184 -0.00439665 0)
(-0.0109416 -0.00422826 0)
(-0.0095228 -0.00402284 0)
(-0.00817342 -0.00378174 0)
(-0.00690442 -0.00350691 0)
(-0.00572591 -0.00320099 0)
(-0.00464697 -0.00286741 0)
(-0.00367541 -0.00251058 0)
(-0.00281744 -0.00213607 0)
(-0.00207742 -0.00175096 0)
(-0.00145747 -0.00136419 0)
(-0.000957082 -0.000987073 0)
(-0.000572757 -0.000634021 0)
(-0.000297496 -0.000323381 0)
(-0.000120267 -7.83749e-05 0)
(-2.65141e-05 7.16486e-05 0)
(7.43574e-07 8.69867e-05 0)
(-1.07008e-05 -1.28269e-05 0)
(-9.40876e-05 0.000166313 0)
(-0.000300459 0.000484925 0)
(-0.000629672 0.000895192 0)
(-0.00108558 0.00136164 0)
(-0.0016722 0.00185669 0)
(-0.00239008 0.00235926 0)
(-0.00323685 0.0028535 0)
(-0.00420791 0.0033277 0)
(-0.00529676 0.00377333 0)
(-0.00649539 0.00418437 0)
(-0.00779457 0.00455668 0)
(-0.00918423 0.00488761 0)
(-0.0106537 0.00517563 0)
(-0.0121918 0.00542007 0)
(-0.0137873 0.00562087 0)
(-0.0154287 0.00577848 0)
(-0.0171047 0.00589366 0)
(-0.0188041 0.00596745 0)
(-0.0205158 0.00600101 0)
(-0.0222291 0.00599566 0)
(-0.0239334 0.00595276 0)
(-0.0256187 0.00587369 0)
(-0.027275 0.00575986 0)
(-0.0288929 0.00561269 0)
(-0.0304632 0.00543357 0)
(-0.0319773 0.00522389 0)
(-0.0334267 0.00498504 0)
(-0.0348034 0.00471841 0)
(-0.0360998 0.00442538 0)
(-0.0373088 0.00410741 0)
(-0.0384235 0.00376593 0)
(-0.0394377 0.00340247 0)
(-0.0403453 0.00301861 0)
(-0.0411409 0.00261602 0)
(-0.0418197 0.00219645 0)
(-0.0423772 0.00176177 0)
(-0.0428095 0.00131395 0)
(-0.0431134 0.000855119 0)
(-0.0432861 0.000387515 0)
(-0.0433258 -8.64776e-05 0)
(-0.0432311 -0.000564333 0)
(-0.0430013 -0.00104339 0)
(-0.0426368 -0.00152085 0)
(-0.0421383 -0.00199378 0)
(-0.0415079 -0.00245915 0)
(-0.040748 -0.00291382 0)
(-0.0398621 -0.00335457 0)
(-0.0388547 -0.00377812 0)
(-0.0377311 -0.00418115 0)
(-0.0364973 -0.00456033 0)
(-0.0351606 -0.00491237 0)
(-0.0337287 -0.00523403 0)
(-0.0322106 -0.00552214 0)
(-0.0306159 -0.0057737 0)
(-0.0289549 -0.00598584 0)
(-0.0272388 -0.00615591 0)
(-0.0254794 -0.00628153 0)
(-0.023689 -0.00636059 0)
(-0.0218805 -0.00639131 0)
(-0.0200672 -0.00637229 0)
(-0.0182625 -0.00630255 0)
(-0.0164803 -0.00618159 0)
(-0.0147341 -0.00600941 0)
(-0.0130376 -0.00578658 0)
(-0.0114041 -0.0055143 0)
(-0.00984635 -0.00519448 0)
(-0.00837649 -0.00482983 0)
(-0.00700575 -0.00442393 0)
(-0.00574424 -0.00398145 0)
(-0.00460067 -0.00350827 0)
(-0.00358212 -0.00301176 0)
(-0.0026937 -0.00250109 0)
(-0.00193825 -0.00198764 0)
(-0.00131605 -0.00148552 0)
(-0.000824537 -0.00101228 0)
(-0.000457811 -0.00058976 0)
(-0.000206254 -0.000244956 0)
(-5.86294e-05 -1.12043e-05 0)
(-4.71727e-06 6.75421e-05 0)
(-1.67504e-05 4.27161e-05 0)
(-0.000130634 0.000342216 0)
(-0.000399095 0.000789295 0)
(-0.000813431 0.00133393 0)
(-0.00137271 0.00193808 0)
(-0.00207844 0.00257152 0)
(-0.00292908 0.00321062 0)
(-0.00392061 0.00383724 0)
(-0.00504705 0.00443771 0)
(-0.00630077 0.00500185 0)
(-0.00767273 0.0055223 0)
(-0.00915276 0.00599392 0)
(-0.0107299 0.00641331 0)
(-0.0123924 0.00677841 0)
(-0.0141283 0.00708821 0)
(-0.0159253 0.00734252 0)
(-0.017771 0.00754173 0)
(-0.0196531 0.00768669 0)
(-0.0215592 0.00777858 0)
(-0.0234775 0.00781882 0)
(-0.025396 0.00780897 0)
(-0.0273033 0.0077507 0)
(-0.0291882 0.00764574 0)
(-0.0310398 0.00749585 0)
(-0.0328478 0.00730281 0)
(-0.034602 0.00706839 0)
(-0.0362929 0.00679438 0)
(-0.0379111 0.00648256 0)
(-0.0394477 0.00613472 0)
(-0.0408945 0.00575269 0)
(-0.0422434 0.00533831 0)
(-0.043487 0.00489351 0)
(-0.0446181 0.00442026 0)
(-0.0456304 0.00392062 0)
(-0.0465177 0.00339679 0)
(-0.0472746 0.00285104 0)
(-0.0478963 0.00228583 0)
(-0.0483786 0.00170373 0)
(-0.0487177 0.00110749 0)
(-0.0489108 0.000500034 0)
(-0.0489557 -0.000115543 0)
(-0.048851 -0.000735973 0)
(-0.048596 -0.00135781 0)
(-0.0481909 -0.00197743 0)
(-0.0476369 -0.00259107 0)
(-0.0469358 -0.00319481 0)
(-0.0460907 -0.0037846 0)
(-0.0451054 -0.00435632 0)
(-0.0439846 -0.00490573 0)
(-0.0427343 -0.00542859 0)
(-0.0413612 -0.00592064 0)
(-0.0398731 -0.00637763 0)
(-0.0382788 -0.00679543 0)
(-0.0365878 -0.00717 0)
(-0.0348107 -0.00749748 0)
(-0.0329591 -0.00777424 0)
(-0.031045 -0.00799689 0)
(-0.0290813 -0.0081624 0)
(-0.0270818 -0.00826809 0)
(-0.0250603 -0.00831173 0)
(-0.0230315 -0.00829157 0)
(-0.0210102 -0.00820641 0)
(-0.0190113 -0.00805564 0)
(-0.0170499 -0.00783935 0)
(-0.0151409 -0.00755831 0)
(-0.0132986 -0.00721417 0)
(-0.0115372 -0.00680941 0)
(-0.00986997 -0.00634757 0)
(-0.00830915 -0.0058333 0)
(-0.0068659 -0.00527254 0)
(-0.00554994 -0.00467273 0)
(-0.00436926 -0.00404307 0)
(-0.0033299 -0.00339484 0)
(-0.00243566 -0.00274182 0)
(-0.0016879 -0.00210079 0)
(-0.00108529 -0.00149221 0)
(-0.000623466 -0.000941006 0)
(-0.000294601 -0.000477341 0)
(-9.11881e-05 -0.000137652 0)
(-1.00794e-05 3.12986e-05 0)
(-2.25281e-05 0.000116865 0)
(-0.000166449 0.000567142 0)
(-0.000496883 0.00116766 0)
(-0.000996761 0.00186738 0)
(-0.0016603 0.00262659 0)
(-0.00248624 0.00341315 0)
(-0.00347075 0.00420145 0)
(-0.00460784 0.0049715 0)
(-0.00588995 0.00570791 0)
(-0.00730815 0.00639907 0)
(-0.00885222 0.00703642 0)
(-0.010511 0.00761388 0)
(-0.0122725 0.0081273 0)
(-0.0141241 0.00857413 0)
(-0.0160529 0.00895304 0)
(-0.0180457 0.00926365 0)
(-0.0200891 0.00950633 0)
(-0.0221701 0.00968198 0)
(-0.0242753 0.00979194 0)
(-0.0263918 0.00983784 0)
(-0.0285069 0.00982153 0)
(-0.0306082 0.00974498 0)
(-0.0326837 0.00961027 0)
(-0.0347216 0.00941954 0)
(-0.0367106 0.00917496 0)
(-0.0386398 0.00887869 0)
(-0.0404987 0.00853295 0)
(-0.0422773 0.00813994 0)
(-0.043966 0.00770191 0)
(-0.0455556 0.00722112 0)
(-0.0470376 0.00669991 0)
(-0.0484036 0.00614067 0)
(-0.0496462 0.0055459 0)
(-0.0507581 0.00491821 0)
(-0.051733 0.00426032 0)
(-0.0525648 0.00357514 0)
(-0.0532483 0.00286573 0)
(-0.0537788 0.00213532 0)
(-0.0541525 0.00138738 0)
(-0.0543662 0.000625553 0)
(-0.0544175 -0.000146285 0)
(-0.0543048 -0.000924047 0)
(-0.0540275 -0.00170343 0)
(-0.0535857 -0.00247993 0)
(-0.0529807 -0.00324885 0)
(-0.0522145 -0.00400531 0)
(-0.0512904 -0.0047443 0)
(-0.0502124 -0.00546067 0)
(-0.0489858 -0.00614918 0)
(-0.047617 -0.00680457 0)
(-0.0461131 -0.00742155 0)
(-0.0444826 -0.00799488 0)
(-0.042735 -0.00851943 0)
(-0.0408806 -0.00899022 0)
(-0.0389309 -0.00940247 0)
(-0.0368982 -0.00975168 0)
(-0.0347956 -0.0100337 0)
(-0.0326371 -0.0102448 0)
(-0.0304373 -0.0103817 0)
(-0.0282115 -0.0104416 0)
(-0.0259753 -0.0104225 0)
(-0.0237447 -0.0103228 0)
(-0.0215359 -0.0101419 0)
(-0.0193652 -0.00987997 0)
(-0.0172485 -0.00953797 0)
(-0.0152016 -0.009118 0)
(-0.0132397 -0.00862321 0)
(-0.0113771 -0.00805798 0)
(-0.00962725 -0.00742805 0)
(-0.00800244 -0.0067407 0)
(-0.00651338 -0.00600495 0)
(-0.00516913 -0.00523183 0)
(-0.00397682 -0.00443469 0)
(-0.00294141 -0.00362962 0)
(-0.00206557 -0.0028359 0)
(-0.00134951 -0.00207664 0)
(-0.000790621 -0.00137944 0)
(-0.000383129 -0.000777065 0)
(-0.000123387 -0.000308292 0)
(-1.52273e-05 -2.16091e-05 0)
(-2.8022e-05 0.000209064 0)
(-0.000201216 0.000840387 0)
(-0.000592756 0.00161963 0)
(-0.00117758 0.00249554 0)
(-0.00194512 0.0034275 0)
(-0.00289129 0.00438207 0)
(-0.00400976 0.00533221 0)
(-0.00529242 0.00625645 0)
(-0.00672997 0.00713804 0)
(-0.00831197 0.00796415 0)
(-0.010027 0.00872518 0)
(-0.0118626 0.0094142 0)
(-0.013806 0.0100264 0)
(-0.0158434 0.0105589 0)
(-0.0179612 0.0110098 0)
(-0.0201452 0.0113788 0)
(-0.0223812 0.0116662 0)
(-0.0246552 0.0118729 0)
(-0.0269531 0.0120003 0)
(-0.0292612 0.0120505 0)
(-0.031566 0.0120255 0)
(-0.0338541 0.0119275 0)
(-0.0361128 0.0117591 0)
(-0.0383295 0.0115228 0)
(-0.0404921 0.011221 0)
(-0.0425891 0.0108566 0)
(-0.044609 0.0104319 0)
(-0.0465413 0.00994988 0)
(-0.0483756 0.00941306 0)
(-0.0501021 0.00882426 0)
(-0.0517115 0.00818631 0)
(-0.0531951 0.00750215 0)
(-0.0545447 0.0067748 0)
(-0.0557527 0.00600747 0)
(-0.0568121 0.00520348 0)
(-0.0577165 0.00436638 0)
(-0.0584602 0.0034999 0)
(-0.0590383 0.00260799 0)
(-0.0594466 0.00169488 0)
(-0.0596816 0.000764994 0)
(-0.0597408 -0.000176949 0)
(-0.0596224 -0.00112598 0)
(-0.0593258 -0.00207689 0)
(-0.0588511 -0.00302421 0)
(-0.0581995 -0.00396225 0)
(-0.0573733 -0.0048851 0)
(-0.0563758 -0.00578671 0)
(-0.0552115 -0.00666084 0)
(-0.0538858 -0.00750117 0)
(-0.0524054 -0.00830135 0)
(-0.0507782 -0.00905498 0)
(-0.049013 -0.00975575 0)
(-0.04712 -0.0103975 0)
(-0.0451101 -0.0109741 0)
(-0.0429956 -0.01148 0)
(-0.0407896 -0.0119096 0)
(-0.0385061 -0.012258 0)
(-0.0361601 -0.0125207 0)
(-0.0337671 -0.0126937 0)
(-0.0313434 -0.0127738 0)
(-0.0289058 -0.0127584 0)
(-0.0264713 -0.0126458 0)
(-0.0240573 -0.0124352 0)
(-0.0216812 -0.0121268 0)
(-0.0193602 -0.011722 0)
(-0.0171111 -0.0112231 0)
(-0.0149503 -0.010634 0)
(-0.0128933 -0.00996003 0)
(-0.0109547 -0.00920797 0)
(-0.00914784 -0.00838644 0)
(-0.00748469 -0.00750606 0)
(-0.00597546 -0.00657963 0)
(-0.00462854 -0.00562254 0)
(-0.00345022 -0.00465303 0)
(-0.00244466 -0.00369273 0)
(-0.00161382 -0.00276708 0)
(-0.000957016 -0.00190603 0)
(-0.000470628 -0.00114447 0)
(-0.00015483 -0.000522895 0)
(-2.01245e-05 -9.07765e-05 0)
(-3.32444e-05 0.000318669 0)
(-0.000234827 0.00116087 0)
(-0.000686202 0.00214414 0)
(-0.00135476 0.00321758 0)
(-0.00222532 0.00434023 0)
(-0.00329095 0.0054779 0)
(-0.00454277 0.00660257 0)
(-0.00597042 0.0076917 0)
(-0.00756272 0.00872747 0)
(-0.00930764 0.00969609 0)
(-0.0111923 0.0105871 0)
(-0.0132032 0.0113929 0)
(-0.0153263 0.0121081 0)
(-0.017547 0.0127294 0)
(-0.0198505 0.0132548 0)
(-0.022222 0.0136837 0)
(-0.0246464 0.0140164 0)
(-0.0271088 0.0142539 0)
(-0.0295944 0.014398 0)
(-0.0320888 0.0144507 0)
(-0.0345775 0.0144144 0)
(-0.0370466 0.0142918 0)
(-0.0394826 0.0140857 0)
(-0.0418721 0.0137989 0)
(-0.0442025 0.0134345 0)
(-0.0464613 0.0129956 0)
(-0.0486367 0.0124852 0)
(-0.0507173 0.0119065 0)
(-0.0526922 0.0112627 0)
(-0.0545509 0.0105571 0)
(-0.0562836 0.00979299 0)
(-0.0578811 0.00897393 0)
(-0.0593346 0.00810354 0)
(-0.060636 0.0071856 0)
(-0.0617779 0.00622412 0)
(-0.0627535 0.00522329 0)
(-0.0635567 0.00418758 0)
(-0.0641823 0.0031217 0)
(-0.0646258 0.00203066 0)
(-0.0648834 0.000919749 0)
(-0.0649524 -0.000205438 0)
(-0.064831 -0.001339 0)
(-0.0645183 -0.00247475 0)
(-0.0640144 -0.0036062 0)
(-0.0633206 -0.0047266 0)
(-0.0624393 -0.00582898 0)
(-0.0613737 -0.00690614 0)
(-0.0601286 -0.00795072 0)
(-0.0587098 -0.00895524 0)
(-0.0571242 -0.00991216 0)
(-0.0553801 -0.0108139 0)
(-0.0534868 -0.0116531 0)
(-0.0514549 -0.0124224 0)
(-0.0492961 -0.0131146 0)
(-0.0470233 -0.013723 0)
(-0.0446502 -0.0142412 0)
(-0.0421919 -0.0146633 0)
(-0.0396639 -0.0149839 0)
(-0.0370829 -0.0151984 0)
(-0.0344661 -0.015303 0)
(-0.0318312 -0.0152946 0)
(-0.0291965 -0.0151713 0)
(-0.0265804 -0.0149321 0)
(-0.0240013 -0.0145772 0)
(-0.0214776 -0.0141082 0)
(-0.0190274 -0.013528 0)
(-0.0166682 -0.0128411 0)
(-0.0144167 -0.0120536 0)
(-0.0122888 -0.0111735 0)
(-0.010299 -0.0102107 0)
(-0.00846042 -0.00917733 0)
(-0.00678475 -0.00808797 0)
(-0.00528171 -0.00695991 0)
(-0.0039591 -0.00581346 0)
(-0.00282273 -0.00467236 0)
(-0.00187641 -0.00356421 0)
(-0.0011215 -0.00252094 0)
(-0.000556535 -0.00157921 0)
(-0.000185371 -0.000780802 0)
(-2.47728e-05 -0.000175691 0)
(-3.82183e-05 0.000445042 0)
(-0.000267278 0.00152734 0)
(-0.000777042 0.00273976 0)
(-0.00152779 0.00403214 0)
(-0.00249995 0.00536361 0)
(-0.00368378 0.00669966 0)
(-0.00506785 0.00801167 0)
(-0.00663949 0.00927639 0)
(-0.00838554 0.0104753 0)
(-0.0102923 0.0115938 0)
(-0.0123454 0.0126208 0)
(-0.01453 0.0135482 0)
(-0.0168309 0.0143702 0)
(-0.0192326 0.0150831 0)
(-0.0217193 0.0156849 0)
(-0.0242753 0.0161747 0)
(-0.0268847 0.016553 0)
(-0.0295319 0.016821 0)
(-0.0322013 0.0169804 0)
(-0.0348776 0.0170336 0)
(-0.0375458 0.0169834 0)
(-0.0401914 0.0168326 0)
(-0.0427999 0.0165847 0)
(-0.0453576 0.0162427 0)
(-0.047851 0.0158103 0)
(-0.0502672 0.0152908 0)
(-0.0525937 0.014688 0)
(-0.0548185 0.0140053 0)
(-0.05693 0.0132466 0)
(-0.0589175 0.0124157 0)
(-0.0607705 0.0115166 0)
(-0.0624792 0.0105531 0)
(-0.0640344 0.00952975 0)
(-0.0654276 0.00845082 0)
(-0.0666509 0.00732101 0)
(-0.0676972 0.00614526 0)
(-0.06856 0.00492877 0)
(-0.0692338 0.00367706 0)
(-0.0697136 0.00239596 0)
(-0.0699956 0.00109166 0)
(-0.0700768 -0.000229317 0)
(-0.0699552 -0.00156009 0)
(-0.0696298 -0.00289345 0)
(-0.0691006 -0.00422184 0)
(-0.0683689 -0.00553742 0)
(-0.0674369 -0.00683204 0)
(-0.0663083 -0.00809734 0)
(-0.0649877 -0.00932475 0)
(-0.0634812 -0.0105056 0)
(-0.061796 -0.0116311 0)
(-0.0599406 -0.0126924 0)
(-0.0579248 -0.013681 0)
(-0.0557597 -0.0145882 0)
(-0.0534574 -0.0154058 0)
(-0.0510315 -0.0161259 0)
(-0.0484963 -0.0167411 0)
(-0.0458677 -0.0172444 0)
(-0.043162 -0.0176297 0)
(-0.0403967 -0.0178916 0)
(-0.03759 -0.0180255 0)
(-0.0347607 -0.018028 0)
(-0.0319279 -0.0178967 0)
(-0.0291111 -0.0176305 0)
(-0.0263301 -0.0172296 0)
(-0.0236043 -0.0166959 0)
(-0.0209529 -0.0160325 0)
(-0.0183948 -0.0152447 0)
(-0.0159479 -0.0143395 0)
(-0.0136293 -0.0133258 0)
(-0.0114549 -0.0122148 0)
(-0.00943937 -0.0110203 0)
(-0.00759561 -0.00975834 0)
(-0.00593494 -0.00844816 0)
(-0.0044668 -0.00711198 0)
(-0.00319876 -0.00577549 0)
(-0.00213658 -0.00446823 0)
(-0.00128367 -0.0032239 0)
(-0.000640711 -0.00208062 0)
(-0.000215016 -0.00108119 0)
(-2.91944e-05 -0.000275831 0)
(-4.29689e-05 0.000587574 0)
(-0.000298638 0.00193851 0)
(-0.000865309 0.00340492 0)
(-0.00169657 0.00493763 0)
(-0.00276866 0.00649614 0)
(-0.00406917 0.00804597 0)
(-0.00558408 0.00955826 0)
(-0.00729842 0.0110094 0)
(-0.009197 0.0123803 0)
(-0.0112643 0.0136559 0)
(-0.0134845 0.0148248 0)
(-0.0158414 0.0158785 0)
(-0.0183186 0.0168108 0)
(-0.0208994 0.0176179 0)
(-0.0235673 0.0182976 0)
(-0.0263054 0.0188491 0)
(-0.0290971 0.019273 0)
(-0.0319261 0.0195705 0)
(-0.034776 0.0197437 0)
(-0.037631 0.0197953 0)
(-0.0404752 0.0197282 0)
(-0.0432936 0.0195459 0)
(-0.0460711 0.0192519 0)
(-0.0487933 0.0188501 0)
(-0.0514462 0.0183442 0)
(-0.0540163 0.0177383 0)
(-0.0564906 0.0170365 0)
(-0.0588565 0.0162429 0)
(-0.061102 0.0153618 0)
(-0.0632158 0.0143975 0)
(-0.0651869 0.0133547 0)
(-0.0670052 0.0122379 0)
(-0.0686609 0.011052 0)
(-0.0701451 0.00980218 0)
(-0.0714496 0.00849377 0)
(-0.0725668 0.00713242 0)
(-0.07349 0.00572415 0)
(-0.0742131 0.00427528 0)
(-0.074731 0.00279253 0)
(-0.0750397 0.001283 0)
(-0.0751358 -0.000245815 0)
(-0.0750172 -0.00178602 0)
(-0.0746826 -0.00332933 0)
(-0.0741321 -0.00486708 0)
(-0.0733667 -0.00639026 0)
(-0.0723887 -0.00788955 0)
(-0.0712018 -0.00935534 0)
(-0.0698107 -0.0107778 0)
(-0.0682215 -0.012147 0)
(-0.0664417 -0.0134528 0)
(-0.0644801 -0.0146851 0)
(-0.0623468 -0.0158341 0)
(-0.0600531 -0.0168898 0)
(-0.0576119 -0.0178429 0)
(-0.055037 -0.0186841 0)
(-0.0523437 -0.019405 0)
(-0.0495482 -0.0199977 0)
(-0.0466678 -0.0204549 0)
(-0.0437208 -0.0207704 0)
(-0.0407262 -0.0209391 0)
(-0.0377038 -0.0209568 0)
(-0.0346739 -0.0208209 0)
(-0.0316569 -0.0205299 0)
(-0.0286738 -0.0200841 0)
(-0.0257452 -0.0194854 0)
(-0.0228916 -0.0187375 0)
(-0.020133 -0.0178462 0)
(-0.0174889 -0.0168191 0)
(-0.0149777 -0.0156665 0)
(-0.0126168 -0.0144006 0)
(-0.0104221 -0.0130366 0)
(-0.00840833 -0.0115924 0)
(-0.00658837 -0.0100887 0)
(-0.00497339 -0.00854961 0)
(-0.00357283 -0.00700269 0)
(-0.00239444 -0.00547922 0)
(-0.00144368 -0.0040145 0)
(-0.000723301 -0.00264796 0)
(-0.000243865 -0.00142323 0)
(-3.34224e-05 -0.000390717 0)
(-4.75283e-05 0.000745707 0)
(-0.000328999 0.00239314 0)
(-0.000951148 0.00413804 0)
(-0.00186123 0.00593232 0)
(-0.00303154 0.00773614 0)
(-0.00444704 0.00951527 0)
(-0.00609125 0.0112409 0)
(-0.00794686 0.0128893 0)
(-0.00999662 0.0144412 0)
(-0.0122232 0.0158813 0)
(-0.0146093 0.0171979 0)
(-0.0171371 0.0183823 0)
(-0.019789 0.0194282 0)
(-0.0225474 0.0203318 0)
(-0.0253946 0.0210908 0)
(-0.0283128 0.0217046 0)
(-0.0312848 0.0221738 0)
(-0.0342933 0.0224999 0)
(-0.0373214 0.0226853 0)
(-0.0403523 0.0227328 0)
(-0.0433699 0.022646 0)
(-0.0463583 0.0224285 0)
(-0.049302 0.0220844 0)
(-0.052186 0.0216179 0)
(-0.0549958 0.0210333 0)
(-0.0577173 0.0203352 0)
(-0.060337 0.0195281 0)
(-0.0628419 0.0186168 0)
(-0.0652195 0.017606 0)
(-0.0674581 0.0165007 0)
(-0.0695462 0.015306 0)
(-0.0714731 0.0140271 0)
(-0.073229 0.0126698 0)
(-0.0748043 0.0112396 0)
(-0.0761904 0.00974274 0)
(-0.0773794 0.00818562 0)
(-0.0783642 0.00657502 0)
(-0.0791385 0.00491815 0)
(-0.0796969 0.00322262 0)
(-0.0800349 0.00149646 0)
(-0.080149 -0.000251824 0)
(-0.0800368 -0.00201328 0)
(-0.0796969 -0.00377853 0)
(-0.0791291 -0.00553775 0)
(-0.0783343 -0.00728074 0)
(-0.0773149 -0.00899692 0)
(-0.0760743 -0.0106754 0)
(-0.0746173 -0.012305 0)
(-0.0729502 -0.0138745 0)