/*--------------------------------*- C++ -*----------------------------------*\
  =========                 |
  \\      /  F ield         | OpenFOAM: The Open Source CFD Toolbox
   \\    /   O peration     | Website:  https://openfoam.org
    \\  /    A nd           | Version:  7
     \\/     M anipulation  |
\*---------------------------------------------------------------------------*/
FoamFile
{
    version     2.0;
    format      ascii;
    class       volScalarField;
    location    "1.8";
    object      T;
}
// * * * * * * * * * * * * * * * * * * * * * * * * * * * * * * * * * * * * * //

dimensions      [0 0 0 1 0 0 0];

internalField   nonuniform List<scalar> 
6300
(
1
1
1
1
1
1
1
1
1
1
1
1
1
1
1
1.77781
2.6509
2.72268
2.74186
2.76287
2.78101
2.79475
2.80139
2.80213
2.80138
2.80347
2.81475
2.83618
2.85871
2.86984
1
1
1
1
1
1
1
1
1
1
1
1
1
1
1
1.75721
2.64275
2.72136
2.74123
2.76215
2.78006
2.79354
2.79996
2.80049
2.79966
2.80172
2.81291
2.83408
2.85624
2.86715
1
1
1
1
1
1
1
1
1
1
1
1
1
1
1
1.70013
2.62442
2.71627
2.73736
2.75888
2.77706
2.79077
2.79736
2.79787
2.79706
2.79918
2.81031
2.83111
2.85272
2.86334
1
1
1
1
1
1
1
1
1
1
1
1
1
1
1
1.61044
2.59287
2.70779
2.7304
2.75287
2.77159
2.78597
2.79325
2.79404
2.79327
2.79533
2.80613
2.82643
2.84752
2.85801
1
1
1
1
1
1
1
1
1
1
1
1
1
1
1
1.49948
2.55238
2.6983
2.72088
2.74393
2.76301
2.77845
2.78711
2.78867
2.78791
2.78936
2.79916
2.8192
2.84039
2.85164
1
1
1
1
1
1
1
1
1
1
1
1
1
1
1
1.35099
2.48625
2.68891
2.709
2.7319
2.75091
2.7676
2.7785
2.78178
2.78143
2.78256
2.7912
2.8099
2.83031
2.84084
1
1
1
1
1
1
1
1
1
1
1
1
1
1
1
1.16494
2.39839
2.68457
2.69569
2.71543
2.73397
2.75218
2.76627
2.77234
2.77244
2.77275
2.77884
2.79525
2.8147
2.8263
1
1
1
1
1
1
1
1
1
1
1
1
1
1
1
1.00917
2.29981
2.67549
2.6843
2.70004
2.71691
2.73497
2.7507
2.75903
2.75978
2.76001
2.76461
2.77838
2.79389
2.79774
1
1
1
1
1
1
1
1
1
1
1
1
1
1
1
1.00004
2.16364
2.66707
2.6773
2.68833
2.7024
2.7184
2.7334
2.74239
2.74282
2.74171
2.74165
2.74638
2.75602
2.75895
1
1
1
1
1
1
1
1
1
1
1
1
1
1
1
1
1.97297
2.63482
2.6671
2.68065
2.69419
2.7076
2.71909
2.72573
2.72455
2.71954
2.71356
2.71418
2.72474
2.74519
1
1
1
1
1
1
1
1
1
1
1
1
1
1
1
1
1.7007
2.55085
2.64177
2.66585
2.68231
2.69538
2.70448
2.70867
2.70518
2.6965
2.68211
2.66417
2.62173
2.52879
1
1
1
1
1
1
1
1
1
1
1
1
1
1
1
1
1.32177
2.41215
2.62033
2.6424
2.66168
2.67674
2.68627
2.6882
2.68286
2.66984
2.64656
2.60728
2.55137
2.391
1
1
1
1
1
1
1
1
1
1
1
1
1
1
1
1
1.0279
2.27995
2.61283
2.61122
2.62688
2.64514
2.65932
2.6623
2.65665
2.64067
2.61204
2.56182
2.49173
2.30464
1
1
1
1
1
1
1
1
1
1
1
1
1
1
1
1
1.00014
2.05792
2.57569
2.58992
2.60471
2.61524
2.62834
2.63198
2.62681
2.61025
2.57897
2.52719
2.44179
2.2776
1
1
1
1
1
1
1
1
1
1
1
1
1
1
1
1
0.999999
1.66216
2.4871
2.57107
2.57957
2.58982
2.6002
2.60174
2.59588
2.57869
2.5466
2.49568
2.40846
2.27843
1
1
1
1
1
1
1
1
1
1
1
1
1
1
1
1
1
1.14909
2.33202
2.57228
2.56057
2.56395
2.57004
2.56959
2.56362
2.54692
2.51712
2.46685
2.38719
2.28543
1
1
1
1
1
1
1
1
1
1
1
1
1
1
1
1
1
1.00519
2.14303
2.52852
2.52918
2.53445
2.5389
2.53773
2.53165
2.51642
2.48836
2.44034
2.3728
2.28947
1
1
1
1
1
1
1
1
1
1
1
1
1
1
1
1
1
0.999988
1.69132
2.43088
2.51211
2.51793
2.51716
2.51311
2.50465
2.48996
2.46162
2.41885
2.36183
2.2928
1
1
1
1
1
1
1
1
1
1
1
1
1
1
1
1
1
0.999996
1.12748
2.2491
2.50088
2.4976
2.49484
2.48821
2.47677
2.46185
2.43523
2.39845
2.35062
2.29169
1
1
1
1
1
1
1
1
1
1
1
1
1
1
1
1
1
0.999999
1.00363
1.96618
2.43751
2.47223
2.4693
2.46309
2.45167
2.43501
2.41102
2.37911
2.3388
2.28873
1
1
1
1
1
1
1
1
1
1
1
1
1
1
1
1
1
1
0.999991
1.36273
2.28656
2.45341
2.44411
2.43775
2.42676
2.41018
2.38753
2.35894
2.32373
2.28142
1
1
1
1
1
1
1
1
1
1
1
1
1
1
1
1
1
1
0.999997
1.03002
2.08406
2.41588
2.4129
2.40801
2.39909
2.38478
2.364
2.33779
2.30675
2.27133
1
1
1
1
1
1
1
1
1
1
1
1
1
1
1
1
1
1
1
1.00015
1.54286
2.2909
2.39545
2.3837
2.37308
2.35935
2.34079
2.31789
2.2909
2.26023
1
1
1
1
1
1
1
1
1
1
1
1
1
1
1
1
1
1
1
1
1.0736
2.0939
2.37164
2.35915
2.34767
2.33428
2.31768
2.29777
2.27419
2.24667
1
1
1
1
1
1
1
1
1
1
1
1
1
1
1
1
1
1
1
1
1.00103
1.55908
2.23965
2.34111
2.3265
2.31285
2.29647
2.27839
2.25786
2.23337
1
1
1
1
1
1
1
1
1
1
1
1
1
1
1
1
1
1
1
1
1
1.08164
2.03472
2.32106
2.30706
2.29225
2.27577
2.259
2.24069
2.21899
1
1
1
1
1
1
1
1
1
1
1
1
1
1
1
1
1
1
1
1
1
1.00131
1.46631
2.16764
2.28841
2.27157
2.25794
2.24252
2.22516
2.20486
1
1
1
1
1
1
1
1
1
1
1
1
1
1
1
1
1
1
1
1
1
1
1.05445
1.91308
2.26063
2.2532
2.23987
2.22436
2.2079
2.1895
1
1
1
1
1
1
1
1
1
1
1
1
1
1
1
1
1
1
1
1
1
1
1.00067
1.33517
2.08178
2.23556
2.21655
2.20496
2.19072
2.17467
1
1
1
1
1
1
1
1
1
1
1
1
1
1
1
1
1
1
1
1
1
1
1
1.02551
1.69462
2.14663
2.20594
2.19011
2.17525
2.15966
1
1
1
1
1
1
1
1
1
1
1
1
1
1
1
1
1
1
1
1
1
1
1
1.00024
1.16336
1.91906
2.18517
2.17275
2.15972
2.14487
1
1
1
1
1
1
1
1
1
1
1
1
1
1
1
1
1
1
1
1
1
1
1
1
1.00579
1.41344
2.02916
2.1539
2.1386
2.12475
1
1
1
1
1
1
1
1
1
1
1
1
1
1
1
1
1
1
1
1
1
1
1
1
1.00004
1.04522
1.67792
2.06703
2.12762
2.11162
1
1
1
1
1
1
1
1
1
1
1
1
1
1
1
1
1
1
1
1
1
1
1
1
1
1.00068
1.16846
1.8342
2.09645
2.09662
1
1
1
1
1
1
1
1
1
1
1
1
1
1
1
1
1
1
1
1
1
1
1
1
1
1
1.00654
1.34581
1.9259
2.07515
1
1
1
1
1
1
1
1
1
1
1
1
1
1
1
1
1
1
1
1
1
1
1
1
1
1
1.00005
1.03147
1.52138
1.96733
1
1
1
1
1
1
1
1
1
1
1
1
1
1
1
1
1
1
1
1
1
1
1
1
1
1
1
1.00043
1.09028
1.66346
1
1
1
1
1
1
1
1
1
1
1
1
1
1
1
1
1
1
1
1
1
1
1
1
1
1
1
1
1.00231
1.18463
1
1
1
1
1
1
1
1
1
1
1
1
1
1
1
1
1
1
1
1
1
1
1
1
1
1
1
1
1.00001
1.00862
1
1
1
1
1
1
1
1
1
1
1
1
1
1
1
1
1
1
1
1
1
1
1
1
1
1
1
1
1
1.00007
1
1
1
1
1
1
1
1
1
1
1
1
1
1
1
1
1
1
1
1
1
1
1
1
1
1
1
1
1
1
1
1
1
1
1
1
1
1
1
1
1
1
1
1
1
1
1
1
1
1
1
1
1
1
1
1
1
1
1
1
1
1
1
1
1
1
1
1
1
1
1
1
1
1
1
1
1
1
1
1
1
1
1
1
1
1
1
1
1
1
1
1
1
1
1
1
1
1
1
1
1
1
1
1
1
1
1
1
1
1
1
1
1
1
1
1
1
1
1
1
1
1
1
1
1
1
1
1
1
1
1
1
1
1
1
1
1
1
1
1
1
1
1
1
1
1
1
1
1
1
1
1
1
1
1
1
1
1
1
1
1
1
1
1
1
1
1
1
1
1
1
1
1
1
1
1
1
1
1
1
1
1
1
1
1
1
1
1
1
1
1
1
1
1
1
1
1
1
1
1
1
1
1
1
1
1
1
1
1
1
1
1
1
1
1
1
1
1
1
1
1
1
1
1
1
1
1
1
1
1
1
1
1
1
1
1
1
1
1
1
1
1
1
1
1
1
1
1
1
1
1
1
1
1
1
1
1
1
1
1
1
1
1
1
1
1
1
1
1
1
1
1
1
1
1
1
1
1
1
1
1
1
1
1
1
1
1
1
1
1
1
1
1
1
1
1
1
1
1
1
1.67653
1.15439
0.869882
0.959364
1.12833
1.18735
1.24604
1.33746
1.44454
1.53312
1.59971
1.64151
1.63469
1.64181
1.68002
1.74926
1.78944
1.78998
1.76395
1.7119
1.69795
1.71084
1.74034
1.74986
1.74479
1.72834
1.7118
1.70631
1.70869
1.72196
1.73482
1.73527
1.72844
1.71164
1.69944
1.69742
1.69912
1.70762
1.71323
1.71185
1.70548
1.69798
1.69522
1.69484
1.6953
1.69594
1.69234
1.68348
1.677
1.67559
1.67635
1.67924
1.68035
1.67964
1.68692
1.75742
1.9377
2.20576
2.44252
2.5977
2.68307
2.70303
2.6724
2.6289
2.58854
2.55786
2.53585
2.52107
2.5075
2.49578
2.48442
2.47314
2.45844
2.43984
2.42028
2.40184
2.38533
2.36985
2.35421
2.33766
2.31996
2.30176
2.28584
2.27527
2.26941
2.26671
2.26536
2.26361
2.25937
2.25002
2.23547
2.21963
2.20809
2.20352
2.2014
2.1994
2.19756
2.19636
2.19378
2.18503
2.17392
2.1589
2.13272
2.10584
2.09305
2.08452
2.07665
2.07258
2.07056
2.06165
2.05346
2.04571
2.03223
2.01251
2.00424
2.00297
2.00235
2.00233
2.00434
2.00144
1.93533
1.61641
1.39631
1.31507
1.31766
1.27139
1.19395
1.19722
1.23493
1.27488
1.3084
1.34296
1.38733
1.42758
1.47559
1.54085
1.60272
1.63477
1.6412
1.64418
1.64762
1.6625
1.68567
1.68692
1.68384
1.6792
1.67685
1.67599
1.67827
1.68759
1.69017
1.69043
1.68916
1.68463
1.68055
1.67735
1.67742
1.67789
1.67807
1.67916
1.67955
1.67955
1.67831
1.67574
1.67364
1.67068
1.66797
1.66525
1.66186
1.66039
1.65868
1.65803
1.65951
1.67319
1.74468
1.91002
2.03325
2.09622
2.1823
2.29861
2.39498
2.48742
2.53334
2.54853
2.53711
2.51998
2.50483
2.4904
2.47819
2.4651
2.45321
2.44112
2.42623
2.40971
2.39246
2.3765
2.36253
2.34935
2.33569
2.32122
2.30589
2.29017
2.27524
2.2631
2.25487
2.25088
2.24987
2.2491
2.24665
2.24047
2.23013
2.21752
2.20485
2.19497
2.19033
2.18741
2.18412
2.18048
2.17488
2.16676
2.15719
2.14578
2.12958
2.10785
2.0893
2.07928
2.0715
2.06502
2.05945
2.05212
2.04474
2.03768
2.0273
2.01034
1.99845
1.99643
1.99533
1.99468
1.99519
1.9928
2.023
1.81813
1.64929
1.50589
1.43803
1.37791
1.30195
1.23822
1.22931
1.22648
1.21899
1.23042
1.27022
1.29982
1.31189
1.33389
1.38279
1.43259
1.47288
1.52342
1.55891
1.58068
1.59594
1.59546
1.59381
1.59772
1.60834
1.62008
1.6268
1.62812
1.62284
1.61146
1.60754
1.60926
1.61761
1.62657
1.62886
1.62659
1.62009
1.61849
1.6195
1.62464
1.63067
1.63155
1.62983
1.62323
1.61758
1.61536
1.61559
1.61509
1.61383
1.62003
1.64414
1.73331
1.89434
1.99387
2.01826
2.00956
2.01338
2.03246
2.10385
2.22474
2.34351
2.41326
2.44425
2.44701
2.44092
2.42755
2.41207
2.39494
2.38082
2.36979
2.35742
2.34595
2.3338
2.32156
2.31052
2.29966
2.28747
2.27461
2.26198
2.25009
2.23893
2.22863
2.21932
2.2116
2.2072
2.20575
2.20452
2.2023
2.19846
2.19308
2.1854
2.17392
2.16143
2.15369
2.14816
2.14186
2.13453
2.12607
2.11619
2.10586
2.09738
2.08762
2.07356
2.05918
2.05056
2.04278
2.03498
2.02683
2.01906
2.01144
2.00346
1.99317
1.98091
1.97476
1.97333
1.97221
1.97105
1.96729
2.08304
1.92273
1.79051
1.67651
1.5775
1.50946
1.44711
1.37217
1.3218
1.30476
1.28943
1.27416
1.25765
1.25047
1.24121
1.24301
1.25862
1.29207
1.33761
1.40275
1.45513
1.4733
1.48252
1.49253
1.50201
1.51861
1.54294
1.56372
1.56843
1.56735
1.55975
1.5457
1.54208
1.54426
1.55356
1.56213
1.56331
1.56248
1.55792
1.5555
1.55633
1.56113
1.56764
1.56921
1.56843
1.564
1.55959
1.55801
1.5574
1.55819
1.56636
1.60598
1.73444
1.86979
1.96088
1.99506
1.99053
1.97508
1.95423
1.93976
1.94141
1.97263
2.0685
2.19325
2.28629
2.32134
2.35178
2.34946
2.34701
2.33841
2.32425
2.30904
2.29438
2.28137
2.27024
2.25864
2.2482
2.23941
2.23018
2.21936
2.2082
2.19856
2.1903
2.18266
2.17484
2.16608
2.15819
2.15367
2.15188
2.1507
2.14896
2.14553
2.13999
2.13077
2.11572
2.10085
2.09291
2.08664
2.07961
2.07138
2.06236
2.05565
2.05102
2.04633
2.03905
2.02589
2.01158
2.00335
1.99615
1.98825
1.98012
1.97266
1.96693
1.96213
1.9554
1.94449
1.93622
1.93337
1.93127
1.92583
2.13166
2.00446
1.88306
1.77513
1.68871
1.61738
1.56268
1.51151
1.43965
1.37078
1.34803
1.33094
1.31428
1.30225
1.28832
1.2669
1.25446
1.25419
1.26124
1.28273
1.32568
1.36258
1.38881
1.41927
1.44292
1.45985
1.48283
1.50457
1.51111
1.51308
1.51381
1.51084
1.50851
1.51093
1.51855
1.5254
1.52665
1.52472
1.52044
1.51704
1.51698
1.51905
1.52191
1.52249
1.52183
1.51865
1.51531
1.5144
1.51621
1.52522
1.57238
1.71905
1.87815
1.94611
1.97227
1.96973
1.95664
1.943
1.93313
1.92405
1.91748
1.9127
1.92011
1.96317
2.0613
2.15642
2.24047
2.26722
2.28263
2.28069
2.27459
2.26936
2.25909
2.24389
2.2301
2.21637
2.20355
2.19375
2.18491
2.1746
2.16533
2.15878
2.15344
2.14808
2.14101
2.13019
2.11629
2.10827
2.10574
2.10381
2.10224
2.09868
2.09274
2.08427
2.07027
2.05062
2.03582
2.02821
2.02191
2.0165
2.01241
2.00922
2.00647
2.00335
1.99913
1.99115
1.97657
1.96154
1.9514
1.94314
1.93576
1.93042
1.92736
1.9254
1.92296
1.91673
1.90413
1.89161
1.885
1.87651
2.17227
2.06486
1.96175
1.86736
1.78039
1.69396
1.63484
1.59754
1.55275
1.49911
1.429
1.38665
1.37803
1.37248
1.35768
1.33289
1.3056
1.2789
1.26156
1.26315
1.26792
1.27701
1.29465
1.32416
1.36784
1.40189
1.42396
1.44577
1.46129
1.47217
1.48201
1.48702
1.48698
1.48734
1.49174
1.49743
1.50042
1.5012
1.50096
1.49988
1.49901
1.49904
1.49893
1.49809
1.49649
1.49462
1.49406
1.4955
1.50722
1.56915
1.71672
1.87827
1.9499
1.95927
1.95562
1.94842
1.94033
1.93588
1.93207
1.92468
1.9137
1.90192
1.89451
1.88938
1.89956
1.94413
2.03436
2.12731
2.19585
2.22766
2.23075
2.23671
2.23196
2.2256
2.21393
2.20096
2.18629
2.17207
2.15941
2.14667
2.13953
2.13553
2.13217
2.12812
2.12214
2.11138
2.0933
2.08006
2.07517
2.07089
2.06744
2.06225
2.05456
2.04576
2.03479
2.01906
1.99985
1.98756
1.9819
1.97804
1.9755
1.97397
1.97189
1.96891
1.96526
1.9597
1.94753
1.92897
1.91528
1.90721
1.90179
1.89842
1.89627
1.89436
1.89259
1.88898
1.87934
1.86104
1.84537
1.83257
2.19801
2.10946
2.01664
1.93018
1.85648
1.78393
1.71243
1.64953
1.60797
1.57607
1.53547
1.48888
1.43104
1.40438
1.39519
1.38245
1.36421
1.33997
1.31229
1.28104
1.27027
1.27167
1.27882
1.29128
1.30537
1.32413
1.34007
1.36039
1.38961
1.41323
1.43546
1.46011
1.47181
1.47505
1.4758
1.47609
1.47786
1.48319
1.48832
1.49
1.49028
1.48932
1.48869
1.48843
1.48708
1.48732
1.48995
1.51126
1.61112
1.76507
1.89432
1.94192
1.95409
1.95466
1.9525
1.94845
1.94433
1.93892
1.93072
1.91905
1.90468
1.89222
1.88242
1.87618
1.87173
1.86629
1.87634
1.92038
1.99689
2.08747
2.1444
2.18943
2.19936
2.20236
2.20088
2.19339
2.18065
2.16197
2.14237
2.1298
2.12455
2.1223
2.12027
2.11656
2.11132
2.10223
2.08595
2.06624
2.05297
2.04532
2.03851
2.03291
2.02571
2.01741
2.00921
1.99954
1.9851
1.96733
1.95752
1.95366
1.95107
1.94952
1.94854
1.94685
1.94364
1.93781
1.92519
1.90489
1.89095
1.88533
1.8812
1.8776
1.87495
1.87224
1.86933
1.86533
1.85681
1.83742
1.81791
1.80404
2.21576
2.13974
2.06151
1.98297
1.90941
1.84237
1.78336
1.72982
1.66834
1.6145
1.58768
1.55802
1.51983
1.47736
1.43662
1.41994
1.41156
1.39848
1.37838
1.34942
1.31504
1.29765
1.2931
1.29238
1.29566
1.29659
1.29604
1.29833
1.30843
1.32957
1.35828
1.39083
1.42512
1.45753
1.46625
1.46394
1.46114
1.46541
1.47556
1.48394
1.4852
1.48542
1.48345
1.48214
1.48225
1.48553
1.51527
1.65141
1.83234
1.91801
1.95152
1.96065
1.95826
1.95048
1.94707
1.94508
1.94049
1.93331
1.92331
1.9103
1.89473
1.88191
1.87335
1.86607
1.85935
1.85205
1.84541
1.83841
1.84376
1.87605
1.94148
2.02731
2.09663
2.14779
2.17421
2.1775
2.1735
2.1586
2.13944
2.12325
2.11417
2.10893
2.10857
2.10684
2.10086
2.09213
2.07882
2.05977
2.039
2.0253
2.0162
2.00806
2.00262
1.99708
1.99061
1.98449
1.97624
1.9615
1.94495
1.9394
1.93758
1.93554
1.93346
1.93035
1.92552
1.91869
1.90811
1.89194
1.87741
1.87179
1.868
1.86423
1.86203
1.86024
1.85532
1.84873
1.83849
1.82036
1.80224
1.78837
2.22641
2.16033
2.09054
2.02103
1.95755
1.89046
1.82775
1.78324
1.73073
1.67761
1.63323
1.59396
1.56827
1.54242
1.51125
1.47143
1.43707
1.42757
1.41686
1.39964
1.3781
1.35263
1.33055
1.31002
1.29924
1.29919
1.30032
1.30062
1.30357
1.30152
1.30207
1.31248
1.33825
1.37319
1.40216
1.43253
1.44417
1.45019
1.46005
1.4741
1.48055
1.48118
1.47819
1.47623
1.48244
1.53235
1.67064
1.8639
1.94136
1.9672
1.97079
1.96377
1.9508
1.93794
1.9331
1.93183
1.93102
1.92536
1.91496
1.90004
1.88629
1.87486
1.86346
1.85293
1.84472
1.83663
1.829
1.81983
1.81087
1.79993
1.79822
1.82054
1.88369
1.96942
2.05051
2.10842
2.14153
2.14151
2.13451
2.12075
2.10849
2.09946
2.09173
2.08581
2.08081
2.07312
2.0623
2.04833
2.03083
2.01094
1.99666
1.98815
1.98122
1.97696
1.97278
1.96838
1.9638
1.95648
1.94357
1.92731
1.91732
1.91424
1.91235
1.91037
1.90714
1.90215
1.89514
1.88538
1.87196
1.8612
1.85659
1.85287
1.84813
1.84171
1.83443
1.82635
1.81722
1.80631
1.79572
1.78088
2.23345
2.17446
2.11187
2.05098
1.99176
1.93044
1.87356
1.82368
1.77451
1.72944
1.68883
1.64607
1.60448
1.57853
1.55833
1.53194
1.49873
1.46258
1.44052
1.43073
1.42182
1.40743
1.38726
1.36128
1.33609
1.32646
1.31875
1.31034
1.30808
1.30587
1.30007
1.29417
1.29602
1.30378
1.31995
1.34646
1.37551
1.40639
1.42945
1.44531
1.46064
1.46958
1.46527
1.47294
1.57073
1.73725
1.88718
1.95694
1.97337
1.97094
1.96672
1.95505
1.93772
1.92441
1.91791
1.91564
1.9165
1.91091
1.89991
1.88781
1.87618
1.86367
1.84963
1.83672
1.82772
1.81968
1.81238
1.80302
1.79152
1.77848
1.76351
1.75182
1.75382
1.77393
1.83082
1.91269
2.00646
2.05754
2.08794
2.09371
2.08986
2.08194
2.07153
2.06402
2.05845
2.05007
2.03835
2.02619
2.01172
1.99501
1.97923
1.96884
1.96196
1.95669
1.95279
1.94958
1.9469
1.9439
1.9368
1.92038
1.90305
1.89556
1.8916
1.88898
1.88734
1.8849
1.88137
1.87696
1.8695
1.8563
1.84411
1.83753
1.83148
1.82429
1.81626
1.80744
1.79861
1.79181
1.78676
1.77565
2.23349
2.18125
2.12725
2.07408
2.0179
1.96088
1.9118
1.86279
1.8136
1.76974
1.73171
1.69288
1.65463
1.61926
1.58647
1.56487
1.54572
1.52117
1.49061
1.45561
1.44229
1.43656
1.42528
1.40999
1.39021
1.36582
1.34451
1.32637
1.31772
1.31715
1.3135
1.30758
1.30288
1.30078
1.29942
1.29977
1.30594
1.32261
1.35124
1.37839
1.4048
1.42865
1.45292
1.55192
1.78778
1.90839
1.96994
1.99183
1.99043
1.97824
1.96417
1.94673
1.93049
1.91793
1.90784
1.90138
1.89466
1.88523
1.87659
1.86921
1.85985
1.84815
1.83443
1.82122
1.81173
1.80337
1.79503
1.78395
1.77183
1.75918
1.74413
1.72962
1.72266
1.71895
1.72045
1.7369
1.7858
1.8616
1.94357
1.99477
2.02494
2.03914
2.0338
2.03117
2.03178
2.02777
2.01813
2.00524
1.98857
1.97207
1.95682
1.94573
1.93844
1.93433
1.93089
1.92792
1.92598
1.92423
1.92067
1.91182
1.89573
1.87901
1.87036
1.86656
1.86388
1.86299
1.86385
1.86232
1.85866
1.85094
1.83585
1.82064
1.81139
1.80408
1.79607
1.78823
1.78278
1.77814
1.77401
1.76426
2.23047
2.18544
2.13912
2.09014
2.03804
1.98927
1.94162
1.89467
1.84863
1.80796
1.7673
1.72764
1.69474
1.66474
1.63118
1.59341
1.56919
1.55565
1.53607
1.5106
1.48411
1.45697
1.44378
1.43905
1.42994
1.41227
1.38911
1.36081
1.34749
1.34252
1.33505
1.32535
1.31742
1.31278
1.30547
1.29641
1.29478
1.29552
1.29884
1.30928
1.33211
1.36175
1.48242
1.7331
1.88356
1.93814
1.97428
1.97306
1.96659
1.95683
1.9411
1.93011
1.92391
1.913
1.89797
1.8815
1.86921
1.86047
1.85363
1.84794
1.83994
1.82968
1.81688
1.80436
1.7951
1.78598
1.77532
1.76378
1.75203
1.74049
1.72786
1.71369
1.70313
1.6983
1.69557
1.69263
1.69062
1.70051
1.73447
1.79976
1.86082
1.91906
1.94965
1.97058
1.98392
1.98826
1.98833
1.98191
1.96798
1.95253
1.93467
1.91826
1.90975
1.90781
1.90569
1.90345
1.90187
1.90019
1.89791
1.89357
1.88382
1.86682
1.85108
1.84435
1.84099
1.83873
1.83835
1.83948
1.83787
1.83347
1.82464
1.80945
1.79232
1.78052
1.7733
1.76856
1.76453
1.76099
1.75706
1.74738
2.22424
2.18498
2.14454
2.09949
2.05419
2.01129
1.96633
1.91961
1.87925
1.84029
1.80163
1.76196
1.72692
1.69677
1.66877
1.63975
1.60973
1.57761
1.55584
1.54338
1.52678
1.50502
1.47871
1.45411
1.44545
1.43649
1.42243
1.40319
1.386
1.37457
1.36178
1.34782
1.33475
1.32815
1.32089
1.31156
1.30333
1.2974
1.29595
1.29728
1.3172
1.45992
1.66012
1.8203
1.84588
1.87489
1.88927
1.89525
1.90384
1.90622
1.9054
1.90397
1.90124
1.89434
1.87894
1.85863
1.84555
1.839
1.83589
1.82874
1.81882
1.80785
1.79511
1.78386
1.77478
1.76418
1.75416
1.7442
1.73426
1.72436
1.71406
1.70335
1.69085
1.68265
1.67816
1.67337
1.66732
1.66112
1.65666
1.65858
1.67514
1.71475
1.77811
1.83755
1.88179
1.91306
1.93644
1.93681
1.93554
1.92917
1.91482
1.89719
1.88462
1.87831
1.87595
1.87674
1.87635
1.87482
1.87272
1.86921
1.86256
1.85024
1.83499
1.82412
1.8182
1.81469
1.81228
1.81007
1.80904
1.80667
1.80116
1.7917
1.77542
1.75859
1.75177
1.74816
1.74435
1.74
1.73564
1.72641
2.21531
2.18189
2.14459
2.10508
2.06732
2.02716
1.98386
1.94245
1.90554
1.86674
1.82846
1.79336
1.76154
1.72753
1.69295
1.6693
1.64663
1.61826
1.58901
1.56191
1.54751
1.53404
1.51458
1.49117
1.47199
1.45415
1.43927
1.42888
1.41974
1.40793
1.39359
1.37775
1.36238
1.35291
1.34278
1.33223
1.3211
1.31251
1.31048
1.32955
1.46416
1.67533
1.7872
1.80813
1.79848
1.78878
1.7868
1.79162
1.80672
1.82947
1.84762
1.85584
1.85488
1.852
1.8444
1.82999
1.82208
1.82074
1.81883
1.80925
1.79698
1.78587
1.77462
1.76318
1.7495
1.73713
1.72951
1.7235
1.71749
1.70906
1.69917
1.69033
1.68031
1.6673
1.65929
1.65482
1.64898
1.64224
1.63467
1.6275
1.61972
1.61
1.61804
1.64708
1.70437
1.76246
1.81794
1.85124
1.88138
1.88365
1.88156
1.87553
1.86244
1.85132
1.84779
1.84925
1.84995
1.84951
1.84827
1.84498
1.83839
1.82735
1.81383
1.80335
1.79606
1.79015
1.78511
1.7817
1.77897
1.77677
1.7728
1.76597
1.75427
1.73952
1.73032
1.72626
1.72304
1.71917
1.7145
1.7049
2.20593
2.17659
2.14235
2.10723
2.07384
2.03674
1.99585
1.96082
1.92523
1.88918
1.85149
1.82058
1.78821
1.75664
1.72377
1.69701
1.67115
1.64646
1.62272
1.59851
1.57561
1.55101
1.53114
1.51789
1.50295
1.48548
1.46587
1.44784
1.43999
1.42984
1.41859
1.40626
1.39209
1.38034
1.36771
1.35523
1.34235
1.33335
1.35896
1.48215
1.70667
1.81718
1.82515
1.80989
1.7875
1.76687
1.75423
1.74599
1.73934
1.73968
1.74361
1.75025
1.75685
1.76109
1.76816
1.77777
1.78409
1.78535
1.78477
1.78336
1.77582
1.76645
1.75671
1.74263
1.7261
1.71292
1.7062
1.70209
1.69966
1.69246
1.68368
1.67533
1.66631
1.65305
1.63868
1.63349
1.63004
1.62488
1.61734
1.60863
1.59885
1.58948
1.57696
1.56663
1.57032
1.58821
1.63027
1.68607
1.74441
1.78563
1.81298
1.82901
1.82782
1.82198
1.81672
1.8146
1.81571
1.82574
1.82602
1.82313
1.81769
1.80752
1.79319
1.77997
1.77038
1.76483
1.76103
1.75679
1.75155
1.74651
1.74125
1.73509
1.7277
1.71944
1.71059
1.70316
1.69954
1.69676
1.69287
1.68321
2.1944
2.1678
2.13726
2.10603
2.07472
2.04055
2.00636
1.9749
1.94133
1.90435
1.87253
1.84428
1.81287
1.77953
1.74886
1.72536
1.69843
1.67065
1.6436
1.62561
1.60375
1.58012
1.5547
1.53665
1.52284
1.50863
1.49372
1.47693
1.4644
1.45075
1.438
1.42665
1.41651
1.40513
1.39139
1.37934
1.37319
1.40448
1.55455
1.72965
1.85281
1.8523
1.83992
1.81391
1.7875
1.76485
1.7477
1.73758
1.72878
1.71971
1.71291
1.70153
1.6895
1.67852
1.67739
1.6807
1.69109
1.70304
1.71438
1.72768
1.73429
1.73342
1.72793
1.71642
1.7035
1.69261
1.68419
1.67777
1.67501
1.6717
1.66817
1.66108
1.65091
1.63644
1.61918
1.61167
1.60899
1.60603
1.60068
1.59311
1.58425
1.5742
1.56124
1.54547
1.5343
1.52881
1.52966
1.53856
1.56416
1.61004
1.65967
1.71068
1.7398
1.7648
1.77785
1.77564
1.77482
1.77768
1.78728
1.79662
1.79532
1.78974
1.77894
1.7628
1.74709
1.73916
1.73552
1.7317
1.7265
1.71948
1.71209
1.70584
1.70102
1.69683
1.69148
1.6837
1.67555
1.67186
1.66882
1.66046
2.18207
2.15748
2.13051
2.10267
2.0735
2.04193
2.01279
1.98387
1.95231
1.91673
1.88921
1.86134
1.83249
1.799
1.77276
1.7468
1.71992
1.69185
1.66816
1.64761
1.62314
1.60084
1.57872
1.56233
1.54494
1.52708
1.50992
1.49846
1.48738
1.47447
1.46112
1.44542
1.43475
1.42134
1.40936
1.40775
1.44436
1.6174
1.79161
1.8799
1.87851
1.85952
1.84011
1.8221
1.80318
1.78216
1.76152
1.7454
1.73109
1.71679
1.70273
1.68972
1.67896
1.66877
1.65168
1.6318
1.62068
1.62057
1.62288
1.62977
1.63912
1.65365
1.66332
1.66573
1.66512
1.66062
1.65045
1.64494
1.64484
1.64923
1.64981
1.64406
1.63296
1.6183
1.60271
1.59165
1.58822
1.58492
1.5807
1.57632
1.57031
1.56146
1.54926
1.5329
1.5154
1.50448
1.49945
1.49578
1.49573
1.5034
1.51686
1.54079
1.58019
1.6252
1.6609
1.69357
1.7179
1.72324
1.73313
1.74454
1.75634
1.76011
1.75798
1.74968
1.73468
1.71929
1.70976
1.70487
1.70096
1.69565
1.68903
1.68234
1.67733
1.67428
1.67093
1.66544
1.65626
1.64741
1.64306
1.63577
2.1683
2.14541
2.12202
2.09737
2.07022
2.04179
2.0157
1.98911
1.95921
1.92851
1.90253
1.87544
1.84585
1.81539
1.79263
1.7664
1.73927
1.70858
1.68847
1.66709
1.64401
1.61961
1.59867
1.58383
1.56592
1.54936
1.53046
1.51841
1.5061
1.49353
1.48087
1.46687
1.45275
1.43728
1.43852
1.48752
1.6714
1.85047
1.9092
1.90595
1.8879
1.86634
1.84822
1.83338
1.81674
1.79397
1.76758
1.74745
1.7337
1.72069
1.7073
1.69415
1.6799
1.66407
1.64696
1.62659
1.60924
1.59752
1.58842
1.58149
1.57653
1.57242
1.57404
1.57839
1.58089
1.58224
1.58735
1.59561
1.60202
1.60824
1.60994
1.6098
1.6059
1.59878
1.58745
1.57258
1.56299
1.55962
1.55737
1.55699
1.55449
1.54703
1.5358
1.52108
1.50288
1.4866
1.47822
1.47377
1.47018
1.4695
1.47387
1.47558
1.47315
1.47981
1.50053
1.53026
1.57149
1.61453
1.64868
1.66865
1.69025
1.71026
1.71883
1.71876
1.71547
1.70409
1.68792
1.67828
1.67524
1.67234
1.6687
1.6641
1.65876
1.65389
1.64928
1.64457
1.63789
1.62703
1.61868
1.6112
2.15554
2.13415
2.1128
2.09085
2.0665
2.04137
2.01643
1.99144
1.96393
1.93811
1.91198
1.88563
1.85506
1.82942
1.80677
1.78135
1.75322
1.72535
1.70613
1.68309
1.66084
1.63664
1.61995
1.60331
1.5849
1.56653
1.54968
1.53894
1.52526
1.51173
1.49606
1.48103
1.46658
1.47029
1.53685
1.73414
1.91366
1.94638
1.93339
1.91118
1.88925
1.87391
1.85753
1.84068
1.82282
1.80352
1.78082
1.75714
1.73874
1.72305
1.70846
1.6947
1.68099
1.66737
1.65329
1.63494
1.60748
1.58724
1.57697
1.56832
1.56032
1.55178
1.5438
1.53529
1.52434
1.51175
1.50748
1.51132
1.521
1.5327
1.54659
1.55739
1.56232
1.5618
1.55891
1.5469
1.53742
1.53465
1.53456
1.53634
1.53452
1.52868
1.51947
1.50753
1.49208
1.47575
1.46269
1.4551
1.45104
1.44774
1.44633
1.44796
1.44708
1.4414
1.4337
1.42455
1.43046
1.45065
1.488
1.53575
1.57772
1.61421
1.64115
1.6665
1.67599
1.67451
1.66846
1.65605
1.64791
1.64649
1.64883
1.64741
1.64375
1.63674
1.62959
1.62384
1.61771
1.60913
1.6004
1.59005
2.14234
2.12324
2.10279
2.08171
2.06071
2.03929
2.01563
1.99014
1.96588
1.94274
1.91764
1.89176
1.86258
1.83985
1.81641
1.79255
1.76326
1.7407
1.72114
1.69822
1.67536
1.65226
1.63803
1.62041
1.60303
1.58325
1.56807
1.55646
1.54173
1.5282
1.5118
1.49383
1.50065
1.58643
1.79422
1.96974
1.98498
1.96066
1.92958
1.90962
1.8932
1.87953
1.86472
1.84822
1.83046
1.81156
1.7902
1.76471
1.74165
1.7251
1.71037
1.69574
1.6822
1.66969
1.65673
1.64065
1.61602
1.58954
1.57525
1.56366
1.55151
1.53993
1.52966
1.52002
1.51114
1.50085
1.48373
1.47013
1.46348
1.46333
1.46583
1.47161
1.47976
1.49163
1.50152
1.50315
1.50225
1.50022
1.49968
1.49998
1.50158
1.50271
1.49977
1.49105
1.47809
1.46614
1.45408
1.44349
1.43625
1.43085
1.42681
1.42405
1.42331
1.41862
1.41164
1.40697
1.397
1.383
1.38207
1.3946
1.41944
1.46089
1.50333
1.55017
1.58228
1.6074
1.62603
1.62908
1.62143
1.61327
1.61326
1.61551
1.61279
1.61075
1.61014
1.60675
1.60074
1.59363
1.58658
1.57501
2.12851
2.11125
2.09239
2.07211
2.05281
2.03361
2.01273
1.98852
1.96616
1.94329
1.92064
1.89552
1.87131
1.8475
1.82465
1.80158
1.77327
1.75458
1.73351
1.71211
1.68771
1.66905
1.65491
1.636
1.6185
1.59851
1.5867
1.57245
1.55726
1.54175
1.52456
1.53474
1.64168
1.85745
2.00265
2.01134
1.99655
1.97035
1.94277
1.91923
1.90074
1.88462
1.86837
1.85143
1.83384
1.8154
1.79501
1.77046
1.74432
1.72546
1.71176
1.69969
1.68824
1.67648
1.6634
1.64755
1.62577
1.59609
1.57438
1.56117
1.54866
1.53669
1.52535
1.51472
1.50429
1.49196
1.47696
1.46127
1.45177
1.44511
1.43692
1.42909
1.42381
1.42363
1.42746
1.43168
1.43388
1.43803
1.44439
1.44964
1.45618
1.46321
1.46631
1.46388
1.45742
1.44939
1.43844
1.43234
1.42764
1.41927
1.40993
1.40585
1.40323
1.39842
1.39205
1.38723
1.38248
1.37412
1.36598
1.35742
1.3505
1.35331
1.36429
1.38776
1.42698
1.46863
1.50931
1.54354
1.57206
1.57553
1.57589
1.58078
1.5808
1.57875
1.57724
1.57805
1.58068
1.57844
1.57228
1.56086
2.11061
2.09494
2.07844
2.06131
2.04319
2.02468
2.00548
1.98577
1.96497
1.94336
1.92059
1.89864
1.87737
1.85305
1.83156
1.80808
1.78282
1.76365
1.74453
1.72421
1.6976
1.68314
1.66755
1.64958
1.63085
1.61315
1.60143
1.58488
1.57038
1.55476
1.57253
1.7048
1.9049
2.03743
2.03959
2.02559
2.00124
1.97741
1.95145
1.92085
1.89902
1.8831
1.86739
1.85195
1.8363
1.8194
1.79923
1.77322
1.74556
1.72639
1.71164
1.69777
1.68469
1.67208
1.65952
1.64657
1.6306
1.60857
1.58407
1.56484
1.54964
1.53615
1.52337
1.51161
1.50103
1.49037
1.47707
1.46026
1.44481
1.43411
1.42576
1.41821
1.41219
1.4066
1.39923
1.39063
1.38129
1.3733
1.37248
1.37641
1.38439
1.39609
1.4104
1.42114
1.42224
1.41789
1.41297
1.4108
1.4086
1.40129
1.39311
1.38894
1.38589
1.38173
1.37559
1.3689
1.364
1.36044
1.35509
1.34692
1.33921
1.33248
1.32529
1.31918
1.32139
1.33104
1.35501
1.38782
1.42805
1.46606
1.49405
1.51193
1.53017
1.54319
1.54125
1.54084
1.54427
1.54969
1.55031
1.54475
2.09583
2.081
2.06611
2.05062
2.03401
2.01643
1.9991
1.9811
1.96196
1.94184
1.92094
1.90142
1.88017
1.85812
1.8359
1.81553
1.79172
1.77007
1.75414
1.73322
1.70872
1.69489
1.67859
1.66201
1.64115
1.62735
1.61232
1.59767
1.58636
1.61813
1.78513
1.97337
2.06183
2.05741
2.0393
2.01905
1.99653
1.97483
1.95168
1.92473
1.90178
1.88398
1.86727
1.85136
1.83578
1.81946
1.80007
1.77483
1.74697
1.72613
1.7116
1.6984
1.68496
1.67092
1.65634
1.64141
1.62582
1.60802
1.58624
1.56582
1.55116
1.53888
1.52652
1.51458
1.50459
1.49489
1.48195
1.46174
1.44155
1.42919
1.42049
1.41292
1.40506
1.39707
1.38961
1.3817
1.37187
1.35606
1.34085
1.3348
1.33287
1.33461
1.34016
1.35046
1.36437
1.36694
1.36374
1.36222
1.3638
1.36762
1.36901
1.36451
1.36246
1.36279
1.36022
1.35465
1.34595
1.33895
1.33577
1.33318
1.32883
1.32256
1.315
1.30714
1.29787
1.29163
1.28801
1.28985
1.29769
1.3147
1.34337
1.37821
1.41094
1.44249
1.47534
1.48974
1.49585
1.50868
1.51844
1.51731
2.08299
2.06847
2.05435
2.03955
2.02335
2.00675
1.99034
1.97345
1.9562
1.93779
1.91997
1.90022
1.88036
1.85909
1.84007
1.82008
1.79761
1.77647
1.76162
1.74098
1.71771
1.70299
1.68862
1.67193
1.65203
1.63614
1.62165
1.61632
1.66458
1.87041
2.05202
2.09773
2.08627
2.05956
2.03234
2.01392
1.99597
1.97544
1.95277
1.92717
1.90252
1.88362
1.86687
1.85035
1.83353
1.8157
1.79608
1.774
1.74969
1.72613
1.70748
1.69296
1.67995
1.66729
1.6547
1.64153
1.62665
1.60907
1.58763
1.56302
1.54278
1.53025
1.52127
1.51358
1.50594
1.49778
1.48707
1.47166
1.4484
1.42708
1.41509
1.40611
1.39789
1.39097
1.38415
1.37694
1.36695
1.35145
1.33349
1.32483
1.32005
1.31616
1.31206
1.30881
1.30919
1.30867
1.30631
1.30028
1.29698
1.30141
1.31002
1.3162
1.32302
1.33238
1.33576
1.33412
1.32771
1.31983
1.31502
1.31159
1.30894
1.30696
1.30346
1.29644
1.2862
1.27858
1.27334
1.26797
1.26312
1.25962
1.25868
1.263
1.27566
1.29816
1.32998
1.36888
1.40172
1.42537
1.4507
1.47352
2.06759
2.05361
2.04084
2.02654
2.01115
1.99605
1.98031
1.96445
1.94788
1.93246
1.91566
1.89808
1.87883
1.86023
1.84209
1.82238
1.80169
1.78269
1.76684
1.74731
1.72617
1.71101
1.69685
1.67904
1.65947
1.6427
1.64554
1.71769
1.92992
2.13227
2.1325
2.10529
2.0751
2.04978
2.02681
2.00949
1.99245
1.97297
1.95111
1.92729
1.90328
1.88166
1.86237
1.8439
1.82548
1.80677
1.78793
1.76918
1.74944
1.72747
1.70613
1.68905
1.67463
1.66108
1.64798
1.63474
1.62066
1.60526
1.58726
1.56661
1.54641
1.52882
1.5162
1.50642
1.49684
1.4886
1.48174
1.47261
1.45567
1.43468
1.41904
1.4083
1.39858
1.38888
1.37915
1.36942
1.35953
1.34755
1.33072
1.31709
1.31014
1.30475
1.29993
1.29663
1.29421
1.28963
1.28155
1.26666
1.25117
1.24595
1.24825
1.25483
1.26092
1.26946
1.28191
1.29437
1.29743
1.29471
1.29162
1.28913
1.28603
1.28307
1.27936
1.27637
1.27382
1.2691
1.26247
1.25502
1.24948
1.24545
1.24037
1.23502
1.23012
1.22441
1.22567
1.23475
1.25541
1.28609
1.31702
1.37626
2.0537
2.04132
2.02646
2.01255
1.99925
1.98505
1.9702
1.95463
1.94058
1.92574
1.90975
1.8934
1.87584
1.86018
1.84164
1.82338
1.80331
1.78788
1.77071
1.75103
1.73184