0.0009375 	0.0999 	0.005 	0.806435 	0.0406253 	0
0.0015625 	0.0999 	0.005 	0.857722 	0.0242097 	0
0.0021875 	0.0999 	0.005 	0.895092 	0.0139504 	0
0.0028125 	0.0999 	0.005 	0.917519 	0.00826941 	0
0.0034375 	0.0999 	0.005 	0.931951 	0.00510419 	0
0.0040625 	0.0999 	0.005 	0.942004 	0.00332208 	0
0.0046875 	0.0999 	0.005 	0.94933 	0.00229353 	0
0.0053125 	0.0999 	0.005 	0.954876 	0.00167262 	0
0.0059375 	0.0999 	0.005 	0.959225 	0.00127677 	0
0.0065625 	0.0999 	0.005 	0.962733 	0.00101046 	0
0.0071875 	0.0999 	0.005 	0.965628 	0.000822502 	0
0.0078125 	0.0999 	0.005 	0.96806 	0.000684416 	0
0.0084375 	0.0999 	0.005 	0.970136 	0.00057961 	0
0.0090625 	0.0999 	0.005 	0.971929 	0.000497955 	0
0.0096875 	0.0999 	0.005 	0.973496 	0.000432973 	0
0.0103125 	0.0999 	0.005 	0.974876 	0.000380346 	0
0.0109375 	0.0999 	0.005 	0.976104 	0.000337088 	0
0.0115625 	0.0999 	0.005 	0.977203 	0.000301078 	0
0.0121875 	0.0999 	0.005 	0.978193 	0.000270765 	0
0.0128125 	0.0999 	0.005 	0.97909 	0.000244995 	0
0.0134375 	0.0999 	0.005 	0.979908 	0.000222894 	0
0.0140625 	0.0999 	0.005 	0.980656 	0.000203787 	0
0.0146875 	0.0999 	0.005 	0.981344 	0.00018715 	0
0.0153125 	0.0999 	0.005 	0.981979 	0.000172568 	0
0.0159375 	0.0999 	0.005 	0.982567 	0.00015971 	0
0.0165625 	0.0999 	0.005 	0.983114 	0.00014831 	0
0.0171875 	0.0999 	0.005 	0.983623 	0.000138151 	0
0.0178125 	0.0999 	0.005 	0.984099 	0.000129055 	0
0.0184375 	0.0999 	0.005 	0.984545 	0.000120876 	0
0.0190625 	0.0999 	0.005 	0.984964 	0.000113492 	0
0.0196875 	0.0999 	0.005 	0.985358 	0.0001068 	0
0.0203125 	0.0999 	0.005 	0.98573 	0.000100715 	0
0.0209375 	0.0999 	0.005 	0.986082 	9.51622e-05 	0
0.0215625 	0.0999 	0.005 	0.986415 	9.00806e-05 	0
0.0221875 	0.0999 	0.005 	0.986731 	8.54166e-05 	0
0.0228125 	0.0999 	0.005 	0.987031 	8.11242e-05 	0
0.0234375 	0.0999 	0.005 	0.987316 	7.71635e-05 	0
0.0240625 	0.0999 	0.005 	0.987588 	7.35005e-05 	0
0.0246875 	0.0999 	0.005 	0.987847 	7.01046e-05 	0
0.0253125 	0.0999 	0.005 	0.988095 	6.69501e-05 	0
0.0259375 	0.0999 	0.005 	0.988332 	6.40128e-05 	0
0.0265625 	0.0999 	0.005 	0.988559 	6.1273e-05 	0
0.0271875 	0.0999 	0.005 	0.988776 	5.87117e-05 	0
0.0278125 	0.0999 	0.005 	0.988985 	5.63133e-05 	0
0.0284375 	0.0999 	0.005 	0.989185 	5.40634e-05 	0
0.0290625 	0.0999 	0.005 	0.989377 	5.19485e-05 	0
0.0296875 	0.0999 	0.005 	0.989562 	4.99574e-05 	0
0.0303125 	0.0999 	0.005 	0.98974 	4.80797e-05 	0
0.0309375 	0.0999 	0.005 	0.989912 	4.63056e-05 	0
0.0315625 	0.0999 	0.005 	0.990077 	4.46266e-05 	0
0.0321875 	0.0999 	0.005 	0.990237 	4.30342e-05 	0
0.0328125 	0.0999 	0.005 	0.990391 	4.15219e-05 	0
0.0334375 	0.0999 	0.005 	0.99054 	4.00829e-05 	0
0.0340625 	0.0999 	0.005 	0.990683 	3.87114e-05 	0
0.0346875 	0.0999 	0.005 	0.990822 	3.7401e-05 	0
0.0353125 	0.0999 	0.005 	0.990956 	3.61475e-05 	0
0.0359375 	0.0999 	0.005 	0.991086 	3.49453e-05 	0
0.0365625 	0.0999 	0.005 	0.991212 	3.37901e-05 	0
0.0371875 	0.0999 	0.005 	0.991333 	3.26774e-05 	0
0.0378125 	0.0999 	0.005 	0.991451 	3.16042e-05 	0
0.0384375 	0.0999 	0.005 	0.991565 	3.0566e-05 	0
0.0390625 	0.0999 	0.005 	0.991675 	2.95597e-05 	0
0.0396875 	0.0999 	0.005 	0.991781 	2.85817e-05 	0
0.0403125 	0.0999 	0.005 	0.991885 	2.76289e-05 	0
0.0409375 	0.0999 	0.005 	0.991985 	2.66983e-05 	0
0.0415625 	0.0999 	0.005 	0.992081 	2.57871e-05 	0
0.0421875 	0.0999 	0.005 	0.992175 	2.48927e-05 	0
0.0428125 	0.0999 	0.005 	0.992265 	2.40125e-05 	0
0.0434375 	0.0999 	0.005 	0.992352 	2.31439e-05 	0
0.0440625 	0.0999 	0.005 	0.992436 	2.22844e-05 	0
0.0446875 	0.0999 	0.005 	0.992517 	2.14316e-05 	0
0.0453125 	0.0999 	0.005 	0.992596 	2.05834e-05 	0
0.0459375 	0.0999 	0.005 	0.99267 	1.97375e-05 	0
0.0465625 	0.0999 	0.005 	0.992743 	1.88921e-05 	0
0.0471875 	0.0999 	0.005 	0.992812 	1.80448e-05 	0
0.0478125 	0.0999 	0.005 	0.992878 	1.71938e-05 	0
0.0484375 	0.0999 	0.005 	0.992942 	1.6337e-05 	0
0.0490625 	0.0999 	0.005 	0.993002 	1.54725e-05 	0
0.0496875 	0.0999 	0.005 	0.99306 	1.45987e-05 	0
0.0503125 	0.0999 	0.005 	0.993114 	1.37135e-05 	0
0.0509375 	0.0999 	0.005 	0.993165 	1.28152e-05 	0
0.0515625 	0.0999 	0.005 	0.993213 	1.1902e-05 	0
0.0521875 	0.0999 	0.005 	0.993259 	1.09721e-05 	0
0.0528125 	0.0999 	0.005 	0.9933 	1.00238e-05 	0
0.0534375 	0.0999 	0.005 	0.993339 	9.05555e-06 	0
0.0540625 	0.0999 	0.005 	0.993374 	8.06547e-06 	0
0.0546875 	0.0999 	0.005 	0.993406 	7.05194e-06 	0
0.0553125 	0.0999 	0.005 	0.993435 	6.01328e-06 	0
0.0559375 	0.0999 	0.005 	0.99346 	4.94787e-06 	0
0.0565625 	0.0999 	0.005 	0.993481 	3.85402e-06 	0
0.0571875 	0.0999 	0.005 	0.993498 	2.73011e-06 	0
0.0578125 	0.0999 	0.005 	0.993512 	1.57456e-06 	0
0.0584375 	0.0999 	0.005 	0.993522 	3.85696e-07 	0
0.0590625 	0.0999 	0.005 	0.993527 	-8.3815e-07 	0
0.0596875 	0.0999 	0.005 	0.993529 	-2.09856e-06 	0
0.0603125 	0.0999 	0.005 	0.993526 	-3.3976e-06 	0
0.0609375 	0.0999 	0.005 	0.993518 	-4.73674e-06 	0
0.0615625 	0.0999 	0.005 	0.993507 	-6.11776e-06 	0
0.0621875 	0.0999 	0.005 	0.99349 	-7.54275e-06 	0
0.0628125 	0.0999 	0.005 	0.993469 	-9.01366e-06 	0
0.0634375 	0.0999 	0.005 	0.993442 	-1.05324e-05 	0
0.0640625 	0.0999 	0.005 	0.993411 	-1.21013e-05 	0
0.0646875 	0.0999 	0.005 	0.993374 	-1.37228e-05 	0
0.0653125 	0.0999 	0.005 	0.993331 	-1.53995e-05 	0
0.0659375 	0.0999 	0.005 	0.993283 	-1.71339e-05 	0
0.0665625 	0.0999 	0.005 	0.993229 	-1.8929e-05 	0
0.0671875 	0.0999 	0.005 	0.993169 	-2.07882e-05 	0
0.0678125 	0.0999 	0.005 	0.993102 	-2.27152e-05 	0
0.0684375 	0.0999 	0.005 	0.993029 	-2.47138e-05 	0
0.0690625 	0.0999 	0.005 	0.992949 	-2.67883e-05 	0
0.0696875 	0.0999 	0.005 	0.992862 	-2.89437e-05 	0
0.0703125 	0.0999 	0.005 	0.992767 	-3.11858e-05 	0
0.0709375 	0.0999 	0.005 	0.992665 	-3.35206e-05 	0
0.0715625 	0.0999 	0.005 	0.992555 	-3.59552e-05 	0
0.0721875 	0.0999 	0.005 	0.992436 	-3.84976e-05 	0
0.0728125 	0.0999 	0.005 	0.992308 	-4.11574e-05 	0
0.0734375 	0.0999 	0.005 	0.992172 	-4.3945e-05 	0
0.0740625 	0.0999 	0.005 	0.992026 	-4.68723e-05 	0
0.0746875 	0.0999 	0.005 	0.99187 	-4.99536e-05 	0
0.0753125 	0.0999 	0.005 	0.991703 	-5.32045e-05 	0
0.0759375 	0.0999 	0.005 	0.991525 	-5.66438e-05 	0
0.0765625 	0.0999 	0.005 	0.991335 	-6.02931e-05 	0
0.0771875 	0.0999 	0.005 	0.991132 	-6.41776e-05 	0
0.0778125 	0.0999 	0.005 	0.990916 	-6.83267e-05 	0
0.0784375 	0.0999 	0.005 	0.990685 	-7.2775e-05 	0
0.0790625 	0.0999 	0.005 	0.990439 	-7.75629e-05 	0
0.0796875 	0.0999 	0.005 	0.990176 	-8.27376e-05 	0
0.0803125 	0.0999 	0.005 	0.989896 	-8.83562e-05 	0
0.0809375 	0.0999 	0.005 	0.989595 	-9.44858e-05 	0
0.0815625 	0.0999 	0.005 	0.989274 	-0.000101206 	0
0.0821875 	0.0999 	0.005 	0.988928 	-0.000108614 	0
0.0828125 	0.0999 	0.005 	0.988557 	-0.000116826 	0
0.0834375 	0.0999 	0.005 	0.988157 	-0.000125982 	0
0.0840625 	0.0999 	0.005 	0.987724 	-0.000136254 	0
0.0846875 	0.0999 	0.005 	0.987256 	-0.000147852 	0
0.0853125 	0.0999 	0.005 	0.986747 	-0.000161036 	0
0.0859375 	0.0999 	0.005 	0.986192 	-0.000176129 	0
0.0865625 	0.0999 	0.005 	0.985583 	-0.000193538 	0
0.0871875 	0.0999 	0.005 	0.984913 	-0.000213777 	0
0.0878125 	0.0999 	0.005 	0.984171 	-0.000237505 	0
0.0884375 	0.0999 	0.005 	0.983346 	-0.000265575 	0
0.0890625 	0.0999 	0.005 	0.982422 	-0.000299106 	0
0.0896875 	0.0999 	0.005 	0.98138 	-0.000339594 	0
0.0903125 	0.0999 	0.005 	0.980196 	-0.000389056 	0
0.0909375 	0.0999 	0.005 	0.978838 	-0.000450301 	0
0.0915625 	0.0999 	0.005 	0.977267 	-0.000527296 	0
0.0921875 	0.0999 	0.005 	0.975427 	-0.000625862 	0
0.0928125 	0.0999 	0.005 	0.973245 	-0.000754813 	0
0.0934375 	0.0999 	0.005 	0.970621 	-0.000928163 	0
0.0940625 	0.0999 	0.005 	0.967409 	-0.0011694 	0
0.0946875 	0.0999 	0.005 	0.963391 	-0.00152044 	0
0.0953125 	0.0999 	0.005 	0.958226 	-0.00206079 	0
0.0959375 	0.0999 	0.005 	0.951353 	-0.0029495 	0
0.0965625 	0.0999 	0.005 	0.941812 	-0.0045128 	0
0.0971875 	0.0999 	0.005 	0.927889 	-0.00741318 	0
0.0978125 	0.0999 	0.005 	0.905836 	-0.0129574 	0
0.0984375 	0.0999 	0.005 	0.867814 	-0.023547 	0
0.0990625 	0.0999 	0.005 	0.813205 	-0.0410477 	0
