/*--------------------------------*- C++ -*----------------------------------*\
  =========                 |
  \\      /  F ield         | OpenFOAM: The Open Source CFD Toolbox
   \\    /   O peration     | Website:  https://openfoam.org
    \\  /    A nd           | Version:  9
     \\/     M anipulation  |
\*---------------------------------------------------------------------------*/
FoamFile
{
    format      ascii;
    class       surfaceScalarField;
    location    "49";
    object      phi;
}
// * * * * * * * * * * * * * * * * * * * * * * * * * * * * * * * * * * * * * //

dimensions      [0 3 -1 0 0 0 0];

internalField   nonuniform List<scalar> 
16735
(
-0.00298937
0.00298849
8.83806e-07
-0.00897759
0.00598643
1.79427e-06
-0.016844
0.00786406
2.35832e-06
-0.0258642
0.00901745
2.77664e-06
-0.0359301
0.0100627
3.24304e-06
-0.0464631
0.0105292
3.72989e-06
-0.0585536
0.0120863
4.28233e-06
-0.0695142
0.0109559
4.60085e-06
-0.0842584
0.0147397
4.6256e-06
0.0111012
3.96133e-06
-0.0953636
-0.00293816
0.00592665
-0.00883099
0.0118793
-0.016561
0.015594
-0.0253948
0.0178513
-0.0352112
0.0198791
-0.0454
0.020718
-0.0570463
0.0237326
-0.0673632
0.0212727
-0.0813928
0.0287693
0.0209533
-0.091245
-0.00283792
0.00876457
-0.00854282
0.0175842
-0.0160029
0.0230541
-0.0244671
0.0263155
-0.0337856
0.0291977
-0.0432924
0.0302248
-0.0540413
0.0344815
-0.0630822
0.0303136
-0.0756946
0.0413818
0.0283494
-0.0830907
-0.00269294
0.0114575
-0.00812304
0.0230143
-0.0151857
0.0301167
-0.0231033
0.0342331
-0.0316781
0.0377725
-0.0401767
0.0387234
-0.0495564
0.0438612
-0.0567049
0.0374621
-0.0672079
0.0518847
0.0321781
-0.0710366
-0.00250942
0.0139669
-0.00758607
0.0280909
-0.0141326
0.0366632
-0.021336
0.0414366
-0.0289248
0.0453612
-0.0361061
0.0459048
-0.0436152
0.0513703
-0.0482651
0.0421119
-0.0559436
0.0595633
0.0314471
-0.0552126
-0.00229523
0.0162622
-0.00695019
0.0327459
-0.0128717
0.0425847
-0.0192061
0.047771
-0.0255719
0.0517269
-0.0311483
0.0514812
-0.0362443
0.0564664
-0.0377895
0.0436572
-0.0418124
0.0635862
0.025276
-0.0356413
-0.00205949
0.0183216
-0.00623677
0.0369232
-0.0114362
0.0477841
-0.016761
0.0530958
-0.0216724
0.0566383
-0.0253811
0.0551899
-0.0274695
0.0585548
-0.0253113
0.041499
-0.0245446
0.0628194
0.012894
-0.0121626
-0.00181221
0.0201338
-0.00546915
0.0405801
-0.00986274
0.0521777
-0.0140504
0.0572834
-0.0172804
0.0598684
-0.018882
0.0567914
-0.0173012
0.0569741
-0.0109274
0.0351252
-0.00352224
0.0554143
-0.00702303
0.0163948
-0.00156374
0.0216976
-0.0046714
0.0436878
-0.00818875
0.0556951
-0.0111219
0.0602165
-0.0124419
0.0611884
-0.0117103
0.0560598
-0.0056646
0.0509284
0.00546361
0.023997
0.0205853
0.0402926
-0.0375549
0.0511172
-0.00132416
0.0230217
-0.00386667
0.0462303
-0.00644955
0.0582779
-0.00801445
0.0617814
-0.0071797
0.0603537
-0.00390083
0.0527809
0.00716818
0.0398594
0.024302
0.00686309
0.0490186
0.015576
-0.0811602
0.0926238
-0.00110264
0.0241244
-0.00307539
0.048203
-0.00467496
0.0598775
-0.00475274
0.0618592
-0.00144806
0.057049
0.00488119
0.0464517
0.0214445
0.023296
0.0450601
-0.0167525
0.082016
-0.0213799
-0.140399
0.141255
-0.000906729
0.0250311
-0.00231315
0.0496094
-0.00288457
0.0604489
-0.00135106
0.0603257
0.00458215
0.0511158
0.0148496
0.0361842
0.0377872
0.000358452
0.068614
-0.0475793
0.119826
-0.0725918
-0.21648
0.195907
-0.000741674
0.0257728
-0.00158852
0.0504563
-0.00107847
0.0599389
0.00229447
0.0569528
0.0111844
0.0422258
0.0262123
0.0211562
0.0565262
-0.0299554
0.0963179
-0.0873711
0.162777
-0.139051
-0.307434
0.253731
-0.000609956
0.0263828
-0.000901359
0.0507477
0.000746891
0.0582906
0.00620965
0.05149
0.0185556
0.0298799
0.0395277
0.000184121
0.0780193
-0.0684471
0.129239
-0.138591
0.210461
-0.220272
-0.407551
0.310578
-0.000511913
0.0268947
-0.000239091
0.0504749
0.00262941
0.0554221
0.0104823
0.0436372
0.0269297
0.0134325
0.0553062
-0.0281924
0.102632
-0.115773
0.166998
-0.202958
0.260421
-0.313695
-0.509092
0.361963
-0.000438493
0.0273332
0.000417071
0.0496193
0.00466725
0.051172
0.0153065
0.0329979
0.0366461
-0.00790713
0.0738529
-0.0653992
0.130579
-0.172499
0.207502
-0.27988
0.308034
-0.414228
-0.605193
0.404134
-0.000378683
0.0277118
0.00110794
0.0481327
0.00696285
0.045317
0.0209409
0.0190199
0.0481551
-0.0351213
0.0951514
-0.112396
0.161345
-0.238693
0.247551
-0.366086
0.348363
-0.51504
-0.6917
0.43487
-0.000320157
0.028032
0.00188519
0.0459273
0.00965206
0.0375502
0.0276921
0.000979805
0.0618954
-0.0693245
0.11882
-0.16932
0.19321
-0.313083
0.283616
-0.456492
0.378252
-0.609676
-0.767204
0.453757
-0.000246111
0.0282781
0.00280855
0.0428727
0.0128948
0.0274639
0.035868
-0.0219934
0.078057
-0.111514
0.143954
-0.235218
0.223613
-0.392741
0.312751
-0.545631
0.396983
-0.693908
-0.832242
0.462021
-0.000136325
0.0284144
0.00394439
0.0387919
0.0168675
0.0145408
0.045707
-0.0508329
0.0963356
-0.162142
0.169028
-0.30791
0.250067
-0.47378
0.333406
-0.62897
0.405611
-0.766112
-0.888901
0.46227
3.07191e-05
0.0283837
0.00536302
0.0334596
0.0217501
-0.00184627
0.0572805
-0.0863632
0.115849
-0.22071
0.192177
-0.384238
0.270859
-0.552462
0.345547
-0.703658
0.407142
-0.827707
-0.944903
0.463143
0.00024858
0.0281351
0.00713885
0.0265694
0.027701
-0.0224084
0.0703826
-0.129045
0.135284
-0.285611
0.211779
-0.460733
0.285261
-0.625945
0.350306
-0.768703
0.405197
-0.882599
-0.993491
0.453785
0.000555556
0.0275796
0.00934946
0.0177755
0.034805
-0.0478639
0.0844726
-0.178712
0.153222
-0.354361
0.226855
-0.534366
0.293448
-0.692538
0.34988
-0.825135
0.397546
-0.930265
-1.03476
0.438812
0.000961925
0.0266177
0.0120721
0.00666531
0.0430067
-0.0787986
0.0987306
-0.234436
0.168494
-0.424124
0.237121
-0.602993
0.296285
-0.751702
0.344951
-0.8738
0.386499
-0.971813
-1.0717
0.423446
0.00147906
0.0251386
0.0153735
-0.0072291
0.0520678
-0.115493
0.112221
-0.294589
0.180398
-0.492302
0.242833
-0.665428
0.29466
-0.803529
0.336692
-0.915832
0.373216
-1.00834
-1.10464
0.406156
0.0021209
0.0230177
0.0192839
-0.0243921
0.0615833
-0.157792
0.124096
-0.357103
0.188709
-0.556914
0.244498
-0.721216
0.289523
-0.848554
0.325945
-0.952253
0.358229
-1.04062
-1.1345
0.388079
0.00290892
0.0201088
0.0237655
-0.0452486
0.0710433
-0.20507
0.13376
-0.41982
0.193543
-0.616697
0.242735
-0.770408
0.281671
-0.88749
0.313378
-0.983961
0.34216
-1.0694
-1.16165
0.369318
0.00387591
0.0162329
0.0286996
-0.0700723
0.0799008
-0.256271
0.140925
-0.480844
0.195218
-0.670991
0.238166
-0.813356
0.27177
-0.921094
0.299514
-1.01171
0.325288
-1.09518
-1.18641
0.350042
0.00506204
0.0111708
0.033902
-0.0989122
0.0876564
-0.310026
0.145562
-0.53875
0.194141
-0.719569
0.231358
-0.850572
0.260345
-0.950081
0.284719
-1.03608
0.307863
-1.11832
-1.20894
0.3304
0.00649861
0.0046722
0.0391544
-0.131568
0.0939518
-0.364823
0.147815
-0.592612
0.190743
-0.762498
0.2228
-0.882629
0.247804
-0.975086
0.269267
-1.05754
0.290031
-1.13908
-1.22936
0.310443
0.00818549
-0.00351329
0.0442344
-0.167617
0.09861
-0.419199
0.147909
-0.641911
0.185436
-0.800026
0.212899
-0.910092
0.234456
-0.996642
0.253348
-1.07643
0.271898
-1.15763
-1.2477
0.290244
0.0100784
-0.0135917
0.0489255
-0.206464
0.101604
-0.471877
0.146109
-0.686417
0.17859
-0.832506
0.201987
-0.93349
0.22053
-1.01518
0.237098
-1.093
0.253539
-1.17407
-1.264
0.269839
0.0120972
-0.0256889
0.0530247
-0.247391
0.103003
-0.521856
0.142686
-0.726099
0.170524
-0.860344
0.190325
-0.953291
0.206197
-1.03106
0.220616
-1.10742
0.23501
-1.18847
-1.27826
0.249269
0.0141464
-0.0398354
0.0563605
-0.289606
0.102934
-0.568429
0.137895
-0.761061
0.161509
-0.883958
0.178119
-0.969901
0.191583
-1.04452
0.203969
-1.11981
0.216355
-1.20085
-1.29048
0.228569
0.0161387
-0.0559741
0.0588146
-0.332281
0.101548
-0.611162
0.131975
-0.791488
0.151765
-0.903748
0.165526
-0.983661
0.17678
-1.05577
0.187209
-1.13024
0.197609
-1.21126
-1.30064
0.207772
0.0180028
-0.0739769
0.0603314
-0.37461
0.09901
-0.649841
0.12514
-0.817619
0.141475
-0.920083
0.15267
-0.994856
0.16186
-1.06496
0.170379
-1.13876
0.178805
-1.21968
-1.30875
0.18691
0.0196804
-0.0936573
0.0609108
-0.41584
0.0954813
-0.684411
0.117578
-0.839715
0.130787
-0.933291
0.139644
-1.00371
0.146874
-1.07219
0.153516
-1.1454
0.159973
-1.22614
-1.31479
0.166018
0.0211186
-0.114776
0.0605926
-0.455314
0.0911144
-0.714933
0.109452
-0.858053
0.119822
-0.943661
0.12652
-1.01041
0.131867
-1.07754
0.13665
-1.15018
0.141142
-1.23063
-1.31877
0.145127
0.022267
-0.137043
0.0594349
-0.492482
0.0860477
-0.741546
0.100902
-0.872908
0.108678
-0.951436
0.113356
-1.01509
0.116872
-1.08106
0.119809
-1.15312
0.122341
-1.23316
-1.32071
0.124273
0.0230826
-0.160126
0.0575236
-0.526923
0.0804076
-0.76443
0.0920452
-0.884546
0.0974321
-0.956823
0.100197
-1.01786
0.101919
-1.08278
0.103018
-1.15422
0.103599
-1.23374
-1.3206
0.103497
0.0235365
-0.183662
0.0550382
-0.558425
0.0743123
-0.783704
0.0829757
-0.893209
0.0861479
-0.959995
0.0870793
-1.01879
0.0870338
-1.08273
0.0862999
-1.15348
0.084944
-1.23239
-1.31851
0.0828526
0.0236168
-0.207279
0.0520446
-0.586853
0.0678664
-0.799526
0.0737733
-0.899116
0.0748744
-0.961096
0.074033
-1.01795
0.0722396
-1.08094
0.0696784
-1.15092
0.0663972
-1.22911
-1.31442
0.0623051
0.023329
-0.230608
0.0486145
-0.612138
0.0611604
-0.812072
0.0645043
-0.90246
0.0636515
-0.960243
0.0610839
-1.01538
0.0575586
-1.07741
0.0531793
-1.14654
0.0479765
-1.2239
-1.30832
0.0418719
0.0226941
-0.253302
0.0448216
-0.634266
0.054274
-0.821524
0.0552234
-0.903409
0.0525113
-0.957531
0.0482545
-1.01112
0.0430108
-1.07217
0.0368283
-1.14036
0.0297262
-1.2168
-1.30017
0.0215785
0.0217454
-0.275047
0.0407362
-0.653257
0.0472585
-0.828046
0.0459742
-0.902125
0.0414806
-0.953038
0.035565
-1.00521
0.0286147
-1.06522
0.0206394
-1.13238
0.0117101
-1.20787
-1.28983
0.00136692
0.0205237
-0.295571
0.0364242
-0.669157
0.040171
-0.831793
0.0367932
-0.898747
0.0305824
-0.946827
0.0230327
-0.997656
0.0143886
-1.05658
0.00458965
-1.12258
-0.00605879
-1.19722
-1.2775
-0.018387
0.0190723
-0.314643
0.0319458
-0.682031
0.0330648
-0.832912
0.0277113
-0.893394
0.0198347
-0.938951
0.0106676
-0.988489
0.000317442
-1.04623
-0.0111213
-1.11115
-0.0237103
-1.18464
-1.26334
-0.0378653
0.017434
-0.332077
0.0273556
-0.691952
0.0259835
-0.83154
0.0187548
-0.886165
0.00924428
-0.92944
-0.0015278
-0.977717
-0.0134221
-1.03433
-0.0265781
-1.09799
-0.0410634
-1.17015
-1.24733
-0.0570766
0.0156486
-0.347726
0.0227018
-0.699005
0.0189634
-0.827802
0.00994462
-0.877146
-0.00120171
-0.918294
-0.0134017
-0.965517
-0.0269606
-1.02077
-0.0418045
-1.08315
-0.058121
-1.15383
-1.22948
-0.0759741
0.0137528
-0.361479
0.0180269
-0.703279
0.0120321
-0.821807
0.00127247
-0.866386
-0.0112691
-0.905752
-0.0250886
-0.951697
-0.0402514
-1.00561
-0.0567661
-1.06663
-0.0748637
-1.13574
-1.2098
-0.0945388
0.01178
-0.373259
0.013368
-0.704867
0.00520072
-0.81364
-0.0071164
-0.854069
-0.0211751
-0.891693
-0.0365417
-0.936331
-0.053278
-0.988873
-0.0714381
-1.04847
-0.0912761
-1.1159
-1.18834
-0.112742
0.00976056
-0.383019
0.00876025
-0.703867
-0.00150494
-0.803374
-0.0153296
-0.840245
-0.0308636
-0.876159
-0.0477426
-0.919452
-0.0660238
-0.970592
-0.0857991
-1.0287
-0.107339
-1.09436
-1.16511
-0.130562
0.00771942
-0.390739
0.00424366
-0.700391
-0.00789419
-0.791237
-0.0233406
-0.824798
-0.0403174
-0.859183
-0.058677
-0.901092
-0.0784739
-0.950795
-0.0998307
-1.00734
-0.123036
-1.07115
-1.14017
-0.147978
0.00567542
-0.396414
-7.82172e-05
-0.694638
-0.0141531
-0.777162
-0.0311347
-0.807817
-0.0495257
-0.840792
-0.0693324
-0.881285
-0.0906133
-0.929515
-0.113516
-0.984436
-0.13835
-1.04632
-1.11355
-0.164967
0.0036466
-0.400061
-0.00464082
-0.68635
-0.0202502
-0.761552
-0.0386973
-0.78937
-0.058477
-0.821012
-0.0796971
-0.860065
-0.102428
-0.906784
-0.126841
-0.960023
-0.153265
-1.01989
-1.08532
-0.181503
0.00166936
-0.40173
-0.00894369
-0.675737
-0.026167
-0.744329
-0.0460193
-0.769517
-0.067161
-0.79987
-0.0897598
-0.837466
-0.113905
-0.882639
-0.139792
-0.934136
-0.167762
-0.991924
-1.05552
-0.197559
-0.000219056
-0.401511
-0.0130787
-0.662878
-0.0318938
-0.725514
-0.0530961
-0.748315
-0.0755679
-0.777398
-0.0995096
-0.813525
-0.125032
-0.857116
-0.152357
-0.906811
-0.181825
-0.962456
-1.0242
-0.213142
-0.00234728
-0.399164
-0.0170624
-0.648163
-0.0374178
-0.705159
-0.0599216
-0.725811
-0.0836885
-0.753632
-0.108936
-0.788278
-0.1358
-0.830251
-0.164539
-0.878073
-0.195448
-0.931547
-0.991434
-0.228217
-0.00432663
-0.394837
-0.0208933
-0.631596
-0.0427275
-0.683325
-0.0664901
-0.702048
-0.0915142
-0.728607
-0.118028
-0.761764
-0.146201
-0.802078
-0.176329
-0.847945
-0.208584
-0.899292
-0.95747
-0.242548
-0.00621941
-0.388618
-0.0245686
-0.613247
-0.0478168
-0.660076
-0.0727961
-0.677069
-0.0990371
-0.702366
-0.126777
-0.734023
-0.156225
-0.77263
-0.187683
-0.816487
-0.221243
-0.865732
-0.922707
-0.256006
-0.00803197
-0.380586
-0.0280848
-0.593194
-0.052681
-0.63548
-0.0788342
-0.650916
-0.10625
-0.674951
-0.135176
-0.705097
-0.165855
-0.741952
-0.198546
-0.783796
-0.232957
-0.831321
-0.885749
-0.269915
-0.00976463
-0.370821
-0.0314389
-0.571519
-0.0573166
-0.609603
-0.0845995
-0.623633
-0.113146
-0.646404
-0.143216
-0.675028
-0.175069
-0.710098
-0.208878
-0.749987
-0.24455
-0.795649
-0.847203
-0.283096
-0.011416
-0.359405
-0.0346278
-0.548308
-0.0617208
-0.58251
-0.0900874
-0.595266
-0.119719
-0.616773
-0.150887
-0.643859
-0.183867
-0.677118
-0.21882
-0.715034
-0.255869
-0.7586
-0.807321
-0.295751
-0.0129841
-0.346421
-0.0376488
-0.523643
-0.065891
-0.554267
-0.0952938
-0.565864
-0.125963
-0.586104
-0.15818
-0.611642
-0.192227
-0.643072
-0.228266
-0.678994
-0.266536
-0.72033
-0.766173
-0.307684
-0.0144667
-0.331954
-0.0404995
-0.49761
-0.0698252
-0.524942
-0.100214
-0.535474
-0.131871
-0.554447
-0.165088
-0.578426
-0.200152
-0.608007
-0.237251
-0.641896
-0.276677
-0.680903
-0.723881
-0.31897
-0.0158617
-0.316092
-0.0431777
-0.470294
-0.0735214
-0.494598
-0.104846
-0.50415
-0.137439
-0.521854
-0.1716
-0.544264
-0.207628
-0.57198
-0.24573
-0.603793
-0.286233
-0.6404
-0.680515
-0.329599
-0.0171664
-0.298926
-0.0456817
-0.441779
-0.0769776
-0.463302
-0.109184
-0.471943
-0.14266
-0.488379
-0.177712
-0.509212
-0.214649
-0.535043
-0.253701
-0.564741
-0.29521
-0.598891
-0.636148
-0.339576
-0.0183779
-0.280548
-0.0480098
-0.412147
-0.0801921
-0.43112
-0.113226
-0.438909
-0.147529
-0.454076
-0.183416
-0.473326
-0.221205
-0.497254
-0.261147
-0.524799
-0.303592
-0.556446
-0.590847
-0.348893
-0.0194923
-0.261056
-0.0501604
-0.381479
-0.0831635
-0.398117
-0.116969
-0.405103
-0.152042
-0.419003
-0.188705
-0.436663
-0.227289
-0.45867
-0.268058
-0.48403
-0.31137
-0.513134
-0.544677
-0.357539
-0.0205028
-0.240553
-0.0521318
-0.34985
-0.0858907
-0.364358
-0.12041
-0.370584
-0.156195
-0.383219
-0.193574
-0.399283
-0.232892
-0.419352
-0.274426
-0.442496
-0.318535
-0.469025
-0.497708
-0.365505
-0.021395
-0.219158
-0.0539228
-0.317322
-0.0883732
-0.329907
-0.123546
-0.335411
-0.159982
-0.346782
-0.198017
-0.361248
-0.238008
-0.379362
-0.280241
-0.400262
-0.325077
-0.424189
-0.450008
-0.372777
-0.0222139
-0.196944
-0.0555355
-0.284
-0.0906108
-0.294832
-0.126375
-0.299646
-0.163402
-0.309756
-0.20203
-0.322619
-0.24263
-0.338762
-0.285496
-0.357396
-0.330987
-0.378698
-0.401648
-0.379347
-0.0229591
-0.173985
-0.0569707
-0.249989
-0.0926027
-0.2592
-0.128895
-0.263353
-0.166449
-0.272203
-0.205608
-0.283461
-0.246752
-0.297618
-0.290184
-0.313963
-0.336258
-0.332624
-0.352702
-0.385204
-0.0236184
-0.150367
-0.0582281
-0.215379
-0.094348
-0.22308
-0.131104
-0.226597
-0.169122
-0.234185
-0.208746
-0.243837
-0.250369
-0.255995
-0.294299
-0.270034
-0.340882
-0.286042
-0.303245
-0.390339
-0.0241872
-0.12618
-0.059307
-0.180259
-0.0958457
-0.186542
-0.133001
-0.189442
-0.171418
-0.195768
-0.211443
-0.203812
-0.253477
-0.21396
-0.297834
-0.225677
-0.344852
-0.239023
-0.253353
-0.394744
-0.024663
-0.101517
-0.0602069
-0.144715
-0.0970951
-0.149653
-0.134583
-0.151955
-0.173334
-0.157016
-0.213694
-0.163452
-0.256072
-0.171582
-0.300784
-0.180966
-0.348162
-0.191645
-0.203102
-0.398414
-0.0250446
-0.076472
-0.0609273
-0.108833
-0.0980954
-0.112485
-0.13585
-0.1142
-0.174869
-0.117997
-0.215497
-0.122824
-0.258151
-0.128927
-0.303146
-0.135972
-0.35081
-0.14398
-0.152566
-0.401346
-0.0253313
-0.0511407
-0.0614679
-0.072696
-0.0988462
-0.0751069
-0.136801
-0.0762448
-0.176022
-0.0787768
-0.216851
-0.081995
-0.259712
-0.0860664
-0.304919
-0.0907653
-0.352795
-0.0961038
-0.101822
-0.403539
-0.0255226
-0.0256181
-0.0618284
-0.0363902
-0.0993469
-0.0375884
-0.137436
-0.0381558
-0.176791
-0.0394219
-0.217755
-0.0410311
-0.260754
-0.0430676
-0.306101
-0.0454178
-0.354118
-0.0480868
-0.0509438
-0.404996
-0.0256183
1.58995e-07
-0.0620087
2.22965e-07
-0.0995974
2.2074e-07
-0.137753
2.12064e-07
-0.177175
2.05391e-07
-0.218207
1.99063e-07
-0.261274
1.93523e-07
-0.306692
1.88308e-07
-0.354779
1.83291e-07
1.77676e-07
-0.405723
-0.0256183
0.0256185
-0.0620087
0.0363906
-0.0995974
0.0375889
-0.137753
0.0381562
-0.177175
0.0394223
-0.218207
0.0410315
-0.261274
0.0430679
-0.306692
0.0454181
-0.354779
0.0480871
0.0509442
-0.405723
-0.0255226
0.0511411
-0.0618284
0.0726964
-0.0993469
0.0751074
-0.137436
0.0762452
-0.176791
0.0787772
-0.217755
0.0819954
-0.260754
0.0860668
-0.306101
0.0907656
-0.354118
0.0961042
0.101822
-0.404996
-0.0253313
0.0764723
-0.0614679
0.108833
-0.0988462
0.112486
-0.136801
0.1142
-0.176022
0.117998
-0.216851
0.122825
-0.259712
0.128928
-0.304919
0.135972
-0.352795
0.143981
0.152566
-0.403539
-0.0250446
0.101517
-0.0609273
0.144716
-0.0980954
0.149654
-0.13585
0.151955
-0.174869
0.157017
-0.215497
0.163453
-0.258151
0.171582
-0.303146
0.180966
-0.35081
0.191645
0.203102
-0.401346
-0.024663
0.12618
-0.0602069
0.18026
-0.0970951
0.186542
-0.134583
0.189443
-0.173334
0.195768
-0.213694
0.203812
-0.256072
0.213961
-0.300784
0.225678
-0.348162
0.239024
0.253354
-0.398414
-0.0241872
0.150367
-0.059307
0.215379
-0.0958457
0.223081
-0.133001
0.226598
-0.171418
0.234185
-0.211443
0.243837
-0.253477
0.255996
-0.297834
0.270034
-0.344852
0.286042
0.303245
-0.394744
-0.0236184
0.173985
-0.0582281
0.249989
-0.094348
0.259201
-0.131104
0.263354
-0.169122
0.272203
-0.208746
0.283461
-0.250369
0.297619
-0.294299
0.313964
-0.340882
0.332625
0.352703
-0.390339
-0.0229591
0.196945
-0.0569707
0.284001
-0.0926027
0.294833
-0.128895
0.299647
-0.166449
0.309757
-0.205608
0.32262
-0.246752
0.338763
-0.290184
0.357396
-0.336258
0.378698
0.401648
-0.385204
-0.0222139
0.219158
-0.0555355
0.317322
-0.0906108
0.329908
-0.126375
0.335411
-0.163402
0.346783
-0.20203
0.361248
-0.24263
0.379363
-0.285496
0.400263
-0.330987
0.424189
0.450008
-0.379347
-0.021395
0.240554
-0.0539228
0.34985
-0.0883732
0.364358
-0.123546
0.370584
-0.159982
0.383219
-0.198017
0.399283
-0.238008
0.419353
-0.280241
0.442496
-0.325077
0.469026
0.497708
-0.372777
-0.0205028
0.261056
-0.0521318
0.381479
-0.0858907
0.398117
-0.12041
0.405104
-0.156195
0.419003
-0.193574
0.436663
-0.232892
0.458671
-0.274426
0.48403
-0.318535
0.513135
0.544678
-0.365505
-0.0194923
0.280549
-0.0501604
0.412147
-0.0831635
0.43112
-0.116969
0.438909
-0.152042
0.454076
-0.188705
0.473326
-0.227289
0.497254
-0.268058
0.5248
-0.31137
0.556447
0.590847
-0.357539
-0.0183779
0.298926
-0.0480098
0.441779
-0.0801921
0.463303
-0.113226
0.471944
-0.147529
0.488379
-0.183416
0.509212
-0.221205
0.535043
-0.261147
0.564741
-0.303592
0.598892
0.636148
-0.348893
-0.0171664
0.316093
-0.0456817
0.470295
-0.0769776
0.494599
-0.109184
0.50415
-0.14266
0.521854
-0.177712
0.544265
-0.214649
0.57198
-0.253701
0.603793
-0.29521
0.640401
0.680515
-0.339577
-0.0158617
0.331954
-0.0431777
0.497611
-0.0735214
0.524942
-0.104846
0.535475
-0.137439
0.554447
-0.1716
0.578426
-0.207628
0.608008
-0.24573
0.641896
-0.286233
0.680904
0.723881
-0.329599
-0.0144667
0.346421
-0.0404995
0.523643
-0.0698252
0.554268
-0.100214
0.565864
-0.131871
0.586104
-0.165088
0.611642
-0.200152
0.643072
-0.237251
0.678995
-0.276677
0.720331
0.766174
-0.31897
-0.0129841
0.359405
-0.0376488
0.548308
-0.065891
0.58251
-0.0952938
0.595267
-0.125963
0.616773
-0.15818
0.64386
-0.192227
0.677119
-0.228266
0.715034
-0.266536
0.758601
0.807321
-0.307684
-0.011416
0.370821
-0.0346278
0.57152
-0.0617208
0.609603
-0.0900874
0.623633
-0.119719
0.646405
-0.150887
0.675028
-0.183867
0.710099
-0.21882
0.749987
-0.255869
0.79565
0.847204
-0.295751
-0.00976462
0.380586
-0.0314389
0.593194
-0.0573166
0.635481
-0.0845995
0.650916
-0.113146
0.674951
-0.143216
0.705098
-0.175069
0.741952
-0.208879
0.783797
-0.24455
0.831321
0.885749
-0.283096
-0.00803197
0.388618
-0.0280848
0.613247
-0.052681
0.660077
-0.0788342
0.67707
-0.10625
0.702367
-0.135176
0.734024
-0.165855
0.772631
-0.198546
0.816488
-0.232957
0.865732
0.922707
-0.269915
-0.00621941
0.394837
-0.0245686
0.631596
-0.0478168
0.683325
-0.0727961
0.702049
-0.0990371
0.728608
-0.126777
0.761764
-0.156225
0.802078
-0.187683
0.847946
-0.221243
0.899292
0.95747
-0.256006
-0.00432663
0.399164
-0.0208933
0.648163
-0.0427275
0.705159
-0.0664901
0.725811
-0.0915142
0.753632
-0.118028
0.788278
-0.146201
0.830251
-0.176329
0.878073
-0.208584
0.931547
0.991435
-0.242548
-0.00234728
0.401511
-0.0170624
0.662878
-0.0374178
0.725515
-0.0599216
0.748315
-0.0836885
0.777399
-0.108936
0.813525
-0.1358
0.857116
-0.164539
0.906811
-0.195448
0.962457
1.0242
-0.228217
-0.000219049
0.40173
-0.0130787
0.675738
-0.0318937
0.74433
-0.0530961
0.769518
-0.0755679
0.799871
-0.0995096
0.837467
-0.125032
0.882639
-0.152357
0.934136
-0.181825
0.991925
1.05552
-0.213142
0.00166937
0.400061
-0.00894368
0.686351
-0.026167
0.761553
-0.0460193
0.78937
-0.067161
0.821012
-0.0897598
0.860066
-0.113905
0.906784
-0.139792
0.960023
-0.167762
1.01989
1.08532
-0.197559
0.00364661
0.396414
-0.00464081
0.694638
-0.0202502
0.777162
-0.0386973
0.807817
-0.058477
0.840792
-0.0796971
0.881286
-0.102428
0.929515
-0.126841
0.984437
-0.153265
1.04632
1.11356
-0.181503
0.00567543
0.390739
-7.82064e-05
0.700392
-0.0141531
0.791237
-0.0311347
0.824799
-0.0495257
0.859183
-0.0693324
0.901092
-0.0906133
0.950796
-0.113516
1.00734
-0.13835
1.07115
1.14017
-0.164967
0.00771943
0.383019
0.00424367
0.703868
-0.00789418
0.803375
-0.0233406
0.840245
-0.0403174
0.87616
-0.058677
0.919452
-0.0784739
0.970593
-0.0998307
1.0287
-0.123036
1.09436
1.16511
-0.147978
0.00976057
0.373259
0.00876027
0.704868
-0.00150493
0.81364
-0.0153296
0.85407
-0.0308636
0.891694
-0.0477426
0.936331
-0.0660239
0.988874
-0.0857992
1.04847
-0.107339
1.1159
1.18834
-0.130562
0.0117801
0.361479
0.013368
0.70328
0.00520073
0.821807
-0.00711639
0.866387
-0.0211751
0.905753
-0.0365417
0.951698
-0.053278
1.00561
-0.0714382
1.06663
-0.0912762
1.13574
1.2098
-0.112742
0.0137528
0.347726
0.0180269
0.699006
0.0120321
0.827802
0.00127248
0.877147
-0.0112691
0.918294
-0.0250886
0.965517
-0.0402514
1.02077
-0.0567661
1.08315
-0.0748638
1.15383
1.22948
-0.0945389
0.0156486
0.332077
0.0227018
0.691953
0.0189634
0.831541
0.00994463
0.886165
-0.00120171
0.92944
-0.0134017
0.977717
-0.0269606
1.03433
-0.0418045
1.09799
-0.0581211
1.17015
1.24733
-0.0759742
0.017434
0.314643
0.0273556
0.682031
0.0259836
0.832913
0.0187549
0.893394
0.00924428
0.938951
-0.0015278
0.988489
-0.0134221
1.04623
-0.0265781
1.11115
-0.0410634
1.18464
1.26334
-0.0570767
0.0190723
0.295571
0.0319459
0.669157
0.0330648
0.831794
0.0277113
0.898748
0.0198348
0.946828
0.0106676
0.997657
0.000317426
1.05658
-0.0111213
1.12259
-0.0237104
1.19722
1.2775
-0.0378654
0.0205237
0.275047
0.0364242
0.653257
0.040171
0.828047
0.0367932
0.902125
0.0305824
0.953038
0.0230327
1.00521
0.0143886
1.06522
0.00458962
1.13238
-0.00605884
1.20787
1.28983
-0.018387
0.0217454
0.253302
0.0407362
0.634266
0.0472585
0.821525
0.0459742
0.90341
0.0414807
0.957532
0.035565
1.01112
0.0286147
1.07217
0.0206393
1.14036
0.0117101
1.2168
1.30017
0.00136683
0.0226941
0.230608
0.0448216
0.612139
0.0542741
0.812072
0.0552234
0.90246
0.0525113
0.960244
0.0482545
1.01538
0.0430108
1.07741
0.0368283
1.14654
0.0297261
1.2239
1.30832
0.0215784
0.023329
0.207279
0.0486145
0.586853
0.0611605
0.799526
0.0645043
0.899117
0.0636515
0.961097
0.0610839
1.01795
0.0575586
1.08094
0.0531793
1.15092
0.0479764
1.22911
1.31442
0.0418718
0.0236169
0.183662
0.0520447
0.558425
0.0678665
0.783704
0.0737733
0.89321
0.0748745
0.959996
0.074033
1.01879
0.0722396
1.08273
0.0696784
1.15348
0.0663972
1.23239
1.31851
0.062305
0.0235365
0.160126
0.0550382
0.526924
0.0743123
0.76443
0.0829758
0.884546
0.0861479
0.956824
0.0870793
1.01786
0.0870338
1.08278
0.0862998
1.15422
0.0849439
1.23374
1.32061
0.0828525
0.0230826
0.137043
0.0575236
0.492483
0.0804076
0.741546
0.0920452
0.872909
0.0974321
0.951437
0.100197
1.01509
0.101919
1.08106
0.103018
1.15312
0.103599
1.23316
1.32071
0.103497
0.0222671
0.114776
0.059435
0.455315
0.0860478
0.714933
0.100903
0.858054
0.108678
0.943662
0.113357
1.01041
0.116872
1.07754
0.119809
1.15018
0.122341
1.23063
1.31878
0.124272
0.0211186
0.0936573
0.0605927
0.415841
0.0911145
0.684412
0.109452
0.839716
0.119822
0.933292
0.12652
1.00371
0.131867
1.07219
0.13665
1.1454
0.141142
1.22614
1.31479
0.145127
0.0196805
0.0739768
0.0609109
0.37461
0.0954814
0.649841
0.117578
0.817619
0.130787
0.920083
0.139644
0.994857
0.146874
1.06496
0.153516
1.13876
0.159973
1.21968
1.30875
0.166018
0.0180029
0.055974
0.0603314
0.332282
0.0990101
0.611162
0.12514
0.791489
0.141475
0.903748
0.15267
0.983662
0.16186
1.05577
0.170379
1.13024
0.178805
1.21126
1.30064
0.18691
0.0161387
0.0398353
0.0588147
0.289606
0.101548
0.568429
0.131976
0.761062
0.151766
0.883958
0.165526
0.969901
0.17678
1.04452
0.187209
1.11981
0.197609
1.20086
1.29048
0.207772
0.0141465
0.0256888
0.0563606
0.247392
0.102934
0.521856
0.137895
0.7261
0.161509
0.860344
0.178119
0.953292
0.191583
1.03106
0.203969
1.10742
0.216355
1.18847
1.27826
0.228569
0.0120972
0.0135916
0.0530248
0.206464
0.103003
0.471877
0.142686
0.686417
0.170524
0.832506
0.190325
0.933491
0.206197
1.01519
0.220616
1.093
0.23501
1.17408
1.264
0.249269
0.0100784
0.00351317
0.0489255
0.167617
0.101604
0.419199
0.14611
0.641911
0.17859
0.800026
0.201987
0.910093
0.22053
0.996643
0.237099
1.07644
0.253539
1.15763
1.24771
0.269839
0.0081855
-0.00467233
0.0442344
0.131568
0.0986101
0.364823
0.147909
0.592613
0.185436
0.762499
0.2129
0.88263
0.234456
0.975087
0.253348
1.05754
0.271898
1.13909
1.22936
0.290244
0.00649861
-0.0111709
0.0391544
0.0989122
0.0939519
0.310026
0.147815
0.53875
0.190744
0.71957
0.2228
0.850573
0.247805
0.950082
0.269268
1.03608
0.290031
1.11832
1.20895
0.310443
0.00506203
-0.016233
0.033902
0.0700722
0.0876565
0.256271
0.145562
0.480844
0.194141
0.670991
0.231358
0.813356
0.260345
0.921095
0.284719
1.01171
0.307863
1.09518
1.18641
0.3304
0.0038759
-0.0201089
0.0286996
0.0452485
0.0799009
0.20507
0.140925
0.41982
0.195218
0.616698
0.238166
0.770408
0.27177
0.887491
0.299514
0.983962
0.325288
1.0694
1.16166
0.350042
0.0029089
-0.0230178
0.0237655
0.0243919
0.0710433
0.157792
0.133761
0.357103
0.193544
0.556915
0.242735
0.721217
0.281671
0.848555
0.313379
0.952255
0.34216
1.04062
1.1345
0.369318
0.00212088
-0.0251387
0.0192839
0.00722891
0.0615834
0.115493
0.124097
0.294589
0.18871
0.492302
0.244498
0.665428
0.289523
0.80353
0.325945
0.915833
0.358229
1.00834
1.10465
0.388079
0.00147904
-0.0266177
0.0153735
-0.00666551
0.0520678
0.0787983
0.112221
0.234436
0.180399
0.424124
0.242834
0.602993
0.294661
0.751703
0.336692
0.873801
0.373217
0.971815
1.07171
0.406157
0.000961901
-0.0275796
0.0120721
-0.0177757
0.0430068
0.0478636
0.0987307
0.178712
0.168494
0.35436
0.237121
0.534366
0.296286
0.692538
0.344951
0.825136
0.386499
0.930267
1.03476
0.423447
0.000555533
-0.0281351
0.00934944
-0.0265696
0.034805
0.0224081
0.0844728
0.129044
0.153222
0.285611
0.226855
0.460733
0.293449
0.625945
0.349881
0.768704
0.397547
0.8826
0.993494
0.438813
0.000248563
-0.0283837
0.00713884
-0.0334598
0.027701
0.00184588
0.0703827
0.0863627
0.135284
0.22071
0.21178
0.384238
0.285262
0.552463
0.350307
0.703659
0.405198
0.827709
0.944906
0.453786
3.07108e-05
-0.0284144
0.00536304
-0.0387922
0.0217502
-0.0145413
0.0572806
0.0508323
0.115849
0.162141
0.192178
0.307909
0.27086
0.47378
0.345548
0.628971
0.407143
0.766113
0.888905
0.463144
-0.000136321
-0.0282781
0.00394444
-0.0428729
0.0168676
-0.0274644
0.0457072
0.0219926
0.0963359
0.111513
0.169028
0.235217
0.250068
0.392741
0.333408
0.545631
0.405612
0.693909
0.832246
0.462272
-0.000246091
-0.028032
0.00280865
-0.0459277
0.012895
-0.0375508
0.0358683
-0.000980637
0.0780574
0.0693235
0.143955
0.169319
0.223614
0.313082
0.312753
0.456492
0.396985
0.609677
0.767208
0.462023
-0.000320119
-0.0277119
0.00188533
-0.0481331
0.00965234
-0.0453178
0.0276925
-0.0190208
0.0618959
0.0351202
0.118821
0.112394
0.193212
0.238691
0.283618
0.366086
0.378254
0.515041
0.691703
0.453759
-0.000378625
-0.0273333
0.00110813
-0.0496199
0.00696322
-0.0511729
0.0209415
-0.0329991
0.0481558
0.00790583
0.0951523
0.0653976
0.161347
0.172497
0.247553
0.27988
0.348366
0.414228
0.605195
0.434873
-0.000438415
-0.0268948
0.000417315
-0.0504756
0.00466771
-0.0554233
0.0153072
-0.0436385
0.036647
-0.013434
0.0738541
0.0281906
0.130581
0.115771
0.207504
0.202957
0.308037
0.313694
0.509095
0.404138
-0.000511818
-0.026383
-0.000238795
-0.0507486
0.00262996
-0.058292
0.0104831
-0.0514917
0.0269308
-0.0298817
0.0553076
-0.000186247
0.102634
0.0684446
0.167001
0.138589
0.260424
0.220271
0.407552
0.361967
-0.000609842
-0.0257732
-0.000901021
-0.0504575
0.000747513
-0.0599406
0.00621062
-0.0569548
0.0185569
-0.042228
0.0395294
-0.0211587
0.0780215
0.0299525
0.129242
0.0873686
0.210464
0.139049
0.307434
0.310582
-0.000741546
-0.0250316
-0.00158815
-0.0496109
-0.00107777
-0.0604509
0.00229554
-0.0603281
0.0111859
-0.0511183
0.0262143
-0.0361872
0.0565287
-0.000361854
0.096321
0.0475762
0.162781
0.0725889
0.216479
0.253736
-0.00090659
-0.024125
-0.00231276
-0.0482047
-0.00288384
-0.0598799
-0.00134996
-0.061862
0.00458371
-0.057052
0.0148518
-0.0464552
0.0377899
-0.0233
0.0686175
0.0167486
0.11983
0.0213761
0.140396
0.195912
-0.0011025
-0.0230225
-0.00307498
-0.0462322
-0.00467421
-0.0582806
-0.0047516
-0.0617846
-0.00144637