/*--------------------------------*- C++ -*----------------------------------*\
  =========                 |
  \\      /  F ield         | OpenFOAM: The Open Source CFD Toolbox
   \\    /   O peration     | Website:  https://openfoam.org
    \\  /    A nd           | Version:  9
     \\/     M anipulation  |
\*---------------------------------------------------------------------------*/
FoamFile
{
    format      ascii;
    class       volVectorField;
    location    "49";
    object      U;
}
// * * * * * * * * * * * * * * * * * * * * * * * * * * * * * * * * * * * * * //

dimensions      [0 1 -1 0 0 0 0];

internalField   nonuniform List<vector> 
8500
(
(-0.00648287 0.00258985 0)
(-0.029115 0.00446547 -6.20673e-23)
(-0.0611453 0.00492598 -3.41284e-24)
(-0.0889426 0.00476046 6.46846e-37)
(-0.11634 0.0044424 -9.51875e-24)
(-0.136751 0.00383892 7.92581e-24)
(-0.160643 0.00378431 -5.36847e-23)
(-0.171496 0.0024755 -8.30923e-23)
(-0.19176 0.00350168 -7.60611e-23)
(-0.19886 0.00122585 -3.94578e-24)
(-0.00677652 0.00772076 1.79103e-22)
(-0.0293728 0.0133282 5.7995e-23)
(-0.0610249 0.0147105 2.32787e-22)
(-0.0882664 0.0142195 0)
(-0.115083 0.0132677 0)
(-0.134517 0.0114669 1.59671e-23)
(-0.157844 0.0112972 4.0353e-23)
(-0.166979 0.00737778 8.86923e-23)
(-0.186731 0.0104804 5.72699e-23)
(-0.191615 0.00355041 1.5792e-23)
(-0.00735563 0.0126977 -1.59158e-22)
(-0.0298844 0.02197 0)
(-0.0607883 0.0242716 -2.19066e-22)
(-0.0869224 0.023469 0)
(-0.11258 0.0218868 -3.8133e-23)
(-0.130056 0.0189193 3.17515e-23)
(-0.15225 0.0186064 0)
(-0.157904 0.0121133 0)
(-0.176675 0.0173631 0)
(-0.177146 0.00548894 0)
(-0.00820437 0.0174249 3.20059e-22)
(-0.0306424 0.030249 -2.32944e-22)
(-0.0604439 0.0334624 -5.49433e-23)
(-0.0849271 0.0323696 -3.42667e-22)
(-0.108853 0.0301562 -3.44124e-22)
(-0.123383 0.0260833 3.20335e-23)
(-0.143869 0.0255519 -2.67463e-23)
(-0.144185 0.0165966 3.0904e-22)
(-0.161567 0.0241005 1.90712e-26)
(-0.155427 0.00684288 3.11506e-22)
(-0.00930039 0.0218164 -3.20059e-22)
(-0.0316358 0.0380317 -3.01156e-22)
(-0.0600026 0.0421401 8.26699e-23)
(-0.0823043 0.0407828 4.57328e-22)
(-0.103924 0.0379253 -3.89511e-23)
(-0.114524 0.032852 5.09128e-22)
(-0.132693 0.0319371 0)
(-0.125678 0.0207703 -3.5398e-22)
(-0.141304 0.0306568 -7.55179e-23)
(-0.126236 0.00752594 -4.32767e-22)
(-0.0106165 0.0257991 8.07229e-23)
(-0.0328499 0.045196 5.0079e-22)
(-0.0594759 0.0501661 -3.87174e-22)
(-0.0790825 0.0485723 -2.96031e-25)
(-0.0978129 0.045036 -3.47127e-22)
(-0.103513 0.0391254 1.28708e-22)
(-0.118689 0.0375168 -5.37523e-23)
(-0.102178 0.0246033 4.42746e-22)
(-0.115668 0.0369791 -7.56906e-23)
(-0.0889104 0.00768453 2.47881e-22)
(-0.0121224 0.0293161 4.04456e-23)
(-0.0342673 0.0516332 0)
(-0.0588725 0.0574076 -1.56677e-24)
(-0.0752915 0.0556052 0)
(-0.0905196 0.0513253 6.15585e-22)
(-0.0903883 0.0448126 -5.09623e-22)
(-0.101763 0.0419908 0)
(-0.0734275 0.0280975 -1.12498e-24)
(-0.0843096 0.0428494 0)
(-0.0420585 0.00792854 0)
(-0.0137871 0.0323275 -6.52503e-22)
(-0.035867 0.057251 -6.74336e-23)
(-0.0581935 0.0637401 4.99629e-22)
(-0.0709545 0.0617529 9.26585e-23)
(-0.0820082 0.0566318 -6.19449e-22)
(-0.0751682 0.0498372 -3.8168e-22)
(-0.0816963 0.0449979 -5.40427e-23)
(-0.0391351 0.0313405 4.39273e-22)
(-0.0467691 0.0475412 -7.60014e-23)
(0.0167331 0.00930621 6.28106e-23)
(-0.0155808 0.0348119 7.34602e-22)
(-0.0376242 0.0619748 -5.42259e-22)
(-0.057427 0.069051 -1.67513e-22)
(-0.0660768 0.066891 9.24162e-23)
(-0.0721811 0.0608028 6.19381e-22)
(-0.0578282 0.054153 5.75384e-22)
(-0.0580202 0.0461275 -5.41748e-23)
(0.00107324 0.0345132 8.79206e-23)
(-0.00284044 0.0502495 -1.52373e-22)
(0.0914443 0.0123312 6.41044e-23)
(-0.0174768 0.0367662 6.6049e-22)
(-0.0395086 0.0657485 5.4258e-22)
(-0.0565408 0.0732432 -7.86365e-22)
(-0.0606296 0.0708999 -9.27258e-23)
(-0.0608411 0.063697 0)
(-0.0382551 0.0577618 0)
(-0.0299471 0.0451735 0)
(0.0482378 0.0376363 -1.39173e-21)
(0.0472066 0.0500914 -6.39484e-22)
(0.185783 0.0175622 4.86379e-22)
(-0.019453 0.038204 -1.32525e-21)
(-0.0414817 0.0685358 0)
(-0.055474 0.0762391 1.80042e-21)
(-0.0545317 0.0736685 7.44761e-22)
(-0.0476464 0.0651885 7.75223e-23)
(-0.0160557 0.0605994 0)
(0.0035216 0.0423441 -8.86766e-22)
(0.103702 0.0410482 6.94487e-22)
(0.105024 0.0457393 6.39475e-22)
(0.301373 0.0254822 -4.8636e-22)
(-0.0214925 0.0391538 7.48244e-22)
(-0.0434926 0.0703197 -6.85244e-23)
(-0.0541248 0.0779849 -9.01951e-22)
(-0.0476261 0.0751022 -8.38328e-22)
(-0.0321622 0.0652742 0)
(0.00964993 0.0624098 1.02516e-21)
(0.0440891 0.0381335 5.1771e-25)
(0.168279 0.0455531 5.98799e-22)
(0.175877 0.0374138 7.17714e-22)
(0.436631 0.0352114 -4.82086e-22)
(-0.0235832 0.0396552 4.56283e-26)
(-0.045473 0.0711015 1.1752e-21)
(-0.0523351 0.0784528 -1.13522e-22)
(-0.0395938 0.0751094 6.5463e-22)
(-0.0138653 0.0640464 3.91347e-22)
(0.0400733 0.06297 2.60669e-22)
(0.0945328 0.0333972 8.84442e-22)
(0.242389 0.0510146 -7.79092e-22)
(0.268033 0.0290374 -4.89374e-22)
(0.585477 0.0455165 3.54155e-22)
(-0.0257171 0.0397558 0)
(-0.0473303 0.0708989 -9.67944e-22)
(-0.0498898 0.0776485 -1.14019e-22)
(-0.0299223 0.0736262 1.63035e-24)
(0.00806921 0.0615881 6.24221e-22)
(0.0767326 0.0621874 -8.96211e-22)
(0.158004 0.0297349 8.79038e-22)
(0.326609 0.0559464 -8.93757e-23)
(0.387991 0.0265406 0)
(0.737598 0.0563535 0)
(-0.0278883 0.0395072 8.51144e-23)
(-0.0489371 0.069745 -1.11787e-21)
(-0.0464972 0.0756198 0)
(-0.0179174 0.0706932 -9.23984e-23)
(0.0348439 0.0580468 7.793e-23)
(0.121743 0.059944 0)
(0.236883 0.0291777 -8.80925e-22)
(0.422423 0.0592109 -6.89259e-22)
(0.533547 0.0333126 1.50568e-22)
(0.880816 0.0684619 -1.26534e-22)
(-0.0300881 0.0389565 -8.55581e-23)
(-0.0501265 0.0676915 1.1881e-21)
(-0.0417469 0.0724374 0)
(-0.00267705 0.0664695 -8.45382e-22)
(0.0680162 0.0537496 7.79732e-23)
(0.177775 0.0565633 -1.02696e-21)
(0.331694 0.0330709 -1.06295e-22)
(0.53172 0.0621024 7.7821e-22)
(0.691793 0.0480641 0)
(1.00456 0.0816093 9.58752e-22)
(-0.0322958 0.0381415 -1.30238e-21)
(-0.0506878 0.0648025 -7.07038e-23)
(-0.0350871 0.068194 -1.14473e-22)
(0.0169653 0.0612175 9.4686e-23)
(0.109545 0.0492825 -1.24468e-21)
(0.247666 0.0532919 1.02695e-21)
(0.440649 0.0414335 8.65031e-22)
(0.653391 0.0676667 6.89198e-22)
(0.844891 0.0670326 1.19449e-21)
(1.10263 0.0944193 -8.38783e-22)
(-0.0344757 0.0370899 1.38852e-21)
(-0.0503546 0.0611445 0)
(-0.0258262 0.0630237 1.04044e-21)
(0.0424543 0.0552893 -9.49644e-23)
(0.161674 0.045466 2.48851e-21)
(0.333433 0.0521438 0)
(0.559867 0.0535511 -8.65013e-22)
(0.780437 0.0775412 -1.83678e-24)
(0.978117 0.0869112 -1.33852e-21)
(1.17387 0.105444 1.21061e-22)
(-0.0365729 0.0358179 0)
(-0.0487982 0.0567846 1.14474e-21)
(-0.0131285 0.0571008 -9.25624e-22)
(0.075478 0.0491525 0)
(0.226561 0.0433596 -1.24382e-21)
(0.434675 0.0551501 0)
(0.683446 0.068673 8.49948e-22)
(0.902128 0.090797 -6.87334e-22)
(1.08399 0.105738 -1.13886e-21)
(1.22116 0.11369 -9.14481e-22)
(-0.038507 0.0343268 -1.76344e-22)
(-0.0456287 0.0517939 -9.9999e-22)
(0.00399129 0.0506409 0)
(0.117882 0.0434621 0)
(0.305557 0.0442074 0)
(0.547548 0.0632924 -1.26929e-22)
(0.803999 0.0858205 -8.52039e-22)
(1.00916 0.105592 -8.69343e-23)
(1.16175 0.122348 1.13886e-21)
(1.24988 0.118422 1.02872e-21)
(-0.0401689 0.0326073 0)
(-0.0403938 0.0462464 -1.16222e-21)
(0.0266705 0.0439126 0)
(0.171468 0.0391606 0)
(0.398221 0.0491474 0)
(0.66526 0.076091 1.26036e-22)
(0.914472 0.103643 -1.03897e-21)
(1.0966 0.120556 8.0177e-23)
(1.21508 0.135519 8.09192e-22)
(1.26697 0.119018 8.81295e-22)
(-0.041435 0.0306555 0)
(-0.0325647 0.0402038 1.16222e-21)
(0.0561926 0.0372816 -9.46612e-22)
(0.237559 0.0374965 0)
(0.501562 0.0586817 -1.24149e-21)
(0.780094 0.0920595 0)
(1.01008 0.120943 8.30961e-22)
(1.16368 0.134617 -6.60591e-22)
(1.24966 0.144162 -1.08318e-21)
(1.29175 0.129603 -8.76405e-22)
(-0.0421651 0.0284575 1.48365e-21)
(-0.0215443 0.0337178 0)
(0.0939407 0.0313069 8.29364e-22)
(0.316327 0.0397734 9.69723e-23)
(0.610282 0.0723341 2.4829e-21)
(0.88569 0.109521 0)
(1.08886 0.137006 -8.09427e-22)
(1.21249 0.146733 -1.30957e-21)
(1.27434 0.152367 -9.04255e-22)
(1.30102 0.135686 -5.29442e-24)
(-0.0421864 0.0259859 -1.57577e-21)
(-0.00666102 0.0268546 7.56162e-23)
(0.141233 0.0268513 1.17929e-22)
(0.406152 0.0468147 -9.75409e-23)
(0.718192 0.0888938 -1.24141e-21)
(0.978195 0.127166 9.97683e-22)
(1.15113 0.15142 8.09423e-22)
(1.24714 0.157392 6.4898e-22)
(1.28862 0.158813 1.03224e-21)
(1.30427 0.141456 -9.05228e-22)
(-0.0413082 0.0232132 9.34454e-23)
(0.0128617 0.0197233 1.13671e-21)
(0.198989 0.0250921 0)
(0.503525 0.0585139 -6.77898e-22)
(0.819924 0.107015 -7.88472e-23)
(1.05615 0.144164 -9.97675e-22)
(1.19873 0.164236 9.66254e-23)
(1.2703 0.16655 5.41601e-22)
(1.29637 0.164509 0)
(1.30428 0.146465 8.05783e-22)
(-0.0393234 0.0201115 -9.66343e-23)
(0.0379057 0.012558 -1.21341e-21)
(0.267275 0.0272658 0)
(0.60377 0.0739247 9.05239e-23)
(0.911897 0.125641 -7.90719e-23)
(1.11982 0.16011 0)
(1.23384 0.175578 -7.72094e-22)
(1.28494 0.174567 -6.22479e-22)
(1.29933 0.169504 -1.17802e-22)
(1.30107 0.15099 -9.90942e-23)
(-0.0359945 0.0166527 0)
(0.0693944 0.00584472 -1.40113e-21)
(0.344948 0.0341823 1.25428e-22)
(0.702215 0.0918075 -5.21323e-24)
(0.992349 0.144103 -6.19074e-22)
(1.1704 0.174861 -1.08953e-21)
(1.25878 0.185668 8.7106e-22)
(1.2932 0.181674 0)
(1.29892 0.174074 0)
(1.29676 0.155295 0)
(-0.0310278 0.012817 2.28924e-24)
(0.10814 0.000426079 1.17534e-21)
(0.429655 0.0458512 1.27117e-22)
(0.79514 0.111112 8.78614e-22)
(1.06088 0.162031 5.39555e-22)
(1.20953 0.188435 -1.0505e-22)
(1.27565 0.194729 7.49807e-22)
(1.29684 0.188125 -5.0179e-22)
(1.29634 0.178368 -5.59704e-22)
(1.29125 0.15945 4.47144e-22)
(-0.0240465 0.00861564 7.3464e-22)
(0.154616 -0.00252833 8.23885e-23)
(0.518252 0.0615519 -1.01553e-21)
(0.880134 0.131118 -7.92576e-22)
(1.11792 0.179246 0)
(1.23894 0.200929 9.59277e-22)
(1.28624 0.202988 -1.5797e-23)
(1.29717 0.194119 6.46519e-22)
(1.29222 0.18251 3.91342e-22)
(1.28525 0.163547 -3.53983e-22)
(-0.0145858 0.00412756 -1.69173e-21)
(0.208725 -0.00176205 0)
(0.607434 0.0802625 2.04727e-21)
(0.955969 0.151384 6.96547e-22)
(1.1644 0.195685 7.97049e-23)
(1.26029 0.212486 0)
(1.29202 0.210647 -7.27353e-22)
(1.29513 0.199816 5.45333e-22)
(1.2871 0.186581 4.19836e-22)
(1.2788 0.16763 -3.28264e-22)
(-0.0021196 -0.000457651 8.56711e-22)
(0.269685 0.00368756 6.65646e-22)
(0.694265 0.101069 -1.15733e-21)
(1.02228 0.171669 1.03876e-22)
(1.20144 0.211357 0)
(1.27506 0.223264 0)
(1.29416 0.217882 0)
(1.29141 0.205332 -1.07352e-21)
(1.28125 0.190638 -4.19839e-22)
(1.27207 0.171717 3.28249e-22)
(0.0138709 -0.00479697 7.96369e-22)
(0.336103 0.0141907 -6.59916e-22)
(0.776454 0.123319 6.77048e-23)
(1.07924 0.191859 0)
(1.23022 0.226311 5.99866e-22)
(1.28451 0.233416 3.94712e-22)
(1.29355 0.224836 4.51617e-23)
(1.28647 0.210752 -4.43717e-23)
(1.2749 0.194713 9.99948e-23)
(1.2651 0.175819 -4.02109e-23)
(0.0337689 -0.00836522 -9.03471e-22)
(0.406206 0.029496 8.35536e-23)
(0.852404 0.146581 5.35904e-22)
(1.12731 0.211889 -1.48205e-22)
(1.2519 0.240617 -4.49964e-22)
(1.2897 0.243083 -5.6058e-22)
(1.29085 0.231618 4.40775e-23)
(1.28063 0.216127 2.64468e-22)
(1.26812 0.198824 0)
(1.2579 0.179929 -3.52155e-23)
(0.057744 -0.0105039 -5.8681e-23)
(0.478099 0.0489448 0)
(0.921144 0.170553 6.16934e-24)
(1.16714 0.231706 0)
(1.26751 0.254356 5.83526e-22)
(1.29148 0.252387 -4.28252e-22)
(1.28655 0.238305 0)
(1.27408 0.22149 9.69014e-24)
(1.261 0.202974 0)
(1.25048 0.184038 0)
(0.0857372 -0.0105227 -1.17288e-22)
(0.549974 0.0717722 7.6262e-22)
(0.98222 0.195015 -6.11576e-22)
(1.19942 0.251254 1.0037e-22)
(1.278 0.267606 -2.67724e-22)
(1.29053 0.261427 -4.49638e-23)
(1.281 0.244948 0)
(1.26697 0.226853 1.8124e-22)
(1.25356 0.207157 4.61128e-23)
(1.24282 0.188127 1.28786e-22)
(0.117453 -0.00782099 -4.9561e-22)
(0.620214 0.0973013 -3.07404e-22)
(1.03555 0.219806 -1.00659e-22)
(1.22485 0.270474 4.00847e-22)
(1.28417 0.280442 3.24054e-23)
(1.28737 0.270279 4.16484e-22)
(1.27444 0.251574 0)
(1.25935 0.232215 -2.15483e-22)
(1.2458 0.211362 3.93142e-23)
(1.23491 0.192176 -2.82874e-22)
(0.152394 -0.00199717 -4.95609e-22)
(0.687433 0.124995 3.20502e-22)
(1.08133 0.244801 -4.10515e-24)
(1.24413 0.289309 -4.6584e-22)
(1.28668 0.292924 -2.42735e-22)
(1.28242 0.278996 -2.32431e-23)
(1.26704 0.258189 1.94071e-23)
(1.25126 0.237563 2.40306e-22)
(1.23773 0.215569 -2.32075e-24)
(1.22674 0.196163 9.16088e-23)
(0.189919 0.00709958 -2.55772e-22)
(0.750484 0.154422 0)
(1.1199 0.269895 -2.75219e-22)
(1.25791 0.307711 0)
(1.28611 0.305099 -3.05042e-22)
(1.27597 0.28761 2.61191e-23)
(1.25889 0.264788 0)
(1.24273 0.242878 0)
(1.22933 0.219756 0)
(1.2183 0.200058 0)
(0.22929 0.0193922 2.24368e-22)
(0.808453 0.185203 1.07874e-22)
(1.15172 0.29498 2.75221e-22)
(1.26681 0.325643 0)
(1.28289 0.316996 0)
(1.26824 0.29613 -1.06423e-23)
(1.25006 0.271348 4.04676e-23)
(1.23377 0.248132 4.51422e-23)
(1.22061 0.223898 4.08482e-23)
(1.20959 0.203833 -6.75123e-24)
(0.269721 0.0346525 -4.06179e-24)
(0.860695 0.21697 -1.00894e-22)
(1.17723 0.31994 4.6058e-24)
(1.27136 0.343087 5.29748e-24)
(1.27739 0.32863 -8.02788e-24)
(1.25939 0.30455 3.02304e-24)
(1.24059 0.27784 -3.51414e-23)
(1.22436 0.253295 -4.21634e-23)
(1.21154 0.227959 -3.09694e-23)
(1.20064 0.207452 1.15226e-24)
(0.310413 0.0525842 0)
(0.906869 0.24938 -1.01796e-22)
(1.19683 0.344654 -3.02943e-24)
(1.27206 0.36003 6.30092e-24)
(1.2699 0.339999 1.09817e-37)
(1.24952 0.312846 -7.55576e-38)
(1.2305 0.284226 -3.0975e-23)
(1.2145 0.258332 -3.58409e-23)
(1.20212 0.231899 -2.74825e-23)
(1.19146 0.210882 0)
(0.350586 0.0728713 2.94412e-22)
(0.946877 0.28214 8.34389e-23)
(1.2109 0.36901 2.7313e-22)
(1.26931 0.376444 -1.22728e-23)
(1.26065 0.351084 0)
(1.23871 0.32098 8.89855e-24)
(1.21981 0.290462 2.02304e-23)
(1.20419 0.263204 3.86159e-23)
(1.19235 0.235669 2.1435e-23)
(1.18204 0.2141 5.08302e-24)
(0.389498 0.0952134 -2.62426e-22)
(0.980717 0.314989 0)
(1.21983 0.392884 -2.58295e-22)
(1.26348 0.392293 0)
(1.24981 0.361853 -2.4677e-23)
(1.22702 0.328904 2.05476e-23)
(1.20851 0.296499 0)
(1.19342 0.267871 0)
(1.18223 0.239229 0)
(1.17235 0.217087 0)
(0.426464 0.119332 5.20021e-22)
(1.00847 0.347687 -3.3152e-22)
(1.224 0.416153 -6.27222e-23)
(1.25486 0.407535 -2.50648e-22)
(1.23753 0.372257 -2.2657e-22)
(1.21447 0.336562 1.50793e-23)
(1.19662 0.302288 -1.25905e-23)
(1.18218 0.272287 9.71872e-23)
(1.1718 0.242549 2.11698e-24)
(1.16232 0.219815 6.43065e-23)
(0.460869 0.14496 -5.20022e-22)
(1.03029 0.380008 -3.98672e-22)
(1.22374 0.438693 8.68543e-23)
(1.24373 0.42212 2.98713e-22)
(1.22391 0.382237 -1.22382e-23)
(1.2011 0.343891 2.3052e-22)
(1.18411 0.307774 0)
(1.17047 0.276394 -1.10712e-22)
(1.16109 0.245618 -1.54452e-23)
(1.1519 0.222305 -7.718e-23)
(0.492182 0.171825 1.23451e-22)
(1.04634 0.411734 6.82408e-22)
(1.21938 0.460374 -3.89431e-22)
(1.23033 0.435987 -7.21244e-23)
(1.20904 0.391726 -1.61262e-22)
(1.18693 0.350825 2.97059e-23)
(1.17101 0.312899 -2.00957e-23)
(1.15832 0.280128 9.79774e-23)
(1.1501 0.248422 -1.62889e-23)
(1.14117 0.224593 3.99939e-23)
(0.519961 0.199639 6.25567e-23)
(1.05683 0.442653 0)
(1.2112 0.481064 2.66065e-23)
(1.21484 0.449069 0)
(1.19299 0.400649 3.30231e-22)
(1.17197 0.357291 -2.04224e-22)
(1.15734 0.317605 0)
(1.1458 0.283446 -1.68321e-23)
(1.13876 0.250899 0)
(1.13025 0.226487 0)
(0.54386 0.228088 -9.58502e-22)
(1.06198 0.472548 -7.26382e-23)
(1.1995 0.50063 4.72538e-22)
(1.19743 0.46129 5.0862e-23)
(1.1758 0.40892 -3.28942e-22)
(1.1563 0.363217 -1.05477e-22)
(1.14315 0.321829 -1.44899e-23)
(1.13292 0.286323 3.83557e-23)
(1.12704 0.253009 -9.4697e-24)
(1.11915 0.228024 3.03929e-24)
(0.563623 0.256838 1.06622e-21)
(1.06202 0.501197 -6.33278e-22)
(1.18453 0.518935 -1.34853e-22)
(1.17824 0.472567 6.51201e-23)
(1.15758 0.416447 2.56975e-22)
(1.13999 0.368523 1.61389e-22)
(1.12845 0.325513 -1.15093e-23)
(1.11965 0.288727 -2.85892e-23)
(1.11497 0.254707 -8.51127e-24)
(1.10789 0.229143 2.18867e-24)
(0.579083 0.285537 8.79387e-22)
(1.0572 0.528376 6.12995e-22)
(1.1665 0.535831 -5.59748e-22)
(1.15744 0.482806 -5.82705e-23)
(1.13847 0.423159 0)
(1.123 0.373124 0)
(1.11322 0.328604 0)
(1.10604 0.290614 -6.9779e-23)
(1.1026 0.25596 9.11951e-24)
(1.09646 0.229825 -2.72031e-23)
(0.590157 0.313826 -1.70849e-21)
(1.04776 0.553867 0)
(1.14564 0.551152 1.18355e-21)
(1.13525 0.491912 2.84238e-22)
(1.1185 0.428977 0)
(1.10533 0.376948 0)
(1.09754 0.331033 -2.05446e-23)
(1.09209 0.291944 1.66135e-23)
(1.08995 0.256733 -9.11958e-24)
(1.08491 0.230034 2.7202e-23)
(0.59684 0.341341 9.1794e-22)
(1.03401 0.577468 -7.2922e-23)
(1.12218 0.564727 -5.53356e-22)
(1.11178 0.499766 -3.08854e-22)
(1.09768 0.433819 2.04306e-23)
(1.08705 0.379929 3.79328e-23)
(1.08143 0.332744 5.0874e-23)
(1.07783 0.292676 -5.26338e-23)
(1.07707 0.256992 -7.27287e-23)
(1.07326 0.229743 7.19441e-23)
(0.599203 0.367716 -1.16844e-23)
(1.01627 0.598996 8.54736e-22)
(1.09639 0.57644 -7.37321e-23)
(1.08708 0.506205 1.42294e-22)
(1.07608 0.437609 4.51608e-23)
(1.06821 0.381999 -6.65045e-23)
(1.06494 0.33368 -3.64257e-23)
(1.06331 0.292773 6.66707e-23)
(1.06398 0.256702 -8.99681e-23)
(1.06154 0.228924 -5.30049e-23)
(0.597388 0.392584 0)
(0.994821 0.618222 -7.5628e-22)
(1.06853 0.586197 -6.21147e-23)
(1.06123 0.511099 -6.67216e-23)
(1.0538 0.440243 -3.95027e-23)
(1.04888 0.383095 1.98871e-23)
(1.04813 0.333791 -1.40617e-22)
(1.04857 0.292196 0)
(1.05073 0.25583 0)
(1.0498 0.22754 0)
(0.591593 0.415617 7.46175e-23)
(0.969763 0.634801 -5.79809e-22)
(1.03895 0.593954 0)
(1.03441 0.514371 -7.06186e-23)
(1.0309 0.44163 1.23256e-24)
(1.02914 0.383157 0)
(1.03106 0.333029 1.35303e-22)
(1.03364 0.290911 1.76974e-22)
(1.03733 0.254338 -3.68134e-23)
(1.03806 0.225547 3.0921e-23)
(0.582043 0.436601 -5.24475e-23)
(0.941313 0.648434 6.22863e-22)
(1.00793 0.599566 0)
(1.00675 0.515984 -1.68954e-23)
(1.00749 0.441686 -5.60131e-24)
(1.00905 0.382127 2.51317e-22)
(1.01379 0.331355 2.81477e-23)
(1.01857 0.288888 -2.00535e-22)
(1.02382 0.252194 0)
(1.02638 0.222904 -3.23173e-22)
(0.568951 0.455315 -7.17132e-22)
(0.909951 0.659004 -3.40844e-23)
(0.975609 0.602823 2.67769e-24)
(0.978387 0.515868 -2.21492e-24)
(0.983658 0.440339 3.24478e-22)
(0.988696 0.379954 -2.51319e-22)
(0.996373 0.32873 -2.98102e-22)
(1.00339 0.286095 -2.57569e-22)
(1.01025 0.249368 -4.36968e-22)
(1.01489 0.219606 2.82854e-22)
(0.552437 0.471405 7.58658e-22)
(0.876243 0.666499 0)
(0.942227 0.603596 -1.21245e-22)
(0.949483 0.513958 1.21892e-23)
(0.959508 0.437528 -7.54454e-22)
(0.968169 0.37659 0)
(0.978879 0.325124 2.98104e-22)
(0.988148 0.282494 -4.05784e-23)
(0.996714 0.245833 4.94988e-22)
(1.00386 0.215691 -4.87245e-23)
(0.532714 0.48445 0)
(0.840571 0.670766 -3.19532e-24)
(0.90798 0.601822 1.06509e-22)
(0.920188 0.510185 0)
(0.935153 0.433201 4.29977e-22)
(0.947555 0.371998 0)
(0.961364 0.320511 -4.0801e-22)
(0.972883 0.278045 2.98151e-22)
(0.983391 0.24155 5.56135e-22)
(0.993603 0.211225 4.43753e-22)
(0.510268 0.494283 -1.116e-23)
(0.80328 0.671668 1.2356e-23)
(0.8731 0.59744 0)
(0.890657 0.504487 0)
(0.910712 0.427318 0)
(0.926946 0.366147 6.48672e-23)
(0.943887 0.314871 2.99813e-22)
(0.95769 0.272723 4.52303e-23)
(0.970469 0.23646 -5.56138e-22)
(0.983996 0.206158 -4.98494e-22)
(0.485516 0.500732 0)
(0.764714 0.669089 3.15215e-22)
(0.837825 0.590408 0)
(0.861052 0.496816 0)
(0.886306 0.419847 0)
(0.906433 0.359015 -7.37307e-23)
(0.926522 0.308189 6.39092e-22)
(0.942693 0.266531 -1.48345e-22)
(0.95803 0.230576 -5.09382e-22)
(0.974378 0.198992 -5.23414e-22)
(0.45887 0.503665 0)
(0.725233 0.662951 -3.15217e-22)
(0.802397 0.580698 5.39513e-22)
(0.83154 0.487134 0)
(0.86206 0.410767 8.55046e-22)
(0.886114 0.350586 0)
(0.909359 0.300452 -5.1708e-22)
(0.928003 0.259484 4.56906e-22)
(0.945824 0.224353 6.68926e-22)
(0.963477 0.193812 5.22046e-22)
(0.430741 0.502988 -5.20286e-22)
(0.6852 0.653206 0)
(0.767061 0.5683 -4.62237e-22)
(0.802288 0.47542 -6.39233e-23)
(0.838101 0.40007 -1.81431e-21)
(0.866086 0.340853 0)
(0.892489 0.291645 6.23138e-22)
(0.913686 0.251505 3.76558e-23)
(0.933971 0.217075 6.86801e-22)
(0.953004 0.187181 2.43899e-24)
(0.401536 0.498649 5.66666e-22)
(0.64498 0.639837 -3.80708e-23)
(0.732059 0.553223 -8.97068e-23)
(0.773468 0.461668 -7.42034e-23)
(0.814559 0.387757 9.59267e-22)
(0.84645 0.329818 -8.50106e-22)
(0.875996 0.281785 -6.23142e-22)
(0.899747 0.242691 -4.94567e-22)
(0.92231 0.209223 -7.77362e-22)
(0.942514 0.180329 7.22823e-22)
(0.371661 0.490634 -5.94249e-23)
(0.604935 0.622857 -8.92679e-22)
(0.697631 0.535493 0)
(0.745252 0.445887 6.31808e-22)
(0.791563 0.373839 7.01041e-23)
(0.827311 0.317493 8.50111e-22)
(0.859968 0.270874 -8.48828e-23)
(0.886257 0.232993 -4.95496e-22)
(0.910989 0.200589 0)
(0.932326 0.172782 -6.44514e-22)
(0.341513 0.478967 6.76526e-23)
(0.565421 0.602309 9.41463e-22)
(0.664014 0.515154 0)
(0.717809 0.428104 -2.28802e-23)
(0.769242 0.358342 7.68872e-23)
(0.808771 0.303898 0)
(0.844483 0.258938 7.71833e-22)
(0.873251 0.222465 5.66545e-22)
(0.900027 0.191306 1.09138e-22)
(0.922488 0.164699 -9.16731e-23)
(0.311479 0.46371 0)
(0.526787 0.578266 1.38753e-21)
(0.631436 0.49227 -1.232e-22)
(0.691308 0.408359 6.72099e-23)
(0.747724 0.341301 6.75214e-22)
(0.790932 0.289063 1.17596e-21)
(0.829621 0.245999 -8.75006e-22)
(0.86079 0.211113 0)
(0.889493 0.181352 0)
(0.913084 0.156039 0)
(0.281933 0.444961 2.41599e-24)
(0.489368 0.550827 -1.15168e-21)
(0.60012 0.466921 1.36722e-22)
(0.665912 0.386711 -9.61325e-22)
(0.727136 0.322763 -5.85491e-22)
(0.773893 0.273028 1.9259e-22)
(0.815456 0.232094 -8.69209e-22)
(0.848928 0.198975 5.79317e-22)
(0.879441 0.170767 6.31317e-22)
(0.904169 0.146834 -4.96144e-22)
(0.253231 0.422858 -7.98229e-22)
(0.453485 0.520116 -8.91897e-23)
(0.570282 0.439207 1.24643e-21)
(0.641779 0.36323 9.78322e-22)
(0.707599 0.302787 0)
(0.75775 0.255842 -1.11409e-21)
(0.802062 0.217262 -4.09547e-23)
(0.837721 0.186082 -7.45527e-22)
(0.869924 0.15957 -4.42583e-22)
(0.895789 0.137106 3.95048e-22)
(0.225716 0.39758 1.90748e-21)
(0.419435 0.48627 0)
(0.542125 0.40924 -2.57726e-21)
(0.619062 0.338004 -8.56252e-22)
(0.689231 0.281442 -1.0133e-22)
(0.742595 0.237561 0)
(0.78951 0.201549 9.02058e-22)
(0.827224 0.172477 -7.20185e-22)
(0.860994 0.147795 -5.51762e-22)
(0.887982 0.126884 4.25327e-22)
(0.199701 0.36935 -1.0006e-21)
(0.387494 0.449449 -8.77408e-22)
(0.515851 0.377148 1.49718e-21)
(0.597905 0.311132 -1.376e-22)
(0.672144 0.258807 0)
(0.728516 0.218251 0)
(0.777866 0.18501 0)
(0.81749 0.158202 1.46538e-21)
(0.852699 0.135474 5.51764e-22)
(0.880784 0.116204 -4.25326e-22)
(0.175456 0.338387 -1.02863e-21)
(0.357931 0.409864 8.7433e-22)
(0.491651 0.343074 9.19241e-23)
(0.578446 0.282729 0)
(0.656445 0.234974 -8.69714e-22)
(0.715594 0.197985 -5.83405e-22)
(0.767194 0.167704 -6.5123e-23)
(0.808568 0.143306 1.13435e-22)
(0.845085 0.122646 -1.45502e-22)
(0.874225 0.105102 5.83321e-23)
(0.153219 0.304896 1.1683e-21)
(0.330999 0.367767 -1.17392e-22)
(0.4697 0.307181 -9.60777e-22)
(0.560811 0.252923 2.15038e-22)
(0.64223 0.21004 6.47866e-22)
(0.703906 0.176845 8.3024e-22)
(0.757551 0.149696 -6.72219e-23)
(0.800506 0.127842 -3.73778e-22)
(0.838196 0.109353 0)
(0.868333 0.0936196 5.51323e-23)
(0.133216 0.269105 7.97021e-23)
(0.306925 0.323423 0)
(0.45015 0.26965 -2.84568e-23)
(0.545117 0.221851 0)
(0.629588 0.184115 -9.2556e-22)
(0.69352 0.154916 7.00038e-22)
(0.74899 0.131056 0)
(0.793347 0.111864 8.96541e-24)
(0.832072 0.0956411 0)
(0.86313 0.0818014 0)
(0.115658 0.231272 1.64971e-22)
(0.285911 0.277101 -1.12586e-21)
(0.433138 0.230674 8.99006e-22)
(0.531467 0.189662 -1.55055e-22)
(0.6186 0.157313 4.01009e-22)
(0.684498 0.132291 1.0882e-22)
(0.741559 0.111859 0)
(0.787131 0.0954347 -3.05745e-22)
(0.826748 0.0815608 -8.1706e-23)
(0.858636 0.0696933 -2.39451e-22)
(0.10073 0.191679 7.03308e-22)
(0.268128 0.22908 -1.66909e-21)
(0.418779 0.190457 1.54331e-22)
(0.519951 0.156514 -6.46381e-22)
(0.609334 0.129759 -7.22277e-23)
(0.676895 0.109069 -7.15528e-22)
(0.7353 0.0921841 0)
(0.781892 0.0786182 4.17171e-22)
(0.822258 0.0671645 -7.55197e-23)
(0.854867 0.0573417 5.45621e-22)
(0.0885924 0.150625 -7.03308e-22)
(0.253724 0.179653 6.11693e-22)
(0.407172 0.149213 -1.0644e-22)
(0.510645 0.12257 7.58791e-22)
(0.60185 0.10158 4.19152e-22)
(0.670756 0.0853515 4.38187e-23)
(0.730249 0.0721138 -3.65863e-23)
(0.777663 0.0614822 -4.67362e-22)
(0.81863 0.0525085 3.86267e-24)
(0.851837 0.0447934 -1.81315e-22)
(0.0793746 0.10842 3.67229e-22)
(0.242816 0.129121 0)
(0.398397 0.107162 4.36592e-22)
(0.503611 0.0880005 0)
(0.596195 0.0729109 5.88963e-23)
(0.666119 0.0612455 -4.90403e-23)
(0.726434 0.0517332 0)
(0.774467 0.0440958 0)
(0.815887 0.0376504 0)
(0.849556 0.0320963 0)
(0.0731744 0.0653853 -3.21688e-22)
(0.235494 0.0777922 -1.24194e-22)
(0.392514 0.0645306 -4.36592e-22)
(0.498895 0.0529812 0)
(0.592404 0.0438884 0)
(0.663012 0.0368597 2.23255e-23)
(0.723878 0.0311295 -8.93528e-23)
(0.772326 0.0265296 -1.06968e-22)
(0.814047 0.0226478 -1.00727e-22)
(0.848031 0.0192969 1.63113e-23)
(0.0700578 0.0218507 -5.82004e-24)
(0.231818 0.025984 1.33933e-22)
(0.389562 0.021549 -6.05479e-24)
(0.49653 0.0176904 2.08355e-23)
(0.590503 0.014653 -8.23287e-24)
(0.661453 0.0123052 0)
(0.722596 0.0103913 7.07122e-23)
(0.771251 0.00885511 1.06968e-22)
(0.813124 0.00755875 7.64369e-23)
(0.847267 0.00643857 1.15363e-23)
(0.0700579 -0.0218513 -5.82004e-24)
(0.231818 -0.0259847 1.33933e-22)
(0.389562 -0.0215497 -6.05479e-24)
(0.49653 -0.017691 2.08355e-23)
(0.590503 -0.0146536 -8.23286e-24)
(0.661453 -0.0123057 0)
(0.722596 -0.0103918 6.22606e-23)
(0.771251 -0.00885551 1.14042e-22)
(0.813124 -0.00755911 8.13069e-23)
(0.847267 -0.00643889 0)
(0.0731745 -0.0653859 -4.12771e-22)
(0.235494 -0.077793 -1.61012e-22)
(0.392514 -0.0645313 -4.62858e-22)
(0.498895 -0.0529818 2.17261e-23)
(0.592404 -0.043889 0)
(0.663012 -0.0368602 -2.23255e-23)
(0.723878 -0.0311299 -5.20716e-23)
(0.772326 -0.02653 -1.06968e-22)
(0.814047 -0.0226482 -6.18871e-23)
(0.848031 -0.0192972 -1.63113e-23)
(0.0793746 -0.10842 3.67229e-22)
(0.242816 -0.129121 0)
(0.398397 -0.107163 4.36592e-22)
(0.503611 -0.0880011 0)
(0.596195 -0.0729114 5.88963e-23)
(0.666119 -0.0612459 -4.90403e-23)
(0.726434 -0.0517336 0)
(0.774467 -0.0440962 0)
(0.815887 -0.0376507 0)
(0.849556 -0.0320967 0)
(0.0885925 -0.150625 -7.03308e-22)
(0.253724 -0.179654 4.77668e-22)
(0.407172 -0.149214 1.0644e-22)
(0.510645 -0.12257 5.19573e-22)
(0.60185 -0.101581 5.47374e-22)
(0.670756 -0.085352 -4.38187e-23)
(0.730249 -0.0721142 3.65863e-23)
(0.777663 -0.0614826 -3.66982e-22)
(0.81863 -0.0525089 -3.86267e-24)
(0.851837 -0.0447938 -3.04162e-22)
(0.10073 -0.19168 7.03308e-22)
(0.268128 -0.229081 5.79731e-22)
(0.418779 -0.190458 -1.54331e-22)
(0.519951 -0.156514 -6.31981e-22)
(0.609335 -0.12976 5.36837e-23)
(0.676895 -0.109069 -7.15528e-22)
(0.7353 -0.0921845 0)
(0.781892 -0.0786186 4.17171e-22)
(0.822259 -0.0671648 7.55197e-23)
(0.854867 -0.057342 4.18758e-22)
(0.115658 -0.231272 -1.64971e-22)
(0.285911 -0.277101 1.12586e-21)
(0.433138 -0.230674 7.0332e-22)
(0.531467 -0.189663 1.55055e-22)
(0.6186 -0.157314 5.02137e-22)
(0.684498 -0.132291 -1.62529e-22)
(0.741559 -0.111859 7.07061e-23)
(0.787131 -0.0954351 -5.00556e-22)
(0.826749 -0.0815611 8.1706e-23)
(0.858636 -0.0696936 -2.39451e-22)
(0.133217 -0.269105 -7.97021e-23)
(0.306926 -0.323424 0)
(0.45015 -0.26965 -2.84568e-23)
(0.545117 -0.221852 0)
(0.629589 -0.184115 -9.2556e-22)
(0.69352 -0.154916 7.00038e-22)
(0.74899 -0.131056 0)
(0.793347 -0.111864 8.96543e-24)
(0.832072 -0.0956415 0)
(0.86313 -0.0818017 0)
(0.153219 -0.304897 1.1683e-21)
(0.330999 -0.367768 1.17392e-22)
(0.4697 -0.307181 -6.75982e-22)
(0.560811 -0.252923 -1.39472e-22)
(0.64223 -0.210041 1.09157e-21)
(0.703906 -0.176845 4.92567e-22)
(0.757551 -0.149697 6.72219e-23)
(0.800506 -0.127842 -4.66979e-22)
(0.838196 -0.109353 7.81796e-23)
(0.868333 -0.0936199 -5.51323e-23)
(0.175456 -0.338388 -1.30797e-21)
(0.357931 -0.409865 8.8049e-22)
(0.491652 -0.343074 8.30006e-23)
(0.578446 -0.28273 -1.44694e-22)
(0.656445 -0.234974 -8.69713e-22)
(0.715594 -0.197986 -7.39398e-22)
(0.767194 -0.167705 6.5123e-23)
(0.808568 -0.143307 -6.79016e-23)
(0.845085 -0.122646 1.45502e-22)
(0.874226 -0.105102 -5.8332e-23)
(0.199701 -0.36935 -1.0006e-21)
(0.387494 -0.44945 -8.77408e-22)
(0.515851 -0.377149 1.16449e-21)
(0.597906 -0.311133 1.37599e-22)
(0.672145 -0.258808 0)
(0.728516 -0.218251 0)
(0.777866 -0.185011 0)
(0.81749 -0.158203 1.46538e-21)
(0.852699 -0.135474 5.51763e-22)
(0.880784 -0.116204 -4.25326e-22)
(0.225717 -0.397581 1.90748e-21)
(0.419435 -0.486271 0)
(0.542126 -0.409241 -2.57726e-21)
(0.619062 -0.338004 -9.78325e-22)
(0.689231 -0.281442 0)
(0.742595 -0.237561 0)
(0.78951 -0.20155 9.02058e-22)
(0.827224 -0.172478 -7.20185e-22)
(0.860994 -0.147795 -5.51761e-22)
(0.887982 -0.126885 4.25327e-22)
(0.253232 -0.422858 -1.01553e-21)
(0.453485 -0.520116 8.91896e-23)
(0.570282 -0.439208 1.24642e-21)
(0.641779 -0.363231 1.09361e-21)
(0.707599 -0.302788 -9.57023e-23)
(0.75775 -0.255842 -1.11409e-21)
(0.802062 -0.217262 -4.09547e-23)
(0.837721 -0.186083 -5.82493e-22)
(0.869924 -0.159571 -5.79339e-22)
(0.895789 -0.137106 3.95047e-22)
(0.281933 -0.444962 -2.41601e-24)
(0.489369 -0.550828 -1.32432e-21)
(0.600121 -0.466922 -1.36722e-22)
(0.665912 -0.386712 -7.45136e-22)
(0.727136 -0.322764 -5.96003e-22)
(0.773894 -0.273029 -2.09883e-22)
(0.815456 -0.232095 -8.52983e-22)
(0.848928 -0.198975 7.48697e-22)
(0.879441 -0.170767 3.90602e-22)
(0.90417 -0.146835 -2.93953e-22)
(0.31148 -0.463711 0)
(0.526787 -0.578266 1.08847e-21)
(0.631436 -0.49227 1.232e-22)
(0.691308 -0.40836 6.721e-23)
(0.747725 -0.341302 6.75214e-22)
(0.790933 -0.289063 9.2883e-22)
(0.829621 -0.246 -7.64663e-22)
(0.86079 -0.211113 8.0348e-23)
(0.889493 -0.181352 0)
(0.913085 -0.156039 0)
(0.341514 -0.478968 -6.76524e-23)
(0.565422 -0.60231 9.4146e-22)
(0.664014 -0.515154 0)
(0.71781 -0.428104 1.62372e-22)
(0.769242 -0.358343 -7.68871e-23)
(0.808772 -0.303898 0)
(0.844483 -0.258938 7.71832e-22)
(0.873251 -0.222465 5.66544e-22)
(0.900027 -0.191306 -1.09138e-22)
(0.922488 -0.1647 9.1673e-23)
(0.371661 -0.490635 5.94247e-23)
(0.604935 -0.622857 -9.90236e-22)
(0.697632 -0.535493 0)