/*--------------------------------*- C++ -*----------------------------------*\
  =========                 |
  \\      /  F ield         | OpenFOAM: The Open Source CFD Toolbox
   \\    /   O peration     | Website:  https://openfoam.org
    \\  /    A nd           | Version:  9
     \\/     M anipulation  |
\*---------------------------------------------------------------------------*/
FoamFile
{
    format      ascii;
    class       volScalarField;
    location    "12";
    object      p;
}
// * * * * * * * * * * * * * * * * * * * * * * * * * * * * * * * * * * * * * //

dimensions      [0 2 -2 0 0 0 0];

internalField   nonuniform List<scalar> 
8500
(
-0.316926
-0.322039
-0.323587
-0.326807
-0.331097
-0.334471
-0.342652
-0.344545
-0.358784
-0.360195
-0.317275
-0.322294
-0.323839
-0.327016
-0.331346
-0.334572
-0.343011
-0.344402
-0.359276
-0.359967
-0.31796
-0.322795
-0.324328
-0.327419
-0.331824
-0.334747
-0.343696
-0.344084
-0.360199
-0.359501
-0.318954
-0.323519
-0.32503
-0.327981
-0.332492
-0.33495
-0.344642
-0.343534
-0.361442
-0.358776
-0.320222
-0.324438
-0.325907
-0.328658
-0.333297
-0.335125
-0.345756
-0.342698
-0.362849
-0.357757
-0.321721
-0.32552
-0.32692
-0.329401
-0.334168
-0.335218
-0.346917
-0.341535
-0.364253
-0.356373
-0.323403
-0.326727
-0.328023
-0.330157
-0.335031
-0.335189
-0.347994
-0.340015
-0.365509
-0.354566
-0.325222
-0.328024
-0.32917
-0.330883
-0.335805
-0.335017
-0.348852
-0.33814
-0.366414
-0.352556
-0.327135
-0.32938
-0.330321
-0.331545
-0.336421
-0.334711
-0.349331
-0.336308
-0.366697
-0.350077
-0.329103
-0.33077
-0.33144
-0.332123
-0.336812
-0.334346
-0.349241
-0.334319
-0.366767
-0.347071
-0.331099
-0.332174
-0.332501
-0.332612
-0.336882
-0.334023
-0.348688
-0.332146
-0.366502
-0.34391
-0.333106
-0.333584
-0.333489
-0.333048
-0.336646
-0.333643
-0.347723
-0.330042
-0.365596
-0.341275
-0.335118
-0.334997
-0.334391
-0.333424
-0.336188
-0.333219
-0.346299
-0.328412
-0.363408
-0.33975
-0.337146
-0.33642
-0.335236
-0.333724
-0.335569
-0.332791
-0.344416
-0.327451
-0.359522
-0.339222
-0.339215
-0.337865
-0.336063
-0.333972
-0.334849
-0.332364
-0.342174
-0.327093
-0.353965
-0.338558
-0.341358
-0.339359
-0.336909
-0.334213
-0.334116
-0.331792
-0.339725
-0.326926
-0.347361
-0.336467
-0.343621
-0.340933
-0.337819
-0.334494
-0.333473
-0.331041
-0.337153
-0.326501
-0.340386
-0.332454
-0.346059
-0.342626
-0.338844
-0.334863
-0.332987
-0.330136
-0.334408
-0.325553
-0.333224
-0.326664
-0.348738
-0.344483
-0.340038
-0.335357
-0.332648
-0.329173
-0.331401
-0.32392
-0.325706
-0.3196
-0.351726
-0.34655
-0.341459
-0.335996
-0.332398
-0.328226
-0.328123
-0.3214
-0.317844
-0.311919
-0.355091
-0.34888
-0.343156
-0.336768
-0.332204
-0.327285
-0.324638
-0.317815
-0.310238
-0.303999
-0.358872
-0.35155
-0.34516
-0.337647
-0.332096
-0.326247
-0.320978
-0.313238
-0.303137
-0.295308
-0.363151
-0.354607
-0.347458
-0.338639
-0.332111
-0.324969
-0.317116
-0.307981
-0.295952
-0.286668
-0.367991
-0.35811
-0.349994
-0.33983
-0.332216
-0.32334
-0.313018
-0.302198
-0.288749
-0.278243
-0.373451
-0.362103
-0.352705
-0.341345
-0.33229
-0.321303
-0.308636
-0.296077
-0.281468
-0.269923
-0.379596
-0.366582
-0.355606
-0.34323
-0.332198
-0.318832
-0.303958
-0.289701
-0.274106
-0.261744
-0.386498
-0.371481
-0.35883
-0.34537
-0.331836
-0.315927
-0.298977
-0.283126
-0.266675
-0.253611
-0.394223
-0.376693
-0.362594
-0.347537
-0.331124
-0.312597
-0.293695
-0.276372
-0.259163
-0.245505
-0.402805
-0.382114
-0.367073
-0.349519
-0.329992
-0.308849
-0.28811
-0.269439
-0.251563
-0.237373
-0.412204
-0.387696
-0.372277
-0.351172
-0.32837
-0.304679
-0.282219
-0.262316
-0.243851
-0.229184
-0.422285
-0.393468
-0.37798
-0.352409
-0.326201
-0.300071
-0.276007
-0.254984
-0.236007
-0.220903
-0.432795
-0.399519
-0.383759
-0.353156
-0.323437
-0.294999
-0.269455
-0.247423
-0.228001
-0.212499
-0.443396
-0.405955
-0.389111
-0.353321
-0.320039
-0.289429
-0.262538
-0.239605
-0.219806
-0.203943
-0.453765
-0.41283
-0.393583
-0.352788
-0.315973
-0.283329
-0.255224
-0.231504
-0.211396
-0.195211
-0.463602
-0.420092
-0.396842
-0.351423
-0.311199
-0.276666
-0.247482
-0.223088
-0.202745
-0.186278
-0.472656
-0.427541
-0.398691
-0.349091
-0.305674
-0.269409
-0.23928
-0.214329
-0.19383
-0.177122
-0.480734
-0.434822
-0.399048
-0.345671
-0.299349
-0.261528
-0.230589
-0.205199
-0.184626
-0.167725
-0.487681
-0.441452
-0.397918
-0.34107
-0.292171
-0.25299
-0.221381
-0.195675
-0.175113
-0.158076
-0.493374
-0.446893
-0.395331
-0.335226
-0.284087
-0.243762
-0.211629
-0.185734
-0.165272
-0.148182
-0.49771
-0.450686
-0.391249
-0.328093
-0.275052
-0.23381
-0.201311
-0.175356
-0.155087
-0.138062
-0.500588
-0.452504
-0.385548
-0.319629
-0.265025
-0.223107
-0.190407
-0.164523
-0.144542
-0.127728
-0.501901
-0.452079
-0.378142
-0.30979
-0.253972
-0.211628
-0.178902
-0.153221
-0.13363
-0.117144
-0.501514
-0.449222
-0.368975
-0.298539
-0.241865
-0.199353
-0.16678
-0.141435
-0.122363
-0.10624
-0.499265
-0.443805
-0.358
-0.285856
-0.228687
-0.186268
-0.154028
-0.129152
-0.110786
-0.0949435
-0.494962
-0.435745
-0.345169
-0.271744
-0.214424
-0.172359
-0.140635
-0.116369
-0.0989374
-0.0832583
-0.488393
-0.424989
-0.330445
-0.256208
-0.199062
-0.157626
-0.126614
-0.103127
-0.0867712
-0.0713295
-0.479337
-0.411504
-0.313811
-0.239245
-0.182589
-0.142094
-0.112001
-0.0895235
-0.0741712
-0.0592086
-0.467582
-0.395275
-0.295257
-0.220853
-0.165028
-0.125825
-0.0968399
-0.0755281
-0.0611634
-0.0468953
-0.452935
-0.376304
-0.274775
-0.201049
-0.146479
-0.108853
-0.081107
-0.0611422
-0.0477961
-0.0343933
-0.435237
-0.354616
-0.252351
-0.179923
-0.127062
-0.0911089
-0.0648407
-0.046377
-0.0341155
-0.0217175
-0.414374
-0.330275
-0.227998
-0.15765
-0.106695
-0.0726423
-0.0480805
-0.0312564
-0.0201622
-0.00889496
-0.390284
-0.303405
-0.201824
-0.134168
-0.0854471
-0.0535108
-0.0308697
-0.0158129
-0.00597596
0.00403741
-0.36296
-0.274147
-0.174015
-0.109418
-0.0633798
-0.0337796
-0.0132558
-8.62635e-05
0.00840476
0.0170358
-0.332457
-0.242506
-0.144729
-0.0835173
-0.0405617
-0.0135186
0.00470734
0.0158794
0.0229443
0.0300559
-0.2989
-0.20833
-0.11427
-0.0566075
-0.0170677
0.00719711
0.0229593
0.032039
0.0376122
0.0430543
-0.262456
-0.171907
-0.0826258
-0.0288374
0.00701454
0.0282874
0.0414355
0.0483511
0.0523771
0.0559611
-0.223212
-0.133667
-0.0498617
-0.000352944
0.0315847
0.049667
0.0600707
0.0647822
0.0671846
0.0686031
-0.181203
-0.0941758
-0.0161129
0.0287032
0.0565313
0.0712459
0.078803
0.0812995
0.0819228
0.0806422
-0.136885
-0.0536112
0.0184391
0.0581873
0.0817347
0.0929308
0.0975718
0.097844
0.0964163
0.0917859
-0.0906238
-0.0121716
0.0535884
0.0879492
0.107069
0.114626
0.116309
0.114305
0.1105
0.102351
-0.0428027
0.0299029
0.0891141
0.117832
0.132402
0.136235
0.13493
0.130539
0.124116
0.113661
0.00617228
0.0723467
0.124786
0.14767
0.157602
0.157656
0.153338
0.146437
0.137474
0.125502
0.0558789
0.114877
0.160369
0.177293
0.182531
0.178783
0.171437
0.161966
0.150623
0.13739
0.105884
0.1572
0.195625
0.206526
0.207052
0.199508
0.189132
0.17708
0.16351
0.149144
0.155746
0.199015
0.230315
0.235194
0.231026
0.219721
0.206335
0.191732
0.17606
0.160581
0.205025
0.240022
0.264203
0.263118
0.254315
0.23931
0.222959
0.205865
0.188207
0.171605
0.253281
0.279921
0.297057
0.290124
0.276782
0.258168
0.238921
0.219418
0.199883
0.182136
0.300085
0.318417
0.328648
0.316038
0.298292
0.276187
0.254138
0.232326
0.211025
0.192114
0.345015
0.355233
0.35876
0.340693
0.318717
0.293265
0.268533
0.244527
0.221571
0.20149
0.387662
0.390106
0.387183
0.363928
0.337929
0.309303
0.282027
0.25596
0.231464
0.210221
0.427647
0.42278
0.413719
0.385587
0.355809
0.324206
0.294548
0.266564
0.240649
0.218269
0.464673
0.452969
0.438179
0.405524
0.372245
0.337887
0.306028
0.276285
0.249075
0.2256
0.498443
0.480413
0.460388
0.423604
0.387134
0.350265
0.316403
0.285071
0.256693
0.232183
0.528668
0.504897
0.480184
0.439704
0.400379
0.361264
0.325615
0.292872
0.263461
0.237992
0.555083
0.526234
0.497425
0.453713
0.411895
0.370819
0.333611
0.299645
0.269339
0.243005
0.577459
0.544265
0.511988
0.465537
0.421609
0.378873
0.340347
0.30535
0.274291
0.247205
0.5956
0.558853
0.523766
0.475094
0.429457
0.385376
0.345783
0.309955
0.278288
0.250579
0.609347
0.569891
0.532675
0.482319
0.435388
0.390288
0.349888
0.313433
0.281308
0.253115
0.618579
0.577296
0.53865
0.487164
0.439364
0.39358
0.352638
0.315763
0.283331
0.254809
0.623215
0.581012
0.541649
0.489595
0.441359
0.39523
0.354018
0.316932
0.284346
0.255656
0.623215
0.581012
0.541649
0.489595
0.441359
0.39523
0.354018
0.316932
0.284346
0.255656
0.618579
0.577296
0.53865
0.487164
0.439364
0.39358
0.352638
0.315763
0.283331
0.254809
0.609347
0.569891
0.532675
0.482319
0.435388
0.390288
0.349888
0.313433
0.281308
0.253115
0.5956
0.558853
0.523766
0.475094
0.429457
0.385376
0.345783
0.309955
0.278288
0.250579
0.577459
0.544265
0.511988
0.465537
0.421609
0.378873
0.340347
0.30535
0.274291
0.247205
0.555083
0.526234
0.497425
0.453713
0.411895
0.370819
0.333611
0.299645
0.269339
0.243005
0.528668
0.504897
0.480184
0.439704
0.400379
0.361264
0.325615
0.292872
0.263461
0.237992
0.498443
0.480413
0.460388
0.423604
0.387134
0.350265
0.316403
0.285071
0.256693
0.232183
0.464673
0.452969
0.438179
0.405524
0.372245
0.337887
0.306028
0.276285
0.249075
0.2256
0.427647
0.42278
0.413719
0.385587
0.355809
0.324206
0.294548
0.266564
0.240649
0.218269
0.387662
0.390106
0.387183
0.363928
0.337929
0.309303
0.282027
0.25596
0.231464
0.210221
0.345015
0.355233
0.35876
0.340693
0.318716
0.293265
0.268533
0.244527
0.221571
0.20149
0.300085
0.318417
0.328648
0.316038
0.298292
0.276187
0.254138
0.232326
0.211025
0.192114
0.253281
0.279921
0.297057
0.290124
0.276782
0.258168
0.238921
0.219418
0.199883
0.182136
0.205025
0.240022
0.264203
0.263118
0.254315
0.23931
0.222959
0.205865
0.188207
0.171605
0.155746
0.199015
0.230315
0.235194
0.231026
0.219721
0.206335
0.191732
0.17606
0.160581
0.105884
0.1572
0.195625
0.206526
0.207052
0.199508
0.189132
0.17708
0.16351
0.149144
0.0558789
0.114877
0.160369
0.177293
0.182531
0.178783
0.171437
0.161966
0.150623
0.13739
0.00617227
0.0723467
0.124786
0.14767
0.157602
0.157656
0.153338
0.146437
0.137474
0.125502
-0.0428027
0.0299029
0.0891141
0.117832
0.132402
0.136235
0.13493
0.130539
0.124116
0.113661
-0.0906239
-0.0121716
0.0535884
0.0879492
0.107069
0.114626
0.116309
0.114305
0.110499
0.102351
-0.136885
-0.0536112
0.0184391
0.0581872
0.0817347
0.0929308
0.0975718
0.097844
0.0964163
0.0917859
-0.181203
-0.0941758
-0.0161129
0.0287032
0.0565313
0.0712459
0.078803
0.0812995
0.0819228
0.0806422
-0.223212
-0.133667
-0.0498617
-0.00035296
0.0315846
0.049667
0.0600707
0.0647822
0.0671846
0.0686031
-0.262456
-0.171907
-0.0826258
-0.0288374
0.00701453
0.0282874
0.0414355
0.0483511
0.0523771
0.0559611
-0.2989
-0.20833
-0.11427
-0.0566075
-0.0170678
0.0071971
0.0229593
0.032039
0.0376122
0.0430543
-0.332457
-0.242506
-0.144729
-0.0835174
-0.0405617
-0.0135186
0.00470733
0.0158794
0.0229443
0.0300559
-0.36296
-0.274147
-0.174015
-0.109418
-0.0633798
-0.0337796
-0.0132558
-8.62791e-05
0.00840475
0.0170358
-0.390284
-0.303405
-0.201824
-0.134168
-0.0854471
-0.0535108
-0.0308697
-0.0158129
-0.00597597
0.0040374
-0.414374
-0.330275
-0.227998
-0.15765
-0.106695
-0.0726423
-0.0480805
-0.0312564
-0.0201623
-0.00889497
-0.435237
-0.354616
-0.252351
-0.179923
-0.127062
-0.091109
-0.0648407
-0.046377
-0.0341155
-0.0217175
-0.452935
-0.376304
-0.274775
-0.201049
-0.146479
-0.108853
-0.081107
-0.0611422
-0.0477961
-0.0343933
-0.467582
-0.395275
-0.295257
-0.220853
-0.165028
-0.125825
-0.09684
-0.0755281
-0.0611634
-0.0468953
-0.479337
-0.411504
-0.313811
-0.239245
-0.182589
-0.142094
-0.112001
-0.0895235
-0.0741712
-0.0592087
-0.488393
-0.424989
-0.330445
-0.256208
-0.199062
-0.157626
-0.126614
-0.103127
-0.0867712
-0.0713296
-0.494962
-0.435745
-0.345169
-0.271744
-0.214424
-0.172359
-0.140635
-0.116369
-0.0989375
-0.0832583
-0.499265
-0.443805
-0.358
-0.285856
-0.228687
-0.186268
-0.154028
-0.129152
-0.110786
-0.0949435
-0.501514
-0.449222
-0.368975
-0.298539
-0.241865
-0.199353
-0.16678
-0.141435
-0.122363
-0.10624
-0.501901
-0.45208
-0.378142
-0.30979
-0.253972
-0.211628
-0.178902
-0.153221
-0.13363
-0.117144
-0.500588
-0.452504
-0.385548
-0.319629
-0.265025
-0.223107
-0.190407
-0.164523
-0.144543
-0.127728
-0.49771
-0.450686
-0.391249
-0.328093
-0.275052
-0.23381
-0.201311
-0.175356
-0.155087
-0.138062
-0.493374
-0.446893
-0.395331
-0.335226
-0.284087
-0.243762
-0.211629
-0.185734
-0.165272
-0.148182
-0.487681
-0.441452
-0.397918
-0.341071
-0.292171
-0.25299
-0.221381
-0.195675
-0.175113
-0.158076
-0.480734
-0.434822
-0.399048
-0.345671
-0.299349
-0.261528
-0.230589
-0.205199
-0.184626
-0.167725
-0.472656
-0.427541
-0.398691
-0.349091
-0.305674
-0.269409
-0.23928
-0.214329
-0.19383
-0.177122
-0.463602
-0.420092
-0.396842
-0.351423
-0.311199
-0.276666
-0.247482
-0.223088
-0.202745
-0.186278
-0.453765
-0.41283
-0.393583
-0.352788
-0.315973
-0.283329
-0.255224
-0.231504
-0.211396
-0.195211
-0.443396
-0.405955
-0.389111
-0.353321
-0.320039
-0.289429
-0.262538
-0.239605
-0.219806
-0.203943
-0.432795
-0.399519
-0.383759
-0.353156
-0.323437
-0.294999
-0.269455
-0.247423
-0.228001
-0.212499
-0.422285
-0.393468
-0.37798
-0.352409
-0.326201
-0.300071
-0.276007
-0.254984
-0.236007
-0.220903
-0.412204
-0.387696
-0.372277
-0.351172
-0.32837
-0.304679
-0.282219
-0.262316
-0.243851
-0.229185
-0.402805
-0.382114
-0.367073
-0.349519
-0.329992
-0.308849
-0.28811
-0.269439
-0.251563
-0.237373
-0.394223
-0.376693
-0.362594
-0.347537
-0.331124
-0.312597
-0.293695
-0.276372
-0.259163
-0.245505
-0.386498
-0.371481
-0.35883
-0.34537
-0.331836
-0.315927
-0.298977
-0.283126
-0.266675
-0.253611
-0.379596
-0.366582
-0.355606
-0.34323
-0.332198
-0.318832
-0.303958
-0.289701
-0.274106
-0.261744
-0.373451
-0.362103
-0.352705
-0.341345
-0.33229
-0.321303
-0.308636
-0.296077
-0.281468
-0.269923
-0.367991
-0.35811
-0.349994
-0.33983
-0.332216
-0.32334
-0.313018
-0.302198
-0.288749
-0.278243
-0.363151
-0.354607
-0.347458
-0.338639
-0.332111
-0.324969
-0.317116
-0.307981
-0.295952
-0.286668
-0.358872
-0.35155
-0.34516
-0.337647
-0.332096
-0.326247
-0.320978
-0.313238
-0.303137
-0.295308
-0.355091
-0.34888
-0.343156
-0.336768
-0.332204
-0.327285
-0.324638
-0.317815
-0.310238
-0.303999
-0.351726
-0.34655
-0.341459
-0.335996
-0.332398
-0.328226
-0.328123
-0.3214
-0.317844
-0.311919
-0.348738
-0.344483
-0.340038
-0.335357
-0.332648
-0.329173
-0.331401
-0.32392
-0.325706
-0.3196
-0.346059
-0.342626
-0.338844
-0.334863
-0.332987
-0.330136
-0.334408
-0.325553
-0.333224
-0.326664
-0.343621
-0.340933
-0.337819
-0.334494
-0.333473
-0.331041
-0.337153
-0.326501
-0.340387
-0.332454
-0.341358
-0.339359
-0.336909
-0.334213
-0.334116
-0.331792
-0.339725
-0.326926
-0.347361
-0.336467
-0.339215
-0.337865
-0.336063
-0.333972
-0.334849
-0.332364
-0.342174
-0.327093
-0.353965
-0.338558
-0.337146
-0.33642
-0.335236
-0.333724
-0.335569
-0.332791
-0.344416
-0.327451
-0.359523
-0.339222
-0.335119
-0.334997
-0.334391
-0.333424
-0.336188
-0.333219
-0.346299
-0.328412
-0.363408
-0.33975
-0.333106
-0.333584
-0.333489
-0.333048
-0.336646
-0.333643
-0.347723
-0.330042
-0.365596
-0.341275
-0.331099
-0.332174
-0.332501
-0.332612
-0.336882
-0.334023
-0.348688
-0.332146
-0.366502
-0.34391
-0.329103
-0.33077
-0.33144
-0.332123
-0.336812
-0.334346
-0.349241
-0.334319
-0.366767
-0.347071
-0.327135
-0.32938
-0.330321
-0.331545
-0.336421
-0.334711
-0.349331
-0.336308
-0.366697
-0.350077
-0.325222
-0.328024
-0.32917
-0.330883
-0.335805
-0.335017
-0.348852
-0.33814
-0.366414
-0.352556
-0.323403
-0.326727
-0.328023
-0.330157
-0.335031
-0.335189
-0.347994
-0.340015
-0.365509
-0.354566
-0.321721
-0.32552
-0.32692
-0.329401
-0.334168
-0.335218
-0.346917
-0.341535
-0.364253
-0.356373
-0.320222
-0.324438
-0.325907
-0.328658
-0.333297
-0.335125
-0.345756
-0.342698
-0.362849
-0.357757
-0.318954
-0.323519
-0.32503
-0.327981
-0.332492
-0.33495
-0.344642
-0.343534
-0.361442
-0.358776
-0.31796
-0.322795
-0.324328
-0.327419
-0.331824
-0.334747
-0.343696
-0.344084
-0.3602
-0.359501
-0.317275
-0.322294
-0.323839
-0.327016
-0.331346
-0.334572
-0.343011
-0.344402
-0.359276
-0.359967
-0.316926
-0.322039
-0.323587
-0.326807
-0.331097
-0.334471
-0.342652
-0.344545
-0.358784
-0.360195
-0.384662
-0.394326
-0.411905
-0.412585
-0.398016
-0.356966
-0.289364
-0.197784
-0.105277
-0.0301511
0.0148092
0.0371937
0.0426242
0.0400329
0.0338007
0.0269156
0.0206156
0.0152894
0.0109777
0.00764807
0.00525875
0.00369566
0.0027219
0.00206182
0.00152139
0.00105344
0.000667317
0.000394873
0.000193186
7.44916e-05
-0.385164
-0.394911
-0.412675
-0.413744
-0.399486
-0.358802
-0.291428
-0.199736
-0.106855
-0.0312682
0.0140379
0.0366639
0.0422686
0.0397884
0.0336351
0.0268028
0.0205396
0.0152387
0.0109428
0.00762241
0.00523842
0.0036792
0.00270913
0.00205269
0.00151547
0.00104996
0.000665424
0.000393886
0.000192745
7.42685e-05
-0.386012
-0.395908
-0.414042
-0.415833
-0.40218
-0.362203
-0.295305
-0.203442
-0.109927
-0.0334713
0.0124889
0.0355872
0.0415435
0.03929
0.0332983
0.0265743
0.0203863
0.0151363
0.0108729
0.00757137
0.00519831
0.00364687
0.00268403
0.00203469
0.00150376
0.00104305
0.000661655
0.00039192
0.000191869
7.38227e-05
-0.386928
-0.397023
-0.415706
-0.418455
-0.405688
-0.366716
-0.300541
-0.208612
-0.114235
-0.0367579
0.0101536
0.0339368
0.0404258
0.038522
0.0327812
0.0262252
0.0201531
0.0149813
0.0107677
0.00749545
0.00513944
0.00359978
0.00264746
0.00200834
0.00148652
0.00103282
0.000656053
0.000388991
0.000190561
7.3161e-05
-0.38762
-0.397908
-0.417311
-0.421154
-0.40951
-0.371781
-0.306671
-0.214798
-0.119633
-0.0410148
0.00703204
0.0316862
0.0388908
0.0374677
0.0320735
0.0257506
0.0198373
0.0147722
0.0106268
0.00739533
0.00506314
0.00353937
0.00260056
0.00197435
0.0014641
0.00101942
0.000648677
0.000385118
0.00018883
7.22917e-05
-0.387744
-0.398312
-0.418475
-0.423513
-0.413164
-0.376934
-0.31311
-0.221584
-0.125915
-0.0461502
0.00313944
0.0288328
0.0369189
0.0361161
0.0311694
0.0251467
0.0194369
0.0145079
0.0104501
0.00727182
0.00497089
0.00346725
0.00254462
0.00193352
0.00143692
0.00100302
0.000639599
0.000380329
0.000186686
7.12251e-05
-0.387335
-0.397877
-0.419051
-0.425161
-0.416247
-0.381623
-0.319443
-0.228757
-0.132806
-0.0520651
-0.00147175
0.025391
0.03451
0.0344664
0.0300672
0.0244126
0.0189513
0.0141881
0.0102378
0.00712579
0.00486415
0.00338501
0.00248096
0.00188671
0.00140543
0.000983846
0.000628907
0.000374662
0.000184143
6.99739e-05
-0.385619
-0.397048
-0.418472
-0.425928
-0.418415
-0.385646
-0.325353
-0.235907
-0.140103
-0.05862
-0.00673887
0.0213904
0.0316836
0.032527
0.0287718
0.023551
0.0183819
0.0138136
0.00999048
0.00695816
0.00474421
0.00329408
0.00241078
0.00183476
0.00137011
0.000962116
0.000616697
0.000368158
0.000181216
6.85521e-05
-0.383392
-0.395269
-0.417083
-0.42563
-0.419542
-0.388682
-0.330539
-0.24282
-0.147599
-0.0656795
-0.0125743
0.0168872
0.0284716
0.0303162
0.0272942
0.0225685
0.0177322
0.0133861
0.00970923
0.00676989
0.00461218
0.00319563
0.00233514
0.00177843
0.00133142
0.000938061
0.000603071
0.000360866
0.000177921
6.69751e-05
-0.380286
-0.392861
-0.414625
-0.424217
-0.419533
-0.390546
-0.334816
-0.249277
-0.155118
-0.0731027
-0.0188785
0.0119498
0.0249172
0.0278603
0.02565
0.0214743
0.0170077
0.0129087
0.0093956
0.00656199
0.00446895
0.00309059
0.0022549
0.00171839
0.00128978
0.000911909
0.000588136
0.00035284
0.000174277
6.52593e-05
-0.376325
-0.389823
-0.411245
-0.421679
-0.418287
-0.391249
-0.337981
-0.25512
-0.162508
-0.0807549
-0.0255464
0.00665489
0.0210703
0.0251901
0.0238578
0.0202798
0.0162149
0.012385
0.00905161
0.00633549
0.00431521
0.00297961
0.0021707
0.00165519
0.00124559
0.000883881
0.000571998
0.000344134
0.000170301
6.34215e-05
-0.371422
-0.386124
-0.406966
-0.418092
-0.41582
-0.390667
-0.340022
-0.260212
-0.169642
-0.0885111
-0.0324735
0.00108117
0.0169836
0.0223382
0.0219372
0.0189972
0.0153612
0.0118193
0.00867954
0.0060915
0.00415152
0.00286312
0.00208303
0.00158928
0.00119918
0.000854186
0.000554762
0.000334798
0.000166013
6.14782e-05
-0.365774
-0.381627
-0.401788
-0.413392
-0.412138
-0.388854
-0.340895
-0.264474
-0.176422
-0.0962607
-0.0395618
-0.00469543
0.0127088
0.019336
0.0199071
0.0176385
0.0144541
0.0112161
0.00828185
0.00583118
0.00397836
0.00274142
0.0019922
0.00152103
0.00115085
0.000823016
0.00053653
0.000324879
0.000161435
5.94465e-05
-0.359614
-0.376348
-0.395697
-0.40757
-0.407246
-0.385832
-0.340658
-0.26783
-0.182769
-0.10391
-0.0467235
-0.0106058
0.00829427
0.0162157
0.0177847
0.0162149
0.0135007
0.0105799
0.00786105
0.00555569
0.00379614
0.00261469
0.00189843
0.00145069
0.00110086
0.000790546
0.000517398
0.000314417
0.000156585
5.73429e-05
-0.353323
-0.370141
-0.388639
-0.400696
-0.40127
-0.381727
-0.339393
-0.270345
-0.188622
-0.111382
-0.0538841
-0.0165896
0.00378316
0.0130087
0.0155841
0.0147363
0.0125075
0.00991472
0.00741961
0.00526623
0.00360529
0.00248306
0.00180186
0.00137849
0.00104942
0.000756932
0.000497456
0.000303451
0.000151471
5.51806e-05
-0.346901
-0.363049
-0.380772
-0.392742
-0.394145
-0.376537
-0.33715
-0.2721
-0.193947
-0.118613
-0.0609796
-0.0225965
-0.000791562
0.00972864
0.0133196
0.0132098
0.0114797
0.00922423
0.00695973
0.00496392
0.00340619
0.00234664
0.00170258
0.00130459
0.000996711
0.000722324
0.000476796
0.000292029
0.000146171
5.29691e-05
-0.340294
-0.355257
-0.372029
-0.384332
-0.386495
-0.370728
-0.33426
-0.273213
-0.198753
-0.125566
-0.0679771
-0.0285991
-0.00540594
0.0063972
0.0110113
0.0116457
0.010422
0.00851118
0.00648312
0.00464964
0.0031992
0.0022055
0.00160066
0.00122912
0.000942925
0.000686884
0.000455523
0.000280203
0.00014053
5.0726e-05
-0.333571
-0.346982
-0.362995
-0.37435
-0.377528
-0.363857
-0.330548
-0.273777
-0.203086
-0.132214
-0.0748152
-0.0345239
-0.010002
0.00304048
0.00866005
0.0100574
0.00934556
0.00778254
0.00599398
0.00432567
0.00298529
0.00205998
0.00149626
0.00115219
0.000888089
0.000650604
0.000433619
0.000267942
0.000134614
4.84739e-05
-0.32688
-0.33854
-0.353605
-0.366408
-0.369557
-0.3575
-0.326871
-0.273859
-0.206774
-0.138329
-0.0813537
-0.0403553
-0.0146385
-0.000404972
0.00619974
0.00839434
0.0082341
0.00703395
0.00549132
0.00399187
0.00276441
0.00191008
0.00138929
0.00107354
0.000831844
0.000613112
0.000410789
0.000255072
0.000128455
4.62327e-05
-0.320515
-0.329531
-0.342969
-0.353951
-0.358725
-0.349099
-0.322221
-0.274155
-0.211372
-0.145371
-0.0888218
-0.046828
-0.0196161
-0.00396471
0.00374599
0.00666314
0.0070427
0.00622388
0.00494556
0.00363111
0.00252914
0.00175302
0.0012787
0.000993355
0.000775154
0.000575526
0.000387911
0.000242093
0.000122231
4.40209e-05
-0.314205
-0.323359
-0.336249
-0.348357
-0.352168
-0.342691
-0.316555
-0.270233
-0.209737
-0.145973
-0.0908441
-0.0494952
-0.0222677
-0.00626903
0.00192492
0.00532776
0.00609247
0.00556571
0.00449808
0.0033246
0.00231395
0.0015998
0.0011701
0.000918036
0.000725545
0.000544858
0.000370162
0.000231974
0.00011724
4.21757e-05
-0.307337
-0.316424
-0.328166
-0.338297
-0.3418
-0.332255
-0.306939
-0.262937
-0.205684
-0.145139
-0.0922367
-0.0519837
-0.0249698
-0.00870024
-4.89198e-05
0.00381838
0.00497955
0.0047661
0.00393731
0.00294246
0.00206023
0.00143155
0.00105543
0.000837801
0.000670104
0.000508404
0.000348036
0.000219364
0.000111248
3.99796e-05
-0.300118
-0.308907
-0.319564
-0.329094
-0.331614
-0.321928
-0.297477
-0.255776
-0.201674
-0.144243
-0.0935287
-0.0544042
-0.0276628
-0.0111727
-0.00209408
0.00222811
0.00379267
0.00390466
0.00332795
0.00252424
0.00178124
0.00124672
0.000929856
0.000749772
0.000608732
0.000467576
0.000323006
0.000205074
0.000104469
3.75226e-05
-0.292499
-0.301002
-0.310697
-0.319333
-0.32124
-0.311556
-0.288045
-0.248638
-0.197636
-0.143275
-0.0947448
-0.0567736
-0.0303395
-0.0136608
-0.00417231
0.00060114
0.00257206
0.00301523
0.00269659
0.00208879
0.00148862
0.00105146
0.000796872
0.000656816
0.000544234
0.000424801
0.000296781
0.000190064
9.73094e-05
3.494e-05
-0.28442
-0.292799
-0.301599
-0.30939
-0.310725
-0.301123
-0.278602
-0.241474
-0.193528
-0.142198
-0.0958587
-0.0590761
-0.0329935
-0.0161612
-0.00628253
-0.00106409
0.00131449
0.00209401
0.0020397
0.00163359
0.00118118
0.000845453
0.000656479
0.000558972
0.000476588
0.000380003
0.00026928
0.000174269
8.97388e-05
3.22172e-05
-0.275968
-0.284355
-0.292338
-0.299333
-0.300169
-0.290716
-0.269222
-0.234337
-0.189376
-0.141017
-0.0968624
-0.0612992
-0.0356137
-0.0186664
-0.00842144
-0.0027679
1.77999e-05
0.00113815
0.00135448
0.00115642
0.000857379
0.00062777
0.000508064
0.000455757
0.00040538
0.000332848
0.000240262
0.000157549
8.16903e-05
2.93339e-05
-0.267246
-0.27572
-0.282979
-0.289225
-0.289645
-0.280409
-0.259968
-0.22727
-0.185204
-0.139739
-0.0977509
-0.0634327
-0.0381887
-0.0211668
-0.0105824
-0.0045063
-0.00131592
0.000148595
0.000641215
0.000657182
0.000516935
0.000398044
0.000351299
0.000346925
0.000330441
0.000283224
0.000209657
0.000139862
7.31406e-05
2.6286e-05
-0.258316
-0.266934
-0.273569
-0.279123
-0.27921
-0.270254
-0.250879
-0.220299
-0.181026
-0.138368
-0.0985198
-0.0654674
-0.0407076
-0.0236526
-0.012758
-0.00627437
-0.00268365
-0.00087296
-9.92182e-05
0.000136216
0.000159854
0.000156124
0.000186011
0.000232354
0.000251707
0.0002311
0.000177446
0.000121193
6.40786e-05
2.30727e-05
-0.249242
-0.258037
-0.264146
-0.269076
-0.268905
-0.260285
-0.241984
-0.213446
-0.176855
-0.136908
-0.0991657
-0.0673947
-0.0431602
-0.0261143
-0.0149408
-0.00806697
-0.00408221
-0.00192472
-0.000865928
-0.000406123
-0.000213818
-9.80845e-05
1.20779e-05
0.000111951
0.000169121
0.000176444
0.000143606
0.000101525
5.44924e-05
1.96929e-05
-0.240088
-0.249068
-0.254747
-0.259123
-0.258762
-0.250528
-0.233304
-0.206728
-0.172702
-0.135364
-0.0996865
-0.0692073
-0.0455367
-0.0285422
-0.017123
-0.00987854
-0.00550805
-0.00300462
-0.0016578
-0.000969322
-0.000603916
-0.000364593
-0.00017057
-1.43493e-05
8.26406e-05
0.000119229
0.000108116
8.08445e-05
4.43714e-05
1.6146e-05
-0.230914
-0.240068
-0.245408
-0.249302
-0.248809
-0.241004
-0.224855
-0.200159
-0.168578
-0.133743
-0.100081
-0.070899
-0.0478281
-0.0309268
-0.0192963
-0.011703
-0.00695709
-0.00411011
-0.00247339
-0.00155262
-0.0010101
-0.000643286
-0.00036192
-0.000146558
-7.74426e-06
5.94499e-05
7.09704e-05
5.91452e-05
3.37091e-05
1.2433e-05
-0.221781
-0.231081
-0.236163
-0.239648
-0.239076
-0.231733
-0.216651
-0.19375
-0.164494
-0.132049
-0.10035
-0.0724644
-0.0500257
-0.0332585
-0.0214524
-0.0135339
-0.0084247
-0.00523819
-0.00331086
-0.00215497
-0.00143181
-0.0009339
-0.000561853
-0.000284618
-0.000102001
-2.87334e-06
3.21778e-05
3.64308e-05
2.25043e-05
8.55674e-06
-0.212748
-0.222151
-0.227049
-0.230194
-0.229586
-0.222731
-0.208703
-0.187514
-0.160458
-0.130292
-0.100496
-0.0738995
-0.0521218
-0.0355281
-0.0235824
-0.0153639
-0.00990569
-0.00638534
-0.00416795
-0.002775
-0.00186825
-0.00123599
-0.00077013
-0.000428394
-0.000200043
-6.7686e-05
-8.23083e-06
1.27179e-05
1.07623e-05
4.52207e-06
-0.20387
-0.213322
-0.218097
-0.220973
-0.220366
-0.214013
-0.201022
-0.181459
-0.156481
-0.12848
-0.10052
-0.0752017
-0.0541094
-0.0377264
-0.0256772
-0.0171856
-0.0113942
-0.00754745
-0.00504194
-0.00341098
-0.00231836
-0.00154892
-0.000986366
-0.00057765
-0.000301725
-0.000134893
-5.01998e-05
-1.19616e-05
-1.5037e-06
3.36623e-07
-0.195196
-0.204638
-0.209341
-0.212014
-0.211439
-0.205594
-0.193617
-0.175596
-0.152573
-0.126621
-0.100428
-0.0763695
-0.0559823
-0.0398446
-0.0277276
-0.0189907
-0.0128839
-0.00871982
-0.00592957
-0.00406072
-0.00278072
-0.0018718
-0.00121001
-0.000732037
-0.000406821
-0.000204352
-9.36425e-05
-3.75572e-05
-1.42706e-05
-3.9888e-06
-0.186772
-0.196144
-0.200815
-0.203346
-0.202829
-0.197491
-0.186498
-0.169936
-0.148748
-0.124727
-0.100226
-0.0774028
-0.0577352
-0.0418743
-0.0297241
-0.0207705
-0.0143676
-0.00989707
-0.006827
-0.0047216
-0.00325358
-0.00220346
-0.00144031
-0.000891073
-0.00051502
-0.00027586
-0.000138435
-6.39957e-05
-2.75035e-05
-8.43963e-06
-0.178641
-0.187884
-0.192553
-0.194997
-0.19456
-0.18972
-0.179675
-0.16449
-0.145016
-0.12281
-0.0999221
-0.0783032
-0.0593639
-0.0438077
-0.0316574
-0.022516
-0.0158376
-0.0110731
-0.00772975
-0.00539043
-0.00373474
-0.00254244
-0.00167629
-0.00105412
-0.000625903
-0.000349146
-0.000184409
-9.11772e-05
-4.11535e-05
-1.29969e-05
-0.170842
-0.179903
-0.18459
-0.186994
-0.186657
-0.182299
-0.173159
-0.159269
-0.141392
-0.120883
-0.0995247
-0.0790737
-0.0608653
-0.0456374
-0.0335178
-0.0242175
-0.0172854
-0.0122412
-0.00863264
-0.00606345
-0.00422154
-0.0028869
-0.00191672
-0.00122034
-0.00073893
-0.000423859
-0.000231345
-0.00011897
-5.51547e-05
-1.76368e-05
-0.163411
-0.172245
-0.176962
-0.179366
-0.179145
-0.175249
-0.166966
-0.154286
-0.137892
-0.118962
-0.0990456
-0.0797189
-0.0622371
-0.0473569
-0.0352962
-0.0258652
-0.0187019
-0.0133937
-0.00952977
-0.00673625
-0.00471079
-0.0032346
-0.00216005
-0.00138873
-0.000853418
-0.000499552
-0.000278964
-0.000147208
-6.94225e-05
-2.23295e-05
-0.156384
-0.164955
-0.169705
-0.172139
-0.172051
-0.168591
-0.16111
-0.149556
-0.13453
-0.117062
-0.0984973
-0.0802452
-0.0634787
-0.0489604
-0.0369832
-0.0274485
-0.0200774
-0.0145223
-0.0104144
-0.0074037
-0.00519874
-0.00358286
-0.00240443
-0.001558
-0.000968525
-0.000575676
-0.000326916
-0.00017568
-8.38496e-05
-2.7039e-05
-0.149794
-0.158073
-0.162856
-0.165341
-0.165399
-0.162349
-0.155609
-0.145096
-0.131326
-0.115203
-0.0978947
-0.0806603
-0.0645905
-0.0504426
-0.0385698
-0.028957
-0.0214014
-0.0156177
-0.011279
-0.00805992
-0.00568097
-0.00392848
-0.00264762
-0.00172664
-0.00108323
-0.000651555
-0.000374777
-0.000204131
-9.83039e-05
-3.17222e-05
-0.143672
-0.151642
-0.15645
-0.159004
-0.159218
-0.156548
-0.150484
-0.140923
-0.1283
-0.113403
-0.0972538
-0.0809737
-0.0655743
-0.0517993
-0.0400474
-0.0303794
-0.0226626
-0.0166698
-0.0121151
-0.00869819
-0.0061524
-0.00426773
-0.00288697
-0.00189281
-0.00119629
-0.000726379
-0.00042203
-0.00023225
-0.000112625
-3.63281e-05
-0.138051
-0.145701
-0.150527
-0.15316
-0.153533
-0.151212
-0.145759
-0.137059
-0.125472
-0.111685
-0.0965925
-0.0811964