/*--------------------------------*- C++ -*----------------------------------*\
  =========                 |
  \\      /  F ield         | OpenFOAM: The Open Source CFD Toolbox
   \\    /   O peration     | Website:  https://openfoam.org
    \\  /    A nd           | Version:  9
     \\/     M anipulation  |
\*---------------------------------------------------------------------------*/
FoamFile
{
    format      ascii;
    class       volScalarField;
    location    "15.9";
    object      p;
}
// * * * * * * * * * * * * * * * * * * * * * * * * * * * * * * * * * * * * * //

dimensions      [0 2 -2 0 0 0 0];

internalField   nonuniform List<scalar> 
8500
(
-0.311726
-0.316153
-0.317151
-0.319217
-0.321818
-0.322723
-0.327582
-0.32517
-0.333582
-0.32862
-0.312011
-0.316369
-0.317362
-0.319392
-0.322027
-0.322812
-0.327885
-0.325056
-0.333974
-0.328377
-0.312573
-0.316794
-0.317774
-0.319733
-0.322436
-0.322976
-0.328478
-0.324809
-0.33474
-0.327901
-0.313395
-0.317416
-0.318372
-0.320219
-0.323021
-0.323188
-0.329329
-0.3244
-0.335847
-0.327211
-0.314455
-0.318215
-0.319133
-0.320823
-0.323749
-0.323417
-0.330389
-0.323797
-0.337242
-0.326325
-0.315725
-0.31917
-0.320031
-0.321514
-0.32458
-0.323632
-0.33159
-0.322973
-0.338864
-0.32524
-0.317175
-0.320256
-0.321035
-0.322258
-0.32546
-0.323808
-0.332849
-0.321909
-0.340653
-0.323921
-0.318772
-0.321448
-0.322113
-0.323022
-0.326334
-0.323934
-0.334071
-0.32061
-0.342511
-0.322477
-0.320488
-0.322723
-0.323234
-0.323781
-0.327142
-0.324008
-0.335149
-0.319221
-0.344035
-0.32102
-0.322295
-0.324061
-0.324369
-0.324513
-0.327831
-0.324051
-0.335826
-0.317899
-0.345354
-0.319172
-0.324171
-0.325444
-0.325492
-0.325207
-0.328348
-0.32419
-0.336056
-0.316517
-0.346377
-0.317206
-0.326105
-0.326863
-0.326586
-0.325859
-0.328546
-0.324446
-0.335879
-0.315217
-0.346685
-0.315645
-0.32809
-0.328313
-0.327641
-0.326507
-0.328519
-0.324665
-0.335259
-0.314334
-0.345686
-0.315039
-0.33013
-0.329797
-0.328647
-0.327108
-0.328336
-0.324832
-0.334139
-0.314035
-0.34297
-0.31536
-0.33224
-0.331321
-0.329633
-0.327646
-0.328033
-0.324931
-0.332588
-0.314231
-0.338534
-0.315688
-0.33445
-0.332892
-0.33064
-0.328141
-0.327666
-0.324785
-0.330738
-0.314534
-0.332921
-0.314844
-0.336796
-0.334541
-0.331693
-0.328629
-0.327316
-0.32435
-0.328673
-0.314538
-0.326783
-0.312279
-0.339321
-0.336299
-0.332832
-0.329152
-0.327044
-0.32365
-0.326355
-0.31403
-0.320348
-0.308049
-0.342078
-0.338203
-0.334102
-0.329742
-0.326848
-0.322796
-0.323694
-0.312906
-0.31352
-0.302606
-0.345127
-0.340295
-0.335558
-0.330427
-0.326683
-0.321897
-0.320677
-0.311
-0.306335
-0.296677
-0.348523
-0.342625
-0.337248
-0.331201
-0.326522
-0.320976
-0.317376
-0.308095
-0.299398
-0.290689
-0.352313
-0.345265
-0.33921
-0.332046
-0.3264
-0.319957
-0.313862
-0.304183
-0.293061
-0.283577
-0.356571
-0.348266
-0.341443
-0.332974
-0.326369
-0.318713
-0.310152
-0.299544
-0.286655
-0.276309
-0.361361
-0.351692
-0.343905
-0.334071
-0.326414
-0.317136
-0.306232
-0.294325
-0.28022
-0.269055
-0.366746
-0.355593
-0.346542
-0.33547
-0.326437
-0.315171
-0.302054
-0.288723
-0.273663
-0.261755
-0.372792
-0.359975
-0.349362
-0.337234
-0.326312
-0.31279
-0.297602
-0.282828
-0.266974
-0.254465
-0.379574
-0.364784
-0.352489
-0.339272
-0.325938
-0.309993
-0.292859
-0.276702
-0.260158
-0.247116
-0.387162
-0.369918
-0.356131
-0.341372
-0.325239
-0.306785
-0.287823
-0.270366
-0.253204
-0.239702
-0.395594
-0.375274
-0.360471
-0.343318
-0.324144
-0.303173
-0.282488
-0.263823
-0.24611
-0.232182
-0.404842
-0.380796
-0.365537
-0.344962
-0.322584
-0.299151
-0.276843
-0.257065
-0.238856
-0.224536
-0.41478
-0.386503
-0.37113
-0.346211
-0.320498
-0.2947
-0.270875
-0.250073
-0.231424
-0.216735
-0.425173
-0.392477
-0.376847
-0.346989
-0.317835
-0.289794
-0.264561
-0.242828
-0.223792
-0.208755
-0.435685
-0.398819
-0.382194
-0.347206
-0.314552
-0.284396
-0.257875
-0.235303
-0.215934
-0.200576
-0.445995
-0.405588
-0.386713
-0.346746
-0.310613
-0.278471
-0.250784
-0.227474
-0.207829
-0.192177
-0.455802
-0.412743
-0.390061
-0.345476
-0.305976
-0.271984
-0.243257
-0.21931
-0.199454
-0.183538
-0.464851
-0.420098
-0.392026
-0.343261
-0.300596
-0.264905
-0.235263
-0.210784
-0.190787
-0.174642
-0.472943
-0.427318
-0.392514
-0.339977
-0.294422
-0.257199
-0.22677
-0.201871
-0.181809
-0.165474
-0.47992
-0.433935
-0.391518
-0.335525
-0.287402
-0.248835
-0.217751
-0.192548
-0.172499
-0.156027
-0.485656
-0.439418
-0.389068
-0.32984
-0.279481
-0.239778
-0.208181
-0.182794
-0.162841
-0.14631
-0.490045
-0.443296
-0.385137
-0.322875
-0.270612
-0.229996
-0.198036
-0.17259
-0.152824
-0.136346
-0.492987
-0.44524
-0.379603
-0.314585
-0.260754
-0.21946
-0.187298
-0.161919
-0.142434
-0.126151
-0.494374
-0.444973
-0.372374
-0.304927
-0.249871
-0.208144
-0.175951
-0.150766
-0.131663
-0.115694
-0.494074
-0.4423
-0.363394
-0.293862
-0.237937
-0.196032
-0.163982
-0.139121
-0.120523
-0.104904
-0.491928
-0.437089
-0.352615
-0.281369
-0.224931
-0.183106
-0.151375
-0.12697
-0.109054
-0.0937001
-0.487746
-0.429253
-0.339987
-0.267448
-0.210842
-0.169353
-0.138123
-0.114316
-0.0972984
-0.0820781
-0.481321
-0.418734
-0.325475
-0.252104
-0.195655
-0.154772
-0.124231
-0.101198
-0.0852232
-0.0702233
-0.472433
-0.405499
-0.309057
-0.235334
-0.179357
-0.139384
-0.109738
-0.0877047
-0.0727171
-0.0581735
-0.460872
-0.389532
-0.290727
-0.217136
-0.161961
-0.123255
-0.0947039
-0.0738076
-0.0597966
-0.0459252
-0.446443
-0.370833
-0.270476
-0.197532
-0.14356
-0.106429
-0.0790916
-0.0595145
-0.0465097
-0.0334819
-0.428988
-0.349424
-0.248292
-0.176609
-0.124289
-0.088823
-0.062941
-0.0448385
-0.0329032
-0.0208593
-0.40839
-0.325365
-0.22418
-0.154525
-0.104083
-0.0704893
-0.0462918
-0.0298036
-0.019019
-0.00808522
-0.384584
-0.298782
-0.198236
-0.13124
-0.0829963
-0.0514864
-0.0291875
-0.0144427
-0.00489732
0.00480264
-0.357561
-0.269826
-0.170648
-0.106682
-0.061087
-0.0318803
-0.0116757
0.00120465
0.00942255
0.0177597
-0.327372
-0.23852
-0.141564
-0.0809679
-0.0384232
-0.0117408
0.00618924
0.0170944
0.0239046
0.0307412
-0.294137
-0.204659
-0.111328
-0.0542397
-0.0150796
0.00885691
0.0243469
0.0331812
0.038518
0.0437034
-0.25803
-0.168533
-0.0799111
-0.0266471
0.0088568
0.0298329
0.0427325
0.0494236
0.0532308
0.0565759
-0.219144
-0.130561
-0.0473727
0.00166419
0.0332857
0.051102
0.0612808
0.0657879
0.0679881
0.0691853
-0.177477
-0.0913442
-0.013845
0.0305514
0.0580959
0.0725743
0.0799297
0.0822408
0.0826776
0.0811943
-0.1335
-0.0510503
0.0204919
0.0598714
0.0831679
0.0941568
0.0986186
0.0987231
0.0971243
0.0923125
-0.0875744
-0.00987441
0.0554329
0.0894745
0.108376
0.115754
0.117279
0.115124
0.111164
0.102858
-0.0400818
0.0319451
0.0907582
0.119204
0.133588
0.137269
0.135827
0.131303
0.124743
0.114149
0.00857416
0.0741436
0.126238
0.148895
0.158672
0.1586
0.154166
0.147148
0.138066
0.125971
0.0579731
0.116439
0.161638
0.178378
0.183492
0.179642
0.172199
0.162627
0.151181
0.137837
0.107683
0.158539
0.19672
0.207478
0.207909
0.200287
0.189832
0.177695
0.164035
0.149569
0.157265
0.200143
0.231246
0.23602
0.231784
0.220423
0.206976
0.192304
0.176555
0.160985
0.206279
0.240951
0.26498
0.263826
0.254981
0.239941
0.223545
0.206396
0.188673
0.171989
0.254287
0.280663
0.297689
0.290721
0.277362
0.258732
0.239456
0.219911
0.200321
0.1825
0.300859
0.318986
0.329147
0.316532
0.298792
0.276689
0.254626
0.232784
0.211437
0.192461
0.345574
0.355641
0.359135
0.341092
0.319143
0.29371
0.268977
0.244952
0.221959
0.20182
0.388023
0.390368
0.387445
0.364239
0.338287
0.309696
0.282431
0.256355
0.23183
0.210536
0.42783
0.422909
0.413878
0.385819
0.356106
0.324551
0.294916
0.266932
0.240995
0.21857
0.464696
0.452977
0.438246
0.405685
0.372487
0.33819
0.306363
0.276628
0.249402
0.225889
0.498325
0.480314
0.460372
0.423702
0.387326
0.350529
0.316708
0.285392
0.257005
0.232461
0.528426
0.504704
0.480097
0.439746
0.400528
0.361495
0.325895
0.293174
0.263758
0.23826
0.554736
0.525961
0.497277
0.453708
0.412008
0.371022
0.333869
0.29993
0.269623
0.243265
0.577023
0.543925
0.511789
0.465492
0.421691
0.379052
0.340587
0.305621
0.274565
0.247459
0.595094
0.558461
0.523526
0.475017
0.429515
0.385535
0.346009
0.310215
0.278554
0.250827
0.608787
0.569459
0.532405
0.482219
0.435427
0.390433
0.350103
0.313685
0.281567
0.253359
0.617984
0.576837
0.53836
0.487048
0.439391
0.393715
0.352846
0.31601
0.283586
0.25505
0.622603
0.58054
0.541348
0.489471
0.441379
0.395362
0.354221
0.317175
0.284599
0.255896
0.622603
0.58054
0.541348
0.489471
0.441379
0.395362
0.354221
0.317175
0.284599
0.255896
0.617984
0.576837
0.53836
0.487048
0.439391
0.393715
0.352846
0.31601
0.283586
0.25505
0.608787
0.569459
0.532405
0.482219
0.435427
0.390433
0.350103
0.313685
0.281567
0.253359
0.595094
0.558461
0.523526
0.475017
0.429515
0.385535
0.346009
0.310215
0.278554
0.250827
0.577023
0.543925
0.511789
0.465492
0.421691
0.379052
0.340587
0.305621
0.274565
0.247459
0.554736
0.525961
0.497277
0.453708
0.412008
0.371022
0.333869
0.29993
0.269623
0.243265
0.528426
0.504704
0.480097
0.439746
0.400528
0.361495
0.325895
0.293174
0.263758
0.23826
0.498325
0.480314
0.460372
0.423702
0.387326
0.350529
0.316708
0.285392
0.257005
0.232461
0.464696
0.452977
0.438246
0.405685
0.372487
0.33819
0.306363
0.276628
0.249402
0.225889
0.42783
0.422909
0.413878
0.385819
0.356106
0.324551
0.294916
0.266932
0.240995
0.21857
0.388023
0.390368
0.387445
0.364239
0.338287
0.309696
0.282431
0.256355
0.23183
0.210536
0.345574
0.355641
0.359135
0.341092
0.319143
0.29371
0.268977
0.244952
0.221959
0.20182
0.300859
0.318986
0.329147
0.316532
0.298792
0.276689
0.254626
0.232784
0.211437
0.192461
0.254287
0.280663
0.297689
0.290721
0.277362
0.258732
0.239456
0.219911
0.200321
0.1825
0.206279
0.240951
0.26498
0.263826
0.254981
0.239941
0.223545
0.206396
0.188673
0.171989
0.157265
0.200143
0.231246
0.23602
0.231784
0.220423
0.206976
0.192304
0.176555
0.160985
0.107683
0.158539
0.19672
0.207478
0.207909
0.200287
0.189832
0.177695
0.164035
0.149569
0.0579731
0.116439
0.161638
0.178378
0.183492
0.179642
0.172199
0.162627
0.151181
0.137837
0.00857416
0.0741436
0.126238
0.148895
0.158672
0.1586
0.154166
0.147148
0.138066
0.125971
-0.0400818
0.0319451
0.0907582
0.119204
0.133588
0.137269
0.135827
0.131303
0.124743
0.114149
-0.0875744
-0.00987442
0.0554329
0.0894745
0.108376
0.115754
0.117279
0.115124
0.111164
0.102858
-0.1335
-0.0510503
0.0204919
0.0598714
0.0831679
0.0941568
0.0986186
0.0987231
0.0971243
0.0923125
-0.177477
-0.0913442
-0.013845
0.0305514
0.0580959
0.0725743
0.0799297
0.0822408
0.0826776
0.0811943
-0.219144
-0.130561
-0.0473727
0.00166418
0.0332857
0.051102
0.0612808
0.0657879
0.0679881
0.0691853
-0.25803
-0.168533
-0.0799111
-0.0266471
0.00885679
0.0298329
0.0427325
0.0494236
0.0532308
0.0565759
-0.294137
-0.204659
-0.111328
-0.0542397
-0.0150796
0.0088569
0.0243469
0.0331812
0.038518
0.0437034
-0.327372
-0.23852
-0.141564
-0.0809679
-0.0384232
-0.0117408
0.00618923
0.0170944
0.0239046
0.0307412
-0.357561
-0.269826
-0.170648
-0.106682
-0.061087
-0.0318803
-0.0116757
0.00120464
0.00942255
0.0177597
-0.384584
-0.298782
-0.198236
-0.13124
-0.0829963
-0.0514864
-0.0291875
-0.0144427
-0.00489732
0.00480263
-0.40839
-0.325365
-0.22418
-0.154525
-0.104083
-0.0704893
-0.0462918
-0.0298036
-0.019019
-0.00808522
-0.428988
-0.349424
-0.248292
-0.176609
-0.124289
-0.088823
-0.062941
-0.0448385
-0.0329032
-0.0208593
-0.446443
-0.370833
-0.270476
-0.197532
-0.14356
-0.106429
-0.0790917
-0.0595145
-0.0465097
-0.0334819
-0.460872
-0.389532
-0.290727
-0.217136
-0.161961
-0.123255
-0.0947039
-0.0738076
-0.0597966
-0.0459252
-0.472433
-0.405499
-0.309057
-0.235334
-0.179357
-0.139384
-0.109738
-0.0877048
-0.0727171
-0.0581735
-0.481321
-0.418734
-0.325475
-0.252104
-0.195655
-0.154772
-0.124231
-0.101198
-0.0852232
-0.0702233
-0.487746
-0.429253
-0.339987
-0.267448
-0.210842
-0.169353
-0.138123
-0.114316
-0.0972984
-0.0820781
-0.491928
-0.437089
-0.352615
-0.281369
-0.224931
-0.183106
-0.151375
-0.12697
-0.109054
-0.0937001
-0.494074
-0.4423
-0.363394
-0.293863
-0.237937
-0.196032
-0.163982
-0.139121
-0.120523
-0.104904
-0.494374
-0.444973
-0.372374
-0.304927
-0.249871
-0.208144
-0.175951
-0.150766
-0.131663
-0.115694
-0.492987
-0.44524
-0.379603
-0.314585
-0.260754
-0.21946
-0.187298
-0.161919
-0.142434
-0.126151
-0.490045
-0.443296
-0.385137
-0.322875
-0.270612
-0.229996
-0.198036
-0.17259
-0.152824
-0.136346
-0.485656
-0.439418
-0.389068
-0.32984
-0.279481
-0.239778
-0.208181
-0.182794
-0.162841
-0.14631
-0.47992
-0.433935
-0.391518
-0.335525
-0.287402
-0.248835
-0.217751
-0.192548
-0.172499
-0.156027
-0.472943
-0.427318
-0.392514
-0.339977
-0.294422
-0.257199
-0.22677
-0.201871
-0.181809
-0.165474
-0.464851
-0.420098
-0.392026
-0.343261
-0.300596
-0.264905
-0.235263
-0.210784
-0.190787
-0.174642
-0.455802
-0.412743
-0.390061
-0.345476
-0.305976
-0.271984
-0.243257
-0.21931
-0.199454
-0.183538
-0.445995
-0.405588
-0.386713
-0.346746
-0.310613
-0.278471
-0.250784
-0.227474
-0.207829
-0.192177
-0.435685
-0.398819
-0.382194
-0.347206
-0.314552
-0.284396
-0.257875
-0.235303
-0.215934
-0.200576
-0.425173
-0.392477
-0.376847
-0.346989
-0.317835
-0.289794
-0.264561
-0.242828
-0.223792
-0.208755
-0.41478
-0.386503
-0.37113
-0.346211
-0.320498
-0.2947
-0.270875
-0.250073
-0.231424
-0.216735
-0.404842
-0.380796
-0.365537
-0.344962
-0.322584
-0.299151
-0.276843
-0.257065
-0.238856
-0.224536
-0.395594
-0.375274
-0.360471
-0.343318
-0.324144
-0.303173
-0.282488
-0.263823
-0.24611
-0.232182
-0.387162
-0.369918
-0.356131
-0.341372
-0.325239
-0.306785
-0.287823
-0.270366
-0.253204
-0.239702
-0.379574
-0.364784
-0.352489
-0.339272
-0.325938
-0.309993
-0.292859
-0.276702
-0.260158
-0.247116
-0.372792
-0.359975
-0.349362
-0.337234
-0.326312
-0.31279
-0.297602
-0.282828
-0.266974
-0.254465
-0.366746
-0.355593
-0.346542
-0.33547
-0.326437
-0.315171
-0.302054
-0.288723
-0.273664
-0.261755
-0.361361
-0.351692
-0.343905
-0.334071
-0.326414
-0.317136
-0.306232
-0.294325
-0.28022
-0.269055
-0.356571
-0.348266
-0.341443
-0.332974
-0.326369
-0.318713
-0.310152
-0.299544
-0.286655
-0.276309
-0.352313
-0.345265
-0.33921
-0.332046
-0.3264
-0.319957
-0.313862
-0.304183
-0.293061
-0.283577
-0.348523
-0.342625
-0.337248
-0.331201
-0.326522
-0.320976
-0.317376
-0.308095
-0.299398
-0.290689
-0.345127
-0.340295
-0.335558
-0.330427
-0.326683
-0.321897
-0.320677
-0.311
-0.306335
-0.296677
-0.342078
-0.338203
-0.334102
-0.329742
-0.326848
-0.322796
-0.323694
-0.312906
-0.31352
-0.302606
-0.339321
-0.336299
-0.332832
-0.329152
-0.327044
-0.32365
-0.326355
-0.31403
-0.320348
-0.308049
-0.336796
-0.334541
-0.331693
-0.328629
-0.327316
-0.32435
-0.328673
-0.314538
-0.326783
-0.312279
-0.33445
-0.332892
-0.33064
-0.328141
-0.327666
-0.324785
-0.330738
-0.314534
-0.332921
-0.314844
-0.33224
-0.331321
-0.329633
-0.327646
-0.328033
-0.324931
-0.332588
-0.314231
-0.338534
-0.315688
-0.33013
-0.329797
-0.328647
-0.327108
-0.328336
-0.324832
-0.334139
-0.314035
-0.34297
-0.31536
-0.32809
-0.328313
-0.327641
-0.326507
-0.328519
-0.324665
-0.335259
-0.314334
-0.345686
-0.315039
-0.326105
-0.326863
-0.326586
-0.325859
-0.328546
-0.324446
-0.335879
-0.315217
-0.346685
-0.315645
-0.324171
-0.325444
-0.325492
-0.325207
-0.328348
-0.32419
-0.336056
-0.316517
-0.346377
-0.317206
-0.322295
-0.324061
-0.324369
-0.324513
-0.327831
-0.324051
-0.335826
-0.317899
-0.345354
-0.319172
-0.320488
-0.322723
-0.323234
-0.323781
-0.327142
-0.324008
-0.335149
-0.319221
-0.344035
-0.32102
-0.318772
-0.321448
-0.322113
-0.323022
-0.326334
-0.323934
-0.334071
-0.32061
-0.342511
-0.322477
-0.317175
-0.320256
-0.321035
-0.322258
-0.32546
-0.323808
-0.332849
-0.321909
-0.340653
-0.323921
-0.315725
-0.31917
-0.320031
-0.321514
-0.32458
-0.323632
-0.33159
-0.322973
-0.338864
-0.32524
-0.314455
-0.318215
-0.319133
-0.320823
-0.323749
-0.323417
-0.330389
-0.323797
-0.337242
-0.326325
-0.313395
-0.317416
-0.318372
-0.320219
-0.323021
-0.323188
-0.329329
-0.3244
-0.335847
-0.327211
-0.312573
-0.316794
-0.317774
-0.319733
-0.322436
-0.322976
-0.328478
-0.324809
-0.33474
-0.327901
-0.312011
-0.316369
-0.317362
-0.319392
-0.322027
-0.322812
-0.327885
-0.325056
-0.333974
-0.328377
-0.311726
-0.316153
-0.317151
-0.319217
-0.321818
-0.322723
-0.327582
-0.32517
-0.333582
-0.32862
-0.341439
-0.339674
-0.351143
-0.355911
-0.363622
-0.363563
-0.354227
-0.327805
-0.282582
-0.21563
-0.136977
-0.0640261
-0.0130288
0.0164907
0.0280985
0.0297752
0.0263747
0.02133
0.0162029
0.0116733
0.0080691
0.00545264
0.0036192
0.00228448
0.00129947
0.000694384
0.000406137
0.00042805
0.000322997
0.000334571
-0.341626
-0.339736
-0.351218
-0.35612
-0.36396
-0.364124
-0.355014
-0.328822
-0.283831
-0.216965
-0.138169
-0.0649366
-0.0136734
0.0160453
0.0277949
0.0295655
0.0262319
0.0212333
0.0161381
0.0116287
0.00803735
0.00543027
0.00360428
0.00227454
0.00129208
0.000687986
0.000400634
0.000423574
0.000319878
0.000332813
-0.341948
-0.339824
-0.351332
-0.35648
-0.364566
-0.365146
-0.35647
-0.33072
-0.286179
-0.219503
-0.140482
-0.0667027
-0.0149595
0.0151445
0.0271768
0.029138
0.0259412
0.0210367
0.0160066
0.0115387
0.00797358
0.00538545
0.00357436
0.00225459
0.00127739
0.000675394
0.000389851
0.000414788
0.00031376
0.000329309
-0.342317
-0.339869
-0.351423
-0.356886
-0.365312
-0.366455
-0.358383
-0.333262
-0.289366
-0.222997
-0.143735
-0.069283
-0.0168814
0.0137726
0.0262261
0.0284789
0.0254936
0.0207348
0.0158054
0.0114019
0.00787733
0.00531804
0.00352926
0.00222458
0.00125555
0.000656995
0.000374218
0.000402001
0.000304867
0.00032409
-0.342637
-0.339799
-0.351422
-0.357215
-0.366041
-0.36784
-0.360509
-0.336154
-0.293083
-0.227232
-0.147683
-0.0726048
-0.0194124
0.0119115
0.0249233
0.0275731
0.024879
0.0203214
0.0155308
0.0112165
0.00774809
0.00522792
0.00346884
0.00218442
0.00122678
0.000633307
0.000354312
0.000385642
0.000293507
0.000317204
-0.342771
-0.33957
-0.351234
-0.35737
-0.366591
-0.369097
-0.362581
-0.33913
-0.297047
-0.231733
-0.152284
-0.076559
-0.0225313
0.00955996
0.023253
0.0264084
0.0240887
0.0197914
0.0151795
0.0109809
0.00758553
0.00511509
0.00339295
0.00213405
0.00119133
0.00060492
0.0003308
0.000366215
0.000280046
0.000308722
-0.342856
-0.339044
-0.350895
-0.357204
-0.366868
-0.370037
-0.364424
-0.341894
-0.300901
-0.236504
-0.157233
-0.0810498
-0.0262028
0.00672944
0.0212088
0.0249803
0.0231189
0.0191417
0.0147495
0.0106944
0.00738964
0.00497975
0.0033016
0.00207343
0.00114946
0.000572437
0.000304369
0.000344258
0.000264879
0.000298738
-0.342298
-0.338591
-0.350115
-0.356848
-0.366689
-0.370561
-0.365768
-0.344315
-0.304528
-0.241179
-0.162412
-0.0859769
-0.0303736
0.00343723
0.0188036
0.0232929
0.0219707
0.0183725
0.0142408
0.010357
0.00716085
0.00482233
0.00319494
0.00200266
0.00110142
0.000536418
0.00027567
0.000320302
0.000248395
0.000287373
-0.341567
-0.337902
-0.349134
-0.356102
-0.366093
-0.370556
-0.366596
-0.346201
-0.307703
-0.245649
-0.167664
-0.0912398
-0.0349818
-0.000276718
0.0160589
0.0213589
0.0206507
0.0174877
0.013655
0.00996978
0.00690012
0.00464359
0.00307335
0.00192188
0.00104746
0.000497337
0.000245264
0.000294833
0.000230956
0.000274772
-0.340405
-0.337092
-0.347864
-0.355022
-0.36503
-0.369989
-0.366803
-0.347457
-0.310318
-0.24976
-0.172871
-0.0967419
-0.0399571
-0.00436287
0.0130065
0.019197
0.0191704
0.0164941
0.0129962
0.00953496
0.00660891
0.00444455
0.00293742
0.00183139
0.000987818
0.000455563
0.000213598
0.000268271
0.000212877
0.000261103
-0.33865
-0.336152
-0.346325
-0.353583
-0.363502
-0.368837
-0.366339
-0.348038
-0.31227
-0.253416
-0.17793
-0.102392
-0.0452249
-0.00876374
0.00968595
0.0168309
0.0175453
0.0154012
0.0122698
0.00905562
0.00628911
0.00422649
0.00278794
0.00173161
0.000922709
0.000411355
0.00018099
0.000240951
0.000194418
0.000246552
-0.33611
-0.334997
-0.344466
-0.351791
-0.361497
-0.367077
-0.365174
-0.347889
-0.313529
-0.256535
-0.182762
-0.108106
-0.0507102
-0.0134181
0.00614039
0.0142883
0.015793
0.0142198
0.0114822
0.00853545
0.00594291
0.00399089
0.00262588
0.00162305
0.000852367
0.000364873
0.000147634
0.000213123
0.000175776
0.000231315
-0.332806
-0.333466
-0.342262
-0.349583
-0.358991
-0.364692
-0.3633
-0.34701
-0.314062
-0.259066
-0.187302
-0.11381
-0.0563405
-0.0182647
0.002414
0.0115986
0.0139322
0.0129614
0.0106405
0.00797852
0.00557269
0.00373928
0.00245231
0.00150633
0.000777037
0.000316199
0.000113619
0.000184956
0.000157089
0.000215592
-0.329148
-0.331309
-0.339628
-0.3469
-0.355953
-0.361672
-0.360706
-0.345396
-0.313892
-0.260979
-0.191502
-0.119442
-0.0620494
-0.0232457
-0.00145069
0.00879084
0.0119807
0.0116373
0.00975185
0.00738902
0.00518087
0.00347327
0.00226837
0.00138213
0.000696983
0.000265365
7.89535e-05
0.000156547
0.000138443
0.000199579
-0.325272
-0.328513
-0.336468
-0.343675
-0.352348
-0.358017
-0.357421
-0.343079
-0.313027
-0.262331
-0.195333
-0.124948
-0.067778
-0.0283081
-0.00541438
0.00589145
0.0099552
0.0102576
0.0088229
0.00677102
0.00476984
0.0031944
0.00207519
0.00125116
0.000612492
0.000212371
4.35871e-05
0.000127937
0.000119883
0.000183466
-0.32126
-0.325029
-0.332707
-0.339886
-0.348181
-0.353723
-0.353444
-0.340077
-0.311532
-0.263144
-0.198784
-0.130286
-0.0734746
-0.0334064
-0.00944427
0.00292284
0.00787178
0.00883162
0.00785938
0.00612807
0.00434172
0.00290406
0.00187382
0.00111413
0.000523873
0.000157219
7.44e-06
9.91232e-05
0.00010142
0.000167426
-0.316926
-0.320926
-0.328349
-0.335501
-0.343495
-0.348944
-0.348961
-0.336556
-0.309536
-0.263519
-0.201869
-0.135433
-0.0791106
-0.0385121
-0.013514
-9.17025e-05
0.00574631
0.0073713
0.00686801
0.00546384
0.00389858
0.00260362
0.00166537
0.000971813
0.000431526
9.99407e-05
-2.95778e-05
7.0069e-05
8.30374e-05
0.00015161
-0.312296
-0.316218
-0.323535
-0.3307
-0.338259
-0.343459
-0.343755
-0.332384
-0.307007
-0.263492
-0.204644
-0.140355
-0.0846246
-0.043558
-0.0175714
-0.00312461
0.00358134
0.00588121
0.00585712
0.00478415
0.00344378
0.00229499
0.0014511
0.000825031
0.000335805
4.05515e-05
-6.75483e-05
4.07338e-05
6.47007e-05
0.00013613
-0.307557
-0.311089
-0.318149
-0.325424
-0.333011
-0.338263
-0.338765
-0.328276
-0.304375
-0.263169
-0.207014
-0.144945
-0.0899495
-0.0485506
-0.0216675
-0.00622775
0.00135511
0.00432251
0.00480796
0.00408208
0.00297481
0.00197705
0.00123007
0.000672891
0.000236085
-2.11786e-05
-0.000106527
1.11397e-05
4.63832e-05
0.000121107
-0.302971
-0.3054
-0.312058
-0.319249
-0.326373
-0.331267
-0.332151
-0.322991
-0.301153
-0.262942
-0.209978
-0.150169
-0.0959318
-0.0540061
-0.026012
-0.00942379
-0.000886792
0.00275661
0.00371406
0.00334135
0.00247995
0.00164366
0.000999974
0.000515293
0.000133109
-8.48959e-05
-0.00014647
-1.86892e-05
2.80948e-05
0.000106836
-0.29765
-0.301034
-0.307481
-0.314849
-0.322146
-0.327231
-0.327687
-0.318614
-0.297175
-0.25998
-0.208614
-0.150605
-0.0976466
-0.0563634
-0.0284122
-0.011533
-0.00257772
0.00149995
0.00282381
0.00272294
0.00205009
0.00134362
0.000793649
0.000377022
4.26574e-05
-0.000144265
-0.000185116
-4.74932e-05
1.1026e-05
9.45921e-05
-0.291784
-0.295821
-0.302216
-0.309613
-0.316447
-0.3207
-0.320809
-0.311546
-0.290422
-0.254473
-0.205263
-0.149753
-0.0987288
-0.0584918
-0.0307966
-0.0137158
-0.00435919
0.000135902
0.00182247
0.00201266
0.00156066
0.00101028
0.000565446
0.000222087
-5.80282e-05
-0.000206519
-0.000222802
-7.47501e-05
-4.57682e-06
8.261e-05
-0.285624
-0.290123
-0.29647
-0.303859
-0.3104
-0.314249
-0.313729
-0.304295
-0.283549
-0.248903
-0.201857
-0.148821
-0.099723
-0.0605655
-0.0331786
-0.0159368
-0.00620395
-0.00129855
0.000755846
0.00124907
0.00103127
0.000648591
0.000317031
5.26813e-05
-0.00016841
-0.000274234
-0.000263026
-0.000103345
-2.08135e-05
7.01007e-05
-0.279161
-0.284107
-0.290396
-0.297747
-0.304028
-0.307425
-0.306398
-0.296871
-0.276582
-0.243289
-0.198418
-0.147847
-0.100679
-0.0626191
-0.0355647
-0.0181831
-0.00808647
-0.00277158
-0.000344394
0.000458018
0.000480066
0.000270306
5.67693e-05
-0.000124916
-0.000284512
-0.00034598
-0.000305876
-0.000133544
-3.7878e-05
5.73403e-05
-0.272327
-0.277814
-0.284051
-0.291323
-0.297339
-0.300294
-0.298826
-0.289267
-0.269499
-0.237599
-0.194911
-0.146799
-0.101571
-0.0646368
-0.0379476
-0.020452
-0.010005
-0.00428324
-0.00147991
-0.000362624
-9.44478e-05
-0.000125341
-0.000215775
-0.000311064
-0.00040659
-0.000421919
-0.000351488
-0.000165437
-5.57953e-05
4.43784e-05
-0.265178
-0.271283
-0.277479
-0.284635
-0.290395
-0.292957
-0.291092
-0.281551
-0.262358
-0.231876
-0.191359
-0.145679
-0.102392
-0.0666063
-0.0403168
-0.0227363
-0.0119562
-0.0058332
-0.00265219
-0.00121486
-0.000694061
-0.000539707
-0.00050164
-0.000506549
-0.000535159
-0.00050233
-0.00039999
-0.000199088
-7.46017e-05
3.12398e-05
-0.257794
-0.264549
-0.270723
-0.277736
-0.283259
-0.285475
-0.283266
-0.273792
-0.255218
-0.226162
-0.187786
-0.144497
-0.103137
-0.0685184
-0.0426622
-0.0250273
-0.0139341
-0.00741805
-0.00385945
-0.00209794
-0.00131862
-0.000972942
-0.000801025
-0.000711516
-0.000670318
-0.00058732
-0.000451486
-0.000234565
-9.43498e-05
1.79693e-05
-0.250228
-0.257642
-0.263818
-0.270672
-0.275978
-0.277896
-0.275403
-0.266043
-0.248126
-0.220489
-0.184209
-0.143257
-0.103804
-0.0703648
-0.0449742
-0.0273166
-0.0159324
-0.0090336
-0.00509913
-0.00301042
-0.00196748
-0.00142483
-0.00111386
-0.00092591
-0.000812038
-0.000676927
-0.000506057
-0.000271927
-0.000115088
4.61875e-06
-0.242533
-0.25059
-0.256794
-0.263479
-0.26859
-0.270261
-0.267546
-0.258347
-0.241116
-0.214884
-0.180645
-0.141963
-0.104387
-0.0721375
-0.0472435
-0.0295957
-0.0179446
-0.0106754
-0.00636849
-0.00395078
-0.0026399
-0.00189507
-0.00144001
-0.00114966
-0.000960273
-0.00077117
-0.000563762
-0.000311215
-0.000136856
-8.76163e-06
-0.23476
-0.24342
-0.249678
-0.256194
-0.261127
-0.262605
-0.259732
-0.250735
-0.234214
-0.209365
-0.177103
-0.14062
-0.104886
-0.0738297
-0.0494615
-0.0318562
-0.0199639
-0.0123388
-0.00766452
-0.00491726
-0.00333495
-0.00238325
-0.0017793
-0.00138265
-0.00111495
-0.000870029
-0.00062463
-0.00035245
-0.000159683
-2.21235e-05
-0.226959
-0.236164
-0.242501
-0.248851
-0.253621
-0.254956
-0.251989
-0.243233
-0.227441
-0.203947
-0.173595
-0.139232
-0.105299
-0.0754353
-0.0516199
-0.0340897
-0.0219834
-0.0140186
-0.00898374
-0.00590771
-0.00405142
-0.00288873
-0.00213137
-0.00162466
-0.00127592
-0.000973439
-0.000688656
-0.000395628
-0.000183587
-3.54205e-05
-0.219178
-0.228857
-0.235291
-0.241484
-0.246106
-0.247343
-0.244343
-0.235865
-0.220814
-0.198643
-0.170128
-0.137803
-0.105624
-0.0769492
-0.0537109
-0.0362878
-0.0239956
-0.0157091
-0.0103222
-0.0069196
-0.00478778
-0.00341063
-0.00249574
-0.00187538
-0.00144298
-0.00108128
-0.000755793
-0.000440719
-0.00020857
-4.86077e-05
-0.211467
-0.221533
-0.228079
-0.234128
-0.238613
-0.239792
-0.236815
-0.228649
-0.214347
-0.193464
-0.166711
-0.13634
-0.105863
-0.0783668
-0.0557271
-0.0384422
-0.0259928
-0.0174042
-0.0116756
-0.00794994
-0.00554212
-0.0039478
-0.00287169
-0.00213437
-0.00161583
-0.00119337
-0.000825952
-0.000487659
-0.000234616
-6.16425e-05
-0.203871
-0.214232
-0.220897
-0.226819
-0.231176
-0.23233
-0.229429
-0.221605
-0.208054
-0.188419
-0.163352
-0.134846
-0.106016
-0.0796847
-0.0576616
-0.0405444
-0.027967
-0.0190973
-0.0130389
-0.00899525
-0.00631213
-0.00449876
-0.00325831
-0.00240102
-0.00179409
-0.00130944
-0.000898988
-0.000536349
-0.000261686
-7.44837e-05
-0.196432
-0.206991
-0.213777
-0.219591
-0.223829
-0.224986
-0.222205
-0.21475
-0.201947
-0.183519
-0.160058
-0.133329
-0.106085
-0.0809003
-0.0595082
-0.0425864
-0.0299099
-0.0207813
-0.0144064
-0.0100515
-0.00709504
-0.0050617
-0.00365442
-0.00267456
-0.00197724
-0.00142917
-0.000974698
-0.000586648
-0.000289719
-8.70916e-05
-0.18919
-0.199852
-0.206752
-0.212477
-0.216606
-0.217787
-0.215166
-0.208102
-0.19604
-0.178773
-0.156839
-0.131796
-0.106074
-0.0820119
-0.0612609
-0.0445599
-0.0318128
-0.0224483
-0.0157721
-0.011114
-0.00788757
-0.00563437
-0.00405854
-0.00295402
-0.00216463
-0.0015521
-0.00105281
-0.000638371
-0.000318624
-9.94277e-05
-0.182181
-0.192854
-0.19986
-0.205514
-0.209544
-0.210764
-0.208335
-0.201679
-0.190346
-0.174191
-0.153703
-0.130255
-0.105987
-0.0830189
-0.0629146
-0.0464571
-0.0336668
-0.0240901
-0.017129
-0.0121776
-0.00868584
-0.00621407
-0.00446884
-0.00323816
-0.00235544
-0.00167768
-0.00113297
-0.000691281
-0.000348277
-0.000111453
-0.175437
-0.186042
-0.193136
-0.198736
-0.20268
-0.20395
-0.201734
-0.195499
-0.18488
-0.169785
-0.150661
-0.128714
-0.105829
-0.0839216
-0.0644647
-0.0482703
-0.0354628
-0.0256979
-0.0184696
-0.0132362
-0.00948538
-0.0067976
-0.00488313
-0.0035255
-0.00254868
-0.00180523
-0.00121474
-0.000745084
-0.000378521
-0.000123129
-0.168993
-0.179458
-0.18662
-0.192181
-0.196053
-0.19738
-0.195391
-0.189583
-0.179658
-0.165569
-0.147724
-0.127185
-0.105608
-0.0847216
-0.0659071
-0.0499919
-0.0371913
-0.0272621
-0.0197855
-0.014283
-0.010281
-0.00738118
-0.00529875
-0.00381422
-0.00274313
-0.00193392
-0.00129758
-0.000799425
-0.000409157
-0.000134415
-0.162879
-0.173147
-0.180354
-0.185885
-0.189701
-0.19109
-0.189333
-0.183953
-0.174696
-0.161555
-0.144905
-0.125679
-0.105332
-0.0854214
-0.0672388
-0.051615
-0.0388429
-0.0287729
-0.0210678
-0.0153105
-0.0110668
-0.00796043
-0.0057126
-0.00410218
-0.00293735
-0.00206276
-0.00138083
-0.000853877
-0.000439944
-0.000145267
-0.157126
-0.167149
-0.174378
-0.179888
-0.183665
-0.185117
-0.183591
-0.17863
-0.170013
-0.15776
-0.142218
-0.124208
-0.105009
-0.0860246
-0.0684573
-0.0531326
-0.0404078
-0.0302196
-0.0223064
-0.0163103
-0.0118361
-0.00853027
-0.00612104
-0.00438685
-0.00312961
-0.00219057
-0.00146371
-0.000907938
-0.00047059
-0.000155634
-0.151764
-0.161509
-0.168736
-0.174232
-0.177983
-0.179501
-0.178198
-0.173642
-0.165631
-0.154203
-0.139679
-0.122787
-0.104651
-0.0865362
-0.0695609
-0.0545381
-0.0418762
-0.031591
-0.0234907
-0.017273
-0.0125813
-0.00908491
-0.00651985
-0.00466526
-0.0033179
-0.00231597
-0.0015453
-0.000961019
-0.000500755
-0.000165461
-0.146824
-0.156268
-0.163473
-0.168959
-0.172699
-0.174282
-0.173191
-0.169017
-0.161571
-0.150902
-0.137307
-0.121431
-0.10427
-0.0869618
-0.0705487
-0.055825