/*--------------------------------*- C++ -*----------------------------------*\
  =========                 |
  \\      /  F ield         | OpenFOAM: The Open Source CFD Toolbox
   \\    /   O peration     | Website:  https://openfoam.org
    \\  /    A nd           | Version:  9
     \\/     M anipulation  |
\*---------------------------------------------------------------------------*/
FoamFile
{
    format      ascii;
    class       volVectorField;
    location    "9.6";
    object      U;
}
// * * * * * * * * * * * * * * * * * * * * * * * * * * * * * * * * * * * * * //

dimensions      [0 1 -1 0 0 0 0];

internalField   nonuniform List<vector> 
8500
(
(-0.0106253 0.00412841 0)
(-0.0458469 0.00697668 -7.24255e-23)
(-0.0958737 0.00798931 -3.99189e-24)
(-0.14256 0.00828874 7.6646e-37)
(-0.191167 0.00857106 -1.15618e-23)
(-0.235883 0.00858647 9.62703e-24)
(-0.286371 0.00938571 -6.76049e-23)
(-0.32755 0.00859467 -1.08356e-22)
(-0.380774 0.0104099 -1.02507e-22)
(-0.419354 0.00823925 -5.44638e-24)
(-0.0109181 0.0122548 2.0826e-22)
(-0.0456678 0.0207605 6.77041e-23)
(-0.0946253 0.0237961 2.73251e-22)
(-0.139902 0.0246843 0)
(-0.186819 0.0255086 0)
(-0.228935 0.0255154 1.98544e-23)
(-0.276926 0.0278703 5.10272e-23)
(-0.313348 0.0254341 1.15786e-22)
(-0.362826 0.0308443 7.67998e-23)
(-0.393974 0.0242501 2.18156e-23)
(-0.0114898 0.0199971 -1.85055e-22)
(-0.0453279 0.0340417 0)
(-0.0921957 0.0390913 -2.57075e-22)
(-0.134705 0.040539 0)
(-0.178333 0.0418355 -4.63491e-23)
(-0.215364 0.0417282 3.85928e-23)
(-0.25858 0.0454945 0)
(-0.285767 0.0412641 0)
(-0.328262 0.0501448 0)
(-0.345385 0.0389298 0)
(-0.0123135 0.0271238 3.73106e-22)
(-0.0448632 0.0465052 -2.72304e-22)
(-0.0887148 0.0535469 -6.46126e-23)
(-0.127203 0.0555075 -4.06206e-22)
(-0.166106 0.0571542 -4.14035e-22)
(-0.1958 0.0567983 3.98698e-23)
(-0.232351 0.0616864 -3.32892e-23)
(-0.246344 0.0555303 4.02561e-22)
(-0.279484 0.067629 -2.07339e-24)
(-0.277469 0.0516021 4.4272e-22)
(-0.0133527 0.0334374 -3.73105e-22)
(-0.0443242 0.0578649 -3.52786e-22)
(-0.0843662 0.0668545 9.7412e-23)
(-0.117727 0.0692665 5.42936e-22)
(-0.150687 0.0710818 -4.67033e-23)
(-0.171129 0.0703643 6.25738e-22)
(-0.199601 0.0758803 0)
(-0.197152 0.0678107 -4.62299e-22)
(-0.219552 0.0827155 -1.0466e-22)
(-0.195066 0.0618515 -6.17864e-22)
(-0.0145644 0.038786 9.43743e-23)
(-0.0437725 0.0678744 5.86095e-22)
(-0.0793748 0.0787318 -4.55426e-22)
(-0.106688 0.0815221 -9.90469e-25)
(-0.132727 0.083257 -4.19327e-22)
(-0.142433 0.0821395 1.57736e-22)
(-0.161892 0.0875255 -6.68719e-23)
(-0.140598 0.0778212 5.79243e-22)
(-0.151771 0.094882 -1.00471e-22)
(-0.10313 0.069705 3.5275e-22)
(-0.015904 0.0430698 4.73406e-23)
(-0.0432767 0.0763352 0)
(-0.0739893 0.0889271 -2.05903e-24)
(-0.0945534 0.0920173 0)
(-0.112922 0.0933489 7.41503e-22)
(-0.110919 0.091918 -6.25752e-22)
(-0.120809 0.0960805 0)
(-0.0792227 0.0854443 -2.38757e-24)
(-0.0793801 0.103435 0)
(-0.00576483 0.075595 0)
(-0.0173296 0.0462454 -7.65256e-22)
(-0.0429079 0.0831037 -7.92201e-23)
(-0.0684628 0.0972274 5.88142e-22)
(-0.0818172 0.100535 1.10698e-22)
(-0.0919468 0.101064 -7.46041e-22)
(-0.0778344 0.099603 -4.66292e-22)
(-0.0777497 0.100987 -6.69667e-23)
(-0.0153747 0.0906992 5.70708e-22)
(-0.00573583 0.107884 -1.00118e-22)
(0.0951127 0.0791382 9.11368e-23)
(-0.0188069 0.0483257 8.61562e-22)
(-0.0427341 0.0880958 -6.357e-22)
(-0.0630318 0.103467 -1.97536e-22)
(-0.0689634 0.106904 1.09182e-22)
(-0.0703824 0.106154 7.44532e-22)
(-0.0443752 0.105221 7.04352e-22)
(-0.0338278 0.101968 -6.68787e-23)
(0.0497675 0.093306 1.12263e-22)
(0.0653248 0.107956 -2.03725e-22)
(0.199805 0.0798975 8.74366e-23)
(-0.0203129 0.0493763 7.75748e-22)
(-0.0428132 0.0912884 6.36199e-22)
(-0.0578899 0.107534 -9.24467e-22)
(-0.056425 0.111001 -1.09434e-22)
(-0.0486507 0.10848 0)
(-0.0112785 0.108525 0)
(0.00993399 0.099292 0)
(0.116026 0.0934683 -1.79604e-21)
(0.132032 0.102726 -8.34776e-22)
(0.310015 0.0785887 6.79922e-22)
(-0.0218387 0.0495074 -1.55657e-21)
(-0.0431869 0.0927178 0)
(-0.0531626 0.109377 2.11632e-21)
(-0.0444925 0.112715 8.79066e-22)
(-0.0271238 0.108111 9.20351e-23)
(0.0213483 0.109202 0)
(0.0537438 0.0932455 -1.09066e-21)
(0.183406 0.0923809 8.94218e-22)
(0.197068 0.0915409 8.34763e-22)
(0.429637 0.0761066 -6.79897e-22)
(-0.0233904 0.0488638 8.7875e-22)
(-0.0438727 0.0924785 -8.03781e-23)
(-0.0489157 0.109056 -1.05955e-21)
(-0.0331887 0.111944 -9.89811e-22)
(-0.0058719 0.105203 0)
(0.0537461 0.107312 1.2331e-21)
(0.0997015 0.0842186 7.53164e-24)
(0.252402 0.0910079 7.62118e-22)
(0.268954 0.0760759 9.19327e-22)
(0.562004 0.0731257 -6.64333e-22)
(-0.0249863 0.0476113 -9.11229e-26)
(-0.0448413 0.0907201 1.37436e-21)
(-0.0451219 0.106701 -1.32926e-22)
(-0.0223093 0.108708 7.67969e-22)
(0.0156231 0.0998951 4.61189e-22)
(0.0869109 0.102966 3.06067e-22)
(0.151618 0.0736584 1.08452e-21)
(0.324655 0.0888441 -9.89665e-22)
(0.360168 0.0612862 -6.21033e-22)
(0.705359 0.0708435 4.95655e-22)
(-0.026653 0.045921 0)
(-0.0460165 0.0876307 -1.13201e-21)
(-0.0415802 0.10247 -1.33303e-22)
(-0.0113685 0.103207 -7.2174e-25)
(0.038477 0.0924873 7.37714e-22)
(0.122994 0.0961772 -1.07143e-21)
(0.214109 0.0640168 1.06524e-21)
(0.403865 0.0846854 -1.10356e-22)
(0.480065 0.0532701 0)
(0.850734 0.0707435 0)
(-0.0284175 0.0439558 9.96781e-23)
(-0.0472659 0.0834239 -1.30379e-21)
(-0.0379051 0.0965894 0)
(0.00051655 0.0957514 -1.10772e-22)
(0.0644448 0.0835317 9.13132e-23)
(0.165456 0.0871693 0)
(0.291142 0.0577513 -1.06398e-21)
(0.495551 0.0789697 -8.63384e-22)
(0.62614 0.054831 1.9533e-22)
(0.985482 0.0737176 -1.64149e-22)
(-0.0302986 0.0418566 -9.98869e-23)
(-0.0483886 0.078324 1.38578e-21)
(-0.0335126 0.0893483 0)
(0.0146739 0.0867523 -9.8676e-22)
(0.0959494 0.0738196 9.10895e-23)
(0.21879 0.0769408 -1.21202e-21)
(0.384645 0.0561692 -1.29902e-22)
(0.603939 0.0747455 9.72091e-22)
(0.782911 0.0640766 0)
(1.09885 0.07912 1.26929e-21)
(-0.0322958 0.0397315 -1.51867e-21)
(-0.0491067 0.0725498 -8.24097e-23)
(-0.0276103 0.0810736 -1.33109e-22)
(0.0328611 0.0767279 1.10101e-22)
(0.135995 0.0643254 -1.45228e-21)
(0.287546 0.0675765 1.212e-21)
(0.493785 0.0593291 1.032e-21)
(0.726629 0.0754017 8.54152e-22)
(0.930562 0.0771191 1.48624e-21)
(1.18558 0.0851674 -1.11047e-21)
(-0.0343793 0.037648 1.61907e-21)
(-0.0490616 0.0662987 0)
(-0.0192076 0.0721112 1.20708e-21)
(0.0571862 0.0662879 -1.1023e-22)
(0.18783 0.0561641 2.90091e-21)
(0.374526 0.061768 0)
(0.61454 0.0668079 -1.03198e-21)
(0.853324 0.0815675 -6.69464e-24)
(1.05478 0.0909594 -1.6691e-21)
(1.24601 0.0903275 1.53705e-22)
(-0.0364848 0.0356334 0)
(-0.047815 0.0597333 1.32773e-21)
(-0.00714408 0.0628076 -1.07381e-21)
(0.0899729 0.0561475 0)
(0.254265 0.050605 -1.44862e-21)
(0.478826 0.0616337 0)
(0.739594 0.0779203 1.00943e-21)
(0.971313 0.0914038 -8.47426e-22)
(1.15013 0.104053 -1.40918e-21)
(1.28415 0.0937115 -1.17153e-21)
(-0.0385147 0.0336799 -2.04533e-22)
(-0.0448561 0.0529688 -1.15984e-21)
(0.00987492 0.0534984 0)
(0.133561 0.0471924 0)
(0.336666 0.0489897 0)
(0.595088 0.0676871 -1.49757e-22)
(0.859964 0.0913715 -1.00945e-21)
(1.07174 0.102892 -1.04626e-22)
(1.21791 0.115531 1.40918e-21)
(1.30553 0.0947713 1.31772e-21)
(-0.0403307 0.0317384 0)
(-0.0396248 0.0460764 -1.34514e-21)
(0.0332444 0.0445177 0)
(0.18997 0.0405598 0)
(0.43383 0.0523432 0)
(0.714895 0.078783 1.48626e-22)
(0.968047 0.105594 -1.2328e-21)
(1.15134 0.114746 1.00149e-22)
(1.263 0.124353 9.94105e-22)
(1.31635 0.093271 1.10289e-21)
(-0.0417673 0.0297469 0)
(-0.0315073 0.0390778 1.34513e-21)
(0.0644233 0.0362494 -1.09448e-21)
(0.260337 0.0375838 0)
(0.541482 0.0608061 -1.44261e-21)
(0.829712 0.0929712 0)
(1.05957 0.119484 9.85363e-22)
(1.21085 0.125945 -7.98579e-22)
(1.29127 0.129793 -1.33215e-21)
(1.33166 0.103862 -1.09815e-21)
(-0.0426463 0.0276301 1.71147e-21)
(-0.019843 0.0319455 0)
(0.104861 0.0292559 9.58885e-22)
(0.344186 0.0394308 1.12142e-22)
(0.653135 0.0734655 2.8855e-21)
(0.93335 0.108469 0)
(1.13347 0.132491 -9.5939e-22)
(1.25316 0.135635 -1.58066e-21)
(1.31005 0.13597 -1.10288e-21)
(1.33489 0.108998 -5.54296e-24)
(-0.0427629 0.0252998 -1.81775e-21)
(-0.00391663 0.0246513 8.724e-23)
(0.155793 0.02441 1.36361e-22)
(0.438932 0.0465283 -1.12786e-22)
(0.762074 0.0888522 -1.4429e-21)
(1.02264 0.124087 1.16972e-21)
(1.19082 0.144315 9.59387e-22)
(1.2823 0.144402 7.82088e-22)
(1.31973 0.140823 1.26034e-21)
(1.33353 0.115014 -1.11308e-21)
(-0.0419029 0.0226736 1.07679e-22)
(0.0170801 0.017222 1.3112e-21)
(0.217866 0.0228641 0)
(0.540152 0.0582896 -7.8473e-22)
(0.863115 0.105611 -9.14692e-23)
(1.09682 0.139157 -1.16971e-21)
(1.23387 0.155039 1.15208e-22)
(1.30101 0.152102 6.50696e-22)
(1.32377 0.145634 0)
(1.32988 0.120188 9.90484e-22)
(-0.0398424 0.0196793 -1.11044e-22)
(0.0440489 0.00985702 -1.39958e-21)
(0.290689 0.0257063 0)
(0.642677 0.0734701 1.04957e-22)
(0.953206 0.122806 -9.17487e-23)
(1.15666 0.15339 0)
(1.26501 0.164745 -9.14691e-22)
(1.31207 0.159116 -7.4713e-22)
(1.32376 0.150057 -1.43381e-22)
(1.32386 0.125227 -1.2061e-22)
(-0.0363275 0.0162572 0)
(0.0779054 0.00307783 -1.61263e-21)
(0.372575 0.0334492 1.44562e-22)
(0.741841 0.0908032 -5.84041e-24)
(1.03112 0.139895 -7.20037e-22)
(1.20363 0.1667 -1.27817e-21)
(1.28661 0.173615 1.03128e-21)
(1.3175 0.165563 0)
(1.32099 0.154413 0)
(1.31723 0.130153 0)
(-0.0310414 0.0123718 2.41439e-24)
(0.1194 -0.0021819 1.35215e-21)
(0.460707 0.0457782 1.46372e-22)
(0.834254 0.109358 1.01745e-21)
(1.09685 0.156591 6.27788e-22)
(1.23954 0.179117 -1.24155e-22)
(1.30071 0.181811 8.87449e-22)
(1.31888 0.171659 -6.01746e-22)
(1.31647 0.158709 -6.77501e-22)
(1.30982 0.135042 5.44055e-22)
(-0.0235769 0.00803743 8.38724e-22)
(0.168871 -0.00466993 9.43801e-23)
(0.551689 0.061789 -1.17e-21)
(0.917923 0.128546 -9.1657e-22)
(1.1511 0.172757 0)
(1.26615 0.190728 1.12511e-21)
(1.30903 0.189507 -1.82131e-23)
(1.31739 0.177527 7.74959e-22)
(1.31075 0.163041 4.73779e-22)
(1.30221 0.139947 -4.31008e-22)
(-0.0134375 0.0033564 -1.93016e-21)
(0.226019 -0.00313519 0)
(0.642191 0.0804652 2.35742e-21)
(0.991975 0.148025 8.05248e-22)
(1.19494 0.188342 9.23989e-23)
(1.28512 0.201654 0)
(1.31298 0.196852 -8.62541e-22)
(1.31387 0.183285 6.54302e-22)
(1.30427 0.167435 5.08531e-22)
(1.29437 0.144883 -4.00104e-22)
(-7.25311e-05 -0.00143852 9.76448e-22)
(0.289841 0.00326222 7.61376e-22)
(0.729414 0.101006 -1.33215e-21)
(1.05629 0.167619 1.19711e-22)
(1.22956 0.203354 0)
(1.29788 0.212022 0)
(1.31361 0.203976 0)
(1.30892 0.189003 -1.28904e-21)
(1.29727 0.171921 -5.08535e-22)
(1.28644 0.149856 4.00085e-22)
(0.0170262 -0.00593727 9.0286e-22)
(0.358761 0.0147094 -7.55372e-22)
(0.811264 0.12288 7.75471e-23)
(1.11121 0.187239 0)
(1.25619 0.217831 6.98104e-22)
(1.30565 0.221954 4.64059e-22)
(1.31176 0.210981 5.33726e-23)
(1.30295 0.194734 -5.50934e-23)
(1.28989 0.176502 1.21308e-22)
(1.27841 0.154859 -4.89957e-23)
(0.0381995 -0.00954525 -1.02485e-21)
(0.430896 0.0308007 9.55379e-23)
(0.88635 0.145736 6.1386e-22)
(1.15729 0.206828 -1.71197e-22)
(1.27597 0.231825 -5.23653e-22)
(1.30944 0.231562 -6.59477e-22)
(1.30803 0.217943 5.21725e-23)
(1.29621 0.200504 3.17652e-22)
(1.28222 0.181177 0)
(1.27027 0.159877 -4.32833e-23)
(0.0635634 -0.011554 -6.63115e-23)
(0.504316 0.0508163 0)
(0.953885 0.169323 5.82159e-24)
(1.19523 0.226322 0)
(1.28994 0.245399 6.80018e-22)
(1.31004 0.24094 -5.05478e-22)
(1.30286 0.224909 0)
(1.28887 0.206323 1.06351e-23)
(1.27429 0.185935 0)
(1.26202 0.164892 0)
(0.0929929 -0.0112574 -1.3248e-22)
(0.577223 0.0740122 8.66855e-22)
(1.01356 0.193451 -6.98961e-22)
(1.22574 0.245652 1.15631e-22)
(1.29901 0.258612 -3.10837e-22)
(1.3081 0.250162 -5.37982e-23)
(1.29656 0.231907 0)
(1.28105 0.212189 2.19239e-22)
(1.26612 0.190757 5.63361e-23)
(1.25362 0.169881 1.60469e-22)
(0.126129 -0.00808131 -5.56734e-22)
(0.64804 0.0997699 -3.50198e-22)
(1.06541 0.21798 -1.15003e-22)
(1.24955 0.264746 4.61355e-22)
(1.30394 0.271521 3.80218e-23)
(1.30409 0.259282 4.92741e-22)
(1.28933 0.238945 0)
(1.27279 0.218087 -2.63995e-22)
(1.25771 0.19562 4.89e-23)
(1.24504 0.174817 -3.53726e-22)
(0.162422 -0.00168277 -5.56732e-22)
(0.715426 0.127608 3.63746e-22)
(1.1097 0.242793 -4.38596e-24)
(1.26734 0.283538 -5.37082e-22)
(1.30539 0.284167 -2.83959e-22)
(1.2984 0.268336 -2.78305e-23)
(1.28132 0.246015 2.32373e-23)
(1.26412 0.223996 2.94712e-22)
(1.24904 0.200499 -2.55018e-24)
(1.23628 0.179675 1.15022e-22)
(0.201186 0.00802075 -2.86222e-22)
(0.778284 0.157132 0)
(1.14684 0.267783 -3.12964e-22)
(1.27977 0.30197 0)
(1.30388 0.296581 -3.57494e-22)
(1.2913 0.277338 3.08545e-23)
(1.27262 0.253099 0)
(1.25505 0.229886 0)
(1.2401 0.205365 0)
(1.2273 0.184422 0)
(0.241652 0.0208979 2.51029e-22)
(0.83576 0.187977 1.21694e-22)
(1.17729 0.292832 3.12966e-22)
(1.28745 0.320002 0)
(1.29984 0.308779 0)
(1.28298 0.286287 -1.28768e-23)
(1.26328 0.260166 4.95781e-23)
(1.24558 0.235726 5.67537e-23)
(1.23087 0.210185 5.24537e-23)
(1.21812 0.189027 -8.67538e-24)
(0.283013 0.0366927 -4.5354e-24)
(0.887297 0.219785 -1.13902e-22)
(1.2015 0.317817 5.213e-24)
(1.29091 0.337611 6.17889e-24)
(1.2936 0.320761 -9.45346e-24)
(1.27359 0.295162 3.60084e-24)
(1.25333 0.267178 -4.32678e-23)
(1.2357 0.241478 -5.30372e-23)
(1.22134 0.21492 -3.97205e-23)
(1.20873 0.193452 1.57829e-24)
(0.324459 0.0550985 0)
(0.932649 0.252229 -1.14612e-22)
(1.21986 0.342613 -3.54526e-24)
(1.29061 0.354773 7.22527e-24)
(1.28545 0.332516 1.29868e-37)
(1.26322 0.303932 -9.14612e-38)
(1.24279 0.274092 -3.89109e-23)
(1.2254 0.247104 -4.6438e-23)
(1.2115 0.219524 -3.65807e-23)
(1.19916 0.197661 0)
(0.365203 0.0758059 3.28128e-22)
(0.971754 0.285029 9.40001e-23)
(1.23276 0.367098 3.11485e-22)
(1.28696 0.371449 -1.40991e-23)
(1.27558 0.344014 0)
(1.25194 0.312551 1.10511e-23)
(1.23166 0.280857 2.54985e-23)
(1.21467 0.252562 4.99419e-23)
(1.20133 0.223947 2.83212e-23)
(1.18938 0.201633 6.94201e-24)
(0.404505 0.0985282 -2.92406e-22)
(1.00464 0.317931 0)
(1.24058 0.391141 -2.94442e-22)
(1.2803 0.387596 0)
(1.26418 0.355213 -3.00262e-23)
(1.2398 0.320963 2.50017e-23)
(1.21995 0.287423 0)
(1.2035 0.257809 0)
(1.19085 0.22815 0)
(1.17934 0.205351 0)
(0.441685 0.123001 5.7923e-22)
(1.03142 0.350699 -3.72501e-22)
(1.2437 0.414614 -7.16688e-23)
(1.27092 0.403164 -2.95022e-22)
(1.25136 0.366057 -2.75058e-22)
(1.22682 0.329109 1.92829e-23)
(1.20765 0.293733 -1.61003e-23)
(1.19188 0.262792 1.35624e-22)
(1.18009 0.232108 2.31129e-24)
(1.16897 0.208793 9.97904e-23)
(0.47614 0.148965 -5.79231e-22)
(1.05224 0.383109 -4.49495e-22)
(1.24245 0.437384 9.99193e-23)
(1.25908 0.418095 3.52941e-22)
(1.23723 0.376482 -1.71648e-23)
(1.21302 0.336921 2.97906e-22)
(1.19476 0.299731 0)
(1.1798 0.267446 -1.54558e-22)
(1.16909 0.235806 -2.4068e-23)
(1.15826 0.211962 -1.26447e-22)
(0.507353 0.176151 1.37897e-22)
(1.0673 0.414943 7.68433e-22)
(1.23714 0.459315 -4.49443e-22)
(1.24501 0.432325 -8.5565e-23)
(1.22187 0.386416 -2.0739e-22)
(1.19843 0.344329 4.57175e-23)
(1.18128 0.305364 -2.69563e-23)
(1.16728 0.271705 1.51584e-22)
(1.15782 0.239211 -2.52015e-23)
(1.14731 0.214829 6.81623e-23)
(0.534902 0.20427 6.97896e-23)
(1.07681 0.445985 0)
(1.22808 0.480271 2.76643e-23)
(1.22889 0.445779 0)
(1.20533 0.395778 4.13837e-22)
(1.18308 0.351258 -2.70828e-22)
(1.16725 0.310571 0)
(1.15443 0.275537 -1.7194e-23)
(1.14619 0.242256 0)
(1.13619 0.217342 0)
(0.558458 0.233004 -1.07206e-21)
(1.08098 0.476013 -8.32422e-23)
(1.21552 0.500112 5.48595e-22)
(1.21088 0.458376 6.35491e-23)
(1.18768 0.404479 -4.31016e-22)
(1.16703 0.35763 -1.54171e-22)
(1.15271 0.315278 -2.12044e-23)
(1.14124 0.27892 9.07587e-23)
(1.13418 0.244904 -1.82381e-23)
(1.12489 0.219457 9.91387e-24)
(0.577783 0.262015 1.19344e-21)
(1.08006 0.504803 -7.19862e-22)
(1.19972 0.518694 -1.59413e-22)
(1.19111 0.470023 7.83338e-23)
(1.16904 0.412432 3.38468e-22)
(1.15032 0.363367 2.34448e-22)
(1.13764 0.319429 -1.81503e-23)
(1.12768 0.281812 -1.88562e-23)
(1.12184 0.247121 -2.56279e-23)
(1.11343 0.221138 9.25679e-24)
(0.592729 0.290947 9.89475e-22)
(1.07429 0.532128 6.98779e-22)
(1.18089 0.53586 -6.71944e-22)
(1.16976 0.480618 -7.12698e-23)
(1.1495 0.419559 0)
(1.13294 0.368387 0)
(1.12208 0.322964 0)
(1.11378 0.284171 -2.37015e-22)
(1.10921 0.248872 -5.87125e-23)
(1.10182 0.222348 2.79113e-23)
(0.603231 0.319436 -1.9267e-21)
(1.06392 0.557768 0)
(1.15925 0.551443 1.43712e-21)
(1.14705 0.490064 3.82863e-22)
(1.1291 0.425772 0)
(1.11488 0.37262 0)
(1.10606 0.32582 -1.22342e-22)
(1.09955 0.285954 9.99214e-23)
(1.09633 0.250121 5.8713e-23)
(1.09009 0.223059 -2.79102e-23)
(0.6093 0.347115 1.03901e-21)
(1.04927 0.581519 -8.35445e-23)
(1.13505 0.56528 -6.7902e-22)
(1.12306 0.498233 -4.19479e-22)
(1.10785 0.430988 3.03908e-23)
(1.09623 0.375991 1.62446e-22)
(1.08962 0.327938 5.17817e-23)
(1.08502 0.287119 1.93251e-23)
(1.08322 0.250835 2.87231e-24)
(1.07826 0.223243 1.72339e-23)
(0.61102 0.373613 -1.21333e-23)
(1.03062 0.603171 1.0215e-21)
(1.10857 0.577256 -8.96478e-23)
(1.09783 0.504967 2.26054e-22)
(1.08584 0.435129 1.12507e-22)
(1.07702 0.378433 -3.67812e-23)
(1.07282 0.329262 6.41134e-23)
(1.07024 0.287628 -2.58357e-23)
(1.06992 0.25098 -6.39555e-24)
(1.06638 0.222872 -1.21582e-23)
(0.608541 0.398572 0)
(1.00824 0.62247 -8.95201e-22)
(1.08008 0.587278 -7.77061e-23)
(1.07148 0.510147 -6.81743e-23)
(1.06314 0.438091 -1.15966e-22)
(1.05733 0.379882 -8.81891e-23)
(1.05571 0.329742 -4.17665e-23)
(1.05523 0.287443 0)
(1.05645 0.25052 0)
(1.05448 0.221914 0)
(0.60207 0.421686 8.7175e-23)
(0.982261 0.639089 -7.30335e-22)
(1.04989 0.595262 0)
(1.04417 0.513701 -8.35281e-23)
(1.03983 0.439784 1.07763e-23)
(1.03724 0.380275 0)
(1.03833 0.329329 3.61257e-23)
(1.04005 0.286531 9.64527e-23)
(1.04285 0.249421 -2.04484e-23)
(1.04258 0.220325 1.71753e-23)
(0.591831 0.442728 -6.427e-23)
(0.952964 0.652766 7.83094e-22)
(1.01825 0.601051 0)
(1.01602 0.515576 -1.2096e-22)
(1.01602 0.440124 3.81087e-24)
(1.0168 0.379557 1.31823e-22)
(1.02076 0.327984 1.60236e-23)
(1.02474 0.28486 -1.09865e-22)
(1.02915 0.247648 0)
(1.03076 0.218063 -2.15144e-22)
(0.578019 0.461444 -8.94268e-22)
(0.920827 0.663389 -4.35599e-23)
(0.985332 0.604458 -1.13235e-23)
(0.987194 0.515702 9.36651e-24)
(0.991789 0.439039 1.79031e-22)
(0.996112 0.377673 -1.31824e-22)
(1.00306 0.325669 -2.01263e-22)
(1.00932 0.282398 -1.78018e-22)
(1.01539 0.245172 -3.06009e-22)
(1.01912 0.215123 1.88254e-22)
(0.560778 0.477467 9.47338e-22)
(0.88637 0.670905 0)
(0.951364 0.605362 3.54528e-24)
(0.957831 0.514009 8.00407e-25)
(0.967254 0.436467 -4.65285e-22)
(0.975255 0.374579 0)
(0.985291 0.322354 2.01265e-22)
(0.993845 0.27911 -4.10399e-23)
(1.00167 0.241968 3.47848e-22)
(1.00795 0.211545 -3.51352e-23)
(0.540378 0.490427 0)
(0.849973 0.675165 1.34689e-22)
(0.916553 0.603695 -4.51295e-24)
(0.928089 0.510429 0)
(0.942525 0.432358 2.86254e-22)
(0.954321 0.370236 0)
(0.967505 0.318012 -3.12583e-22)
(0.978352 0.274955 2.19061e-22)
(0.988162 0.237995 4.26292e-22)
(0.997569 0.207396 3.36533e-22)
(0.517281 0.500143 -3.26275e-23)
(0.811983 0.676034 -1.07908e-22)
(0.88113 0.599397 0)
(0.898126 0.504899 0)
(0.917719 0.426672 0)
(0.9334 0.364614 5.05163e-23)
(0.949765 0.312625 2.28172e-22)
(0.962938 0.269909 3.53503e-23)
(0.975066 0.233196 -4.26294e-22)
(0.987861 0.202624 -3.77926e-22)
(0.491905 0.506446 0)
(0.772749 0.673398 1.83204e-22)
(0.845334 0.592426 0)
(0.868103 0.497372 0)
(0.892961 0.419377 0)
(0.912588 0.357691 -5.94918e-23)
(0.932146 0.306179 5.21337e-22)
(0.947726 0.263976 -1.19145e-22)
(0.962461 0.22759 -4.12759e-22)
(0.978154 0.195743 -4.16347e-22)
(0.464664 0.509205 0)
(0.732631 0.667179 -1.83204e-22)
(0.80941 0.582754 4.36073e-22)
(0.838187 0.487809 0)
(0.868375 0.410453 7.17561e-22)
(0.891979 0.349453 0)
(0.914739 0.298659 -4.22945e-22)
(0.932831 0.257171 3.79459e-22)
(0.950096 0.22163 5.40011e-22)
(0.967156 0.190814 4.15175e-22)
(0.43597 0.50833 -3.59068e-22)
(0.691994 0.657332 0)
(0.773601 0.570374 -3.71515e-22)
(0.808549 0.476192 -5.34035e-23)
(0.84409 0.399891 -1.54072e-21)
(0.871673 0.339891 0)
(0.897634 0.290052 5.30174e-22)
(0.918319 0.249416 3.80085e-23)
(0.938087 0.214598 5.74662e-22)
(0.956563 0.184435 2.25667e-24)
(0.406234 0.50377 3.95691e-22)
(0.651203 0.643839 -3.0062e-23)
(0.738151 0.555292 -7.71718e-23)
(0.77936 0.462514 -6.38348e-23)
(0.820236 0.387694 8.23162e-22)
(0.851772 0.329011 -7.38622e-22)
(0.880917 0.280377 -5.30177e-22)
(0.904195 0.240812 -4.17472e-22)
(0.926277 0.206975 -6.4927e-22)
(0.945959 0.177823 6.03395e-22)
(0.37586 0.495515 -4.98856e-23)
(0.610621 0.626714 -7.78761e-22)
(0.7033 0.537538 0)
(0.750793 0.446787 5.61045e-22)
(0.796942 0.373875 6.16887e-23)
(0.83238 0.316822 7.38626e-22)
(0.864676 0.269634 -7.33999e-23)
(0.890528 0.231307 -4.28654e-22)
(0.914814 0.198555 0)
(0.935656 0.170501 -5.38282e-22)
(0.345247 0.483591 5.8184e-23)
(0.570604 0.606004 8.19714e-22)
(0.669285 0.517156 0)
(0.723019 0.429038 -1.19502e-23)
(0.77434 0.358458 6.85576e-23)
(0.8136 0.303348 0)
(0.84899 0.257851 6.8038e-22)
(0.877355 0.220957 4.90092e-22)
(0.903715 0.189471 9.33064e-23)
(0.92571 0.162631 -7.83746e-23)
(0.314782 0.468061 0)
(0.531501 0.58178 1.25533e-21)
(0.636334 0.494211 -1.11062e-22)
(0.696205 0.409309 6.80451e-23)
(0.752557 0.341482 6.09544e-22)
(0.795536 0.288619 1.05302e-21)
(0.833938 0.245051 -7.72131e-22)
(0.864737 0.20977 0)
(0.893053 0.179702 0)
(0.916202 0.15417 0)
(0.284838 0.449027 2.50039e-24)
(0.493649 0.554144 -1.04137e-21)
(0.604672 0.468786 1.24766e-22)
(0.670517 0.387659 -8.72305e-22)
(0.731721 0.322993 -5.27995e-22)
(0.778285 0.272676 1.79625e-22)
(0.819595 0.231271 -7.78575e-22)
(0.852727 0.197784 5.13166e-22)
(0.88288 0.16929 5.52379e-22)
(0.90719 0.145153 -4.30177e-22)
(0.255774 0.426626 -7.36838e-22)
(0.457366 0.523221 -8.19679e-23)
(0.574512 0.440979 1.15284e-21)
(0.646113 0.364161 9.00636e-22)
(0.711953 0.303051 0)
(0.761946 0.255567 -1.00547e-21)
(0.806036 0.216551 -4.13293e-23)
(0.841383 0.185032 -6.60467e-22)
(0.873249 0.158255 -3.87311e-22)
(0.898718 0.1356 3.4232e-22)
(0.227929 0.401042 1.76842e-21)
(0.422952 0.489151 0)
(0.546061 0.410905 -2.39111e-21)
(0.623147 0.338902 -7.88255e-22)
(0.693371 0.281727 -9.32879e-23)
(0.746609 0.237352 0)
(0.793332 0.20094 8.11825e-22)
(0.830759 0.171556 -6.44994e-22)
(0.864214 0.14663 -4.8886e-22)
(0.890828 0.125545 3.72754e-22)
(0.201616 0.372496 -9.31724e-22)
(0.390681 0.452093 -8.22045e-22)
(0.519518 0.378694 1.39307e-21)
(0.601762 0.311985 -1.28046e-22)
(0.67609 0.259102 0)
(0.732364 0.218096 0)
(0.781549 0.184492 0)
(0.820908 0.1574 1.31519e-21)
(0.855822 0.13445 4.88862e-22)
(0.883552 0.11502 -3.72754e-22)
(0.177108 0.341213 -9.70371e-22)
(0.360823 0.412258 8.18953e-22)
(0.495075 0.344488 8.62418e-23)
(0.582096 0.283524 0)
(0.660214 0.235267 -8.06134e-22)
(0.719292 0.197875 -5.36801e-22)
(0.77075 0.167266 -5.95425e-23)
(0.811881 0.142613 1.04253e-22)
(0.848121 0.121754 -1.29829e-22)
(0.876924 0.104066 5.17588e-23)
(0.154641 0.307398 1.10166e-21)
(0.333628 0.369901 -1.10564e-22)
(0.472908 0.308454 -9.04422e-22)
(0.564277 0.253649 2.00835e-22)
(0.645841 0.210323 6.00129e-22)
(0.70747 0.176769 7.63667e-22)
(0.760994 0.14933 -6.16604e-23)
(0.803725 0.12725 -3.36289e-22)
(0.841154 0.108584 0)
(0.870968 0.0927237 4.85977e-23)
(0.134438 0.27128 7.5622e-23)
(0.309326 0.325288 0)
(0.453169 0.270771 -2.87707e-23)
(0.548422 0.222499 0)
(0.633061 0.184377 -8.62537e-22)
(0.696966 0.154866 6.47108e-22)
(0.752334 0.130755 0)
(0.796482 0.111366 9.03239e-24)
(0.83496 0.0949897 0)
(0.86571 0.0810389 0)
(0.116709 0.233118 1.56888e-22)
(0.288115 0.27869 -1.06932e-21)
(0.435995 0.231636 8.4866e-22)
(0.534633 0.190225 -1.45706e-22)
(0.621954 0.157548 3.73379e-22)
(0.687843 0.132261 1.02385e-22)
(0.744818 0.111615 0)
(0.790194 0.095024 -2.77786e-22)
(0.829577 0.08102 -7.3898e-23)
(0.861168 0.0690582 -2.13296e-22)
(0.10164 0.193193 6.71468e-22)
(0.27017 0.230388 -1.5861e-21)
(0.421501 0.191254 1.45995e-22)
(0.523001 0.156983 -6.0923e-22)
(0.612589 0.12996 -6.84247e-23)
(0.680155 0.109053 -6.62738e-22)
(0.738487 0.0919924 0)
(0.784896 0.0782895 3.80007e-22)
(0.825037 0.0667291 -6.77286e-23)
(0.85736 0.056829 4.86783e-22)
(0.0893902 0.151804 -6.71468e-22)
(0.255635 0.180675 5.81936e-22)
(0.409786 0.149839 -1.00922e-22)
(0.513602 0.122941 7.14595e-22)
(0.605025 0.101742 3.9172e-22)
(0.673948 0.0853443 4.05195e-23)
(0.733378 0.0719696 -3.38316e-23)
(0.780618 0.0612311 -4.25554e-22)
(0.821368 0.0521743 3.86005e-24)
(0.854298 0.044399 -1.61706e-22)
(0.0800884 0.109263 3.51494e-22)
(0.24463 0.129853 0)
(0.400931 0.107612 4.14611e-22)
(0.506498 0.0882686 0)
(0.599309 0.0730293 5.49745e-23)
(0.66926 0.0612431 -4.57748e-23)
(0.72952 0.0516328 0)
(0.777386 0.043919 0)
(0.818595 0.0374141 0)
(0.851993 0.031817 0)
(0.0738324 0.065892 -3.07922e-22)
(0.237244 0.0782327 -1.18468e-22)
(0.394993 0.0648018 -4.14611e-22)
(0.501737 0.0531434 0)
(0.595479 0.0439607 0)
(0.666118 0.0368594 2.06794e-23)
(0.726935 0.0310704 -8.24611e-23)
(0.775221 0.0264245 -9.76962e-23)
(0.816735 0.0225071 -9.09981e-23)
(0.850452 0.0191303 1.46779e-23)
(0.0706879 0.0220198 -5.57514e-24)
(0.233536 0.0261312 1.27807e-22)
(0.392014 0.0216398 -5.70263e-24)
(0.499348 0.0177449 1.96816e-23)
(0.593558 0.0146775 -7.74991e-24)
(0.664543 0.0123054 0)
(0.725639 0.0103719 6.51949e-23)
(0.774134 0.00882039 9.76962e-23)
(0.815801 0.00751211 6.91391e-23)
(0.84968 0.00638328 1.03133e-23)
(0.0706879 -0.0220198 -5.57514e-24)
(0.233536 -0.0261312 1.27807e-22)
(0.392014 -0.0216398 -5.70263e-24)
(0.499348 -0.0177449 1.96816e-23)
(0.593558 -0.0146775 -7.74991e-24)
(0.664543 -0.0123054 0)
(0.725639 -0.0103719 5.74341e-23)
(0.774134 -0.00882039 1.04192e-22)
(0.815801 -0.00751211 7.3523e-23)
(0.84968 -0.00638328 0)
(0.0738324 -0.065892 -3.95066e-22)
(0.237244 -0.0782327 -1.53663e-22)
(0.394993 -0.0648018 -4.39492e-22)
(0.501737 -0.0531434 2.05809e-23)
(0.595479 -0.0439607 0)
(0.666118 -0.0368594 -2.06794e-23)
(0.726935 -0.0310704 -4.79287e-23)
(0.775221 -0.0264245 -9.76962e-23)
(0.816735 -0.0225071 -5.60479e-23)
(0.850452 -0.0191303 -1.46779e-23)
(0.0800884 -0.109263 3.51494e-22)
(0.24463 -0.129853 0)
(0.400931 -0.107612 4.14611e-22)
(0.506498 -0.0882686 0)
(0.599309 -0.0730293 5.49745e-23)
(0.66926 -0.0612431 -4.57748e-23)
(0.72952 -0.0516328 0)
(0.777386 -0.043919 0)
(0.818595 -0.0374141 0)
(0.851993 -0.031817 0)
(0.0893902 -0.151804 -6.71468e-22)
(0.255635 -0.180675 4.54552e-22)
(0.409786 -0.149839 1.00922e-22)
(0.513602 -0.122941 4.8933e-22)
(0.605025 -0.101742 5.1218e-22)
(0.673948 -0.0853443 -4.05195e-23)
(0.733378 -0.0719696 3.38316e-23)
(0.780618 -0.0612311 -3.34461e-22)
(0.821368 -0.0521743 -3.86005e-24)
(0.854298 -0.044399 -2.71493e-22)
(0.10164 -0.193193 6.71468e-22)
(0.27017 -0.230388 5.49615e-22)
(0.421501 -0.191254 -1.45995e-22)
(0.523001 -0.156983 -5.94693e-22)
(0.612589 -0.12996 4.97022e-23)
(0.680155 -0.109053 -6.62738e-22)
(0.738487 -0.0919924 0)
(0.784896 -0.0782895 3.80007e-22)
(0.825037 -0.0667291 6.77286e-23)
(0.85736 -0.056829 3.73008e-22)
(0.116709 -0.233118 -1.56888e-22)
(0.288115 -0.27869 1.06932e-21)
(0.435995 -0.231636 6.642e-22)
(0.534633 -0.190225 1.45706e-22)
(0.621954 -0.157548 4.66526e-22)
(0.687843 -0.132261 -1.49189e-22)
(0.744818 -0.111615 6.51754e-23)
(0.790194 -0.095024 -4.5398e-22)
(0.829577 -0.08102 7.3898e-23)
(0.861168 -0.0690582 -2.13296e-22)
(0.134438 -0.27128 -7.5622e-23)
(0.309326 -0.325288 0)
(0.453169 -0.270771 -2.87707e-23)
(0.548422 -0.222499 0)
(0.633061 -0.184377 -8.62537e-22)
(0.696966 -0.154866 6.47108e-22)
(0.752334 -0.130755 0)
(0.796482 -0.111366 9.03239e-24)
(0.83496 -0.0949897 0)
(0.86571 -0.0810389 0)
(0.154641 -0.307398 1.10166e-21)
(0.333628 -0.369901 1.10564e-22)
(0.472908 -0.308454 -6.36562e-22)
(0.564277 -0.253649 -1.29969e-22)
(0.645841 -0.210323 1.01214e-21)
(0.70747 -0.176769 4.52563e-22)
(0.760994 -0.14933 6.16604e-23)
(0.803725 -0.12725 -4.20153e-22)
(0.841154 -0.108584 7.0347e-23)
(0.870968 -0.0927237 -4.85977e-23)
(0.177108 -0.341213 -1.23294e-21)
(0.360823 -0.412258 8.2514e-22)
(0.495075 -0.344488 7.72306e-23)
(0.582096 -0.283524 -1.35221e-22)
(0.660214 -0.235267 -8.06134e-22)
(0.719292 -0.197875 -6.79426e-22)
(0.77075 -0.167266 5.95425e-23)
(0.811881 -0.142613 -5.83718e-23)
(0.848121 -0.121754 1.29829e-22)
(0.876924 -0.104066 -5.17588e-23)
(0.201616 -0.372496 -9.31724e-22)
(0.390681 -0.452093 -8.22045e-22)
(0.519518 -0.378694 1.08347e-21)
(0.601762 -0.311985 1.28046e-22)
(0.67609 -0.259102 0)
(0.732364 -0.218096 0)
(0.781549 -0.184492 0)
(0.820908 -0.1574 1.31519e-21)
(0.855822 -0.13445 4.88862e-22)
(0.883552 -0.11502 -3.72754e-22)
(0.227929 -0.401042 1.76842e-21)
(0.422952 -0.489151 0)
(0.546061 -0.410905 -2.39111e-21)
(0.623147 -0.338902 -9.0064e-22)
(0.693371 -0.281727 0)
(0.746609 -0.237352 0)
(0.793332 -0.20094 8.11825e-22)
(0.830759 -0.171556 -6.44994e-22)
(0.864214 -0.14663 -4.8886e-22)
(0.890828 -0.125545 3.72754e-22)
(0.255774 -0.426626 -9.36549e-22)
(0.457366 -0.523221 8.19679e-23)
(0.574512 -0.440979 1.15284e-21)
(0.646113 -0.364161 1.00616e-21)
(0.711953 -0.303051 -8.75967e-23)
(0.761946 -0.255567 -1.00547e-21)
(0.806036 -0.216551 -4.13293e-23)
(0.841383 -0.185032 -5.16278e-22)
(0.873249 -0.158255 -5.0826e-22)
(0.898718 -0.1356 3.4232e-22)
(0.284838 -0.449027 -2.50039e-24)
(0.493649 -0.554144 -1.19971e-21)
(0.604672 -0.468786 -1.24766e-22)
(0.670517 -0.387659 -6.75813e-22)
(0.731721 -0.322993 -5.38511e-22)
(0.778285 -0.272676 -1.82021e-22)
(0.819595 -0.231271 -7.62403e-22)
(0.852727 -0.197784 6.63574e-22)
(0.88288 -0.16929 3.43188e-22)
(0.90719 -0.145153 -2.54465e-22)
(0.314782 -0.468061 0)
(0.531501 -0.58178 9.85734e-22)
(0.636334 -0.494211 1.11062e-22)
(0.696205 -0.409309 6.80451e-23)
(0.752557 -0.341482 6.09544e-22)
(0.795536 -0.288619 8.33247e-22)
(0.833938 -0.245051 -6.73253e-22)
(0.864737 -0.20977 7.08234e-23)
(0.893053 -0.179702 0)
(0.916202 -0.15417 0)
(0.345247 -0.483591 -5.8184e-23)
(0.570604 -0.606004 8.19714e-22)
(0.669285 -0.517156 0)
(0.723019 -0.429038 1.53233e-22)
(0.77434 -0.358458 -6.85576e-23)
(0.8136 -0.303348 0)
(0.84899 -0.257851 6.8038e-22)
(0.877355 -0.220957 4.90092e-22)
(0.903715 -0.189471 -9.33064e-23)
(0.92571 -0.162631 7.83746e-23)
(0.37586 -0.495515 4.98856e-23)
(0.610621 -0.626714 -8.6066e-22)
(0.7033 -0.537538 0)
(0.750793 -0.446787 7.09678e-22)