/*--------------------------------*- C++ -*----------------------------------*\
  =========                 |
  \\      /  F ield         | OpenFOAM: The Open Source CFD Toolbox
   \\    /   O peration     | Website:  https://openfoam.org
    \\  /    A nd           | Version:  7
     \\/     M anipulation  |
\*---------------------------------------------------------------------------*/
FoamFile
{
    version     2.0;
    format      ascii;
    class       volScalarField;
    location    "2.3";
    object      rho;
}
// * * * * * * * * * * * * * * * * * * * * * * * * * * * * * * * * * * * * * //

dimensions      [1 -3 0 0 0 0 0];

internalField   nonuniform List<scalar> 
1575
(
1.40001
1.40001
1.40001
1.40001
1.40001
1.40001
1.40001
2.75735
5.26427
5.48586
5.55069
5.63346
5.70799
5.77979
5.83963
1.40001
1.40001
1.40001
1.40001
1.40001
1.40001
1.40001
2.66195
5.18755
5.46266
5.52355
5.5957
5.66151
5.72058
5.77875
1.40001
1.40001
1.40001
1.40001
1.40001
1.40001
1.40001
2.45975
5.07523
5.43906
5.48952
5.55443
5.6197
5.67375
5.69945
1.40001
1.40001
1.40001
1.40001
1.40001
1.40001
1.40001
2.16689
4.90475
5.43232
5.44692
5.48075
5.50794
5.51366
5.53362
1.40001
1.40001
1.40001
1.40001
1.40001
1.40001
1.40001
1.79632
4.64836
5.43208
5.40094
5.40985
5.41101
5.36496
5.36649
1.40001
1.40001
1.40001
1.40001
1.40001
1.40001
1.40001
1.45353
4.14385
5.40156
5.33335
5.29501
5.22125
4.92414
4.11851
1.40001
1.40001
1.40001
1.40001
1.40001
1.40001
1.40001
1.40036
3.43231
5.17587
5.20558
5.14844
4.9909
4.66197
3.87486
1.40001
1.40001
1.40001
1.40001
1.40001
1.40001
1.40001
1.4
2.54607
4.91844
5.13659
5.06129
4.83835
4.49058
3.73271
1.40001
1.40001
1.40001
1.40001
1.40001
1.40001
1.40001
1.4
1.68629
4.54646
5.17267
4.97393
4.71166
4.33708
3.71772
1.40001
1.40001
1.40001
1.40001
1.40001
1.40001
1.40001
1.4
1.41381
3.65508
4.95421
4.78889
4.57746
4.22133
3.73861
1.40001
1.40001
1.40001
1.40001
1.40001
1.40001
1.40001
1.40001
1.39988
2.42835
4.70828
4.75254
4.53106
4.21897
3.79777
1.40001
1.40001
1.40001
1.40001
1.40001
1.40001
1.40001
1.40001
1.39998
1.57066
3.9312
4.75604
4.49875
4.21602
3.85277
1.40001
1.40001
1.40001
1.40001
1.40001
1.40001
1.40001
1.40001
1.4
1.40318
2.60192
4.53421
4.48891
4.21618
3.90228
1.40001
1.40001
1.40001
1.40001
1.40001
1.40001
1.40001
1.40001
1.4
1.40001
1.61657
3.75927
4.56441
4.2755
3.98531
1.40001
1.40001
1.40001
1.40001
1.40001
1.40001
1.40001
1.40001
1.40001
1.40001
1.40569
2.32578
4.23968
4.33316
4.06176
1.40001
1.40001
1.40001
1.40001
1.40001
1.40001
1.40001
1.40001
1.40001
1.40001
1.40003
1.51991
3.23103
4.36275
4.17134
1.40001
1.40001
1.40001
1.40001
1.40001
1.40001
1.40001
1.40001
1.40001
1.40001
1.40001
1.4022
1.9119
3.81141
4.23348
1.40001
1.40001
1.40001
1.40001
1.40001
1.40001
1.40001
1.40001
1.40001
1.40001
1.40001
1.40001
1.43417
2.47565
3.98206
1.40001
1.40001
1.40001
1.40001
1.40001
1.40001
1.40001
1.40001
1.40001
1.40001
1.40001
1.40001
1.40043
1.55758
2.98231
1.40001
1.40001
1.40001
1.40001
1.40001
1.40001
1.40001
1.40001
1.40001
1.40001
1.40001
1.40001
1.40001
1.40442
1.78256
1.40001
1.40001
1.40001
1.40001
1.40001
1.40001
1.40001
1.40001
1.40001
1.40001
1.40001
1.40001
1.40001
1.40003
1.42133
1.40001
1.40001
1.40001
1.40001
1.40001
1.40001
1.40001
1.40001
1.40001
1.40001
1.40001
1.40001
1.40001
1.40001
1.40026
1.40001
1.40001
1.40001
1.40001
1.40001
1.40001
1.40001
1.40001
1.40001
1.40001
1.40001
1.40001
1.40001
1.40001
1.40001
1.40001
1.40001
1.40001
1.40001
1.40001
1.40001
1.40001
1.40001
1.40001
1.40001
1.40001
1.40001
1.40001
1.40001
1.40001
1.40001
1.40001
1.40001
1.40001
1.40001
1.40001
1.40001
1.40001
1.40001
1.40001
1.40001
1.40001
1.40001
1.40001
1.40001
1.50182
0.649355
0.415578
0.426861
0.44162
0.494381
0.617223
0.772518
0.872897
0.933323
0.981281
1.01873
1.03814
1.07175
1.09542
1.09595
1.08614
1.0735
1.07293
1.07433
1.07433
1.07197
1.10044
1.33316
2.13609
3.21917
3.46833
3.29445
3.13488
3.06976
3.02415
2.95517
2.86582
2.78181
2.70467
2.64139
2.58748
2.53477
2.48176
2.42972
2.37812
2.32311
2.26012
2.19545
2.14724
2.1131
2.08182
2.0504
2.01665
1.97711
1.9257
1.85986
1.80673
1.77967
1.75815
1.73851
1.72302
1.70461
1.68539
1.63643
2.23449
1.4526
1.0663
0.933782
0.820884
0.771078
0.776085
0.762869
0.784942
0.828512
0.876255
0.93573
0.9854
1.03013
1.07019
1.08836
1.08431
1.083
1.08581
1.08159
1.08198
1.12014
1.32368
1.74531
2.0378
2.63362
3.1091
3.19624
3.12309
3.07533
3.03125
2.95799
2.87371
2.79511
2.72203
2.65789
2.60175
2.54806
2.49541
2.44538
2.39672
2.3448
2.28361
2.21357
2.15502
2.11842
2.08868
2.05893
2.02659
1.99034
1.94707
1.89003
1.82634
1.78738
1.76205
1.73943
1.72115
1.7043
1.68664
1.6407
2.68646
2.05775
1.6215
1.32715
1.13091
0.987735
0.924161
0.860587
0.822715
0.848179
0.897544
0.947686
0.988999
1.01964
1.05836
1.0991
1.11631
1.13553
1.14087
1.14416
1.18727
1.43304
1.81733
2.15441
2.12933
2.21056
2.57692
3.00357
3.18479
3.22203
3.13909
3.05773
2.9803
2.88295
2.79176
2.71699
2.65445
2.59974
2.5463
2.49518
2.4489
2.40015
2.34316
2.27467
2.1995
2.13841
2.10115
2.07087
2.04051
2.00949
1.97818
1.93969
1.88244
1.824
1.78811
1.7618
1.73841
1.71356
1.68896
1.63977
3.00913
2.44487
2.03561
1.7233
1.48181
1.29375
1.1798
1.09353
0.996225
0.959394
0.944137
0.923558
0.932205
0.951883
0.992378
1.04006
1.08061
1.11392
1.13701
1.18638
1.44765
1.89768
2.1719
2.27196
2.23825
2.1965
2.21273
2.42076
2.80338
3.0624
3.11038
3.13606
3.08153
2.99544
2.87805
2.78448
2.71597
2.66124
2.61238
2.56182
2.51111
2.46184
2.4095
2.35033
2.27859
2.20328
2.15023
2.11446
2.08196
2.05066
2.01985
1.9861
1.94101
1.88046
1.82821
1.79497
1.76728
1.73728
1.70843
1.66073
3.21828
2.74123
2.34994
2.04627
1.77238
1.5662
1.42657
1.30698
1.18963
1.10011
1.03418
0.967949
0.935199
0.94124
0.951404
0.965867
1.00259
1.05354
1.12253
1.34168
1.85011
2.1171
2.21828
2.24501
2.23753
2.20732
2.1568
2.14708
2.26443
2.57339
2.87519
3.02599
3.08073
3.05782
2.96608
2.8793
2.80927
2.73866
2.6776
2.62129
2.56515
2.51487
2.46579
2.41247
2.34908
2.27722
2.21346
2.16825
2.13284
2.10096
2.07083
2.03873
1.99862
1.94222
1.87619
1.82849
1.7966
1.76593
1.73929
1.69615
3.36925
2.96742
2.59896
2.29738
2.03983
1.81564
1.6473
1.50172
1.37127
1.27768
1.19244
1.1206
1.04443
1.01621
0.995199
0.976438
0.980568
1.01087
1.22016
1.68629
2.01356
2.08121
2.12049
2.14195
2.16879
2.1483
2.12724
2.11658
2.10083
2.14462
2.33786
2.59952
2.87733
2.98464
2.94577
2.93511
2.89804
2.82786
2.74477
2.6697
2.60318
2.54887
2.50133
2.45404
2.4002
2.33645
2.27322
2.22117
2.17904
2.14321
2.1109
2.07816
2.04071
1.9924
1.92944
1.87235
1.83552
1.805
1.77934
1.73489
3.48187
3.12192
2.80756
2.51819
2.24566
2.0278
1.85106
1.69444
1.54595
1.43929
1.3431
1.25279
1.1737
1.11789
1.06359
1.01313
1.02355
1.20307
1.64437
1.92307
2.0171
1.99837
1.97784
1.98814
2.0231
2.04556
2.0496
2.06069
2.04095
2.01245
2.03024
2.12856
2.33865
2.63332
2.7916
2.8667
2.88801
2.85829
2.78883
2.71286
2.65626
2.59788
2.54005
2.48339
2.42378
2.36528
2.3142
2.26949
2.22684
2.18562
2.14663
2.10853
2.06751
2.02067
1.96622
1.91057
1.87163
1.84283
1.81995
1.77639
3.57824
3.26167
2.97368
2.69465
2.42935
2.22306
2.03838
1.86032
1.71262
1.60193
1.50088
1.40277
1.31118
1.23573
1.17296
1.16574
1.32161
1.76825
2.0411
2.08058
2.04336
1.98154
1.93893
1.92646
1.91394
1.90096
1.88912
1.89746
1.90819
1.90123
1.90729
1.93999
1.97751
2.09724
2.33288
2.55029
2.73906
2.77937
2.74602
2.73773
2.70455
2.65541
2.59216
2.52268
2.44611
2.38282
2.33504
2.2953
2.25744
2.21804
2.17663
2.13431
2.09036
2.04403
1.99608
1.94283
1.89807
1.86707
1.84743
1.80737
3.68137
3.38476
3.11044
2.84546
2.59969
2.39191
2.20437
2.0223
1.8728
1.75658
1.6446
1.53668
1.43671
1.36079
1.33401
1.50481
1.96304
2.28843
2.2512
2.17634
2.08829
2.01903
1.97463
1.93977
1.89978
1.86523
1.85103
1.82881
1.8024
1.78924
1.78906
1.80566
1.80149
1.80663
1.87369
2.01866
2.23064
2.45523
2.58065
2.65896
2.67181
2.66107
2.62723
2.55894
2.49144
2.42972
2.36858
2.31205
2.26717
2.22919
2.19024
2.15102
2.11253
2.07147
2.02668
1.97648
1.92749
1.88827
1.86525
1.8236
3.76967
3.49709
3.23493
2.9754
2.74877
2.55036
2.35864
2.17143
2.02678
1.89995
1.78517
1.66023
1.55302
1.53685
1.74154
2.25496
2.59035
2.54161
2.40677
2.29705
2.2152
2.14496
2.08237
2.01883
1.95871
1.90242
1.84677
1.80254
1.77997
1.75366
1.72091
1.70242
1.67541
1.66286
1.67033
1.69553
1.74529
1.88579
2.09856
2.3341
2.48609
2.55821
2.56724
2.56353
2.544
2.4809
2.40883
2.344
2.2813
2.23426
2.19342
2.15806
2.12663
2.09276
2.05232
2.00742
1.96018
1.91548
1.88345
1.83402
3.88439
3.62214
3.3626
3.10479
2.8931
2.69919
2.50134
2.31535
2.17346
2.04237
1.90233
1.77419
1.7497
2.01005
2.56473
2.89025
2.83535
2.69262
2.55245
2.44449
2.35731
2.27349
2.19096
2.1106
2.03855
1.97055
1.90817
1.8562
1.80355
1.74959
1.71135
1.68247
1.65071
1.63186
1.62115
1.59791
1.57638
1.586
1.6379
1.75675
1.96805
2.17231
2.32872
2.45377
2.4701
2.45762
2.44026
2.3984
2.32731
2.25871
2.20465
2.16403
2.12804
2.09678
2.06547
2.03
1.98931
1.9456
1.90619
1.84401
4.00372
3.73482
3.48118
3.23137
3.02011
2.82656
2.62972
2.45697
2.31529
2.16336
2.01854
2.00415
2.31453
2.93924
3.23834
3.16032
3.00122
2.84524
2.71836
2.6077
2.50181
2.40312
2.31245
2.22963
2.15363
2.0802
2.00947
1.94043
1.86876
1.8016
1.74832
1.69832
1.64903
1.62052
1.59774
1.57136
1.5501
1.53194
1.50428
1.48348
1.51017
1.60407
1.78177
2.03106
2.19004
2.31566
2.37895
2.37839
2.35272
2.30093
2.24723
2.18539
2.13657
2.1005
2.07404
2.04486
2.01072
1.96957
1.92645
1.8538
4.09394
3.87062
3.6013
3.3636
3.15638
2.96077
2.76643
2.6006
2.43741
2.2781
2.2917
2.69203
3.36691
3.58844
3.47444
3.28498
3.12267
2.98961
2.87094
2.75592
2.64312
2.53488
2.4333
2.33944
2.2525
2.17129
2.09382
2.01687
1.94094
1.86978
1.80493
1.74389
1.69338
1.65359
1.61021
1.57022
1.54204
1.51521
1.48101
1.45103
1.42983
1.40836
1.42133
1.49487
1.64983
1.86207
2.05118
2.19677
2.27912
2.2714
2.24655
2.19486
2.15191
2.11284
2.08064
2.05405
2.02484
1.98778
1.94332
1.85855
4.01008
3.98095
3.75057
3.50184
3.29947
3.09511
2.90789
2.73882
2.54734
2.59979
3.12653
3.85071
4.06786
3.8946
3.65707
3.44545
3.28272
3.14466
3.01641
2.89265
2.77299
2.65868
2.55084
2.45056
2.35785
2.27175
2.1896
2.10868
2.02845
1.94975
1.87513
1.81031
1.75895
1.71111
1.65865
1.60915
1.56388
1.51836
1.46959
1.43463
1.40977
1.38666
1.36645
1.33957
1.33886
1.38194
1.51343
1.70823
1.90462
2.05976
2.12896
2.14581
2.14422
2.13475
2.10347
2.05687
2.0203
1.99159
1.95431
1.87303
3.30603
3.95927
3.9015
3.66402
3.43831
3.23701
3.04443
2.83565
2.92202
3.62797
4.40113
4.47386
4.27839
4.0249
3.8136
3.6327
3.46436
3.30786
3.163
3.02646
2.89589
2.77137
2.65467
2.54749
2.44987
2.36016
2.27484
2.19169
2.10943
2.02561
1.94066
1.86251
1.79854
1.74543
1.69837
1.65329
1.60537
1.55219
1.49886
1.45675
1.41824
1.38214
1.35492
1.3239
1.29899
1.27905
1.27148
1.29753
1.39128
1.54096
1.72314
1.86377
1.98466
2.06391
2.06342
2.04981
2.02483
1.99584
1.97053
1.9003
2.0234
3.47277
3.8962
3.82936
3.61237
3.37592
3.13656
3.30131
4.16575
4.9704
5.08597
4.78743
4.4528
4.17557
3.96691
3.78957
3.62235
3.46172
3.30762
3.15917
3.01565
2.87814
2.74968
2.63307
2.52837
2.43408
2.34697
2.26373
2.1829
2.10173
2.01726
1.933
1.85602
1.79081
1.73967
1.69601
1.65146
1.60133
1.5507
1.50209
1.44924
1.39879
1.35645
1.31668
1.28585
1.25908
1.23348
1.21815
1.20995
1.21897
1.27069
1.38165
1.54953
1.72309
1.86784
1.95246
1.97171
1.95672
1.92461
1.86957
1.45479
2.23061
3.53319
3.86467
3.76196
3.49107
3.71742
4.87586
5.5484
5.5046
5.26305
4.96003
4.64753
4.37063
4.13357
3.93386
3.75704
3.59082
3.42919
3.27083
3.11685
2.96962
2.83225
2.70727
2.5948
2.49358
2.40185
2.31494
2.2289
2.14607
2.06556
1.98291
1.90219
1.83202
1.77099
1.71165
1.65341
1.59627
1.54356
1.50142
1.46769
1.42922
1.38072
1.33663
1.30139
1.26545
1.22864
1.19942
1.17427
1.16039
1.14863
1.14046
1.16858
1.25962
1.41197
1.57088
1.72582
1.84378
1.85311
1.82531
1.40103
1.49626
2.3664
3.64668
3.68857
4.11989
5.54017
6.30953
6.21181
5.81394
5.4229
5.09743
4.80077
4.52336
4.27061
4.0501
3.85726
3.6817
3.51403
3.34987
3.1896
3.03688
2.89526
2.76612
2.64934
2.5431
2.44596
2.35552
2.26628
2.17713
2.09313
2.01471
1.93791
1.86301
1.79764
1.73626
1.67874
1.62607
1.57911
1.53316
1.48457
1.44575
1.40732
1.36077
1.31584
1.27378
1.23656
1.20592
1.17736
1.15355
1.1292
1.11151
1.0971
1.09277
1.10491
1.15411
1.25457
1.41945
1.56189
1.67734
1.40001
1.40218
1.542
2.49028
3.41897
6.17033
6.96402
6.61193
6.3283
5.93161
5.53475
5.19085
4.89122
4.62353
4.37768
4.15011
3.94056
3.74752
3.56759
3.39769
3.23621
3.08351
2.94092
2.80917
2.6886
2.57705
2.47263
2.3768
2.29206
2.21343
2.12986
2.04192
1.97603
1.92658
1.86904
1.81083
1.75484
1.70045
1.64585
1.58933
1.53336
1.46526
1.39386
1.37209
1.35569
1.32777
1.2936
1.25545
1.21431
1.17485
1.14124
1.11447
1.09604
1.07277
1.05382
1.04065
1.04805
1.0882
1.1641
1.34605
1.40001
1.40002
1.40427
1.58968
3.85968
7.82558
7.89149
7.01731
6.53928
6.06763
5.62428
5.24377
4.92372
4.65355
4.41552
4.19366
3.98085
3.77749
3.58634
3.40969
3.24778
3.09863
2.95951
2.82873
2.70621
2.59214
2.48643
2.38701
2.28971
2.19491
2.11216
2.0436
1.97551
1.90016
1.82982
1.76739
1.71067
1.65671
1.60255
1.54569
1.48493
1.42954
1.39545
1.36883
1.33406
1.29725
1.25994
1.22112
1.17871
1.13462
1.09742
1.07388
1.05699
1.03557
1.01535
0.998866
0.985724
0.965468
0.963963
1.0249
)
;

boundaryField
{
    inlet
    {
        type            calculated;
        value           uniform 1.40001;
    }
    outlet
    {
        type            calculated;
        value           nonuniform List<scalar> 
20
(
1.63723
1.64101
1.63992
1.66023
1.69495
1.73368
1.77518
1.80613
1.82267
1.83375
1.84477
1.85558
1.86153
1.87522
1.90179
1.86884
1.82606
1.68001
1.34997
1.02769
)
;
    }
    bottom
    {
        type            symmetryPlane;
    }
    top
    {
        type            symmetryPlane;
    }
    obstacle
    {
        type            calculated;
        value           nonuniform List<scalar> 
65
(
5.83963
5.77875
5.69945
5.53362
5.36649
1.50182
0.649355
0.415578
0.426861
0.44162
0.494381
0.617223
0.772518
0.872897
0.933323
0.981281
1.01873
1.03814
1.07175
1.09542
1.09595
1.08614
1.0735
1.07293
1.07433
1.07433
1.07197
1.10044
1.33316
2.13609
3.21917
3.46833
3.29445
3.13488
3.06976
3.02415
2.95517
2.86582
2.78181
2.70467
2.64139
2.58748
2.53477
2.48176
2.42972
2.37812
2.32311
2.26012
2.19545
2.14724
2.1131
2.08182
2.0504
2.01665
1.97711
1.9257
1.85986
1.80673
1.77967
1.75815
1.73851
1.72302
1.70461
1.68539
1.63643
)
;
    }
    defaultFaces
    {
        type            empty;
    }
}


// ************************************************************************* //
