/*--------------------------------*- C++ -*----------------------------------*\
  =========                 |
  \\      /  F ield         | OpenFOAM: The Open Source CFD Toolbox
   \\    /   O peration     | Website:  https://openfoam.org
    \\  /    A nd           | Version:  7
     \\/     M anipulation  |
\*---------------------------------------------------------------------------*/
FoamFile
{
    version     2.0;
    format      ascii;
    class       volScalarField;
    location    "2.3";
    object      T;
}
// * * * * * * * * * * * * * * * * * * * * * * * * * * * * * * * * * * * * * //

dimensions      [0 0 0 1 0 0 0];

internalField   nonuniform List<scalar> 
1575
(
1
1
1
1
1
1
1
1.85617
2.66149
2.73792
2.77041
2.8015
2.82261
2.83488
2.84325
1
1
1
1
1
1
1
1.82077
2.64684
2.73296
2.7653
2.79437
2.8127
2.82079
2.82795
1
1
1
1
1
1
1
1.72529
2.61346
2.72081
2.75646
2.78644
2.80272
2.80501
2.80287
1
1
1
1
1
1
1
1.5589
2.54217
2.69705
2.73859
2.76693
2.77709
2.77142
2.76934
1
1
1
1
1
1
1
1.29494
2.42183
2.66409
2.70731
2.73926
2.75563
2.75773
2.78037
1
1
1
1
1
1
1
1.02757
2.27654
2.63609
2.66714
2.69407
2.70294
2.67019
2.585
1
1
1
1
1
1
1
1.00016
2.07221
2.57141
2.62797
2.63958
2.63081
2.59234
2.46655
1
1
1
1
1
1
1
0.999998
1.69176
2.46107
2.59236
2.59162
2.57016
2.52385
2.37753
1
1
1
1
1
1
1
1
1.15977
2.28059
2.55943
2.53754
2.50933
2.4562
2.33213
1
1
1
1
1
1
1
1
1.00678
2.07889
2.48314
2.46481
2.44454
2.39475
2.30411
1
1
1
1
1
1
1
1
0.99998
1.5788
2.33739
2.43721
2.40238
2.35364
2.28042
1
1
1
1
1
1
1
1
0.999993
1.08615
2.09862
2.39912
2.36016
2.31767
2.25598
1
1
1
1
1
1
1
1
0.999999
1.00146
1.61077
2.24686
2.3182
2.27957
2.23025
1
1
1
1
1
1
1
1
1
1
1.10706
1.99462
2.28626
2.24675
2.20778
1
1
1
1
1
1
1
1
1
1
1.00242
1.45258
2.08773
2.22141
2.17999
1
1
1
1
1
1
1
1
1
1
1.00001
1.05645
1.77618
2.1699
2.15094
1
1
1
1
1
1
1
1
1
1
1
1.00085
1.24618
1.93818
2.12082
1
1
1
1
1
1
1
1
1
1
1
1
1.01455
1.48347
1.965
1
1
1
1
1
1
1
1
1
1
1
1
1.00014
1.07219
1.64875
1
1
1
1
1
1
1
1
1
1
1
1
1
1.00161
1.17795
1
1
1
1
1
1
1
1
1
1
1
1
1
1.00001
1.00845
1
1
1
1
1
1
1
1
1
1
1
1
1
1
1.00008
1
1
1
1
1
1
1
1
1
1
1
1
1
1
1
1
1
1
1
1
1
1
1
1
1
1
1
1
1
1
1
1
1
1
1
1
1
1
1
1
1
1
1
1
1
1.81506
1.32562
1.20109
1.28326
1.3556
1.45095
1.55454
1.6186
1.64716
1.67763
1.73208
1.7608
1.75649
1.75159
1.7456
1.74547
1.7439
1.73948
1.73047
1.71564
1.70283
1.69432
1.71462
1.87171
2.267
2.65609
2.72225
2.66482
2.60641
2.56269
2.53433
2.50765
2.48221
2.45923
2.43329
2.40755
2.38486
2.36522
2.3485
2.33341
2.31749
2.29805
2.2737
2.24823
2.2296
2.21622
2.20275
2.18778
2.17087
2.15134
2.1271
2.09694
2.07188
2.05816
2.04678
2.03612
2.02736
2.01696
2.00611
1.98406
2.05655
1.76891
1.56891
1.52595
1.49261
1.47929
1.46589
1.43848
1.45395
1.49066
1.53641
1.58411
1.61693
1.63512
1.64872
1.66296
1.67071
1.67695
1.67494
1.66474
1.65702
1.68075
1.80462
2.01165
2.11177
2.34391
2.51375
2.55509
2.53253
2.50685
2.48579
2.46193
2.4404
2.42237
2.40228
2.38032
2.35941
2.34084
2.32528
2.3121
2.29867
2.28201
2.25978
2.23322
2.21125
2.198
2.18667
2.17391
2.15873
2.14132
2.12115
2.09564
2.06728
2.04904
2.03651
2.02499
2.01532
2.00617
1.99672
1.97649
2.11949
1.9362
1.78272
1.66593
1.5755
1.49479
1.44454
1.399
1.37525
1.39467
1.42749
1.45421
1.48077
1.49989
1.52102
1.54498
1.56415
1.58681
1.59412
1.59472
1.6208
1.76035
1.93677
2.05158
2.02641
2.05376
2.19959
2.35855
2.41373
2.4409
2.41883
2.3967
2.37612
2.35562
2.33696
2.31875
2.30092
2.28508
2.27109
2.25937
2.24916
2.23642
2.21846
2.19492
2.16903
2.14897
2.13758
2.12739
2.11544
2.10207
2.08872
2.07313
2.05009
2.02571
2.01021
1.99853
1.98795
1.97691
1.96616
1.94577
2.16474
2.01313
1.88962
1.78186
1.68472
1.59628
1.53645
1.48646
1.43063
1.41065
1.40005
1.38863
1.39172
1.40102
1.42169
1.4466
1.46966
1.49087
1.50557
1.53492
1.68243
1.89832
1.99906
2.02743
2.01325
1.99207
1.98896
2.0661
2.19504
2.28544
2.30515
2.31736
2.3051
2.28661
2.26062
2.24121
2.22584
2.21243
2.20103
2.18998
2.17907
2.16757
2.15319
2.13505
2.11274
2.09011
2.07542
2.06568
2.05544
2.04434
2.03336
2.02198
2.00645
1.98406
1.96384
1.95101
1.94045
1.92941
1.91907
1.90188
2.18899
2.06879
1.95975
1.86691
1.76943
1.68618
1.62688
1.57292
1.51584
1.46748
1.42962
1.39288
1.37232
1.37535
1.38063
1.387
1.40458
1.4298
1.46635
1.59392
1.85342
1.96378
1.99059
1.98637
1.97785
1.95977
1.93587
1.91886
1.95891
2.06597
2.16142
2.20318
2.22588
2.22174
2.20278
2.186
2.16999
2.15245
2.13807
2.12485
2.11127
2.0992
2.08664
2.07136
2.05218
2.03105
2.01344
2.00171
1.99217
1.98279
1.97371
1.96433
1.95252
1.93404
1.91006
1.89215
1.88062
1.87051
1.86302
1.85141
2.19274
2.1018
2.00776
1.9221
1.83934
1.76137
1.70009
1.64161
1.5831
1.53866
1.49649
1.45825
1.41802
1.40278
1.39093
1.38011
1.38237
1.40003
1.52837
1.78452
1.92374
1.92903
1.9306
1.92357
1.92006
1.90542
1.89145
1.88078
1.86354
1.87462
1.9405
2.02404
2.10719
2.13606
2.13096
2.13515
2.12773
2.11073
2.09022
2.07149
2.05452
2.04093
2.029
2.01603
1.99985
1.98042
1.962
1.94774
1.93642
1.92662
1.91774
1.90891
1.89883
1.88448
1.86296
1.84157
1.8277
1.81767
1.81136
1.80201
2.18628
2.10984
2.03757
1.96273
1.88325
1.81559
1.75707
1.70042
1.64191
1.59793
1.55513
1.51146
1.47193
1.44419
1.41561
1.38853
1.39628
1.50995
1.75193
1.88131
1.88113
1.86618
1.84663
1.83589
1.83591
1.83421
1.82994
1.82772
1.81534
1.79149
1.79238
1.82195
1.89342
1.98581
2.03206
2.05573
2.06685
2.05957
2.04343
2.02689
2.01378
1.99898
1.98496
1.97001
1.95225
1.93403
1.91875
1.90601
1.8941
1.88265
1.87177
1.8613
1.85022
1.837
1.8197
1.79961
1.78437
1.77392
1.7679
1.75946
2.17409
2.11118
2.04953
1.98353
1.91362
1.85632
1.80083
1.74191
1.68876
1.64747
1.60663
1.56532
1.52463
1.4895
1.45632
1.45856
1.55152
1.77553
1.90541
1.89603
1.86729
1.83321
1.80608
1.78552
1.76627
1.75156
1.7384
1.73582
1.73421
1.72146
1.7132
1.71694
1.72523
1.76657
1.84705
1.91553
1.97308
1.98163
1.97542
1.97983
1.97464
1.96512
1.95084
1.93317
1.91187
1.89294
1.87852
1.86685
1.85609
1.84483
1.8327
1.82041
1.80819
1.79564
1.78202
1.76468
1.74778
1.7355
1.72922
1.7204
2.16001
2.10684
2.05127
1.99339
1.93509
1.88228
1.83029
1.77473
1.72627
1.6872
1.64651
1.6049
1.56406
1.52918
1.52526
1.62487
1.84072
1.96096
1.94172
1.90195
1.85603
1.81874
1.7911
1.76675
1.74033
1.71501
1.69721
1.67979
1.66358
1.64889
1.63861
1.63724
1.62909
1.62491
1.64749
1.70015
1.77472
1.84408
1.87994
1.90183
1.91538
1.91583
1.91127
1.89769
1.88152
1.86381
1.84561
1.82914
1.81649
1.80546
1.79346
1.78135
1.77032
1.75966
1.74835
1.7343
1.71803
1.70331
1.69473
1.68305
2.13748
2.0949
2.04824
1.99577
1.94661
1.90045
1.85127
1.79858
1.75632
1.71686
1.67879
1.63495
1.59017
1.59375
1.70334
1.92014
2.02755
2.00416
1.95083
1.90363
1.86455
1.82834
1.79441
1.76049
1.72766
1.69672
1.66894
1.64549
1.62849
1.60928
1.58737
1.57121
1.55404
1.54031
1.5401
1.54591
1.56309
1.61666
1.69159
1.76641
1.81395
1.8338
1.8436
1.85275
1.84934
1.83352
1.8141
1.79631
1.77929
1.76568
1.75277
1.74157
1.73249
1.72386
1.71418
1.70324
1.69014
1.67577
1.66426
1.64854
2.11505
2.07975
2.03991
1.99319
1.95158
1.91054
1.86416
1.81638
1.77886
1.74122
1.6989
1.65182
1.65523
1.7829
1.99758
2.08413
2.05877
2.00534
1.95307
1.91028
1.87251
1.83474
1.79653
1.75827
1.72275
1.6897
1.66072
1.6361
1.61115
1.58451
1.56085
1.53938
1.51769
1.50329
1.4939
1.48024
1.46801
1.46978
1.48805
1.5361
1.61571
1.68004
1.72861
1.77061
1.7783
1.77957
1.77842
1.76994
1.7514
1.73093
1.71439
1.70276
1.69304
1.6848
1.67698
1.66881
1.65931
1.64794
1.63565
1.61607
2.09055
2.05647
2.0227
1.98402
1.94753
1.9097
1.86763
1.8287
1.79442
1.75474
1.7111
1.71659
1.85713
2.07616
2.14298
2.11424
2.06067
2.00649
1.95904
1.91689
1.87661
1.83772
1.80003
1.76365
1.72927
1.69634
1.6655
1.63598
1.60479
1.5737
1.54546
1.51743
1.49063
1.47281
1.4579
1.4431
1.43214
1.42241
1.40883
1.39653
1.40753
1.4463
1.51513
1.60247
1.65155
1.69025
1.71645
1.72053
1.71432
1.6997
1.68549
1.67011
1.65807
1.64816
1.64047
1.63279
1.62524
1.61629
1.60473
1.58325
2.07088
2.03936
2.00236
1.96988
1.93931
1.90663
1.86994
1.83577
1.79889
1.76278
1.77373
1.93505
2.15425
2.18593
2.14989
2.09421
2.04362
1.99822
1.95623
1.91619
1.87718
1.8387
1.80076
1.76388
1.72864
1.69534
1.6636
1.63211
1.59997
1.56798
1.53687
1.50648
1.48025
1.45923
1.43791
1.41856
1.40408
1.39028
1.37473
1.36125
1.35084
1.3379
1.34237
1.3738
1.43771
1.51324
1.57689
1.62659
1.64873
1.64932
1.64535
1.63479
1.62644
1.61666
1.60673
1.59891
1.59213
1.58413
1.5729
1.54933
1.97569
2.02304
1.99154
1.95676
1.92968
1.8994
1.86775
1.83494
1.80119
1.82705
2.01097
2.21606
2.25112
2.20567
2.14279
2.08267
2.03263
1.98809
1.94674
1.90742
1.86929
1.83192
1.79517
1.75945
1.72533
1.693
1.6617
1.63042
1.59851
1.5658
1.53341
1.50416
1.47925
1.4552
1.42995
1.40736
1.38773
1.36886
1.34918
1.33458
1.3235
1.31227
1.30123
1.28765
1.28571
1.30538
1.36299
1.43905
1.50367
1.55089
1.57605
1.58737
1.5923
1.5901
1.58098
1.56744
1.55828
1.55202
1.54287
1.52236
1.72452
1.96074
1.9744
1.94609
1.91759
1.89083
1.8605
1.83016
1.86792
2.08644
2.28587
2.27865
2.22979
2.1729
2.12077
2.07144
2.02304
1.97685
1.9339
1.89362
1.85502
1.81749
1.78112
1.74642
1.71375
1.68291
1.65289
1.62287
1.59217
1.55998
1.52672
1.4952
1.4678
1.44393
1.42237
1.40166
1.38111
1.36026
1.34001
1.32442
1.30975
1.29537
1.28353
1.26996
1.25825
1.24845
1.24303
1.25487
1.29752
1.35885
1.42632
1.47592
1.51762
1.54404
1.54358
1.53817
1.53023
1.52349
1.51838
1.50357
1.27607
1.75247
1.92662
1.93172
1.90868
1.8771
1.84813
1.91063
2.14273
2.3336
2.34373
2.28319
2.21199
2.14942
2.09809
2.05143
2.00591
1.96167
1.91924
1.87855
1.83921
1.80114
1.76481
1.73081
1.69924
1.66972
1.64131
1.6131
1.58487
1.55587
1.5252
1.49438
1.46597
1.44126
1.42145
1.40398
1.3858
1.36579
1.34573
1.32662
1.3064
1.28865
1.27493
1.26104
1.24791
1.23414
1.22039
1.21212
1.20767
1.21183
1.23624
1.28773
1.35626
1.41953
1.46813
1.4941
1.49265
1.48682
1.4789
1.46967
1.02243
1.34679
1.75049
1.89764
1.88977
1.86197
1.94059
2.22921
2.36365
2.35144
2.30798
2.25452
2.19405
2.1361
2.08216
2.03316
1.98793
1.9449
1.90313
1.86237
1.8229
1.78528
1.75005
1.71744
1.68705
1.65828
1.63045
1.60244
1.57408
1.54675
1.52003
1.49256
1.46592
1.44213
1.42101
1.40044
1.37918
1.35651
1.33461
1.3168
1.30322
1.28947
1.27398
1.26089
1.2484
1.23262
1.21542
1.20164
1.18944
1.18146
1.17446
1.1707
1.18547
1.23067
1.29784
1.35807
1.40862
1.44219
1.44369
1.43957
1.00033
1.04011
1.38494
1.77193
1.82277
1.96208
2.2732
2.433
2.41594
2.34856
2.28094
2.22506
2.17286
2.1207
2.06908
2.02039
1.97494
1.93177
1.89008
1.84936
1.81006
1.77332
1.73985
1.7093
1.68063
1.65275
1.62515
1.59748
1.56907
1.54095
1.51496
1.49066
1.46586
1.44124
1.41933
1.39824
1.37738
1.35697
1.33819
1.32013
1.30234
1.28948
1.27727
1.26196
1.24648
1.23058
1.21499
1.20102
1.18755
1.17602
1.16423
1.15516
1.14792
1.14546
1.15226
1.17889
1.22751
1.29581
1.34277
1.38785
1
1.00074
1.05856
1.43402
1.69623
2.33938
2.49822
2.43968
2.39584
2.33282
2.2664
2.2088
2.15881
2.11233
2.06615
2.01954
1.97321
1.92811
1.88468
1.84332
1.8046
1.76914
1.73705
1.70761
1.6797
1.65189
1.6236
1.59587
1.57005
1.54555
1.51984
1.49307
1.4726
1.45701
1.43838
1.41832
1.39785
1.37743
1.35702
1.33648
1.31689
1.29359
1.26922
1.263
1.2587
1.24943
1.23577
1.21903
1.20093
1.18372
1.16863
1.15619
1.14724
1.1361
1.12672
1.11919
1.12234
1.14045
1.17457
1.26637
1
1
1.00148
1.08108
1.91569
2.69477
2.66749
2.50164
2.41691
2.34014
2.26812
2.20619
2.15426
2.10899
2.0657
2.02126
1.97525
1.92888
1.8835
1.84086
1.80228
1.76801
1.73721
1.70854
1.68075
1.65285
1.6247
1.59649
1.56774
1.53877
1.51301
1.49196
1.47184
1.44908
1.42623
1.4043
1.38321
1.3626
1.34191
1.32062
1.29851
1.27924
1.2688
1.26124
1.25028
1.23699
1.22159
1.20436
1.18532
1.16563
1.14874
1.13755
1.12928
1.11907
1.1092
1.10033
1.09281
1.07964
1.07983
1.12023
)
;

boundaryField
{
    inlet
    {
        type            fixedValue;
        value           uniform 1;
    }
    outlet
    {
        type            inletOutlet;
        inletValue      uniform 1;
        value           nonuniform List<scalar> 
20
(
1.98309
1.97611
1.94559
1.90245
1.85272
1.80327
1.76066
1.72158
1.68391
1.64879
1.61541
1.58173
1.54686
1.52059
1.50239
1.47024
1.43898
1.38564
1.26269
1.11719
)
;
    }
    bottom
    {
        type            symmetryPlane;
    }
    top
    {
        type            symmetryPlane;
    }
    obstacle
    {
        type            zeroGradient;
    }
    defaultFaces
    {
        type            empty;
    }
}


// ************************************************************************* //
