/*--------------------------------*- C++ -*----------------------------------*\
  =========                 |
  \\      /  F ield         | OpenFOAM: The Open Source CFD Toolbox
   \\    /   O peration     | Website:  https://openfoam.org
    \\  /    A nd           | Version:  7
     \\/     M anipulation  |
\*---------------------------------------------------------------------------*/
FoamFile
{
    version     2.0;
    format      ascii;
    class       volScalarField;
    location    "4";
    object      rho;
}
// * * * * * * * * * * * * * * * * * * * * * * * * * * * * * * * * * * * * * //

dimensions      [1 -3 0 0 0 0 0];

internalField   nonuniform List<scalar> 
6300
(
1.40001
1.40001
1.40001
1.40001
1.40001
1.40001
1.40001
1.40001
1.40001
1.40001
1.40001
1.40001
1.40001
1.40001
1.42548
4.08303
5.44533
5.49259
5.55189
5.60888
5.6637
5.7157
5.76483
5.81119
5.85455
5.89357
5.92674
5.95145
5.9692
5.98243
1.40001
1.40001
1.40001
1.40001
1.40001
1.40001
1.40001
1.40001
1.40001
1.40001
1.40001
1.40001
1.40001
1.40001
1.40332
4.03553
5.43477
5.48619
5.54508
5.60247
5.65708
5.70858
5.75694
5.80232
5.8445
5.88217
5.91401
5.93756
5.9542
5.96699
1.40001
1.40001
1.40001
1.40001
1.40001
1.40001
1.40001
1.40001
1.40001
1.40001
1.40001
1.40001
1.40001
1.40001
1.4001
3.92307
5.41925
5.47437
5.53231
5.58999
5.64428
5.6954
5.74328
5.78809
5.82956
5.86622
5.89667
5.9187
5.93345
5.9452
1.40001
1.40001
1.40001
1.40001
1.40001
1.40001
1.40001
1.40001
1.40001
1.40001
1.40001
1.40001
1.40001
1.40001
1.4
3.74842
5.39219
5.45726
5.51365
5.57133
5.62455
5.67441
5.72093
5.76444
5.80473
5.84016
5.86914
5.88946
5.90224
5.91281
1.40001
1.40001
1.40001
1.40001
1.40001
1.40001
1.40001
1.40001
1.40001
1.40001
1.40001
1.40001
1.40001
1.40001
1.4
3.51599
5.35179
5.43649
5.49096
5.54832
5.59991
5.64765
5.69166
5.73235
5.7697
5.80227
5.8289
5.84762
5.85899
5.87013
1.40001
1.40001
1.40001
1.40001
1.40001
1.40001
1.40001
1.40001
1.40001
1.40001
1.40001
1.40001
1.40001
1.40001
1.40001
3.23066
5.29191
5.41403
5.4657
5.52128
5.57008
5.61457
5.65514
5.69253
5.72713
5.75751
5.78166
5.79634
5.80168
5.80665
1.40001
1.40001
1.40001
1.40001
1.40001
1.40001
1.40001
1.40001
1.40001
1.40001
1.40001
1.40001
1.40001
1.40001
1.40001
2.89464
5.19698
5.39594
5.44208
5.49285
5.53646
5.57554
5.61064
5.64228
5.6704
5.6935
5.70895
5.71851
5.72043
5.73092
1.40001
1.40001
1.40001
1.40001
1.40001
1.40001
1.40001
1.40001
1.40001
1.40001
1.40001
1.40001
1.40001
1.40001
1.40001
2.52088
5.05665
5.40474
5.43347
5.475
5.51014
5.53999
5.56523
5.58678
5.60476
5.62018
5.62937
5.63459
5.62502
5.60661
1.40001
1.40001
1.40001
1.40001
1.40001
1.40001
1.40001
1.40001
1.40001
1.40001
1.40001
1.40001
1.40001
1.40001
1.40001
2.11358
4.85079
5.42481
5.43346
5.4639
5.48722
5.50594
5.51936
5.5283
5.53317
5.53334
5.51796
5.48783
5.45032
5.42656
1.40001
1.40001
1.40001
1.40001
1.40001
1.40001
1.40001
1.40001
1.40001
1.40001
1.40001
1.40001
1.40001
1.40001
1.40001
1.69426
4.59081
5.46458
5.42164
5.44636
5.46213
5.47039
5.47105
5.46564
5.45374
5.42928
5.39106
5.34005
5.26708
5.22112
1.40001
1.40001
1.40001
1.40001
1.40001
1.40001
1.40001
1.40001
1.40001
1.40001
1.40001
1.40001
1.40001
1.40001
1.40001
1.4247
4.09688
5.38352
5.37322
5.40686
5.41943
5.42279
5.41297
5.39443
5.3648
5.31711
5.24413
5.1227
4.79111
3.91964
1.40001
1.40001
1.40001
1.40001
1.40001
1.40001
1.40001
1.40001
1.40001
1.40001
1.40001
1.40001
1.40001
1.40001
1.40001
1.40004
3.41642
5.18252
5.29319
5.34524
5.36128
5.36445
5.34806
5.3187
5.27049
5.19584
5.0816
4.87642
4.52894
3.59996
1.40001
1.40001
1.40001
1.40001
1.40001
1.40001
1.40001
1.40001
1.40001
1.40001
1.40001
1.40001
1.40001
1.40001
1.40001
1.4
2.73334
4.99218
5.27374
5.30176
5.31308
5.30688
5.28315
5.24314
5.17664
5.07593
4.92995
4.6812
4.31428
3.4599
1.40001
1.40001
1.40001
1.40001
1.40001
1.40001
1.40001
1.40001
1.40001
1.40001
1.40001
1.40001
1.40001
1.40001
1.40001
1.4
2.04044
4.77093
5.27746
5.26145
5.26209
5.24898
5.21708
5.16505
5.08488
4.96473
4.79425
4.5403
4.13976
3.45623
1.40001
1.40001
1.40001
1.40001
1.40001
1.40001
1.40001
1.40001
1.40001
1.40001
1.40001
1.40001
1.40001
1.40001
1.40001
1.40001
1.4987
4.21234
5.29043
5.23173
5.20632
5.18231
5.14176
5.08026
4.99239
4.86332
4.67985
4.42776
4.02836
3.48979
1.40001
1.40001
1.40001
1.40001
1.40001
1.40001
1.40001
1.40001
1.40001
1.40001
1.40001
1.40001
1.40001
1.40001
1.40001
1.40001
1.40094
3.38329
5.08741
5.16086
5.14692
5.11773
5.06847
4.99783
4.90247
4.77103
4.58894
4.33753
3.97294
3.54427
1.40001
1.40001
1.40001
1.40001
1.40001
1.40001
1.40001
1.40001
1.40001
1.40001
1.40001
1.40001
1.40001
1.40001
1.40001
1.40001
1.39999
2.39133
4.86427
5.16355
5.12135
5.08429
5.02059
4.93484
4.82653
4.68885
4.51221
4.26623
3.94791
3.59449
1.40001
1.40001
1.40001
1.40001
1.40001
1.40001
1.40001
1.40001
1.40001
1.40001
1.40001
1.40001
1.40001
1.40001
1.40001
1.40001
1.4
1.58666
4.38048
5.20974
5.11937
5.04171
4.96313
4.86904
4.75508
4.6205
4.44472
4.21398
3.94035
3.64415
1.40001
1.40001
1.40001
1.40001
1.40001
1.40001
1.40001
1.40001
1.40001
1.40001
1.40001
1.40001
1.40001
1.40001
1.40001
1.40001
1.4
1.40422
3.44329
5.00152
5.02162
4.9827
4.90976
4.81573
4.69795
4.56838
4.39015
4.17891
3.93766
3.68021
1.40001
1.40001
1.40001
1.40001
1.40001
1.40001
1.40001
1.40001
1.40001
1.40001
1.40001
1.40001
1.40001
1.40001
1.40001
1.40001
1.40001
1.39996
2.27169
4.80342
5.0259
4.96297
4.88664
4.79057
4.67218
4.533
4.35852
4.16313
3.9428
3.71483
1.40001
1.40001
1.40001
1.40001
1.40001
1.40001
1.40001
1.40001
1.40001
1.40001
1.40001
1.40001
1.40001
1.40001
1.40001
1.40001
1.40001
1.39999
1.52804
4.05507
4.98344
4.9302
4.85943
4.76459
4.64931
4.50799
4.34047
4.156
3.94962
3.74072
1.40001
1.40001
1.40001
1.40001
1.40001
1.40001
1.40001
1.40001
1.40001
1.40001
1.40001
1.40001
1.40001
1.40001
1.40001
1.40001
1.40001
1.4
1.40149
2.81017
4.80231
4.89979
4.83774
4.75443
4.64033
4.49737
4.33556
4.15825
3.96284
3.76727
1.40001
1.40001
1.40001
1.40001
1.40001
1.40001
1.40001
1.40001
1.40001
1.40001
1.40001
1.40001
1.40001
1.40001
1.40001
1.40001
1.40001
1.4
1.4
1.70019
4.32039
4.94762
4.84693
4.757
4.63342
4.48888
4.33219
4.16271
3.97878
3.7948
1.40001
1.40001
1.40001
1.40001
1.40001
1.40001
1.40001
1.40001
1.40001
1.40001
1.40001
1.40001
1.40001
1.40001
1.40001
1.40001
1.40001
1.40001
1.4
1.41122
3.15007
4.78179
4.80497
4.73354
4.61776
4.48117
4.33039
4.16864
3.99704
3.823
1.40001
1.40001
1.40001
1.40001
1.40001
1.40001
1.40001
1.40001
1.40001
1.40001
1.40001
1.40001
1.40001
1.40001
1.40001
1.40001
1.40001
1.40001
1.4
1.40001
1.84564
4.36886
4.86776
4.7484
4.62455
4.48889
4.34143
4.18599
4.0238
3.85663
1.40001
1.40001
1.40001
1.40001
1.40001
1.40001
1.40001
1.40001
1.40001
1.40001
1.40001
1.40001
1.40001
1.40001
1.40001
1.40001
1.40001
1.40001
1.40001
1.40001
1.42631
3.23134
4.74201
4.71893
4.61574
4.4913
4.3494
4.20057
4.04503
3.88559
1.40001
1.40001
1.40001
1.40001
1.40001
1.40001
1.40001
1.40001
1.40001
1.40001
1.40001
1.40001
1.40001
1.40001
1.40001
1.40001
1.40001
1.40001
1.40001
1.40001
1.4001
1.88546
4.2738
4.7648
4.63729
4.50821
4.36648
4.22368
4.07581
3.9244
1.40001
1.40001
1.40001
1.40001
1.40001
1.40001
1.40001
1.40001
1.40001
1.40001
1.40001
1.40001
1.40001
1.40001
1.40001
1.40001
1.40001
1.40001
1.40001
1.40001
1.40001
1.43062
3.06567
4.64644
4.62644
4.50842
4.37905
4.24571
4.10789
3.96558
1.40001
1.40001
1.40001
1.40001
1.40001
1.40001
1.40001
1.40001
1.40001
1.40001
1.40001
1.40001
1.40001
1.40001
1.40001
1.40001
1.40001
1.40001
1.40001
1.40001
1.40001
1.4002
1.80165
4.04673
4.66984
4.53532
4.41325
4.28272
4.14799
4.00982
1.40001
1.40001
1.40001
1.40001
1.40001
1.40001
1.40001
1.40001
1.40001
1.40001
1.40001
1.40001
1.40001
1.40001
1.40001
1.40001
1.40001
1.40001
1.40001
1.40001
1.40001
1.40001
1.42036
2.66092
4.46761
4.55148
4.43909
4.31578
4.18277
4.04573
1.40001
1.40001
1.40001
1.40001
1.40001
1.40001
1.40001
1.40001
1.40001
1.40001
1.40001
1.40001
1.40001
1.40001
1.40001
1.40001
1.40001
1.40001
1.40001
1.40001
1.40001
1.40001
1.40016
1.6246
3.64253
4.60915
4.49035
4.3651
4.22789
4.08977
1.40001
1.40001
1.40001
1.40001
1.40001
1.40001
1.40001
1.40001
1.40001
1.40001
1.40001
1.40001
1.40001
1.40001
1.40001
1.40001
1.40001
1.40001
1.40001
1.40001
1.40001
1.40001
1.40001
1.40657
2.20187
4.20746
4.51934
4.38788
4.25915
4.12776
1.40001
1.40001
1.40001
1.40001
1.40001
1.40001
1.40001
1.40001
1.40001
1.40001
1.40001
1.40001
1.40001
1.40001
1.40001
1.40001
1.40001
1.40001
1.40001
1.40001
1.40001
1.40001
1.40001
1.40005
1.48382
3.01428
4.42558
4.41882
4.30931
4.18422
1.40001
1.40001
1.40001
1.40001
1.40001
1.40001
1.40001
1.40001
1.40001
1.40001
1.40001
1.40001
1.40001
1.40001
1.40001
1.40001
1.40001
1.40001
1.40001
1.40001
1.40001
1.40001
1.40001
1.40001
1.4014
1.77467
3.7146
4.45264
4.36456
4.23663
1.40001
1.40001
1.40001
1.40001
1.40001
1.40001
1.40001
1.40001
1.40001
1.40001
1.40001
1.40001
1.40001
1.40001
1.40001
1.40001
1.40001
1.40001
1.40001
1.40001
1.40001
1.40001
1.40001
1.40001
1.40001
1.41852
2.29107
4.11225
4.39362
4.2905
1.40001
1.40001
1.40001
1.40001
1.40001
1.40001
1.40001
1.40001
1.40001
1.40001
1.40001
1.40001
1.40001
1.40001
1.40001
1.40001
1.40001
1.40001
1.40001
1.40001
1.40001
1.40001
1.40001
1.40001
1.40001
1.40019
1.5035
2.91518
4.26607
4.33473
1.40001
1.40001
1.40001
1.40001
1.40001
1.40001
1.40001
1.40001
1.40001
1.40001
1.40001
1.40001
1.40001
1.40001
1.40001
1.40001
1.40001
1.40001
1.40001
1.40001
1.40001
1.40001
1.40001
1.40001
1.40001
1.40001
1.40218
1.72113
3.46906
4.30358
1.40001
1.40001
1.40001
1.40001
1.40001
1.40001
1.40001
1.40001
1.40001
1.40001
1.40001
1.40001
1.40001
1.40001
1.40001
1.40001
1.40001
1.40001
1.40001
1.40001
1.40001
1.40001
1.40001
1.40001
1.40001
1.40001
1.40002
1.41454
2.08455
3.80997
1.40001
1.40001
1.40001
1.40001
1.40001
1.40001
1.40001
1.40001
1.40001
1.40001
1.40001
1.40001
1.40001
1.40001
1.40001
1.40001
1.40001
1.40001
1.40001
1.40001
1.40001
1.40001
1.40001
1.40001
1.40001
1.40001
1.40001
1.40016
1.46062
2.49027
1.40001
1.40001
1.40001
1.40001
1.40001
1.40001
1.40001
1.40001
1.40001
1.40001
1.40001
1.40001
1.40001
1.40001
1.40001
1.40001
1.40001
1.40001
1.40001
1.40001
1.40001
1.40001
1.40001
1.40001
1.40001
1.40001
1.40001
1.40001
1.401
1.56514
1.40001
1.40001
1.40001
1.40001
1.40001
1.40001
1.40001
1.40001
1.40001
1.40001
1.40001
1.40001
1.40001
1.40001
1.40001
1.40001
1.40001
1.40001
1.40001
1.40001
1.40001
1.40001
1.40001
1.40001
1.40001
1.40001
1.40001
1.40001
1.40001
1.40499
1.40001
1.40001
1.40001
1.40001
1.40001
1.40001
1.40001
1.40001
1.40001
1.40001
1.40001
1.40001
1.40001
1.40001
1.40001
1.40001
1.40001
1.40001
1.40001
1.40001
1.40001
1.40001
1.40001
1.40001
1.40001
1.40001
1.40001
1.40001
1.40001
1.40004
1.40001
1.40001
1.40001
1.40001
1.40001
1.40001
1.40001
1.40001
1.40001
1.40001
1.40001
1.40001
1.40001
1.40001
1.40001
1.40001
1.40001
1.40001
1.40001
1.40001
1.40001
1.40001
1.40001
1.40001
1.40001
1.40001
1.40001
1.40001
1.40001
1.40001
1.40001
1.40001
1.40001
1.40001
1.40001
1.40001
1.40001
1.40001
1.40001
1.40001
1.40001
1.40001
1.40001
1.40001
1.40001
1.40001
1.40001
1.40001
1.40001
1.40001
1.40001
1.40001
1.40001
1.40001
1.40001
1.40001
1.40001
1.40001
1.40001
1.40001
1.40001
1.40001
1.40001
1.40001
1.40001
1.40001
1.40001
1.40001
1.40001
1.40001
1.40001
1.40001
1.40001
1.40001
1.40001
1.40001
1.40001
1.40001
1.40001
1.40001
1.40001
1.40001
1.40001
1.40001
1.40001
1.40001
1.40001
1.40001
1.40001
1.40001
1.40001
1.40001
1.40001
1.40001
1.40001
1.40001
1.40001
1.40001
1.40001
1.40001
1.40001
1.40001
1.40001
1.40001
1.40001
1.40001
1.40001
1.40001
1.40001
1.40001
1.40001
1.40001
1.40001
1.40001
1.40001
1.40001
1.40001
1.40001
1.40001
1.40001
1.40001
1.40001
1.40001
1.40001
1.40001
1.40001
1.40001
1.40001
1.40001
1.40001
1.40001
1.40001
1.40001
1.40001
1.40001
1.40001
1.40001
1.40001
1.40001
1.40001
1.40001
1.40001
1.40001
1.40001
1.40001
1.40001
1.40001
1.40001
1.40001
1.40001
1.40001
1.40001
1.40001
1.40001
1.40001
1.40001
1.40001
1.40001
1.40001
1.40001
1.40001
1.40001
1.40001
1.40001
1.40001
1.40001
1.40001
1.40001
1.40001
1.40001
1.40001
1.40001
1.40001
1.40001
1.40001
1.40001
1.40001
1.40001
1.40001
1.40001
1.40001
1.40001
1.40001
1.40001
1.40001
1.40001
1.40001
1.40001
1.40001
1.40001
1.40001
1.40001
1.40001
1.40001
1.40001
1.40001
1.40001
1.40001
1.40001
1.40001
1.40001
1.40001
1.40001
1.40001
1.40001
1.40001
1.40001
1.40001
1.40001
1.40001
1.40001
1.40001
1.40001
1.40001
1.40001
1.40001
1.40001
1.40001
1.40001
1.40001
1.40001
1.40001
1.40001
1.40001
1.40001
1.40001
1.40001
1.40001
1.40001
1.40001
1.40001
1.40001
1.40001
1.40001
1.40001
1.40001
1.40001
1.40001
1.40001
1.40001
1.21187
0.447987
0.237682
0.152825
0.155309
0.183894
0.251417
0.339344
0.453962
0.571129
0.653543
0.717354
0.789398
0.868179
0.907908
0.92668
0.938126
0.958447
0.97563
0.991147
0.997483
1.00118
1.00968
1.02581
1.04462
1.05842
1.0654
1.06769
1.06697
1.06861
1.07466
1.09033
1.11068
1.1165
1.48383
2.64581
2.87585
2.93019
2.96588
2.98528
2.99323
2.99337
2.99024
2.98907
2.99069
2.99203
2.98773
2.97277
2.94622
2.91824
2.89991
2.89279
2.89088
2.885
2.865
2.83467
2.80504
2.78385
2.77532
2.77658
2.77687
2.76114
2.72928
2.69323
2.65907
2.63105
2.61121
2.59827
2.58804
2.57591
2.55979
2.53958
2.5165
2.49217
2.4681
2.44488
2.42436
2.40788
2.3883
2.36416
2.33917
2.31241
2.28638
2.26552
2.24769
2.23187
2.21915
2.20859
2.19694
2.18189
2.16328
2.14152
2.1155
2.08769
2.06315
2.0436
2.02764
2.01377
2.0005
1.98573
1.96737
1.94575
1.92869
1.91571
1.90425
1.8956
1.88378
1.8691
1.85136
1.82729
1.79982
1.77816
1.76297
1.75045
1.7388
1.72708
1.7145
1.69997
1.69021
1.67298
1.89849
1.113
0.78303
0.596801
0.504333
0.483317
0.458782
0.446174
0.454527
0.494859
0.54393
0.580632
0.630938
0.715063
0.796343
0.849057
0.884425
0.914576
0.945682
0.978708
1.01906
1.0375
1.04241
1.04588
1.04818
1.05398
1.07035
1.08945
1.0963
1.09757
1.09904
1.10007
1.10402
1.11358
1.42776
2.63794
2.96826
3.00114
3.00873
3.01237
3.01985
3.02829
3.02914
3.01846
3.00385
2.99395
2.99202
2.99493
2.99166
2.96949
2.93623
2.90697
2.88752
2.88147
2.87925
2.87014
2.84982
2.82221
2.79612
2.7747
2.75938
2.74948
2.73737
2.71707
2.68869
2.65826
2.63102
2.60904
2.59272
2.58108
2.56977
2.5541
2.53212
2.50719
2.48128
2.45618
2.43366
2.41566
2.39671
2.37383
2.35059
2.32556
2.29967
2.27819
2.25996
2.24369
2.22844
2.21221
2.19535
2.17933
2.16503
2.1475
2.12767
2.10587
2.08106
2.05485
2.03127
2.01371
1.99993
1.98621
1.9706
1.95285
1.93374
1.91635
1.903
1.89157
1.88228
1.87066
1.85541
1.8367
1.81454
1.79128
1.77139
1.7563
1.74371
1.73149
1.71855
1.70399
1.69094
1.67076
2.39666
1.74571
1.28176
0.974887
0.839023
0.768929
0.708601
0.635654
0.55939
0.559009
0.587611
0.618336
0.637384
0.674243
0.742318
0.797561
0.842807
0.882026
0.927964
0.985957
1.04219
1.10132
1.12352
1.12061
1.10645
1.1028
1.10956
1.12334
1.14285
1.1541
1.15685
1.14849
1.13328
1.13268
1.30613
2.6616
3.19873
3.15204
3.1183
3.10658
3.10536
3.11546
3.13274
3.13699
3.11448
3.08538
3.06199
3.0538
3.06194
3.07058
3.05541
3.01865
2.97578
2.94224
2.92133
2.9165
2.91982
2.91728
2.89607
2.86353
2.82632
2.79328
2.76989
2.75633
2.74395
2.72381
2.69723
2.66799
2.64116
2.61903
2.60212
2.58875
2.57138
2.54958
2.52639
2.50169
2.47822
2.45565
2.43241
2.40951
2.38632
2.36152
2.33538
2.31238
2.29449
2.27937
2.26359
2.24477
2.22176
2.19628
2.17605
2.16057
2.14718
2.13258
2.11609
2.09593
2.06932
2.03772
2.0096
1.99291
1.98097
1.96876
1.95499
1.93807
1.91634
1.89517
1.88052
1.86829
1.85701
1.84499
1.83208
1.81673
1.79719
1.77697
1.76041
1.74684
1.73366
1.7193
1.70344
1.67558
2.71067
2.17362
1.78101
1.44086
1.14448
1.01776
0.978775
0.927181
0.82794
0.748676
0.729588
0.711144
0.684657
0.685053
0.704555
0.727359
0.749403
0.788107
0.840204
0.907968
0.979352
1.0552
1.09853
1.11148
1.12234
1.13305
1.14455
1.158
1.17993
1.20083
1.20277
1.19616
1.17968
1.18753
1.31681
2.52655
3.48692
3.44501
3.32898
3.28871
3.26737
3.25569
3.25693
3.2643
3.25779
3.23606
3.20659
3.18102
3.16413
3.15948
3.16004
3.1442
3.11592
3.07482
3.03131
3.00527
2.99007
2.98828
2.9843
2.9634
2.93562
2.89946
2.85951
2.83228
2.81189
2.79529
2.77643
2.75309
2.7264
2.696
2.66849
2.64712
2.62847
2.60954
2.58947
2.56891
2.54598
2.51955
2.49126
2.46471
2.44033
2.417
2.39412
2.37092
2.3477
2.32624
2.30638
2.28646
2.26402
2.23785
2.21271
2.1938
2.17846
2.16393
2.14916
2.13275
2.11278
2.08581
2.05258
2.02505
2.00922
1.99717
1.98571
1.97285
1.9549
1.9293
1.90526
1.88892
1.87578
1.86329
1.85072
1.83695
1.82011
1.79946
1.77912
1.76329
1.75083
1.73852
1.72596
1.69484
2.94325
2.46565
2.10382
1.82082
1.55096
1.31244
1.18414
1.13422
1.07418
0.985869
0.89019
0.820538
0.776362
0.762735
0.765203
0.771076
0.776976
0.766649
0.755913
0.769239
0.811304
0.891868
0.984488
1.04442
1.08909
1.117
1.12974
1.14892
1.17203
1.19706
1.20856
1.21462
1.23821
1.36847
1.61093
2.21075
3.38642
3.70816
3.54972
3.47796
3.42811
3.39764
3.38734
3.3784
3.3799
3.37699
3.35815
3.32625
3.29045
3.26938
3.25683
3.24896
3.23111
3.20537
3.16761
3.1265
3.09991
3.0812
3.06936
3.05356
3.03171
3.00602
2.97083
2.93089
2.90322
2.88226
2.86309
2.84194
2.81832
2.79052
2.7567
2.72413
2.70037
2.68065
2.66196
2.64362
2.62313
2.59684
2.56353
2.52899
2.50068
2.47844
2.4586
2.43851
2.41665
2.3925
2.36705
2.34177
2.31669
2.29048
2.26442
2.24375
2.22753
2.21166
2.19444
2.17538
2.15453
2.13125
2.1036
2.07269
2.04811
2.03306
2.02027
2.00691
1.99088
1.96921
1.94502
1.92662
1.91279
1.89951
1.88508
1.86861
1.84929
1.82728
1.80498
1.78593
1.7717
1.75875
1.74684
1.71891
3.11575
2.71389
2.37581
2.07928
1.83376
1.64593
1.47256
1.30257
1.24013
1.18799
1.10462
1.00578
0.919694
0.89375
0.884187
0.869472
0.850661
0.824684
0.790537
0.772937
0.77699
0.791766
0.826791
0.878179
0.937885
1.00873
1.0563
1.0931
1.12586
1.16607
1.18346
1.22234
1.38209
1.73387
2.02562
2.10028
2.6471
3.4782
3.63774
3.6318
3.57421
3.49928
3.45823
3.44284
3.44273
3.4579
3.446
3.41834
3.37373
3.33377
3.31097
3.29618
3.28762
3.27185
3.24881
3.213
3.17234
3.14429
3.12303
3.10829
3.09002
3.06807
3.03958
2.99972
2.96112
2.93644
2.91603
2.89669
2.87546
2.8518
2.82232
2.78822
2.75951
2.73746
2.71779
2.69824
2.6768
2.65068
2.61763
2.58205
2.55316
2.53051
2.50973
2.48906
2.46744
2.44383
2.41846
2.39316
2.36858
2.34302
2.3146
2.2865
2.26511
2.24825
2.23172
2.21444
2.19691
2.17856
2.15691
2.12861
2.0958
2.07077
2.05471
2.04023
2.02451
2.00575
1.98337
1.96158
1.94476
1.9305
1.91573
1.89928
1.88097
1.86106
1.83987
1.81941
1.80244
1.78729
1.77374
1.74647
3.23884
2.88619
2.58623
2.3252
2.05684
1.86604
1.71753
1.54273
1.39994
1.32985
1.26725
1.18711
1.09662
1.02176
0.975713
0.949543
0.927019
0.905045
0.884387
0.856862
0.822216
0.807148
0.807863
0.816358
0.834236
0.869459
0.913817
0.962062
1.01634
1.07154
1.12703
1.29499
1.66405
1.97969
2.15774
2.16052
2.22733
2.74735
3.39732
3.64778
3.65495
3.5773
3.4998
3.45957
3.4538
3.47435
3.47947
3.45788
3.42365
3.37598
3.34078
3.31966
3.30787
3.29681
3.27664
3.24977
3.21151
3.17606
3.15156
3.13377
3.11514
3.0939
3.06886
3.0359
2.99875
2.97145
2.95209
2.93401
2.91334
2.89083
2.86316
2.82752
2.79362
2.76904
2.74826
2.72746
2.70518
2.67951
2.64858
2.61557
2.58794
2.56556
2.54433
2.52259
2.49957
2.47499
2.4504
2.4277
2.40658
2.38481
2.35885
2.32665
2.29502
2.27209
2.25499
2.23989
2.2258
2.21184
2.19628
2.17549
2.14446
2.10837
2.08278
2.06623
2.05169
2.0362
2.01722
1.99356
1.96996
1.95099
1.93481
1.91906
1.9033
1.88702
1.86889
1.84855
1.82933
1.81347
1.80096
1.77597
3.3414
3.02785
2.75546
2.51023
2.25853
2.06173
1.90497
1.74564
1.59334
1.4763
1.39066
1.32369
1.26068
1.19842
1.11915
1.04723
1.01773
1.00341
0.989381
0.964725
0.926068
0.883223
0.842046
0.826101
0.831476
0.842464
0.850394
0.863252
0.885846
0.932858
1.11518
1.48952
1.84033
1.96653
2.08074
2.13786
2.13168
2.22986
2.73576
3.3854
3.6375
3.61816
3.55271
3.47591
3.45715
3.46408
3.47419
3.45985
3.43696
3.40746
3.36835
3.33429
3.31126
3.2909
3.27051
3.2473
3.22264
3.19499
3.16657
3.14029
3.11725
3.095
3.07193
3.04653
3.0191
2.99208
2.96783
2.94527
2.92263
2.89886
2.87181
2.84001
2.80848
2.7835
2.76194
2.74076
2.71831
2.69339
2.66523
2.63529
2.6076
2.58421
2.56279
2.54077
2.51687
2.49116
2.46696
2.44643
2.42764
2.40837
2.38591
2.35648
2.32143
2.29031
2.26922
2.25389
2.24033
2.22756
2.21521
2.20028
2.17688
2.14134
2.10597
2.08267
2.06687
2.05226
2.03561
2.01362
1.98762
1.96483
1.94729
1.93267
1.91968
1.90701
1.89273
1.87423
1.85186
1.83275
1.82031
1.79689
3.41659
3.13594
2.88911
2.66304
2.42952
2.23178
2.0647
1.90322
1.77269
1.66406
1.53988
1.41752
1.36525
1.32985
1.27493
1.21364
1.1415
1.07306
1.04658
1.03064
1.00748
0.978126
0.946989
0.903727
0.865155
0.857259
0.855906
0.862372
0.897513
1.03817
1.34326
1.59387
1.70997
1.79918
1.87774
1.95096
2.01012
2.04789
2.18662
2.68881
3.3151
3.57964
3.58958
3.51819
3.4711
3.44881
3.4351
3.43337
3.43073
3.41631
3.39005
3.34757
3.30114
3.27199
3.25022
3.23509
3.22418
3.20488
3.17805
3.14344
3.11165
3.08768
3.06579
3.04495
3.02314
2.99771
2.97004
2.9437
2.91914
2.89485
2.86968
2.84341
2.81543
2.78983
2.76761
2.74641
2.72473
2.70129
2.67552
2.6468
2.61808
2.59249
2.56892
2.54627
2.52238
2.4966
2.47175
2.45234
2.43571
2.41764
2.39672
2.37218
2.34344
2.31119
2.28258
2.26524
2.25367
2.24261
2.22869
2.21169
2.18827
2.16119
2.13005
2.09818
2.07404
2.05742
2.04156
2.02186
1.99922
1.97715
1.95843
1.94417
1.93229
1.9209
1.90829
1.89238
1.86928
1.84502
1.83064
1.8073
3.47749
3.2241
3.00092
2.78441
2.5611
2.38446
2.22178
2.04326
1.90031
1.80472
1.69664
1.58766
1.48893
1.39902
1.35773
1.32868
1.28075
1.21657
1.13955
1.08823
1.07301
1.06168
1.04411
1.00929
0.955053
0.911759
0.900001
0.920965
1.03702
1.32301
1.55739
1.62968
1.64631
1.671
1.69796
1.73278
1.7805
1.83228
1.87174
2.00141
2.49299
3.13809
3.48363
3.53395
3.50653
3.44697
3.40285
3.38807
3.39163
3.40197
3.38337
3.35158
3.29778
3.25812
3.23715
3.22426
3.21828
3.2005
3.17594
3.14075
3.10625
3.08308
3.06254
3.04214
3.01936
2.99274
2.96125
2.93349
2.91136
2.88988
2.8681
2.84459
2.81761
2.78821
2.76298
2.74475
2.72694
2.70692
2.68409
2.65448
2.61736
2.58342
2.55984
2.54022
2.52023
2.49765
2.4717
2.44618
2.4263
2.40936
2.39209
2.3746
2.35661
2.33645
2.31096
2.28121
2.25258
2.22774
2.20898
2.19456
2.18305
2.16769
2.14512
2.11878
2.0866
2.0566
2.03495
2.01913
2.00454
1.99039
1.97744
1.96442
1.94961
1.93463
1.92053
1.90028
1.87562
1.85182
1.83613
1.81288
3.52378
3.2948
3.08855
2.88428
2.67615
2.50552
2.34949
2.17759
2.04206
1.92065
1.79955
1.7139
1.63527
1.54693
1.45162
1.38381
1.35732
1.32344
1.27119
1.20877
1.14105
1.10946
1.09984
1.07904
1.0433
1.00253
1.01534
1.13782
1.41388
1.66327
1.71341
1.69323
1.67545
1.6731
1.68241
1.7081
1.7174
1.7242
1.72739
1.73009
1.79789
2.18749
2.86247
3.36419
3.50271
3.472
3.39518
3.36901
3.35491
3.36549
3.36484
3.34159
3.29862
3.25199
3.22859
3.21627
3.20863
3.18864
3.16343
3.1299
3.09782
3.07707
3.05915
3.03976
3.01617
2.98643
2.94925
2.9164
2.89529
2.87821
2.86206
2.84284
2.81842
2.785
2.75477
2.73543
2.71914
2.70418
2.68516
2.65713
2.61888
2.58182
2.5561
2.53506
2.51547
2.49598
2.47405
2.44649
2.41826
2.4002
2.38729
2.37764
2.3668
2.35074
2.32674
2.29355
2.25457
2.22327
2.20012
2.18178
2.16691
2.15508
2.14509
2.12805
2.09914
2.0637
2.03543
2.0179
2.00801
2.00367
1.99864
1.98761
1.96911
1.94214
1.91318
1.88992
1.86977
1.85253
1.83994
1.81664
3.56642
3.35672
3.1618
2.97328
2.7812
2.61345
2.45595
2.29414
2.16843
2.05408
1.92231
1.80501
1.73503
1.67081
1.5907
1.50675
1.42169
1.37297
1.3513
1.31848
1.2634
1.18975
1.14124
1.12982
1.11878
1.14113
1.28295
1.56556
1.81151
1.84997
1.81396
1.76905
1.74433
1.74079
1.74352
1.74728
1.74862
1.74662
1.74413
1.73472
1.71385
1.73319
1.9545
2.56357
3.1527
3.43187
3.41029
3.37062
3.34967
3.34568
3.34353
3.32432
3.29528
3.25341
3.22698
3.21269
3.20207
3.1815
3.15519
3.11877
3.08615
3.06661
3.05188
3.03489
3.01291
2.98336
2.9432
2.90705
2.88488
2.86882
2.85545
2.83833
2.81513
2.78182
2.75042
2.7272
2.7067
2.68713
2.66898
2.65047
2.62306
2.58893
2.55847
2.53442
2.51346
2.49344
2.47204
2.44605
2.41797
2.39646
2.38123
2.36694
2.35238
2.33869
2.32426
2.2989
2.26107
2.22293
2.19454
2.17426
2.15856
2.14454
2.12993
2.11462
2.09833
2.07831
2.05711
2.03703
2.01811
2.00194
1.98944
1.97589
1.95725
1.93132
1.90419
1.88317
1.86975
1.85933
1.84804
1.82248
3.60498
3.41055
3.22853
3.0476
2.86682
2.71044
2.56014
2.40291
2.26978
2.15941
2.04114
1.93387
1.84226
1.74463
1.67716
1.62063
1.54819
1.46183
1.39486
1.37576
1.34809
1.29003
1.22629
1.20389
1.23695
1.39929
1.68356
1.93183
1.98104
1.95265
1.91803
1.88397
1.85342
1.83969
1.83295
1.82255
1.8115
1.79869
1.78584
1.77068
1.7457
1.73455
1.73616
1.82186
2.23018
2.88351
3.26776
3.35381
3.37701
3.35946
3.3397
3.31322
3.28765
3.25458
3.22783
3.21348
3.20158
3.18175
3.15619
3.12025
3.08172
3.05848
3.04233
3.02745
3.00876
2.98623
2.95703
2.92169
2.88915
2.86566
2.84571
2.82631
2.80576
2.7819
2.75494
2.72751
2.70235
2.6793
2.65694
2.63577
2.6165
2.59366
2.56658
2.54234
2.52025
2.49793
2.47364
2.44621
2.41714
2.39305
2.37562
2.35954
2.34307
2.3259
2.30789
2.28906
2.26369
2.22957
2.1972
2.17346
2.15448
2.13687
2.12085
2.10775
2.09713
2.08761
2.07653
2.06048
2.03544
2.0057
1.97966
1.95971
1.93972
1.91894
1.89999
1.88419
1.86857
1.84937
1.83412
1.81209
3.64318
3.4639
3.28995
3.11599
2.95104
2.79871
2.64627
2.49965
2.37893
2.25943
2.13082
2.03362
1.95006
1.85648
1.7528
1.68783
1.64304
1.57598
1.48589
1.42391
1.39407
1.36494
1.34258
1.39686
1.60565
1.85948
2.04205
2.08941
2.05893
2.03125
2.02016
2.00269
1.97296
1.93611
1.91736
1.90162
1.88895
1.87508
1.85784
1.84138
1.81904
1.79292
1.76932
1.76588
1.78861
1.99456
2.52781
3.02992
3.28581
3.36947
3.36057
3.31773
3.2888
3.26385
3.24215
3.21933
3.20134
3.18236
3.16112
3.13639
3.10394
3.06786
3.04232
3.02386
3.00656
2.98936
2.97047
2.94631
2.913
2.87559
2.84417
2.81982
2.79877
2.78014
2.76058
2.73744
2.71063
2.68237
2.65567
2.63101
2.60743
2.58622
2.56758
2.54859
2.52889
2.50706
2.48235
2.45415
2.42255
2.39234
2.3687
2.35011
2.33219
2.31373
2.29488
2.27582
2.25707
2.23478
2.20634
2.1786
2.15576
2.13682
2.12161
2.10977
2.10197
2.0988
2.0901
2.07446
2.04691
2.00764
1.96834
1.9405
1.92324
1.90874
1.89658
1.88545
1.87139
1.84924
1.82691
1.80479
3.68506
3.51651
3.34812
3.18124
3.02836
2.8793
2.72731
2.59113
2.46919
2.34959
2.2275
2.12675
2.03358
1.94777
1.85457
1.76764
1.70499
1.65547
1.59065
1.50865
1.45444
1.46348
1.54236
1.81094
2.12111
2.2189
2.21108
2.17441
2.13375
2.12319
2.12185
2.10845
2.08411
2.0438
2.00961
1.992
1.97524
1.96108
1.94311
1.92018
1.89035
1.85739
1.83788
1.81725
1.79775
1.80339
1.87181
2.18218
2.72724
3.15215
3.31295
3.32118
3.30692
3.3016
3.2841
3.24574
3.20518
3.18089
3.16504
3.15004
3.13112
3.103
3.06605
3.037
3.01745
2.99938
2.98065
2.95987
2.93274
2.89528
2.85713
2.82725
2.80277
2.78101
2.76166
2.74323
2.72257
2.69822
2.67098
2.64182
2.61212
2.58439
2.56264
2.54608
2.53007
2.51122
2.49051
2.46677
2.43504
2.39688
2.36434
2.34209
2.32435
2.30698
2.28917
2.27119
2.25264
2.23248
2.20902
2.18208
2.15999
2.14542
2.13312
2.12028
2.10625
2.09131
2.07738
2.06262
2.04068
2.0056
1.96521
1.93295
1.91395
1.90543
1.89952
1.89048
1.87717
1.85522
1.83282
1.8078
3.72517
3.56484
3.40268
3.24894
3.10252
2.95355
2.80701
2.6796
2.55602
2.43089
2.31645
2.21921
2.12001
2.02128
1.9458
1.87078
1.77875
1.70663
1.65998
1.60355
1.61023
1.73847
1.98079
2.28888
2.42511
2.39543
2.32009
2.25177
2.2204
2.21596
2.21759
2.20431
2.18142
2.14493
2.10412
2.08052
2.05865
2.03945
2.02068
1.99861
1.9741
1.94342
1.91285
1.89204
1.86893
1.8476
1.82866
1.83554
1.96863
2.37373
2.89111
3.18187
3.26575
3.33554
3.32639
3.28976
3.22831
3.18675
3.17263
3.16244
3.15095
3.13007
3.09627
3.06163
3.03832
3.01843
2.99682
2.97191
2.9414
2.90369
2.86953
2.84586
2.82463
2.80213
2.77779
2.75222
2.72828
2.70684
2.68528
2.66176
2.63478
2.6029
2.56776
2.53638
2.51616
2.50282
2.48958
2.4727
2.44784
2.41038
2.367
2.33728
2.31979
2.30527
2.29087
2.2754
2.25773
2.23681
2.21083
2.18356
2.16544
2.15346
2.14141
2.12733
2.10959
2.0883
2.06595
2.04501
2.02324
1.99912
1.97059
1.94331
1.9212
1.90163
1.88583
1.87462
1.86495
1.85524
1.84415
1.81843
3.77262
3.61814
3.46218
3.31555
3.17155
3.02288
2.88629
2.76006
2.63535
2.50833
2.4033
2.30324
2.20751
2.10083
2.02342
1.95371
1.868
1.78679
1.74
1.77938
1.98304
2.2528
2.44711
2.54428
2.53053
2.48334
2.42144
2.35696
2.32836
2.31978
2.31658
2.29941
2.27437
2.23711
2.19263
2.16865
2.14806
2.12665
2.10477
2.07879
2.04805
2.01552
1.98457
1.96033
1.93908
1.9153
1.88601
1.85654
1.83956
1.867
2.07852
2.54908
2.97086
3.22834
3.31564
3.31751
3.25478
3.20683
3.18821
3.17803
3.16946
3.14946
3.11664
3.07971
3.05553
3.03795
3.01788
2.99163
2.95447
2.90669
2.87629
2.86046
2.84494
2.82688
2.80438
2.7747
2.73877
2.70723
2.68619
2.66874
2.64991
2.62609
2.59086
2.54733
2.51402
2.49394
2.47912
2.46532
2.44934
2.42511
2.38674
2.34509
2.32095
2.30753
2.29548
2.28275
2.26775
2.24693
2.21753
2.18768
2.16888
2.15506
2.14184
2.12805
2.11018
2.0853
2.05449
2.02646
2.00483
1.98778
1.9758
1.96199
1.93879
1.90713
1.88348
1.87114
1.86167
1.85262
1.84484
1.82539
3.81739
3.66686
3.52006
3.37554
3.23053
3.09048
2.96252
2.83584
2.70716
2.59003
2.48697
2.38355
2.28342
2.18664
2.10412
2.01452
1.94519
1.90855
1.99141
2.25117
2.57734
2.65808
2.68386
2.65635
2.61003
2.57955
2.54031
2.48157
2.44693
2.42884
2.4156
2.39602
2.36731
2.32528
2.27723
2.25005
2.22755
2.20513
2.18324
2.15895
2.12748
2.08666
2.04933
2.02137
1.99961
1.97935
1.95565
1.92559
1.89236
1.85408
1.85034
1.92569
2.22963
2.68548
3.09173
3.2442
3.25537
3.23331
3.20681
3.20238
3.19124
3.16964
3.13318
3.08724
3.0623
3.04732
3.03186
3.01076
2.97707
2.92859
2.88997
2.87129
2.85705
2.84312
2.82649
2.80387
2.76482
2.71459
2.68279
2.66479
2.64873
2.63175
2.60984
2.57734
2.53365
2.4962
2.47481
2.45966
2.44535
2.42955
2.40744
2.37409
2.33684
2.31252
2.29891
2.28669
2.27395
2.25845
2.23482
2.19885
2.16793
2.15393
2.14397
2.13104
2.1126
2.08481
2.04938
2.01602
1.99501
1.98524
1.97866
1.96959
1.95392
1.92261
1.88633
1.87221
1.86654
1.86142
1.85457
1.83401
3.86454
3.71738
3.5761
3.43477
3.29087
3.15877
3.03377
2.90795
2.77883
2.6716
2.56554
2.46422
2.35473
2.26287
2.17991
2.09781
2.11635
2.25854
2.53058
2.8357
2.92161
2.86423
2.79225
2.74037
2.71294
2.69632
2.663
2.60734
2.56589