/*--------------------------------*- C++ -*----------------------------------*\
  =========                 |
  \\      /  F ield         | OpenFOAM: The Open Source CFD Toolbox
   \\    /   O peration     | Website:  https://openfoam.org
    \\  /    A nd           | Version:  7
     \\/     M anipulation  |
\*---------------------------------------------------------------------------*/
FoamFile
{
    version     2.0;
    format      ascii;
    class       volScalarField;
    location    "3";
    object      p;
}
// * * * * * * * * * * * * * * * * * * * * * * * * * * * * * * * * * * * * * //

dimensions      [0 2 -2 0 0 0 0];

internalField   nonuniform List<scalar> 
306000
(
-0.349416
-0.355928
-0.358146
-0.361354
-0.363698
-0.366139
-0.368514
-0.371037
-0.373742
-0.376693
-0.379917
-0.383428
-0.38723
-0.391318
-0.395676
-0.400287
-0.405127
-0.410169
-0.41538
-0.420727
-0.426172
-0.431674
-0.43719
-0.442674
-0.448075
-0.453341
-0.458417
-0.463247
-0.467769
-0.471923
-0.475645
-0.478871
-0.481534
-0.483569
-0.48491
-0.485492
-0.485251
-0.484125
-0.482055
-0.478986
-0.474868
-0.469655
-0.463309
-0.455798
-0.447102
-0.437208
-0.426115
-0.413835
-0.400394
-0.385829
-0.370198
-0.353569
-0.33603
-0.317681
-0.298638
-0.279023
-0.258967
-0.238602
-0.218064
-0.197407
-0.349491
-0.355994
-0.35821
-0.361414
-0.363756
-0.366195
-0.368569
-0.371092
-0.373796
-0.376747
-0.37997
-0.383481
-0.387284
-0.391372
-0.395731
-0.400343
-0.405184
-0.410226
-0.415439
-0.420787
-0.426234
-0.431739
-0.437258
-0.442744
-0.448147
-0.453417
-0.458497
-0.46333
-0.467857
-0.472016
-0.475743
-0.478974
-0.481643
-0.483684
-0.485032
-0.485621
-0.485387
-0.484268
-0.482207
-0.479146
-0.475036
-0.469832
-0.463495
-0.455994
-0.447307
-0.437422
-0.426339
-0.414067
-0.400634
-0.386077
-0.370452
-0.353829
-0.336295
-0.317949
-0.298906
-0.279292
-0.259235
-0.238868
-0.218329
-0.197662
-0.349641
-0.356125
-0.358336
-0.361534
-0.363872
-0.366308
-0.36868
-0.3712
-0.373904
-0.376854
-0.380077
-0.383588
-0.387391
-0.39148
-0.39584
-0.400453
-0.405296
-0.410341
-0.415557
-0.420909
-0.426359
-0.431868
-0.437392
-0.442883
-0.448293
-0.453569
-0.458656
-0.463497
-0.468033
-0.472201
-0.475938
-0.479179
-0.48186
-0.483914
-0.485274
-0.485877
-0.485657
-0.484554
-0.482509
-0.479465
-0.475372
-0.470186
-0.463867
-0.456384
-0.447716
-0.43785
-0.426784
-0.414531
-0.401113
-0.386572
-0.37096
-0.354349
-0.336822
-0.318482
-0.299443
-0.279828
-0.259768
-0.239398
-0.218857
-0.19817
-0.349864
-0.356322
-0.358526
-0.361714
-0.364046
-0.366477
-0.368845
-0.371363
-0.374065
-0.377014
-0.380236
-0.383748
-0.387551
-0.391641
-0.396003
-0.400619
-0.405465
-0.410513
-0.415733
-0.42109
-0.426546
-0.432061
-0.437592
-0.443091
-0.44851
-0.453796
-0.458894
-0.463747
-0.468295
-0.472477
-0.476229
-0.479487
-0.482185
-0.484256
-0.485637
-0.48626
-0.486062
-0.484982
-0.48296
-0.479941
-0.475874
-0.470714
-0.464423
-0.456968
-0.448327
-0.438488
-0.42745
-0.415222
-0.40183
-0.387311
-0.371719
-0.355124
-0.337611
-0.31928
-0.300244
-0.28063
-0.260567
-0.240191
-0.219647
-0.198929
-0.350162
-0.356584
-0.358778
-0.361952
-0.364277
-0.366702
-0.369065
-0.37158
-0.374279
-0.377227
-0.380448
-0.38396
-0.387764
-0.391855
-0.39622
-0.400839
-0.405688
-0.410741
-0.415967
-0.42133
-0.426794
-0.432318
-0.437858
-0.443368
-0.448799
-0.454098
-0.45921
-0.464079
-0.468644
-0.472844
-0.476616
-0.479895
-0.482615
-0.484711
-0.486117
-0.486767
-0.486599
-0.485549
-0.483558
-0.480572
-0.47654
-0.471415
-0.465159
-0.457741
-0.449137
-0.439335
-0.428332
-0.416139
-0.40278
-0.388291
-0.372726
-0.356154
-0.338658
-0.320338
-0.301308
-0.281694
-0.261626
-0.241243
-0.220696
-0.199937
-0.350532
-0.356909
-0.359093
-0.362249
-0.364565
-0.366981
-0.369339
-0.37185
-0.374546
-0.377492
-0.380712
-0.384224
-0.388029
-0.392122
-0.396489
-0.401112
-0.405966
-0.411025
-0.416257
-0.421629
-0.427102
-0.432636
-0.438188
-0.443712
-0.449157
-0.454472
-0.459602
-0.46449
-0.469077
-0.473299
-0.477096
-0.480401
-0.48315
-0.485276
-0.486713
-0.487398
-0.487264
-0.486252
-0.484301
-0.481356
-0.477366
-0.472284
-0.466073
-0.4587
-0.450142
-0.440385
-0.429427
-0.417277
-0.403958
-0.389507
-0.373976
-0.357431
-0.339957
-0.321652
-0.30263
-0.283016
-0.262943
-0.24255
-0.222
-0.20119
-0.350975
-0.357299
-0.359468
-0.362604
-0.364909
-0.367315
-0.369667
-0.372172
-0.374865
-0.377808
-0.381027
-0.384539
-0.388345
-0.39244
-0.396811
-0.401438
-0.406298
-0.411364
-0.416604
-0.421985
-0.427469
-0.433016
-0.438582
-0.444121
-0.449584
-0.454918
-0.46007
-0.464981
-0.469592
-0.473842
-0.477667
-0.481004
-0.483786
-0.485947
-0.487423
-0.488148
-0.488057
-0.487089
-0.485184
-0.482288
-0.478348
-0.473318
-0.46716
-0.459841
-0.451337
-0.441634
-0.430729
-0.41863
-0.40536
-0.390954
-0.375462
-0.358951
-0.341504
-0.323217
-0.304204
-0.284592
-0.264512
-0.244108
-0.223555
-0.202683
-0.351489
-0.357751
-0.359904
-0.363017
-0.365308
-0.367703
-0.370046
-0.372546
-0.375234
-0.378175
-0.381393
-0.384904
-0.388712
-0.392809
-0.397184
-0.401816
-0.406682
-0.411756
-0.417006
-0.422398
-0.427895
-0.433456
-0.439038
-0.444595
-0.450078
-0.455434
-0.46061
-0.465547
-0.470187
-0.474468
-0.478327
-0.4817
-0.48452
-0.486723
-0.488243
-0.489014
-0.488972
-0.488055
-0.486204
-0.483364
-0.479482
-0.474512
-0.468415
-0.461158
-0.452716
-0.443076
-0.432232
-0.420193
-0.406978
-0.392624
-0.377179
-0.360707
-0.343291
-0.325026
-0.306025
-0.286414
-0.266328
-0.245911
-0.225354
-0.20441
-0.352073
-0.358265
-0.360399
-0.363485
-0.365761
-0.368143
-0.370478
-0.37297
-0.375654
-0.378591
-0.381808
-0.385319
-0.389128
-0.393228
-0.397606
-0.402244
-0.407118
-0.4122
-0.417461
-0.422865
-0.428376
-0.433953
-0.439554
-0.445131
-0.450637
-0.456018
-0.461221
-0.466188
-0.470861
-0.475177
-0.479073
-0.482487
-0.485351
-0.4876
-0.489169
-0.489992
-0.490005
-0.489146
-0.487356
-0.484579
-0.480762
-0.47586
-0.469832
-0.462644
-0.454273
-0.444703
-0.433928
-0.421956
-0.408806
-0.39451
-0.379118
-0.362691
-0.34531
-0.327071
-0.308084
-0.288476
-0.268383
-0.247952
-0.227392
-0.206365
-0.352726
-0.358839
-0.360953
-0.364008
-0.366268
-0.368635
-0.370959
-0.373444
-0.376122
-0.379056
-0.38227
-0.385781
-0.389592
-0.393695
-0.398078
-0.402722
-0.407603
-0.412696
-0.417968
-0.423385
-0.428912
-0.434507
-0.440128
-0.445728
-0.451258
-0.456667
-0.4619
-0.466901
-0.471609
-0.475964
-0.479903
-0.483361
-0.486273
-0.488574
-0.490197
-0.491078
-0.491152
-0.490357
-0.488634
-0.485927
-0.482183
-0.477355
-0.471403
-0.464294
-0.456001
-0.446508
-0.435811
-0.423913
-0.410833
-0.396603
-0.38127
-0.364894
-0.347554
-0.329343
-0.310373
-0.29077
-0.27067
-0.250223
-0.229662
-0.20854
-0.353445
-0.359472
-0.361563
-0.364585
-0.366826
-0.369177
-0.37149
-0.373966
-0.376638
-0.379568
-0.38278
-0.386291
-0.390102
-0.394208
-0.398596
-0.403247
-0.408137
-0.41324
-0.418524
-0.423957
-0.429501
-0.435116
-0.440758
-0.446383
-0.45194
-0.457379
-0.462645
-0.467682
-0.472429
-0.476826
-0.480811
-0.484318
-0.487283
-0.48964
-0.491323
-0.492267
-0.492408
-0.491683
-0.490033
-0.487402
-0.483737
-0.478991
-0.473122
-0.466098
-0.45789
-0.448483
-0.43787
-0.426053
-0.413051
-0.398894
-0.383626
-0.367306
-0.350011
-0.331834
-0.312883
-0.293286
-0.27318
-0.252716
-0.232154
-0.210927
-0.354231
-0.360163
-0.362229
-0.365214
-0.367435
-0.369768
-0.372068
-0.374535
-0.3772
-0.380125
-0.383335
-0.386845
-0.390658
-0.394767
-0.39916
-0.403818
-0.408717
-0.413831
-0.41913
-0.424578
-0.43014
-0.435776
-0.441442
-0.447093
-0.45268
-0.458151
-0.463453
-0.468528
-0.473317
-0.477761
-0.481794
-0.485355
-0.488376
-0.490794
-0.492541
-0.493553
-0.493766
-0.493117
-0.491546
-0.488997
-0.485417
-0.480759
-0.474981
-0.468048
-0.459933
-0.450618
-0.440095
-0.428368
-0.41545
-0.401371
-0.386174
-0.369916
-0.352672
-0.334532
-0.315604
-0.296015
-0.275905
-0.255421
-0.234862
-0.213516
-0.355081
-0.36091
-0.362949
-0.365894
-0.368093
-0.370406
-0.372693
-0.375149
-0.377807
-0.380727
-0.383934
-0.387443
-0.391257
-0.39537
-0.399768
-0.404433
-0.409342
-0.414468
-0.419781
-0.425246
-0.430828
-0.436486
-0.442177
-0.447856
-0.453474
-0.45898
-0.464319
-0.469436
-0.474271
-0.478762
-0.482849
-0.486466
-0.489548
-0.49203
-0.493846
-0.494931
-0.49522
-0.494652
-0.493166
-0.490705
-0.487217
-0.482653
-0.476971
-0.470136
-0.46212
-0.452904
-0.442478
-0.430845
-0.418018
-0.404024
-0.388904
-0.372713
-0.355524
-0.337426
-0.318524
-0.298947
-0.278833
-0.258329
-0.237775
-0.216296
-0.355992
-0.361712
-0.363721
-0.366623
-0.368798
-0.371091
-0.373363
-0.375808
-0.378457
-0.381372
-0.384575
-0.388083
-0.391898
-0.396014
-0.400418
-0.405091
-0.41001
-0.415148
-0.420476
-0.425959
-0.431561
-0.437242
-0.44296
-0.448669
-0.45432
-0.459862
-0.465242
-0.470402
-0.475284
-0.479828
-0.48397
-0.487647
-0.490793
-0.493343
-0.495232
-0.496394
-0.496765
-0.496282
-0.494885
-0.492518
-0.489126
-0.484662
-0.479082
-0.472351
-0.46444
-0.455328
-0.445006
-0.433474
-0.420744
-0.406841
-0.391803
-0.375685
-0.358556
-0.340504
-0.321633
-0.302069
-0.281953
-0.261428
-0.240884
-0.219258
-0.356963
-0.362566
-0.364544
-0.3674
-0.36955
-0.37182
-0.374076
-0.376508
-0.379149
-0.382057
-0.385257
-0.388764
-0.39258
-0.396699
-0.401108
-0.405788
-0.410718
-0.415869
-0.421213
-0.426714
-0.432338
-0.438043
-0.443789
-0.449528
-0.455214
-0.460795
-0.466216
-0.471422
-0.476355
-0.480952
-0.485153
-0.488892
-0.492106
-0.494728
-0.496693
-0.497936
-0.498392
-0.497999
-0.496697
-0.494427
-0.491137
-0.486778
-0.481306
-0.474684
-0.466883
-0.457882
-0.447669
-0.436243
-0.423615
-0.409808
-0.394858
-0.378818
-0.361754
-0.343753
-0.324916
-0.305369
-0.285255
-0.264706
-0.244179
-0.222387
-0.357993
-0.363471
-0.365416
-0.368223
-0.370345
-0.372591
-0.374831
-0.377249
-0.37988
-0.382782
-0.385977
-0.389482
-0.393299
-0.397421
-0.401835
-0.406524
-0.411464
-0.416629
-0.421988
-0.427509
-0.433154
-0.438885
-0.44466
-0.450432
-0.456153
-0.461773
-0.467239
-0.472493
-0.477477
-0.482131
-0.486392
-0.490197
-0.493481
-0.496178
-0.498223
-0.49955
-0.500096
-0.499796
-0.498592
-0.496425
-0.493241
-0.488991
-0.483631
-0.477123
-0.469438
-0.460552
-0.450453
-0.439139
-0.426619
-0.412913
-0.398056
-0.382099
-0.365106
-0.347159
-0.328361
-0.308834
-0.288724
-0.268152
-0.247649
-0.225673
-0.359077
-0.364425
-0.366334
-0.36909
-0.371183
-0.373403
-0.375625
-0.378029
-0.380649
-0.383543
-0.386734
-0.390237
-0.394054
-0.398179
-0.402599
-0.407296
-0.412246
-0.417425
-0.4228
-0.428341
-0.434009
-0.439766
-0.44557
-0.451375
-0.457133
-0.462795
-0.468305
-0.473608
-0.478646
-0.483359
-0.487683
-0.491556
-0.494912
-0.497687
-0.499814
-0.501229
-0.501867
-0.501665
-0.500562
-0.498501
-0.495427
-0.491291
-0.486047
-0.479659
-0.472093
-0.463327
-0.453348
-0.44215
-0.429742
-0.416142
-0.401383
-0.385514
-0.368595
-0.350709
-0.331954
-0.312451
-0.292349
-0.271751
-0.251282
-0.229099
-0.360215
-0.365426
-0.367298
-0.369999
-0.372061
-0.374255
-0.376456
-0.378845
-0.381455
-0.38434
-0.387526
-0.391026
-0.394843
-0.398971
-0.403396
-0.408101
-0.413062
-0.418254
-0.423646
-0.429206
-0.434898
-0.440681
-0.446515
-0.452354
-0.458151
-0.463854
-0.469411
-0.474765
-0.479858
-0.484631
-0.48902
-0.492962
-0.496394
-0.499248
-0.501461
-0.502966
-0.503698
-0.503597
-0.502599
-0.500647
-0.497687
-0.493668
-0.488545
-0.482279
-0.474837
-0.466196
-0.456339
-0.445262
-0.432971
-0.419481
-0.404825
-0.389047
-0.372209
-0.354387
-0.33568
-0.316205
-0.296115
-0.275491
-0.255069
-0.232651
-0.361404
-0.366471
-0.368304
-0.370948
-0.372978
-0.375143
-0.377324
-0.379697
-0.382294
-0.38517
-0.38835
-0.391847
-0.395664
-0.399794
-0.404224
-0.408936
-0.413908
-0.419114
-0.424523
-0.430103
-0.435818
-0.441628
-0.447493
-0.453367
-0.459202
-0.464948
-0.470552
-0.475958
-0.481108
-0.485941
-0.490397
-0.494411
-0.497919
-0.500855
-0.503155
-0.504752
-0.505582
-0.505583
-0.504693
-0.502854
-0.50001
-0.496111
-0.491112
-0.484972
-0.477658
-0.469144
-0.459415
-0.448462
-0.436291
-0.422916
-0.408367
-0.392686
-0.375931
-0.358179
-0.339523
-0.320081
-0.300009
-0.279357
-0.258996
-0.236313
-0.362641
-0.367559
-0.36935
-0.371935
-0.373931
-0.376065
-0.378225
-0.38058
-0.383164
-0.386032
-0.389205
-0.392698
-0.396514
-0.400645
-0.40508
-0.4098
-0.414783
-0.420002
-0.425427
-0.431027
-0.436766
-0.442604
-0.448499
-0.454408
-0.460282
-0.466072
-0.471724
-0.477182
-0.48239
-0.487286
-0.491809
-0.495895
-0.499481
-0.502501
-0.504889
-0.50658
-0.50751
-0.507616
-0.506836
-0.505111
-0.502386
-0.498611
-0.493738
-0.487726
-0.480543
-0.47216
-0.462561
-0.451736
-0.439689
-0.426433
-0.411994
-0.396413
-0.379747
-0.362069
-0.34347
-0.324065
-0.304014
-0.283333
-0.263051
-0.240067
-0.363923
-0.368686
-0.370435
-0.372958
-0.374918
-0.377021
-0.379158
-0.381495
-0.384065
-0.386922
-0.390087
-0.393577
-0.397391
-0.401524
-0.405963
-0.41069
-0.415682
-0.420914
-0.426357
-0.431977
-0.437738
-0.443603
-0.44953
-0.455474
-0.461388
-0.467221
-0.472921
-0.478433
-0.483698
-0.488657
-0.493249
-0.497409
-0.501074
-0.504178
-0.506656
-0.508443
-0.509474
-0.509686
-0.509017
-0.507409
-0.504806
-0.501155
-0.49641
-0.49053
-0.48348
-0.475231
-0.465765
-0.455071
-0.443151
-0.430016
-0.415691
-0.400215
-0.383641
-0.366041
-0.347504
-0.32814
-0.308117
-0.287406
-0.267219
-0.243887
-0.365248
-0.369852
-0.371556
-0.374014
-0.375938
-0.378007
-0.38012
-0.382437
-0.384993
-0.387838
-0.390996
-0.39448
-0.398292
-0.402426
-0.406868
-0.411602
-0.416604
-0.421849
-0.427308
-0.432947
-0.438732
-0.444624
-0.450582
-0.456561
-0.462514
-0.468392
-0.47414
-0.479705
-0.485029
-0.490051
-0.494711
-0.498946
-0.50269
-0.505879
-0.508448
-0.510332
-0.511465
-0.511784
-0.511228
-0.509738
-0.507257
-0.503734
-0.499119
-0.493372
-0.486457
-0.478344
-0.469013
-0.458452
-0.446662
-0.433651
-0.419444
-0.404075
-0.387598
-0.37008
-0.351608
-0.33229
-0.312301
-0.291561
-0.271487
-0.247745
-0.366614
-0.371052
-0.37271
-0.375102
-0.376987
-0.379022
-0.381109
-0.383406
-0.385945
-0.388779
-0.391928
-0.395406
-0.399215
-0.403349
-0.407795
-0.412534
-0.417546
-0.422803
-0.428277
-0.433936
-0.439744
-0.445663
-0.451651
-0.457665
-0.463657
-0.469578
-0.475375
-0.480994
-0.486376
-0.491462
-0.49619
-0.500499
-0.504323
-0.507598
-0.510258
-0.512239
-0.513475
-0.513902
-0.51346
-0.512088
-0.509731
-0.506335
-0.501853
-0.49624
-0.489461
-0.481485
-0.472291
-0.461867
-0.450208
-0.437324
-0.423237
-0.407979
-0.391601
-0.374169
-0.355768
-0.336501
-0.316551
-0.295785
-0.275864
-0.251684
-0.368016
-0.372286
-0.373896
-0.376219
-0.378063
-0.380062
-0.382123
-0.384399
-0.386921
-0.389741
-0.392881
-0.396352
-0.400158
-0.404291
-0.408739
-0.413484
-0.418504
-0.423773
-0.429262
-0.43494
-0.44077
-0.446715
-0.452733
-0.458781
-0.464812
-0.470777
-0.476622
-0.482293
-0.487733
-0.492882
-0.49768
-0.502063
-0.505967
-0.509327
-0.512079
-0.514156
-0.515495
-0.516031
-0.515702
-0.51445
-0.512217
-0.50895
-0.504599
-0.499122
-0.49248
-0.484643
-0.475588
-0.4653
-0.453775
-0.441021
-0.427055
-0.411911
-0.395636
-0.378293
-0.359967
-0.340755
-0.320849
-0.30006
-0.280332
-0.255785
-0.369454
-0.373549
-0.37511
-0.377362
-0.379165
-0.381127
-0.38316
-0.385413
-0.387917
-0.390724
-0.393852
-0.397316
-0.401117
-0.405249
-0.409699
-0.414448
-0.419476
-0.424756
-0.430259
-0.435954
-0.441806
-0.447776
-0.453824
-0.459906
-0.465975
-0.471982
-0.477875
-0.483598
-0.489096
-0.494308
-0.499173
-0.50363
-0.507613
-0.511059
-0.513901
-0.516075
-0.517516
-0.518161
-0.517946
-0.516813
-0.514704
-0.511566
-0.507348
-0.502007
-0.495503
-0.487805
-0.478889
-0.468739
-0.45735
-0.444726
-0.430884
-0.415856
-0.399686
-0.382437
-0.364189
-0.345037
-0.325179
-0.304361
-0.284638
-0.260145
-0.370922
-0.374841
-0.376351
-0.37853
-0.38029
-0.382212
-0.384217
-0.386446
-0.388932
-0.391723
-0.39484
-0.398296
-0.402091
-0.40622
-0.41067
-0.415424
-0.420458
-0.425748
-0.431265
-0.436977
-0.442849
-0.448844
-0.454921
-0.461035
-0.467141
-0.47319
-0.479129
-0.484904
-0.490458
-0.495732
-0.500665
-0.505194
-0.509256
-0.512786
-0.515718
-0.517989
-0.519532
-0.520284
-0.520183
-0.519168
-0.517183
-0.514173
-0.510088
-0.504882
-0.498517
-0.490959
-0.482183
-0.472172
-0.460918
-0.448426
-0.43471
-0.419799
-0.403738
-0.386585
-0.368419
-0.349331
-0.329527
-0.308732
-0.288941
-0.26451
-0.372419
-0.376157
-0.377616
-0.379719
-0.381435
-0.383318
-0.385292
-0.387496
-0.389962
-0.392737
-0.395841
-0.399288
-0.403077
-0.407202
-0.411652
-0.416408
-0.421448
-0.426747
-0.432276
-0.438004
-0.443896
-0.449914
-0.456018
-0.462164
-0.468306
-0.474396
-0.48038
-0.486205
-0.491815
-0.497149
-0.502148
-0.506749
-0.510888
-0.514501
-0.517523
-0.519888
-0.521532
-0.522391
-0.522402
-0.521506
-0.519644
-0.516761
-0.512808
-0.507738
-0.50151
-0.494092
-0.485456
-0.475583
-0.464467
-0.452107
-0.438518
-0.423727
-0.407776
-0.390721
-0.372642
-0.353621
-0.333868
-0.313122
-0.293279
-0.268859
-0.373942
-0.377496
-0.378902
-0.380929
-0.382598
-0.38444
-0.386383
-0.388561
-0.391006
-0.393763
-0.396854
-0.40029
-0.404071
-0.408192
-0.41264
-0.417397
-0.422442
-0.427749
-0.433289
-0.439032
-0.444942
-0.450982
-0.457112
-0.463289
-0.469466
-0.475594
-0.481623
-0.487497
-0.49316
-0.498554
-0.503617
-0.508289
-0.512504
-0.516198
-0.519308
-0.521766
-0.52351
-0.524474
-0.524596
-0.523816
-0.522076
-0.51932
-0.515497
-0.510562
-0.504472
-0.497192
-0.488696
-0.478963
-0.467983
-0.455756
-0.442295
-0.427625
-0.411786
-0.394833
-0.376842
-0.357894
-0.338192
-0.317496
-0.297635
-0.273192
-0.375488
-0.378855
-0.380206
-0.382155
-0.383778
-0.385576
-0.387487
-0.389638
-0.39206
-0.3948
-0.397875
-0.401299
-0.405072
-0.409187
-0.413633
-0.41839
-0.423438
-0.428751
-0.434301
-0.440057
-0.445984
-0.452045
-0.4582
-0.464405
-0.470615
-0.476781
-0.482852
-0.488773
-0.494489
-0.49994
-0.505066
-0.509806
-0.514095
-0.51787
-0.521065
-0.523615
-0.525456
-0.526524
-0.526756
-0.526091
-0.52447
-0.52184
-0.518147
-0.513344
-0.507391
-0.500249
-0.491892
-0.482297
-0.471454
-0.45936
-0.446028
-0.43148
-0.415754
-0.398904
-0.381005
-0.362134
-0.34249
-0.321839
-0.301985
-0.277499
-0.377053
-0.380232
-0.381528
-0.383396
-0.384971
-0.386725
-0.388602
-0.390725
-0.393124
-0.395844
-0.398903
-0.402314
-0.406077
-0.410185
-0.414626
-0.419382
-0.424432
-0.42975
-0.435309
-0.441076
-0.447019
-0.453099
-0.459276
-0.465508
-0.47175
-0.477952
-0.484063
-0.490029
-0.495795
-0.501302
-0.506489
-0.511295
-0.515656
-0.519509
-0.522788
-0.525428
-0.527364
-0.528533
-0.528872
-0.52832
-0.526818
-0.524311
-0.520746
-0.516075
-0.510256
-0.503251
-0.495032
-0.485575
-0.474868
-0.462908
-0.449704
-0.435278
-0.419667
-0.402923
-0.385118
-0.366326
-0.346747
-0.32614
-0.306312
-0.281768
-0.378636
-0.381624
-0.382863
-0.38465
-0.386175
-0.387884
-0.389727
-0.391819
-0.394194
-0.396893
-0.399935
-0.403331
-0.407083
-0.411183
-0.415618
-0.420371
-0.425422
-0.430743
-0.436309
-0.442086
-0.448042
-0.454139
-0.460338
-0.466595
-0.472866
-0.479101
-0.485251
-0.49126
-0.497074
-0.502634
-0.50788
-0.51275
-0.517181
-0.521109
-0.524469
-0.527196
-0.529226
-0.530494
-0.530938
-0.530496
-0.529111
-0.526724
-0.523285
-0.518744
-0.513058
-0.506189
-0.498106
-0.488785
-0.478214
-0.466387
-0.453311
-0.439009
-0.423513
-0.406875
-0.389166
-0.370457
-0.350949
-0.330387
-0.310601
-0.285988
-0.380232
-0.383028
-0.384209
-0.385914
-0.387388
-0.389051
-0.390857
-0.392919
-0.395268
-0.397944
-0.400968
-0.404349
-0.408088
-0.412177
-0.416606
-0.421355
-0.426404
-0.431727
-0.437297
-0.443083
-0.44905
-0.455163
-0.461381
-0.467661
-0.473959
-0.480226
-0.486411
-0.492462
-0.498321
-0.503932
-0.509234
-0.514165
-0.518663
-0.522664
-0.526102
-0.528914
-0.531034
-0.532399
-0.532945
-0.532611
-0.531339
-0.529071
-0.525755
-0.521342
-0.515786
-0.509051
-0.501103
-0.491918
-0.48148
-0.469785
-0.456839
-0.442659
-0.42728
-0.410749
-0.393139
-0.374515
-0.355082
-0.334566
-0.314837
-0.290149
-0.381839
-0.384442
-0.385564
-0.387186
-0.388608
-0.390224
-0.391992
-0.394022
-0.396344
-0.398997
-0.402
-0.405364
-0.409088
-0.413167
-0.417586
-0.422329
-0.427375
-0.432699
-0.438272
-0.444064
-0.450041
-0.456166
-0.462401
-0.468702
-0.475025
-0.481321
-0.48754
-0.493628
-0.499531
-0.50519
-0.510545
-0.515535
-0.520097
-0.524167
-0.527681
-0.530574
-0.532782
-0.53424
-0.534885
-0.534657
-0.533495
-0.531343
-0.528148
-0.523859
-0.518433
-0.511829
-0.504014
-0.494962
-0.484658
-0.473094
-0.460275
-0.446218
-0.430955
-0.414534
-0.397024
-0.378487
-0.359133
-0.338666
-0.319005
-0.294239
-0.383454
-0.385863
-0.386926
-0.388463
-0.389833
-0.391399
-0.39313
-0.395126
-0.397419
-0.400047
-0.403029
-0.406374
-0.410083
-0.414148
-0.418557
-0.423293
-0.428333
-0.433655
-0.439229
-0.445025
-0.451009
-0.457146
-0.463395
-0.469714
-0.476059
-0.482382
-0.488632
-0.494756
-0.500698
-0.506402
-0.511807
-0.516853
-0.521476
-0.525613
-0.5292
-0.532171
-0.534463
-0.536011
-0.536752
-0.536626
-0.535572
-0.533533
-0.530455
-0.526289
-0.520988
-0.514513
-0.506829
-0.49791
-0.487736
-0.476302
-0.46361
-0.449676
-0.43453
-0.418218
-0.400809
-0.382361
-0.363092
-0.342675
-0.323093
-0.298249
-0.385074
-0.387289
-0.388293
-0.389744
-0.39106
-0.392577
-0.394267
-0.396229
-0.398492
-0.401094
-0.404053
-0.407378
-0.411069
-0.415119
-0.419516
-0.424241
-0.429275
-0.434593
-0.440166
-0.445964
-0.451953
-0.458098
-0.464359
-0.470694
-0.477058
-0.483405
-0.489683
-0.495839
-0.501819
-0.507565
-0.513017
-0.518115
-0.522796
-0.526996
-0.530651
-0.533698
-0.53607
-0.537705
-0.538539
-0.538511
-0.537561
-0.535632
-0.532669
-0.528622
-0.523445
-0.517096
-0.509541
-0.500751
-0.490707
-0.479402
-0.466835
-0.453023
-0.437993
-0.421791
-0.404485
-0.386128
-0.366946
-0.346582
-0.327088
-0.302168
-0.386697
-0.388718
-0.389661
-0.391026
-0.392287
-0.393753
-0.395403
-0.397328
-0.39956
-0.402135
-0.405069
-0.408372
-0.412043
-0.416077
-0.420459
-0.425174
-0.430198
-0.43551
-0.441079
-0.446877
-0.452869
-0.459019
-0.46529
-0.471638
-0.478019
-0.484386
-0.490689
-0.496874
-0.502888
-0.508673
-0.514169
-0.519315
-0.52405
-0.52831
-0.532031
-0.535149
-0.537598
-0.539316
-0.54024
-0.540307
-0.539458
-0.537635
-0.534783
-0.530853
-0.525795
-0.51957
-0.512141
-0.503478
-0.493562
-0.482383
-0.469941
-0.45625
-0.441337
-0.425244
-0.408042
-0.389777
-0.370686
-0.350377
-0.330979
-0.305986
-0.38832
-0.390146
-0.391029
-0.392307
-0.393512
-0.394926
-0.396534
-0.398423
-0.400622
-0.403167
-0.406075
-0.409354
-0.413005
-0.417019
-0.421386
-0.426086
-0.4311
-0.436403
-0.441966
-0.447761
-0.453753
-0.459907
-0.466184
-0.472542
-0.478937
-0.485321
-0.491646
-0.497857
-0.503902
-0.509721
-0.515258
-0.52045
-0.525235
-0.529551
-0.533334
-0.536519
-0.539042
-0.540839
-0.541848
-0.542006
-0.541254
-0.539534
-0.536791
-0.532973
-0.528033
-0.521928
-0.514622
-0.506084
-0.496294
-0.48524
-0.472921
-0.459349
-0.444552
-0.428569
-0.411471
-0.3933
-0.374303
-0.354051
-0.334756
-0.309696
-0.38994
-0.391573
-0.392394
-0.393585
-0.394734
-0.396095
-0.39766
-0.39951
-0.401675
-0.404189
-0.407069
-0.410323
-0.413951
-0.417945
-0.422293
-0.426977
-0.431978
-0.437269
-0.442824
-0.448613
-0.454603
-0.460757
-0.467038
-0.473403
-0.479808
-0.486207
-0.49255
-0.498784
-0.504856
-0.510707
-0.51628
-0.521513
-0.526346
-0.530714
-0.534555
-0.537803
-0.540396
-0.542269
-0.543359
-0.543605
-0.542946
-0.541325
-0.538686
-0.534977
-0.530151
-0.524164
-0.516978
-0.508563
-0.498896
-0.487964
-0.475767
-0.462313
-0.447631
-0.431758
-0.414765
-0.396688
-0.377787
-0.357595
-0.338409
-0.313288
-0.391555
-0.392996
-0.393755
-0.394858
-0.395949
-0.397257
-0.398778
-0.400588
-0.402718
-0.405199
-0.40805
-0.411276
-0.414879
-0.41885
-0.423178
-0.427844
-0.432828
-0.438106
-0.443651
-0.449432
-0.455416
-0.461567
-0.467848
-0.474217
-0.48063
-0.487041
-0.493398
-0.499652
-0.505746
-0.511626
-0.517231
-0.522502
-0.527378
-0.531794
-0.535689
-0.538997
-0.541655
-0.543599
-0.544767
-0.545096
-0.544527
-0.543001
-0.540463
-0.536861
-0.532145
-0.526272
-0.519203
-0.510908
-0.501361
-0.490551
-0.478472
-0.465136
-0.450568
-0.434804
-0.417915
-0.399934
-0.381131
-0.361001
-0.34193
-0.316755
-0.393161
-0.394411
-0.395109
-0.396124
-0.397158
-0.398411
-0.399886
-0.401655
-0.403748
-0.406196
-0.409014
-0.412212
-0.415787
-0.419734
-0.424039
-0.428684
-0.43365
-0.438912
-0.444443
-0.450213
-0.456188
-0.462335
-0.468613
-0.474983
-0.4814
-0.487818
-0.494187
-0.500456
-0.50657
-0.512474
-0.518108
-0.523413
-0.528327
-0.532788
-0.536732
-0.540096
-0.542815
-0.544827
-0.546068
-0.546477
-0.545994
-0.544559
-0.542118
-0.538618
-0.534009
-0.528247
-0.521293
-0.513114
-0.503686
-0.492993
-0.481032
-0.467812
-0.453356
-0.4377
-0.420917
-0.403031
-0.384329
-0.364263
-0.34531
-0.320089
-0.394757
-0.395819
-0.396454
-0.397382
-0.398357
-0.399554
-0.400983
-0.402709
-0.404764
-0.407176
-0.409962
-0.413128
-0.416674
-0.420594
-0.424873
-0.429496
-0.434441
-0.439684
-0.445199
-0.450954
-0.456919
-0.463056
-0.469329
-0.475696
-0.482114
-0.488536
-0.494913
-0.501193
-0.507324
-0.513247
-0.518906
-0.524241
-0.52919
-0.533691
-0.537681
-0.541096
-0.543873
-0.545948
-0.547258
-0.547743
-0.547341
-0.545994
-0.543647
-0.540245
-0.535739
-0.530085
-0.523242
-0.515177
-0.505864
-0.495287
-0.483442
-0.470335
-0.455991
-0.440443
-0.423764
-0.405974
-0.387373
-0.367374
-0.348544
-0.323285
-0.39634
-0.397215
-0.397789
-0.398629
-0.399544
-0.400685
-0.402067
-0.40375
-0.405764
-0.408139
-0.410889
-0.414023
-0.417538
-0.421428
-0.42568
-0.430277
-0.435199
-0.44042
-0.445915
-0.451654
-0.457604
-0.46373
-0.469994
-0.476355
-0.482769
-0.489192
-0.495573
-0.501861
-0.508004
-0.513944
-0.519624
-0.524984
-0.529964
-0.534501
-0.538532
-0.541994
-0.544824
-0.546958
-0.548334
-0.54889
-0.548566
-0.547303
-0.545045
-0.541738
-0.537333
-0.531782
-0.525047
-0.517093
-0.507892
-0.497429
-0.485697
-0.472702
-0.458468
-0.443026
-0.426452
-0.408758
-0.39026
-0.370329
-0.351626
-0.326336
-0.397909
-0.398599
-0.399111
-0.399863
-0.400719
-0.401804
-0.403136
-0.404774
-0.406747
-0.409083
-0.411797
-0.414895
-0.418376
-0.422234
-0.426457
-0.431025
-0.435921
-0.441118
-0.446591
-0.45231
-0.458242
-0.464353
-0.470604
-0.476956
-0.483364
-0.489783
-0.496164
-0.502457
-0.508608
-0.51456
-0.520257
-0.525639
-0.530645
-0.535214
-0.539282
-0.542788
-0.545666
-0.547856
-0.549293
-0.549917
-0.549666
-0.548483
-0.546311
-0.543095
-0.538786
-0.533336
-0.526706
-0.518859
-0.509768
-0.499415
-0.487794
-0.474909
-0.460783
-0.445446
-0.428976
-0.411378
-0.392984
-0.373124
-0.354549
-0.329239
-0.39946
-0.399969
-0.400419
-0.401084
-0.40188
-0.402907
-0.40419
-0.405782
-0.407712
-0.410007
-0.412681
-0.415742
-0.419188
-0.423012
-0.427202
-0.43174
-0.436606
-0.441776
-0.447224
-0.452919
-0.458831
-0.464923
-0.471158
-0.477497
-0.483895
-0.490307
-0.496685
-0.502978
-0.509133
-0.515094
-0.520803
-0.526202
-0.531231
-0.535828
-0.539929
-0.543474
-0.546397
-0.548638
-0.550132
-0.550819
-0.550639
-0.549531
-0.547441
-0.544313
-0.540096
-0.534744
-0.528215
-0.520472
-0.511488
-0.501243
-0.48973
-0.476953
-0.462933
-0.447701
-0.431334
-0.413832
-0.395543
-0.375754
-0.357311
-0.331988
-0.400991
-0.401323
-0.401711
-0.402289
-0.403025
-0.403994
-0.405226
-0.40677
-0.408656
-0.410909
-0.413542
-0.416564
-0.419972
-0.423759
-0.427913
-0.432418
-0.437252
-0.442392
-0.447811
-0.453481
-0.459368
-0.465439
-0.471655
-0.477976
-0.484361
-0.490763
-0.497133
-0.503423
-0.509577
-0.515542
-0.521261
-0.526673
-0.53172
-0.536341
-0.540471
-0.54405
-0.547015
-0.549302
-0.55085
-0.551597
-0.551482
-0.550447
-0.548434
-0.54539
-0.541262
-0.536004
-0.529573
-0.521931
-0.513051
-0.502911
-0.491504
-0.478832
-0.464916
-0.449787
-0.433522
-0.416115
-0.397931
-0.378217
-0.359907
-0.33458
-0.402502
-0.402658
-0.402986
-0.403478
-0.404153
-0.405063
-0.406244
-0.40774
-0.409579
-0.411788
-0.414378
-0.417358
-0.420726
-0.424474
-0.42859
-0.433058
-0.437858
-0.442965
-0.448353
-0.453992
-0.459852
-0.465897
-0.472091
-0.478392
-0.484759
-0.491147
-0.497506
-0.503788
-0.509939
-0.515904
-0.521627
-0.527049
-0.532111
-0.53675
-0.540906
-0.544516
-0.547517
-0.549848
-0.551445
-0.552247
-0.552194
-0.551227
-0.549289
-0.546325
-0.542284
-0.537116
-0.530779
-0.523235
-0.514455
-0.504418
-0.493113
-0.480544
-0.466731
-0.451702
-0.435538
-0.418227
-0.400149
-0.380509
-0.362334
-0.337014
-0.40399
-0.403975
-0.404242
-0.404648
-0.405263
-0.406114
-0.407243
-0.408688
-0.41048
-0.412642
-0.415188
-0.418124
-0.421449
-0.425155
-0.429231
-0.43366
-0.438422
-0.443492
-0.448846
-0.454453
-0.460282
-0.466298
-0.472465
-0.478743
-0.485089
-0.491458
-0.497803
-0.504073
-0.510216
-0.516178
-0.521902
-0.527329
-0.532401
-0.537056
-0.541233
-0.544869
-0.547904
-0.550273
-0.551915
-0.552769
-0.552775
-0.551873
-0.550006
-0.547119
-0.543159
-0.538078
-0.531832
-0.524383
-0.515701
-0.505762
-0.494557
-0.482088
-0.468376
-0.453446
-0.437382
-0.420165
-0.402193
-0.38263
-0.36459
-0.339285
-0.405452
-0.40527
-0.405477
-0.405799
-0.406354
-0.407144
-0.40822
-0.409614
-0.411358
-0.413472
-0.415971
-0.418861
-0.42214
-0.425802
-0.429835
-0.434222
-0.438942
-0.443974
-0.449289
-0.45486
-0.460655
-0.466639
-0.472776
-0.479027
-0.485348
-0.491695
-0.498021
-0.504276
-0.510408
-0.516362
-0.522082
-0.527511
-0.532589
-0.537256
-0.54145
-0.54511
-0.548173
-0.550577
-0.552262
-0.553164
-0.553224
-0.552383
-0.550584
-0.54777
-0.543889
-0.538891
-0.532733
-0.525376
-0.516787
-0.506944
-0.495836
-0.483465
-0.46985
-0.455017
-0.439052
-0.421928
-0.404062
-0.384578
-0.366675
-0.341394
-0.406889
-0.406544
-0.406692
-0.40693
-0.407423
-0.408154
-0.409176
-0.410518
-0.412211
-0.414275
-0.416726
-0.419567
-0.422799
-0.426414
-0.430401
-0.434742
-0.439419
-0.444408
-0.449682
-0.455214
-0.460971
-0.46692
-0.473023
-0.479242
-0.485535
-0.491857
-0.49816
-0.504396
-0.510513
-0.516455
-0.522169
-0.527595
-0.532676
-0.53735
-0.541558
-0.545237
-0.548325
-0.550761
-0.552484
-0.553431
-0.553542
-0.552759
-0.551023
-0.548279
-0.544473
-0.539556
-0.533482
-0.526212
-0.517714
-0.507964
-0.49695
-0.484674
-0.471154
-0.456416
-0.440547
-0.423517
-0.405757
-0.386353
-0.368586
-0.34334
-0.408297
-0.407793
-0.407883
-0.408039
-0.408472
-0.409142
-0.410109
-0.411398
-0.413039
-0.415052
-0.417451
-0.420242
-0.423424
-0.426989
-0.430927
-0.435221
-0.43985
-0.444793
-0.450024