/*--------------------------------*- C++ -*----------------------------------*\
  =========                 |
  \\      /  F ield         | OpenFOAM: The Open Source CFD Toolbox
   \\    /   O peration     | Website:  https://openfoam.org
    \\  /    A nd           | Version:  9
     \\/     M anipulation  |
\*---------------------------------------------------------------------------*/
FoamFile
{
    format      ascii;
    class       surfaceScalarField;
    location    "8.1";
    object      phi;
}
// * * * * * * * * * * * * * * * * * * * * * * * * * * * * * * * * * * * * * //

dimensions      [0 3 -1 0 0 0 0];

internalField   nonuniform List<scalar> 
16735
(
-0.00151543
0.00151543
1.00046e-11
-0.00414762
0.00263218
6.48772e-11
-0.00702994
0.00288233
1.309e-10
-0.00942071
0.00239076
2.128e-10
-0.0107512
0.0013305
3.12495e-10
-0.0104793
-0.000271867
4.28954e-10
-0.00810297
-0.00237637
5.62513e-10
-0.00304071
-0.00506226
7.02519e-10
0.0047423
-0.00778301
8.39053e-10
-0.011255
9.58512e-10
0.0159973
-0.00148386
0.0029993
-0.00403788
0.0051862
-0.0067945
0.00563895
-0.00900773
0.00460399
-0.0101011
0.00242387
-0.00952283
-0.000850135
-0.00675815
-0.00514105
-0.00123785
-0.0105826
0.00717957
-0.0162004
-0.0232597
0.0191843
-0.00142129
0.00442059
-0.00382003
0.00758494
-0.00632679
0.0081457
-0.00818705
0.00646425
-0.00880898
0.00304581
-0.00762107
-0.00203804
-0.0040807
-0.00868142
0.00240118
-0.0170645
0.012024
-0.0258233
-0.0367398
0.0255041
-0.00132879
0.00574938
-0.00349727
0.00975342
-0.00563305
0.0102815
-0.00696905
0.00780025
-0.00689114
0.00296791
-0.004798
-0.00413119
-6.09013e-05
-0.0134185
0.00781545
-0.0249408
0.019204
-0.0372118
-0.0523835
0.0348476
-0.00120795
0.00695732
-0.00307418
0.0116196
-0.00472229
0.0119296
-0.00536876
0.00844671
-0.0043708
0.00196995
-0.00109697
-0.00740501
0.00509647
-0.019612
0.0148937
-0.034738
0.0286089
-0.0509271
-0.0708263
0.0470518
-0.00106074
0.00801806
-0.00255658
0.0131155
-0.00360597
0.012979
-0.00340527
0.00824601
-0.00127629
-0.000159022
0.00345377
-0.0121351
0.011474
-0.0276322
0.0235503
-0.0468143
0.0400966
-0.0674733
-0.0926325
0.0619027
-0.00088945
0.00890751
-0.00195123
0.0141773
-0.00229752
0.0133253
-0.00110112
0.00704961
0.00235422
-0.00361436
0.00879195
-0.0185728
0.0189529
-0.0377932
0.0336687
-0.0615301
0.0534928
-0.0872974
-0.118278
0.0791379
-0.000696588
0.0096041
-0.00126556
0.0147462
-0.000811834
0.0128716
0.00151791
0.00471986
0.00648276
-0.00857921
0.0148571
-0.0269472
0.0274391
-0.0503751
0.0451109
-0.079202
0.0685922
-0.110779
-0.148134
0.0984485
-0.00048487
0.010089
-0.000507177
0.0147685
0.000835428
0.011529
0.00442514
0.00113014
0.0110664
-0.0152205
0.0215833
-0.037464
0.0368307
-0.0656226
0.057722
-0.100093
0.0851604
-0.138217
-0.182454
0.11948
-0.000257801
0.0103468
0.000314652
0.0141961
0.00262771
0.00921589
0.0075922
-0.00383434
0.0160589
-0.0236872
0.0288989
-0.050304
0.0470173
-0.083741
0.071332
-0.124408
0.102936
-0.169821
-0.221351
0.141833
-7.0573e-06
0.0103538
0.00119463
0.0129944
0.00454913
0.00586139
0.0109902
-0.0102754
0.0214125
-0.0341095
0.0367283
-0.0656198
0.0578803
-0.104893
0.0857573
-0.152285
0.121631
-0.205695
-0.26479
0.16507
0.000243739
0.0101101
0.002124
0.0111141
0.00658403
0.00140136
0.0145906
-0.0182819
0.0270788
-0.0465977
0.0449925
-0.0835335
0.0692942
-0.129195
0.100803
-0.183794
0.140939
-0.24583
-0.312571
0.18872
0.000508691
0.0096014
0.00309653
0.00852631
0.00871749
-0.0042196
0.0183651
-0.0279296
0.0330085
-0.0612411
0.0536097
-0.104135
0.081126
-0.156711
0.116263
-0.218931
0.160532
-0.290099
-0.36433
0.212291
0.000782723
0.00881867
0.00410639
0.00520265
0.0109356
-0.0110489
0.0222864
-0.0392803
0.0391518
-0.0781065
0.0624943
-0.127477
0.0932348
-0.187452
0.131922
-0.257618
0.180068
-0.338245
-0.419539
0.235276
0.00106444
0.00775423
0.00514845
0.00111865
0.0132255
-0.019126
0.0263274
-0.0523822
0.0454577
-0.0972368
0.0715572
-0.153577
0.105472
-0.221366
0.147553
-0.299699
0.199194
-0.389886
-0.477519
0.257174
0.00135299
0.00640125
0.0062183
-0.00374666
0.015575
-0.0284826
0.0304612
-0.0672684
0.0518738
-0.118649
0.0807042
-0.182407
0.117678
-0.25834
0.162923
-0.344945
0.217556
-0.444518
-0.537476
0.277513
0.00164781
0.00475344
0.0073121
-0.00941095
0.0179721
-0.0391427
0.0346605
-0.0839567
0.058345
-0.142334
0.0898354
-0.213897
0.129688
-0.298192
0.177792
-0.393049
0.234792
-0.501518
-0.598589
0.295905
0.00194862
0.00280481
0.00842637
-0.0158887
0.0204053
-0.0511216
0.0388967
-0.102448
0.0648126
-0.16825
0.0988443
-0.247929
0.141327
-0.340675
0.191922
-0.443644
0.250555
-0.560151
-0.660129
0.312094
0.00225526
0.000549558
0.00955768
-0.0231911
0.0228623
-0.0644262
0.0431392
-0.122725
0.0712137
-0.196324
0.107617
-0.284332
0.152421
-0.385479
0.205089
-0.496313
0.264563
-0.619624
-0.721574
0.326008
0.00256759
-0.00201803
0.0107024
-0.0313259
0.0253296
-0.0790534
0.0473547
-0.14475
0.0774799
-0.22645
0.116031
-0.322884
0.162781
-0.432228
0.217038
-0.55057
0.276663
-0.67925
-0.783647
0.338736
0.00288541
-0.00490344
0.0118564
-0.0402969
0.0277924
-0.0949894
0.0515067
-0.168465
0.0835381
-0.258481
0.12396
-0.363306
0.172207
-0.480475
0.227355
-0.605718
0.286944
-0.738839
-0.858708
0.362005
0.00320833
-0.00811177
0.0130147
-0.0501032
0.0302338
-0.112209
0.055555
-0.193786
0.0893112
-0.292237
0.131276
-0.405271
0.180512
-0.529711
0.235778
-0.660984
0.294248
-0.797309
-0.926486
0.362027
0.00353567
-0.0116474
0.0141713
-0.0607388
0.0326348
-0.130672
0.0594563
-0.220607
0.0947199
-0.327501
0.137858
-0.448409
0.187546
-0.5794
0.242167
-0.715604
0.298714
-0.853857
-0.987888
0.360116
0.00386639
-0.0155138
0.0153191
-0.0721915
0.0349737
-0.150327
0.0631644
-0.248798
0.0996849
-0.364021
0.143596
-0.49232
0.193193
-0.628997
0.246507
-0.768917
0.300602
-0.907952
-1.04361
0.356321
0.00419899
-0.0197128
0.0164495
-0.084442
0.0372268
-0.171104
0.0666307
-0.278202
0.104128
-0.401519
0.148392
-0.536585
0.197367
-0.677972
0.248805
-0.820355
0.299974
-0.959121
-1.09414
0.350511
0.00453154
-0.0242444
0.0175527
-0.0974632
0.0393683
-0.19292
0.0698057
-0.308639
0.107976
-0.439689
0.152164
-0.580772
0.200012
-0.725821
0.249095
-0.869438
0.29696
-1.00699
-1.13986
0.342677
0.00486161
-0.029106
0.0186177
-0.111219
0.0413706
-0.215673
0.0726401
-0.339909
0.11116
-0.478209
0.154846
-0.624458
0.201105
-0.772079
0.24744
-0.915773
0.291732
-1.05128
-1.18104
0.332911
0.0051863
-0.0342923
0.0196322
-0.125665
0.0432052
-0.239246
0.075086
-0.37179
0.113624
-0.516747
0.156396
-0.66723
0.20065
-0.816334
0.243933
-0.959056
0.284488
-1.09183
-1.21792
0.32137
0.0055023
-0.0397946
0.0205832
-0.140746
0.0448435
-0.263506
0.0770992
-0.404045
0.115318
-0.554966
0.156789
-0.708701
0.198686
-0.858231
0.238691
-0.999061
0.275436
-1.12858
-1.25073
0.30824
0.00580591
-0.0456005
0.0214571
-0.156397
0.0462574
-0.288306
0.0786401
-0.436428
0.116209
-0.592534
0.156024
-0.748516
0.195271
-0.897478
0.231852
-1.03564
0.264787
-1.16151
-1.27966
0.293725
0.00609317
-0.0516936
0.02224
-0.172544
0.0474202
-0.313486
0.0796753
-0.468683
0.116274
-0.629133
0.15412
-0.786363
0.190488
-0.933846
0.223563
-1.06872
0.252747
-1.1907
-1.30494
0.278023
0.00635989
-0.0580535
0.0229182
-0.189102
0.0483076
-0.338876
0.0801787
-0.500554
0.115507
-0.664461
0.151113
-0.82197
0.184435
-0.967167
0.213981
-1.09826
0.239512
-1.21623
-1.32675
0.261322
0.00660178
-0.0646553
0.0234786
-0.205979
0.0488983
-0.364296
0.0801319
-0.531788
0.113913
-0.698242
0.147055
-0.855112
0.177219
-0.997331
0.203259
-1.1243
0.225268
-1.23824
-1.34528
0.243796
0.00681457
-0.0714699
0.0239088
-0.223073
0.0491745
-0.389561
0.0795253
-0.562139
0.111511
-0.730228
0.14201
-0.885611
0.168954
-1.02427
0.191551
-1.1469
0.210181
-1.25687
-1.3607
0.225599
0.00699406
-0.0784639
0.0241976
-0.240277
0.0491228
-0.414486
0.0783573
-0.591373
0.108332
-0.760202
0.136053
-0.913332
0.159759
-1.04798
0.179
-1.16614
0.194402
-1.27227
-1.37316
0.206869
0.00713625
-0.0856002
0.0243355
-0.257476
0.0487341
-0.438885
0.0766346
-0.619274
0.104413
-0.78798
0.129263
-0.938182
0.149748
-1.06847
0.165741
-1.18213
0.178067
-1.28459
-1.38282
0.187724
0.00723742
-0.0928376
0.0243144
-0.274553
0.0480039
-0.462575
0.0743711
-0.645641
0.0998015
-0.813411
0.121724
-0.960104
0.139035
-1.08578
0.151897
-1.19499
0.161293
-1.29399
-1.3898
0.168268
0.00729423
-0.100132
0.0241284
-0.291387
0.0469325
-0.485379
0.0715877
-0.670296
0.0945508
-0.836374
0.113521
-0.979075
0.127725
-1.09998
0.137582
-1.20485
0.144185
-1.30059
-1.3942
0.148589
0.00730378
-0.107436
0.0237735
-0.307857
0.0455242
-0.507129
0.0683108
-0.693083
0.0887174
-0.85678
0.10474
-0.995098
0.11592
-1.11116
0.122896
-1.21183
0.126834
-1.30453
-1.39613
0.128766
0.00726365
-0.114699
0.0232478
-0.323841
0.0437878
-0.527669
0.0645717
-0.713867
0.0823605
-0.874569
0.0954614
-1.0082
0.103711
-1.11941
0.10793
-1.21605
0.109318
-1.30592
-1.39568
0.108864
0.00717199
-0.121871
0.0225514
-0.339221
0.0417357
-0.546854
0.0604053
-0.732536
0.0755402
-0.889704
0.0857648
-1.01842
0.0911853
-1.12483
0.0927629
-1.21762
0.0917054
-1.30486
-1.39291
0.0889418
0.00702753
-0.128899
0.0216865
-0.35388
0.0393836
-0.564551
0.0558494
-0.749002
0.0683168
-0.902171
0.0757247
-1.02583
0.0784192
-1.12753
0.0774669
-1.21667
0.0740565
-1.30145
-1.38791
0.0690483
0.0068296
-0.135728
0.0206573
-0.367707
0.0367502
-0.580643
0.0509435
-0.763195
0.0607492
-0.911977
0.0654111
-1.03049
0.0654835
-1.1276
0.0621042
-1.21329
0.056424
-1.29577
-1.38071
0.0492261
0.00657813
-0.142307
0.0194696
-0.380599
0.0338562
-0.59503
0.0457282
-0.775067
0.0528946
-0.919143
0.054889
-1.03249
0.0524416
-1.12515
0.0467307
-1.20758
0.0388549
-1.2879
-1.37136
0.0295102
0.00627368
-0.14858
0.0181311
-0.392456
0.0307242
-0.607623
0.0402443
-0.784588
0.0448077
-0.923707
0.0442183
-1.0319
0.0393504
-1.12028
0.0313971
-1.19963
0.0213942
-1.27789
-1.35988
0.00990916
0.0059174
-0.154498
0.0166505
-0.403189
0.0273784
-0.618351
0.0345323
-0.791741
0.0365404
-0.925715
0.0334542
-1.02881
0.0262601
-1.11309
0.016146
-1.18951
0.00411698
-1.26587
-1.34628
-0.00947957
0.00551097
-0.160009
0.0150382
-0.412716
0.0238435
-0.627156
0.0286318
-0.79653
0.0281417
-0.925225
0.0226474
-1.02332
0.013217
-1.10366
0.000964924
-1.17726
-0.0130491
-1.25185
-1.33073
-0.0285979
0.00505665
-0.165065
0.0133052
-0.420965
0.0201449
-0.633996
0.0225815
-0.798966
0.0196574
-0.922301
0.0118436
-1.0155
0.000254528
-1.09207
-0.0139509
-1.16306
-0.0299973
-1.2358
-1.31323
-0.0475009
0.00455716
-0.169622
0.0114635
-0.427871
0.0163081
-0.638841
0.0164182
-0.799076
0.0111297
-0.917012
0.00107788
-1.00545
-0.0125513
-1.07844
-0.0287172
-1.14689
-0.0466965
-1.21783
-1.29379
-0.0661404
0.00401566
-0.173638
0.00952568
-0.433381
0.0123585
-0.641674
0.0101772
-0.796895
0.00259893
-0.909434
-0.00958747
-0.993265
-0.0252082
-1.06282
-0.0432655
-1.12883
-0.0631278
-1.19796
-1.27243
-0.0844866
0.00343574
-0.177074
0.00750442
-0.43745
0.00832109
-0.64249
0.00389279
-0.792467
-0.00589949
-0.899642
-0.0201426
-0.979022
-0.0376717
-1.04529
-0.0575628
-1.10894
-0.0792665
-1.17626
-1.24918
-0.102514
0.00282134
-0.179895
0.00541376
-0.440043
0.00422097
-0.641298
-0.00240426
-0.785842
-0.0143326
-0.887713
-0.0305492
-0.962806
-0.0499127
-1.02593
-0.0715809
-1.08727
-0.0950871
-1.15275
-1.22407
-0.120198
0.00217672
-0.182072
0.00327021
-0.441136
0.000115131
-0.638142
-0.00868752
-0.777039
-0.0226705
-0.87373
-0.040778
-0.944698
-0.0619048
-1.0048
-0.0852938
-1.06388
-0.110564
-1.12748
-1.19712
-0.137516
0.00150733
-0.183579
0.00109355
-0.440722
-0.00408961
-0.632959
-0.0149296
-0.766199
-0.0308847
-0.857775
-0.0508032
-0.92478
-0.0736236
-0.98198
-0.0986763
-1.03883
-0.125671
-1.10049
-1.16834
-0.154445
0.000816903
-0.184396
-0.00111627
-0.438789
-0.0082529
-0.625823
-0.0211028
-0.753349
-0.0389501
-0.839928
-0.0606012
-0.903129
-0.0850468
-0.957534
-0.111705
-1.01217
-0.140383
-1.07181
-1.13776
-0.170961
8.36789e-05
-0.18448
-0.00336268
-0.435343
-0.0123919
-0.616793
-0.0271839
-0.738557
-0.0468435
-0.820268
-0.0701508
-0.879821
-0.0961542
-0.931531
-0.124357
-0.983971
-0.154672
-1.04149
-1.1054
-0.187038
-0.000633803
-0.183846
-0.00560561
-0.430371
-0.0164892
-0.60591
-0.0331521
-0.721894
-0.054544
-0.798877
-0.0794329
-0.854932
-0.106927
-0.904036
-0.136611
-0.954287
-0.168512
-1.00959
-1.07126
-0.202653
-0.00136454
-0.182481
-0.00783927
-0.423896
-0.0205275
-0.593222
-0.0389876
-0.703434
-0.0620327
-0.775831
-0.0884305
-0.828535
-0.11735
-0.875117
-0.148451
-0.923186
-0.18188
-0.976164
-1.03536
-0.217775
-0.00210092
-0.18038
-0.0100533
-0.415944
-0.0244906
-0.578784
-0.0446723
-0.683252
-0.0692927
-0.751211
-0.097128
-0.800699
-0.127407
-0.844838
-0.159859
-0.890733
-0.194732
-0.941291
-0.997788
-0.232306
-0.00283717
-0.177543
-0.0122369
-0.406544
-0.0283632
-0.562658
-0.0501899
-0.661426
-0.0763084
-0.725093
-0.105512
-0.771496
-0.137086
-0.813264
-0.170821
-0.856999
-0.207021
-0.905092
-0.958537
-0.246271
-0.00356864
-0.173975
-0.0143799
-0.395733
-0.0321315
-0.544906
-0.0555254
-0.638032
-0.0830661
-0.697552
-0.11357
-0.740992
-0.146382
-0.780451
-0.181329
-0.822052
-0.218367
-0.868053
-0.919304
-0.257601
-0.00429094
-0.169684
-0.0164726
-0.383551
-0.0357821
-0.525597
-0.0606651
-0.613149
-0.089553
-0.668664
-0.12129
-0.709255
-0.155283
-0.746459
-0.191396
-0.785939
-0.229659
-0.82979
-0.878816
-0.270147
-0.00499995
-0.164684
-0.0185057
-0.370045
-0.039303
-0.504799
-0.0655967
-0.586855
-0.0957577
-0.638503
-0.128664
-0.676349
-0.163778
-0.711345
-0.201004
-0.748713
-0.240417
-0.790376
-0.837065
-0.282168
-0.0056917
-0.158992
-0.0204707
-0.355266
-0.0426829
-0.482587
-0.0703089
-0.559229
-0.10167
-0.607142
-0.135679
-0.64234
-0.171857
-0.675167
-0.210143
-0.710427
-0.250642
-0.749877
-0.79414
-0.293567
-0.00636246
-0.15263
-0.0223596
-0.339269
-0.0459117
-0.459035
-0.0747914
-0.530349
-0.10728
-0.574654
-0.142329
-0.60729
-0.179513
-0.637983
-0.218805
-0.671136
-0.260339
-0.708344
-0.750118
-0.304361
-0.00700867
-0.145621
-0.0241647
-0.322113
-0.04898
-0.43422
-0.0790348
-0.500295
-0.112579
-0.541109
-0.148605
-0.571264
-0.186738
-0.599851
-0.226983
-0.63089
-0.269502
-0.665825
-0.70506
-0.314559
-0.00762699
-0.137994
-0.0258793
-0.303861
-0.0518793
-0.40822
-0.0830308
-0.469143
-0.11756
-0.50658
-0.1545
-0.534325
-0.193523
-0.560828
-0.234669
-0.589745
-0.27812
-0.622374
-0.659024
-0.324156
-0.0082143
-0.12978
-0.027497
-0.284578
-0.0546018
-0.381115
-0.0867716
-0.436973
-0.122216
-0.471136
-0.160006
-0.496535
-0.199862
-0.520971
-0.241853
-0.547753
-0.286184
-0.578044
-0.612067
-0.333141
-0.00876767
-0.121012
-0.0290119
-0.264334
-0.0571404
-0.352987
-0.0902502
-0.403864
-0.126538
-0.434847
-0.165116
-0.457957
-0.205748
-0.48034
-0.248528
-0.504973
-0.293682
-0.532889
-0.564245
-0.341504
-0.00928441
-0.111728
-0.0304187
-0.2432
-0.0594889
-0.323916
-0.0934604
-0.369892
-0.130523
-0.397785
-0.169825
-0.418654
-0.211172
-0.438993
-0.254684
-0.461461
-0.300604
-0.486969
-0.515618
-0.349232
-0.00976206
-0.101966
-0.0317125
-0.221249
-0.0616414
-0.293987
-0.0963964
-0.335137
-0.134163
-0.360019
-0.174127
-0.37869
-0.216128
-0.396992
-0.260312
-0.417277
-0.306938
-0.440343
-0.466248
-0.356309
-0.0101984
-0.0917672
-0.0328891
-0.198558
-0.0635929
-0.263284
-0.0990531
-0.299677
-0.137454
-0.321618
-0.178015
-0.338129
-0.220609
-0.354397
-0.265404
-0.372482
-0.312673
-0.393074
-0.416198
-0.362723
-0.0105913
-0.0811759
-0.0339445
-0.175205
-0.0653387
-0.23189
-0.101426
-0.26359
-0.140391
-0.282652
-0.181485
-0.297036
-0.22461
-0.311272
-0.269953
-0.327139
-0.317799
-0.345228
-0.365538
-0.368459
-0.010939
-0.0702368
-0.0348754
-0.151269
-0.0668748
-0.19989
-0.103511
-0.226954
-0.14297
-0.243193
-0.184531
-0.255475
-0.228123
-0.26768
-0.273949
-0.281313
-0.322306
-0.296871
-0.314338
-0.373506
-0.01124
-0.0589968
-0.0356787
-0.12683
-0.0681979
-0.167371
-0.105304
-0.189847
-0.145188
-0.203309
-0.187151
-0.213512
-0.231145
-0.223685
-0.277387
-0.235071
-0.326185
-0.248074
-0.262671
-0.377852
-0.0114929
-0.0475039
-0.036352
-0.101971
-0.0693048
-0.134418
-0.106804
-0.152348
-0.147041
-0.163072
-0.189339
-0.171214
-0.23367
-0.179354
-0.280262
-0.188479
-0.329429
-0.198907
-0.210611
-0.381489
-0.0116966
-0.0358073
-0.0368931
-0.0767746
-0.0701933
-0.101118
-0.108006
-0.114536
-0.148526
-0.122552
-0.191093
-0.128646
-0.235695
-0.134753
-0.282568
-0.141606
-0.332032
-0.149442
-0.158236
-0.384407
-0.0118501
-0.0239572
-0.0373004
-0.0513243
-0.0708614
-0.0675569
-0.108909
-0.0764881
-0.149642
-0.0818195
-0.192412
-0.0858768
-0.237216
-0.0899486
-0.2843
-0.0945217
-0.333989
-0.0997526
-0.105623
-0.386602
-0.0119529
-0.0120043
-0.0375726
-0.0257046
-0.0713076
-0.033822
-0.109512
-0.0382833
-0.150387
-0.0409452
-0.193291
-0.0429722
-0.238232
-0.0450083
-0.285457
-0.0472962
-0.335296
-0.0499138
-0.0528515
-0.388068
-0.0120043
2.95071e-11
-0.0377089
7.81178e-11
-0.0715309
1.06403e-10
-0.109814
1.13216e-10
-0.150759
1.10591e-10
-0.193732
1.03445e-10
-0.23874
9.46148e-11
-0.286036
8.76168e-11
-0.33595
8.17383e-11
7.6504e-11
-0.388801
-0.0120043
0.0120043
-0.0377089
0.0257046
-0.0715309
0.033822
-0.109814
0.0382833
-0.150759
0.0409452
-0.193732
0.0429722
-0.23874
0.0450083
-0.286036
0.0472962
-0.33595
0.0499138
0.0528515
-0.388801
-0.0119529
0.0239572
-0.0375726
0.0513243
-0.0713076
0.0675569
-0.109512
0.0764881
-0.150387
0.0818195
-0.193291
0.0858768
-0.238232
0.0899486
-0.285457
0.0945217
-0.335296
0.0997526
0.105623
-0.388068
-0.0118501
0.0358073
-0.0373004
0.0767746
-0.0708614
0.101118
-0.108909
0.114536
-0.149642
0.122552
-0.192412
0.128646
-0.237216
0.134753
-0.2843
0.141606
-0.333989
0.149442
0.158236
-0.386602
-0.0116966
0.0475039
-0.0368931
0.101971
-0.0701933
0.134418
-0.108006
0.152348
-0.148526
0.163072
-0.191093
0.171214
-0.235695
0.179354
-0.282568
0.188479
-0.332032
0.198907
0.210611
-0.384407
-0.0114929
0.0589968
-0.036352
0.12683
-0.0693048
0.167371
-0.106804
0.189847
-0.147041
0.203309
-0.189339
0.213512
-0.23367
0.223685
-0.280262
0.235071
-0.329429
0.248074
0.262671
-0.381489
-0.01124
0.0702368
-0.0356787
0.151269
-0.0681979
0.19989
-0.105304
0.226954
-0.145188
0.243193
-0.187151
0.255475
-0.231145
0.26768
-0.277387
0.281313
-0.326185
0.296871
0.314338
-0.377852
-0.010939
0.0811759
-0.0348754
0.175205
-0.0668748
0.23189
-0.103511
0.26359
-0.14297
0.282652
-0.184531
0.297036
-0.228123
0.311272
-0.273949
0.327139
-0.322306
0.345228
0.365538
-0.373506
-0.0105913
0.0917672
-0.0339445
0.198558
-0.0653387
0.263284
-0.101426
0.299677
-0.140391
0.321618
-0.181485
0.338129
-0.22461
0.354397
-0.269953
0.372482
-0.317799
0.393074
0.416198
-0.368459
-0.0101984
0.101966
-0.0328891
0.221249
-0.0635929
0.293987
-0.0990531
0.335137
-0.137454
0.360019
-0.178015
0.37869
-0.220609
0.396992
-0.265404
0.417277
-0.312673
0.440343
0.466248
-0.362723
-0.00976206
0.111728
-0.0317125
0.2432
-0.0616414
0.323916
-0.0963964
0.369892
-0.134163
0.397785
-0.174127
0.418654
-0.216128
0.438993
-0.260312
0.461461
-0.306938
0.486969
0.515618
-0.356309
-0.00928441
0.121012
-0.0304187
0.264334
-0.0594889
0.352987
-0.0934604
0.403864
-0.130523
0.434847
-0.169825
0.457957
-0.211172
0.48034
-0.254684
0.504973
-0.300604
0.532889
0.564245
-0.349232
-0.00876767
0.12978
-0.0290119
0.284578
-0.0571404
0.381115
-0.0902502
0.436973
-0.126538
0.471136
-0.165116
0.496535
-0.205748
0.520971
-0.248528
0.547753
-0.293682
0.578044
0.612067
-0.341504
-0.0082143
0.137994
-0.027497
0.303861
-0.0546018
0.40822
-0.0867716
0.469143
-0.122216
0.50658
-0.160006
0.534325
-0.199862
0.560828
-0.241853
0.589745
-0.286184
0.622374
0.659024
-0.333141
-0.00762699
0.145621
-0.0258793
0.322113
-0.0518793
0.43422
-0.0830308
0.500295
-0.11756
0.541109
-0.1545
0.571264
-0.193523
0.599851
-0.234669
0.63089
-0.27812
0.665825
0.70506
-0.324156
-0.00700867
0.15263
-0.0241647
0.339269
-0.04898
0.459035
-0.0790348
0.530349
-0.112579
0.574654
-0.148605
0.60729
-0.186738
0.637983
-0.226983
0.671136
-0.269502
0.708344
0.750118
-0.314559
-0.00636246
0.158992
-0.0223596
0.355266
-0.0459117
0.482587
-0.0747914
0.559229
-0.10728
0.607142
-0.142329
0.64234
-0.179513
0.675167
-0.218805
0.710427
-0.260339
0.749877
0.79414
-0.304361
-0.0056917
0.164684
-0.0204707
0.370045
-0.0426829
0.504799
-0.0703089
0.586855
-0.10167
0.638503
-0.135679
0.676349
-0.171857
0.711345
-0.210143
0.748713
-0.250642
0.790376
0.837065
-0.293567
-0.00499995
0.169684
-0.0185057
0.383551
-0.039303
0.525597
-0.0655967
0.613149
-0.0957577
0.668664
-0.128664
0.709255
-0.163778
0.746459
-0.201004
0.785939
-0.240417
0.82979
0.878816
-0.282168
-0.00429094
0.173975
-0.0164726
0.395733
-0.0357821
0.544906
-0.0606651
0.638032
-0.089553
0.697552
-0.12129
0.740992
-0.155283
0.780451
-0.191396
0.822052
-0.229659
0.868053
0.919304
-0.270147
-0.00356864
0.177543
-0.0143799
0.406544
-0.0321315
0.562658
-0.0555254
0.661426
-0.0830661
0.725093
-0.11357
0.771496
-0.146382
0.813264
-0.181329
0.856999
-0.218367
0.905092
0.958537
-0.257601
-0.00283717
0.18038
-0.0122369
0.415944
-0.0283632
0.578784
-0.0501899
0.683252
-0.0763084
0.751211
-0.105512
0.800699
-0.137086
0.844838
-0.170821
0.890733
-0.207021
0.941291
0.997788
-0.246271
-0.00210092
0.182481
-0.0100533
0.423896
-0.0244906
0.593222
-0.0446723
0.703434
-0.0692927
0.775831
-0.097128
0.828535
-0.127407
0.875117
-0.159859
0.923186
-0.194732
0.976164
1.03536
-0.232306
-0.00136454
0.183846
-0.00783927
0.430371
-0.0205275
0.60591
-0.0389876
0.721894
-0.0620327
0.798877
-0.0884305
0.854932
-0.11735
0.904036
-0.148451
0.954287
-0.18188
1.00959
1.07126
-0.217775
-0.000633803
0.18448
-0.00560561
0.435343
-0.0164892
0.616793
-0.0331521
0.738557
-0.054544
0.820268
-0.0794329
0.879821
-0.106927
0.931531
-0.136611
0.983971
-0.168512
1.04149
1.1054
-0.202653
8.36789e-05
0.184396
-0.00336268
0.438789
-0.0123919
0.625823
-0.0271839
0.753349
-0.0468435
0.839928
-0.0701508
0.903129
-0.0961542
0.957534
-0.124357
1.01217
-0.154672
1.07181
1.13776
-0.187038
0.000816903
0.183579
-0.00111627
0.440722
-0.0082529
0.632959
-0.0211028
0.766199
-0.0389501
0.857775
-0.0606012
0.92478
-0.0850468
0.98198
-0.111705
1.03883
-0.140383
1.10049
1.16834
-0.170961
0.00150733
0.182072
0.00109355
0.441136
-0.00408961
0.638142
-0.0149296
0.777039
-0.0308847
0.87373
-0.0508032
0.944698
-0.0736236
1.0048
-0.0986763
1.06388
-0.125671
1.12748
1.19712
-0.154445
0.00217672
0.179895
0.00327021
0.440043
0.000115131
0.641298
-0.00868752
0.785842
-0.0226705
0.887713
-0.040778
0.962806
-0.0619048
1.02593
-0.0852938
1.08727
-0.110564
1.15275
1.22407
-0.137516
0.00282134
0.177074
0.00541376
0.43745
0.00422097
0.64249
-0.00240426
0.792467
-0.0143326
0.899642
-0.0305492
0.979022
-0.0499127
1.04529
-0.0715809
1.10894
-0.0950871
1.17626
1.24918
-0.120198
0.00343574
0.173638
0.00750442
0.433381
0.00832109
0.641674
0.00389279
0.796895
-0.00589949
0.909434
-0.0201426
0.993265
-0.0376717
1.06282
-0.0575628
1.12883
-0.0792665
1.19796
1.27243
-0.102514
0.00401566
0.169622
0.00952568
0.427871
0.0123585
0.638841
0.0101772
0.799076
0.00259893
0.917012
-0.00958747
1.00545
-0.0252082
1.07844
-0.0432655
1.14689
-0.0631278
1.21783
1.29379
-0.0844866
0.00455716
0.165065
0.0114635
0.420965
0.0163081
0.633996
0.0164182
0.798966
0.0111297
0.922301
0.00107788
1.0155
-0.0125513
1.09207
-0.0287172
1.16306
-0.0466965
1.2358
1.31323
-0.0661404
0.00505665
0.160009
0.0133052
0.412716
0.0201449
0.627156
0.0225815
0.79653
0.0196574
0.925225
0.0118436
1.02332
0.000254528
1.10366
-0.0139509
1.17726
-0.0299973
1.25185
1.33073
-0.0475009
0.00551097
0.154498
0.0150382
0.403189
0.0238435
0.618351
0.0286318
0.791741
0.0281417
0.925715
0.0226474
1.02881
0.013217
1.11309
0.000964924
1.18951
-0.0130491
1.26587
1.34628
-0.0285979
0.0059174
0.14858
0.0166505
0.392456
0.0273784
0.607623
0.0345323
0.784588
0.0365404
0.923707
0.0334542
1.0319
0.0262601
1.12028
0.016146
1.19963
0.00411698
1.27789
1.35988
-0.00947957
0.00627368
0.142307
0.0181311
0.380599
0.0307242
0.59503
0.0402443
0.775067
0.0448077
0.919143
0.0442183
1.03249
0.0393504
1.12515
0.0313971
1.20758
0.0213942
1.2879
1.37136
0.00990916
0.00657813
0.135728
0.0194696
0.367707
0.0338562
0.580643
0.0457282
0.763195
0.0528946
0.911977
0.054889
1.03049
0.0524416
1.1276
0.0467307
1.21329
0.0388549
1.29577
1.38071
0.0295102
0.0068296
0.128899
0.0206573
0.35388
0.0367502
0.564551
0.0509435
0.749002
0.0607492
0.902171
0.0654111
1.02583
0.0654835
1.12753
0.0621042
1.21667
0.056424
1.30145
1.38791
0.0492261
0.00702753
0.121871
0.0216865
0.339221
0.0393836
0.546854
0.0558494
0.732536
0.0683168
0.889704
0.0757247
1.01842
0.0784192
1.12483
0.0774669
1.21762
0.0740565
1.30486
1.39291
0.0690483
0.00717199
0.114699
0.0225514
0.323841
0.0417357
0.527669
0.0604053
0.713867
0.0755402
0.874569
0.0857648
1.0082
0.0911853
1.11941
0.0927629
1.21605
0.0917054
1.30592
1.39568
0.0889418
0.00726365
0.107436
0.0232478
0.307857
0.0437878
0.507129
0.0645717
0.693083
0.0823605
0.85678
0.0954614
0.995098
0.103711
1.11116
0.10793
1.21183
0.109318
1.30453
1.39613
0.108864
0.00730378
0.100132
0.0237735
0.291387
0.0455242
0.485379
0.0683108
0.670296
0.0887174
0.836374
0.10474
0.979075
0.11592
1.09998
0.122896
1.20485
0.126834
1.30059
1.3942
0.128766
0.00729423
0.0928376
0.0241284
0.274553
0.0469325
0.462575
0.0715877
0.645641
0.0945508
0.813411
0.113521
0.960104
0.127725
1.08578
0.137582
1.19499
0.144185
1.29399
1.3898
0.148589
0.00723742
0.0856002
0.0243144
0.257476
0.0480039
0.438885
0.0743711
0.619274
0.0998015
0.78798
0.121724
0.938182
0.139035
1.06847
0.151897
1.18213
0.161293
1.28459
1.38282
0.168268
0.00713625
0.0784639
0.0243355
0.240277
0.0487341
0.414486
0.0766346
0.591373
0.104413
0.760202
0.129263
0.913332
0.149748
1.04798
0.165741
1.16614
0.178067
1.27227
1.37316
0.187724
0.00699406
0.0714699
0.0241976
0.223073
0.0491228
0.389561
0.0783573
0.562139
0.108332
0.730228
0.136053
0.885611
0.159759
1.02427
0.179
1.1469
0.194402
1.25687
1.3607
0.206869
0.00681457
0.0646553
0.0239088
0.205979
0.0491745
0.364296
0.0795253
0.531788
0.111511
0.698242
0.14201
0.855112
0.168954
0.997331
0.191551
1.1243
0.210181
1.23824
1.34528
0.225599
0.00660178
0.0580535
0.0234786
0.189102
0.0488983
0.338876
0.0801319
0.500554
0.113913
0.664461
0.147055
0.82197
0.177219
0.967167
0.203259
1.09826
0.225268
1.21623
1.32675
0.243796
0.00635989
0.0516936
0.0229182
0.172544
0.0483076
0.313486
0.0801787
0.468683
0.115507
0.629133
0.151113
0.786363
0.184435
0.933846
0.213981
1.06872
0.239512
1.1907
1.30494
0.261322
0.00609317
0.0456005
0.02224
0.156397
0.0474202
0.288306
0.0796753
0.436428
0.116274
0.592534
0.15412
0.748516
0.190488
0.897478
0.223563
1.03564
0.252747
1.16151
1.27966
0.278023
0.00580591
0.0397946
0.0214571
0.140746
0.0462574
0.263506
0.0786401
0.404045
0.116209
0.554966
0.156024
0.708701
0.195271
0.858231
0.231852
0.999061
0.264787
1.12858
1.25073
0.293725
0.0055023
0.0342923
0.0205832
0.125665
0.0448435
0.239246
0.0770992
0.37179
0.115318
0.516747
0.156789
0.66723
0.198686
0.816334
0.238691
0.959056
0.275436
1.09183
1.21792
0.30824
0.0051863
0.029106
0.0196322
0.111219
0.0432052
0.215673
0.075086
0.339909
0.113624
0.478209
0.156396
0.624458
0.20065
0.772079
0.243933
0.915773
0.284488
1.05128
1.18104
0.32137
0.00486161
0.0242444
0.0186177
0.0974632
0.0413706
0.19292
0.0726401
0.308639
0.11116
0.439689
0.154846
0.580772
0.201105
0.725821
0.24744
0.869438
0.291732
1.00699
1.13986
0.332911
0.00453154
0.0197128
0.0175527
0.084442
0.0393683
0.171104
0.0698057
0.278202
0.107976
0.401519
0.152164
0.536585
0.200012
0.677972
0.249095
0.820355
0.29696
0.959121
1.09414
0.342677
0.00419899
0.0155138
0.0164495
0.0721915
0.0372268
0.150327
0.0666307
0.248798
0.104128
0.364021
0.148392
0.49232
0.197367
0.628997
0.248805
0.768917
0.299974
0.907952
1.04361
0.350511
0.00386639
0.0116474
0.0153191
0.0607388
0.0349737
0.130672
0.0631644
0.220607
0.0996849
0.327501
0.143596
0.448409
0.193193
0.5794
0.246507
0.715604
0.300602
0.853857
0.987888
0.356321
0.00353567
0.00811177
0.0141713
0.0501032
0.0326348
0.112209
0.0594563
0.193786
0.0947199
0.292237
0.137858
0.405271
0.187546
0.529711
0.242167
0.660984
0.298714
0.797309
0.926486
0.360116
0.00320833
0.00490344
0.0130147
0.0402969
0.0302338
0.0949894
0.055555
0.168465
0.0893112
0.258481
0.131276
0.363306
0.180512
0.480475
0.235778
0.605718
0.294248
0.738839
0.858708
0.362027
0.00288541
0.00201803
0.0118564
0.0313259
0.0277924
0.0790534
0.0515067
0.14475
0.0835381
0.22645
0.12396
0.322884
0.172207
0.432228
0.227355
0.55057
0.286944
0.67925
0.783647
0.362005
0.00256759
-0.000549558
0.0107024
0.0231911
0.0253296
0.0644262
0.0473547
0.122725
0.0774799
0.196324
0.116031
0.284332
0.162781
0.385479
0.217038
0.496313
0.276663
0.619624
0.721574
0.338736
0.00225526
-0.00280481
0.00955768
0.0158887
0.0228623
0.0511216
0.0431392
0.102448
0.0712137
0.16825
0.107617
0.247929
0.152421
0.340675
0.205089
0.443644
0.264563
0.560151
0.660129
0.326008
0.00194862
-0.00475344
0.00842637
0.00941095
0.0204053
0.0391427
0.0388967
0.0839567
0.0648126
0.142334
0.0988443
0.213897
0.141327
0.298192
0.191922
0.393049
0.250555
0.501518
0.598589
0.312094
0.00164781
-0.00640125
0.0073121
0.00374666
0.0179721
0.0284826
0.0346605
0.0672684
0.058345
0.118649
0.0898354
0.182407
0.129688
0.25834
0.177792
0.344945
0.234792
0.444518
0.537476
0.295905
0.00135299
-0.00775423
0.0062183
-0.00111865
0.015575
0.019126
0.0304612
0.0523822
0.0518738
0.0972368
0.0807042
0.153577
0.117678
0.221366
0.162923
0.299699
0.217556
0.389886
0.477519
0.277513
0.00106444
-0.00881867
0.00514845
-0.00520265
0.0132255
0.0110489
0.0263274
0.0392803
0.0454577
0.0781065
0.0715572
0.127477
0.105472
0.187452
0.147553
0.257618
0.199194
0.338245
0.419539
0.257174
0.000782723
-0.0096014
0.00410639
-0.00852631
0.0109356
0.0042196
0.0222864
0.0279296
0.0391518
0.0612411
0.0624943
0.104135
0.0932348
0.156711
0.131922
0.218931
0.180068
0.290099
0.36433
0.235276
0.000508691
-0.0101101
0.00309653
-0.0111141
0.00871749
-0.00140136
0.0183651
0.0182819
0.0330085
0.0465977
0.0536097
0.0835335
0.081126
0.129195
0.116263
0.183794
0.160532
0.24583
0.312571
0.212291
0.000243739
-0.0103538
0.002124
-0.0129944
0.00658403
-0.00586139
0.0145906
0.0102754
0.0270788
0.0341095
0.0449925
0.0656198
0.0692942
0.104893
0.100803
0.152285
0.140939