/*--------------------------------*- C++ -*----------------------------------*\
  =========                 |
  \\      /  F ield         | OpenFOAM: The Open Source CFD Toolbox
   \\    /   O peration     | Website:  https://openfoam.org
    \\  /    A nd           | Version:  9
     \\/     M anipulation  |
\*---------------------------------------------------------------------------*/
FoamFile
{
    format      ascii;
    class       volScalarField;
    location    "54.9";
    object      p;
}
// * * * * * * * * * * * * * * * * * * * * * * * * * * * * * * * * * * * * * //

dimensions      [0 2 -2 0 0 0 0];

internalField   nonuniform List<scalar> 
8500
(
-0.276094
-0.280306
-0.281142
-0.282889
-0.284972
-0.285218
-0.288968
-0.285344
-0.291511
-0.284197
-0.276358
-0.280509
-0.281338
-0.283054
-0.28517
-0.285312
-0.289264
-0.285279
-0.291922
-0.284083
-0.27688
-0.280911
-0.281726
-0.283378
-0.285558
-0.285488
-0.289849
-0.285132
-0.292742
-0.283853
-0.277647
-0.281499
-0.282291
-0.283843
-0.286119
-0.285728
-0.290701
-0.284875
-0.293957
-0.283505
-0.27864
-0.28226
-0.283015
-0.28443
-0.286828
-0.286005
-0.291787
-0.284471
-0.295546
-0.283035
-0.279836
-0.283174
-0.283875
-0.285111
-0.28765
-0.286293
-0.293053
-0.283884
-0.297468
-0.282424
-0.28121
-0.28422
-0.284847
-0.285857
-0.288542
-0.286569
-0.294424
-0.283085
-0.299666
-0.281614
-0.282734
-0.285377
-0.285901
-0.286639
-0.289451
-0.286819
-0.295805
-0.282062
-0.302049
-0.280596
-0.284384
-0.286623
-0.28701
-0.287432
-0.290321
-0.287039
-0.297079
-0.280888
-0.304179
-0.279576
-0.286135
-0.28794
-0.288144
-0.288215
-0.291094
-0.287245
-0.298029
-0.279793
-0.305979
-0.278181
-0.287969
-0.289312
-0.289281
-0.288972
-0.291713
-0.287523
-0.298522
-0.278671
-0.307407
-0.276565
-0.289872
-0.290727
-0.2904
-0.289695
-0.292074
-0.287918
-0.298569
-0.277593
-0.308058
-0.275204
-0.291839
-0.292179
-0.291491
-0.2904
-0.2922
-0.288302
-0.298171
-0.27688
-0.307383
-0.274655
-0.293873
-0.29367
-0.292546
-0.291067
-0.292145
-0.288621
-0.297262
-0.276695
-0.30499
-0.274947
-0.295985
-0.295204
-0.293576
-0.291675
-0.291957
-0.288855
-0.295903
-0.276959
-0.300859
-0.275281
-0.298201
-0.296791
-0.294618
-0.292229
-0.291686
-0.288813
-0.294221
-0.277307
-0.295486
-0.274559
-0.300555
-0.29845
-0.295702
-0.292762
-0.291408
-0.288455
-0.292303
-0.27735
-0.289516
-0.272259
-0.303088
-0.300213
-0.296861
-0.293312
-0.291184
-0.2878
-0.290119
-0.276894
-0.283208
-0.268395
-0.305847
-0.302115
-0.298141
-0.293917
-0.291018
-0.28696
-0.287576
-0.275865
-0.276492
-0.263386
-0.30889
-0.304197
-0.299591
-0.294601
-0.290871
-0.286055
-0.284654
-0.274124
-0.269412
-0.258014
-0.312271
-0.306509
-0.301263
-0.295366
-0.290717
-0.285125
-0.281424
-0.271443
-0.262586
-0.252765
-0.316034
-0.309119
-0.303194
-0.296196
-0.29059
-0.284109
-0.277971
-0.26777
-0.256458
-0.246248
-0.320255
-0.31208
-0.305392
-0.297102
-0.290543
-0.282886
-0.274326
-0.263368
-0.250308
-0.239509
-0.324996
-0.315455
-0.307818
-0.298163
-0.290574
-0.281348
-0.270487
-0.258373
-0.244157
-0.232726
-0.33032
-0.319296
-0.310422
-0.299512
-0.290594
-0.279438
-0.266409
-0.252987
-0.23789
-0.225852
-0.336294
-0.323617
-0.313206
-0.301222
-0.29048
-0.277126
-0.262071
-0.247301
-0.231486
-0.218954
-0.342992
-0.328368
-0.316284
-0.303218
-0.290131
-0.274409
-0.257454
-0.241378
-0.224944
-0.211964
-0.350485
-0.333453
-0.319858
-0.305299
-0.28947
-0.271292
-0.25255
-0.23524
-0.21825
-0.204882
-0.358815
-0.338767
-0.324113
-0.307247
-0.288428
-0.267776
-0.247352
-0.228891
-0.2114
-0.197668
-0.367957
-0.34425
-0.329092
-0.308909
-0.286934
-0.263858
-0.241848
-0.222319
-0.204376
-0.190301
-0.377795
-0.349915
-0.334615
-0.310189
-0.284925
-0.259517
-0.23602
-0.215508
-0.197159
-0.182756
-0.388105
-0.355837
-0.340296
-0.311008
-0.282349
-0.254724
-0.229847
-0.208434
-0.189726
-0.175011
-0.398555
-0.362116
-0.345647
-0.311278
-0.27916
-0.249444
-0.223299
-0.201075
-0.182055
-0.167044
-0.408825
-0.368812
-0.350209
-0.310884
-0.27532
-0.243638
-0.216345
-0.193402
-0.174121
-0.158837
-0.418613
-0.375892
-0.35363
-0.309695
-0.270788
-0.237273
-0.208952
-0.185387
-0.165905
-0.150372
-0.427662
-0.383184
-0.355687
-0.307574
-0.265517
-0.230314
-0.201088
-0.177003
-0.157386
-0.141633
-0.435767
-0.390362
-0.356279
-0.304396
-0.259456
-0.222729
-0.192722
-0.168223
-0.148542
-0.132607
-0.44277
-0.396973
-0.355389
-0.300059
-0.252551
-0.214485
-0.183826
-0.159026
-0.139355
-0.123287
-0.448542
-0.402489
-0.353047
-0.294495
-0.24475
-0.205548
-0.174375
-0.149392
-0.129812
-0.113683
-0.452975
-0.406434
-0.349232
-0.287657
-0.236003
-0.195884
-0.164346
-0.139301
-0.119899
-0.103819
-0.455969
-0.408473
-0.343825
-0.279499
-0.226268
-0.185464
-0.15372
-0.128737
-0.109604
-0.0937139
-0.457415
-0.408327
-0.336733
-0.269977
-0.21551
-0.174265
-0.142481
-0.117686
-0.0989212
-0.0833444
-0.457184
-0.405795
-0.327894
-0.259052
-0.203702
-0.162267
-0.130617
-0.106136
-0.0878583
-0.0726499
-0.455118
-0.40074
-0.317263
-0.246701
-0.190823
-0.149454
-0.118113
-0.0940768
-0.0764584
-0.0615501
-0.451031
-0.393072
-0.30479
-0.232922
-0.176861
-0.135814
-0.104959
-0.0815112
-0.0647679
-0.050022
-0.444716
-0.382732
-0.290437
-0.217721
-0.161802
-0.121341
-0.0911608
-0.0684778
-0.0527622
-0.0381979
-0.435957
-0.369685
-0.274183
-0.201095
-0.145632
-0.106059
-0.0767582
-0.0550577
-0.0403286
-0.0261699
-0.424541
-0.353915
-0.25602
-0.183043
-0.128358
-0.0900296
-0.061815
-0.0412294
-0.0274758
-0.0139443
-0.410277
-0.33542
-0.235942
-0.163586
-0.110064
-0.0733121
-0.0462889
-0.0270024
-0.0142498
-0.00152775
-0.393004
-0.314219
-0.213938
-0.14281
-0.0909048
-0.0558077
-0.0302211
-0.0123901
-0.000698464
0.0110664
-0.372604
-0.29037
-0.190009
-0.120868
-0.0708183
-0.0375715
-0.0136517
0.00258298
0.0131352
0.0238114
-0.349011
-0.264
-0.164236
-0.0977327
-0.0498494
-0.0186632
0.00337555
0.0178843
0.0272098
0.0366707
-0.322213
-0.235277
-0.136808
-0.0733187
-0.0280565
0.000851017
0.0208129
0.0334742
0.0414856
0.0496001
-0.292258
-0.204234
-0.107863
-0.0477432
-0.00550684
0.020901
0.0386062
0.0493086
0.055926
0.062555
-0.259264
-0.170605
-0.0777941
-0.0211499
0.0177253
0.0414118
0.0566947
0.0653423
0.0704999
0.0754917
-0.223409
-0.134699
-0.0465499
0.00631122
0.0415533
0.0623033
0.0750138
0.0815338
0.0851749
0.0883398
-0.184791
-0.0969212
-0.0141824
0.0344939
0.0658771
0.0834906
0.093498
0.0978491
0.0998956
0.100926
-0.143378
-0.0579066
0.0191786
0.0632555
0.0905857
0.104884
0.112085
0.114255
0.11455
0.112913
-0.0996537
-0.0178138
0.0533536
0.0924533
0.11556
0.12639
0.130715
0.130691
0.128962
0.124013
-0.0539776
0.023166
0.0881385
0.121938
0.140673
0.147915
0.149319
0.147048
0.14297
0.134543
-0.00672901
0.0647958
0.123314
0.151553
0.165796
0.169359
0.167813
0.163185
0.156522
0.145821
0.04169
0.106812
0.15865
0.181135
0.190794
0.190624
0.1861
0.178992
0.169818
0.157629
0.0908604
0.148933
0.193913
0.210513
0.215531
0.211603
0.204084
0.194434
0.182909
0.169479
0.140351
0.190866
0.228865
0.239514
0.23987
0.232187
0.22167
0.209467
0.195739
0.181195
0.189725
0.232312
0.263268
0.267962
0.263673
0.252267
0.238771
0.224044
0.208235
0.192595
0.238542
0.272972
0.296887
0.295679
0.286801
0.271731
0.255299
0.238106
0.220331
0.203584
0.286364
0.312545
0.329489
0.322491
0.309117
0.290472
0.271172
0.251593
0.231959
0.214081
0.332764
0.350739
0.360847
0.348226
0.330488
0.308384
0.286307
0.264439
0.243056
0.224028
0.377319
0.387275
0.390742
0.372715
0.350783
0.325362
0.300625
0.276583
0.25356
0.233376
0.419622
0.421892
0.418968
0.395797
0.369877
0.341308
0.314049
0.287963
0.263415
0.24208
0.459297
0.454334
0.445324
0.417317
0.387649
0.356128
0.326506
0.29852
0.272564
0.250104
0.496044
0.484312
0.469623
0.43713
0.403989
0.369734
0.337929
0.308198
0.280958
0.257413
0.529567
0.511569
0.491688
0.455099
0.418791
0.382045
0.348253
0.316945
0.288548
0.263977
0.559576
0.535889
0.511359
0.471101
0.431961
0.392986
0.35742
0.324712
0.295291
0.26977
0.585806
0.557087
0.528494
0.485028
0.443413
0.402491
0.365378
0.331456
0.301147
0.274769
0.608029
0.575001
0.542967
0.496782
0.453073
0.410503
0.372082
0.337137
0.306081
0.278957
0.626046
0.589497
0.554674
0.506284
0.460878
0.416973
0.377493
0.341723
0.310064
0.282321
0.639701
0.600465
0.563529
0.513468
0.466778
0.42186
0.381579
0.345186
0.313072
0.28485
0.648871
0.607823
0.569469
0.518285
0.470732
0.425135
0.384316
0.347507
0.315088
0.286539
0.653476
0.611516
0.57245
0.520702
0.472715
0.426778
0.385689
0.34867
0.316099
0.287384
0.653476
0.611516
0.57245
0.520702
0.472715
0.426778
0.385689
0.34867
0.316099
0.287384
0.64887
0.607823
0.569469
0.518285
0.470732
0.425135
0.384316
0.347507
0.315088
0.286539
0.6397
0.600464
0.563529
0.513468
0.466777
0.42186
0.381578
0.345186
0.313072
0.28485
0.626045
0.589496
0.554673
0.506284
0.460878
0.416972
0.377492
0.341723
0.310063
0.282321
0.608027
0.575
0.542966
0.496781
0.453073
0.410503
0.372082
0.337137
0.30608
0.278957
0.585805
0.557086
0.528493
0.485027
0.443412
0.402491
0.365378
0.331455
0.301146
0.274768
0.559574
0.535888
0.511358
0.4711
0.43196
0.392985
0.357419
0.324712
0.29529
0.269769
0.529565
0.511567
0.491687
0.455098
0.41879
0.382044
0.348252
0.316944
0.288547
0.263977
0.496042
0.48431
0.469622
0.437128
0.403988
0.369733
0.337928
0.308197
0.280957
0.257413
0.459294
0.454332
0.445323
0.417316
0.387648
0.356127
0.326505
0.298519
0.272563
0.250103
0.41962
0.42189
0.418966
0.395795
0.369875
0.341307
0.314047
0.287962
0.263413
0.242079
0.377317
0.387273
0.39074
0.372713
0.350781
0.32536
0.300623
0.276582
0.253559
0.233374
0.332761
0.350736
0.360844
0.348224
0.330486
0.308382
0.286305
0.264438
0.243055
0.224027
0.286361
0.312542
0.329486
0.322489
0.309115
0.290471
0.27117
0.251591
0.231958
0.21408
0.238538
0.272969
0.296884
0.295677
0.286799
0.271729
0.255298
0.238105
0.22033
0.203582
0.189721
0.232309
0.263265
0.26796
0.263671
0.252265
0.238769
0.224042
0.208233
0.192593
0.140347
0.190862
0.228862
0.239512
0.239868
0.232185
0.221668
0.209466
0.195737
0.181193
0.090856
0.148929
0.19391
0.21051
0.215529
0.2116
0.204082
0.194432
0.182907
0.169477
0.0416853
0.106808
0.158647
0.181132
0.190791
0.190621
0.186097
0.17899
0.169816
0.157627
-0.00673391
0.0647916
0.12331
0.15155
0.165793
0.169357
0.167811
0.163183
0.15652
0.145819
-0.0539828
0.0231616
0.0881347
0.121935
0.14067
0.147912
0.149317
0.147046
0.142968
0.134541
-0.0996591
-0.0178184
0.0533496
0.0924497
0.115557
0.126388
0.130712
0.130689
0.12896
0.124011
-0.143383
-0.0579114
0.0191744
0.0632518
0.0905824
0.104881
0.112083
0.114252
0.114547
0.112911
-0.184797
-0.0969263
-0.0141868
0.03449
0.0658736
0.0834875
0.0934951
0.0978464
0.0998932
0.100923
-0.223415
-0.134704
-0.0465545
0.00630718
0.0415496
0.0623
0.0750108
0.0815311
0.0851723
0.0883375
-0.25927
-0.170611
-0.0777989
-0.0211541
0.0177215
0.0414083
0.0566916
0.0653395
0.0704972
0.0754893
-0.292264
-0.20424
-0.107868
-0.0477476
-0.00551078
0.0208975
0.0386029
0.0493057
0.0559233
0.0625525
-0.32222
-0.235283
-0.136813
-0.0733233
-0.0280606
0.000847319
0.0208096
0.0334711
0.0414828
0.0495976
-0.349018
-0.264006
-0.164241
-0.0977374
-0.0498536
-0.018667
0.00337206
0.0178811
0.0272069
0.0366681
-0.372611
-0.290376
-0.190014
-0.120873
-0.0708227
-0.0375755
-0.0136553
0.00257968
0.0131321
0.0238087
-0.393011
-0.314226
-0.213944
-0.142815
-0.0909093
-0.0558118
-0.0302248
-0.0123935
-0.000701579
0.0110636
-0.410285
-0.335427
-0.235948
-0.163591
-0.110069
-0.0733164
-0.0462928
-0.0270059
-0.014253
-0.00153062
-0.424549
-0.353922
-0.256026
-0.183048
-0.128362
-0.090034
-0.061819
-0.041233
-0.0274791
-0.0139473
-0.435964
-0.369692
-0.274189
-0.201101
-0.145637
-0.106063
-0.0767624
-0.0550615
-0.040332
-0.026173
-0.444724
-0.382739
-0.290443
-0.217727
-0.161807
-0.121346
-0.091165
-0.0684817
-0.0527657
-0.038201
-0.451039
-0.393079
-0.304796
-0.232928
-0.176866
-0.135819
-0.104963
-0.0815151
-0.0647716
-0.0500252
-0.455126
-0.400747
-0.31727
-0.246707
-0.190828
-0.149459
-0.118118
-0.0940809
-0.0764622
-0.0615534
-0.457192
-0.405803
-0.327901
-0.259058
-0.203707
-0.162272
-0.130622
-0.10614
-0.0878622
-0.0726533
-0.457423
-0.408335
-0.33674
-0.269983
-0.215516
-0.17427
-0.142486
-0.11769
-0.0989251
-0.0833479
-0.455977
-0.408481
-0.343832
-0.279505
-0.226274
-0.18547
-0.153725
-0.128741
-0.109609
-0.0937175
-0.452984
-0.406442
-0.349239
-0.287663
-0.236009
-0.195889
-0.164351
-0.139305
-0.119903
-0.103823
-0.448551
-0.402497
-0.353054
-0.294502
-0.244756
-0.205553
-0.17438
-0.149397
-0.129816
-0.113687
-0.442778
-0.396981
-0.355396
-0.300066
-0.252557
-0.214491
-0.183832
-0.159031
-0.13936
-0.123291
-0.435775
-0.39037
-0.356286
-0.304402
-0.259462
-0.222735
-0.192728
-0.168228
-0.148546
-0.132611
-0.42767
-0.383192
-0.355695
-0.307581
-0.265523
-0.23032
-0.201094
-0.177008
-0.157391
-0.141637
-0.418621
-0.3759
-0.353637
-0.309702
-0.270795
-0.237279
-0.208958
-0.185393
-0.165911
-0.150376
-0.408833
-0.36882
-0.350217
-0.310891
-0.275327
-0.243645
-0.216351
-0.193408
-0.174127
-0.158841
-0.398563
-0.362124
-0.345655
-0.311285
-0.279167
-0.249451
-0.223305
-0.201081
-0.18206
-0.167049
-0.388113
-0.355845
-0.340303
-0.311016
-0.282356
-0.254731
-0.229854
-0.208441
-0.189732
-0.175016
-0.377803
-0.349922
-0.334622
-0.310196
-0.284932
-0.259524
-0.236027
-0.215514
-0.197165
-0.182762
-0.367965
-0.344258
-0.329099
-0.308917
-0.286941
-0.263865
-0.241855
-0.222326
-0.204382
-0.190307
-0.358823
-0.338774
-0.324121
-0.307254
-0.288435
-0.267784
-0.24736
-0.228898
-0.211407
-0.197674
-0.350493
-0.33346
-0.319865
-0.305306
-0.289478
-0.2713
-0.252559
-0.235248
-0.218257
-0.204889
-0.342999
-0.328375
-0.316291
-0.303226
-0.290139
-0.274418
-0.257462
-0.241386
-0.224952
-0.211971
-0.336301
-0.323624
-0.313213
-0.301229
-0.290488
-0.277135
-0.26208
-0.24731
-0.231494
-0.218961
-0.330327
-0.319304
-0.310429
-0.299519
-0.290602
-0.279447
-0.266419
-0.252997
-0.2379
-0.225861
-0.325003
-0.315462
-0.307825
-0.29817
-0.290582
-0.281358
-0.270498
-0.258384
-0.244167
-0.232735
-0.320262
-0.312087
-0.305399
-0.297109
-0.290551
-0.282895
-0.274337
-0.263379
-0.25032
-0.23952
-0.316042
-0.309126
-0.303201
-0.296204
-0.290598
-0.284119
-0.277983
-0.267782
-0.256471
-0.246259
-0.312279
-0.306516
-0.30127
-0.295373
-0.290726
-0.285136
-0.281437
-0.271457
-0.2626
-0.252778
-0.308897
-0.304205
-0.299598
-0.294609
-0.29088
-0.286066
-0.284666
-0.274139
-0.269428
-0.258028
-0.305855
-0.302122
-0.298148
-0.293924
-0.291027
-0.286971
-0.28759
-0.275881
-0.276509
-0.263402
-0.303095
-0.30022
-0.296869
-0.29332
-0.291193
-0.287811
-0.290133
-0.276911
-0.283227
-0.268413
-0.300563
-0.298457
-0.295709
-0.29277
-0.291417
-0.288466
-0.292317
-0.277368
-0.289536
-0.272279
-0.298209
-0.296798
-0.294625
-0.292237
-0.291696
-0.288825
-0.294236
-0.277326
-0.295507
-0.274581
-0.295992
-0.295211
-0.293583
-0.291683
-0.291966
-0.288868
-0.295918
-0.276979
-0.300881
-0.275305
-0.29388
-0.293677
-0.292553
-0.291075
-0.292155
-0.288634
-0.297277
-0.276715
-0.305013
-0.274973
-0.291847
-0.292186
-0.291498
-0.290408
-0.29221
-0.288315
-0.298186
-0.2769
-0.307407
-0.274682
-0.289879
-0.290733
-0.290407
-0.289703
-0.292084
-0.28793
-0.298585
-0.277613
-0.308082
-0.275231
-0.287975
-0.289318
-0.289288
-0.288979
-0.291722
-0.287535
-0.298536
-0.27869
-0.307431
-0.276592
-0.286141
-0.287946
-0.288151
-0.288222
-0.291103
-0.287256
-0.298043
-0.279811
-0.306003
-0.278207
-0.28439
-0.286629
-0.287015
-0.287439
-0.290329
-0.287049
-0.297093
-0.280906
-0.304201
-0.279601
-0.28274
-0.285382
-0.285907
-0.286645
-0.289459
-0.286828
-0.295818
-0.282078
-0.302069
-0.280619
-0.281214
-0.284224
-0.284852
-0.285862
-0.288549
-0.286578
-0.294436
-0.2831
-0.299684
-0.281636
-0.27984
-0.283178
-0.283879
-0.285116
-0.287656
-0.286301
-0.293063
-0.283897
-0.297484
-0.282443
-0.278643
-0.282263
-0.283018
-0.284434
-0.286833
-0.286012
-0.291796
-0.284481
-0.295559
-0.283051
-0.277649
-0.281502
-0.282293
-0.283847
-0.286123
-0.285733
-0.290708
-0.284883
-0.293968
-0.283518
-0.276882
-0.280912
-0.281728
-0.28338
-0.285561
-0.285492
-0.289853
-0.285138
-0.292749
-0.283862
-0.276359
-0.28051
-0.28134
-0.283056
-0.285172
-0.285314
-0.289267
-0.285282
-0.291927
-0.284088
-0.276094
-0.280306
-0.281142
-0.282889
-0.284973
-0.285219
-0.288969
-0.285346
-0.291513
-0.284199
-0.291528
-0.281911
-0.282831
-0.274794
-0.270489
-0.261665
-0.253623
-0.242763
-0.231337
-0.217809
-0.20304
-0.18681
-0.169058
-0.15091
-0.131574
-0.113198
-0.0948978
-0.0783542
-0.0637752
-0.0505023
-0.0406953
-0.0310715
-0.0249868
-0.0186305
-0.0144991
-0.0105549
-0.0074003
-0.00448877
-0.0026405
-1.4817e-05
-0.291767
-0.282047
-0.282932
-0.274917
-0.270595
-0.261789
-0.253745
-0.242892
-0.231464
-0.217935
-0.203158
-0.18692
-0.169156
-0.151003
-0.131666
-0.113294
-0.0949986
-0.0784508
-0.0638611
-0.0505635
-0.0407337
-0.0310893
-0.0249959
-0.0186425
-0.0145177
-0.010579
-0.00741994
-0.00449816
-0.0026422
-1.63855e-05
-0.292217
-0.282301
-0.283126
-0.27515
-0.270802
-0.262019
-0.253973
-0.243133
-0.231706
-0.21818
-0.203395
-0.187151
-0.169372
-0.15121
-0.131862
-0.113486
-0.0951813
-0.0786174
-0.0640083
-0.050674
-0.040815
-0.0311417
-0.0250333
-0.0186775
-0.0145532
-0.0106173
-0.00744956
-0.00451526
-0.00264959
-2.16677e-05
-0.292831
-0.282644
-0.283397
-0.275478
-0.271084
-0.262347
-0.254293
-0.243477
-0.232051
-0.218535
-0.203742
-0.187494
-0.169697
-0.151525
-0.132157
-0.113766
-0.0954488
-0.0788527
-0.0642164
-0.0508342
-0.0409398
-0.0312301
-0.0251004
-0.0187372
-0.0146065
-0.0106701
-0.00748935
-0.0045403
-0.00266277
-3.08267e-05
-0.29354
-0.283019
-0.283728
-0.275865
-0.271444
-0.262746
-0.254695
-0.243906
-0.232486
-0.218983
-0.204186
-0.187938
-0.170122
-0.15194
-0.132545
-0.114132
-0.0957933
-0.0791552
-0.0644852
-0.0510455
-0.0411096
-0.0313571
-0.025199
-0.0188231
-0.0146788
-0.0107381
-0.00753969
-0.00457365
-0.00268183
-4.40521e-05
-0.294261
-0.283409
-0.284075
-0.276302
-0.271838
-0.26321
-0.255146
-0.244405
-0.232991
-0.219512
-0.204714
-0.188469
-0.170629
-0.152436
-0.133023
-0.114579
-0.0962134
-0.0795236
-0.0648149
-0.0513097
-0.0413262
-0.0315253
-0.025331
-0.0189371
-0.0147713
-0.0108218
-0.00760114
-0.00461578
-0.00270688
-6.15316e-05
-0.294964
-0.283681
-0.28444
-0.276715
-0.272265
-0.26368
-0.255654
-0.244938
-0.233552
-0.220093
-0.205299
-0.189065
-0.171219
-0.153011
-0.133575
-0.115099
-0.0967054
-0.0799572
-0.065206
-0.0516292
-0.0415918
-0.0317378
-0.0254988
-0.0190812
-0.0148854
-0.010922
-0.00767436
-0.0046672
-0.00273801
-8.34233e-05
-0.295387
-0.283993
-0.284683
-0.277153
-0.272636
-0.264187
-0.256135
-0.245514
-0.234129
-0.220723
-0.205934
-0.189717
-0.171862
-0.153649
-0.134196
-0.115687
-0.0972666
-0.0804553
-0.0656593
-0.0520067
-0.0419086
-0.0319975
-0.0257041
-0.0192573
-0.0150225
-0.0110396
-0.00776006
-0.00472845
-0.00277529
-0.000109828
-0.295441
-0.284261
-0.284766
-0.277554
-0.272943
-0.264663
-0.256612
-0.246079
-0.234717
-0.221365
-0.206592
-0.190404
-0.172552
-0.154338
-0.134878
-0.116335
-0.0978943
-0.0810177
-0.0661757
-0.0524446
-0.0422789
-0.0323069
-0.0259489
-0.019467
-0.0151839
-0.0111752
-0.00785892
-0.00479997
-0.00281877
-0.000140767
-0.295107
-0.28438
-0.284709
-0.277839
-0.273182
-0.265073
-0.257036
-0.246615
-0.235283
-0.222004
-0.207256
-0.191109
-0.173272
-0.155067
-0.135612
-0.11704
-0.0985858
-0.0816442
-0.066756
-0.0529451
-0.0427043
-0.0326682
-0.0262345
-0.0197113
-0.0153704
-0.0113294
-0.00797154
-0.00488212
-0.00286845
-0.000176166
-0.294094
-0.284353
-0.284427
-0.277981
-0.273275
-0.265389
-0.257387
-0.247093
-0.235805
-0.222614
-0.207906
-0.191817
-0.174009
-0.155826
-0.13639
-0.117797
-0.0993385
-0.082334
-0.0674003
-0.0535094
-0.0431859
-0.0330826
-0.0265617
-0.019991
-0.0155826
-0.0115024
-0.00809833
-0.00497513
-0.00292428
-0.000215852
-0.292217
-0.284073
-0.283876
-0.277919
-0.273236
-0.265547
-0.257621
-0.247477
-0.236257
-0.223174
-0.208524
-0.192509
-0.174752
-0.156605
-0.137207
-0.1186
-0.100149
-0.0830863
-0.0681079
-0.0541379
-0.0437239
-0.0335503
-0.0269306
-0.0203061
-0.0158208
-0.0116945
-0.00823951
-0.00507903
-0.00298616
-0.000259554
-0.289498
-0.283393
-0.283025
-0.277562
-0.272934
-0.26555
-0.257725
-0.247744
-0.236617
-0.22366
-0.209091
-0.193172
-0.175488
-0.157393
-0.138055
-0.119446
-0.101015
-0.0838991
-0.0688773
-0.0548297
-0.0443173
-0.0340704
-0.0273405
-0.0206558
-0.0160846
-0.0119052
-0.00839504
-0.00519369
-0.00305392
-0.00030692
-0.286334
-0.282116
-0.281776
-0.276897
-0.272441
-0.265253
-0.257609
-0.247853
-0.236854
-0.224054
-0.209591
-0.193791
-0.176207
-0.158184
-0.138927
-0.12033
-0.101931
-0.0847698
-0.0697057
-0.0555827
-0.0449639
-0.0346412
-0.0277901
-0.021039
-0.0163732
-0.0121342
-0.00856463
-0.0053188
-0.00312733
-0.000357533
-0.282961
-0.280177
-0.280073
-0.275838
-0.271616
-0.264849
-0.257338
-0.247804
-0.236954
-0.224337
-0.210011
-0.194356
-0.176899
-0.158971
-0.139819
-0.121247
-0.102894
-0.0856946
-0.0705894
-0.0563931
-0.0456609
-0.0352596
-0.028277
-0.0214538
-0.0166855
-0.0123806
-0.00874773
-0.00545387
-0.00320608
-0.000410934
-0.279297
-0.277651
-0.277844
-0.274315
-0.27038
-0.26385
-0.256709
-0.247519
-0.236885
-0.224495
-0.210341
-0.19486
-0.17756
-0.159748
-0.140725
-0.122193
-0.103897
-0.0866687
-0.0715233
-0.0572563
-0.0464042
-0.0359219
-0.0287987
-0.0218977
-0.0170199
-0.0126432
-0.00894355
-0.00559825
-0.00328979
-0.000466638
-0.275476
-0.274498
-0.275104
-0.272393
-0.268938
-0.26307
-0.256002
-0.247088
-0.23667
-0.224524
-0.210574
-0.195295
-0.178182
-0.160512
-0.14164
-0.123166
-0.104938
-0.0876885
-0.0725034
-0.0581675
-0.0471896
-0.0366235
-0.0293517
-0.0223678
-0.0173744
-0.0129206
-0.00915096
-0.00575109
-0.00337804
-0.000524185
-0.271439
-0.270808
-0.271781
-0.269856
-0.266842
-0.261351
-0.254708
-0.246314
-0.236245
-0.224417
-0.21072
-0.195677
-0.178781
-0.16127
-0.142565
-0.124161
-0.106008
-0.0887434
-0.0735179
-0.0591156
-0.0480076
-0.0373565
-0.0299307
-0.02286
-0.0177464
-0.0132114
-0.00936905
-0.00591178
-0.00347059
-0.000583217
-0.267234
-0.266843
-0.268317
-0.267302
-0.264898
-0.260049
-0.253806
-0.245553
-0.235723
-0.22418
-0.210743
-0.195948
-0.179293
-0.161969
-0.143459
-0.125148
-0.107088
-0.0898229
-0.0745661
-0.0601025
-0.0488647
-0.0381263
-0.0305412
-0.0233785
-0.018139
-0.0135173
-0.00959873
-0.00608054
-0.00356724
-0.000643273
-0.263278
-0.262083
-0.263604
-0.263428
-0.261709
-0.257541
-0.251618
-0.244239
-0.234958
-0.223881
-0.210823
-0.196358
-0.179995
-0.162878
-0.144564
-0.126336
-0.108347
-0.0910578
-0.0757329
-0.0611845
-0.0497854
-0.0389438
-0.0311806
-0.0239164
-0.0185432
-0.0138301
-0.00983253
-0.00625175
-0.0036649
-0.000702843
-0.258113
-0.258361
-0.260099
-0.26055
-0.259323
-0.255758
-0.250616
-0.242962
-0.233825
-0.222958
-0.210113
-0.195852
-0.179712
-0.162784
-0.144678
-0.126604
-0.108764
-0.0915712
-0.0763007
-0.061788
-0.0503489
-0.0394904
-0.0316381
-0.0243225
-0.0188635
-0.0140866
-0.01003
-0.00640083
-0.00375237
-0.000756895
-0.25247
-0.253516
-0.255454
-0.256422
-0.255557
-0.252287
-0.247048
-0.240287
-0.231603
-0.221099
-0.208593
-0.194642
-0.178828
-0.16218
-0.144377
-0.126538
-0.108925
-0.0918981
-0.0767323
-0.0623022
-0.0508495
-0.0399983
-0.0320679
-0.0247088
-0.019169
-0.0143303
-0.0102173
-0.00654259
-0.00383374
-0.000807768
-0.246557
-0.248221
-0.250413
-0.251944
-0.251554
-0.248783
-0.244203
-0.237642
-0.229264
-0.2191
-0.206929
-0.193295
-0.177821
-0.161467
-0.143986
-0.126401
-0.109033
-0.0921889
-0.0771407
-0.0628082
-0.0513485
-0.0405135
-0.0325063
-0.0251059
-0.0194842
-0.0145821
-0.0104113
-0.00668993
-0.00391766
-0.000860247
-0.240397
-0.242705
-0.245178
-0.247248
-0.247352
-0.245089
-0.240895
-0.234775
-0.226773
-0.216976
-0.205169
-0.191874
-0.176762
-0.160723
-0.143579
-0.126263
-0.109149
-0.0924972
-0.0775706
-0.06334
-0.0518729
-0.0410547
-0.0329674
-0.0255239
-0.0198165
-0.0148479
-0.0106163
-0.00684543
-0.00400608
-0.000914721
-0.23394
-0.236998
-0.239768
-0.242334
-0.242933
-0.241157
-0.23739
-0.231713
-0.224116
-0.214711
-0.203294
-0.190363
-0.175637
-0.159933
-0.143145
-0.126113
-0.109265
-0.0928172
-0.0780181
-0.0638953
-0.0524215
-0.0416215
-0.0334514
-0.025963
-0.0201663
-0.0151282
-0.0108326
-0.00700936
-0.00409916
-0.000971128
-0.227231
-0.231122
-0.234209
-0.237229
-0.23832
-0.237034
-0.233718
-0.228489
-0.221311
-0.212316
-0.20131
-0.188762
-0.174442
-0.159093
-0.142676
-0.125945
-0.109375
-0.0931419
-0.0784769
-0.0644683
-0.05299
-0.0422101
-0.0339558
-0.0264212
-0.0205324
-0.0154219
-0.0110596
-0.00718123
-0.0041966
-0.00102922
-0.220344
-0.225109
-0.228536
-0.231974
-0.233555
-0.232762
-0.2299
-0.225125
-0.21838
-0.209808
-0.19923
-0.187083
-0.173185
-0.158207
-0.142175
-0.125759
-0.109477
-0.0934686
-0.0789441
-0.0650559
-0.0535755
-0.0428178
-0.0344786
-0.0268969
-0.0209136
-0.0157284
-0.0112965
-0.00736056
-0.00429814
-0.00108873
-0.213331
-0.218985
-0.222778
-0.226604
-0.228668
-0.228368
-0.225962
-0.221641
-0.215342
-0.207204
-0.197068
-0.185335
-0.171872
-0.157279
-0.141643
-0.125555
-0.109568
-0.0937955
-0.0794172
-0.0656552
-0.0541756
-0.0434421
-0.0350181
-0.0273884
-0.0213089
-0.0160467
-0.0115428
-0.0075469
-0.00440354
-0.00114944
-0.206242
-0.212773
-0.216959
-0.221147
-0.223681
-0.223874
-0.221926
-0.218063
-0.212215
-0.204519
-0.194835
-0.183527
-0.170509
-0.156314
-0.141083
-0.125332
-0.109649
-0.0941201
-0.0798936
-0.0662631
-0.0547877
-0.0440804
-0.0355723
-0.027894
-0.0217169
-0.016376
-0.0117978
-0.0077397
-0.00451254
-0.00121106
-0.199126
-0.206497
-0.2111
-0.215627
-0.218615
-0.219297
-0.217811
-0.214405
-0.209014
-0.201765
-0.192542
-0.181668
-0.169103
-0.155314
-0.140494
-0.125092
-0.109717
-0.0944402
-0.0803704
-0.0668764
-0.055409
-0.0447297
-0.036139
-0.0284118
-0.0221364
-0.0167153
-0.0120606
-0.00793835
-0.0046248
-0.00127332
-0.192027
-0.200181
-0.205219
-0.210068
-0.213488
-0.214655
-0.213632
-0.210682
-0.205751
-0.198955
-0.190198
-0.179765
-0.167658
-0.154284
-0.139879
-0.124834
-0.109772
-0.0947533
-0.0808451
-0.0674919
-0.0560367
-0.0453871
-0.036716
-0.0289396
-0.0225657
-0.0170634
-0.0123303
-0.00814214
-0.00473997
-0.00133593
-0.184992
-0.193854
-0.199338
-0.204493
-0.208322
-0.209964
-0.209404
-0.206908
-0.202439
-0.196099
-0.187811
-0.177825
-0.166179
-0.153227
-0.13924
-0.124557
-0.109811
-0.0950575
-0.0813151
-0.0681065
-0.0566678
-0.0460496
-0.0373009
-0.0294753
-0.0230035
-0.017419
-0.0126059
-0.00835032
-0.00485765
-0.00139861
-0.178062
-0.187544
-0.193479
-0.198929
-0.203137
-0.20524
-0.205142
-0.203097
-0.199089
-0.193206
-0.18539
-0.175855
-0.164671
-0.152146
-0.138578
-0.124264
-0.109835
-0.0953508
-0.0817781
-0.0687174
-0.0572998
-0.0467143
-0.0378915
-0.0300167
-0.0234479
-0.0177807
-0.0128864
-0.00856209
-0.00497742
-0.00146105
-0.17128
-0.181281
-0.187663
-0.193397
-0.197955
-0.200501
-0.200861
-0.199263
-0.195714
-0.190288
-0.182943
-0.173861
-0.163139
-0.151045
-0.137894
-0.123952
-0.109843
-0.0956316
-0.0822319
-0.0693216
-0.0579299
-0.0473784
-0.0384853
-0.0305617
-0.0238972
-0.0181472
-0.0131707
-0.00877658
-0.00509882
-0.00152298
-0.16468
-0.175098
-0.181913
-0.187923
-0.1928
-0.195766
-0.196577
-0.195422
-0.192326
-0.187355
-0.180479
-0.171851
-0.161589
-0.149927
-0.137192
-0.123625
-0.109834
-0.0958982
-0.0826744
-0.0699165
-0.0585554
-0.048039
-0.0390797
-0.0311077
-0.0243495
-0.0185169
-0.0134575
-0.00899286
-0.00522137
-0.00158407
-0.158296
-0.169027
-0.176252
-0.182531
-0.187698
-0.191057
-0.192309
-0.191589
-0.18894
-0.184419
-0.178008
-0.169833
-0.160027
-0.148796
-0.136474
-0.123282
-0.109809
-0.0961494
-0.0831038
-0.0704992
-0.0591735
-0.0486929
-0.0396722
-0.0316524
-0.0248028
-0.0188881
-0.0137456
-0.00920993
-0.00534455
-0.00164406
-0.152157
-0.163101
-0.170707
-0.177243
-0.182674
-0.186397
-0.188075
-0.187783
-0.185571
-0.181493
-0.17554
-0.167815
-0.158459
-0.147658
-0.135744
-0.122925
-0.109767
-0.096384
-0.0835182
-0.0710672
-0.0597814
-0.0493372
-0.0402599
-0.032193
-0.025255
-0.019259
-0.0140336
-0.0094267
-0.00546777
-0.00170263
-0.146287
-0.157356
-0.165304
-0.172085
-0.177757
-0.181814
-0.183898
-0.184022
-0.182237
-0.178594
-0.17309
-0.165809
-0.156895
-0.146518
-0.135004
-0.122556
-0.10971
-0.0966009
-0.0839157
-0.0716177
-0.060376
-0.0499685
-0.0408398
-0.0327269
-0.0257036
-0.0196276
-0.0143198
-0.00964198
-0.0055904
-0.0017595
-0.140713
-0.151824
-0.160073
-0.167083
-0.172976
-0.177336
-0.179802
-0.180329
-0.178958
-0.175738
-0.17067
-0.163824
-0.155343
-0.145383
-0.134262
-0.122178
-0.109637
-0.0967994
-0.0842946
-0.0721478
-0.0609543
-0.0505834
-0.0414086
-0.0332508
-0.026146
-0.0199915
-0.0146028
-0.00985444
-0.00571172
-0.00181437
-0.135456
-0.14654
-0.155044
-0.162267
-0.168362
-0.172995
-0.175814
-0.176727
-0.175756
-0.172943
-0.168298
-0.161876
-0.153814
-0.144261
-0.133521
-0.121793
-0.109552
-0.0969791
-0.0846532
-0.0726548
-0.0615128
-0.0511782
-0.0419626
-0.0337614
-0.0265792
-0.0203485
-0.0148804
-0.0100626
-0.00583093
-0.00186696
-0.130539
-0.141538
-0.150249
-0.157667
-0.163947
-0.168822
-0.171965
-0.173244
-0.172654
-0.170233
-0.165992
-0.159979
-0.15232
-0.143162
-0.132789
-0.121406
-0.109455
-0.0971395
-0.0849897
-0.0731357
-0.062048
-0.0517489
-0.0424979
-0.034255
-0.0269999
-0.0206955
-0.0151506
-0.0102649
-0.00594712
-0.00191695
-0.125982
-0.13685
-0.145723
-0.153315
-0.159763
-0.164854
-0.168287
-0.169907
-0.16968
-0.16763
-0.163773
-0.158149
-0.150876
-0.142095
-0.132073
-0.121021
-0.109348
-0.0972807
-0.0853023
-0.0735875
-0.0625558
-0.0522911
-0.0430099
-0.0347274
-0.0274045
-0.0210296
-0.015411
-0.0104595
-0.00605923
-0.00196403
-0.121806
-0.13251
-0.1415
-0.149246
-0.155846
-0.161127
-0.164819
-0.166751
-0.166861
-0.165161
-0.161664
-0.156407
-0.149498
-0.141073
-0.131383
-0.120644
-0.109235
-0.0974029
-0.0855891
-0.0740071
-0.0630322
-0.0528001
-0.0434939
-0.0351741
-0.0277887
-0.0213473
-0.0156588
-0.0106444
-0.0061661
-0.00200786
-0.118031
-0.12855
-0.137618
-0.145496
-0.152233
-0.15768
-0.161598
-0.163811
-0.164231
-0.162855
-0.15969
-0.154774
-0.148202
-0.140109
-0.130728
-0.120281
-0.109119
-0.0975068
-0.0858486
-0.074391
-0.0634724
-0.0532709
-0.0439444
-0.0355901
-0.0281479
-0.0216446
-0.015891
-0.0108173
-0.00626638