/*--------------------------------*- C++ -*----------------------------------*\
  =========                 |
  \\      /  F ield         | OpenFOAM: The Open Source CFD Toolbox
   \\    /   O peration     | Website:  https://openfoam.org
    \\  /    A nd           | Version:  9
     \\/     M anipulation  |
\*---------------------------------------------------------------------------*/
FoamFile
{
    format      ascii;
    class       surfaceScalarField;
    location    "54.9";
    object      phi;
}
// * * * * * * * * * * * * * * * * * * * * * * * * * * * * * * * * * * * * * //

dimensions      [0 3 -1 0 0 0 0];

internalField   nonuniform List<scalar> 
16735
(
-0.00298905
0.00298613
2.91191e-06
-0.00897666
0.00598273
4.87856e-06
-0.0168422
0.00786026
5.31397e-06
-0.0258614
0.00901405
5.09774e-06
-0.0359259
0.01006
4.51807e-06
-0.046457
0.0105278
3.35819e-06
-0.0585451
0.0120869
1.15493e-06
-0.0695029
0.0109605
-2.66732e-06
-0.0842429
0.0147489
-8.88313e-06
0.0111191
-1.83742e-05
-0.0953436
-0.00293786
0.00592399
-0.00883011
0.011875
-0.0165593
0.0155894
-0.025392
0.0178468
-0.0352071
0.019875
-0.0453942
0.020715
-0.0570382
0.0237309
-0.0673523
0.0212746
-0.0813779
0.0287744
0.0209671
-0.0912258
-0.00283765
0.00876164
-0.00854203
0.0175794
-0.0160013
0.0230487
-0.0244646
0.0263101
-0.0337819
0.0291924
-0.0432872
0.0302203
-0.054034
0.0344777
-0.0630727
0.0303133
-0.0756815
0.0413832
0.0283598
-0.0830742
-0.00269272
0.0114544
-0.00812237
0.023009
-0.0151844
0.0301107
-0.0231013
0.034227
-0.031675
0.0377661
-0.0401725
0.0387177
-0.0495506
0.0438557
-0.0566975
0.0374602
-0.0671978
0.0518835
0.0321865
-0.0710245
-0.00250926
0.0139636
-0.00758555
0.0280853
-0.0141316
0.0366567
-0.0213344
0.0414298
-0.0289224
0.0453542
-0.036103
0.0458983
-0.0436112
0.0513639
-0.0482603
0.0421094
-0.0559374
0.0595606
0.0314551
-0.055206
-0.00229512
0.0162587
-0.00694985
0.03274
-0.012871
0.0425779
-0.0192051
0.0477639
-0.0255704
0.0517195
-0.0311465
0.0514744
-0.0362424
0.0564598
-0.037788
0.0436549
-0.0418108
0.0635834
0.0252855
-0.0356412
-0.00205945
0.0183182
-0.0062366
0.0369172
-0.0114359
0.0477771
-0.0167605
0.0530886
-0.0216719
0.0566309
-0.0253808
0.0551833
-0.02747
0.0585489
-0.0253132
0.0414982
-0.0245483
0.0628185
0.0129067
-0.0121694
-0.00181224
0.0201304
-0.00546917
0.0405741
-0.00986278
0.0521707
-0.0140505
0.0572763
-0.017281
0.0598614
-0.0188832
0.0567855
-0.0173041
0.0569698
-0.0109327
0.0351268
-0.00353193
0.0554177
-0.00700508
0.0163798
-0.00156383
0.0216943
-0.0046716
0.0436819
-0.00818915
0.0556883
-0.0111227
0.0602098
-0.0124435
0.0611822
-0.011713
0.056055
-0.00567004
0.0509269
0.00545451
0.0240022
0.0205706
0.0403016
-0.0375284
0.0510939
-0.00132431
0.0230186
-0.00386704
0.0462246
-0.00645029
0.0582715
-0.00801581
0.0617753
-0.00718226
0.0603486
-0.00390486
0.0527776
0.00716076
0.0398613
0.02429
0.00687305
0.0489984
0.0155932
-0.0811221
0.0925921
-0.00110284
0.0241214
-0.00307591
0.0481977
-0.00467601
0.0598716
-0.00475463
0.0618539
-0.00145163
0.0570456
0.00487553
0.0464505
0.0214348
0.023302
0.0450451
-0.0167372
0.0819908
-0.0213525
-0.140347
0.141215
-0.000906955
0.0250284
-0.00231379
0.0496045
-0.00288588
0.0604437
-0.00135339
0.0603214
0.00457793
0.0511143
0.0148426
0.0361857
0.0377753
0.000369413
0.0685958
-0.0475577
0.119796
-0.0725528
-0.216413
0.195862
-0.00074192
0.0257703
-0.00158925
0.0504519
-0.00108
0.0599345
0.00229165
0.0569498
0.0111794
0.0422266
0.0262039
0.0211612
0.0565121
-0.0299388
0.0962959
-0.0873415
0.162743
-0.139
-0.307354
0.253685
-0.000610209
0.0263805
-0.000902145
0.0507438
0.000745228
0.0582871
0.00620649
0.0514885
0.0185498
0.0298832
0.0395177
0.000193391
0.0780031
-0.0684243
0.129214
-0.138552
0.210424
-0.22021
-0.407463
0.310533
-0.000512159
0.0268926
-0.000239913
0.0504715
0.00262761
0.0554196
0.0104788
0.0436374
0.0269232
0.0134388
0.0552946
-0.0281779
0.102613
-0.115743
0.16697
-0.202908
0.260384
-0.313625
-0.509002
0.361923
-0.000438732
0.0273314
0.000416247
0.0496166
0.00466534
0.0511705
0.0153026
0.0330001
0.0366389
-0.00789746
0.0738397
-0.0653787
0.130559
-0.172462
0.207472
-0.279822
0.308
-0.414153
-0.605104
0.404102
-0.000378905
0.0277103
0.00110711
0.0481306
0.00696084
0.0453167
0.0209367
0.0190243
0.0481469
-0.0351077
0.0951367
-0.112368
0.161323
-0.238649
0.247523
-0.366022
0.348335
-0.514965
-0.691616
0.434847
-0.000320358
0.0280306
0.00188436
0.0459258
0.00964991
0.0375512
0.0276874
0.000986807
0.0618861
-0.0693064
0.118804
-0.169286
0.193189
-0.313034
0.283592
-0.456425
0.378232
-0.609604
-0.767126
0.453742
-0.000246292
0.0282769
0.00280772
0.0428718
0.0128925
0.0274664
0.0358626
-0.0219833
0.0780466
-0.11149
0.143938
-0.235178
0.223592
-0.392688
0.312732
-0.545565
0.396969
-0.693841
-0.832169
0.462013
-0.000136492
0.0284134
0.00394353
0.0387918
0.0168649
0.0145451
0.0457008
-0.0508192
0.0963242
-0.162114
0.169012
-0.307865
0.25005
-0.473726
0.333393
-0.628908
0.405603
-0.766051
-0.888836
0.462269
3.05832e-05
0.0283828
0.0053621
0.0334603
0.0217472
-0.00183998
0.0572735
-0.0863455
0.115837
-0.220677
0.192162
-0.384191
0.270846
-0.552409
0.345538
-0.703601
0.407139
-0.827652
-0.944844
0.463148
0.000248435
0.0281344
0.00713783
0.0265709
0.0276976
-0.0223997
0.0703749
-0.129023
0.135272
-0.285574
0.211767
-0.460686
0.285251
-0.625893
0.350301
-0.768651
0.405198
-0.882549
-0.993439
0.453793
0.000555399
0.027579
0.00934829
0.017778
0.034801
-0.0478525
0.0844646
-0.178686
0.153211
-0.354321
0.226845
-0.534319
0.293442
-0.69249
0.349878
-0.825087
0.397549
-0.93022
-1.03471
0.438821
0.000961749
0.0266173
0.0120707
0.00666906
0.0430023
-0.0787841
0.0987225
-0.234407
0.168485
-0.424083
0.237113
-0.602948
0.296282
-0.751658
0.344952
-0.873758
0.386504
-0.971772
-1.07166
0.423456
0.00147886
0.0251384
0.0153718
-0.00722392
0.0520629
-0.115475
0.112213
-0.294557
0.180391
-0.492261
0.242829
-0.665386
0.294659
-0.803489
0.336695
-0.915793
0.373223
-1.0083
-1.10461
0.406167
0.00212065
0.0230177
0.019282
-0.0243852
0.0615782
-0.157771
0.12409
-0.357068
0.188704
-0.556875
0.244495
-0.721177
0.289524
-0.848518
0.325949
-0.952218
0.358236
-1.04059
-1.13446
0.38809
0.00290861
0.0201091
0.0237633
-0.0452399
0.0710382
-0.205046
0.133755
-0.419785
0.19354
-0.61666
0.242734
-0.770372
0.281673
-0.887457
0.313383
-0.983929
0.342168
-1.06937
-1.16162
0.369329
0.00387552
0.0162336
0.0286972
-0.0700616
0.079896
-0.256245
0.14092
-0.480809
0.195216
-0.670955
0.238166
-0.813322
0.271773
-0.921063
0.29952
-1.01168
0.325296
-1.09515
-1.18638
0.350053
0.00506154
0.0111721
0.0338994
-0.0988994
0.0876521
-0.309998
0.145559
-0.538716
0.19414
-0.719536
0.231359
-0.850542
0.260349
-0.950053
0.284726
-1.03605
0.307872
-1.11829
-1.20892
0.330412
0.00649799
0.00467409
0.0391518
-0.131553
0.0939481
-0.364794
0.147812
-0.59258
0.190743
-0.762467
0.222802
-0.882601
0.247809
-0.97506
0.269274
-1.05752
0.290039
-1.13906
-1.22933
0.310454
0.00818475
-0.00351066
0.0442317
-0.1676
0.098607
-0.41917
0.147907
-0.64188
0.185437
-0.799997
0.212902
-0.910066
0.234461
-0.996618
0.253355
-1.07641
0.271906
-1.15761
-1.24768
0.290255
0.0100776
-0.0135883
0.048923
-0.206446
0.101601
-0.471848
0.146109
-0.686387
0.178591
-0.832479
0.201991
-0.933466
0.220535
-1.01516
0.237105
-1.09298
0.253548
-1.17405
-1.26398
0.26985
0.0120963
-0.0256845
0.0530224
-0.247372
0.103002
-0.521827
0.142686
-0.726072
0.170526
-0.860319
0.190329
-0.953269
0.206202
-1.03104
0.220623
-1.1074
0.235019
-1.18845
-1.27824
0.24928
0.0141455
-0.03983
0.0563585
-0.289585
0.102933
-0.568401
0.137896
-0.761035
0.161512
-0.883935
0.178123
-0.96988
0.191588
-1.0445
0.203975
-1.11979
0.216363
-1.20084
-1.29046
0.228579
0.0161377
-0.0559678
0.058813
-0.33226
0.101548
-0.611136
0.131977
-0.791464
0.151768
-0.903727
0.16553
-0.983642
0.176786
-1.05576
0.187215
-1.13022
0.197617
-1.21124
-1.30062
0.207782
0.0180019
-0.0739697
0.06033
-0.374588
0.0990099
-0.649816
0.125142
-0.817596
0.141478
-0.920063
0.152674
-0.994838
0.161865
-1.06495
0.170386
-1.13874
0.178813
-1.21967
-1.30873
0.18692
0.0196796
-0.0936492
0.0609098
-0.415818
0.0954816
-0.684387
0.11758
-0.839694
0.13079
-0.933273
0.139648
-1.0037
0.14688
-1.07218
0.153522
-1.14538
0.159981
-1.22612
-1.31478
0.166027
0.0211178
-0.114767
0.060592
-0.455293
0.0911151
-0.71491
0.109454
-0.858034
0.119825
-0.943644
0.126525
-1.0104
0.131872
-1.07753
0.136656
-1.15017
0.14115
-1.23062
-1.31876
0.145136
0.0222663
-0.137033
0.0594346
-0.492461
0.0860487
-0.741525
0.100905
-0.87289
0.108681
-0.95142
0.113361
-1.01508
0.116877
-1.08104
0.119815
-1.1531
0.122349
-1.23315
-1.3207
0.124281
0.023082
-0.160115
0.0575235
-0.526902
0.0804087
-0.76441
0.0920476
-0.884529
0.0974355
-0.956808
0.100202
-1.01784
0.101924
-1.08277
0.103024
-1.1542
0.103606
-1.23373
-1.3206
0.103505
0.023536
-0.183651
0.0550384
-0.558405
0.0743136
-0.783685
0.0829782
-0.893193
0.0861513
-0.959981
0.0870835
-1.01877
0.0870388
-1.08272
0.0863059
-1.15347
0.0849509
-1.23238
-1.31851
0.0828605
0.0236165
-0.207268
0.052045
-0.586833
0.0678679
-0.799508
0.0737758
-0.899101
0.0748778
-0.961083
0.0740371
-1.01793
0.0722446
-1.08093
0.0696842
-1.15091
0.0664039
-1.2291
-1.31441
0.0623127
0.0233287
-0.230596
0.048615
-0.61212
0.061162
-0.812055
0.0645068
-0.902446
0.0636548
-0.960231
0.061088
-1.01537
0.0575635
-1.0774
0.0531849
-1.14653
0.0479829
-1.2239
-1.30831
0.0418791
0.0226939
-0.25329
0.0448222
-0.634248
0.0542757
-0.821508
0.0552259
-0.903396
0.0525146
-0.95752
0.0482585
-1.01111
0.0430155
-1.07216
0.0368338
-1.14035
0.0297323
-1.21679
-1.30016
0.0215854
0.0217454
-0.275036
0.040737
-0.65324
0.0472602
-0.828032
0.0459767
-0.902112
0.0414839
-0.953027
0.0355689
-1.0052
0.0286193
-1.06521
0.0206446
-1.13238
0.011716
-1.20787
-1.28982
0.00137365
0.0205237
-0.29556
0.0364251
-0.669141
0.0401728
-0.831779
0.0367957
-0.898735
0.0305855
-0.946817
0.0230365
-0.997647
0.014393
-1.05657
0.00459472
-1.12258
-0.00605312
-1.19722
-1.27749
-0.0183809
0.0190725
-0.314632
0.0319468
-0.682015
0.0330666
-0.832899
0.0277137
-0.893383
0.0198378
-0.938941
0.0106713
-0.98848
0.00032177
-1.04622
-0.0111165
-1.11114
-0.0237049
-1.18463
-1.26334
-0.0378595
0.0174342
-0.332066
0.0273566
-0.691938
0.0259853
-0.831528
0.0187573
-0.886154
0.00924729
-0.929431
-0.0015243
-0.977708
-0.0134181
-1.03432
-0.0265735
-1.09798
-0.0410582
-1.17015
-1.24733
-0.0570711
0.0156489
-0.347715
0.0227028
-0.698992
0.0189651
-0.82779
0.00994699
-0.877136
-0.00119887
-0.918285
-0.0133983
-0.965509
-0.0269567
-1.02077
-0.0418001
-1.08314
-0.0581161
-1.15383
-1.22947
-0.0759689
0.0137531
-0.361468
0.0180279
-0.703266
0.0120339
-0.821796
0.00127481
-0.866377
-0.0112663
-0.905744
-0.0250853
-0.95169
-0.0402477
-1.0056
-0.0567619
-1.06663
-0.0748591
-1.13573
-1.2098
-0.0945338
0.0117804
-0.373249
0.0133691
-0.704855
0.00520245
-0.81363
-0.00711416
-0.854061
-0.0211723
-0.891686
-0.0365385
-0.936324
-0.0532743
-0.988868
-0.0714341
-1.04847
-0.0912717
-1.11589
-1.18833
-0.112737
0.00976094
-0.383009
0.0087613
-0.703855
-0.00150331
-0.803365
-0.0153274
-0.840237
-0.030861
-0.876152
-0.0477395
-0.919445
-0.0660204
-0.970587
-0.0857953
-1.02869
-0.107335
-1.09435
-1.16511
-0.130558
0.00771982
-0.390729
0.00424468
-0.70038
-0.00789257
-0.791228
-0.0233385
-0.824791
-0.0403149
-0.859176
-0.0586741
-0.901086
-0.0784705
-0.95079
-0.099827
-1.00734
-0.123032
-1.07115
-1.14017
-0.147973
0.00567583
-0.396405
-7.69328e-05
-0.694628
-0.0141515
-0.777153
-0.0311326
-0.807809
-0.0495233
-0.840785
-0.0693296
-0.88128
-0.0906101
-0.92951
-0.113513
-0.984432
-0.138347
-1.04632
-1.11355
-0.164963
0.00364701
-0.400052
-0.0046398
-0.686341
-0.0202486
-0.761544
-0.0386954
-0.789363
-0.0584747
-0.821006
-0.0796944
-0.86006
-0.102425
-0.906779
-0.126838
-0.960019
-0.153262
-1.01989
-1.08532
-0.181499
0.00166975
-0.401722
-0.0089427
-0.675728
-0.0261655
-0.744321
-0.0460175
-0.769511
-0.0671588
-0.799864
-0.0897572
-0.837462
-0.113902
-0.882634
-0.139789
-0.934133
-0.167758
-0.991922
-1.05552
-0.197556
-0.000218564
-0.401503
-0.0130777
-0.662869
-0.0318923
-0.725507
-0.0530943
-0.748309
-0.0755657
-0.777393
-0.0995071
-0.81352
-0.125029
-0.857112
-0.152354
-0.906808
-0.181822
-0.962454
-1.0242
-0.213138
-0.00234686
-0.399156
-0.0170615
-0.648154
-0.0374164
-0.705152
-0.0599199
-0.725805
-0.0836864
-0.753627
-0.108933
-0.788273
-0.135798
-0.830248
-0.164536
-0.87807
-0.195445
-0.931545
-0.991434
-0.228214
-0.00432622
-0.39483
-0.0208924
-0.631588
-0.0427262
-0.683318
-0.0664885
-0.702043
-0.0915122
-0.728603
-0.118026
-0.76176
-0.146199
-0.802074
-0.176326
-0.847943
-0.208581
-0.89929
-0.957469
-0.242545
-0.00621901
-0.388611
-0.0245677
-0.61324
-0.0478155
-0.66007
-0.0727945
-0.677064
-0.0990352
-0.702362
-0.126775
-0.73402
-0.156222
-0.772628
-0.18768
-0.816485
-0.22124
-0.865731
-0.922706
-0.256003
-0.00803158
-0.38058
-0.028084
-0.593187
-0.0526797
-0.635475
-0.0788326
-0.650911
-0.106248
-0.674947
-0.135174
-0.705094
-0.165853
-0.741949
-0.198543
-0.783794
-0.232954
-0.831319
-0.885749
-0.269912
-0.00976425
-0.370815
-0.0314381
-0.571513
-0.0573154
-0.609597
-0.084598
-0.623629
-0.113144
-0.6464
-0.143214
-0.675025
-0.175067
-0.710096
-0.208876
-0.749985
-0.244547
-0.795648
-0.847203
-0.283093
-0.0114156
-0.3594
-0.034627
-0.548302
-0.0617196
-0.582505
-0.090086
-0.595262
-0.119717
-0.616769
-0.150886
-0.643856
-0.183865
-0.677116
-0.218818
-0.715032
-0.255867
-0.758599
-0.807321
-0.295749
-0.0129837
-0.346416
-0.0376481
-0.523638
-0.0658899
-0.554263
-0.0952924
-0.56586
-0.125961
-0.5861
-0.158178
-0.611639
-0.192225
-0.64307
-0.228264
-0.678993
-0.266534
-0.720329
-0.766173
-0.307681
-0.0144664
-0.33195
-0.0404988
-0.497605
-0.0698242
-0.524938
-0.100213
-0.535471
-0.13187
-0.554444
-0.165086
-0.578423
-0.20015
-0.608006
-0.237249
-0.641894
-0.276675
-0.680903
-0.72388
-0.318968
-0.0158614
-0.316088
-0.043177
-0.470289
-0.0735204
-0.494594
-0.104845
-0.504147
-0.137437
-0.521851
-0.171598
-0.544262
-0.207626
-0.571978
-0.245728
-0.603792
-0.286231
-0.6404
-0.680514
-0.329597
-0.0171661
-0.298922
-0.045681
-0.441774
-0.0769766
-0.463299
-0.109183
-0.47194
-0.142658
-0.488376
-0.17771
-0.50921
-0.214647
-0.535041
-0.253699
-0.56474
-0.295208
-0.598891
-0.636148
-0.339575
-0.0183776
-0.280545
-0.0480092
-0.412143
-0.0801912
-0.431117
-0.113225
-0.438906
-0.147528
-0.454073
-0.183414
-0.473324
-0.221203
-0.497252
-0.261145
-0.524798
-0.30359
-0.556446
-0.590846
-0.348891
-0.0194919
-0.261053
-0.0501598
-0.381475
-0.0831626
-0.398114
-0.116968
-0.405101
-0.152041
-0.419001
-0.188704
-0.436661
-0.227287
-0.458669
-0.268057
-0.484029
-0.311368
-0.513134
-0.544677
-0.357538
-0.0205025
-0.24055
-0.0521312
-0.349846
-0.0858898
-0.364355
-0.120409
-0.370581
-0.156193
-0.383216
-0.193573
-0.399281
-0.23289
-0.419351
-0.274424
-0.442495
-0.318533
-0.469025
-0.497708
-0.365503
-0.0213947
-0.219156
-0.0539222
-0.317319
-0.0883724
-0.329905
-0.123545
-0.335409
-0.159981
-0.346781
-0.198016
-0.361246
-0.238006
-0.379361
-0.280239
-0.400262
-0.325075
-0.424189
-0.450008
-0.372776
-0.0222136
-0.196942
-0.0555349
-0.283998
-0.09061
-0.29483
-0.126374
-0.299644
-0.1634
-0.309755
-0.202029
-0.322618
-0.242628
-0.338761
-0.285495
-0.357395
-0.330986
-0.378697
-0.401648
-0.379346
-0.0229589
-0.173983
-0.0569702
-0.249986
-0.0926019
-0.259198
-0.128894
-0.263352
-0.166448
-0.272201
-0.205606
-0.28346
-0.24675
-0.297617
-0.290183
-0.313963
-0.336256
-0.332624
-0.352702
-0.385202
-0.0236182
-0.150365
-0.0582276
-0.215377
-0.0943472
-0.223079
-0.131103
-0.226596
-0.169121
-0.234184
-0.208745
-0.243836
-0.250368
-0.255994
-0.294298
-0.270033
-0.34088
-0.286041
-0.303245
-0.390337
-0.0241869
-0.126178
-0.0593065
-0.180257
-0.0958449
-0.18654
-0.133
-0.189441
-0.171417
-0.195767
-0.211441
-0.203811
-0.253476
-0.213959
-0.297832
-0.225677
-0.344851
-0.239023
-0.253353
-0.394743
-0.0246627
-0.101515
-0.0602064
-0.144714
-0.0970943
-0.149652
-0.134582
-0.151953
-0.173333
-0.157015
-0.213692
-0.163452
-0.256071
-0.171581
-0.300782
-0.180966
-0.348161
-0.191644
-0.203101
-0.398413
-0.0250443
-0.0764709
-0.0609268
-0.108831
-0.0980947
-0.112484
-0.135849
-0.114199
-0.174868
-0.117996
-0.215496
-0.122824
-0.25815
-0.128927
-0.303144
-0.135971
-0.350809
-0.14398
-0.152566
-0.401344
-0.025331
-0.0511399
-0.0614674
-0.0726949
-0.0988455
-0.075106
-0.1368
-0.076244
-0.176021
-0.0787761
-0.21685
-0.0819944
-0.259711
-0.0860659
-0.304917
-0.0907648
-0.352794
-0.0961035
-0.101822
-0.403538
-0.0255223
-0.0256175
-0.0618279
-0.0363894
-0.0993462
-0.0375877
-0.137435
-0.0381551
-0.17679
-0.0394214
-0.217754
-0.0410306
-0.260752
-0.0430671
-0.3061
-0.0454174
-0.354117
-0.0480864
-0.0509435
-0.404995
-0.0256181
5.67276e-07
-0.0620082
7.49005e-07
-0.0995966
7.19757e-07
-0.137752
6.72967e-07
-0.177174
6.30745e-07
-0.218206
5.90279e-07
-0.261273
5.53127e-07
-0.306691
5.19173e-07
-0.354778
4.88123e-07
4.57727e-07
-0.405722
-0.0256181
0.0256186
-0.0620082
0.0363909
-0.0995967
0.0375892
-0.137752
0.0381565
-0.177174
0.0394226
-0.218206
0.0410317
-0.261273
0.0430682
-0.306691
0.0454184
-0.354778
0.0480874
0.0509445
-0.405722
-0.0255224
0.051141
-0.0618279
0.0726964
-0.0993462
0.0751075
-0.137435
0.0762453
-0.17679
0.0787774
-0.217754
0.0819956
-0.260752
0.086067
-0.3061
0.0907659
-0.354117
0.0961044
0.101823
-0.404995
-0.025331
0.076472
-0.0614674
0.108833
-0.0988455
0.112486
-0.1368
0.1142
-0.176021
0.117998
-0.21685
0.122825
-0.259711
0.128928
-0.304917
0.135972
-0.352794
0.143981
0.152567
-0.403538
-0.0250443
0.101516
-0.0609268
0.144715
-0.0980947
0.149654
-0.135849
0.151955
-0.174868
0.157017
-0.215496
0.163453
-0.25815
0.171582
-0.303145
0.180967
-0.350809
0.191645
0.203102
-0.401344
-0.0246627
0.126179
-0.0602064
0.180259
-0.0970944
0.186542
-0.134582
0.189442
-0.173333
0.195768
-0.213692
0.203812
-0.256071
0.213961
-0.300782
0.225678
-0.348161
0.239024
0.253354
-0.398413
-0.0241869
0.150366
-0.0593065
0.215378
-0.095845
0.22308
-0.133
0.226597
-0.171417
0.234185
-0.211441
0.243837
-0.253476
0.255995
-0.297832
0.270034
-0.344851
0.286042
0.303246
-0.394743
-0.0236182
0.173984
-0.0582276
0.249988
-0.0943472
0.2592
-0.131103
0.263353
-0.169121
0.272203
-0.208745
0.283461
-0.250368
0.297618
-0.294298
0.313964
-0.34088
0.332625
0.352703
-0.390337
-0.0229589
0.196943
-0.0569702
0.283999
-0.0926019
0.294831
-0.128894
0.299646
-0.166448
0.309756
-0.205606
0.322619
-0.246751
0.338763
-0.290183
0.357396
-0.336256
0.378698
0.401649
-0.385202
-0.0222136
0.219157
-0.0555349
0.317321
-0.09061
0.329906
-0.126375
0.33541
-0.1634
0.346782
-0.202029
0.361248
-0.242628
0.379362
-0.285495
0.400263
-0.330986
0.42419
0.450009
-0.379346
-0.0213947
0.240551
-0.0539222
0.349848
-0.0883724
0.364357
-0.123545
0.370583
-0.159981
0.383218
-0.198016
0.399283
-0.238006
0.419352
-0.28024
0.442496
-0.325076
0.469026
0.497709
-0.372776
-0.0205025
0.261054
-0.0521312
0.381477
-0.0858899
0.398115
-0.120409
0.405102
-0.156193
0.419002
-0.193573
0.436662
-0.23289
0.45867
-0.274424
0.48403
-0.318534
0.513135
0.544678
-0.365503
-0.019492
0.280546
-0.0501598
0.412145
-0.0831627
0.431118
-0.116968
0.438908
-0.152041
0.454075
-0.188704
0.473325
-0.227287
0.497253
-0.268057
0.524799
-0.311369
0.556447
0.590847
-0.357538
-0.0183776
0.298924
-0.0480092
0.441776
-0.0801912
0.4633
-0.113225
0.471942
-0.147528
0.488377
-0.183414
0.509211
-0.221203
0.535043
-0.261145
0.564741
-0.30359
0.598892
0.636149
-0.348891
-0.0171661
0.31609
-0.0456811
0.470291
-0.0769767
0.494596
-0.109183
0.504148
-0.142658
0.521852
-0.17771
0.544263
-0.214647
0.571979
-0.253699
0.603793
-0.295208
0.640401
0.680515
-0.339575
-0.0158614
0.331951
-0.0431771
0.497607
-0.0735204
0.524939
-0.104845
0.535472
-0.137437
0.554445
-0.171599
0.578424
-0.207626
0.608007
-0.245729
0.641895
-0.286231
0.680904
0.723881
-0.329597
-0.0144664
0.346417
-0.0404988
0.523639
-0.0698243
0.554265
-0.100213
0.565861
-0.13187
0.586102
-0.165086
0.611641
-0.20015
0.643071
-0.237249
0.678994
-0.276676
0.72033
0.766174
-0.318968
-0.0129837
0.359401
-0.0376481
0.548304
-0.06589
0.582506
-0.0952925
0.595264
-0.125961
0.61677
-0.158179
0.643858
-0.192225
0.677117
-0.228264
0.715033
-0.266534
0.7586
0.807322
-0.307682
-0.0114156
0.370817
-0.0346271
0.571515
-0.0617197
0.609599
-0.0900861
0.62363
-0.119718
0.646402
-0.150886
0.675026
-0.183865
0.710097
-0.218818
0.749986
-0.255867
0.795649
0.847204
-0.295749
-0.00976427
0.380581
-0.0314382
0.593189
-0.0573155
0.635476
-0.0845981
0.650913
-0.113144
0.674948
-0.143214
0.705095
-0.175067
0.74195
-0.208876
0.783795
-0.244548
0.831321
0.88575
-0.283093
-0.00803161
0.388613
-0.0280841
0.613241
-0.0526798
0.660072
-0.0788328
0.677066
-0.106248
0.702364
-0.135174
0.734021
-0.165853
0.772629
-0.198544
0.816486
-0.232955
0.865732
0.922707
-0.269912
-0.00621904
0.394832
-0.0245678
0.63159
-0.0478156
0.68332
-0.0727946
0.702045
-0.0990354
0.728604
-0.126775
0.761761
-0.156222
0.802076
-0.18768
0.847944
-0.22124
0.899291
0.95747
-0.256003
-0.00432625
0.399158
-0.0208925
0.648156
-0.0427263
0.705154
-0.0664886
0.725807
-0.0915124
0.753628
-0.118026
0.788275
-0.146199
0.830249
-0.176326
0.878071
-0.208581
0.931546
0.991435
-0.242546
-0.00234689
0.401505
-0.0170616
0.662871
-0.0374165
0.725509
-0.05992
0.748311
-0.0836866
0.777395
-0.108934
0.813522
-0.135798
0.857113
-0.164536
0.906809
-0.195445
0.962455
1.0242
-0.228214
-0.000218602
0.401723
-0.0130778
0.67573
-0.0318924
0.744323
-0.0530944
0.769513
-0.0755659
0.799866
-0.0995073
0.837463
-0.12503
0.882636
-0.152355
0.934134
-0.181822
0.991923
1.05552
-0.213139
0.00166972
0.400054
-0.00894279
0.686343
-0.0261656
0.761546
-0.0460176
0.789365
-0.067159
0.821007
-0.0897575
0.860062
-0.113902
0.906781
-0.139789
0.960021
-0.167759
1.01989
1.08532
-0.197556
0.00364698
0.396407
-0.00463989
0.69463
-0.0202488
0.777155
-0.0386956
0.807811
-0.0584749
0.840787
-0.0796947
0.881281
-0.102425
0.929511
-0.126838
0.984434
-0.153262
1.04632
1.11355
-0.181499
0.0056758
0.390731
-7.70476e-05
0.700383
-0.0141516
0.79123
-0.0311328
0.824793
-0.0495235
0.859178
-0.0693299
0.901088
-0.0906104
0.950792
-0.113513
1.00734
-0.138347
1.07115
1.14017
-0.164963
0.00771979
0.383011
0.00424459
0.703858
-0.00789272
0.803367
-0.0233387
0.840238
-0.0403151
0.876154
-0.0586744
0.919447
-0.0784709
0.970588
-0.0998274
1.02869
-0.123033
1.09436
1.16511
-0.147974
0.00976091
0.37325
0.00876121
0.704857
-0.00150346
0.813632
-0.0153276
0.854063
-0.0308612
0.891688
-0.0477398
0.936326
-0.0660207
0.988869
-0.0857957
1.04847
-0.107336
1.1159
1.18833
-0.130558
0.0117804
0.36147
0.013369
0.703269
0.00520229
0.821798
-0.00711438
0.866379
-0.0211726
0.905746
-0.0365389
0.951692
-0.0532747
1.00561
-0.0714345
1.06663
-0.0912722
1.13573
1.2098
-0.112737
0.0137531
0.347717
0.0180278
0.698994
0.0120337
0.827793
0.00127458
0.877138
-0.0112665
0.918287
-0.0250856
0.965511
-0.0402481
1.02077
-0.0567623
1.08314
-0.0748596
1.15383
1.22947
-0.0945344
0.0156488
0.332068
0.0227027
0.69194
0.018965
0.83153
0.00994675
0.886157
-0.00119916
0.929433
-0.0133987
0.97771
-0.0269571
1.03433
-0.0418005
1.09799
-0.0581166
1.17015
1.24733
-0.0759694
0.0174342
0.314634
0.0273565
0.682018
0.0259851
0.832902
0.018757
0.893385
0.00924698
0.938943
-0.00152466
0.988482
-0.0134185
1.04622
-0.026574
1.11114
-0.0410588
1.18463
1.26334
-0.0570717
0.0190725
0.295561
0.0319467
0.669144
0.0330664
0.831782
0.0277135
0.898738
0.0198375
0.946819
0.0106709
0.997649
0.000321305
1.05657
-0.011117
1.12258
-0.0237055
1.19722
1.27749
-0.0378601
0.0205238
0.275038
0.036425
0.653242
0.0401726
0.828034
0.0367955
0.902115
0.0305852
0.953029
0.0230361
1.0052
0.0143925
1.06521
0.00459416
1.13238
-0.00605374
1.20787
1.28982
-0.0183816
0.0217454
0.253292
0.040737
0.634251
0.04726
0.821511
0.0459765
0.903398
0.0414835
0.957522
0.0355685
1.01111
0.0286188
1.07216
0.020644
1.14035
0.0117153
1.2168
1.30016
0.00137292
0.022694
0.230598
0.0448222
0.612123
0.0542755
0.812058
0.0552256
0.902448
0.0525142
0.960233
0.0482581
1.01537
0.0430149
1.07741
0.0368332
1.14653
0.0297316
1.2239
1.30831
0.0215846
0.0233288
0.207269
0.048615
0.586836
0.0611619
0.799511
0.0645066
0.899104
0.0636545
0.961086
0.0610875
1.01794
0.0575629
1.08093
0.0531843
1.15091
0.0479822
1.2291
1.31442
0.0418783
0.0236165
0.183653
0.052045
0.558408
0.0678678
0.783688
0.0737755
0.893196
0.0748774
0.959984
0.0740367
1.01878
0.072244
1.08272
0.0696836
1.15347
0.0664031
1.23238
1.31851
0.0623118
0.0235361
0.160117
0.0550384
0.526906
0.0743135
0.764413
0.0829779
0.884532
0.0861509
0.956811
0.0870831
1.01784
0.0870383
1.08277
0.0863052
1.15421
0.08495
1.23374
1.3206
0.0828595
0.0230821
0.137035
0.0575236
0.492464
0.0804087
0.741528
0.0920473
0.872893
0.0974351
0.951423
0.100201
1.01508
0.101924
1.08105
0.103023
1.15311
0.103605
1.23315
1.3207
0.103504
0.0222664
0.114768
0.0594347
0.455296
0.0860486
0.714914
0.100905
0.858037
0.108681
0.943647
0.11336
1.0104
0.116877
1.07753
0.119814
1.15017
0.122348
1.23062
1.31877
0.12428
0.0211179
0.0936504
0.0605921
0.415822
0.0911151
0.684391
0.109454
0.839698
0.119825
0.933276
0.126524
1.0037
0.131872
1.07218
0.136655
1.14539
0.141149
1.22613
1.31478
0.145135
0.0196797
0.0739707
0.06091
0.374591
0.0954817
0.649819
0.11758
0.8176
0.13079
0.920066
0.139648
0.994842
0.146879
1.06495
0.153522
1.13874
0.15998
1.21967
1.30873
0.166026
0.0180021
0.0559686
0.0603303
0.332263
0.09901
0.61114
0.125142
0.791468
0.141478
0.90373
0.152674
0.983646
0.161864
1.05576
0.170385
1.13022
0.178812
1.21124
1.30063
0.186919
0.0161379
0.0398308
0.0588132
0.289588
0.101548
0.568405
0.131977
0.761039
0.151768
0.883939
0.16553
0.969884
0.176785
1.0445
0.187215
1.11979
0.197616
1.20084
1.29046
0.20778
0.0141456
0.0256851
0.0563588
0.247375
0.102933
0.521831
0.137896
0.726076
0.161511
0.860323
0.178122
0.953273
0.191587
1.03104
0.203975
1.10741
0.216362
1.18845
1.27825
0.228578
0.0120964
0.0135887
0.0530228
0.206448
0.103002
0.471852
0.142686
0.686392
0.170526
0.832483
0.190329
0.93347
0.206202
1.01517
0.220622
1.09299
0.235018
1.17406
1.26399
0.249278
0.0100777
0.00351102
0.0489234
0.167603
0.101602
0.419174
0.146109
0.641885
0.178591
0.800001
0.20199
0.910071
0.220534
0.996622
0.237104
1.07642
0.253547
1.15761
1.24769
0.269848
0.00818485
-0.00467383
0.0442321
0.131555
0.0986075
0.364798
0.147908
0.592584
0.185437
0.762472
0.212902
0.882605
0.23446
0.975064
0.253354
1.05752
0.271905
1.13906
1.22934
0.290253
0.00649807
-0.0111719
0.0391521
0.0989012
0.0939487
0.310002
0.147813
0.53872
0.190744
0.719541
0.222802
0.850547
0.247808
0.950058
0.269273
1.03606
0.290038
1.1183
1.20892
0.310453
0.0050616
-0.0162335
0.0338997
0.070063
0.0876528
0.256249
0.145559
0.480814
0.19414
0.67096
0.231359
0.813328
0.260349
0.921069
0.284725
1.01168
0.30787
1.09515
1.18638
0.33041
0.00387556
-0.0201091
0.0286975
0.045241
0.0798968
0.205049
0.140921
0.419789
0.195216
0.616665
0.238167
0.770377
0.271773
0.887463
0.299519
0.983935
0.325295
1.06938
1.16163
0.350051
0.00290864
-0.0230177
0.0237636
0.0243861
0.071039
0.157774
0.133756
0.357073
0.19354
0.55688
0.242734
0.721183
0.281673
0.848524
0.313383
0.952225
0.342167
1.04059
1.13447
0.369327
0.00212068
-0.0251384
0.0192823
0.00722449
0.0615791
0.115477
0.124091
0.294561
0.188705
0.492266
0.244496
0.665392
0.289524
0.803496
0.325949
0.9158
0.358235
1.00831
1.10461
0.388088
0.00147889
-0.0266173
0.0153721
-0.00666875
0.0520637
0.0787857
0.112215
0.23441
0.180392
0.424089
0.24283
0.602955
0.29466
0.751666
0.336695
0.873766
0.373222
0.97178
1.07167
0.406165
0.000961798
-0.0275791
0.012071
-0.017778
0.0430031
0.0478535
0.098724
0.178689
0.168487
0.354326
0.237115
0.534326
0.296283
0.692498
0.344952
0.825097
0.386503
0.930229
1.03472
0.423454
0.000555473
-0.0281345
0.00934864
-0.0265711
0.0348019
0.0224003
0.0844661
0.129025
0.153213
0.285579
0.226847
0.460692
0.293443
0.625902
0.349879
0.768661
0.397549
0.88256
0.993452
0.438819
0.00024854
-0.0283831
0.00713825
-0.0334608
0.0276985
0.00184
0.0703766
0.086347
0.135274
0.220681
0.211769
0.384197
0.285254
0.552418
0.350303
0.703612
0.405198
0.827665
0.944859
0.453791
3.07178e-05
-0.0284138
0.00536261
-0.0387927
0.0217482
-0.0145456
0.0572753
0.05082
0.115839
0.162117
0.192166
0.307871
0.270849
0.473734
0.34554
0.62892
0.40714
0.766066
0.888852
0.463146
-0.000136288
-0.0282775
0.00394415
-0.0428732
0.016866
-0.0274675
0.0457027
0.0219833
0.0963271
0.111492
0.169016
0.235183
0.250054
0.392696
0.333396
0.545578
0.405604
0.693858
0.832188
0.462269
-0.000246044
-0.0280315
0.00280845
-0.0459276
0.0128938
-0.0375529
0.0358647
-0.000987602
0.0780496
0.0693073
0.143942
0.16929
0.223597
0.313041
0.312737
0.456438
0.396972
0.609623
0.767145
0.462014
-0.000320065
-0.0277114
0.0018852
-0.0481329
0.00965145
-0.0453192
0.0276897
-0.0190259
0.0618894
0.0351076
0.118808
0.112371
0.193194
0.238655
0.283598
0.366034
0.378236
0.514985
0.691638
0.453744
-0.000378572
-0.0273328
0.00110804
-0.0496195
0.00696252
-0.0511736
0.0209392
-0.0330025
0.0481505
0.00789633
0.0951415
0.06538
0.16133
0.172467
0.247531
0.279833
0.348342
0.414174
0.605128
0.434851
-0.000438367
-0.0268945
0.00041725
-0.0504751
0.00466714
-0.0554235
0.0153053
-0.0436408
0.0366426
-0.0134409
0.0738447
0.0281779
0.130565
0.115747
0.207481
0.202917
0.308009
0.313645
0.509029
0.404109
-0.000511776
-0.0263827
-0.000238847
-0.0507481
0.00262948
-0.0582919
0.0104816
-0.0514928
0.0269271
-0.0298864
0.0552998
-0.000194832
0.10262
0.0684265
0.166979
0.138558
0.260395
0.22023
0.40749
0.361933
-0.000609806
-0.0257729
-0.00090106
-0.0504568
0.000747103
-0.05994
0.00620932
-0.0569551
0.0185537
-0.0422308
0.0395229
-0.021164
0.0780098
0.0299396
0.129223
0.0873455
0.210436
0.139017
0.307382
0.310544
-0.000741512
-0.0250314
-0.00158817
-0.0496102
-0.00107812
-0.0604501
0.00229444
-0.0603276
0.0111831
-0.0511195
0.0262089
-0.0361898
0.0565186
-0.000370118
0.0963044
0.0475597
0.162754
0.0725668
0.216438
0.253698
-0.000906551
-0.0241248
-0.00231274
-0.048204
-0.00288409
-0.0598787
-0.00135083
-0.0618609
0.00458141
-0.0570517
0.0148473
-0.0464557
0.0377813
-0.0233041
0.0686033
0.0167377
0.119807
0.0213635
0.14037
0.195875
-0.00110245
-0.0230224
-0.00307491
-0.0462315
-0.00467433
-0.0582793
-0.00475223
-0.061783
-0.00144831
-0.0603557