/*--------------------------------*- C++ -*----------------------------------*\
  =========                 |
  \\      /  F ield         | OpenFOAM: The Open Source CFD Toolbox
   \\    /   O peration     | Website:  https://openfoam.org
    \\  /    A nd           | Version:  9
     \\/     M anipulation  |
\*---------------------------------------------------------------------------*/
FoamFile
{
    format      ascii;
    class       volScalarField;
    location    "7.1";
    object      p;
}
// * * * * * * * * * * * * * * * * * * * * * * * * * * * * * * * * * * * * * //

dimensions      [0 2 -2 0 0 0 0];

internalField   nonuniform List<scalar> 
8500
(
-0.340102
-0.348376
-0.344304
-0.338446
-0.32886
-0.316762
-0.303245
-0.286608
-0.273105
-0.252364
-0.340987
-0.348969
-0.344824
-0.338869
-0.329232
-0.317084
-0.30355
-0.286766
-0.273438
-0.252053
-0.342747
-0.35015
-0.345856
-0.339709
-0.329969
-0.317722
-0.304172
-0.28713
-0.274042
-0.251435
-0.345364
-0.351904
-0.347389
-0.340951
-0.331056
-0.318663
-0.305106
-0.287683
-0.274901
-0.25052
-0.34881
-0.354215
-0.349403
-0.342578
-0.332473
-0.319881
-0.306173
-0.288496
-0.276035
-0.249331
-0.353051
-0.357058
-0.351874
-0.344566
-0.334196
-0.321369
-0.307485
-0.289421
-0.277414
-0.247894
-0.358047
-0.360406
-0.354775
-0.346887
-0.336193
-0.323089
-0.309018
-0.290446
-0.278999
-0.246247
-0.363752
-0.36423
-0.358076
-0.349512
-0.338435
-0.325003
-0.310726
-0.291565
-0.280744
-0.244435
-0.370117
-0.368499
-0.361747
-0.352412
-0.340895
-0.327081
-0.312571
-0.292763
-0.282596
-0.242514
-0.377102
-0.37317
-0.365759
-0.355559
-0.343542
-0.329296
-0.314517
-0.294026
-0.284495
-0.24055
-0.384682
-0.378196
-0.370076
-0.358926
-0.34635
-0.331623
-0.316533
-0.295345
-0.286372
-0.238618
-0.39272
-0.383613
-0.374674
-0.36249
-0.349296
-0.334042
-0.318587
-0.296713
-0.288154
-0.2368
-0.401233
-0.389341
-0.379526
-0.36623
-0.352363
-0.336536
-0.320651
-0.298132
-0.289759
-0.235177
-0.410175
-0.395354
-0.384612
-0.370133
-0.355535
-0.339093
-0.322702
-0.299601
-0.291105
-0.23383
-0.419498
-0.401631
-0.389914
-0.374186
-0.358803
-0.341705
-0.324719
-0.301125
-0.29211
-0.232853
-0.429162
-0.408151
-0.395417
-0.378381
-0.362162
-0.344364
-0.326684
-0.302701
-0.29269
-0.232341
-0.439128
-0.414891
-0.401107
-0.382712
-0.365607
-0.347063
-0.328583
-0.304329
-0.29274
-0.232251
-0.44936
-0.421831
-0.406971
-0.387174
-0.369133
-0.349792
-0.330409
-0.306016
-0.292107
-0.232277
-0.45982
-0.42895
-0.412998
-0.39176
-0.372734
-0.352538
-0.332163
-0.307774
-0.290721
-0.233108
-0.470467
-0.436224
-0.419172
-0.396462
-0.376398
-0.355273
-0.333837
-0.309523
-0.288968
-0.240207
-0.481258
-0.443629
-0.425476
-0.401264
-0.380103
-0.357962
-0.335388
-0.31099
-0.287576
-0.259772
-0.492144
-0.451134
-0.431885
-0.406143
-0.383821
-0.360556
-0.336751
-0.311964
-0.286001
-0.265051
-0.50307
-0.458704
-0.438368
-0.411068
-0.387509
-0.362999
-0.337858
-0.312327
-0.284168
-0.265522
-0.51397
-0.466297
-0.444886
-0.415998
-0.391116
-0.365224
-0.338636
-0.312048
-0.282087
-0.263981
-0.524771
-0.47386
-0.451388
-0.420878
-0.394574
-0.367156
-0.339006
-0.311109
-0.279626
-0.260872
-0.535387
-0.481334
-0.457813
-0.42564
-0.397806
-0.368714
-0.338886
-0.309485
-0.276676
-0.256563
-0.545723
-0.488648
-0.464088
-0.430205
-0.400719
-0.369805
-0.33819
-0.307151
-0.273162
-0.251364
-0.55567
-0.495721
-0.470124
-0.434477
-0.403213
-0.370334
-0.336837
-0.30408
-0.269029
-0.24547
-0.565106
-0.502458
-0.475822
-0.438352
-0.405177
-0.370202
-0.334748
-0.300247
-0.264239
-0.23899
-0.573901
-0.508756
-0.48107
-0.441712
-0.406492
-0.369309
-0.331852
-0.295625
-0.258763
-0.23198
-0.581911
-0.514499
-0.485743
-0.444428
-0.407036
-0.367556
-0.328083
-0.290191
-0.252583
-0.224461
-0.588984
-0.519561
-0.489706
-0.446367
-0.406687
-0.36485
-0.323382
-0.283925
-0.245687
-0.216436
-0.594959
-0.523806
-0.492815
-0.447388
-0.405322
-0.361104
-0.3177
-0.276809
-0.238069
-0.207899
-0.599668
-0.52709
-0.494919
-0.447348
-0.402822
-0.356238
-0.310995
-0.268831
-0.229726
-0.198839
-0.60294
-0.529264
-0.495863
-0.446105
-0.399076
-0.350182
-0.303234
-0.259979
-0.220659
-0.189245
-0.6046
-0.530171
-0.495489
-0.44352
-0.393981
-0.342875
-0.294392
-0.25025
-0.210871
-0.179109
-0.604474
-0.529654
-0.493639
-0.43946
-0.387443
-0.33427
-0.284452
-0.239642
-0.200366
-0.168425
-0.602392
-0.527556
-0.49016
-0.433802
-0.379385
-0.324329
-0.273406
-0.228157
-0.189152
-0.157193
-0.598188
-0.523722
-0.484907
-0.426434
-0.369739
-0.313027
-0.261251
-0.215803
-0.177239
-0.145414
-0.591704
-0.518003
-0.477742
-0.417256
-0.358455
-0.300348
-0.247993
-0.202589
-0.164638
-0.133096
-0.582797
-0.510257
-0.468544
-0.406188
-0.345496
-0.286289
-0.233643
-0.188529
-0.151364
-0.120252
-0.571333
-0.500355
-0.457203
-0.393163
-0.330842
-0.270858
-0.218221
-0.173642
-0.137434
-0.106896
-0.557199
-0.488182
-0.443629
-0.378137
-0.314489
-0.254073
-0.201751
-0.157949
-0.122865
-0.093037
-0.540299
-0.473637
-0.427754
-0.361083
-0.296445
-0.235962
-0.184265
-0.141482
-0.107685
-0.0786604
-0.52056
-0.456641
-0.40953
-0.341994
-0.276737
-0.216563
-0.1658
-0.124266
-0.0919485
-0.0637413
-0.49793
-0.437136
-0.388933
-0.320883
-0.255405
-0.195923
-0.146392
-0.10631
-0.0757289
-0.048383
-0.472385
-0.415086
-0.365961
-0.297785
-0.232504
-0.174097
-0.12608
-0.0876406
-0.0589617
-0.0327646
-0.443926
-0.39048
-0.340642
-0.272753
-0.208099
-0.151141
-0.104928
-0.0685064
-0.0415631
-0.0168244
-0.412584
-0.363334
-0.313021
-0.245861
-0.18227
-0.127126
-0.0830514
-0.0487653
-0.0237232
-0.000568029
-0.378415
-0.333689
-0.283173
-0.217203
-0.155112
-0.102175
-0.0604412
-0.0285008
-0.00549326
0.015966
-0.341506
-0.301612
-0.251207
-0.186883
-0.126725
-0.0763425
-0.0372015
-0.00777656
0.0130834
0.03273
-0.301973
-0.267209
-0.217287
-0.154977
-0.0972198
-0.0497241
-0.0134118
0.0133438
0.0319573
0.0496703
-0.259962
-0.23063
-0.181557
-0.121595
-0.0667222
-0.022425
0.0108454
0.034792
0.0510752
0.0667271
-0.215648
-0.192038
-0.143811
-0.0871823
-0.0353691
0.00544733
0.0354824
0.0564953
0.0703806
0.0838322
-0.169197
-0.151568
-0.104616
-0.0516459
-0.00329738
0.0337789
0.0604062
0.0783775
0.0898133
0.100909
-0.120773
-0.109424
-0.0641965
-0.0151733
0.0293446
0.0624517
0.0855203
0.10036
0.109314
0.117877
-0.070833
-0.0657319
-0.0226833
0.0220314
0.0624038
0.0913437
0.110724
0.122365
0.128835
0.134633
-0.0195321
-0.0208123
0.0197053
0.059772
0.095724
0.120329
0.135914
0.14432
0.148341
0.150979
0.0328636
0.0250672
0.0627295
0.097848
0.129145
0.149278
0.160986
0.166159
0.167731
0.166575
0.0860407
0.0716409
0.106144
0.136054
0.162504
0.17806
0.185838
0.187791
0.186736
0.181139
0.139677
0.118626
0.149697
0.174182
0.195637
0.206544
0.210369
0.209098
0.205012
0.195065
0.193443
0.16573
0.19313
0.212022
0.228377
0.2346
0.234471
0.229967
0.223107
0.210586
0.247001
0.212652
0.236185
0.249365
0.26056
0.262096
0.258039
0.250295
0.240686
0.226231
0.300008
0.259089
0.278598
0.286001
0.292022
0.288904
0.280967
0.27001
0.25766
0.241446
0.352118
0.304734
0.320113
0.321727
0.322603
0.314897
0.303154
0.289038
0.274006
0.256086
0.402987
0.349284
0.360471
0.356339
0.352145
0.339951
0.3245
0.307306
0.289678
0.270097
0.452274
0.39244
0.399424
0.389643
0.380494
0.363945
0.344911
0.324739
0.304621
0.283426
0.499646
0.433909
0.436729
0.421447
0.407503
0.386766
0.364293
0.341266
0.318777
0.296016
0.544777
0.473407
0.472152
0.45157
0.43303
0.4083
0.382558
0.356819
0.332093
0.307821
0.587358
0.510664
0.505471
0.479839
0.456942
0.428442
0.399623
0.371331
0.344514
0.3188
0.627092
0.54542
0.536475
0.506092
0.47911
0.447093
0.415408
0.38474
0.355989
0.328913
0.663702
0.577435
0.56497
0.530175
0.499416
0.464159
0.429838
0.396989
0.366469
0.338125
0.69693
0.606486
0.590774
0.55195
0.517753
0.479555
0.442846
0.408021
0.375908
0.346402
0.726541
0.632369
0.613725
0.57129
0.534021
0.493204
0.45437
0.417789
0.384264
0.353714
0.752326
0.654903
0.633675
0.588083
0.548133
0.505035
0.464354
0.426246
0.3915
0.360034
0.774102
0.673929
0.650499
0.602229
0.560013
0.514989
0.472749
0.433355
0.397583
0.365338
0.791712
0.689313
0.664088
0.613647
0.569595
0.523015
0.479516
0.439083
0.402483
0.369607
0.805032
0.700948
0.674357
0.62227
0.576827
0.52907
0.48462
0.443402
0.406179
0.372822
0.813965
0.70875
0.681239
0.628047
0.581671
0.533125
0.488037
0.446293
0.408652
0.374973
0.818447
0.712665
0.684691
0.630944
0.5841
0.535157
0.489749
0.447742
0.409892
0.37605
0.818447
0.712665
0.684691
0.630944
0.5841
0.535157
0.489749
0.447742
0.409892
0.37605
0.813965
0.70875
0.681239
0.628047
0.581671
0.533125
0.488037
0.446293
0.408652
0.374973
0.805032
0.700948
0.674357
0.62227
0.576827
0.52907
0.48462
0.443402
0.406179
0.372822
0.791712
0.689313
0.664088
0.613648
0.569595
0.523015
0.479516
0.439083
0.402483
0.369607
0.774102
0.673929
0.650499
0.602229
0.560013
0.514989
0.472749
0.433355
0.397583
0.365338
0.752327
0.654903
0.633675
0.588083
0.548133
0.505035
0.464354
0.426246
0.3915
0.360034
0.726541
0.632369
0.613725
0.57129
0.534021
0.493204
0.45437
0.417789
0.384264
0.353714
0.69693
0.606486
0.590774
0.55195
0.517753
0.479555
0.442846
0.408021
0.375908
0.346402
0.663702
0.577435
0.56497
0.530175
0.499416
0.464159
0.429838
0.396989
0.366469
0.338125
0.627092
0.54542
0.536475
0.506092
0.47911
0.447093
0.415408
0.384741
0.355989
0.328913
0.587358
0.510664
0.505471
0.479839
0.456942
0.428442
0.399623
0.371331
0.344514
0.3188
0.544777
0.473407
0.472152
0.45157
0.433031
0.4083
0.382558
0.356819
0.332093
0.307821
0.499646
0.433909
0.436729
0.421447
0.407503
0.386766
0.364293
0.341266
0.318777
0.296016
0.452274
0.39244
0.399424
0.389643
0.380494
0.363946
0.344911
0.324739
0.304621
0.283426
0.402987
0.349284
0.360471
0.35634
0.352145
0.339951
0.3245
0.307306
0.289678
0.270097
0.352118
0.304734
0.320113
0.321727
0.322603
0.314897
0.303154
0.289038
0.274006
0.256086
0.300008
0.259089
0.278599
0.286002
0.292022
0.288904
0.280967
0.27001
0.25766
0.241446
0.247001
0.212653
0.236185
0.249365
0.26056
0.262096
0.258039
0.250295
0.240686
0.226231
0.193443
0.16573
0.19313
0.212022
0.228377
0.2346
0.234471
0.229967
0.223107
0.210587
0.139677
0.118627
0.149697
0.174182
0.195637
0.206544
0.210369
0.209098
0.205012
0.195066
0.0860407
0.071641
0.106144
0.136054
0.162504
0.17806
0.185838
0.187791
0.186736
0.181139
0.0328636
0.0250673
0.0627295
0.097848
0.129145
0.149278
0.160987
0.166159
0.167731
0.166575
-0.0195321
-0.0208123
0.0197054
0.059772
0.095724
0.120329
0.135914
0.14432
0.148341
0.150979
-0.0708329
-0.0657319
-0.0226833
0.0220315
0.0624038
0.0913437
0.110724
0.122365
0.128835
0.134633
-0.120773
-0.109424
-0.0641965
-0.0151732
0.0293447
0.0624518
0.0855204
0.10036
0.109314
0.117877
-0.169196
-0.151568
-0.104616
-0.0516458
-0.0032973
0.033779
0.0604063
0.0783776
0.0898134
0.100909
-0.215648
-0.192038
-0.143811
-0.0871822
-0.0353691
0.00544742
0.0354825
0.0564954
0.0703807
0.0838323
-0.259962
-0.23063
-0.181556
-0.121595
-0.0667221
-0.0224249
0.0108455
0.0347921
0.0510753
0.0667273
-0.301973
-0.267209
-0.217287
-0.154977
-0.0972197
-0.049724
-0.0134118
0.0133439
0.0319574
0.0496705
-0.341506
-0.301612
-0.251207
-0.186883
-0.126725
-0.0763424
-0.0372014
-0.00777646
0.0130836
0.0327301
-0.378415
-0.333689
-0.283173
-0.217203
-0.155112
-0.102175
-0.0604411
-0.0285007
-0.00549315
0.0159661
-0.412584
-0.363334
-0.313021
-0.245861
-0.18227
-0.127126
-0.0830513
-0.0487652
-0.0237231
-0.000567912
-0.443926
-0.39048
-0.340641
-0.272753
-0.208099
-0.151141
-0.104928
-0.0685063
-0.041563
-0.0168242
-0.472384
-0.415086
-0.365961
-0.297785
-0.232504
-0.174097
-0.126079
-0.0876405
-0.0589616
-0.0327645
-0.49793
-0.437136
-0.388933
-0.320883
-0.255405
-0.195923
-0.146392
-0.10631
-0.0757288
-0.0483828
-0.520559
-0.456641
-0.40953
-0.341993
-0.276737
-0.216563
-0.1658
-0.124266
-0.0919483
-0.0637412
-0.540299
-0.473637
-0.427754
-0.361083
-0.296445
-0.235962
-0.184265
-0.141482
-0.107685
-0.0786602
-0.557199
-0.488182
-0.443629
-0.378137
-0.314489
-0.254073
-0.201751
-0.157949
-0.122865
-0.0930369
-0.571333
-0.500355
-0.457202
-0.393163
-0.330842
-0.270858
-0.218221
-0.173641
-0.137433
-0.106896
-0.582797
-0.510257
-0.468544
-0.406188
-0.345496
-0.286289
-0.233643
-0.188529
-0.151364
-0.120252
-0.591704
-0.518003
-0.477742
-0.417256
-0.358455
-0.300347
-0.247993
-0.202589
-0.164637
-0.133096
-0.598188
-0.523722
-0.484907
-0.426434
-0.369739
-0.313026
-0.261251
-0.215803
-0.177239
-0.145414
-0.602392
-0.527556
-0.49016
-0.433802
-0.379385
-0.324329
-0.273406
-0.228157
-0.189152
-0.157193
-0.604474
-0.529654
-0.493638
-0.43946
-0.387443
-0.33427
-0.284452
-0.239642
-0.200366
-0.168425
-0.6046
-0.530171
-0.495488
-0.44352
-0.393981
-0.342875
-0.294392
-0.25025
-0.210871
-0.179109
-0.60294
-0.529264
-0.495863
-0.446105
-0.399076
-0.350182
-0.303234
-0.259979
-0.220659
-0.189245
-0.599668
-0.52709
-0.494919
-0.447348
-0.402822
-0.356238
-0.310995
-0.26883
-0.229726
-0.198839
-0.594959
-0.523806
-0.492815
-0.447388
-0.405322
-0.361104
-0.3177
-0.276809
-0.238069
-0.207899
-0.588984
-0.519561
-0.489706
-0.446367
-0.406687
-0.36485
-0.323382
-0.283925
-0.245687
-0.216436
-0.581911
-0.514499
-0.485742
-0.444428
-0.407036
-0.367556
-0.328083
-0.290191
-0.252583
-0.224461
-0.573901
-0.508756
-0.481069
-0.441712
-0.406491
-0.369308
-0.331852
-0.295625
-0.258763
-0.23198
-0.565106
-0.502458
-0.475822
-0.438352
-0.405176
-0.370202
-0.334748
-0.300247
-0.264239
-0.23899
-0.555669
-0.495721
-0.470124
-0.434477
-0.403213
-0.370334
-0.336836
-0.30408
-0.269029
-0.24547
-0.545723
-0.488648
-0.464087
-0.430204
-0.400719
-0.369805
-0.33819
-0.307151
-0.273161
-0.251364
-0.535387
-0.481334
-0.457813
-0.42564
-0.397806
-0.368714
-0.338885
-0.309485
-0.276676
-0.256563
-0.524771
-0.47386
-0.451388
-0.420878
-0.394574
-0.367156
-0.339006
-0.311109
-0.279626
-0.260872
-0.51397
-0.466297
-0.444886
-0.415998
-0.391116
-0.365224
-0.338636
-0.312048
-0.282087
-0.263981
-0.50307
-0.458704
-0.438368
-0.411068
-0.387509
-0.362999
-0.337858
-0.312327
-0.284168
-0.265522
-0.492144
-0.451134
-0.431884
-0.406143
-0.383821
-0.360556
-0.336751
-0.311964
-0.286001
-0.265051
-0.481258
-0.443629
-0.425476
-0.401264
-0.380103
-0.357962
-0.335388
-0.31099
-0.287576
-0.259772
-0.470467
-0.436224
-0.419172
-0.396462
-0.376398
-0.355273
-0.333837
-0.309523
-0.288968
-0.240207
-0.459819
-0.42895
-0.412998
-0.39176
-0.372734
-0.352538
-0.332163
-0.307774
-0.290721
-0.233108
-0.44936
-0.421831
-0.406971
-0.387174
-0.369133
-0.349792
-0.330409
-0.306016
-0.292107
-0.232277
-0.439128
-0.414891
-0.401107
-0.382712
-0.365607
-0.347063
-0.328583
-0.304329
-0.29274
-0.232251
-0.429162
-0.408151
-0.395417
-0.378381
-0.362162
-0.344364
-0.326684
-0.302701
-0.29269
-0.232341
-0.419498
-0.401631
-0.389914
-0.374186
-0.358803
-0.341705
-0.324719
-0.301125
-0.292109
-0.232853
-0.410174
-0.395354
-0.384612
-0.370133
-0.355535
-0.339093
-0.322702
-0.299601
-0.291105
-0.23383
-0.401233
-0.389341
-0.379526
-0.36623
-0.352363
-0.336536
-0.320651
-0.298132
-0.289759
-0.235177
-0.39272
-0.383613
-0.374674
-0.36249
-0.349296
-0.334042
-0.318587
-0.296713
-0.288153
-0.2368
-0.384682
-0.378196
-0.370076
-0.358926
-0.34635
-0.331623
-0.316533
-0.295345
-0.286372
-0.238618
-0.377102
-0.37317
-0.365759
-0.355559
-0.343542
-0.329296
-0.314517
-0.294026
-0.284495
-0.24055
-0.370117
-0.368499
-0.361747
-0.352412
-0.340895
-0.327081
-0.312571
-0.292763
-0.282596
-0.242514
-0.363752
-0.36423
-0.358076
-0.349512
-0.338435
-0.325003
-0.310726
-0.291565
-0.280744
-0.244435
-0.358047
-0.360406
-0.354775
-0.346887
-0.336193
-0.323089
-0.309018
-0.290446
-0.278999
-0.246247
-0.353051
-0.357058
-0.351874
-0.344566
-0.334196
-0.321369
-0.307485
-0.289421
-0.277414
-0.247894
-0.34881
-0.354215
-0.349403
-0.342578
-0.332473
-0.319881
-0.306173
-0.288496
-0.276035
-0.24933
-0.345364
-0.351904
-0.347389
-0.340951
-0.331056
-0.318663
-0.305106
-0.287683
-0.274901
-0.25052
-0.342747
-0.35015
-0.345856
-0.339709
-0.329969
-0.317722
-0.304172
-0.28713
-0.274042
-0.251435
-0.340987
-0.348969
-0.344824
-0.338869
-0.329232
-0.317084
-0.30355
-0.286766
-0.273438
-0.252053
-0.340102
-0.348376
-0.344304
-0.338446
-0.32886
-0.316762
-0.303245
-0.286608
-0.273105
-0.252364
-0.244973
-0.238026
-0.230576
-0.222926
-0.214927
-0.206582
-0.197912
-0.188919
-0.17961
-0.169993
-0.16008
-0.149885
-0.139431
-0.128743
-0.117857
-0.106816
-0.0956751
-0.0844996
-0.0733859
-0.062399
-0.0517526
-0.0413529
-0.0318832
-0.0223302
-0.0153337
-0.00603505
-0.00441379
0.00797595
-0.00323484
0.0229855
-0.245499
-0.238427
-0.230889
-0.223215
-0.215197
-0.206837
-0.198156
-0.189156
-0.179842
-0.170221
-0.160304
-0.150107
-0.13965
-0.128961
-0.118073
-0.10703
-0.095887
-0.084708
-0.0735898
-0.0625969
-0.0519432
-0.0415345
-0.0320539
-0.0224905
-0.0154769
-0.006173
-0.00451749
0.00785077
-0.00326906
0.022834
-0.246541
-0.239222
-0.231511
-0.223789
-0.215733
-0.20734
-0.198638
-0.189623
-0.180298
-0.170668
-0.160745
-0.150544
-0.140083
-0.129391
-0.1185
-0.107453
-0.0963048
-0.0851192
-0.0739922
-0.0629876
-0.0523195
-0.0418934
-0.0323914
-0.0228075
-0.0157604
-0.00644608
-0.00472278
0.00760279
-0.00333663
0.0225335
-0.248078
-0.240402
-0.232433
-0.224637
-0.216524
-0.208083
-0.199348
-0.19031
-0.180967
-0.171325
-0.161392
-0.151183
-0.140717
-0.13002
-0.119124
-0.108072
-0.0969172
-0.0857221
-0.0745826
-0.0635613
-0.0528725
-0.0424211
-0.032888
-0.0232743
-0.016178
-0.00684877
-0.00502553
0.00723667
-0.00343585
0.022089
-0.250072
-0.241952
-0.233641
-0.225747
-0.217556
-0.209049
-0.200269
-0.191199
-0.181832
-0.172172
-0.162226
-0.152007
-0.141534
-0.130831
-0.11993
-0.108871
-0.0977079
-0.0865012
-0.0753462
-0.0643039
-0.053589
-0.0431055
-0.0335327
-0.0238809
-0.0167213
-0.00737313
-0.00541981
0.00675909
-0.00356432
0.021508
-0.252468
-0.24385
-0.235115
-0.227097
-0.218809
-0.210217
-0.201379
-0.192267
-0.182869
-0.173187
-0.163224
-0.152994
-0.142512
-0.131802
-0.120894
-0.109829
-0.0986565
-0.0874368
-0.0762642
-0.0651977
-0.0544525
-0.0439315
-0.0343118
-0.0246151
-0.0173793
-0.00800918
-0.00589811
0.00617854
-0.00371901
0.0207997
-0.255193
-0.246063
-0.236829
-0.228663
-0.220259
-0.211565
-0.202654
-0.19349
-0.184054
-0.174343
-0.164361
-0.154116
-0.143624
-0.132907
-0.121994
-0.110921
-0.0997398
-0.0885066
-0.0773152
-0.0662227
-0.0554442
-0.0448816
-0.0352094
-0.0254623
-0.0181396
-0.00874536
-0.00645174
0.00550488
-0.00389649
0.0199755
-0.258181
-0.248543
-0.238747
-0.230411
-0.221876
-0.21306
-0.204063
-0.194838
-0.185355
-0.175611
-0.165606
-0.155346
-0.144844
-0.13412
-0.123201
-0.112123
-0.100933
-0.0896864
-0.0784763
-0.067357
-0.0565436
-0.045937
-0.0362081
-0.0264071
-0.0189884
-0.00956902
-0.0070711
0.00474898
-0.00409303
0.019048
-0.261363
-0.251234
-0.240826
-0.232305
-0.223624
-0.21467
-0.205574
-0.196276
-0.186741
-0.17696
-0.16693
-0.156654
-0.146142
-0.135412
-0.124489
-0.113406
-0.102209
-0.0909513
-0.0797236
-0.068578
-0.0577297
-0.0470782
-0.0372901
-0.027433
-0.0199115
-0.0104669
-0.00774612
0.00392234
-0.00430484
0.0180312
-0.264602
-0.254058
-0.243013
-0.234297
-0.225461
-0.216355
-0.207148
-0.197771
-0.188178
-0.178357
-0.168301
-0.158008
-0.147488
-0.136755
-0.12583
-0.114745
-0.103544
-0.0922769
-0.0810338
-0.0698636
-0.0589814
-0.0482857
-0.0384374
-0.0285238
-0.0208944
-0.0114256
-0.00846661
0.00303667
-0.00452816
0.0169396
-0.267768
-0.256923
-0.245246
-0.236332
-0.227337
-0.218072
-0.208747
-0.199285
-0.189631
-0.179769
-0.169687
-0.159381
-0.148855
-0.138121
-0.127198
-0.116114
-0.104913
-0.0936397
-0.0823843
-0.0711925
-0.0602787
-0.0495408
-0.0396328
-0.0296636
-0.0219232
-0.012432
-0.00922253
0.00210357
-0.0047595
0.0157883
-0.270727
-0.259718
-0.247448
-0.238349
-0.229197
-0.219773
-0.210328
-0.20078
-0.191066
-0.181165
-0.17106
-0.160744
-0.150216
-0.139486
-0.128569
-0.117491
-0.106293
-0.0950183
-0.0837546
-0.0725451
-0.0616031
-0.050826
-0.0408601
-0.0308376
-0.0229845
-0.0134737
-0.0100044
0.00113423
-0.00499565
0.0145921
-0.273339
-0.262318
-0.249533
-0.240274
-0.230978
-0.221405
-0.211846
-0.202216
-0.192447
-0.182512
-0.172391
-0.162071
-0.151548
-0.140826
-0.129921
-0.118855
-0.107665
-0.0963935
-0.0851265
-0.0739038
-0.0629379
-0.0521257
-0.0421047
-0.0320322
-0.0240662
-0.0145394
-0.0108033
0.000139131
-0.00523389
0.0133657
-0.275467
-0.264582
-0.251406
-0.242028
-0.23261
-0.222911
-0.213256
-0.203557
-0.193744
-0.183785
-0.173657
-0.16334
-0.152829
-0.142124
-0.131237
-0.120187
-0.109012
-0.0977494
-0.0864843
-0.0752537
-0.0642687
-0.0534262
-0.0433537
-0.0332355
-0.0251574
-0.0156185
-0.0116113
-0.000872034
-0.00547195
0.0121231
-0.276984
-0.266363
-0.252961
-0.243524
-0.234021
-0.224236
-0.214514
-0.204768
-0.194927
-0.184959
-0.174835
-0.164533
-0.154042
-0.143361
-0.1325
-0.121474
-0.11032
-0.0990721
-0.0878148
-0.0765819
-0.065583
-0.0547156
-0.0445957
-0.0344365
-0.0262483
-0.0167017
-0.0124212
-0.00189033
-0.00570805
0.0108773
-0.277805
-0.267524
-0.254099
-0.24467
-0.235133
-0.225319
-0.215571
-0.205808
-0.195965
-0.186007
-0.175903
-0.165628
-0.15517
-0.144523
-0.133695
-0.122702
-0.111575
-0.100349
-0.0891059
-0.0778769
-0.0668698
-0.0559833
-0.0458206
-0.0356258
-0.0273302
-0.0177806
-0.0132265
-0.00290776
-0.00594085
0.00964041
-0.277863
-0.267918
-0.254696
-0.245343
-0.235844
-0.226085
-0.216374
-0.206641
-0.196831
-0.186911
-0.176848
-0.166617
-0.156205
-0.145604
-0.13482
-0.123867
-0.112775
-0.101578
-0.0903549
-0.0791358
-0.068126
-0.0572259
-0.0470249
-0.0367998
-0.0283993
-0.0188512
-0.0140241
-0.00391909
-0.00616991
0.00842237
-0.276622
-0.267114
-0.25461
-0.245513
-0.236183
-0.226592
-0.216989
-0.207333
-0.197589
-0.187729
-0.177722
-0.167548
-0.15719
-0.146641
-0.135906
-0.124998
-0.113946
-0.10278
-0.0915806
-0.0803746
-0.069365
-0.0584546
-0.0482176
-0.0379651
-0.029461
-0.0199163
-0.0148165
-0.0049238
-0.00639617
0.00723024
-0.275342
-0.265808
-0.254254
-0.245337
-0.236189
-0.226823
-0.21737
-0.207824
-0.198172
-0.188392
-0.178459
-0.168354
-0.158062
-0.147577
-0.136901
-0.126045
-0.11504
-0.103913
-0.0927446
-0.0815583
-0.0705556
-0.0596413
-0.0493743
-0.0391005
-0.0304982
-0.0209613
-0.015594
-0.00591224
-0.00661982
0.00607534
-0.2748
-0.261818
-0.25111
-0.242421
-0.23381
-0.225069
-0.216107
-0.206945
-0.197601
-0.188071
-0.178349
-0.168424
-0.158289
-0.147942
-0.137388
-0.12664
-0.115729
-0.104683
-0.0935815
-0.0824492
-0.0714843
-0.0605976
-0.0503284
-0.0400654
-0.0313896
-0.0218918
-0.0162851
-0.0068256
-0.00683245
0.00499191
-0.244113
-0.253134
-0.249867
-0.241766
-0.233433
-0.224881
-0.216019
-0.206936
-0.197663
-0.188201
-0.178544
-0.168683
-0.158612
-0.148326
-0.137832
-0.12714
-0.116281
-0.105281
-0.0942188
-0.0831197
-0.0721748
-0.0613101
-0.0510304
-0.0407916
-0.0320446
-0.0226156
-0.0167981
-0.00756296
-0.00700502
0.00407595
-0.239483
-0.244844
-0.243066
-0.236121
-0.22874
-0.220957
-0.212694
-0.204099
-0.19524
-0.186134
-0.17679
-0.167209
-0.157392
-0.14734
-0.137062
-0.126572
-0.1159
-0.105075
-0.094173
-0.0832227
-0.0724066
-0.0616634
-0.0514653
-0.0413257
-0.0325764
-0.0232599
-0.0172661
-0.00828349
-0.00713509
0.00319286
-0.233655
-0.23704
-0.235731
-0.229704
-0.223092
-0.216005
-0.208345
-0.200272
-0.19187
-0.183171
-0.174193
-0.164946
-0.155437
-0.145673
-0.135665
-0.12543
-0.115
-0.104405
-0.0937194
-0.0829742
-0.0723417
-0.0617754
-0.0517094
-0.0417197
-0.0330075
-0.0238464
-0.017693
-0.00900382
-0.00723831
0.00228848
-0.228224
-0.229815
-0.228536
-0.223291
-0.217336
-0.21087
-0.203786
-0.196228
-0.188287
-0.180003
-0.171404
-0.162505
-0.153318
-0.143855
-0.134132
-0.124165
-0.11399
-0.103637
-0.0931781
-0.0826489
-0.0722104
-0.0618316
-0.0519066
-0.0420771
-0.0334088
-0.0244134
-0.018103
-0.00971705
-0.00733171
0.00138206
-0.222622
-0.222666
-0.221196
-0.216632
-0.211295
-0.205422
-0.198915
-0.191886
-0.184429
-0.176588
-0.168393
-0.159866
-0.151026
-0.141887
-0.132467
-0.122787
-0.112882
-0.102786
-0.0925669
-0.0822655
-0.0720309
-0.0618485
-0.0520722
-0.0424099
-0.0337908
-0.0249664
-0.0185021
-0.010422
-0.00742023
0.000482083
-0.216221
-0.215358
-0.213615
-0.209634
-0.204889
-0.199591
-0.193658
-0.187175
-0.180224
-0.172851
-0.165089
-0.156965
-0.148498
-0.139708
-0.130617
-0.121247
-0.111633
-0.101813
-0.0918521
-0.0817945
-0.0717787
-0.0618059
-0.0521904
-0.0427055
-0.0341451
-0.0254979
-0.0188872
-0.0111138
-0.0075053
-0.000402278
-0.208971
-0.207774
-0.205795
-0.202317
-0.198146
-0.193405
-0.188039
-0.182107
-0.175678
-0.168794
-0.16149
-0.153792
-0.145725
-0.137309
-0.12857
-0.119532
-0.110232
-0.100707
-0.0910228
-0.081226
-0.0714447
-0.0616955
-0.0522537
-0.0429567
-0.0344661
-0.0260021
-0.0192555
-0.0117864
-0.00758925
-0.00126019
-0.200974
-0.199845
-0.197737
-0.194713
-0.191101
-0.186905
-0.182095
-0.176714
-0.170816
-0.164437
-0.157609
-0.15036
-0.142714
-0.134696
-0.126331
-0.117646
-0.108679
-0.0994691
-0.090079
-0.0805592
-0.0710275
-0.0615151
-0.05226
-0.0431607
-0.0347514
-0.0264748
-0.0196058
-0.0124339
-0.00767513
-0.00208041
-0.192351
-0.191552
-0.18945
-0.186855
-0.183786
-0.180128
-0.175863
-0.17103
-0.165667
-0.159803
-0.153465
-0.146681
-0.139477
-0.131876
-0.123905
-0.115593
-0.106978
-0.0981008
-0.0890218
-0.0797945
-0.0705268
-0.0612638
-0.052208
-0.043315
-0.0349992
-0.0269125
-0.0199369
-0.0130506
-0.0077659
-0.0028522
-0.183243
-0.182922
-0.18096
-0.178784
-0.176243
-0.173114
-0.169384
-0.165091
-0.160263
-0.154918
-0.14908
-0.142775
-0.136027
-0.128859
-0.1213
-0.11338
-0.105134
-0.0966056
-0.0878533
-0.0789329
-0.0699431
-0.0609411
-0.0520967
-0.0434178
-0.0352079
-0.0273118
-0.0202481
-0.0136311
-0.00786377
-0.00356617
-0.173801
-0.174019
-0.172313
-0.170553
-0.168522
-0.16591
-0.162703
-0.158941
-0.154641
-0.149815
-0.144482
-0.138664
-0.132383
-0.125663
-0.11853
-0.111015
-0.103154
-0.094989
-0.0865777
-0.0779775
-0.0692781
-0.0605477
-0.0519262
-0.0434682
-0.0353765
-0.0276702
-0.0205387
-0.014171
-0.00797031
-0.00421416
-0.164173
-0.164932
-0.163567
-0.162223
-0.160678
-0.158569
-0.155871
-0.152626
-0.148845
-0.144533
-0.139705
-0.134377
-0.12857
-0.122306
-0.11561
-0.108512
-0.101048
-0.0932596
-0.0852016
-0.0769329
-0.0685352
-0.0600857
-0.0516975
-0.0434659
-0.0355047
-0.0279858
-0.0208082
-0.0146665
-0.00808654
-0.00478958
-0.154502
-0.15576
-0.154791
-0.153857
-0.152772
-0.151147
-0.148941
-0.146195
-0.142919
-0.139113
-0.134783
-0.129945
-0.124614
-0.118811
-0.112559
-0.105887
-0.0988298
-0.0914278
-0.0837331
-0.0758054
-0.0677192
-0.0595583
-0.0514127
-0.0434118
-0.0355927
-0.0282573
-0.0210561
-0.0151148
-0.0082128
-0.00528783
-0.144918
-0.146608
-0.146059
-0.145524
-0.144869
-0.143701
-0.141965
-0.139699
-0.136912
-0.133597
-0.129757
-0.125402
-0.120545
-0.115204
-0.1094
-0.103159
-0.0965146
-0.0895059
-0.0821822
-0.0746029
-0.0668357
-0.0589695
-0.0510746
-0.0433072
-0.0356411
-0.0284843
-0.0212821
-0.015514
-0.00834862
-0.00570655
-0.135533
-0.137574
-0.137445
-0.13729
-0.13703
-0.13629
-0.134999
-0.13319
-0.13087
-0.128029
-0.124665
-0.120784
-0.116395
-0.111513
-0.106156
-0.100348
-0.094119
-0.0875078
-0.0805601
-0.0733341
-0.0658917
-0.0583245
-0.0506866
-0.0431544
-0.0356511
-0.028667
-0.0214859
-0.0158631
-0.00849268
-0.0060457
-0.126438
-0.12875
-0.129018
-0.129218
-0.129319
-0.128972
-0.128096
-0.126718
-0.124841
-0.122453
-0.119549
-0.116128
-0.112197
-0.107767
-0.102852
-0.0974743
-0.0916614
-0.0854487
-0.0788791
-0.0720091
-0.0648947
-0.057629
-0.0502527
-0.0429562
-0.035624
-0.0288063
-0.0216672
-0.0161623
-0.00864291
-0.00630756
-0.117706
-0.120212
-0.120845
-0.121368
-0.121792
-0.121802
-0.12131
-0.120332
-0.118872
-0.116915
-0.114449
-0.111471
-0.107984
-0.103995
-0.0995146
-0.0945619
-0.0891611
-0.0833449
-0.0771527
-0.0706383
-0.0638532
-0.0568894
-0.0497776
-0.042716
-0.0355617
-0.0289035
-0.0218254
-0.0164127
-0.00879664
-0.00649653
-0.109393
-0.112026
-0.11298
-0.113793
-0.114503
-0.114832
-0.11469
-0.114083
-0.113011
-0.111457
-0.109406
-0.106851
-0.103791
-0.100228
-0.0961712
-0.0916342
-0.0866385
-0.0812135
-0.0753949
-0.0692337
-0.0627763
-0.0561129
-0.0492664
-0.0424374
-0.0354662
-0.0289608
-0.0219604
-0.0166164
-0.00895077
-0.00661883
-0.101537
-0.104243
-0.105473
-0.106542
-0.107502
-0.108112
-0.108284
-0.108015
-0.107301
-0.106122
-0.104461
-0.102306
-0.0996525
-0.0964989
-0.0928499
-0.0887163
-0.0841153
-0.079073
-0.0736214
-0.0678076
-0.0616741
-0.0553073
-0.0487248
-0.042125
-0.03534
-0.0289804
-0.0220717
-0.0167762
-0.00910198
-0.00668213
-0.0941704
-0.0969058
-0.0983675
-0.0996563
-0.100831
-0.101688
-0.102139
-0.102175
-0.101787
-0.100954
-0.0996548
-0.0978746
-0.0956044
-0.0928394
-0.0895804
-0.0858343
-0.0816145
-0.0769433
-0.0718487
-0.066374
-0.0605575
-0.0544814
-0.0481592
-0.0417838
-0.0351859
-0.0289656
-0.0221593
-0.0168955
-0.00924702
-0.00669507
-0.0873151
-0.0900472
-0.0917001
-0.0931763
-0.0945346
-0.0956031
-0.0962993
-0.0966072
-0.0965134
-0.095995
-0.0950282
-0.0935952
-0.0916832
-0.0892838
-0.0863937
-0.0830161
-0.0791606
-0.0748455
-0.070095
-0.064948
-0.0594391
-0.0536451
-0.0475771
-0.0414197
-0.0350074
-0.0289198
-0.0222237
-0.0169783
-0.00938293
-0.00666677
-0.0809922
-0.0836972
-0.085505
-0.0871381
-0.0886504
-0.0898989
-0.0908074
-0.0913545
-0.0915228
-0.0912875
-0.0906232
-0.0895086
-0.0879274
-0.0858676
-0.0833225
-0.0802915
-0.0767803
-0.0728032
-0.0683804
-0.0635466
-0.0583326
-0.0528096
-0.0469871
-0.0410394
-0.0348091
-0.0288472
-0.0222657
-0.0170289
-0.00950726
-0.00660642
-0.0752217
-0.0778833
-0.0798143
-0.0815773
-0.083217
-0.0846164
-0.0857062
-0.086461
-0.0868599
-0.0868764
-0.0864834
-0.0856568
-0.0843769
-0.0826287
-0.0804021
-0.0776927
-0.0745025
-0.0708419
-0.0667272
-0.0621888
-0.0572538
-0.0519879
-0.0463993
-0.040651
-0.0345961
-0.0287528
-0.022287
-0.017052
-0.00961825
-0.00652281
-0.0700253
-0.072633
-0.0746606
-0.0765292
-0.0782727
-0.0797967
-0.0810391
-0.0819718
-0.0825707
-0.0828078
-0.0826542
-0.0820839
-0.0810743
-0.0796076
-0.0776702
-0.0752545
-0.0723589
-0.0689898
-0.0651602
-0.0608958
-0.0562208
-0.0511947
-0.0458253
-0.0402637
-0.034375
-0.0286423
-0.0222901
-0.0170526
-0.009715
-0.00642409
-0.0654276
-0.0679764
-0.0700779
-0.0720311
-0.0738579
-0.0754829
-0.0768515
-0.0779336
-0.0787027