/*--------------------------------*- C++ -*----------------------------------*\
  =========                 |
  \\      /  F ield         | OpenFOAM: The Open Source CFD Toolbox
   \\    /   O peration     | Website:  https://openfoam.org
    \\  /    A nd           | Version:  9
     \\/     M anipulation  |
\*---------------------------------------------------------------------------*/
FoamFile
{
    format      ascii;
    class       volVectorField;
    location    "22.7";
    object      U;
}
// * * * * * * * * * * * * * * * * * * * * * * * * * * * * * * * * * * * * * //

dimensions      [0 1 -1 0 0 0 0];

internalField   nonuniform List<vector> 
8500
(
(-0.00654053 0.00261282 0)
(-0.0293482 0.00450355 -6.85102e-23)
(-0.0616307 0.00497207 -3.76681e-24)
(-0.089685 0.00481317 7.13519e-37)
(-0.117384 0.00450508 -1.0495e-23)
(-0.138122 0.00391272 8.73865e-24)
(-0.162445 0.00388043 -5.91392e-23)
(-0.17376 0.00258993 -9.16724e-23)
(-0.194708 0.00366462 -8.37878e-23)
(-0.202578 0.00142531 -4.35283e-24)
(-0.00683469 0.00778545 1.97926e-22)
(-0.0296011 0.0134351 6.40089e-23)
(-0.0614956 0.01484 2.56869e-22)
(-0.0889808 0.0143677 0)
(-0.116081 0.0134443 0)
(-0.135811 0.0116749 1.75973e-23)
(-0.159531 0.0115691 4.44463e-23)
(-0.169055 0.00770172 9.78464e-23)
(-0.18941 0.0109451 6.30628e-23)
(-0.194909 0.00412253 1.74199e-23)
(-0.00741472 0.0128012 -1.75889e-22)
(-0.0301032 0.0221417 0)
(-0.0612309 0.0244798 -2.4173e-22)
(-0.0875827 0.0237069 0)
(-0.11349 0.022169 -4.20384e-23)
(-0.131204 0.0192495 3.50033e-23)
(-0.153721 0.0190346 0)
(-0.15963 0.0126192 0)
(-0.178854 0.018086 0)
(-0.179666 0.00637774 0)
(-0.00826463 0.0175626 3.53539e-22)
(-0.0308478 0.0304793 -2.57008e-22)
(-0.0608465 0.0337423 -6.06113e-23)
(-0.0855109 0.0326882 -3.77862e-22)
(-0.109638 0.0305311 -3.79247e-22)
(-0.124328 0.0265173 3.52943e-23)
(-0.145043 0.0261062 -2.94689e-23)
(-0.145438 0.0172428 3.4103e-22)
(-0.163086 0.0250161 -1.26977e-27)
(-0.156952 0.00796393 3.44086e-22)
(-0.0093619 0.0219822 -3.53539e-22)
(-0.0318244 0.0383124 -3.3211e-22)
(-0.0603559 0.042482 9.11747e-23)
(-0.0827938 0.0411701 5.04264e-22)
(-0.104558 0.0383761 -4.28557e-23)
(-0.115225 0.0333671 5.612e-22)
(-0.13352 0.03258 0)
(-0.12639 0.0215071 -3.90559e-22)
(-0.142085 0.0316878 -8.32534e-23)
(-0.126693 0.00878 -4.78336e-22)
(-0.0106791 0.0259861 8.90984e-23)
(-0.0330196 0.0455171 5.52369e-22)
(-0.0597734 0.0505585 -4.26865e-22)
(-0.0794659 0.0490142 -3.02573e-25)
(-0.0982788 0.045543 -3.82276e-22)
(-0.103949 0.0396969 1.41728e-22)
(-0.119147 0.0382072 -5.91976e-23)
(-0.102333 0.0253787 4.88448e-22)
(-0.11571 0.0380464 -8.33829e-23)
(-0.0883542 0.00897359 2.73901e-22)
(-0.0121858 0.0295168 4.46345e-23)
(-0.0344167 0.051984 0)
(-0.0591108 0.0578375 -1.57583e-24)
(-0.0755629 0.0560864 0)
(-0.0908098 0.0518676 6.78051e-22)
(-0.0905536 0.0454161 -5.61688e-22)
(-0.101856 0.0426873 0)
(-0.0730518 0.0288648 -1.15201e-24)
(-0.0836764 0.0438748 0)
(-0.0406171 0.00917577 0)
(-0.0138508 0.0325344 -7.19563e-22)
(-0.0359961 0.0576199 -7.43163e-23)
(-0.0583722 0.0641937 5.50671e-22)
(-0.0711139 0.0622573 1.02057e-22)
(-0.0821241 0.0571878 -6.81925e-22)
(-0.0750741 0.0504499 -4.20697e-22)
(-0.0814462 0.045661 -5.94858e-23)
(-0.0382856 0.0320642 4.84891e-22)
(-0.0455551 0.0484349 -8.36813e-23)
(0.0189248 0.0104608 6.93229e-23)
(-0.0156443 0.0350181 8.10047e-22)
(-0.0377339 0.0623503 -5.97323e-22)
(-0.0575486 0.0695141 -1.84533e-22)
(-0.0661294 0.0674023 1.01803e-22)
(-0.0721306 0.0613516 6.81847e-22)
(-0.0574964 0.0547554 6.33939e-22)
(-0.0574525 0.0467189 -5.96158e-23)
(0.00233734 0.0351542 9.7033e-23)
(-0.00116761 0.0509596 -1.67747e-22)
(0.0943577 0.0133275 7.05784e-23)
(-0.0175396 0.0369654 7.27596e-22)
(-0.0396005 0.0661198 5.97645e-22)
(-0.0566098 0.0737018 -8.65793e-22)
(-0.0605847 0.0714022 -1.02113e-22)
(-0.0606361 0.0642176 0)
(-0.0377149 0.0583385 0)
(-0.0290926 0.0456709 0)
(0.0498926 0.0381681 -1.53755e-21)
(0.0492152 0.0505879 -7.00931e-22)
(0.189405 0.0183495 5.38143e-22)
(-0.0195146 0.0383911 -1.45948e-21)
(-0.0415582 0.0688929 0)
(-0.0554964 0.07668 1.98197e-21)
(-0.0544016 0.0741466 8.19861e-22)
(-0.0472983 0.0656597 8.53203e-23)
(-0.0153292 0.0611317 0)
(0.00463385 0.0427431 -9.73828e-22)
(0.105724 0.0414789 7.67378e-22)
(0.10737 0.0459688 7.00921e-22)
(0.305684 0.0260368 -5.38122e-22)
(-0.0215527 0.0393251 8.2376e-22)
(-0.0435565 0.070654 -7.54115e-23)
(-0.0541071 0.0783962 -9.9273e-22)
(-0.0474242 0.0755423 -9.22819e-22)
(-0.0316846 0.0656809 0)
(0.0105557 0.0628726 1.1291e-21)
(0.045468 0.0384316 5.87139e-25)
(0.170645 0.0458874 6.62524e-22)
(0.178719 0.037405 7.866e-22)
(0.441555 0.0354831 -5.33849e-22)
(-0.0236421 0.0398084 4.37377e-26)
(-0.0455271 0.0714059 1.29227e-21)
(-0.0522831 0.0788243 -1.24869e-22)
(-0.0393293 0.0754978 7.20318e-22)
(-0.0132718 0.0643802 4.30308e-22)
(0.0411591 0.0633409 2.8661e-22)
(0.0962305 0.0335978 9.71449e-22)
(0.245088 0.0512105 -8.61036e-22)
(0.271622 0.0289271 -5.35265e-22)
(0.590814 0.0454785 3.93021e-22)
(-0.0257751 0.0398901 0)
(-0.0473768 0.0711682 -1.06436e-21)
(-0.0498088 0.0779728 -1.25366e-22)
(-0.0295979 0.0739504 1.61398e-24)
(0.00877857 0.0618392 6.8657e-22)
(0.0780135 0.0624439 -9.87111e-22)
(0.160091 0.0298643 9.65895e-22)
(0.329668 0.0559376 -9.84727e-23)
(0.392469 0.0264599 0)
(0.743034 0.0560301 0)
(-0.0279461 0.0396229 9.35108e-23)
(-0.0489773 0.0699759 -1.22807e-21)
(-0.0463901 0.0758916 0)
(-0.0175305 0.0709458 -1.01797e-22)
(0.0356851 0.0582082 8.57178e-23)
(0.123261 0.0600691 0)
(0.239416 0.0292691 -9.6776e-22)
(0.425925 0.0589789 -7.62088e-22)
(0.538734 0.0332671 1.65872e-22)
(0.886009 0.0678923 -1.39396e-22)
(-0.0301464 0.0390548 -9.39527e-23)
(-0.0501605 0.0678826 1.30519e-21)
(-0.0416113 0.0726527 0)
(-0.00221601 0.0666475 -9.29804e-22)
(0.0690239 0.053823 8.57588e-23)
(0.179601 0.0565563 -1.13069e-21)
(0.334692 0.0331259 -1.17152e-22)
(0.535737 0.0617173 8.60124e-22)
(0.697217 0.0479477 0)
(1.00924 0.0808059 1.0619e-21)
(-0.0323552 0.038224 -1.42838e-21)
(-0.0507144 0.0649541 -7.75951e-23)
(-0.0349153 0.0683508 -1.25813e-22)
(0.0175245 0.0613204 1.04066e-22)
(0.110774 0.0492767 -1.36922e-21)
(0.24989 0.0531769 1.13067e-21)
(0.444085 0.0414266 9.51655e-22)
(0.657838 0.0672127 7.61922e-22)
(0.850033 0.0667325 1.31584e-21)
(1.10668 0.0933812 -9.29066e-22)
(-0.0345366 0.0371589 1.52291e-21)
(-0.0503701 0.0612577 0)
(-0.0256053 0.0631221 1.14252e-21)
(0.0431486 0.0553185 -1.04344e-22)
(0.163193 0.0453964 2.73755e-21)
(0.336119 0.0519661 0)
(0.563658 0.05346 -9.51635e-22)
(0.785024 0.0770303 -1.91803e-24)
(0.982632 0.0863688 -1.47508e-21)
(1.17732 0.104188 1.33846e-22)
(-0.0366354 0.0358756 0)
(-0.0487968 0.0568614 1.25498e-21)
(-0.0128391 0.0571425 -1.01637e-21)
(0.0763561 0.0491131 0)
(0.228444 0.0432473 -1.36833e-21)
(0.437816 0.0549488 0)
(0.687429 0.0684838 9.36393e-22)
(0.906506 0.0901876 -7.59974e-22)
(1.08776 0.104946 -1.2599e-21)
(1.22411 0.112251 -1.01661e-21)
(-0.0385704 0.0343753 -1.93143e-22)
(-0.0456022 0.0518366 -1.09644e-21)
(0.00437534 0.0506287 0)
(0.119003 0.0433647 0)
(0.307853 0.0440768 0)
(0.551038 0.0630772 -1.39872e-22)
(0.807958 0.0855132 -9.38479e-22)
(1.01308 0.10485 -9.59824e-23)
(1.16486 0.121331 1.25989e-21)
(1.25247 0.116854 1.14361e-21)
(-0.0402321 0.0326483 0)
(-0.0403312 0.0462573 -1.27252e-21)
(0.0271819 0.0438504 0)
(0.172893 0.0390245 0)
(0.400924 0.0490167 0)
(0.668916 0.0758416 1.38971e-22)
(0.918208 0.103195 -1.14683e-21)
(1.09998 0.119673 8.91825e-23)
(1.21766 0.134324 8.99627e-22)
(1.26928 0.11739 9.8274e-22)
(-0.0414964 0.0306901 0)
(-0.032453 0.0401844 1.27251e-21)
(0.0568708 0.0371756 -1.03743e-21)
(0.239336 0.0373494 0)
(0.504592 0.0585503 -1.36593e-21)
(0.783719 0.0917428 0)
(1.01347 0.120347 9.17227e-22)
(1.16654 0.133604 -7.32651e-22)
(1.25186 0.142854 -1.20384e-21)
(1.29357 0.127938 -9.77816e-22)
(-0.0422217 0.0284859 1.61829e-21)
(-0.0213683 0.0336685 0)
(0.0948299 0.0311679 9.08834e-22)
(0.318472 0.0396421 1.06357e-22)
(0.613502 0.0721804 2.73177e-21)
(0.88913 0.109111 0)
(1.09186 0.136271 -8.95511e-22)
(1.21491 0.145618 -1.45353e-21)
(1.27619 0.15099 -1.0094e-21)
(1.30255 0.133974 -5.33499e-24)
(-0.042235 0.0260079 -1.71883e-21)
(-0.0064022 0.026775 8.25214e-23)
(0.142377 0.0266979 1.29278e-22)
(0.408628 0.04671 -1.06928e-22)
(0.721447 0.0886884 -1.36584e-21)
(0.981361 0.126652 1.10102e-21)
(1.15376 0.150567 8.95507e-22)
(1.2492 0.156202 7.20885e-22)
(1.29022 0.15739 1.1524e-21)
(1.3056 0.139751 -1.01833e-21)
(-0.0413451 0.0232277 1.01863e-22)
(0.0132252 0.0196125 1.2403e-21)
(0.20042 0.02495 0)
(0.506245 0.0584235 -7.43595e-22)
(0.823088 0.106736 -8.66286e-23)
(1.05901 0.14355 -1.10102e-21)
(1.20102 0.163292 1.0735e-22)
(1.27208 0.16531 6.04249e-22)
(1.29778 0.16307 0)
(1.30546 0.144773 9.06324e-22)
(-0.0393443 0.0201169 -1.05063e-22)
(0.0383994 0.0124176 -1.32391e-21)
(0.269004 0.0271592 0)
(0.606622 0.073822 9.98769e-23)
(0.914888 0.125279 -8.68532e-23)
(1.12238 0.159408 0)
(1.23584 0.174568 -8.57844e-22)
(1.2865 0.173301 -6.94104e-22)
(1.30059 0.168064 -1.32718e-22)
(1.30214 0.149329 -1.11641e-22)
(-0.0359943 0.0166465 0)
(0.0700456 0.00568238 -1.52556e-21)
(0.346953 0.0341217 1.36806e-22)
(0.705091 0.0916677 -5.22203e-24)
(0.995127 0.143661 -6.81191e-22)
(1.17269 0.174089 -1.2054e-21)
(1.26056 0.184614 9.67547e-22)
(1.29459 0.1804 0)
(1.30007 0.172648 0)
(1.29774 0.153673 0)
(-0.0309998 0.0127964 2.29773e-24)
(0.108974 0.000258155 1.27907e-21)
(0.431883 0.0458281 1.38501e-22)
(0.797955 0.11092 9.63084e-22)
(1.06343 0.161517 5.93894e-22)
(1.21157 0.187608 -1.17773e-22)
(1.27724 0.193651 8.35369e-22)
(1.29811 0.186858 -5.64114e-22)
(1.2974 0.176966 -6.34057e-22)
(1.29216 0.157874 5.09468e-22)
(-0.0239817 0.00857806 7.93843e-22)
(0.15565 -0.00267805 8.93164e-23)
(0.520635 0.061545 -1.10662e-21)
(0.882834 0.13087 -8.67646e-22)
(1.12026 0.178672 0)
(1.24078 0.200065 1.06217e-21)
(1.28767 0.201901 -1.59135e-23)
(1.29833 0.19287 7.26659e-22)
(1.29321 0.181138 4.43389e-22)
(1.2861 0.162021 -4.03808e-22)
(-0.0144724 0.00407161 -1.82708e-21)
(0.209963 -0.00186895 0)
(0.6099 0.0802497 2.22952e-21)
(0.958526 0.151083 7.62257e-22)
(1.16653 0.195064 8.74743e-23)
(1.26195 0.211601 0)
(1.29334 0.209564 -8.12752e-22)
(1.29622 0.198593 6.16378e-22)
(1.28803 0.185245 4.79142e-22)
(1.2796 0.166158 -3.77915e-22)
(-0.00194382 -0.000531053 9.2442e-22)
(0.271117 0.00364007 7.21043e-22)
(0.69675 0.101035 -1.25986e-21)
(1.02468 0.171323 1.13279e-22)
(1.20339 0.210702 0)
(1.27658 0.222369 0)
(1.29538 0.216813 0)
(1.29243 0.204142 -1.21551e-21)
(1.28214 0.189342 -4.79147e-22)
(1.27283 0.1703 3.77898e-22)
(0.0141225 -0.00488298 8.55723e-22)
(0.337704 0.0142061 -7.15294e-22)
(0.778908 0.123257 7.34081e-23)
(1.08148 0.191476 0)
(1.23201 0.225634 6.61705e-22)
(1.28591 0.232522 4.39528e-22)
(1.29469 0.223789 5.04962e-23)
(1.28744 0.209597 -5.3119e-23)
(1.27574 0.19346 1.14793e-22)
(1.26582 0.174458 -4.6418e-23)
(0.0341072 -0.00845483 -9.71282e-22)
(0.407944 0.0295656 9.04783e-23)
(0.85479 0.14649 5.81466e-22)
(1.12941 0.211479 -1.62243e-22)
(1.25355 0.239929 -4.96347e-22)
(1.291 0.2422 -6.24583e-22)
(1.29193 0.230599 4.94056e-23)
(1.28156 0.215013 2.99939e-22)
(1.26892 0.197616 0)
(1.25858 0.178626 -4.13807e-23)
(0.0581764 -0.0105851 -6.29218e-23)
(0.47994 0.0490547 0)
(0.92344 0.170436 6.13876e-24)
(1.1691 0.231278 0)
(1.26904 0.253665 6.45232e-22)
(1.2927 0.251522 -4.79336e-22)
(1.28758 0.237319 0)
(1.27497 0.220417 9.73246e-24)
(1.26177 0.201811 0)
(1.25112 0.182791 0)
(0.0862667 -0.0105824 -1.25764e-22)
(0.551883 0.0719088 8.2163e-22)
(0.984412 0.194875 -6.62803e-22)
(1.20125 0.250816 1.09723e-22)
(1.27943 0.266922 -2.94792e-22)
(1.29168 0.260586 -5.13054e-23)
(1.28199 0.243998 0)
(1.26782 0.225823 2.0777e-22)
(1.25429 0.206042 5.35029e-23)
(1.24344 0.186938 1.53448e-22)
(0.118078 -0.00784792 -5.29536e-22)
(0.622159 0.0974548 -3.31696e-22)
(1.03764 0.219649 -1.09178e-22)
(1.22656 0.270032 4.3822e-22)
(1.28551 0.27977 3.62343e-23)
(1.28847 0.269466 4.6751e-22)
(1.27539 0.250661 0)
(1.26017 0.231229 -2.50745e-22)
(1.24651 0.210293 4.6662e-23)
(1.2355 0.191044 -3.38351e-22)
(0.15311 -0.00198407 -5.29535e-22)
(0.689387 0.12516 3.44821e-22)
(1.0833 0.244633 -4.12583e-24)
(1.24574 0.288868 -5.10172e-22)
(1.28795 0.292271 -2.69658e-22)
(1.28347 0.278214 -2.64191e-23)
(1.26795 0.257316 2.20588e-23)
(1.25206 0.236621 2.79965e-22)
(1.23841 0.214547 -2.33769e-24)
(1.2273 0.195086 1.1009e-22)
(0.190718 0.00715526 -2.72725e-22)
(0.752422 0.154594 0)
(1.12177 0.269722 -2.979e-22)
(1.25942 0.307276 0)
(1.28731 0.304469 -3.39622e-22)
(1.27698 0.286861 2.93089e-23)
(1.25977 0.263955 0)
(1.2435 0.241979 0)
(1.22999 0.218781 0)
(1.21884 0.199037 0)
(0.230162 0.0194891 2.39203e-22)
(0.810354 0.18538 1.15683e-22)
(1.15349 0.294806 2.97901e-22)
(1.26823 0.325219 0)
(1.28403 0.316392 0)
(1.26921 0.295418 -1.22268e-23)
(1.25091 0.270556 4.70663e-23)
(1.23451 0.247278 5.39325e-23)
(1.22124 0.222969 5.00231e-23)
(1.21011 0.202866 -8.29156e-24)
(0.270654 0.0347872 -4.32649e-24)
(0.862544 0.217151 -1.08266e-22)
(1.17891 0.31977 4.96139e-24)
(1.2727 0.342678 5.87659e-24)
(1.27849 0.328055 -8.98635e-24)
(1.26033 0.303874 3.42085e-24)
(1.24141 0.277088 -4.10748e-23)
(1.22507 0.252484 -5.04034e-23)
(1.21215 0.227076 -3.78541e-23)
(1.20113 0.206538 1.53364e-24)
(0.311395 0.0527524 0)
(0.908659 0.249565 -1.09154e-22)
(1.19842 0.344492 -3.37837e-24)
(1.27333 0.359639 6.88334e-24)
(1.27095 0.339455 1.23423e-37)
(1.25043 0.312207 -8.68246e-38)
(1.2313 0.283515 -3.68976e-23)
(1.21519 0.257563 -4.40664e-23)
(1.20271 0.23106 -3.48151e-23)
(1.19193 0.21002 0)
(0.351605 0.0730692 3.13439e-22)
(0.948601 0.282328 8.94986e-23)
(1.21241 0.368858 2.97097e-22)
(1.27052 0.376075 -1.3436e-23)
(1.26166 0.350573 0)
(1.23959 0.320378 1.04783e-23)
(1.22058 0.28979 2.4177e-23)
(1.20486 0.262477 4.73915e-23)
(1.19292 0.234874 2.69387e-23)
(1.1825 0.213289 6.6202e-24)
(0.390542 0.095438 -2.79339e-22)
(0.982373 0.315182 0)
(1.22126 0.392746 -2.80856e-22)
(1.26463 0.391948 0)
(1.25078 0.361375 -2.8486e-23)
(1.22787 0.328339 2.37192e-23)
(1.20926 0.295867 0)
(1.19407 0.267185 0)
(1.18278 0.238476 0)
(1.17278 0.216326 0)
(0.427521 0.119581 5.53789e-22)
(1.01006 0.347886 -3.55665e-22)
(1.22535 0.416031 -6.83558e-23)
(1.25596 0.407215 -2.80668e-22)
(1.23846 0.371812 -2.60885e-22)
(1.2153 0.336033 1.82326e-23)
(1.19734 0.301694 -1.52234e-23)
(1.1828 0.27164 1.27837e-22)
(1.17233 0.241839 2.13126e-24)
(1.16273 0.219104 9.49329e-23)
(0.461928 0.145233 -5.5379e-22)
(1.0318 0.380214 -4.29582e-22)
(1.22503 0.438588 9.52793e-23)
(1.24478 0.421826 3.35632e-22)
(1.22481 0.381826 -1.60206e-23)
(1.2019 0.343397 2.80998e-22)
(1.18482 0.307218 0)
(1.17107 0.275785 -1.45734e-22)
(1.16161 0.244951 -2.27484e-23)
(1.15229 0.221637 -1.20026e-22)
(0.493232 0.17212 1.31868e-22)
(1.04778 0.411949 7.3402e-22)
(1.2206 0.460288 -4.28681e-22)
(1.23133 0.43572 -8.13464e-23)
(1.20991 0.391348 -1.95414e-22)
(1.1877 0.350365 4.22716e-23)
(1.17169 0.31238 -2.53514e-23)
(1.15891 0.279556 1.41692e-22)
(1.1506 0.247796 -2.36159e-23)
(1.14155 0.223948 6.44801e-23)
(0.520994 0.199955 6.67652e-23)
(1.05821 0.442877 0)
(1.21236 0.480998 2.66817e-23)
(1.2158 0.44883 0)
(1.19382 0.400303 3.91059e-22)
(1.17272 0.356865 -2.54652e-22)
(1.15799 0.31712 0)
(1.14637 0.282911 -1.68508e-23)
(1.13925 0.250314 0)
(1.13063 0.225881 0)
(0.544868 0.228423 -1.02568e-21)
(1.06329 0.472781 -7.94581e-23)
(1.2006 0.500585 5.22925e-22)
(1.19834 0.461079 6.00307e-23)
(1.17661 0.408605 -4.04816e-22)
(1.15702 0.362824 -1.43216e-22)
(1.14378 0.321377 -1.97361e-23)
(1.13347 0.285822 8.20011e-23)
(1.1275 0.252461 -1.67889e-23)
(1.11952 0.227453 9.1535e-24)
(0.5646 0.257191 1.14176e-21)
(1.06326 0.501441 -6.87961e-22)
(1.18557 0.51891 -1.51592e-22)
(1.17912 0.472382 7.43274e-23)
(1.15835 0.416163 3.17664e-22)
(1.14068 0.368161 2.17996e-22)
(1.12905 0.325095 -1.67507e-23)
(1.12018 0.288258 -1.99102e-23)
(1.11542 0.254195 -2.31203e-23)
(1.10824 0.228609 8.31666e-24)
(0.580024 0.285906 9.46318e-22)
(1.05837 0.528631 6.67622e-22)
(1.16749 0.535825 -6.37694e-22)
(1.15828 0.482647 -6.74626e-23)
(1.13921 0.422905 0)
(1.12367 0.372792 0)
(1.11381 0.328216 0)
(1.10655 0.290177 -2.09421e-22)
(1.10303 0.255482 -4.92785e-23)
(1.09681 0.229325 2.17253e-23)
(0.591057 0.314209 -1.84221e-21)
(1.04887 0.554133 0)
(1.14657 0.551165 1.36151e-21)
(1.13605 0.491776 3.57394e-22)
(1.11921 0.428752 0)
(1.10597 0.376646 0)
(1.0981 0.330675 -1.04107e-22)
(1.09258 0.291537 8.6415e-23)
(1.09037 0.256287 4.92789e-23)
(1.08525 0.229567 -2.17244e-23)
(0.597698 0.341735 9.93043e-22)
(1.03505 0.577746 -7.97427e-23)
(1.12306 0.56476 -6.42258e-22)
(1.11255 0.499652 -3.91132e-22)
(1.09837 0.433621 2.80022e-23)
(1.08766 0.379654 1.38215e-22)
(1.08197 0.332414 5.09314e-23)
(1.07831 0.292299 8.38421e-24)
(1.07748 0.256577 -7.06936e-24)
(1.07359 0.229308 2.30393e-23)
(0.600017 0.368117 -1.17154e-23)
(1.01725 0.599282 9.69709e-22)
(1.09722 0.576492 -8.48602e-23)
(1.08781 0.506112 2.06131e-22)
(1.07675 0.437436 9.79994e-23)
(1.0688 0.381751 -4.15263e-23)
(1.06547 0.333377 4.70547e-23)
(1.06377 0.292423 -1.17805e-23)
(1.06438 0.256316 -1.70428e-23)
(1.06186 0.228518 -1.63413e-23)
(0.598155 0.392991 0)
(0.995737 0.618512 -8.51073e-22)
(1.06932 0.58627 -7.322e-23)
(1.06193 0.511026 -6.68208e-23)
(1.05443 0.440092 -9.98535e-23)
(1.04945 0.382872 -6.78048e-23)
(1.04864 0.333513 -5.72451e-23)
(1.04901 0.291873 0)
(1.05111 0.255472 0)
(1.05011 0.227162 0)
(0.592313 0.41603 8.28993e-23)
(0.970614 0.635092 -6.87564e-22)
(1.0397 0.594044 0)
(1.03508 0.514319 -7.98023e-23)
(1.03151 0.441501 8.77579e-24)
(1.02968 0.382957 0)
(1.03155 0.332776 5.19065e-23)
(1.03407 0.290614 1.07349e-22)
(1.0377 0.254006 -2.22509e-23)
(1.03836 0.225196 1.86894e-23)
(0.582714 0.437019 -6.06778e-23)
(0.942106 0.648728 7.37375e-22)
(1.00863 0.599667 0)
(1.00738 0.515951 -9.87258e-23)
(1.00807 0.441577 1.93297e-24)
(1.00957 0.381949 1.51367e-22)
(1.01426 0.331124 1.7742e-23)
(1.01898 0.288615 -1.222e-22)
(1.02418 0.251887 0)
(1.02668 0.222579 -2.25455e-22)
(0.569572 0.455733 -8.40571e-22)
(0.910692 0.659302 -4.08243e-23)
(0.976275 0.602935 -8.31739e-24)
(0.978988 0.515853 6.87994e-24)
(0.98421 0.440248 2.04289e-22)
(0.989197 0.379796 -1.51369e-22)
(0.996823 0.328521 -2.14858e-22)
(1.00379 0.285844 -1.88006e-22)
(1.01059 0.249084 -3.20449e-22)
(1.01517 0.219304 1.97348e-22)
(0.553007 0.471819 8.90309e-22)
(0.876934 0.666799 0)
(0.942852 0.603717 -2.23689e-23)
(0.950052 0.513959 3.10776e-24)
(0.960034 0.437454 -5.14192e-22)
(0.968648 0.376451 0)
(0.979311 0.324934 2.1486e-22)
(0.988531 0.282264 -4.06086e-23)
(0.997046 0.245572 3.63917e-22)
(1.00414 0.215412 -3.65037e-23)
(0.533237 0.484858 0)
(0.841213 0.671066 1.03701e-22)
(0.908566 0.601949 1.86119e-23)
(0.920726 0.510199 0)
(0.935654 0.433142 3.09904e-22)
(0.948013 0.371876 0)
(0.961778 0.32034 -3.2486e-22)
(0.973251 0.277835 2.28617e-22)
(0.983711 0.24131 4.39685e-22)
(0.993869 0.210967 3.46093e-22)
(0.510747 0.494682 -2.74704e-23)
(0.803874 0.671966 -8.11522e-23)
(0.873648 0.597573 0)
(0.891166 0.504514 0)
(0.911188 0.427272 0)
(0.927383 0.366041 5.24135e-23)
(0.944284 0.314718 2.37446e-22)
(0.958044 0.272532 3.65383e-23)
(0.970778 0.23624 -4.39688e-22)
(0.984255 0.20592 -3.88634e-22)
(0.485953 0.501122 0)
(0.765263 0.669383 2.08724e-22)
(0.838337 0.590545 0)
(0.861533 0.496853 0)
(0.886758 0.419813 0)
(0.906851 0.358924 -6.12846e-23)
(0.926902 0.308052 5.35256e-22)
(0.943032 0.266358 -1.223e-22)
(0.958328 0.230374 -4.22093e-22)
(0.974631 0.198773 -4.25735e-22)
(0.459266 0.504043 0)
(0.725738 0.663239 -2.08725e-22)
(0.802876 0.580838 4.52144e-22)
(0.831992 0.487179 0)
(0.862489 0.410745 7.35401e-22)
(0.886512 0.350508 0)
(0.909723 0.300329 -4.34016e-22)
(0.928328 0.259327 3.8748e-22)
(0.946112 0.224169 5.52535e-22)
(0.963724 0.19361 4.24382e-22)
(0.431098 0.503353 -3.9053e-22)
(0.685663 0.653487 0)
(0.767507 0.568441 -3.85774e-22)
(0.802714 0.475472 -5.4902e-23)
(0.838508 0.400058 -1.57512e-21)
(0.866465 0.340787 0)
(0.892837 0.291536 5.40153e-22)
(0.913999 0.251363 3.76794e-23)
(0.934249 0.216908 5.85001e-22)
(0.953244 0.186996 2.42566e-24)
(0.401857 0.498999 4.28823e-22)
(0.645404 0.64011 -3.14319e-23)
(0.732475 0.553364 -7.88133e-23)
(0.77387 0.461725 -6.51926e-23)
(0.814945 0.387752 8.39716e-22)
(0.846811 0.329763 -7.50697e-22)
(0.876329 0.281689 -5.40156e-22)
(0.900048 0.242564 -4.25164e-22)
(0.922578 0.209071 -6.61023e-22)
(0.942746 0.18016 6.13004e-22)
(0.371948 0.490967 -5.13521e-23)
(0.605323 0.62312 -7.93523e-22)
(0.698018 0.535632 0)
(0.74563 0.445948 5.6886e-22)
(0.791929 0.373842 6.26382e-23)
(0.827656 0.317447 7.50701e-22)
(0.860287 0.27079 -7.45194e-23)
(0.886546 0.232879 -4.34809e-22)
(0.911248 0.200452 0)
(0.93255 0.172628 -5.46892e-22)
(0.341768 0.479283 5.95847e-23)
(0.565775 0.602561 8.35679e-22)
(0.664373 0.51529 0)
(0.718164 0.428167 -1.3831e-23)
(0.769589 0.35835 6.94271e-23)
(0.809099 0.30386 0)
(0.844789 0.258864 6.8895e-22)
(0.873529 0.222363 4.97184e-22)
(0.900276 0.191182 9.46083e-23)
(0.922706 0.16456 -7.94683e-23)
(0.311705 0.464007 0)
(0.527109 0.578506 1.26885e-21)
(0.63177 0.492402 -1.12334e-22)
(0.691642 0.408424 6.72678e-23)
(0.748053 0.341313 6.15602e-22)
(0.791245 0.289033 1.06429e-21)
(0.829914 0.245935 -7.81762e-22)
(0.861058 0.211022 0)
(0.889734 0.181241 0)
(0.913295 0.155913 0)
(0.282131 0.445239 2.42181e-24)
(0.48966 0.551053 -1.05277e-21)
(0.600431 0.467049 1.25868e-22)
(0.666226 0.386776 -8.80527e-22)
(0.727448 0.322779 -5.33328e-22)
(0.774192 0.273004 1.80231e-22)
(0.815737 0.232038 -7.86381e-22)
(0.849185 0.198894 5.18677e-22)
(0.879674 0.170667 5.58679e-22)
(0.904374 0.146721 -4.35157e-22)
(0.253405 0.423115 -7.4209e-22)
(0.45375 0.520328 -8.2605e-23)
(0.57057 0.439328 1.15974e-21)
(0.642075 0.363294 9.066e-22)
(0.707895 0.302805 0)
(0.758036 0.255823 -1.01488e-21)
(0.802332 0.217214 -4.09804e-23)
(0.837969 0.186012 -6.6756e-22)
(0.87015 0.159482 -3.91735e-22)
(0.895988 0.137004 3.46262e-22)
(0.225867 0.397816 1.77925e-21)
(0.419675 0.486467 0)
(0.542394 0.409354 -2.40396e-21)
(0.61934 0.338065 -7.93494e-22)
(0.689513 0.281461 -9.38901e-23)
(0.742868 0.237547 0)
(0.78977 0.201508 8.19257e-22)
(0.827464 0.172415 -6.50909e-22)
(0.861212 0.147717 -4.93667e-22)
(0.888175 0.126794 3.76551e-22)
(0.199832 0.369565 -9.36529e-22)
(0.387711 0.44963 -8.24897e-22)
(0.516101 0.377254 1.39974e-21)
(0.598168 0.31119 -1.28645e-22)
(0.672413 0.258828 0)
(0.728778 0.218241 0)
(0.778117 0.184976 0)
(0.817722 0.158148 1.32684e-21)
(0.852911 0.135405 4.93669e-22)
(0.880972 0.116124 -3.76551e-22)
(0.175569 0.33858 -9.72704e-22)
(0.358128 0.410027 8.21818e-22)
(0.491885 0.34317 8.65175e-23)
(0.578695 0.282784 0)
(0.656701 0.234994 -8.10246e-22)
(0.715846 0.197978 -5.40062e-22)
(0.767436 0.167675 -5.99518e-23)
(0.808794 0.14326 1.0479e-22)
(0.845292 0.122586 -1.30982e-22)
(0.874409 0.105032 5.22348e-23)
(0.153316 0.305067 1.10438e-21)
(0.331178 0.367913 -1.10834e-22)
(0.469919 0.307268 -9.06745e-22)
(0.561048 0.252972 2.01616e-22)
(0.642476 0.21006 6.03262e-22)
(0.704149 0.17684 7.68321e-22)
(0.757785 0.149672 -6.2052e-23)
(0.800725 0.127802 -3.39147e-22)
(0.838398 0.109301 0)
(0.868512 0.0935593 4.9038e-23)
(0.1333 0.269253 7.57132e-23)
(0.307089 0.32355 0)
(0.450356 0.269726 -2.84785e-23)
(0.545342 0.221895 0)
(0.629825 0.184133 -8.66131e-22)
(0.693755 0.154912 6.50526e-22)
(0.749218 0.131036 0)
(0.793561 0.111831 8.97e-24)
(0.832269 0.0955973 0)
(0.863306 0.0817501 0)
(0.115729 0.231398 1.56999e-22)
(0.286061 0.277209 -1.07023e-21)
(0.433332 0.23074 8.50402e-22)
(0.531683 0.189701 -1.46115e-22)
(0.618829 0.15733 3.75004e-22)
(0.684726 0.132289 1.02643e-22)
(0.741781 0.111843 0)
(0.787339 0.0954071 -2.79782e-22)
(0.826941 0.0815244 -7.44475e-23)
(0.858809 0.0696506 -2.15072e-22)
(0.100792 0.191783 6.71451e-22)
(0.268267 0.22917 -1.58728e-21)
(0.418964 0.190512 1.46234e-22)
(0.520159 0.156546 -6.10637e-22)
(0.609556 0.129773 -6.85226e-23)
(0.677117 0.109068 -6.66025e-22)
(0.735518 0.0921714 0)
(0.782097 0.0785962 3.82562e-22)
(0.822448 0.0671353 -6.82628e-23)
(0.855038 0.0573072 4.90768e-22)
(0.0886469 0.150705 -6.71452e-22)
(0.253854 0.179723 5.8225e-22)
(0.407351 0.149256 -1.01045e-22)
(0.510846 0.122595 7.16339e-22)
(0.602067 0.101592 3.93162e-22)
(0.670974 0.0853513 4.07249e-23)
(0.730462 0.0721043 -3.40031e-23)
(0.777864 0.0614654 -4.28427e-22)
(0.818817 0.0524862 3.86228e-24)
(0.852006 0.044767 -1.63031e-22)
(0.0794233 0.108477 3.51314e-22)
(0.24294 0.129171 0)
(0.39857 0.107193 4.15018e-22)
(0.503808 0.0880191 0)
(0.596407 0.0729192 5.51832e-23)
(0.666333 0.0612456 -4.59486e-23)
(0.726644 0.0517266 0)
(0.774666 0.0440841 0)
(0.816072 0.0376346 0)
(0.849723 0.0320776 0)
(0.0732193 0.0654202 -3.07762e-22)
(0.235613 0.0778226 -1.18474e-22)
(0.392683 0.0645494 -4.15018e-22)
(0.499089 0.0529925 0)
(0.592614 0.0438936 0)
(0.663223 0.0368599 2.07788e-23)
(0.724087 0.0311257 -8.28947e-23)
(0.772523 0.0265227 -9.8317e-23)
(0.814231 0.0226385 -9.16561e-23)
(0.848197 0.0192858 1.47877e-23)
(0.0701008 0.0218625 -5.57143e-24)
(0.231935 0.0259943 1.27805e-22)
(0.389729 0.0215555 -5.71712e-24)
(0.496722 0.0176944 1.9719e-23)
(0.590711 0.0146549 -7.7692e-24)
(0.661664 0.0123054 0)
(0.722804 0.0103902 6.55455e-23)
(0.771448 0.00885296 9.8317e-23)
(0.813306 0.00755577 6.96337e-23)
(0.847432 0.00643499 1.03937e-23)
(0.0701008 -0.0218625 -5.57143e-24)
(0.231935 -0.0259943 1.27805e-22)
(0.389729 -0.0215555 -5.71712e-24)
(0.496722 -0.0176944 1.9719e-23)
(0.590711 -0.0146549 -7.7692e-24)
(0.661664 -0.0123054 0)
(0.722804 -0.0103902 5.77398e-23)
(0.771448 -0.00885296 1.0485e-22)
(0.813306 -0.00755577 7.40503e-23)
(0.847432 -0.00643499 0)
(0.0732193 -0.0654202 -3.94866e-22)
(0.235613 -0.0778226 -1.53658e-22)
(0.392683 -0.0645494 -4.39934e-22)
(0.499089 -0.0529925 2.06101e-23)
(0.592614 -0.0438936 0)
(0.663223 -0.0368599 -2.07788e-23)
(0.724087 -0.0311257 -4.81962e-23)
(0.772523 -0.0265227 -9.8317e-23)
(0.814231 -0.0226385 -5.64445e-23)
(0.848197 -0.0192858 -1.47877e-23)
(0.0794233 -0.108477 3.51314e-22)
(0.24294 -0.129171 0)
(0.39857 -0.107193 4.15018e-22)
(0.503808 -0.0880191 0)
(0.596407 -0.0729192 5.51832e-23)
(0.666333 -0.0612456 -4.59486e-23)
(0.726644 -0.0517266 0)
(0.774666 -0.0440841 0)
(0.816072 -0.0376346 0)
(0.849723 -0.0320776 0)
(0.0886469 -0.150705 -6.71452e-22)
(0.253854 -0.179723 4.5477e-22)
(0.407351 -0.149256 1.01045e-22)
(0.510846 -0.122595 4.90527e-22)
(0.602067 -0.101592 5.13962e-22)
(0.670974 -0.0853513 -4.07249e-23)
(0.730462 -0.0721043 3.40031e-23)
(0.777864 -0.0614654 -3.36698e-22)
(0.818817 -0.0524862 -3.86228e-24)
(0.852006 -0.044767 -2.73689e-22)
(0.100792 -0.191783 6.71451e-22)
(0.268267 -0.22917 5.50265e-22)
(0.418964 -0.190512 -1.46234e-22)
(0.520159 -0.156546 -5.96228e-22)
(0.609556 -0.129773 4.99662e-23)
(0.677117 -0.109068 -6.66025e-22)
(0.735518 -0.0921714 0)
(0.782097 -0.0785962 3.82562e-22)
(0.822448 -0.0671353 6.82628e-23)
(0.855038 -0.0573072 3.76096e-22)
(0.115729 -0.231398 -1.56999e-22)
(0.286061 -0.277209 1.07023e-21)
(0.433332 -0.23074 6.65519e-22)
(0.531683 -0.189701 1.46115e-22)
(0.618829 -0.15733 4.68697e-22)
(0.684726 -0.132289 -1.50144e-22)
(0.741781 -0.111843 6.55383e-23)
(0.787339 -0.0954071 -4.57287e-22)
(0.826941 -0.0815244 7.44475e-23)
(0.858809 -0.0696506 -2.15072e-22)
(0.1333 -0.269253 -7.57132e-23)
(0.307089 -0.32355 0)
(0.450356 -0.269726 -2.84785e-23)
(0.545342 -0.221895 0)
(0.629825 -0.184133 -8.66131e-22)
(0.693755 -0.154912 6.50526e-22)
(0.749218 -0.131036 0)
(0.793561 -0.111831 8.97001e-24)
(0.832269 -0.0955973 0)
(0.863306 -0.0817501 0)
(0.153316 -0.305067 1.10438e-21)
(0.331178 -0.367913 1.10834e-22)
(0.469919 -0.307268 -6.38161e-22)
(0.561048 -0.252972 -1.30521e-22)
(0.642476 -0.21006 1.01723e-21)
(0.704149 -0.17684 4.55412e-22)
(0.757785 -0.149672 6.2052e-23)
(0.800725 -0.127802 -4.23693e-22)
(0.838398 -0.109301 7.09195e-23)
(0.868512 -0.0935593 -4.9038e-23)
(0.175569 -0.33858 -1.23606e-21)
(0.358128 -0.410027 8.2798e-22)
(0.491885 -0.34317 7.75885e-23)
(0.578695 -0.282784 -1.35745e-22)
(0.656701 -0.234994 -8.10246e-22)
(0.715846 -0.197978 -6.83668e-22)
(0.767436 -0.167675 5.99518e-23)
(0.808794 -0.14326 -5.92334e-23)
(0.845292 -0.122586 1.30982e-22)
(0.874409 -0.105032 -5.22348e-23)
(0.199832 -0.369565 -9.36529e-22)
(0.387711 -0.44963 -8.24897e-22)
(0.516101 -0.377254 1.0887e-21)
(0.598168 -0.31119 1.28645e-22)
(0.672413 -0.258828 0)
(0.728778 -0.218241 0)
(0.778117 -0.184976 0)
(0.817722 -0.158148 1.32684e-21)
(0.852911 -0.135405 4.93669e-22)
(0.880972 -0.116124 -3.76551e-22)
(0.225867 -0.397816 1.77925e-21)
(0.419675 -0.486467 0)
(0.542394 -0.409354 -2.40396e-21)
(0.61934 -0.338065 -9.06604e-22)
(0.689513 -0.281461 0)
(0.742868 -0.237547 0)
(0.78977 -0.201508 8.19257e-22)
(0.827464 -0.172415 -6.50909e-22)
(0.861212 -0.147717 -4.93667e-22)
(0.888175 -0.126794 3.76551e-22)
(0.253405 -0.423115 -9.43353e-22)
(0.45375 -0.520328 8.2605e-23)
(0.57057 -0.439328 1.15974e-21)
(0.642075 -0.363294 1.01292e-21)
(0.707895 -0.302805 -8.82578e-23)
(0.758036 -0.255823 -1.01488e-21)
(0.802332 -0.217214 -4.09804e-23)
(0.837969 -0.186012 -5.21848e-22)
(0.87015 -0.159482 -5.13962e-22)
(0.895988 -0.137004 3.46262e-22)
(0.282131 -0.445239 -2.42181e-24)
(0.48966 -0.551053 -1.21226e-21)
(0.600431 -0.467049 -1.25868e-22)
(0.666226 -0.386776 -6.82287e-22)
(0.727448 -0.322779 -5.4384e-22)
(0.774192 -0.273004 -1.85031e-22)
(0.815737 -0.232038 -7.7016e-22)
(0.849185 -0.198894 6.70725e-22)
(0.879674 -0.170667 3.47015e-22)
(0.904374 -0.146721 -2.57368e-22)
(0.311705 -0.464007 0)
(0.527109 -0.578506 9.96169e-22)
(0.63177 -0.492402 1.12334e-22)
(0.691642 -0.408424 6.72678e-23)
(0.748053 -0.341313 6.15602e-22)
(0.791245 -0.289033 8.41982e-22)
(0.829914 -0.245935 -6.81784e-22)
(0.861058 -0.211022 7.16798e-23)
(0.889734 -0.181241 0)
(0.913295 -0.155913 0)
(0.341768 -0.479283 -5.95847e-23)
(0.565775 -0.602561 8.35679e-22)
(0.664373 -0.51529 0)
(0.718164 -0.428167 1.53447e-22)
(0.769589 -0.35835 -6.94271e-23)
(0.809099 -0.30386 0)
(0.844789 -0.258864 6.8895e-22)
(0.873529 -0.222363 4.97184e-22)
(0.900276 -0.191182 -9.46083e-23)
(0.922706 -0.16456 7.94683e-23)
(0.371948 -0.490967 5.13521e-23)