/*--------------------------------*- C++ -*----------------------------------*\
  =========                 |
  \\      /  F ield         | OpenFOAM: The Open Source CFD Toolbox
   \\    /   O peration     | Website:  https://openfoam.org
    \\  /    A nd           | Version:  7
     \\/     M anipulation  |
\*---------------------------------------------------------------------------*/
FoamFile
{
    version     2.0;
    format      ascii;
    class       volScalarField;
    location    "3.2";
    object      rho;
}
// * * * * * * * * * * * * * * * * * * * * * * * * * * * * * * * * * * * * * //

dimensions      [1 -3 0 0 0 0 0];

internalField   nonuniform List<scalar> 
64512
(
1.40001
1.40001
1.40001
1.40001
1.40001
1.40001
1.40001
1.40001
1.40001
1.40001
1.40001
1.40001
1.40001
1.40001
1.40001
1.40001
1.40001
1.40001
1.40001
1.40001
1.40001
1.40001
1.40001
1.40001
1.40001
1.40001
1.40001
1.40001
1.40001
1.40001
1.40001
1.40001
1.40001
1.40001
1.40001
1.40001
1.40001
1.40001
1.40001
1.40001
1.40001
1.40001
1.40001
1.40001
1.40001
1.40001
1.40001
1.40001
1.40001
3.88458
5.41466
5.42797
5.44468
5.46611
5.48876
5.51222
5.53611
5.56027
5.58422
5.60723
5.62853
5.64733
5.66308
5.67562
5.68561
5.69517
5.70723
5.72368
5.74393
5.76591
5.7873
5.80523
5.81789
5.82648
5.83497
5.84697
5.86273
5.87954
5.89506
5.90804
5.91733
5.92386
5.93009
5.93782
5.94693
5.95628
5.96482
5.97204
5.97794
5.98271
5.98636
5.98859
5.98929
5.98882
5.9883
5.98834
1.40001
1.40001
1.40001
1.40001
1.40001
1.40001
1.40001
1.40001
1.40001
1.40001
1.40001
1.40001
1.40001
1.40001
1.40001
1.40001
1.40001
1.40001
1.40001
1.40001
1.40001
1.40001
1.40001
1.40001
1.40001
1.40001
1.40001
1.40001
1.40001
1.40001
1.40001
1.40001
1.40001
1.40001
1.40001
1.40001
1.40001
1.40001
1.40001
1.40001
1.40001
1.40001
1.40001
1.40001
1.40001
1.40001
1.40001
1.40001
1.40001
3.86355
5.40839
5.429
5.44488
5.46616
5.48857
5.51191
5.53572
5.55978
5.58372
5.60681
5.6282
5.64696
5.66242
5.67462
5.68441
5.69396
5.70623
5.72308
5.74374
5.7659
5.78728
5.80506
5.81755
5.82588
5.83414
5.84598
5.86168
5.87852
5.8941
5.90713
5.91647
5.92302
5.92925
5.93695
5.94601
5.95533
5.96385
5.97104
5.97688
5.98154
5.98507
5.98723
5.98793
5.98752
5.98708
5.98717
1.40001
1.40001
1.40001
1.40001
1.40001
1.40001
1.40001
1.40001
1.40001
1.40001
1.40001
1.40001
1.40001
1.40001
1.40001
1.40001
1.40001
1.40001
1.40001
1.40001
1.40001
1.40001
1.40001
1.40001
1.40001
1.40001
1.40001
1.40001
1.40001
1.40001
1.40001
1.40001
1.40001
1.40001
1.40001
1.40001
1.40001
1.40001
1.40001
1.40001
1.40001
1.40001
1.40001
1.40001
1.40001
1.40001
1.40001
1.40001
1.40001
3.82382
5.40419
5.42799
5.44309
5.46455
5.48699
5.51052
5.5346
5.55885
5.58291
5.60609
5.6275
5.6461
5.66118
5.67295
5.68239
5.69183
5.70434
5.72175
5.74298
5.76543
5.78692
5.80454
5.81687
5.82486
5.8328
5.84439
5.85999
5.87684
5.89252
5.90563
5.91504
5.92163
5.92788
5.93553
5.94451
5.95376
5.96224
5.9694
5.97517
5.9797
5.98309
5.98512
5.9858
5.98546
5.98513
5.98532
1.40001
1.40001
1.40001
1.40001
1.40001
1.40001
1.40001
1.40001
1.40001
1.40001
1.40001
1.40001
1.40001
1.40001
1.40001
1.40001
1.40001
1.40001
1.40001
1.40001
1.40001
1.40001
1.40001
1.40001
1.40001
1.40001
1.40001
1.40001
1.40001
1.40001
1.40001
1.40001
1.40001
1.40001
1.40001
1.40001
1.40001
1.40001
1.40001
1.40001
1.40001
1.40001
1.40001
1.40001
1.40001
1.40001
1.40001
1.40001
1.40001
3.76654
5.39837
5.42651
5.44033
5.462
5.48454
5.5084
5.53302
5.55774
5.58204
5.60528
5.62654
5.64477
5.65927
5.67052
5.67961
5.68898
5.70179
5.71984
5.74166
5.76442
5.78603
5.80351
5.81565
5.82324
5.83075
5.84199
5.85742
5.8743
5.89011
5.90338
5.9129
5.91957
5.92582
5.93341
5.94227
5.95141
5.95981
5.96689
5.97255
5.97693
5.98014
5.98202
5.98265
5.98235
5.98212
5.98238
1.40001
1.40001
1.40001
1.40001
1.40001
1.40001
1.40001
1.40001
1.40001
1.40001
1.40001
1.40001
1.40001
1.40001
1.40001
1.40001
1.40001
1.40001
1.40001
1.40001
1.40001
1.40001
1.40001
1.40001
1.40001
1.40001
1.40001
1.40001
1.40001
1.40001
1.40001
1.40001
1.40001
1.40001
1.40001
1.40001
1.40001
1.40001
1.40001
1.40001
1.40001
1.40001
1.40001
1.40001
1.40001
1.40001
1.40001
1.40001
1.40001
3.69112
5.39043
5.42426
5.43665
5.45846
5.48108
5.50538
5.53076
5.55621
5.5809
5.60421
5.62527
5.64302
5.6569
5.66764
5.6765
5.68585
5.69889
5.71742
5.73976
5.76273
5.78447
5.80186
5.81389
5.82113
5.82815
5.83889
5.85404
5.87091
5.88685
5.9003
5.91001
5.91679
5.92305
5.93057
5.93933
5.94837
5.95668
5.96367
5.96922
5.97346
5.9765
5.97822
5.97874
5.97842
5.9782
5.97849
1.40001
1.40001
1.40001
1.40001
1.40001
1.40001
1.40001
1.40001
1.40001
1.40001
1.40001
1.40001
1.40001
1.40001
1.40001
1.40001
1.40001
1.40001
1.40001
1.40001
1.40001
1.40001
1.40001
1.40001
1.40001
1.40001
1.40001
1.40001
1.40001
1.40001
1.40001
1.40001
1.40001
1.40001
1.40001
1.40001
1.40001
1.40001
1.40001
1.40001
1.40001
1.40001
1.40001
1.40001
1.40001
1.40001
1.40001
1.40001
1.40001
3.59726
5.37962
5.42092
5.43198
5.4542
5.47693
5.50168
5.52774
5.55399
5.57921
5.60272
5.62369
5.64106
5.65434
5.66457
5.67324
5.68263
5.69581
5.71462
5.73724
5.76024
5.782
5.79934
5.81138
5.81839
5.82492
5.83507
5.84986
5.86669
5.88276
5.89643
5.90636
5.91327
5.91952
5.92695
5.9356
5.94455
5.95276
5.95964
5.96509
5.96921
5.97213
5.97368
5.97406
5.97361
5.97331
5.97356
1.40001
1.40001
1.40001
1.40001
1.40001
1.40001
1.40001
1.40001
1.40001
1.40001
1.40001
1.40001
1.40001
1.40001
1.40001
1.40001
1.40001
1.40001
1.40001
1.40001
1.40001
1.40001
1.40001
1.40001
1.40001
1.40001
1.40001
1.40001
1.40001
1.40001
1.40001
1.40001
1.40001
1.40001
1.40001
1.40001
1.40001
1.40001
1.40001
1.40001
1.40001
1.40001
1.40001
1.40001
1.40001
1.40001
1.40001
1.40001
1.40001
3.48461
5.36492
5.41705
5.42678
5.44985
5.47261
5.49762
5.52405
5.55088
5.57656
5.60035
5.6215
5.63881
5.65177
5.66154
5.66997
5.67929
5.69245
5.71132
5.73405
5.75692
5.77861
5.796
5.8082
5.81516
5.82124
5.83074
5.84508
5.8618
5.87794
5.89179
5.90194
5.90898
5.91521
5.92253
5.9311
5.93996
5.94806
5.95482
5.96016
5.96422
5.96705
5.96847
5.96867
5.96802
5.96753
5.96767
1.40001
1.40001
1.40001
1.40001
1.40001
1.40001
1.40001
1.40001
1.40001
1.40001
1.40001
1.40001
1.40001
1.40001
1.40001
1.40001
1.40001
1.40001
1.40001
1.40001
1.40001
1.40001
1.40001
1.40001
1.40001
1.40001
1.40001
1.40001
1.40001
1.40001
1.40001
1.40001
1.40001
1.40001
1.40001
1.40001
1.40001
1.40001
1.40001
1.40001
1.40001
1.40001
1.40001
1.40001
1.40001
1.40001
1.40001
1.40001
1.40001
3.35175
5.34715
5.41403
5.42207
5.44553
5.46809
5.49324
5.51974
5.54681
5.57283
5.59694
5.61854
5.63626
5.64934
5.65885
5.66696
5.67593
5.68874
5.70741
5.73001
5.75253
5.77402
5.79157
5.80411
5.81122
5.81697
5.82581
5.83961
5.85614
5.87227
5.88624
5.89659
5.90374
5.90992
5.91713
5.92559
5.93437
5.94238
5.94903
5.95428
5.95831
5.96114
5.96253
5.96262
5.96184
5.96117
5.96118
1.40001
1.40001
1.40001
1.40001
1.40001
1.40001
1.40001
1.40001
1.40001
1.40001
1.40001
1.40001
1.40001
1.40001
1.40001
1.40001
1.40001
1.40001
1.40001
1.40001
1.40001
1.40001
1.40001
1.40001
1.40001
1.40001
1.40001
1.40001
1.40001
1.40001
1.40001
1.40001
1.40001
1.40001
1.40001
1.40001
1.40001
1.40001
1.40001
1.40001
1.40001
1.40001
1.40001
1.40001
1.40001
1.40001
1.40001
1.40001
1.40001
3.19923
5.32225
5.41369
5.42074
5.44306
5.46427
5.48875
5.51482
5.54181
5.56803
5.59252
5.61475
5.63332
5.64708
5.65677
5.66464
5.67306
5.68512
5.70303
5.7251
5.74715
5.76837
5.78617
5.79917
5.80669
5.81229
5.82051
5.83364
5.84981
5.86579
5.87976
5.89025
5.89753
5.90372
5.91085
5.91923
5.92796
5.93592
5.9425
5.94768
5.95165
5.95444
5.95575
5.9557
5.95482
5.95392
5.95377
1.40001
1.40001
1.40001
1.40001
1.40001
1.40001
1.40001
1.40001
1.40001
1.40001
1.40001
1.40001
1.40001
1.40001
1.40001
1.40001
1.40001
1.40001
1.40001
1.40001
1.40001
1.40001
1.40001
1.40001
1.40001
1.40001
1.40001
1.40001
1.40001
1.40001
1.40001
1.40001
1.40001
1.40001
1.40001
1.40001
1.40001
1.40001
1.40001
1.40001
1.40001
1.40001
1.40001
1.40001
1.40001
1.40001
1.40001
1.40001
1.40001
3.02779
5.28767
5.41743
5.42355
5.44371
5.46244
5.48506
5.50991
5.53628
5.56247
5.58717
5.61
5.62966
5.64464
5.65509
5.66304
5.67095
5.68191
5.6984
5.71944
5.741
5.76182
5.77987
5.79342
5.80157
5.80722
5.81484
5.82714
5.84275
5.85848
5.87232
5.88291
5.89033
5.89654
5.90356
5.91183
5.92049
5.92841
5.93495
5.94009
5.944
5.94671
5.94794
5.94779
5.94682
5.94576
5.94549
1.40001
1.40001
1.40001
1.40001
1.40001
1.40001
1.40001
1.40001
1.40001
1.40001
1.40001
1.40001
1.40001
1.40001
1.40001
1.40001
1.40001
1.40001
1.40001
1.40001
1.40001
1.40001
1.40001
1.40001
1.40001
1.40001
1.40001
1.40001
1.40001
1.40001
1.40001
1.40001
1.40001
1.40001
1.40001
1.40001
1.40001
1.40001
1.40001
1.40001
1.40001
1.40001
1.40001
1.40001
1.40001
1.40001
1.40001
1.40001
1.40001
2.83968
5.23778
5.42514
5.43037
5.44734
5.46304
5.48305
5.50565
5.53069
5.55657
5.58141
5.60471
5.62552
5.64205
5.65378
5.66217
5.6697
5.67933
5.69378
5.71329
5.73433
5.7546
5.77288
5.78704
5.79606
5.80196
5.80902
5.82033
5.83517
5.85048
5.86411
5.87479
5.88241
5.88868
5.8956
5.90371
5.91225
5.92012
5.92665
5.93174
5.93553
5.93808
5.93917
5.93889
5.93782
5.93665
5.93629
1.40001
1.40001
1.40001
1.40001
1.40001
1.40001
1.40001
1.40001
1.40001
1.40001
1.40001
1.40001
1.40001
1.40001
1.40001
1.40001
1.40001
1.40001
1.40001
1.40001
1.40001
1.40001
1.40001
1.40001
1.40001
1.40001
1.40001
1.40001
1.40001
1.40001
1.40001
1.40001
1.40001
1.40001
1.40001
1.40001
1.40001
1.40001
1.40001
1.40001
1.40001
1.40001
1.40001
1.40001
1.40001
1.40001
1.40001
1.40001
1.40001
2.64092
5.16455
5.43249
5.43883
5.45294
5.46565
5.48208
5.50163
5.52456
5.54974
5.57469
5.59849
5.62042
5.63864
5.65202
5.66132
5.6687
5.67693
5.68895
5.70645
5.72668
5.74638
5.76485
5.77964
5.78973
5.79613
5.80278
5.81308
5.82705
5.84186
5.85525
5.86604
5.87387
5.88018
5.88689
5.8947
5.90302
5.91078
5.91729
5.92233
5.92599
5.92836
5.92927
5.92885
5.92771
5.92648
5.92608
1.40001
1.40001
1.40001
1.40001
1.40001
1.40001
1.40001
1.40001
1.40001
1.40001
1.40001
1.40001
1.40001
1.40001
1.40001
1.40001
1.40001
1.40001
1.40001
1.40001
1.40001
1.40001
1.40001
1.40001
1.40001
1.40001
1.40001
1.40001
1.40001
1.40001
1.40001
1.40001
1.40001
1.40001
1.40001
1.40001
1.40001
1.40001
1.40001
1.40001
1.40001
1.40001
1.40001
1.40001
1.40001
1.40001
1.40001
1.40001
1.40001
2.43475
5.06674
5.43456
5.4448
5.45911
5.47064
5.48379
5.49955
5.51928
5.54235
5.56672
5.59056
5.61319
5.63301
5.6483
5.659
5.66668
5.67397
5.68379
5.699
5.71806
5.7374
5.75608
5.77148
5.78271
5.78976
5.79609
5.80529
5.81816
5.83231
5.84538
5.85627
5.86438
5.87078
5.8773
5.88479
5.89284
5.90047
5.90693
5.91192
5.91545
5.91763
5.91835
5.91777
5.91654
5.91527
5.91488
1.40001
1.40001
1.40001
1.40001
1.40001
1.40001
1.40001
1.40001
1.40001
1.40001
1.40001
1.40001
1.40001
1.40001
1.40001
1.40001
1.40001
1.40001
1.40001
1.40001
1.40001
1.40001
1.40001
1.40001
1.40001
1.40001
1.40001
1.40001
1.40001
1.40001
1.40001
1.40001
1.40001
1.40001
1.40001
1.40001
1.40001
1.40001
1.40001
1.40001
1.40001
1.40001
1.40001
1.40001
1.40001
1.40001
1.40001
1.40001
1.40001
2.2251
4.95092
5.43481
5.44689
5.46385
5.47638
5.48856
5.50153
5.51763
5.5376
5.56044
5.58383
5.60662
5.62743
5.64438
5.65667
5.66507
5.6719
5.67976
5.69227
5.70955
5.72828
5.74679
5.76249
5.77468
5.78244
5.78861
5.79679
5.80851
5.82193
5.83471
5.84568
5.85408
5.8606
5.86691
5.87402
5.88169
5.88909
5.89542
5.90032
5.90372
5.90574
5.90626
5.9055
5.90418
5.90285
5.90249
1.40001
1.40001
1.40001
1.40001
1.40001
1.40001
1.40001
1.40001
1.40001
1.40001
1.40001
1.40001
1.40001
1.40001
1.40001
1.40001
1.40001
1.40001
1.40001
1.40001
1.40001
1.40001
1.40001
1.40001
1.40001
1.40001
1.40001
1.40001
1.40001
1.40001
1.40001
1.40001
1.40001
1.40001
1.40001
1.40001
1.40001
1.40001
1.40001
1.40001
1.40001
1.40001
1.40001
1.40001
1.40001
1.40001
1.40001
1.40001
1.40001
2.01303
4.82007
5.43709
5.44744
5.46675
5.48041
5.49309
5.50499
5.51843
5.53501
5.55536
5.57758
5.60004
5.62133
5.63956
5.65341
5.66282
5.66965
5.67617
5.68611
5.70129
5.71903
5.7371
5.75286
5.7658
5.77428
5.78046
5.78773
5.79826
5.81084
5.82321
5.8341
5.84269
5.84931
5.85541
5.86211
5.86938
5.87647
5.88262
5.88741
5.89071
5.89261
5.89297
5.89205
5.89063
5.88924
5.88891
1.40001
1.40001
1.40001
1.40001
1.40001
1.40001
1.40001
1.40001
1.40001
1.40001
1.40001
1.40001
1.40001
1.40001
1.40001
1.40001
1.40001
1.40001
1.40001
1.40001
1.40001
1.40001
1.40001
1.40001
1.40001
1.40001
1.40001
1.40001
1.40001
1.40001
1.40001
1.40001
1.40001
1.40001
1.40001
1.40001
1.40001
1.40001
1.40001
1.40001
1.40001
1.40001
1.40001
1.40001
1.40001
1.40001
1.40001
1.40001
1.40001
1.81107
4.67627
5.44682
5.44343
5.46386
5.48029
5.49633
5.50882
5.52051
5.53432
5.55174
5.57204
5.59355
5.61466
5.63357
5.64874
5.65942
5.66676
5.67281
5.68078
5.6938
5.71007
5.72739
5.74292
5.75629
5.7654
5.77171
5.77823
5.78756
5.79914
5.81092
5.82155
5.8302
5.83688
5.84281
5.84913
5.85596
5.86268
5.86857
5.87319
5.87634
5.87812
5.87831
5.87719
5.87565
5.87417
5.87387
1.40001
1.40001
1.40001
1.40001
1.40001
1.40001
1.40001
1.40001
1.40001
1.40001
1.40001
1.40001
1.40001
1.40001
1.40001
1.40001
1.40001
1.40001
1.40001
1.40001
1.40001
1.40001
1.40001
1.40001
1.40001
1.40001
1.40001
1.40001
1.40001
1.40001
1.40001
1.40001
1.40001
1.40001
1.40001
1.40001
1.40001
1.40001
1.40001
1.40001
1.40001
1.40001
1.40001
1.40001
1.40001
1.40001
1.40001
1.40001
1.40001
1.63126
4.4846
5.44744
5.43554
5.45335
5.47056
5.48874
5.50467
5.51891
5.53334
5.54923
5.56731
5.58702
5.60715
5.62605
5.64215
5.65426
5.66263
5.66906
5.67586
5.68692
5.70136
5.71753
5.73269
5.74613
5.75579
5.76236
5.76836
5.77653
5.78697
5.79794
5.80807
5.81659
5.82323
5.82896
5.83487
5.84119
5.84743
5.85297
5.85734
5.86035
5.862
5.86206
5.86084
5.85923
5.8577
5.85747
1.40001
1.40001
1.40001
1.40001
1.40001
1.40001
1.40001
1.40001
1.40001
1.40001
1.40001
1.40001
1.40001
1.40001
1.40001
1.40001
1.40001
1.40001
1.40001
1.40001
1.40001
1.40001
1.40001
1.40001
1.40001
1.40001
1.40001
1.40001
1.40001
1.40001
1.40001
1.40001
1.40001
1.40001
1.40001
1.40001
1.40001
1.40001
1.40001
1.40001
1.40001
1.40001
1.40001
1.40001
1.40001
1.40001
1.40001
1.40001
1.40001
1.47963
4.2565
5.41488
5.41958
5.43779
5.45887
5.4791
5.49776
5.51452
5.52985
5.545
5.56155
5.5796
5.59843
5.61684
5.6334
5.64687
5.65669
5.6642
5.67079
5.68031
5.6928
5.7074
5.72194
5.73512
5.74522
5.75221
5.75797
5.76514
5.77437
5.78434
5.79377
5.80192
5.80838
5.81383
5.81927
5.82505
5.83079
5.83593
5.84001
5.84279
5.84425
5.84412
5.84275
5.841
5.83938
5.83917
1.40001
1.40001
1.40001
1.40001
1.40001
1.40001
1.40001
1.40001
1.40001
1.40001
1.40001
1.40001
1.40001
1.40001
1.40001
1.40001
1.40001
1.40001
1.40001
1.40001
1.40001
1.40001
1.40001
1.40001
1.40001
1.40001
1.40001
1.40001
1.40001
1.40001
1.40001
1.40001
1.40001
1.40001
1.40001
1.40001
1.40001
1.40001
1.40001
1.40001
1.40001
1.40001
1.40001
1.40001
1.40001
1.40001
1.40001
1.40001
1.40001
1.40389
3.96522
5.35805
5.39028
5.41226
5.43539
5.45808
5.48052
5.50109
5.51929
5.53616
5.55268
5.56964
5.58727
5.60515
5.62204
5.63667
5.64819
5.65727
5.66468
5.6733
5.68416
5.69699
5.71065
5.72336
5.73374
5.7412
5.74695
5.75328
5.76126
5.77009
5.77862
5.78617
5.79226
5.79729
5.80217
5.80732
5.81248
5.81712
5.82078
5.8232
5.82441
5.82412
5.82269
5.82091
5.81929
5.81916
1.40001
1.40001
1.40001
1.40001
1.40001
1.40001
1.40001
1.40001
1.40001
1.40001
1.40001
1.40001
1.40001
1.40001
1.40001
1.40001
1.40001
1.40001
1.40001
1.40001
1.40001
1.40001
1.40001
1.40001
1.40001
1.40001
1.40001
1.40001
1.40001
1.40001
1.40001
1.40001
1.40001
1.40001
1.40001
1.40001
1.40001
1.40001
1.40001
1.40001
1.40001
1.40001
1.40001
1.40001
1.40001
1.40001
1.40001
1.40001
1.40001
1.40003
3.64608
5.29526
5.35906
5.38985
5.41867
5.44427
5.46747
5.48808
5.50656
5.52389
5.54057
5.55717
5.57417
5.59149
5.60825
5.62372
5.63682
5.64758
5.65653
5.66507
5.67499
5.68616
5.69869
5.71072
5.72116
5.72902
5.73492
5.74063
5.74745
5.75509
5.76264
5.76941
5.77491
5.77938
5.7836
5.78806
5.79257
5.79665
5.79978
5.80172
5.80252
5.80195
5.80036
5.79845
5.79674
5.79654
1.40001
1.40001
1.40001
1.40001
1.40001
1.40001
1.40001
1.40001
1.40001
1.40001
1.40001
1.40001
1.40001
1.40001
1.40001
1.40001
1.40001
1.40001
1.40001
1.40001
1.40001
1.40001
1.40001
1.40001
1.40001
1.40001
1.40001
1.40001
1.40001
1.40001
1.40001
1.40001
1.40001
1.40001
1.40001
1.40001
1.40001
1.40001
1.40001
1.40001
1.40001
1.40001
1.40001
1.40001
1.40001
1.40001
1.40001
1.40001
1.40001
1.40001
3.28568
5.23839
5.34515
5.37381
5.40155
5.42797
5.45236
5.47429
5.49379
5.51135
5.52779
5.54385
5.55998
5.5763
5.59278
5.60824
5.62245
5.63493
5.64564
5.65478
5.66445
5.67448
5.68584
5.6971
5.70742
5.7156
5.72175
5.72706
5.73282
5.73925
5.74569
5.7515
5.75621
5.75995
5.76337
5.767
5.7707
5.774
5.77638
5.77767
5.77801
5.77716
5.77546
5.77349
5.77178
5.77159
1.40001
1.40001
1.40001
1.40001
1.40001
1.40001
1.40001
1.40001
1.40001
1.40001
1.40001
1.40001
1.40001
1.40001
1.40001
1.40001
1.40001
1.40001
1.40001
1.40001
1.40001
1.40001
1.40001
1.40001
1.40001
1.40001
1.40001
1.40001
1.40001
1.40001
1.40001
1.40001
1.40001
1.40001
1.40001
1.40001
1.40001
1.40001
1.40001
1.40001
1.40001
1.40001
1.40001
1.40001
1.40001
1.40001
1.40001
1.40001
1.40001
1.40001
2.90507
5.17422
5.34216
5.37115
5.39698
5.42039
5.44188
5.46188
5.48011
5.49715
5.51351
5.52951
5.54535
5.56113
5.57685
5.59229
5.60646
5.61948
5.63164
5.64186
5.65181
5.66135
5.67169
5.68224
5.69229
5.70068
5.70711
5.71222
5.71712
5.72237
5.72765
5.73237
5.73613
5.73898
5.7415
5.74419
5.74694
5.74929
5.75083
5.75137
5.75104
5.74968
5.74755
5.74521
5.74328
5.7429
1.40001
1.40001
1.40001
1.40001
1.40001
1.40001
1.40001
1.40001
1.40001
1.40001
1.40001
1.40001
1.40001
1.40001
1.40001
1.40001
1.40001
1.40001
1.40001
1.40001
1.40001
1.40001
1.40001
1.40001
1.40001
1.40001
1.40001
1.40001
1.40001
1.40001
1.40001
1.40001
1.40001
1.40001
1.40001
1.40001
1.40001
1.40001
1.40001
1.40001
1.40001
1.40001
1.40001
1.40001
1.40001
1.40001
1.40001
1.40001
1.40001
1.40001
2.52368
5.0602
5.37268
5.37991
5.3983
5.41831
5.43923
5.45777
5.47333
5.48766
5.50143
5.5154
5.52986
5.54474
5.55998
5.57509
5.58974
5.60318
5.61527
5.62622
5.63633
5.64614
5.65585
5.66577
5.6755
5.68402
5.69077
5.69589
5.70016
5.70432
5.70835
5.71187
5.71452
5.7163
5.71776
5.71932
5.72082
5.72191
5.72225
5.72173
5.72059
5.7186
5.71603
5.71341
5.71135
5.71092
1.40001
1.40001
1.40001
1.40001
1.40001
1.40001
1.40001
1.40001
1.40001
1.40001
1.40001
1.40001
1.40001
1.40001
1.40001
1.40001
1.40001
1.40001
1.40001
1.40001
1.40001
1.40001
1.40001
1.40001
1.40001
1.40001
1.40001
1.40001
1.40001
1.40001
1.40001
1.40001
1.40001
1.40001
1.40001
1.40001
1.40001
1.40001
1.40001
1.40001
1.40001
1.40001
1.40001
1.40001
1.40001
1.40001
1.40001
1.40001
1.40001
1.40001
2.14238
4.88392
5.41366
5.40739
5.41998
5.43184
5.44457
5.45684
5.4693
5.48167
5.49379
5.50589
5.51822
5.53097
5.54425
5.55805
5.57192
5.58531
5.59786
5.60862
5.61882
5.62838
5.63783
5.64739
5.65679
5.66538
5.67245
5.67775
5.68165
5.68485
5.68765
5.68988
5.69125
5.69181
5.69206
5.69227
5.69231
5.69193
5.69091
5.68928
5.68709
5.68408
5.6805
5.67693
5.6742
5.67327
1.40001
1.40001
1.40001
1.40001
1.40001
1.40001
1.40001
1.40001
1.40001
1.40001
1.40001
1.40001
1.40001
1.40001
1.40001
1.40001
1.40001
1.40001
1.40001
1.40001
1.40001
1.40001
1.40001
1.40001
1.40001
1.40001
1.40001
1.40001
1.40001
1.40001
1.40001
1.40001
1.40001
1.40001
1.40001
1.40001
1.40001
1.40001
1.40001
1.40001
1.40001
1.40001
1.40001
1.40001
1.40001
1.40001
1.40001
1.40001
1.40001
1.40001
1.77349
4.69612
5.46174
5.4171
5.42847
5.4376
5.45044
5.46286
5.47356
5.4822
5.49033
5.49922
5.50919
5.52014
5.53177
5.54365
5.55577
5.56783
5.57942
5.58992
5.59899
5.6087
5.61795
5.62686
5.63596
5.64454
5.65188
5.65747
5.66124
5.6637
5.66534
5.6662
5.66615
5.66533
5.66416
5.66278
5.66105
5.65879
5.6559
5.65248
5.64862
5.6442
5.63948
5.63512
5.63188
5.63079
1.40001
1.40001
1.40001
1.40001
1.40001
1.40001
1.40001
1.40001
1.40001
1.40001
1.40001
1.40001
1.40001
1.40001
1.40001
1.40001
1.40001
1.40001
1.40001
1.40001
1.40001
1.40001
1.40001
1.40001
1.40001
1.40001
1.40001
1.40001
1.40001
1.40001
1.40001
1.40001
1.40001
1.40001
1.40001
1.40001
1.40001
1.40001
1.40001
1.40001
1.40001
1.40001
1.40001
1.40001
1.40001
1.40001
1.40001
1.40001
1.40001
1.40001
1.46593
4.33997
5.45079
5.41877
5.42668
5.43778
5.45092
5.46464
5.47645
5.48515
5.4916
5.49788
5.50492
5.51295
5.52194
5.53164
5.54174
5.55204
5.56216
5.57141
5.57953
5.58722
5.59604
5.6047
5.61308
5.62139
5.62885
5.63475
5.63859
5.64053
5.64117
5.6407
5.63907
5.63675
5.6339
5.63066
5.62682
5.6223
5.61724
5.61183
5.60617
5.59986
5.59298
5.58634
5.58129
5.57882
1.40001
1.40001
1.40001
1.40001
1.40001
1.40001
1.40001
1.40001
1.40001
1.40001
1.40001
1.40001
1.40001
1.40001
1.40001
1.40001
1.40001
1.40001
1.40001
1.40001
1.40001
1.40001
1.40001
1.40001
1.40001
1.40001
1.40001
1.40001
1.40001
1.40001
1.40001
1.40001
1.40001
1.40001
1.40001
1.40001
1.40001
1.40001
1.40001
1.40001
1.40001
1.40001
1.40001
1.40001
1.40001
1.40001
1.40001
1.40001
1.40001
1.40001
1.40126
3.88323
5.33156
5.35741
5.39078
5.41781
5.43996
5.45725
5.47092
5.4818
5.49088
5.49757
5.5033
5.5092
5.51584
5.52298
5.5304
5.53824
5.54629
5.55393
5.56071
5.56697
5.57369
5.58101
5.5887
5.59636
5.60351
5.60949
5.61343
5.61502
5.61486
5.61301
5.60985
5.60583
5.60109
5.59563
5.58927
5.58215
5.57427
5.56581
5.55674
5.54694
5.53699
5.52816
5.52173
5.5191
1.40001
1.40001
1.40001
1.40001
1.40001
1.40001
1.40001
1.40001
1.40001
1.40001
1.40001
1.40001
1.40001
1.40001
1.40001
1.40001
1.40001
1.40001
1.40001
1.40001
1.40001
1.40001
1.40001
1.40001
1.40001
1.40001
1.40001
1.40001
1.40001
1.40001
1.40001
1.40001
1.40001
1.40001
1.40001
1.40001
1.40001
1.40001
1.40001
1.40001
1.40001
1.40001
1.40001
1.40001
1.40001
1.40001
1.40001
1.40001
1.40001
1.40001
1.4
3.3887
5.21661
5.32
5.36587
5.39604
5.4206
5.44193
5.46021
5.47457
5.48514
5.49332
5.50047
5.50628
5.51162
5.51684
5.52195
5.52719
5.53262
5.53798
5.5429
5.54727
5.55197
5.55767
5.56386
5.5702
5.57652
5.58209
5.58579
5.58722
5.58623
5.58304
5.57838
5.57249
5.56551
5.55751
5.54827
5.53788
5.52642
5.51419
5.50133
5.48783
5.47379
5.45965
5.44777
5.44052
1.40001
1.40001
1.40001
1.40001
1.40001
1.40001
1.40001
1.40001
1.40001
1.40001
1.40001
1.40001
1.40001
1.40001
1.40001
1.40001
1.40001
1.40001
1.40001
1.40001
1.40001
1.40001
1.40001
1.40001
1.40001
1.40001
1.40001
1.40001
1.40001
1.40001
1.40001
1.40001
1.40001
1.40001
1.40001
1.40001
1.40001
1.40001
1.40001
1.40001
1.40001
1.40001
1.40001
1.40001
1.40001
1.40001
1.40001
1.40001
1.40001
1.40001
1.40001
2.90143
5.07392
5.29733
5.34113
5.37397
5.39917
5.42201
5.44067
5.45695
5.4712
5.48326
5.49204
5.49965
5.50601
5.51103
5.51496
5.51827
5.52132
5.52423
5.52679
5.52884
5.53099
5.53462
5.5392
5.54363
5.54853
5.55293
5.55582
5.55682
5.55506
5.55078
5.54444
5.53643
5.52702
5.51614
5.50355
5.48933
5.47351
5.45623
5.43715
5.41579
5.3929
5.371
5.35361
5.34668
1.40001
1.40001
1.40001
1.40001
1.40001
1.40001
1.40001
1.40001
1.40001
1.40001
1.40001
1.40001
1.40001
1.40001
1.40001
1.40001
1.40001
1.40001
1.40001
1.40001
1.40001
1.40001
1.40001
1.40001
1.40001
1.40001
1.40001
1.40001
1.40001
1.40001
1.40001
1.40001
1.40001
1.40001
1.40001
1.40001
1.40001
1.40001
1.40001
1.40001
1.40001
1.40001
1.40001
1.40001
1.40001
1.40001
1.40001
1.40001
1.40001
1.40001
1.40001
2.42192
4.92711
5.30764
5.3351
5.36662
5.3896
5.40758
5.42365
5.4391
5.45333
5.46594
5.47749
5.48784
5.49584
5.50224
5.50674
5.50965
5.51135
5.51225
5.51251
5.51212
5.51154
5.51244
5.5148
5.51723
5.52013
5.52273
5.52431
5.52437
5.52169
5.51618
5.50806
5.4978
5.48567
5.47157
5.4551
5.43625
5.41477
5.39057
5.36339
5.3334
5.30122
5.26849
5.23457
5.20699
1.40001
1.40001
1.40001
1.40001
1.40001
1.40001
1.40001
1.40001
1.40001
1.40001
1.40001
1.40001
1.40001
1.40001
1.40001
1.40001
1.40001
1.40001
1.40001
1.40001
1.40001
1.40001
1.40001
1.40001
1.40001
1.40001
1.40001
1.40001
1.40001
1.40001
1.40001
1.40001
1.40001
1.40001
1.40001
1.40001
1.40001
1.40001
1.40001
1.40001
1.40001
1.40001
1.40001
1.40001
1.40001
1.40001
1.40001
1.40001
1.40001
1.40001
1.40001
1.91716
4.74099
5.40635
5.36567
5.37316
5.38087
5.39253
5.40708
5.42194
5.43583
5.44825
5.45955
5.47
5.48
5.48838
5.49456
5.49866
5.50059
5.50075
5.49948
5.49698
5.49378
5.4916
5.49106
5.49116
5.49146
5.49178
5.49154
5.48998
5.48609
5.47914
5.46917
5.45655
5.44148
5.42377
5.40286
5.37853
5.35028
5.3179
5.28047
5.23625
5.18182
5.11731
5.05447
5.01043
1.40001
1.40001
1.40001
1.40001
1.40001
1.40001
1.40001
1.40001
1.40001
1.40001
1.40001
1.40001
1.40001
1.40001
1.40001
1.40001
1.40001
1.40001
1.40001
1.40001
1.40001
1.40001
1.40001
1.40001
1.40001
1.40001
1.40001
1.40001
1.40001
1.40001
1.40001
1.40001
1.40001
1.40001
1.40001
1.40001
1.40001
1.40001
1.40001
1.40001
1.40001
1.40001
1.40001
1.40001
1.40001
1.40001
1.40001
1.40001
1.40001
1.40001
1.40001
1.4766
4.36281
5.45477
5.3949
5.37725
5.37919
5.38843
5.39853
5.4088
5.41961
5.43066
5.44143
5.45151
5.46104
5.46998
5.47789
5.48386
5.48729
5.4881
5.48653
5.48278
5.47756
5.47235
5.46858
5.46592
5.46335
5.46085
5.4581
5.45438
5.4488
5.44021
5.42821
5.41301
5.39468
5.37297
5.34709
5.31653
5.28036
5.23753
5.18554
5.12117
5.04205
4.94693
4.84034
4.76189
1.40001
1.40001
1.40001
1.40001
1.40001
1.40001
1.40001
1.40001
1.40001
1.40001
1.40001
1.40001
1.40001
1.40001
1.40001
1.40001
1.40001
1.40001
1.40001
1.40001
1.40001
1.40001
1.40001
1.40001
1.40001
1.40001
1.40001
1.40001
1.40001
1.40001
1.40001
1.40001
1.40001
1.40001
1.40001
1.40001
1.40001
1.40001
1.40001
1.40001
1.40001
1.40001
1.40001
1.40001
1.40001
1.40001
1.40001
1.40001
1.40001
1.40001
1.40001
1.4007
3.8019
5.31181
5.32987
5.36404
5.37767
5.38779
5.39623
5.40256
5.40908
5.41632
5.42433
5.4327
5.44135
5.44997
5.458
5.46507
5.4702
5.47242
5.47174
5.4678
5.46164
5.4542
5.44724
5.44144
5.43599
5.43019
5.42429
5.4178
5.40983
5.39923
5.38505
5.36716
5.34541
5.31941
5.28813
5.25064
5.20538
5.15053
5.08258
4.99697
4.88212
4.70925
4.35982
3.44732
1.40001
1.40001
1.40001
1.40001
1.40001
1.40001
1.40001
1.40001
1.40001
1.40001
1.40001
1.40001
1.40001
1.40001
1.40001
1.40001
1.40001
1.40001
1.40001
1.40001
1.40001
1.40001
1.40001
1.40001
1.40001
1.40001
1.40001
1.40001
1.40001
1.40001
1.40001
1.40001
1.40001
1.40001
1.40001
1.40001
1.40001
1.40001
1.40001
1.40001
1.40001
1.40001
1.40001
1.40001
1.40001
1.40001
1.40001
1.40001
1.40001
1.40001
1.40001
1.39999
3.17914
5.13436
5.30182
5.35049
5.36963
5.38169
5.39153
5.39806
5.40262
5.40632
5.41068
5.41592
5.42214
5.42938
5.43699
5.44398
5.44972
5.45337
5.45415
5.45095
5.44489
5.43635
5.42698
5.41804
5.40948
5.40057
5.39107
5.38122
5.37022
5.35706
5.3404
5.31966
5.29425
5.26367
5.22665
5.18177
5.12684
5.05898
4.97304
4.8591
4.69923
4.44138
4.03141
3.0183
1.40001
1.40001
1.40001
1.40001
1.40001
1.40001
1.40001
1.40001
1.40001
1.40001
1.40001
1.40001
1.40001
1.40001
1.40001
1.40001
1.40001
1.40001
1.40001
1.40001
1.40001
1.40001
1.40001
1.40001
1.40001
1.40001
1.40001
1.40001
1.40001
1.40001
1.40001
1.40001
1.40001
1.40001
1.40001
1.40001
1.40001
1.40001
1.40001
1.40001
1.40001
1.40001
1.40001
1.40001
1.40001
1.40001
1.40001
1.40001
1.40001
1.40001
1.40001
1.4
2.59419
4.95925
5.29997
5.33371
5.35927
5.37474
5.38259
5.38977
5.3951
5.39821
5.40033
5.4025
5.40554
5.41007
5.41598
5.4221
5.42727
5.43107
5.43291
5.43098
5.42561
5.4171
5.40656
5.39518
5.38369
5.37186
5.35877
5.34508
5.33038
5.31389
5.29422
5.27043
5.24133
5.20616
5.16332
5.11096
5.04627
4.9655
4.86148
4.72418
4.52703
4.26003
3.72147
2.87482
1.40001
1.40001
1.40001
1.40001
1.40001
1.40001
1.40001
1.40001
1.40001
1.40001
1.40001
1.40001
1.40001
1.40001
1.40001
1.40001
1.40001
1.40001
1.40001
1.40001
1.40001
1.40001
1.40001
1.40001
1.40001
1.40001
1.40001
1.40001
1.40001
1.40001
1.40001
1.40001
1.40001
1.40001
1.40001
1.40001
1.40001
1.40001
1.40001
1.40001
1.40001
1.40001
1.40001
1.40001
1.40001
1.40001
1.40001
1.40001
1.40001
1.40001
1.40001
1.4
2.00747
4.76081
5.36098
5.33965
5.34817
5.35995
5.37101
5.38023
5.38679
5.39072
5.39245
5.39283
5.39304
5.3941
5.39693
5.40092
5.40467
5.40761
5.40929
5.4083
5.4037
5.39581
5.38514
5.37246
5.35858
5.34389
5.32765
5.31007
5.29126
5.2709
5.24766
5.22041
5.18752
5.14779
5.09921
5.03971
4.96568
4.87354
4.75407
4.59912
4.37957
4.07213
3.5413
2.8641
1.40001
1.40001
1.40001
1.40001
1.40001
1.40001
1.40001
1.40001
1.40001
1.40001
1.40001
1.40001
1.40001
1.40001
1.40001
1.40001
1.40001
1.40001
1.40001
1.40001
1.40001
1.40001
1.40001
1.40001
1.40001
1.40001
1.40001
1.40001
1.40001
1.40001
1.40001
1.40001
1.40001
1.40001
1.40001
1.40001
1.40001
1.40001
1.40001
1.40001
1.40001
1.40001
1.40001
1.40001
1.40001
1.40001
1.40001
1.40001
1.40001
1.40001
1.40001
1.40001
1.49902
4.36011
5.40767
5.35693
5.341
5.34723
5.35873
5.36764
5.37495
5.38006
5.38275
5.38325
5.38237
5.38105
5.38056
5.38133
5.38274
5.38388
5.38443
5.38325
5.37898
5.3715
5.36123
5.34836
5.33321
5.31633
5.29745
5.27643
5.2535
5.22878
5.20134
5.17001
5.13301
5.0889
5.03497
4.9692
4.887
4.78517
4.6544
4.48446
4.25656
3.92795
3.45541
2.90543
1.40001
1.40001
1.40001
1.40001
1.40001
1.40001
1.40001
1.40001
1.40001
1.40001
1.40001
1.40001
1.40001
1.40001
1.40001
1.40001
1.40001
1.40001
1.40001
1.40001
1.40001
1.40001
1.40001
1.40001
1.40001
1.40001
1.40001
1.40001
1.40001
1.40001
1.40001
1.40001
1.40001
1.40001
1.40001
1.40001
1.40001
1.40001
1.40001
1.40001
1.40001
1.40001
1.40001
1.40001
1.40001
1.40001
1.40001
1.40001
1.40001
1.40001
1.40001
1.40001
1.40116
3.72337
5.24357
5.29071
5.32016
5.33348
5.34498
5.35342
5.36095
5.36679
5.37059
5.37199
5.3714
5.36921
5.36657
5.36424
5.36264
5.36146
5.36007
5.35761
5.35295
5.34542
5.33532
5.32257
5.30696
5.28869
5.26768
5.24384
5.2172
5.18813
5.15617
5.12045
5.07906
5.03054
4.97172
4.90058
4.81189
4.70234
4.56403
4.38579
4.15458
3.8333
3.43257
2.97601
1.40001
1.40001
1.40001
1.40001
1.40001
1.40001
1.40001
1.40001
1.40001
1.40001
1.40001
1.40001
1.40001
1.40001
1.40001
1.40001
1.40001
1.40001
1.40001
1.40001
1.40001
1.40001
1.40001
1.40001
1.40001
1.40001
1.40001
1.40001
1.40001
1.40001
1.40001
1.40001
1.40001
1.40001
1.40001
1.40001
1.40001
1.40001
1.40001
1.40001
1.40001