/*--------------------------------*- C++ -*----------------------------------*\
  =========                 |
  \\      /  F ield         | OpenFOAM: The Open Source CFD Toolbox
   \\    /   O peration     | Website:  https://openfoam.org
    \\  /    A nd           | Version:  9
     \\/     M anipulation  |
\*---------------------------------------------------------------------------*/
FoamFile
{
    format      ascii;
    class       volVectorField;
    location    "0.3";
    object      U;
}
// * * * * * * * * * * * * * * * * * * * * * * * * * * * * * * * * * * * * * //

dimensions      [0 1 -1 0 0 0 0];

internalField   nonuniform List<vector> 
8500
(
(-0.000814052 -0.0025471 0)
(0.0362515 -0.0105367 -5.19677e-23)
(0.129716 -0.0177025 -2.53515e-24)
(0.251009 -0.0219072 2.66627e-37)
(0.38199 -0.0224466 -1.92819e-24)
(0.501813 -0.0204244 1.61717e-24)
(0.602885 -0.0173043 -5.09099e-24)
(0.684156 -0.0141517 -5.7144e-24)
(0.748094 -0.0114027 -4.26126e-24)
(0.798939 -0.00923701 -2.03163e-25)
(-0.000342649 -0.00764973 1.87625e-22)
(0.0382094 -0.0315752 4.71231e-23)
(0.133073 -0.0530074 1.499e-22)
(0.255147 -0.0655681 0)
(0.386192 -0.0671631 0)
(0.505587 -0.0611028 2.02108e-24)
(0.606037 -0.0517662 3.39371e-24)
(0.686707 -0.0423357 6.05375e-24)
(0.750117 -0.0341156 3.21065e-24)
(0.800607 -0.0276344 8.48032e-25)
(0.000605135 -0.0127771 -1.67839e-22)
(0.0421244 -0.0525087 0)
(0.13977 -0.0880124 -1.42558e-22)
(0.263393 -0.10877 0)
(0.394559 -0.111351 -8.39362e-24)
(0.513098 -0.101272 7.03969e-24)
(0.612308 -0.08579 0)
(0.691784 -0.0701629 0)
(0.754143 -0.0565516 0)
(0.803927 -0.0458029 0)
(0.0020391 -0.0179441 3.52024e-22)
(0.0479943 -0.0732657 -2.10571e-22)
(0.149779 -0.122518 -3.74394e-23)
(0.275691 -0.151209 -1.6832e-22)
(0.407018 -0.154666 -1.0692e-22)
(0.524273 -0.1406 4.79421e-24)
(0.621637 -0.11909 -4.02613e-24)
(0.699336 -0.0974005 2.92741e-23)
(0.760135 -0.0785302 5.09949e-25)
(0.808871 -0.0635927 1.96486e-23)
(0.00397359 -0.0231628 -3.52024e-22)
(0.0558154 -0.0937722 -2.82913e-22)
(0.163052 -0.156327 5.58535e-23)
(0.291953 -0.19259 2.18757e-22)
(0.423462 -0.196768 -2.42384e-23)
(0.539006 -0.178763 1.08611e-22)
(0.633931 -0.151389 0)
(0.709288 -0.123823 -3.27614e-23)
(0.768036 -0.0998764 -5.50425e-24)
(0.815393 -0.0808585 -2.89456e-23)
(0.00642703 -0.028442 8.8517e-23)
(0.0655821 -0.113951 4.57e-22)
(0.179528 -0.189242 -3.07067e-22)
(0.312065 -0.232624 9.53489e-24)
(0.443748 -0.237334 -1.27355e-22)
(0.557154 -0.215453 4.48548e-23)
(0.649067 -0.182421 -1.0268e-23)
(0.721541 -0.149215 5.30171e-23)
(0.777774 -0.120423 -7.76947e-24)
(0.823436 -0.0974607 1.78224e-23)
(0.00942137 -0.0337862 4.83231e-23)
(0.0772861 -0.133722 0)
(0.199131 -0.221069 -2.25279e-23)
(0.335887 -0.27103 0)
(0.467703 -0.276053 2.23287e-22)
(0.578546 -0.250376 -1.22713e-22)
(0.666898 -0.211939 0)
(0.735974 -0.173375 6.9483e-24)
(0.78926 -0.140015 0)
(0.832929 -0.113267 0)
(0.0129814 -0.0391944 -8.29642e-22)
(0.0909156 -0.152999 -6.34263e-23)
(0.221769 -0.251617 4.18051e-22)
(0.363251 -0.307541 4.81241e-23)
(0.495122 -0.312634 -2.61975e-22)
(0.60298 -0.283261 -1.18324e-22)
(0.687251 -0.23971 -1.33403e-23)
(0.752448 -0.196115 7.86987e-23)
(0.80239 -0.158505 -1.03967e-23)
(0.84379 -0.128155 6.06122e-24)
(0.017134 -0.0446603 9.27254e-22)
(0.106454 -0.171692 -6.22712e-22)
(0.247333 -0.280699 -1.4443e-22)
(0.393966 -0.341904 7.36442e-23)
(0.525774 -0.346807 2.7471e-22)
(0.630228 -0.313858 1.75387e-22)
(0.709931 -0.265522 -1.51577e-23)
(0.770803 -0.217266 3.13508e-23)
(0.817046 -0.175763 -2.14377e-23)
(0.855922 -0.142012 8e-24)
(0.021907 -0.0501709 9.18553e-22)
(0.12388 -0.189706 6.08239e-22)
(0.275701 -0.308132 -8.03375e-22)
(0.427819 -0.373882 -7.95121e-23)
(0.559401 -0.378323 0)
(0.660041 -0.341943 0)
(0.734723 -0.289188 0)
(0.790863 -0.236677 -2.87019e-22)
(0.833101 -0.191671 -1.02586e-22)
(0.869214 -0.154738 6.69359e-23)
(0.0273287 -0.0557068 -1.88694e-21)
(0.143165 -0.206941 0)
(0.306733 -0.333737 1.86234e-21)
(0.464574 -0.403253 6.0904e-22)
(0.595726 -0.40696 5.31591e-23)
(0.692149 -0.367317 0)
(0.761396 -0.310542 -2.72894e-22)
(0.812441 -0.254216 1.5277e-22)
(0.850414 -0.206129 1.02586e-22)
(0.883536 -0.16625 -6.69358e-23)
(0.0334264 -0.0612416 1.08368e-21)
(0.164273 -0.223292 -9.67865e-23)
(0.340276 -0.357343 -9.63951e-22)
(0.503977 -0.429817 -6.78337e-22)
(0.634449 -0.432524 0)
(0.726265 -0.389812 4.93471e-22)
(0.789707 -0.329443 -3.18649e-23)
(0.835336 -0.269775 1.72481e-22)
(0.868836 -0.219046 1.46318e-22)
(0.898739 -0.176482 -8.29289e-23)
(0.0402258 -0.0667419 -9.1084e-24)
(0.187159 -0.238649 1.61805e-21)
(0.376159 -0.378788 -1.45893e-22)
(0.545757 -0.453391 6.39349e-22)
(0.675259 -0.454847 2.8959e-22)
(0.762093 -0.409288 1.84966e-22)
(0.819401 -0.345776 2.92564e-22)
(0.859339 -0.283262 -2.22912e-22)
(0.888207 -0.230347 -9.88596e-23)
(0.914653 -0.185385 5.75428e-23)
(0.0477493 -0.0721677 0)
(0.211769 -0.252899 -1.36024e-21)
(0.414199 -0.397914 -1.55306e-22)
(0.589625 -0.473818 5.55939e-23)
(0.717831 -0.473793 4.45502e-22)
(0.799326 -0.425634 -4.81401e-22)
(0.850219 -0.35945 3.58247e-22)
(0.884238 -0.294609 -3.29629e-23)
(0.908359 -0.239964 0)
(0.931089 -0.19293 0)
(0.0560159 -0.0774722 1.45505e-22)
(0.238037 -0.265925 -1.73492e-21)
(0.454197 -0.414578 0)
(0.635284 -0.490961 -3.14576e-23)
(0.76183 -0.489253 7.38767e-23)
(0.837653 -0.43877 0)
(0.881897 -0.370402 -3.71527e-22)
(0.909816 -0.303765 -2.58412e-22)
(0.92912 -0.247837 3.61965e-23)
(0.947855 -0.199103 -3.05159e-23)
(0.0650393 -0.0826023 -1.43513e-22)
(0.265886 -0.277608 1.8554e-21)
(0.49594 -0.428643 0)
(0.682423 -0.504706 -9.21833e-22)
(0.806919 -0.501149 7.93718e-23)
(0.876763 -0.448645 -7.00739e-22)
(0.914172 -0.378591 -4.68149e-23)
(0.93586 -0.310699 2.97779e-22)
(0.950317 -0.253912 0)
(0.964761 -0.203898 2.32938e-22)
(0.0748276 -0.0874995 -2.48227e-21)
(0.295226 -0.287829 -1.26797e-22)
(0.539203 -0.43999 -1.55223e-22)
(0.730724 -0.514966 1.29892e-22)
(0.852758 -0.509435 -1.20513e-21)
(0.916346 -0.455237 7.0074e-22)
(0.946783 -0.384002 4.739e-22)
(0.962164 -0.315396 3.0247e-22)
(0.971782 -0.25814 3.96598e-22)
(0.981611 -0.207308 -2.03133e-22)
(0.0853821 -0.0921003 2.63331e-21)
(0.325953 -0.29647 0)
(0.583748 -0.44851 1.65876e-21)
(0.779864 -0.521679 -1.37645e-22)
(0.899007 -0.514093 2.4882e-21)
(0.956099 -0.458551 0)
(0.979477 -0.386645 -4.73901e-22)
(0.988529 -0.31786 2.14768e-23)
(0.993348 -0.26045 -4.41556e-22)
(0.998178 -0.209292 3.79004e-23)
(0.0966968 -0.0963371 0)
(0.35795 -0.303413 2.13177e-21)
(0.629327 -0.454109 -1.49427e-21)
(0.829517 -0.524805 0)
(0.945334 -0.515133 -1.28308e-21)
(0.995727 -0.458621 0)
(1.01201 -0.386554 5.39545e-22)
(1.01478 -0.31811 -3.23949e-22)
(1.01485 -0.260742 -4.44667e-22)
(1.01422 -0.209963 -2.80187e-22)
(0.108757 -0.100139 -3.47568e-22)
(0.391087 -0.308547 -1.83998e-21)
(0.675681 -0.456712 0)
(0.879357 -0.524332 0)
(0.991412 -0.512596 0)
(1.03495 -0.455505 -9.70802e-23)
(1.04416 -0.383788 -5.59516e-22)
(1.04076 -0.316169 -5.17652e-23)
(1.03616 -0.258973 4.44668e-22)
(1.02963 -0.210118 3.1619e-22)
(0.12154 -0.103433 0)
(0.425217 -0.311764 -2.32703e-21)
(0.722544 -0.45626 0)
(0.929058 -0.520275 0)
(1.03692 -0.506546 0)
(1.07348 -0.449288 1.02342e-22)
(1.07569 -0.37843 -7.50983e-22)
(1.06631 -0.312078 2.82631e-23)
(1.05716 -0.255354 3.64288e-22)
(1.0451 -0.210605 3.35658e-22)
(0.135014 -0.106144 0)
(0.460181 -0.312964 2.32703e-21)
(0.769642 -0.452714 -1.7955e-21)
(0.9783 -0.51267 0)
(1.08157 -0.497076 -1.57054e-21)
(1.11108 -0.440075 0)
(1.10641 -0.370577 6.00117e-22)
(1.09127 -0.305922 -4.00724e-22)
(1.07756 -0.250217 -4.8761e-22)
(1.06209 -0.208676 -3.23765e-22)
(0.149137 -0.108199 3.35049e-21)
(0.495807 -0.312058 0)
(0.816697 -0.446052 1.58744e-21)
(1.02677 -0.501581 1.7411e-22)
(1.12505 -0.484299 3.20347e-21)
(1.14749 -0.427991 0)
(1.13611 -0.360343 -6.5316e-22)
(1.11545 -0.297787 -8.17225e-22)
(1.09728 -0.243584 -4.66851e-22)
(1.0789 -0.204381 -1.39131e-23)
(0.163858 -0.109525 -3.55272e-21)
(0.53191 -0.308967 1.69768e-22)
(0.863426 -0.436275 2.15682e-22)
(1.07416 -0.487093 -1.80486e-22)
(1.1671 -0.468351 -1.63293e-21)
(1.1825 -0.41318 1.06988e-21)
(1.16462 -0.347853 6.53163e-22)
(1.13872 -0.287774 4.16502e-22)
(1.11626 -0.235514 5.25176e-22)
(1.09509 -0.19842 -3.97731e-22)
(0.179114 -0.110051 2.08587e-22)
(0.568291 -0.303626 2.50406e-21)
(0.909547 -0.423406 0)
(1.12018 -0.469316 -1.1959e-21)
(1.20746 -0.449388 -1.23926e-22)
(1.21589 -0.395799 -1.06988e-21)
(1.19178 -0.333243 7.59995e-23)
(1.16092 -0.276 3.7868e-22)
(1.13439 -0.226075 0)
(1.11057 -0.191073 3.61513e-22)
(0.194837 -0.109711 -2.25317e-22)
(0.604744 -0.295982 -2.67917e-21)
(0.954778 -0.407486 0)
(1.16455 -0.44838 1.16149e-22)
(1.24589 -0.427581 -1.27479e-22)
(1.24747 -0.37602 0)
(1.21743 -0.31666 -7.13664e-22)
(1.18192 -0.262583 -4.42591e-22)
(1.15159 -0.215337 -6.30317e-23)
(1.12524 -0.182481 -5.31228e-23)
(0.210947 -0.108442 0)
(0.641052 -0.286002 -3.15376e-21)
(0.99884 -0.388582 2.76114e-22)
(1.20699 -0.424437 -3.15035e-23)
(1.28218 -0.40312 -9.13291e-22)
(1.27708 -0.354025 -1.28098e-21)
(1.24144 -0.298255 8.19649e-22)
(1.20162 -0.24765 0)
(1.16776 -0.203378 0)
(1.13905 -0.172754 0)
(0.227353 -0.10619 1.09105e-23)
(0.676991 -0.273668 2.67467e-21)
(1.04146 -0.36678 2.8243e-22)
(1.24727 -0.397655 1.57046e-21)
(1.31612 -0.376206 7.8003e-22)
(1.30457 -0.330004 -1.47318e-22)
(1.26369 -0.27819 7.65342e-22)
(1.2199 -0.231332 -3.97558e-22)
(1.18281 -0.19029 -3.53344e-22)
(1.15192 -0.161996 2.42088e-22)
(0.24396 -0.102905 1.70753e-21)
(0.712331 -0.258982 1.9249e-22)
(1.08237 -0.342188 -2.16963e-21)
(1.28514 -0.368224 -1.45948e-21)
(1.34754 -0.347052 0)
(1.3298 -0.304156 1.17363e-21)
(1.28408 -0.256629 7.06046e-24)
(1.2367 -0.213762 5.168e-22)
(1.19668 -0.176172 2.45881e-22)
(1.16381 -0.150303 -1.8782e-22)
(0.260663 -0.0985491 -3.90066e-21)
(0.746839 -0.241966 0)
(1.12132 -0.314938 4.36778e-21)
(1.3204 -0.336346 1.29584e-21)
(1.3763 -0.31588 1.37081e-22)
(1.35267 -0.276682 0)
(1.30252 -0.23374 -7.4547e-22)
(1.25192 -0.195079 4.68674e-22)
(1.2093 -0.161126 2.8832e-22)
(1.17465 -0.137774 -1.83609e-22)
(0.277351 -0.0930901 1.96384e-21)
(0.78028 -0.222663 1.51013e-21)
(1.15805 -0.285179 -2.44859e-21)
(1.35285 -0.302238 2.09572e-22)
(1.40225 -0.282919 0)
(1.37308 -0.24779 0)
(1.31894 -0.209694 0)
(1.26551 -0.17542 -9.34832e-22)
(1.22061 -0.14526 -2.88322e-22)
(1.18441 -0.124506 1.83604e-22)
(0.293906 -0.0865083 1.76164e-21)
(0.812423 -0.201136 -1.48885e-21)
(1.19235 -0.25308 1.49515e-22)
(1.38232 -0.266132 0)
(1.42528 -0.248405 9.54143e-22)
(1.39097 -0.217687 5.31629e-22)
(1.3333 -0.184662 5.52291e-23)
(1.27742 -0.154926 -4.5146e-23)
(1.23058 -0.128684 7.35762e-23)
(1.19304 -0.110596 -2.61867e-23)
(0.310207 -0.0787947 -1.99997e-21)
(0.843036 -0.17747 1.79809e-22)
(1.22399 -0.218832 1.09428e-21)
(1.40865 -0.228266 -2.7131e-22)
(1.44531 -0.212577 -7.10638e-22)
(1.40627 -0.186581 -7.50642e-22)
(1.34553 -0.158817 5.48602e-23)
(1.28761 -0.133737 2.34518e-22)
(1.23916 -0.111509 0)
(1.20051 -0.0961412 -1.69781e-23)
(0.32613 -0.069952 -1.25682e-22)
(0.871896 -0.151771 0)
(1.25278 -0.182638 -1.99783e-24)
(1.43173 -0.188892 0)
(1.46227 -0.175675 9.41321e-22)
(1.41895 -0.154681 -5.85164e-22)
(1.35562 -0.132328 0)
(1.29606 -0.111993 5.56547e-24)
(1.24633 -0.0938469 0)
(1.2068 -0.0812384 0)
(0.341547 -0.0599951 -2.45775e-22)
(0.898787 -0.124166 1.63194e-21)
(1.27854 -0.144721 -1.24183e-21)
(1.45144 -0.148264 1.86717e-22)
(1.47611 -0.137943 -4.4296e-22)
(1.42899 -0.122193 -7.53671e-23)
(1.36356 -0.105364 0)
(1.30275 -0.0898306 1.73891e-22)
(1.25208 -0.075809 3.94577e-23)
(1.21189 -0.0659841 7.41051e-23)
(0.35633 -0.0489516 -9.95705e-22)
(0.923503 -0.0948034 -6.804e-22)
(1.30111 -0.105316 -1.99171e-22)
(1.4677 -0.106644 7.46329e-22)
(1.48681 -0.099619 5.87025e-23)
(1.43638 -0.0893181 5.7447e-22)
(1.36933 -0.078091 0)
(1.30767 -0.0673877 -2.05166e-22)
(1.25638 -0.0575056 2.62809e-23)
(1.21576 -0.0504744 -1.64579e-22)
(0.370353 -0.0368621 -9.95705e-22)
(0.945851 -0.0638491 6.72573e-22)
(1.32035 -0.0646703 -1.27599e-23)
(1.48046 -0.0642973 -8.53153e-22)
(1.49434 -0.0609428 -3.89172e-22)
(1.44114 -0.0562567 -3.00363e-23)
(1.37295 -0.0506719 2.52247e-23)
(1.31083 -0.0447978 2.26542e-22)
(1.25925 -0.0390457 -5.75969e-24)
(1.21842 -0.0348038 5.17458e-23)
(0.383491 -0.02378 -4.85667e-22)
(0.965655 -0.0314889 0)
(1.33616 -0.0230428 -5.31739e-22)
(1.48967 -0.0214889 0)
(1.49874 -0.0221492 -4.92126e-22)
(1.44329 -0.0232028 4.00369e-23)
(1.37444 -0.0232651 0)
(1.31224 -0.0221919 0)
(1.26069 -0.0205362 0)
(1.21986 -0.019066 0)
(0.395623 -0.00977156 4.26704e-22)
(0.982754 0.00207521 2.06802e-22)
(1.34843 0.0193002 5.3174e-22)
(1.49533 0.0215148 0)
(1.50002 0.0165314 0)
(1.44286 0.00965463 -1.38304e-23)
(1.37383 0.00397531 4.8654e-23)
(1.31192 0.000302522 4.26501e-23)
(1.2607 -0.00208204 2.84459e-23)
(1.2201 -0.00335253 -4.24079e-24)
(0.406635 0.00508435 -7.3695e-24)
(0.997007 0.0366261 -1.93061e-22)
(1.35711 0.0620857 8.76983e-24)
(1.49743 0.0644493 9.04584e-24)
(1.49822 0.0548742 -1.30873e-23)
(1.4399 0.042133 4.62098e-24)
(1.37115 0.0309005 -4.08443e-23)
(1.3099 0.0225614 -3.94508e-23)
(1.25932 0.0162139 -2.23114e-23)
(1.21915 0.0122479 8.49465e-27)
(0.416417 0.0206968 0)
(1.00829 0.0719333 -1.83824e-22)
(1.36215 0.105036 -5.28306e-24)
(1.49601 0.107053 1.15592e-23)
(1.49342 0.0926613 1.76775e-37)
(1.43447 0.0740565 -1.05418e-37)
(1.36646 0.0573665 -3.54603e-23)
(1.30621 0.0444628 -3.21218e-23)
(1.25659 0.0342509 -1.77821e-23)
(1.21702 0.0276475 0)
(0.424869 0.0369633 4.92305e-22)
(1.01652 0.107755 1.51184e-22)
(1.36353 0.147872 4.95232e-22)
(1.49111 0.149071 -2.22082e-23)
(1.48567 0.129683 0)
(1.42664 0.105256 1.13962e-23)
(1.35982 0.0832331 2.23861e-23)
(1.30092 0.0658878 3.50684e-23)
(1.25252 0.0519331 1.48175e-23)
(1.21375 0.0427534 2.49719e-24)
(0.431901 0.053771 -4.3772e-22)
(1.0216 0.143841 0)
(1.36126 0.190314 -4.68695e-22)
(1.48281 0.190252 0)
(1.47506 0.165738 -3.67334e-23)
(1.41651 0.135567 3.0809e-23)
(1.3513 0.108363 0)
(1.29407 0.0867226 0)
(1.24716 0.069171 0)
(1.20936 0.0574934 0)
(0.437433 0.0709975 8.03911e-22)
(1.02348 0.179932 -5.45581e-22)
(1.35538 0.232082 -1.08658e-22)
(1.47119 0.230356 -4.27007e-22)
(1.46171 0.200629 -3.55421e-22)
(1.40418 0.16483 1.87404e-23)
(1.34099 0.132635 -1.57383e-23)
(1.28572 0.106868 7.56572e-23)
(1.24052 0.0858703 4.87394e-24)
(1.20389 0.0717794 -2.53757e-24)
(0.441398 0.0885116 -8.03911e-22)
(1.02215 0.215767 -6.24492e-22)
(1.34595 0.272905 1.47706e-22)
(1.45634 0.269146 5.04311e-22)
(1.44574 0.234169 -1.75871e-23)
(1.38974 0.192899 3.02188e-22)
(1.32894 0.155928 0)
(1.27593 0.126221 -8.454e-23)
(1.23268 0.101943 -1.57401e-24)
(1.19739 0.0855277 2.13048e-23)
(0.443742 0.106175 1.81599e-22)
(1.0176 0.251076 1.09906e-21)
(1.33305 0.312518 -6.57662e-22)
(1.43838 0.306396 -1.19643e-22)
(1.42727 0.266179 -2.32915e-22)
(1.37329 0.219638 3.18129e-23)
(1.31525 0.178125 -2.36571e-23)
(1.26479 0.144682 4.90357e-23)
(1.22369 0.117303 -6.60448e-24)
(1.18989 0.0986557 -1.5995e-23)
(0.444427 0.123843 8.67301e-23)
(1.00987 0.285597 0)
(1.31674 0.350654 5.92818e-23)
(1.41746 0.341901 0)
(1.40645 0.296489 4.98378e-22)
(1.35496 0.244915 -2.59943e-22)
(1.30003 0.199117 0)
(1.25236 0.162154 -2.33304e-23)
(1.21362 0.131864 0)
(1.18147 0.11108 0)
(0.443427 0.141363 -1.23315e-21)
(0.999033 0.319085 -1.11664e-22)
(1.29707 0.387043 7.7559e-22)
(1.39378 0.375448 7.88177e-23)
(1.38341 0.324952 -4.76769e-22)
(1.33487 0.26861 -1.17277e-22)
(1.28337 0.218799 -1.49351e-23)
(1.23874 0.178545 -3.39118e-23)
(1.20253 0.145541 2.62076e-24)
(1.17216 0.122718 -1.27244e-23)
(0.440727 0.158569 1.37525e-21)
(0.985141 0.351297 -8.88755e-22)
(1.27423 0.421457 -2.09863e-22)
(1.36749 0.406828 1.04394e-22)
(1.35832 0.351432 3.70527e-22)
(1.31315 0.290609 1.81027e-22)
(1.26538 0.237073 -1.02742e-23)
(1.224 0.193766 -5.94243e-23)
(1.1905 0.158249 2.22909e-23)
(1.16206 0.133485 -1.2436e-23)
(0.436309 0.175295 1.00568e-21)
(0.968235 0.381966 8.7124e-22)
(1.24846 0.453686 -8.60598e-22)
(1.33877 0.435862 -9.12241e-23)
(1.33133 0.375799 0)
(1.28994 0.310809 0)
(1.24618 0.25385 0)
(1.20826 0.207733 1.78993e-22)
(1.17761 0.169905 1.4884e-22)
(1.15122 0.143298 -1.66988e-22)
(0.430164 0.191369 -1.88939e-21)
(0.948453 0.410838 0)
(1.21997 0.483518 1.79666e-21)
(1.3078 0.462401 4.19196e-22)
(1.30262 0.397937 0)
(1.26537 0.329119 0)
(1.22587 0.269049 1.06014e-22)
(1.1916 0.22037 -1.15566e-22)
(1.16393 0.180435 -1.48841e-22)
(1.13973 0.152086 1.66982e-22)
(0.42237 0.206634 9.8323e-22)
(0.925928 0.437655 -8.35528e-23)
(1.18891 0.510752 -8.27053e-22)
(1.27478 0.486303 -4.51964e-22)
(1.27235 0.41774 2.7448e-23)
(1.23959 0.345457 -7.036e-23)
(1.20457 0.282599 7.61034e-23)
(1.17411 0.231613 -1.96479e-22)
(1.14955 0.189777 -2.51325e-22)
(1.12766 0.15979 2.26062e-22)
(0.413028 0.22098 -2.4482e-24)
(0.900801 0.462195 1.03665e-21)
(1.1555 0.535195 -9.60778e-23)
(1.23992 0.507443 1.84658e-22)
(1.24072 0.435119 2.60422e-23)
(1.21274 0.359754 -1.34729e-22)
(1.1824 0.294444 -1.94442e-22)
(1.15589 0.241415 2.51102e-22)
(1.13454 0.197891 -2.94732e-22)
(1.11509 0.166374 -1.69996e-22)
(0.402178 0.234259 0)
(0.873279 0.484265 -9.01633e-22)
(1.11997 0.556679 -7.59031e-23)
(1.20345 0.525708 -1.10575e-22)
(1.2079 0.449996 -6.22327e-24)
(1.18497 0.371956 1.42618e-22)
(1.15947 0.304542 -3.49333e-22)
(1.13704 0.249746 0)
(1.11898 0.204759 0)
(1.10207 0.171831 0)
(0.38989 0.246332 5.28444e-23)
(0.843574 0.503682 -5.79464e-22)
(1.08255 0.575056 0)
(1.16558 0.541004 -1.06955e-22)
(1.17408 0.462311 -4.42413e-24)
(1.15643 0.382018 0)
(1.13589 0.312863 3.38591e-22)
(1.11764 0.256595 3.93868e-22)
(1.10292 0.210392 -8.60573e-23)
(1.08866 0.176173 7.24487e-23)
(0.37626 0.257066 -3.53383e-23)
(0.811912 0.520275 6.09133e-22)
(1.0435 0.590203 0)
(1.12656 0.553253 3.61673e-23)
(1.13946 0.472014 -1.53681e-23)
(1.12727 0.389912 5.14074e-22)
(1.1118 0.319391 5.99035e-23)
(1.09778 0.261967 -4.44243e-22)
(1.08643 0.214815 0)
(1.07489 0.179418 -6.95178e-22)
(0.361398 0.266344 -1.20218e-22)
(0.778528 0.533896 -1.54847e-23)
(1.00308 0.602013 1.48512e-23)
(1.08662 0.562395 -1.24282e-23)
(1.10423 0.479072 6.22548e-22)
(1.09765 0.395616 -5.14077e-22)
(1.08732 0.324119 -5.78929e-22)
(1.07756 0.265873 -5.09205e-22)
(1.06956 0.218057 -8.74098e-22)
(1.0608 0.181569 6.09001e-22)
(0.345428 0.274053 1.38663e-22)
(0.743672 0.544416 0)
(0.961561 0.610403 -3.00347e-22)
(1.046 0.568386 2.80918e-23)
(1.06859 0.483463 -1.40545e-21)
(1.06774 0.39912 0)
(1.06258 0.327045 5.78933e-22)
(1.05709 0.268324 -5.76203e-23)
(1.05236 0.220127 9.89643e-22)
(1.04646 0.182588 -9.72569e-23)
(0.328484 0.280098 0)
(0.707606 0.551727 -2.81992e-22)
(0.919215 0.615311 2.66779e-22)
(1.00495 0.5712 0)
(1.03274 0.485181 7.82901e-22)
(1.03769 0.400425 0)
(1.03773 0.328175 -7.3876e-22)
(1.03648 0.269335 5.66831e-22)
(1.03491 0.221018 1.04363e-21)
(1.03207 0.182391 8.69036e-22)
(0.310711 0.284394 6.59304e-23)
(0.6706 0.555747 2.26641e-22)
(0.876324 0.616694 0)
(0.963717 0.57083 0)
(0.996875 0.484229 0)
(1.00768 0.399537 1.14617e-22)
(1.01289 0.327518 5.45342e-22)
(1.01584 0.268921 8.17074e-23)
(1.01739 0.220766 -1.04364e-21)
(1.01801 0.181067 -9.75824e-22)
(0.292264 0.286872 0)
(0.63293 0.556414 7.13454e-22)
(0.833171 0.614535 0)
(0.922536 0.567281 0)
(0.961201 0.480625 0)
(0.977856 0.396473 -1.27391e-22)
(0.988214 0.325086 1.10822e-21)
(0.995309 0.267088 -2.64604e-22)
(1.00017 0.21949 -9.14585e-22)
(1.00466 0.178905 -9.69943e-22)
(0.273304 0.287476 0)
(0.59488 0.553692 -7.13455e-22)
(0.79004 0.608835 9.03393e-22)
(0.881653 0.560581 0)
(0.925911 0.474398 1.40912e-21)
(0.94839 0.391256 0)
(0.963835 0.320889 -8.94965e-22)
(0.975063 0.263784 7.90808e-22)
(0.98344 0.217066 1.20517e-21)
(0.991704 0.17699 9.70676e-22)
(0.253998 0.286168 -1.57402e-21)
(0.556734 0.54757 0)
(0.747212 0.599619 -7.77994e-22)
(0.841307 0.550769 -1.04944e-22)
(0.891196 0.46559 -2.96744e-21)
(0.919437 0.383921 0)
(0.939883 0.314952 1.0448e-21)
(0.955184 0.259019 5.28496e-23)
(0.967003 0.213329 1.1983e-21)
(0.978377 0.174254 1.71288e-24)
(0.234518 0.282926 1.67399e-21)
(0.518779 0.538059 -8.39208e-23)
(0.704966 0.586934 -1.42803e-22)
(0.801733 0.537906 -1.19506e-22)
(0.857245 0.454256 1.55832e-21)
(0.891151 0.374512 -1.38571e-21)
(0.916484 0.307307 -1.0448e-21)
(0.93577 0.25283 -8.43664e-22)
(0.950938 0.208343 -1.35933e-21)
(0.965064 0.170476 1.27439e-21)
(0.215038 0.277744 -1.15845e-22)
(0.481299 0.525196 -1.43649e-21)
(0.663576 0.570846 0)
(0.76316 0.522065 9.8458e-22)
(0.824241 0.440464 1.11414e-22)
(0.863679 0.363086 1.38572e-21)
(0.893761 0.297996 -1.40557e-22)
(0.916923 0.245252 -8.25843e-22)
(0.935336 0.202178 0)
(0.95198 0.165679 -1.13446e-21)
(0.195731 0.270634 1.39932e-22)
(0.444574 0.509043 1.53375e-21)
(0.623311 0.551443 0)
(0.725809 0.503337 -4.7985e-23)
(0.79236 0.424293 1.20905e-22)
(0.837165 0.349706 0)
(0.871833 0.287073 1.25187e-21)
(0.898739 0.236331 9.44042e-22)
(0.920274 0.194884 1.86392e-22)
(0.93926 0.15992 -1.56984e-22)
(0.176772 0.261623 0)
(0.40888 0.489684 2.13489e-21)
(0.584429 0.528834 -1.92003e-22)
(0.689893 0.481828 9.19e-23)
(0.761772 0.405835 1.05255e-21)
(0.811746 0.33445 1.86414e-21)
(0.850813 0.274598 -1.41762e-21)
(0.881311 0.226118 0)
(0.905829 0.186511 0)
(0.927012 0.153241 0)
(0.158332 0.250758 -1.03168e-23)
(0.374482 0.467227 -1.78928e-21)
(0.54718 0.503146 2.094e-22)
(0.655618 0.45766 -1.4713e-21)
(0.732639 0.385193 -9.13935e-22)
(0.787553 0.317401 2.91951e-22)
(0.830809 0.260642 -1.38573e-21)
(0.864726 0.214672 9.41234e-22)
(0.892074 0.177112 1.04907e-21)
(0.915326 0.145682 -8.34467e-22)
(0.140577 0.238098 -1.35498e-21)
(0.341639 0.441801 -1.45567e-22)
(0.511804 0.474525 1.8624e-21)
(0.623179 0.430968 1.47456e-21)
(0.705116 0.362482 0)
(0.76471 0.298654 -1.75133e-21)
(0.811924 0.245283 -5.58948e-23)
(0.84907 0.20206 -1.21127e-21)
(0.87908 0.166741 -7.35608e-22)
(0.904275 0.137287 6.64731e-22)
(0.123669 0.223722 3.15851e-21)
(0.310596 0.413559 0)
(0.478526 0.443136 -3.83445e-21)
(0.592759 0.4019 -1.29031e-21)
(0.679347 0.337825 -1.54354e-22)
(0.743335 0.278311 0)
(0.794253 0.228604 1.43047e-21)
(0.834421 0.188351 -1.15481e-21)
(0.866916 0.155459 -9.0226e-22)
(0.893927 0.128109 7.05295e-22)
(0.107761 0.207723 -1.63014e-21)
(0.281584 0.382673 -1.26575e-21)
(0.447558 0.40916 2.21758e-21)
(0.564531 0.370619 -2.05484e-22)
(0.655469 0.311358 0)
(0.723538 0.256484 0)
(0.777888 0.210699 0)
(0.820856 0.173623 2.34345e-21)
(0.855646 0.143329 9.02263e-22)
(0.88434 0.118201 -7.05295e-22)
(0.0929975 0.190206 -1.60147e-21)
(0.254819 0.349332 1.25162e-21)
(0.419099 0.372793 1.34288e-22)
(0.538653 0.337298 0)
(0.633606 0.283224 -1.3153e-21)
(0.70542 0.233289 -8.96096e-22)
(0.762912 0.191663 -1.0136e-22)
(0.808442 0.157956 1.75914e-22)
(0.845327 0.130418 -2.35455e-22)
(0.875567 0.107622 9.53082e-23)
(0.0795139 0.171293 1.80957e-21)
(0.230502 0.313745 -1.67631e-22)
(0.393329 0.334247 -1.39694e-21)
(0.515271 0.30212 3.18813e-22)
(0.613875 0.253575 9.80941e-22)
(0.689073 0.208853 1.27567e-21)
(0.749401 0.171601 -1.04187e-22)
(0.797244 0.141437 -5.95961e-22)
(0.836015 0.116797 0)
(0.867653 0.0964331 9.08271e-23)
(0.0674328 0.151118 1.20141e-22)
(0.208813 0.276138 0)
(0.370411 0.293746 -3.60182e-23)
(0.494516 0.265282 0)
(0.596377 0.22257 -1.38926e-21)
(0.674582 0.183305 1.06835e-21)
(0.737424 0.150621 0)
(0.787317 0.124156 1.19964e-23)
(0.827758 0.10254 0)
(0.860639 0.0846998 0)
(0.0568645 0.129824 2.40862e-22)
(0.189913 0.236749 -1.57714e-21)
(0.35049 0.251526 1.30104e-21)
(0.476506 0.226984 -2.27828e-22)
(0.581205 0.190377 6.02784e-22)
(0.66202 0.156783 1.62055e-22)
(0.727043 0.128836 0)
(0.778713 0.106207 -4.81161e-22)
(0.820599 0.0877263 -1.29829e-22)
(0.854562 0.0724894 -3.88628e-22)
(0.0479057 0.107566 1.0294e-21)
(0.173944 0.195829 -2.32822e-21)
(0.333694 0.207834 2.21696e-22)
(0.461341 0.18744 -9.43797e-22)
(0.568439 0.157167 -1.05644e-22)
(0.651453 0.129428 -1.08892e-21)
(0.718309 0.106362 0)
(0.771475 0.0876856 6.54041e-22)
(0.814574 0.0724354 -1.21226e-22)
(0.849451 0.0598716 8.83791e-22)
(0.0406382 0.0845065 -1.0294e-21)
(0.161023 0.153643 8.50989e-22)
(0.320128 0.162924 -1.52135e-22)
(0.449106 0.146865 1.10926e-21)
(0.558145 0.123119 6.2658e-22)
(0.642933 0.101385 6.67678e-23)
(0.711269 0.0833205 -5.6072e-23)
(0.76564 0.0686932 -7.33101e-22)
(0.809717 0.0567508 5.32072e-24)
(0.845332 0.0469179 -2.9376e-22)
(0.0351285 0.0608171 5.30733e-22)
(0.151248 0.110462 0)
(0.309877 0.117061 6.24938e-22)
(0.439869 0.105484 0)
(0.550377 0.0884141 8.80885e-23)
(0.636505 0.0728049 -7.38819e-23)
(0.705956 0.0598342 0)
(0.761238 0.0493318 0)
(0.806052 0.0407579 0)
(0.842225 0.0337015 0)
(0.0314271 0.0366732 -4.65993e-22)
(0.14469 0.066565 -1.70383e-22)
(0.303007 0.0705121 -6.24938e-22)
(0.433682 0.0635228 0)
(0.545176 0.0532377 0)
(0.632201 0.043838 3.39337e-23)
(0.7024 0.0360286 -1.37182e-22)
(0.758291 0.0297054 -1.67061e-22)
(0.803597 0.0245436 -1.60071e-22)
(0.840145 0.0202965 2.61269e-23)
(0.029568 0.012255 -8.37685e-24)
(0.1414 0.0222364 1.84674e-22)
(0.299562 0.02355 -8.82305e-24)
(0.43058 0.0212131 3.03449e-23)
(0.542568 0.0177775 -1.21576e-23)
(0.630043 0.0146386 0)
(0.700617 0.0120309 1.08684e-22)
(0.756813 0.00991956 1.67061e-22)
(0.802367 0.00819602 1.21274e-22)
(0.839102 0.00677814 1.86396e-23)
(0.029568 -0.012255 -8.37685e-24)
(0.1414 -0.0222364 1.84674e-22)
(0.299562 -0.02355 -8.82305e-24)
(0.43058 -0.0212131 3.03449e-23)
(0.542568 -0.0177775 -1.21576e-23)
(0.630043 -0.0146386 0)
(0.700617 -0.0120309 9.56313e-23)
(0.756813 -0.00991956 1.78037e-22)
(0.802367 -0.00819602 1.2905e-22)
(0.839102 -0.00677814 0)
(0.0314271 -0.0366732 -5.95473e-22)
(0.14469 -0.066565 -2.23109e-22)
(0.303007 -0.0705121 -6.6261e-22)
(0.433682 -0.0635228 3.15262e-23)
(0.545176 -0.0532377 0)
(0.632201 -0.043838 -3.39337e-23)
(0.7024 -0.0360286 -8.01865e-23)
(0.758291 -0.0297054 -1.67061e-22)
(0.803597 -0.0245436 -9.80277e-23)
(0.840145 -0.0202965 -2.61269e-23)
(0.0351285 -0.0608171 5.30733e-22)
(0.151248 -0.110462 0)
(0.309877 -0.117061 6.24938e-22)
(0.439869 -0.105484 0)
(0.550377 -0.0884141 8.80885e-23)
(0.636505 -0.0728049 -7.38819e-23)
(0.705956 -0.0598342 0)
(0.761238 -0.0493318 0)
(0.806052 -0.0407579 0)
(0.842225 -0.0337015 0)
(0.0406382 -0.0845065 -1.0294e-21)
(0.161023 -0.153643 6.63421e-22)
(0.320128 -0.162924 1.52135e-22)
(0.449106 -0.146865 7.59135e-22)
(0.558145 -0.123119 8.16542e-22)
(0.642933 -0.101385 -6.67678e-23)
(0.711269 -0.0833205 5.6072e-23)
(0.76564 -0.0686932 -5.74983e-22)
(0.809717 -0.0567508 -5.32072e-24)
(0.845332 -0.0469179 -4.92371e-22)
(0.0479057 -0.107566 1.0294e-21)
(0.173944 -0.195829 8.13809e-22)
(0.333694 -0.207834 -2.21696e-22)
(0.461341 -0.18744 -9.24593e-22)
(0.568439 -0.157167 8.13016e-23)
(0.651453 -0.129428 -1.08892e-21)
(0.718309 -0.106362 0)
(0.771475 -0.0876856 6.54041e-22)
(0.814574 -0.0724354 1.21226e-22)
(0.849451 -0.0598716 6.79596e-22)
(0.0568645 -0.129824 -2.40862e-22)
(0.189913 -0.236749 1.57714e-21)
(0.35049 -0.251526 1.01789e-21)
(0.476506 -0.226984 2.27828e-22)
(0.581205 -0.190377 7.56964e-22)
(0.66202 -0.156783 -2.50537e-22)
(0.727043 -0.128836 1.08856e-22)
(0.778713 -0.106207 -7.89546e-22)
(0.820599 -0.0877263 1.29829e-22)
(0.854562 -0.0724894 -3.88628e-22)
(0.0674328 -0.151118 -1.20141e-22)
(0.208813 -0.276138 0)
(0.370411 -0.293746 -3.60182e-23)
(0.494516 -0.265282 0)
(0.596377 -0.22257 -1.38926e-21)
(0.674582 -0.183305 1.06835e-21)
(0.737424 -0.150621 0)
(0.787317 -0.124156 1.19964e-23)
(0.827758 -0.10254 0)
(0.860639 -0.0846998 0)
(0.0795139 -0.171293 1.80957e-21)
(0.230502 -0.313745 1.67631e-22)
(0.393329 -0.334247 -9.83257e-22)
(0.515271 -0.30212 -2.07252e-22)
(0.613875 -0.253575 1.64966e-21)
(0.689073 -0.208853 7.57913e-22)
(0.749401 -0.171601 1.04187e-22)
(0.797244 -0.141437 -7.44577e-22)
(0.836015 -0.116797 1.25134e-22)
(0.867653 -0.0964331 -9.08271e-23)
(0.0929975 -0.190206 -2.01767e-21)
(0.254819 -0.349332 1.27989e-21)
(0.419099 -0.372793 1.22335e-22)
(0.538653 -0.337298 -2.14758e-22)
(0.633606 -0.283224 -1.3153e-21)
(0.70542 -0.233289 -1.13749e-21)
(0.762912 -0.191663 1.0136e-22)
(0.808442 -0.157956 -1.14565e-22)
(0.845327 -0.130418 2.35455e-22)
(0.875567 -0.107622 -9.53082e-23)
(0.107761 -0.207723 -1.63014e-21)
(0.281584 -0.382673 -1.26575e-21)
(0.447558 -0.40916 1.7265e-21)
(0.564531 -0.370619 2.05484e-22)
(0.655469 -0.311358 0)
(0.723538 -0.256484 0)
(0.777888 -0.210699 0)
(0.820856 -0.173623 2.34345e-21)
(0.855646 -0.143329 9.02263e-22)
(0.88434 -0.118201 -7.05295e-22)
(0.123669 -0.223722 3.15851e-21)
(0.310596 -0.413559 0)
(0.478526 -0.443136 -3.83445e-21)
(0.592759 -0.4019 -1.47457e-21)
(0.679347 -0.337825 0)
(0.743335 -0.278311 0)
(0.794253 -0.228604 1.43047e-21)
(0.834421 -0.188351 -1.15481e-21)
(0.866916 -0.155459 -9.0226e-22)
(0.893927 -0.128109 7.05295e-22)
(0.140577 -0.238098 -1.70176e-21)
(0.341639 -0.441801 1.45567e-22)
(0.511804 -0.474525 1.8624e-21)
(0.623179 -0.430968 1.64974e-21)
(0.705116 -0.362482 -1.46751e-22)
(0.76471 -0.298654 -1.75133e-21)
(0.811924 -0.245283 -5.58948e-23)
(0.84907 -0.20206 -9.45392e-22)
(0.87908 -0.166741 -9.59472e-22)
(0.904275 -0.137287 6.64731e-22)
(0.158332 -0.250758 1.03168e-23)
(0.374482 -0.467227 -2.02131e-21)
(0.54718 -0.503146 -2.094e-22)
(0.655618 -0.45766 -1.14036e-21)
(0.732639 -0.385193 -9.27802e-22)
(0.787553 -0.317401 -3.43776e-22)
(0.830809 -0.260642 -1.3634e-21)
(0.864726 -0.214672 1.21542e-21)
(0.892074 -0.177112 6.46004e-22)
(0.915326 -0.145682 -4.94995e-22)
(0.176772 -0.261623 0)
(0.40888 -0.489684 1.6757e-21)
(0.584429 -0.528834 1.92003e-22)
(0.689893 -0.481828 9.19e-23)
(0.761772 -0.405835 1.05255e-21)
(0.811746 -0.33445 1.46943e-21)
(0.850813 -0.274598 -1.24205e-21)
(0.881311 -0.226118 1.3111e-22)
(0.905829 -0.186511 0)
(0.927012 -0.153241 0)
(0.195731 -0.270634 -1.39932e-22)
(0.444574 -0.509043 1.53375e-21)
(0.623311 -0.551443 0)
(0.725809 -0.503337 2.4067e-22)
(0.79236 -0.424293 -1.20905e-22)
(0.837165 -0.349706 0)
(0.871833 -0.287073 1.25187e-21)
(0.898739 -0.236331 9.44042e-22)
(0.920274 -0.194884 -1.86392e-22)
(0.93926 -0.15992 1.56984e-22)
(0.215038 -0.277744 1.15845e-22)
(0.481299 -0.525196 -1.631e-21)
(0.663576 -0.570846 0)
(0.76316 -0.522065 1.25058e-21)
(0.824241 -0.440464 -1.11414e-22)