/*--------------------------------*- C++ -*----------------------------------*\
  =========                 |
  \\      /  F ield         | OpenFOAM: The Open Source CFD Toolbox
   \\    /   O peration     | Website:  https://openfoam.org
    \\  /    A nd           | Version:  7
     \\/     M anipulation  |
\*---------------------------------------------------------------------------*/
FoamFile
{
    version     2.0;
    format      ascii;
    class       surfaceScalarField;
    location    "0.7";
    object      phi;
}
// * * * * * * * * * * * * * * * * * * * * * * * * * * * * * * * * * * * * * //

dimensions      [0 3 -1 0 0 0 0];

internalField   nonuniform List<scalar> 
21785
(
-8.47567e-14
1.16476e-13
-8.03679e-13
-4.07048e-13
-9.80361e-13
-8.07428e-13
-8.15192e-13
-1.08827e-12
-3.85335e-13
-1.34103e-12
3.45202e-13
-1.6356e-12
1.53801e-12
-2.03734e-12
8.09077e-13
-2.64324e-12
8.80135e-13
-2.52278e-12
2.41637e-12
-2.3134e-12
3.73936e-12
-2.22977e-12
5.09956e-12
-2.245e-12
6.59255e-12
-2.345e-12
8.30394e-12
-2.53266e-12
1.03512e-11
-2.84379e-12
1.07393e-11
-3.27375e-12
1.14246e-11
-3.14204e-12
1.34831e-11
-2.78246e-12
1.53885e-11
-2.52902e-12
1.73103e-11
-2.47639e-12
1.92178e-11
-2.55648e-12
2.10861e-11
-2.65441e-12
2.29784e-11
-2.73839e-12
2.50415e-11
-2.86516e-12
2.56599e-11
-3.06303e-12
2.68482e-11
-2.803e-12
2.8881e-11
-2.57925e-12
3.06767e-11
-2.41698e-12
3.23548e-11
-2.30057e-12
3.39722e-11
-2.21043e-12
3.55653e-11
-2.14996e-12
3.71836e-11
-2.15e-12
3.78115e-11
-2.2053e-12
3.86164e-11
-1.99129e-12
3.99913e-11
-1.77495e-12
4.11737e-11
-1.59437e-12
4.2231e-11
-1.44308e-12
4.31827e-11
-1.30599e-12
4.40357e-11
-1.1764e-12
4.47875e-11
-1.0616e-12
4.51376e-11
-9.57299e-13
4.54032e-11
-7.91093e-13
4.58585e-11
-6.34591e-13
4.61987e-11
-4.85501e-13
-3.36193e-13
4.64253e-11
-5.52745e-13
-4.64689e-13
-1.49201e-12
-1.49155e-12
-1.68511e-12
-2.45258e-12
-1.24974e-12
-3.31365e-12
-2.6116e-13
-4.11814e-12
1.24631e-12
-4.92496e-12
3.20467e-12
-5.75621e-12
3.47388e-12
-6.52435e-12
4.33535e-12
-6.95933e-12
7.49306e-12
-7.12296e-12
1.07776e-11
-7.31665e-12
1.43184e-11
-7.59659e-12
1.81699e-11
-7.95343e-12
2.23532e-11
-8.36951e-12
2.678e-11
-8.81791e-12
2.96729e-11
-9.18484e-12
3.26223e-11
-9.52963e-12
3.74224e-11
-9.25221e-12
4.22116e-11
-8.93209e-12
4.71678e-11
-8.80321e-12
5.22367e-11
-8.86799e-12
5.73028e-11
-8.99003e-12
6.23182e-11
-9.10398e-12
6.72639e-11
-9.20034e-12
7.07427e-11
-9.19919e-12
7.43776e-11
-8.92007e-12
7.92971e-11
-8.57915e-12
8.40192e-11
-8.23608e-12
8.8569e-11
-7.9195e-12
9.29518e-11
-7.62334e-12
9.71579e-11
-7.3481e-12
1.01145e-10
-7.09545e-12
1.03998e-10
-6.80743e-12
1.06665e-10
-6.38221e-12
1.10062e-10
-5.8879e-12
1.13185e-10
-5.39295e-12
1.16044e-10
-4.91615e-12
1.18628e-10
-4.45029e-12
1.20923e-10
-3.98664e-12
1.22901e-10
-3.52114e-12
1.24263e-10
-3.04281e-12
1.25279e-10
-2.53298e-12
1.26424e-10
-2.01611e-12
1.27295e-10
-1.49635e-12
-9.70226e-13
1.27871e-10
-7.34662e-13
-7.34726e-13
-1.70128e-12
-2.36522e-12
-1.78835e-12
-4.04682e-12
-1.07515e-12
-5.66999e-12
3.65182e-13
-7.21055e-12
2.47877e-12
-8.67447e-12
5.16193e-12
-1.00694e-11
6.36222e-12
-1.13296e-11
8.32872e-12
-1.23595e-11
1.27776e-11
-1.31106e-11
1.76297e-11
-1.38393e-11
2.29522e-11
-1.45767e-11
2.8756e-11
-1.53101e-11
3.49946e-11
-1.60111e-11
4.155e-11
-1.66496e-11
4.64241e-11
-1.72038e-11
5.20058e-11
-1.81056e-11
5.91816e-11
-1.81032e-11
6.63667e-11
-1.78805e-11
7.38155e-11
-1.77342e-11
8.15336e-11
-1.77911e-11
8.93279e-11
-1.79018e-11
9.7057e-11
-1.79908e-11
1.04644e-10
-1.80134e-11
1.10781e-10
-1.78984e-11
1.16846e-10
-1.75311e-11
1.2427e-10
-1.70432e-11
1.31511e-10
-1.65026e-11
1.38548e-10
-1.59403e-11
1.45338e-10
-1.53607e-11
1.51838e-10
-1.47649e-11
1.57991e-10
-1.41452e-11
1.62909e-10
-1.34633e-11
1.67465e-10
-1.26599e-11
1.72656e-10
-1.17699e-11
1.77479e-10
-1.08557e-11
1.81919e-10
-9.93194e-12
1.85949e-10
-8.9987e-12
1.89542e-10
-8.0534e-12
1.92658e-10
-7.09314e-12
1.94997e-10
-6.11165e-12
1.96804e-10
-5.09568e-12
1.98587e-10
-4.05342e-12
1.99942e-10
-2.99908e-12
-1.93306e-12
2.00844e-10
-7.63709e-13
-9.2094e-13
-1.68698e-12
-3.22291e-12
-1.59876e-12
-5.77045e-12
-5.62014e-13
-8.30073e-12
1.35027e-12
-1.07147e-11
4.06675e-12
-1.29883e-11
7.50887e-12
-1.51093e-11
9.56807e-12
-1.70496e-11
1.2658e-11
-1.87775e-11
1.8293e-11
-2.02498e-11
2.45299e-11
-2.16797e-11
3.1421e-11
-2.30182e-11
3.89572e-11
-2.42312e-11
4.7019e-11
-2.53068e-11
5.54852e-11
-2.62679e-11
6.18002e-11
-2.71879e-11
7.01372e-11
-2.8683e-11
7.95449e-11
-2.91414e-11
8.88828e-11
-2.91675e-11
9.84689e-11
-2.90432e-11
1.08467e-10
-2.91426e-11
1.18632e-10
-2.92292e-11
1.28772e-10
-2.92399e-11
1.38774e-10
-2.9149e-11
1.47347e-10
-2.89123e-11
1.55701e-10
-2.84714e-11
1.6541e-10
-2.7795e-11
1.74909e-10
-2.70164e-11
1.84167e-10
-2.61579e-11
1.93115e-10
-2.52266e-11
2.01693e-10
-2.4228e-11
2.09839e-10
-2.31555e-11
2.16662e-10
-2.19905e-11
2.23001e-10
-2.07015e-11
2.29852e-10
-1.93013e-11
2.36227e-10
-1.78613e-11
2.42107e-10
-1.63778e-11
2.4746e-10
-1.48538e-11
2.52248e-10
-1.32945e-11
2.56428e-10
-1.17024e-11
2.59696e-10
-1.0079e-11
2.62281e-10
-8.42063e-12
2.64687e-10
-6.7107e-12
2.66514e-10
-4.98102e-12
-3.23323e-12
2.67744e-10
-7.80529e-13
-1.08184e-12
-1.61572e-12
-4.13345e-12
-1.27272e-12
-7.72008e-12
1.64394e-13
-1.13027e-11
2.62001e-12
-1.47125e-11
5.99477e-12
-1.79224e-11
1.02258e-11
-2.09164e-11
1.31783e-11
-2.36874e-11
1.73605e-11
-2.61998e-11
2.41264e-11
-2.84635e-11
3.16809e-11
-3.07194e-11
4.006e-11
-3.27962e-11
4.92159e-11
-3.46419e-11
5.89278e-11
-3.62868e-11
6.90781e-11
-3.7799e-11
7.64644e-11
-3.92543e-11
8.75524e-11
-4.09161e-11
9.91534e-11
-4.196e-11
1.10638e-10
-4.24022e-11
1.22038e-10
-4.23063e-11
1.34076e-10
-4.26637e-11
1.46359e-10
-4.27904e-11
1.58659e-10
-4.27049e-11
1.7084e-10
-4.24465e-11
1.81602e-10
-4.20245e-11
1.92186e-10
-4.15984e-11
2.04026e-10
-4.06697e-11
2.15606e-10
-3.96129e-11
2.269e-10
-3.84126e-11
2.3783e-10
-3.70682e-11
2.48328e-10
-3.55962e-11
2.58321e-10
-3.39943e-11
2.66919e-10
-3.22587e-11
2.74935e-10
-3.0388e-11
2.83334e-10
-2.83698e-11
2.91159e-10
-2.63138e-11
2.98386e-10
-2.41732e-11
3.04976e-10
-2.19493e-11
3.10888e-10
-1.96586e-11
3.16071e-10
-1.7309e-11
3.20219e-10
-1.4909e-11
3.23573e-10
-1.2473e-11
3.26589e-10
-9.96757e-12
3.28891e-10
-7.44272e-12
-4.88955e-12
3.30462e-10
-7.75541e-13
-1.21309e-12
-1.6032e-12
-4.97464e-12
-8.9537e-13
-9.97103e-12
1.06429e-12
-1.47591e-11
4.13733e-12
-1.92683e-11
8.23977e-12
-2.35153e-11
1.32995e-11
-2.74838e-11
1.71914e-11
-3.11685e-11
2.25636e-11
-3.47102e-11
3.03464e-11
-3.75991e-11
3.92122e-11
-4.0916e-11
4.90592e-11
-4.38672e-11
5.97565e-11
-4.64959e-11
7.09818e-11
-4.89113e-11
8.26467e-11
-5.11876e-11
9.12147e-11
-5.31173e-11
1.04636e-10
-5.49122e-11
1.18474e-10
-5.64969e-11
1.3226e-10
-5.74967e-11
1.44925e-10
-5.84019e-11
1.59035e-10
-5.95579e-11
1.7334e-10
-5.98172e-11
1.87654e-10
-5.96294e-11
2.01841e-10
-5.91078e-11
2.14374e-10
-5.81702e-11
2.27361e-10
-5.70307e-11
2.41135e-10
-5.54487e-11
2.54665e-10
-5.41529e-11
2.67869e-10
-5.25821e-11
2.80657e-10
-5.07718e-11
2.92956e-10
-4.87675e-11
3.04682e-10
-4.65668e-11
3.14929e-10
-4.41782e-11
3.24587e-10
-4.16971e-11
3.344e-10
-3.88552e-11
3.43602e-10
-3.61501e-11
3.52114e-10
-3.32715e-11
3.59886e-10
-3.02506e-11
3.66871e-10
-2.71261e-11
3.73014e-10
-2.39101e-11
3.77997e-10
-2.0622e-11
3.8212e-10
-1.72874e-11
3.85727e-10
-1.38334e-11
3.88509e-10
-1.04083e-11
-6.93982e-12
3.90434e-10
-6.93692e-13
-1.32048e-12
-1.88886e-12
-8.01572e-12
-4.99821e-13
-1.45658e-11
2.11733e-12
-2.05881e-11
5.91219e-12
-2.6304e-11
1.08339e-11
-3.17165e-11
1.68343e-11
-3.67797e-11
2.15739e-11
-4.11858e-11
2.84754e-11
-4.46699e-11
3.67744e-11
-4.94948e-11
4.71069e-11
-5.40151e-11
5.84112e-11
-5.81401e-11
7.05682e-11
-6.22551e-11
8.32512e-11
-6.63223e-11
9.66067e-11
-6.99212e-11
1.06711e-10
-7.2605e-11
1.21724e-10
-7.06584e-11
1.37621e-10
-7.28001e-11
1.53038e-10
-7.56551e-11
1.67107e-10
-7.84415e-11
1.83755e-10
-7.86455e-11
2.00173e-10
-7.87032e-11
2.16531e-10
-7.84888e-11
2.32821e-10
-7.79357e-11
2.47209e-10
-7.68386e-11
2.62292e-10
-7.44196e-11
2.77407e-10
-7.32915e-11
2.92852e-10
-7.17931e-11
3.07884e-10
-6.97285e-11
3.22448e-10
-6.73425e-11
3.36476e-10
-6.46925e-11
3.49872e-10
-6.17704e-11
3.6161e-10
-5.8458e-11
3.72983e-10
-5.47334e-11
3.83922e-10
-5.1568e-11
3.94513e-10
-4.81269e-11
4.04284e-10
-4.43338e-11
4.13204e-10
-4.03504e-11
4.21235e-10
-3.62186e-11
4.28312e-10
-3.19466e-11
4.34101e-10
-2.75101e-11
4.39008e-10
-2.2941e-11
4.43137e-10
-1.8534e-11
4.46416e-10
-1.40787e-11
-9.50769e-12
4.48713e-10
-1.97798e-12
-4.80539e-12
-2.18183e-12
-1.27882e-11
1.51494e-14
-1.9921e-11
3.38702e-12
-2.71006e-11
7.95899e-12
-3.40324e-11
1.37976e-11
-4.06482e-11
2.1028e-11
-4.69992e-11
2.74653e-11
-5.32079e-11
3.38505e-11
-5.891e-11
4.34503e-11
-6.44882e-11
5.51311e-11
-6.8972e-11
6.75573e-11
-7.34312e-11
8.09634e-11
-7.77174e-11
9.54877e-11
-8.18347e-11
1.10845e-10
-8.58254e-11
1.26846e-10
-8.9457e-11
1.3906e-10
-9.2268e-11
1.5584e-10
-9.45207e-11
1.72545e-10
-9.64391e-11
1.90638e-10
-9.73146e-11
2.08912e-10
-9.78455e-11
2.27221e-10
-9.80181e-11
2.4548e-10
-9.78517e-11
2.63751e-10
-9.73221e-11
2.81002e-10
-9.64552e-11
2.96272e-10
-9.5493e-11
3.13314e-10
-9.38396e-11
3.30741e-10
-9.12997e-11
3.47566e-10
-8.85988e-11
3.63862e-10
-8.56092e-11
3.7958e-10
-8.22972e-11
3.94689e-10
-7.86869e-11
4.08157e-10
-7.48314e-11
4.2021e-10
-7.0694e-11
4.32628e-10
-6.63776e-11
4.44658e-10
-6.15375e-11
4.55676e-10
-5.66214e-11
4.65734e-10
-5.15527e-11
4.74806e-10
-4.63169e-11
4.82849e-10
-4.09273e-11
4.895e-10
-3.54019e-11
4.94877e-10
-2.97553e-11
4.99598e-10
-2.41436e-11
5.03427e-10
-1.83493e-11
-1.25259e-11
5.06142e-10
-1.59226e-12
-5.38216e-12
-1.05405e-12
-1.45836e-11
1.25887e-12
-2.35386e-11
5.07156e-12
-3.22298e-11
1.02899e-11
-4.05686e-11
1.68997e-11
-4.85436e-11
2.49061e-11
-5.62206e-11
3.26553e-11
-6.37549e-11
3.99738e-11
-7.12637e-11
5.16523e-11
-7.73408e-11
6.4346e-11
-8.31643e-11
7.80291e-11
-8.87034e-11
9.26761e-11
-9.38917e-11
1.08489e-10
-9.87699e-11
1.25368e-10
-1.03412e-10
1.43391e-10
-1.07748e-10
1.5738e-10
-1.11599e-10
1.75757e-10
-1.14387e-10
1.94794e-10
-1.16455e-10
2.1456e-10
-1.17856e-10
2.34527e-10
-1.18686e-10
2.54514e-10
-1.19069e-10
2.74484e-10
-1.18987e-10
2.94466e-10
-1.18469e-10
3.13218e-10
-1.1757e-10
3.30523e-10
-1.16393e-10
3.49834e-10
-1.13997e-10
3.68792e-10
-1.11162e-10
3.8728e-10
-1.07971e-10
4.05207e-10
-1.04391e-10
4.22506e-10
-1.00416e-10
4.39103e-10
-9.60769e-11
4.54077e-10
-9.14492e-11
4.67441e-10
-8.66296e-11
4.81495e-10
-8.10825e-11
4.94638e-10
-7.53053e-11
5.06804e-10
-6.93455e-11
5.17936e-10
-6.31904e-11
5.27998e-10
-5.68371e-11
5.36935e-10
-5.03007e-11
5.44401e-10
-4.36132e-11
5.50343e-10
-3.68709e-11
5.55768e-10
-2.9905e-11
5.60056e-10
-2.28532e-11
-1.57553e-11
5.6317e-10
-5.30442e-13
-5.52477e-12
1.27466e-13
-1.66851e-11
2.67773e-12
-2.74791e-11
6.95693e-12
-3.78687e-11
1.28155e-11
-4.77953e-11
2.01814e-11
-5.72643e-11
2.90017e-11
-6.63391e-11
3.7507e-11
-7.5119e-11
4.71601e-11
-8.36296e-11
6.00135e-11
-9.13536e-11
7.40241e-11
-9.8613e-11
8.90742e-11
-1.05458e-10
1.05058e-10
-1.11775e-10
1.22154e-10
-1.17548e-10
1.40423e-10
-1.22847e-10
1.59891e-10
-1.27729e-10
1.76211e-10
-1.32572e-10
1.96495e-10
-1.35839e-10
2.17394e-10
-1.38298e-10
2.3882e-10
-1.40085e-10
2.6044e-10
-1.41279e-10
2.82103e-10
-1.41843e-10
3.03753e-10
-1.41786e-10
3.25385e-10
-1.41233e-10
3.45629e-10
-1.4013e-10
3.65447e-10
-1.38462e-10
3.86421e-10
-1.35917e-10
4.07005e-10
-1.32694e-10
4.27105e-10
-1.28974e-10
4.46616e-10
-1.24761e-10
4.65443e-10
-1.20066e-10
4.83487e-10
-1.1492e-10
4.99755e-10
-1.09375e-10
5.14937e-10
-1.03469e-10
5.30225e-10
-9.70525e-11
5.44531e-10
-9.02526e-11
5.57799e-10
-8.31862e-11
5.6997e-10
-7.58661e-11
5.80991e-10
-6.83045e-11
5.90798e-10
-6.05224e-11
5.98969e-10
-5.2555e-11
6.05715e-10
-4.44802e-11
6.11716e-10
-3.62156e-11
6.16471e-10
-2.78087e-11
-1.93413e-11
6.19959e-10
-5.30296e-14
-6.2347e-12
9.79306e-13
-1.91605e-11
3.99089e-12
-3.18185e-11
8.85932e-12
-4.40332e-11
1.54581e-11
-5.56963e-11
2.36815e-11
-6.68043e-11
3.34566e-11
-7.7416e-11
4.29619e-11
-8.76124e-11
5.42261e-11
-9.74166e-11
6.83993e-11
-1.06544e-10
8.38286e-11
-1.15222e-10
1.00385e-10
-1.23455e-10
1.17896e-10
-1.31054e-10
1.36446e-10
-1.37915e-10
1.56181e-10
-1.44059e-10
1.76669e-10
-1.49577e-10
1.95588e-10
-1.54924e-10
2.17687e-10
-1.58806e-10
2.40314e-10
-1.61857e-10
2.63396e-10
-1.6415e-10
2.86724e-10
-1.65686e-10
3.10142e-10
-1.66363e-10
3.33386e-10
-1.66125e-10
3.56696e-10
-1.65611e-10
3.78633e-10
-1.6433e-10
4.0042e-10
-1.62528e-10
4.23154e-10
-1.59616e-10
4.45395e-10
-1.55896e-10
4.67106e-10
-1.51585e-10
4.88188e-10
-1.46683e-10
5.08535e-10
-1.41209e-10
5.28036e-10
-1.352e-10
5.45683e-10
-1.287e-10
5.62343e-10
-1.21783e-10
5.78924e-10
-1.14311e-10
5.94407e-10
-1.06393e-10
6.08773e-10
-9.81427e-11
6.2197e-10
-8.95718e-11
6.33937e-10
-8.07088e-11
6.44599e-10
-7.1589e-11
6.53491e-10
-6.22526e-11
6.60966e-10
-5.28056e-11
6.67567e-10
-4.31163e-11
6.72789e-10
-3.32602e-11
-2.33255e-11
6.76639e-10
1.58307e-13
-7.15487e-12
1.62189e-12
-2.19961e-11
5.16216e-12
-3.66059e-11
1.07053e-11
-5.07808e-11
1.81275e-11
-6.43149e-11
2.7294e-11
-7.71946e-11
3.8112e-11
-8.94867e-11
4.87421e-11
-1.01264e-10
6.14038e-11
-1.12478e-10
7.68893e-11
-1.23027e-10
9.37266e-11
-1.33057e-10
1.11838e-10
-1.42667e-10
1.31005e-10
-1.51589e-10
1.51177e-10
-1.59657e-10
1.72497e-10
-1.66839e-10
1.94107e-10
-1.73172e-10
2.15345e-10
-1.78765e-10
2.39164e-10
-1.83458e-10
2.63501e-10
-1.87206e-10
2.88292e-10
-1.90044e-10
3.13431e-10
-1.91933e-10
3.38735e-10
-1.92735e-10
3.63193e-10
-1.93292e-10
3.88289e-10
-1.92823e-10
4.11709e-10
-1.91106e-10
4.35576e-10
-1.88649e-10
4.60113e-10
-1.85104e-10
4.84009e-10
-1.8076e-10
5.07315e-10
-1.75806e-10
5.29948e-10
-1.7017e-10
5.51795e-10
-1.63864e-10
5.72742e-10
-1.56936e-10
5.91739e-10
-1.4944e-10
6.09803e-10
-1.41461e-10
6.27674e-10
-1.32852e-10
6.4433e-10
-1.23716e-10
6.59788e-10
-1.14223e-10
6.73996e-10
-1.04335e-10
6.86887e-10
-9.40881e-11
6.9839e-10
-8.35404e-11
7.07964e-10
-7.27467e-11
7.16173e-10
-6.18207e-11
7.23372e-10
-5.06167e-11
7.2906e-10
-3.92119e-11
-2.77284e-11
7.3327e-10
2.91771e-13
-8.17918e-12
2.21295e-12
-2.5187e-11
6.21756e-12
-4.17477e-11
1.24807e-11
-5.81507e-11
2.07741e-11
-7.36976e-11
3.09271e-11
-8.84567e-11
4.28225e-11
-1.0253e-10
5.4677e-11
-1.1599e-10
6.87482e-11
-1.28913e-10
8.56192e-11
-1.40923e-10
1.03743e-10
-1.52136e-10
1.23387e-10
-1.63224e-10
1.44238e-10
-1.7349e-10
1.66117e-10
-1.82827e-10
1.89104e-10
-1.9119e-10
2.12301e-10
-1.98697e-10
2.35201e-10
-2.05884e-10
2.60764e-10
-2.11429e-10
2.86819e-10
-2.15842e-10
3.13336e-10
-2.19123e-10
3.40395e-10
-2.21381e-10
3.66783e-10
-2.22985e-10
3.93135e-10
-2.2354e-10
4.20322e-10
-2.22314e-10
4.45345e-10
-2.20158e-10
4.71194e-10
-2.16535e-10
4.97455e-10
-2.12259e-10
5.22853e-10
-2.07111e-10
5.47708e-10
-2.01596e-10
5.71863e-10
-1.9522e-10
5.9518e-10
-1.88043e-10
6.17539e-10
-1.80139e-10
6.37837e-10
-1.71575e-10
6.57335e-10
-1.62533e-10
6.76525e-10
-1.52686e-10
6.94284e-10
-1.4215e-10
7.10828e-10
-1.3142e-10
7.26038e-10
-1.20172e-10
7.39832e-10
-1.08474e-10
7.52146e-10
-9.64143e-11
7.62369e-10
-8.40609e-11
7.71333e-10
-7.15541e-11
7.79144e-10
-5.87185e-11
7.85268e-10
-4.56348e-11
-3.2545e-11
7.89837e-10
4.20676e-13
-9.26807e-12
2.93154e-12
-2.88332e-11
7.03841e-12
-4.87368e-11
1.41793e-11
-6.75728e-11
2.33954e-11
-8.52443e-11
3.45721e-11
-1.0203e-10
4.75983e-11
-1.18e-10
6.05897e-11
-1.33027e-10
7.62644e-11
-1.46892e-10
9.46973e-11
-1.60377e-10
1.13702e-10
-1.7385e-10
1.34948e-10
-1.86604e-10
1.57444e-10
-1.98372e-10
1.80999e-10
-2.09173e-10
2.05585e-10
-2.1878e-10
2.29789e-10
-2.27118e-10
2.55006e-10
-2.34548e-10
2.82358e-10
-2.40848e-10
3.10241e-10
-2.45879e-10
3.3848e-10
-2.49673e-10
3.66924e-10
-2.52242e-10
3.95061e-10
-2.53587e-10
4.23955e-10
-2.53368e-10
4.52801e-10
-2.52112e-10
4.80084e-10
-2.49679e-10
5.07311e-10
-2.45698e-10
5.3522e-10
-2.4101e-10
5.61702e-10
-2.36175e-10
5.88173e-10
-2.30253e-10
6.13864e-10
-2.23114e-10
6.38657e-10
-2.15004e-10
6.62432e-10
-2.05992e-10
6.83929e-10
-1.96024e-10
7.04946e-10
-1.85129e-10
7.25514e-10
-1.73917e-10
7.44115e-10
-1.62595e-10
7.61813e-10
-1.50715e-10
7.78049e-10
-1.38079e-10
7.92758e-10
-1.24847e-10
8.05883e-10
-1.1108e-10
8.16727e-10
-9.68006e-11
8.26453e-10
-8.20875e-11
8.3489e-10
-6.74986e-11
8.41334e-10
-5.28513e-11
-3.81362e-11
8.46292e-10
4.97758e-13
-1.18773e-11
2.72492e-12
-3.50939e-11
7.68048e-12
-5.73582e-11
1.5821e-11
-7.79476e-11
2.5992e-11
-9.76846e-11
3.82627e-11
-1.16521e-10
5.26301e-11
-1.34515e-10
6.72799e-11
-1.51728e-10
8.39338e-11
-1.67629e-10
1.03051e-10
-1.83328e-10
1.2345e-10
-1.98409e-10
1.46322e-10
-2.1185e-10
1.70438e-10
-2.24549e-10
1.95801e-10
-2.36329e-10
2.22256e-10
-2.4706e-10
2.47934e-10
-2.56606e-10
2.74855e-10
-2.64133e-10
3.04025e-10
-2.70824e-10
3.33711e-10
-2.76371e-10
3.63761e-10
-2.80607e-10
3.93988e-10
-2.83479e-10
4.24299e-10
-2.8496e-10
4.54838e-10
-2.85011e-10
4.85445e-10
-2.83766e-10
5.14855e-10
-2.81349e-10
5.4339e-10
-2.77685e-10
5.72092e-10
-2.73258e-10
6.00295e-10
-2.67661e-10
6.28595e-10
-2.60381e-10
6.55925e-10
-2.52226e-10
6.82298e-10
-2.43128e-10
7.0766e-10
-2.33095e-10
7.30706e-10
-2.22175e-10
7.52649e-10
-2.10088e-10
7.73931e-10
-1.97776e-10
7.93666e-10
-1.84947e-10
8.12658e-10
-1.70989e-10
8.30028e-10
-1.56581e-10
8.45786e-10
-1.41662e-10
8.59871e-10
-1.26234e-10
8.71578e-10
-1.10341e-10
8.8156e-10
-9.38188e-11
8.90398e-10
-7.74346e-11
8.97193e-10
-6.10305e-11
-4.41112e-11
9.02637e-10
4.29762e-13
-1.37911e-11
2.97023e-12
-3.98706e-11
9.06828e-12
-6.42393e-11
1.77064e-11
-8.74621e-11
2.86903e-11
-1.09576e-10
4.19226e-11
-1.30641e-10
5.73285e-11
-1.50765e-10
7.371e-11
-1.70087e-10
9.10869e-11
-1.88696e-10
1.11387e-10
-2.05989e-10
1.33991e-10
-2.2193e-10
1.58147e-10
-2.37001e-10
1.83752e-10
-2.51102e-10
2.10692e-10
-2.64138e-10
2.38778e-10
-2.76004e-10
2.66925e-10
-2.86506e-10
2.95073e-10
-2.95188e-10
3.25838e-10
-3.0255e-10
3.57234e-10
-3.08593e-10
3.89073e-10
-3.13256e-10
4.21129e-10
-3.16475e-10
4.53294e-10
-3.18197e-10
4.85529e-10
-3.18383e-10
5.17757e-10
-3.17113e-10
5.48874e-10
-3.14562e-10
5.78697e-10
-3.10929e-10
6.0907e-10
-3.05722e-10
6.39484e-10
-2.9885e-10
6.69196e-10
-2.90897e-10
6.98041e-10
-2.81882e-10
7.25896e-10
-2.71795e-10
7.52654e-10
-2.60662e-10
7.77417e-10
-2.48589e-10
8.00111e-10
-2.3585e-10
8.22426e-10
-2.21958e-10
8.43781e-10
-2.0701e-10
8.63699e-10
-1.91499e-10
8.8207e-10
-1.75449e-10
8.98775e-10
-1.58854e-10
9.13705e-10
-1.41707e-10
9.26423e-10
-1.24055e-10
9.36615e-10
-1.06114e-10
9.45779e-10
-8.77458e-11
9.53343e-10
-6.89784e-11
-5.00877e-11
9.59083e-10
7.60762e-13
-1.50269e-11
4.04763e-12
-4.40835e-11
1.04826e-11
-7.15741e-11
1.96724e-11
-9.75661e-11
3.13949e-11
-1.22228e-10
4.55031e-11
-1.45666e-10
6.18765e-11
-1.68009e-10
7.92766e-11
-1.89383e-10
9.83699e-11
-2.09811e-10
1.20493e-10
-2.28942e-10
1.44435e-10
-2.46869e-10
1.70008e-10
-2.63629e-10
1.97075e-10
-2.7922e-10
2.2556e-10
-2.93558e-10
2.55321e-10
-3.06566e-10
2.85586e-10
-3.18084e-10
3.1533e-10
-3.27873e-10
3.47707e-10
-3.35974e-10
3.80748e-10
-3.42557e-10
4.14299e-10
-3.47629e-10
4.48128e-10
-3.51163e-10
4.82083e-10
-3.531e-10
5.16062e-10
-3.53385e-10
5.49918e-10
-3.52028e-10
5.82484e-10
-3.49149e-10
6.14241e-10
-3.44923e-10
6.46676e-10
-3.39095e-10
6.7858e-10
-3.3168e-10
7.09781e-10
-3.2293e-10
7.4011e-10
-3.12983e-10
7.69418e-10
-3.01834e-10
7.97554e-10
-2.89514e-10
8.23449e-10
-2.76136e-10
8.4773e-10
-2.62064e-10
8.71539e-10
-2.4669e-10
8.9389e-10
-2.30285e-10
9.14762e-10
-2.131e-10
9.34061e-10
-1.9528e-10
9.51674e-10
-1.76871e-10
9.67453e-10
-1.57886e-10
9.80798e-10
-1.38353e-10
9.91732e-10
-1.18536e-10
1.00156e-09
-9.81683e-11
1.00949e-09
-7.74041e-11
-5.64243e-11
1.01552e-09
1.06732e-12
-1.66024e-11
4.85193e-12
-4.87977e-11
1.17617e-11
-7.9344e-11
2.15696e-11
-1.08219e-10
3.40648e-11
-1.3558e-10
4.90744e-11
-1.6154e-10
6.64596e-11
-1.86234e-10
8.49658e-11
-2.09792e-10
1.05642e-10
-2.32279e-10
1.29284e-10
-2.5338e-10
1.54685e-10
-2.73185e-10
1.8175e-10
-2.91681e-10
2.10342e-10
-3.08828e-10
2.40401e-10
-3.24522e-10
2.71847e-10
-3.38706e-10
3.03991e-10
-3.51291e-10
3.3554e-10
-3.62035e-10
3.69565e-10
-3.71036e-10
4.04228e-10
-3.78262e-10
4.39432e-10
-3.83769e-10
4.74986e-10
-3.87579e-10
5.10732e-10
-3.8966e-10
5.46516e-10
-3.89966e-10
5.82108e-10
-3.88472e-10
6.16284e-10
-3.85297e-10
6.49849e-10
-3.80845e-10
6.84101e-10
-3.74422e-10
7.17592e-10
-3.66213e-10
7.50319e-10
-3.56528e-10
7.82167e-10
-3.45532e-10
8.12957e-10
-3.33222e-10
8.42507e-10
-3.19649e-10
8.69456e-10
-3.04948e-10
8.95393e-10
-2.89629e-10
9.20558e-10
-2.72792e-10
9.44025e-10
-2.54792e-10
9.65879e-10
-2.35863e-10
9.86099e-10
-2.16126e-10
1.00459e-09
-1.95729e-10
1.02122e-09
-1.74769e-10
1.03513e-09
-1.53272e-10
1.04691e-09
-1.31508e-10
1.05736e-09
-1.09149e-10
1.06569e-09
-8.63225e-11
-6.31913e-11
1.07199e-09
1.25623e-12
-1.83492e-11
5.46379e-12
-5.38568e-11
1.29115e-11
-8.75643e-11
2.33763e-11
-1.19427e-10
3.66708e-11
-1.4963e-10
5.26074e-11
-1.78262e-10
7.10311e-11
-2.05456e-10
9.0656e-11
-2.31349e-10
1.12814e-10
-2.55989e-10
1.37882e-10
-2.79162e-10
1.64782e-10
-3.00892e-10
1.93384e-10
-3.21155e-10
2.2356e-10
-3.39949e-10
2.55219e-10
-3.571e-10
2.88317e-10
-3.72573e-10
3.22309e-10
-3.8642e-10
3.55561e-10
-3.99278e-10
3.91332e-10
-4.09435e-10
4.27675e-10
-4.17358e-10
4.64543e-10
-4.23073e-10
5.01808e-10
-4.26724e-10
5.39322e-10
-4.28463e-10
5.76904e-10
-4.2841e-10
6.14253e-10
-4.26659e-10
6.49795e-10
-4.23226e-10
6.85425e-10
-4.18803e-10
7.21533e-10
-4.11584e-10
7.56678e-10
-4.02493e-10
7.90943e-10
-3.91773e-10
8.24311e-10
-3.79687e-10
8.56564e-10
-3.66177e-10
8.8751e-10
-3.51317e-10
9.15357e-10
-3.35256e-10
9.43047e-10
-3.18432e-10
9.69581e-10
-3.00113e-10
9.94285e-10
-2.80441e-10
1.01721e-09
-2.59779e-10
1.03836e-09
-2.38111e-10
1.05768e-09
-2.15638e-10
1.0751e-09
-1.9258e-10
1.08948e-09
-1.68958e-10
1.10213e-09
-1.44907e-10
1.11323e-09
-1.20592e-10
1.12204e-09
-9.57137e-11
-7.03925e-11
1.12863e-09
1.38074e-12
-2.01906e-11
6.00142e-12
-5.92258e-11
1.40233e-11
-9.6244e-11
2.51011e-11
-1.31127e-10
3.91952e-11
-1.64377e-10
5.60617e-11
-1.95828e-10
7.5517e-11
-2.25653e-10
9.62687e-11
-2.53999e-10
1.1987e-10
-2.80969e-10
1.46383e-10
-3.06294e-10
1.74822e-10
-3.29994e-10
2.04905e-10
-3.51968e-10
2.36669e-10
-3.72574e-10
2.69874e-10
-3.91325e-10
3.04506e-10
-4.08211e-10
3.39312e-10
-4.23384e-10
3.75125e-10
-4.37043e-10
4.12916e-10
-4.48117e-10
4.5132e-10
-4.56958e-10
4.90082e-10
-4.63587e-10
5.29095e-10
-4.68009e-10
5.68252e-10
-4.70256e-10
6.07377e-10
-4.70353e-10
6.46348e-10
-4.68367e-10
6.82806e-10
-4.64354e-10
7.21223e-10
-4.58172e-10
7.59151e-10
-4.50236e-10
7.96051e-10
-4.40375e-10
8.31759e-10
-4.28563e-10
8.66616e-10
-4.15528e-10
9.00276e-10
-4.00868e-10
9.3255e-10
-3.84704e-10
9.61298e-10
-3.67186e-10
9.90712e-10
-3.48604e-10
1.01876e-09
-3.28531e-10
1.04472e-09
-3.07081e-10
1.06885e-09
-2.8474e-10
1.09097e-09
-2.61204e-10
1.11106e-09
-2.36688e-10
1.12922e-09
-2.11508e-10
1.14422e-09
-1.85865e-10
1.15728e-09
-1.58703e-10
1.16918e-09
-1.32346e-10
1.17857e-09
-1.05458e-10
-7.79428e-11
1.18557e-09
1.46955e-12
-2.20735e-11
6.53497e-12
-6.49174e-11
1.52002e-11
-1.05425e-10
2.66666e-11
-1.44159e-10
4.16246e-11
-1.80699e-10
5.94362e-11
-2.15158e-10
7.99433e-11
-2.47763e-10
1.01776e-10
-2.78519e-10
1.2684e-10
-3.0732e-10
1.54842e-10
-3.34835e-10
1.8488e-10
-3.60565e-10
2.16149e-10
-3.85224e-10
2.4956e-10
-4.08152e-10
2.84343e-10
-4.28859e-10
3.20434e-10
-4.47241e-10
3.56392e-10
-4.6319e-10
3.94478e-10
-4.76317e-10
4.34143e-10
-4.88136e-10
4.74457e-10
-4.97703e-10
5.15113e-10
-5.04927e-10
5.55997e-10
-5.09787e-10
5.97021e-10
-5.12298e-10
6.37982e-10
-5.12478e-10
6.78745e-10
-5.1037e-10
7.17162e-10
-5.05903e-10
7.57214e-10
-4.98886e-10
7.96962e-10
-4.90449e-10
8.3571e-10
-4.79933e-10
8.72548e-10
-4.68517e-10
9.09014e-10
-4.55427e-10
9.4415e-10
-4.40056e-10
9.77816e-10
-4.22497e-10
1.00768e-09
-4.02673e-10
1.03867e-09
-3.80353e-10
1.06828e-09
-3.58434e-10
1.0952e-09
-3.34775e-10
1.12067e-09
-3.1181e-10
1.14388e-09
-2.87395e-10
1.16483e-09
-2.61307e-10
1.18356e-09
-2.33758e-10
1.20022e-09
-2.05197e-10
1.21257e-09
-1.75962e-10
1.22525e-09
-1.45435e-10
1.23536e-09
-1.15829e-10
-8.58608e-11
1.24291e-09
1.50057e-12
-2.46654e-11
7.08507e-12
-7.15499e-11
1.5785e-11
-1.16211e-10
2.80129e-11
-1.58292e-10
4.39059e-11
-1.97712e-10
6.27461e-11
-2.35123e-10
8.44862e-11
-2.70636e-10
1.07829e-10
-3.0431e-10
1.33767e-10
-3.35585e-10
1.6325e-10
-3.65292e-10
1.94032e-10
-3.93723e-10
2.26715e-10
-4.20231e-10
2.61959e-10
-4.44203e-10
2.98679e-10
-4.66262e-10
3.36739e-10
-4.86193e-10
3.75058e-10
-5.03734e-10
4.13935e-10
-5.17877e-10
4.55359e-10
-5.30225e-10
4.97477e-10
-5.40329e-10
5.4002e-10
-5.48034e-10
5.82794e-10
-5.53321e-10
6.25722e-10
-5.56177e-10
6.68598e-10
-5.56567e-10
7.11322e-10
-5.54461e-10
7.52003e-10
-5.49899e-10
7.93098e-10
-5.41849e-10
8.34689e-10
-5.3282e-10
8.741e-10
-5.22627e-10
9.12483e-10
-5.10214e-10
9.51092e-10
-4.949e-10
9.88358e-10
-4.77892e-10
1.02417e-09
-4.59006e-10
1.05663e-09
-4.38194e-10
1.08707e-09
-4.14554e-10
1.1185e-09
-3.89796e-10
1.14475e-09
-3.66024e-10
1.17178e-09
-3.39557e-10
1.1967e-09
-3.12268e-10
1.21923e-09
-2.83779e-10
1.23913e-09
-2.54126e-10
1.25653e-09
-2.23574e-10
1.2703e-09
-1.92266e-10
1.28218e-09
-1.59328e-10
1.29277e-09
-1.26917e-10
-9.45045e-11
1.30078e-09
1.66463e-12
-2.70766e-11
7.27838e-12
-7.82442e-11
1.65215e-11
-1.2653e-10
2.97107e-11
-1.71859e-10
4.62613e-11
-2.14705e-10
6.60012e-11
-2.55288e-10
8.87588e-11
-2.93774e-10
1.13842e-10
-3.30302e-10
1.40777e-10
-3.64969e-10
1.71088e-10
-3.97259e-10
2.03274e-10
-4.27506e-10
2.37964e-10
-4.55459e-10
2.74573e-10
-4.81347e-10
3.12912e-10
-5.05089e-10
3.52713e-10
-5.26519e-10
3.9378e-10
-5.45352e-10
4.33738e-10
-5.60981e-10
4.76765e-10
-5.74146e-10
5.20593e-10
-5.84778e-10
5.64913e-10
-5.9296e-10
6.09492e-10
-5.98627e-10
6.54284e-10
-6.01759e-10
6.9913e-10
-6.02273e-10
7.4373e-10
-6.00073e-10
7.87411e-10
-5.95209e-10
8.29052e-10
-5.88092e-10
8.71517e-10
-5.78482e-10
9.12763e-10
-5.66517e-10
9.53759e-10
-5.52075e-10
9.93838e-10
-5.3562e-10
1.03287e-09
-5.17116e-10
1.0704e-09
-4.96499e-10
1.10565e-09
-4.73993e-10
1.13702e-09
-4.51489e-10
1.16744e-09
-4.24872e-10
1.19638e-09
-3.96389e-10
1.22417e-09
-3.67376e-10
1.25038e-09
-3.37767e-10
1.27412e-09
-3.07246e-10
1.29503e-09
-2.75582e-10
1.31315e-09
-2.42794e-10
1.32866e-09
-2.09046e-10
1.34009e-09
-1.74406e-10
1.3508e-09
-1.39478e-10
-1.04123e-10
1.359e-09
1.87896e-12
-2.91897e-11
7.77634e-12
-8.46057e-11
1.7683e-11
-1.36858e-10
3.14018e-11
-1.86039e-10
4.86405e-11
-2.32427e-10
6.92136e-11
-2.76288e-10
9.29288e-11
-3.17823e-10
1.19034e-10
-3.57212e-10
1.47622e-10
-3.94713e-10
1.79287e-10
-4.29584e-10
2.13132e-10
-4.6213e-10
2.49183e-10
-4.92297e-10
2.87207e-10
-5.2008e-10
3.27102e-10
-5.45475e-10
3.68664e-10
-5.68369e-10
4.1208e-10
-5.88548e-10
4.53669e-10
-6.05796e-10
4.98407e-10
-6.19882e-10
5.43898e-10
-6.31162e-10
5.89855e-10
-6.39656e-10
6.36167e-10
-6.45781e-10
6.82818e-10
-6.49107e-10
7.29671e-10
-6.49619e-10
7.76293e-10
-6.47219e-10
8.21695e-10
-6.42024e-10
8.65213e-10
-6.34723e-10
9.09521e-10
-6.24405e-10
9.52853e-10
-6.11338e-10
9.95484e-10
-5.9583e-10
1.03726e-09
-5.77936e-10
1.07799e-09
-5.57621e-10
1.11722e-09
-5.3495e-10
1.15246e-09
-5.10589e-10
1.18763e-09
-4.88433e-10
1.21966e-09
-4.60033e-10
1.2492e-09
-4.29218e-10
1.27752e-09
-3.97274e-10
1.30457e-09
-3.64817e-10
1.32941e-09
-3.3173e-10
1.35145e-09
-2.97726e-10
1.37054e-09
-2.62562e-10
1.38697e-09
-2.26293e-10
1.39879e-09
-1.8916e-10
1.41001e-09
-1.51408e-10
-1.1314e-10
1.41863e-09
2.06308e-12
-3.14895e-11
8.31288e-12
-9.12828e-11
1.87294e-11
-1.47661e-10
3.30517e-11
-2.00749e-10
5.10418e-11
-2.50808e-10
7.24765e-11
-2.9809e-10
9.71572e-11
-3.42813e-10
1.24107e-10
-3.85188e-10
1.54405e-10
-4.25634e-10
1.87531e-10
-4.6325e-10
2.22893e-10
-4.983e-10
2.60402e-10
-5.30688e-10
2.99909e-10
-5.60381e-10
3.41368e-10
-5.87403e-10
3.84681e-10
-6.11739e-10
4.30031e-10
-6.33346e-10
4.73744e-10
-6.52139e-10
5.20265e-10
-6.67381e-10
5.67499e-10
-6.79414e-10
6.14873e-10
-6.89755e-10
6.63046e-10
-6.95386e-10
7.11594e-10
-6.97755e-10
7.60458e-10
-6.97329e-10
8.09099e-10
-6.94456e-10
8.55863e-10
-6.89324e-10
9.0175e-10
-6.8374e-10
9.48185e-10
-6.72434e-10
9.93408e-10
-6.58253e-10
1.03788e-09
-6.41361e-10
1.08165e-09
-6.2176e-10
1.12418e-09
-5.99417e-10
1.16497e-09
-5.74681e-10
1.19788e-09
-5.4866e-10
1.23892e-09
-5.26403e-10
1.273e-09
-4.97042e-10
1.30356e-09
-4.64489e-10
1.33224e-09
-4.29911e-10
1.35982e-09
-3.94247e-10
1.38553e-09
-3.57947e-10
1.40868e-09
-3.21036e-10
1.42887e-09
-2.83103e-10
1.44616e-09
-2.44128e-10
1.45865e-09
-2.04572e-10
1.47044e-09
-1.63922e-10
-1.22658e-10
1.47946e-09
2.19261e-12
-3.39105e-11
8.78603e-12
-9.82193e-11
1.96969e-11
-1.5885e-10
3.46748e-11
-2.15962e-10
5.34666e-11
-2.69845e-10
7.57926e-11
-3.20745e-10
1.01446e-10
-3.68867e-10
1.29103e-10
-4.14398e-10
1.61092e-10
-4.5769e-10
1.95685e-10
-4.9819e-10
2.32629e-10
-5.35913e-10
2.7174e-10
-5.70632e-10
3.12831e-10
-6.02333e-10
3.55838e-10
-6.31115e-10
4.00746e-10
-6.56996e-10
4.47702e-10
-6.80107e-10
4.9371e-10
-7.01482e-10
5.42304e-10
-7.18752e-10
5.9007e-10
-7.32601e-10
6.41013e-10
-7.41752e-10
6.91276e-10
-7.48386e-10
7.41603e-10
-7.51748e-10
7.9183e-10
-7.51783e-10
8.41895e-10
-7.48536e-10
8.88228e-10
-7.42277e-10
9.39011e-10
-7.33786e-10
9.87459e-10
-7.21856e-10
1.03477e-09
-7.06773e-10
1.08135e-09
-6.88501e-10
1.12733e-09
-6.67312e-10
1.17156e-09
-6.4344e-10
1.21348e-09
-6.17381e-10
1.24234e-09
-5.90125e-10
1.29012e-09
-5.64135e-10
1.32679e-09
-5.33989e-10
1.35927e-09
-5.0066e-10
1.38884e-09
-4.64278e-10
1.41696e-09
-4.25763e-10
1.44315e-09
-3.85973e-10
1.46717e-09
-3.45874e-10
1.48835e-09
-3.04789e-10
1.50623e-09
-2.62807e-10
1.51981e-09
-2.20619e-10
1.53222e-09
-1.77002e-10
-1.32676e-10
1.54164e-09
2.2993e-12
-3.64236e-11
9.23258e-12
-1.05409e-10
2.06494e-11
-1.70444e-10
3.62964e-11
-2.31731e-10
5.58751e-11
-2.89535e-10
7.90946e-11
-3.44273e-10
1.05726e-10
-3.96013e-10
1.34165e-10
-4.44883e-10
1.67645e-10
-4.90978e-10
2.03722e-10
-5.34356e-10
2.4239e-10
-5.7482e-10
2.83273e-10