/*--------------------------------*- C++ -*----------------------------------*\
  =========                 |
  \\      /  F ield         | OpenFOAM: The Open Source CFD Toolbox
   \\    /   O peration     | Website:  https://openfoam.org
    \\  /    A nd           | Version:  9
     \\/     M anipulation  |
\*---------------------------------------------------------------------------*/
FoamFile
{
    format      ascii;
    class       volScalarField;
    location    "1";
    object      p;
}
// * * * * * * * * * * * * * * * * * * * * * * * * * * * * * * * * * * * * * //

dimensions      [0 2 -2 0 0 0 0];

internalField   nonuniform List<scalar> 
8500
(
-0.228866
-0.23933
-0.207745
-0.142209
-0.0537302
0.0184793
0.0627906
0.0822218
0.0806405
0.074153
-0.232783
-0.243152
-0.212164
-0.147017
-0.0583622
0.0143653
0.059371
0.0794672
0.0785678
0.0725209
-0.24048
-0.250654
-0.22083
-0.156462
-0.0674096
0.00631264
0.0526643
0.0740551
0.0744856
0.069302
-0.251693
-0.261565
-0.233417
-0.170205
-0.0804652
-0.00534584
0.0429238
0.0661709
0.0685157
0.0645839
-0.266051
-0.275504
-0.249511
-0.187737
-0.0969801
-0.020159
0.030502
0.0560727
0.0608304
0.0584913
-0.283096
-0.292011
-0.268544
-0.208075
-0.1167
-0.0376143
0.0158249
0.0440736
0.0516436
0.0511777
-0.302321
-0.310555
-0.289799
-0.230665
-0.13876
-0.0571312
-0.000636697
0.0305223
0.0411972
0.0428191
-0.3232
-0.330565
-0.312653
-0.254782
-0.162381
-0.0781031
-0.0183974
0.0157849
0.0297469
0.0336067
-0.345219
-0.351508
-0.336427
-0.279744
-0.186822
-0.0999283
-0.036986
0.000228704
0.0175459
0.0237376
-0.3679
-0.372909
-0.360531
-0.304953
-0.211412
-0.12204
-0.0559693
-0.0157949
0.00483079
0.0134107
-0.390826
-0.394386
-0.38447
-0.329797
-0.235563
-0.143933
-0.0749674
-0.0319662
-0.00818837
0.00282625
-0.413664
-0.415741
-0.407647
-0.35377
-0.258796
-0.165184
-0.0936596
-0.0480109
-0.0213243
-0.00783633
-0.43618
-0.436511
-0.429894
-0.376471
-0.280741
-0.185467
-0.111781
-0.0637055
-0.0344001
-0.0184268
-0.458203
-0.456525
-0.45107
-0.397611
-0.301143
-0.204548
-0.129121
-0.0788766
-0.0472443
-0.0288083
-0.479653
-0.475726
-0.47113
-0.417007
-0.319847
-0.222282
-0.145521
-0.0933919
-0.059701
-0.0388549
-0.500597
-0.494079
-0.490131
-0.43458
-0.336785
-0.238597
-0.160877
-0.107154
-0.0716374
-0.0484323
-0.521125
-0.511644
-0.508189
-0.450339
-0.351964
-0.25348
-0.17513
-0.1201
-0.0829328
-0.0573521
-0.541361
-0.528532
-0.525435
-0.464363
-0.365439
-0.26696
-0.188261
-0.132211
-0.0934653
-0.0654
-0.561443
-0.544915
-0.541973
-0.476784
-0.377307
-0.27909
-0.200287
-0.1435
-0.103143
-0.0726167
-0.581503
-0.560976
-0.55785
-0.487763
-0.387679
-0.289939
-0.211246
-0.153976
-0.112006
-0.0798549
-0.601634
-0.57692
-0.573034
-0.497472
-0.39668
-0.299579
-0.221182
-0.163608
-0.120273
-0.0882068
-0.621877
-0.592948
-0.587421
-0.506068
-0.404432
-0.308079
-0.230126
-0.172357
-0.128137
-0.0963773
-0.642208
-0.609237
-0.600851
-0.51368
-0.411051
-0.315502
-0.238101
-0.18023
-0.135423
-0.103659
-0.662542
-0.625918
-0.61315
-0.520395
-0.416644
-0.3219
-0.245126
-0.187225
-0.142026
-0.11007
-0.68275
-0.643052
-0.624157
-0.526256
-0.421295
-0.327316
-0.251213
-0.193345
-0.147889
-0.115637
-0.702668
-0.66061
-0.633758
-0.531263
-0.425065
-0.331789
-0.256374
-0.198592
-0.152981
-0.120396
-0.722128
-0.678453
-0.641905
-0.535384
-0.427986
-0.335349
-0.260618
-0.202968
-0.157287
-0.12438
-0.740946
-0.696313
-0.648632
-0.538573
-0.430067
-0.338018
-0.263951
-0.206474
-0.160799
-0.1276
-0.758962
-0.713788
-0.654059
-0.540788
-0.431299
-0.339801
-0.266373
-0.209111
-0.163515
-0.130067
-0.776028
-0.730376
-0.658328
-0.541998
-0.431661
-0.340692
-0.267885
-0.210879
-0.165432
-0.131784
-0.792017
-0.745634
-0.661448
-0.542168
-0.43112
-0.340676
-0.268481
-0.211777
-0.166551
-0.132756
-0.806831
-0.759258
-0.663222
-0.541245
-0.429637
-0.33973
-0.268153
-0.211804
-0.166869
-0.132994
-0.820375
-0.770926
-0.663521
-0.539162
-0.427169
-0.337829
-0.26689
-0.210957
-0.16639
-0.132503
-0.832541
-0.780399
-0.662268
-0.535844
-0.423666
-0.334946
-0.264681
-0.209234
-0.165118
-0.131286
-0.843226
-0.787489
-0.65942
-0.53122
-0.419074
-0.331051
-0.261516
-0.206633
-0.163056
-0.129345
-0.852307
-0.792061
-0.654954
-0.525224
-0.413337
-0.326118
-0.257383
-0.203155
-0.160207
-0.126688
-0.859628
-0.794028
-0.648842
-0.517802
-0.406403
-0.320119
-0.252275
-0.198801
-0.156575
-0.123324
-0.865008
-0.793325
-0.641022
-0.508931
-0.398234
-0.313033
-0.246183
-0.193573
-0.152165
-0.119266
-0.868255
-0.789862
-0.631408
-0.498599
-0.388808
-0.30484
-0.239102
-0.187466
-0.146996
-0.11453
-0.869145
-0.783559
-0.619925
-0.486782
-0.378105
-0.295527
-0.231025
-0.180477
-0.141096
-0.109133
-0.86744
-0.774344
-0.606513
-0.473449
-0.366103
-0.285085
-0.221953
-0.172619
-0.134486
-0.103077
-0.862902
-0.762165
-0.591122
-0.458567
-0.352772
-0.273519
-0.211894
-0.163935
-0.127164
-0.0963606
-0.855299
-0.746984
-0.573709
-0.442104
-0.33809
-0.260861
-0.200893
-0.154491
-0.119104
-0.0890156
-0.844421
-0.728778
-0.554236
-0.424032
-0.322078
-0.247173
-0.189057
-0.144248
-0.11029
-0.0810614
-0.830084
-0.707541
-0.532656
-0.404343
-0.304849
-0.232493
-0.176311
-0.133245
-0.100765
-0.0725223
-0.812139
-0.683285
-0.508913
-0.383112
-0.28654
-0.216709
-0.162685
-0.121508
-0.0905688
-0.0634279
-0.790482
-0.656071
-0.482968
-0.360571
-0.266972
-0.199862
-0.148208
-0.109064
-0.0797416
-0.0538113
-0.765056
-0.626021
-0.454906
-0.336571
-0.246234
-0.182002
-0.132917
-0.0959446
-0.06832
-0.0437075
-0.73585
-0.593278
-0.424988
-0.310923
-0.224364
-0.163187
-0.116851
-0.0821869
-0.0563418
-0.0331531
-0.7029
-0.55785
-0.393308
-0.283741
-0.201405
-0.143482
-0.100057
-0.0678318
-0.0438473
-0.0221874
-0.666303
-0.519515
-0.360155
-0.255165
-0.177411
-0.122955
-0.0825919
-0.0529264
-0.0308808
-0.0108537
-0.626224
-0.478342
-0.325583
-0.225347
-0.152448
-0.101683
-0.0645207
-0.0375241
-0.0174911
0.000797014
-0.582829
-0.434635
-0.289554
-0.194434
-0.126604
-0.0797465
-0.0459163
-0.0216849
-0.00373181
0.012706
-0.536143
-0.388927
-0.252099
-0.162567
-0.0999789
-0.057232
-0.0268572
-0.0054736
0.0103427
0.0248106
-0.48618
-0.341836
-0.213336
-0.129878
-0.0726828
-0.0342302
-0.0074255
0.0110448
0.0246832
0.03705
-0.433402
-0.293508
-0.173434
-0.096502
-0.0448357
-0.0108369
0.0122952
0.0278117
0.0392456
0.0493461
-0.378176
-0.244102
-0.132593
-0.062576
-0.0165637
0.0128467
0.0322238
0.044779
0.0539698
0.0615236
-0.320888
-0.19382
-0.0910348
-0.0282473
0.0120006
0.0367149
0.0522838
0.0619035
0.0687399
0.0732261
-0.261936
-0.142894
-0.0489897
0.00632745
0.0407198
0.0606594
0.0724018
0.0791169
0.0833611
0.0841083
-0.201732
-0.0915795
-0.00669676
0.0409828
0.0694523
0.0845704
0.0924963
0.0962896
0.097621
0.0944307
-0.140703
-0.0401477
0.0356019
0.0755461
0.0980541
0.108337
0.112469
0.113253
0.111415
0.105499
-0.0792815
0.0111171
0.0776634
0.10984
0.126381
0.131848
0.132207
0.129884
0.125002
0.117149
-0.017907
0.0619219
0.119246
0.143682
0.154286
0.154987
0.151606
0.146144
0.138417
0.128937
0.0429791
0.111969
0.16011
0.176891
0.181626
0.177636
0.170558
0.161982
0.1516
0.140665
0.102937
0.160959
0.200019
0.209284
0.208256
0.199678
0.188969
0.177345
0.164467
0.152127
0.161533
0.208596
0.23874
0.240682
0.234033
0.220996
0.206745
0.19217
0.176945
0.163212
0.21834
0.254589
0.276048
0.270908
0.258818
0.241476
0.223797
0.20639
0.188957
0.173829
0.272946
0.298657
0.311722
0.29979
0.282475
0.261008
0.24004
0.219936
0.200434
0.183912
0.324952
0.34053
0.345552
0.327163
0.304873
0.279486
0.25539
0.23274
0.211308
0.193404
0.37397
0.379962
0.377338
0.352868
0.325886
0.296808
0.269768
0.244737
0.221518
0.202258
0.419637
0.41672
0.406893
0.376754
0.345397
0.312881
0.283099
0.255864
0.231004
0.21043
0.461654
0.450559
0.434037
0.398679
0.363293
0.327613
0.295311
0.266063
0.23971
0.217882
0.499786
0.481209
0.458605
0.418512
0.379472
0.340925
0.30634
0.275278
0.247585
0.224582
0.533773
0.508461
0.480443
0.436134
0.393841
0.352741
0.316125
0.283459
0.254584
0.230499
0.563374
0.53214
0.499418
0.451438
0.406317
0.362995
0.324615
0.290561
0.260663
0.23561
0.588376
0.552101
0.515412
0.464334
0.416827
0.37163
0.331763
0.296543
0.265785
0.239896
0.608599
0.568218
0.528327
0.474744
0.42531
0.378597
0.337528
0.30137
0.26992
0.24334
0.623895
0.580393
0.538083
0.482606
0.431716
0.383857
0.341881
0.305015
0.273044
0.245931
0.634155
0.588552
0.544621
0.487874
0.436007
0.387381
0.344796
0.307457
0.275137
0.247662
0.639304
0.592644
0.5479
0.490516
0.438159
0.389147
0.346258
0.308682
0.276187
0.248528
0.639304
0.592644
0.5479
0.490516
0.438159
0.389147
0.346258
0.308682
0.276187
0.248528
0.634155
0.588552
0.544621
0.487874
0.436007
0.387381
0.344796
0.307457
0.275137
0.247662
0.623895
0.580393
0.538083
0.482606
0.431716
0.383857
0.341881
0.305015
0.273044
0.245931
0.608599
0.568218
0.528327
0.474744
0.42531
0.378597
0.337528
0.30137
0.26992
0.24334
0.588376
0.552101
0.515412
0.464334
0.416827
0.37163
0.331763
0.296543
0.265785
0.239896
0.563374
0.53214
0.499418
0.451438
0.406317
0.362995
0.324615
0.290561
0.260663
0.23561
0.533773
0.508461
0.480443
0.436134
0.393841
0.352741
0.316125
0.283459
0.254584
0.230499
0.499786
0.481209
0.458605
0.418512
0.379472
0.340925
0.30634
0.275278
0.247585
0.224582
0.461654
0.450559
0.434037
0.398679
0.363293
0.327613
0.295311
0.266063
0.23971
0.217882
0.419637
0.41672
0.406893
0.376754
0.345397
0.312881
0.283099
0.255864
0.231004
0.21043
0.37397
0.379962
0.377338
0.352868
0.325886
0.296808
0.269768
0.244737
0.221518
0.202258
0.324952
0.34053
0.345552
0.327163
0.304873
0.279486
0.25539
0.23274
0.211308
0.193404
0.272946
0.298657
0.311722
0.29979
0.282475
0.261008
0.24004
0.219936
0.200434
0.183912
0.21834
0.254589
0.276048
0.270908
0.258818
0.241476
0.223797
0.20639
0.188957
0.173829
0.161533
0.208596
0.23874
0.240682
0.234033
0.220996
0.206745
0.19217
0.176945
0.163212
0.102937
0.160959
0.200019
0.209284
0.208256
0.199678
0.188969
0.177345
0.164467
0.152127
0.0429791
0.111969
0.16011
0.176891
0.181626
0.177636
0.170558
0.161982
0.1516
0.140665
-0.017907
0.0619219
0.119246
0.143682
0.154286
0.154987
0.151606
0.146144
0.138417
0.128937
-0.0792815
0.0111171
0.0776634
0.10984
0.126381
0.131848
0.132207
0.129884
0.125002
0.117149
-0.140703
-0.0401477
0.0356019
0.0755461
0.0980541
0.108337
0.112469
0.113253
0.111415
0.105499
-0.201732
-0.0915795
-0.00669676
0.0409828
0.0694523
0.0845704
0.0924963
0.0962896
0.097621
0.0944307
-0.261936
-0.142894
-0.0489897
0.00632745
0.0407198
0.0606594
0.0724018
0.0791169
0.0833611
0.0841083
-0.320888
-0.19382
-0.0910348
-0.0282473
0.0120006
0.0367149
0.0522838
0.0619035
0.0687399
0.0732261
-0.378176
-0.244102
-0.132593
-0.062576
-0.0165637
0.0128467
0.0322238
0.044779
0.0539698
0.0615236
-0.433402
-0.293508
-0.173434
-0.096502
-0.0448357
-0.0108369
0.0122952
0.0278117
0.0392456
0.0493461
-0.48618
-0.341836
-0.213336
-0.129878
-0.0726828
-0.0342302
-0.0074255
0.0110448
0.0246832
0.03705
-0.536143
-0.388927
-0.252099
-0.162567
-0.0999789
-0.057232
-0.0268572
-0.0054736
0.0103427
0.0248106
-0.582829
-0.434635
-0.289554
-0.194434
-0.126604
-0.0797465
-0.0459163
-0.0216849
-0.00373181
0.012706
-0.626224
-0.478342
-0.325583
-0.225347
-0.152448
-0.101683
-0.0645207
-0.0375241
-0.0174911
0.000797014
-0.666303
-0.519515
-0.360155
-0.255165
-0.177411
-0.122955
-0.0825919
-0.0529264
-0.0308808
-0.0108537
-0.702899
-0.55785
-0.393308
-0.283741
-0.201405
-0.143482
-0.100057
-0.0678318
-0.0438473
-0.0221874
-0.73585
-0.593278
-0.424988
-0.310923
-0.224364
-0.163187
-0.116851
-0.0821869
-0.0563418
-0.0331531
-0.765056
-0.626021
-0.454906
-0.336571
-0.246234
-0.182002
-0.132917
-0.0959446
-0.06832
-0.0437075
-0.790482
-0.656071
-0.482968
-0.360571
-0.266972
-0.199862
-0.148208
-0.109064
-0.0797416
-0.0538113
-0.812139
-0.683285
-0.508913
-0.383112
-0.28654
-0.216709
-0.162685
-0.121508
-0.0905688
-0.0634279
-0.830084
-0.707541
-0.532656
-0.404343
-0.304849
-0.232493
-0.176311
-0.133245
-0.100765
-0.0725223
-0.844421
-0.728778
-0.554236
-0.424032
-0.322078
-0.247173
-0.189057
-0.144248
-0.11029
-0.0810614
-0.855299
-0.746984
-0.573709
-0.442104
-0.33809
-0.260861
-0.200893
-0.154491
-0.119104
-0.0890156
-0.862902
-0.762165
-0.591122
-0.458567
-0.352772
-0.273519
-0.211894
-0.163935
-0.127164
-0.0963606
-0.86744
-0.774344
-0.606513
-0.473449
-0.366103
-0.285085
-0.221953
-0.172619
-0.134486
-0.103077
-0.869145
-0.783559
-0.619925
-0.486782
-0.378105
-0.295527
-0.231025
-0.180477
-0.141096
-0.109133
-0.868255
-0.789862
-0.631408
-0.498599
-0.388808
-0.30484
-0.239102
-0.187466
-0.146996
-0.11453
-0.865008
-0.793325
-0.641022
-0.508931
-0.398234
-0.313033
-0.246183
-0.193573
-0.152165
-0.119266
-0.859628
-0.794028
-0.648842
-0.517802
-0.406403
-0.320119
-0.252275
-0.198801
-0.156575
-0.123324
-0.852307
-0.792061
-0.654954
-0.525224
-0.413337
-0.326118
-0.257383
-0.203155
-0.160207
-0.126688
-0.843226
-0.787489
-0.65942
-0.53122
-0.419074
-0.331051
-0.261516
-0.206633
-0.163056
-0.129345
-0.832541
-0.780399
-0.662268
-0.535844
-0.423666
-0.334946
-0.264681
-0.209234
-0.165118
-0.131286
-0.820375
-0.770926
-0.663521
-0.539162
-0.427169
-0.337829
-0.26689
-0.210957
-0.16639
-0.132503
-0.806831
-0.759258
-0.663222
-0.541245
-0.429637
-0.33973
-0.268153
-0.211804
-0.166869
-0.132994
-0.792017
-0.745634
-0.661448
-0.542168
-0.43112
-0.340676
-0.268481
-0.211777
-0.166551
-0.132756
-0.776028
-0.730376
-0.658328
-0.541998
-0.431661
-0.340692
-0.267885
-0.210879
-0.165432
-0.131784
-0.758962
-0.713788
-0.654059
-0.540788
-0.431299
-0.339801
-0.266373
-0.209111
-0.163515
-0.130067
-0.740946
-0.696313
-0.648632
-0.538573
-0.430067
-0.338018
-0.263951
-0.206474
-0.160799
-0.1276
-0.722128
-0.678453
-0.641905
-0.535384
-0.427986
-0.335349
-0.260618
-0.202968
-0.157287
-0.12438
-0.702668
-0.66061
-0.633758
-0.531263
-0.425065
-0.331789
-0.256374
-0.198592
-0.152981
-0.120396
-0.68275
-0.643052
-0.624157
-0.526256
-0.421295
-0.327316
-0.251213
-0.193345
-0.147889
-0.115637
-0.662542
-0.625918
-0.61315
-0.520395
-0.416644
-0.3219
-0.245126
-0.187225
-0.142026
-0.11007
-0.642208
-0.609237
-0.600851
-0.51368
-0.411051
-0.315502
-0.238101
-0.18023
-0.135423
-0.103659
-0.621877
-0.592948
-0.587421
-0.506068
-0.404432
-0.308079
-0.230126
-0.172357
-0.128137
-0.0963773
-0.601634
-0.57692
-0.573034
-0.497472
-0.39668
-0.299579
-0.221182
-0.163608
-0.120273
-0.0882068
-0.581503
-0.560976
-0.55785
-0.487763
-0.387679
-0.289939
-0.211246
-0.153976
-0.112006
-0.0798549
-0.561443
-0.544915
-0.541973
-0.476784
-0.377307
-0.27909
-0.200287
-0.1435
-0.103143
-0.0726167
-0.541361
-0.528532
-0.525435
-0.464363
-0.365439
-0.26696
-0.188261
-0.132211
-0.0934653
-0.0654
-0.521125
-0.511644
-0.508189
-0.450339
-0.351964
-0.25348
-0.17513
-0.1201
-0.0829328
-0.0573521
-0.500597
-0.494079
-0.490131
-0.43458
-0.336785
-0.238597
-0.160877
-0.107154
-0.0716374
-0.0484323
-0.479653
-0.475726
-0.47113
-0.417007
-0.319847
-0.222282
-0.145521
-0.0933919
-0.059701
-0.0388549
-0.458203
-0.456525
-0.45107
-0.397611
-0.301143
-0.204548
-0.129121
-0.0788766
-0.0472443
-0.0288083
-0.43618
-0.436511
-0.429894
-0.376471
-0.280741
-0.185467
-0.111781
-0.0637055
-0.0344001
-0.0184268
-0.413664
-0.415741
-0.407647
-0.35377
-0.258796
-0.165184
-0.0936596
-0.0480109
-0.0213243
-0.00783633
-0.390826
-0.394386
-0.38447
-0.329797
-0.235563
-0.143933
-0.0749674
-0.0319662
-0.00818837
0.00282625
-0.3679
-0.372909
-0.360531
-0.304953
-0.211412
-0.12204
-0.0559693
-0.0157949
0.00483079
0.0134107
-0.345219
-0.351508
-0.336427
-0.279744
-0.186822
-0.0999283
-0.036986
0.000228704
0.0175459
0.0237376
-0.3232
-0.330565
-0.312653
-0.254782
-0.162381
-0.0781031
-0.0183974
0.0157849
0.0297469
0.0336067
-0.302321
-0.310555
-0.289799
-0.230665
-0.13876
-0.0571312
-0.000636697
0.0305223
0.0411972
0.0428191
-0.283096
-0.292011
-0.268544
-0.208075
-0.1167
-0.0376143
0.0158249
0.0440736
0.0516436
0.0511777
-0.266051
-0.275504
-0.249511
-0.187737
-0.0969801
-0.020159
0.030502
0.0560727
0.0608304
0.0584913
-0.251693
-0.261565
-0.233417
-0.170205
-0.0804652
-0.00534584
0.0429238
0.0661709
0.0685157
0.0645839
-0.24048
-0.250654
-0.22083
-0.156462
-0.0674096
0.00631264
0.0526643
0.0740551
0.0744856
0.069302
-0.232783
-0.243152
-0.212164
-0.147017
-0.0583622
0.0143653
0.059371
0.0794672
0.0785678
0.0725209
-0.228866
-0.23933
-0.207745
-0.142209
-0.0537302
0.0184793
0.0627906
0.0822218
0.0806405
0.074153
0.057277
0.0450589
0.0342491
0.0255921
0.0193138
0.0146258
0.0110603
0.00835857
0.00630708
0.00474196
0.00354682
0.00263034
0.00194474
0.00142207
0.00102852
0.000734928
0.000518082
0.000359863
0.000246003
0.000165432
0.000109273
7.08186e-05
4.49814e-05
2.79665e-05
1.69922e-05
1.00689e-05
5.78373e-06
3.16899e-06
1.55855e-06
4.64726e-07
0.0562017
0.0445594
0.0339483
0.0254209
0.0192203
0.0145698
0.0110263
0.00833789
0.00629416
0.00473375
0.00354164
0.00262439
0.00194235
0.00142042
0.00102739
0.000734141
0.000517531
0.000359476
0.000245731
0.000165244
0.000109144
7.07311e-05
4.49229e-05
2.79285e-05
1.69682e-05
1.00539e-05
5.77454e-06
3.16362e-06
1.55579e-06
4.6378e-07
0.05407
0.0435671
0.0333474
0.0250798
0.0190331
0.0144577
0.0109582
0.00829647
0.00626828
0.00471732
0.00353138
0.00263493
0.00193763
0.00141713
0.00102512
0.000732566
0.000516428
0.0003587
0.000245186
0.000164868
0.000108885
7.0556e-05
4.48064e-05
2.78524e-05
1.69196e-05
1.00238e-05
5.75649e-06
3.15339e-06
1.55063e-06
4.62168e-07
0.0509196
0.0420938
0.0324488
0.0245709
0.0187519
0.0142891
0.010856
0.00823424
0.00622939
0.0046926
0.00351549
0.0026192
0.00193018
0.00141218
0.00102172
0.000730203
0.000514774
0.000357537
0.00024437
0.000164304
0.000108498
7.02936e-05
4.46316e-05
2.77384e-05
1.68469e-05
9.97864e-06
5.72943e-06
3.13804e-06
1.54288e-06
4.59745e-07
0.046806
0.0401545
0.0312567
0.0238971
0.0183764
0.0140636
0.0107194
0.00815102
0.00617737
0.00465953
0.00349407
0.00260361
0.00192021
0.00140557
0.00101718
0.000727052
0.000512568
0.000355987
0.000243282
0.000163553
0.000107982
6.99439e-05
4.43989e-05
2.75865e-05
1.67501e-05
9.91853e-06
5.69339e-06
3.1176e-06
1.53256e-06
4.56519e-07
0.0418013
0.037766
0.029778
0.023062
0.0179059
0.0137808
0.0105484
0.00804662
0.00611211
0.00461803
0.00346717
0.0025854
0.00190783
0.00139729
0.00101149
0.000723113
0.000509811
0.000354049
0.000241923
0.000162614
0.000107337
6.95072e-05
4.41082e-05
2.73969e-05
1.66292e-05
9.84351e-06
5.6484e-06
3.09207e-06
1.51967e-06
4.52497e-07
0.0359919
0.0349458
0.0280225
0.0220689
0.0173397
0.0134402
0.0103425
0.00792078
0.00603344
0.00456801
0.00343478
0.00256312
0.00189299
0.00138732
0.00100466
0.000718384
0.000506501
0.000351724
0.000240292
0.000161489
0.000106565
6.89839e-05
4.37599e-05
2.71697e-05
1.64844e-05
9.75364e-06
5.5945e-06
3.0615e-06
1.50422e-06
4.47692e-07
0.0294759
0.0317119
0.0260017
0.0209208
0.0166772
0.0130414
0.0101014
0.00777318
0.00594118
0.00450937
0.00339686
0.00253743
0.00187589
0.00137568
0.00099667
0.000712864
0.00050264
0.000349013
0.000238391
0.000160178
0.000105664
6.83743e-05
4.33542e-05
2.69051e-05
1.63158e-05
9.64901e-06
5.53177e-06
3.0259e-06
1.48625e-06
4.42117e-07
0.0223596
0.0280764
0.023729
0.0196206
0.0159179
0.0125841
0.00982468
0.00760347
0.0058351
0.00444197
0.00335334
0.00250838
0.00185729
0.00136231
0.000987517
0.000706552
0.000498226
0.000345914
0.000236219
0.000158682
0.000104637
6.76788e-05
4.28915e-05
2.66033e-05
1.61235e-05
9.52972e-06
5.46025e-06
2.98532e-06
1.46576e-06
4.35787e-07
0.0147575
0.0240475
0.0212126
0.0181704
0.0150617
0.0120679
0.00951183
0.00741124
0.00571495
0.00436568
0.00330415
0.00247596
0.00183207
0.00134707
0.000977191
0.000699445
0.000493259
0.00034243
0.000233778
0.000157
0.000103483
6.68978e-05
4.2372e-05
2.62646e-05
1.59078e-05
9.39588e-06
5.38002e-06
2.93981e-06
1.44279e-06
4.28719e-07
0.00685802
0.0197133
0.0184588
0.0165712
0.0141087
0.0114925
0.00916223
0.00719603
0.00558046
0.00428034
0.0032492
0.00244025
0.00182029
0.00133026
0.000965699
0.000691542
0.000487738
0.000338558
0.000231068
0.000155135
0.000102203
6.60319e-05
4.17961e-05
2.58893e-05
1.56687e-05
9.24761e-06
5.29118e-06
2.8894e-06
1.41735e-06
4.20932e-07
-0.00121018
0.0150194
0.0154861
0.0148246
0.013059
0.0108573
0.00877522
0.00695735
0.00543132
0.00418577
0.00318833
0.00240059
0.00178729
0.0013116
0.000952936
0.000682827
0.000481661
0.000334301
0.000228088
0.000153085
0.000100797
6.50816e-05
4.11643e-05
2.54776e-05
1.54065e-05
9.08506e-06
5.1938e-06
2.83416e-06
1.38949e-06
4.12449e-07
-0.00944187
0.00998944
0.0123271
0.0129334
0.0119128
0.010162
0.00835008
0.00669468
0.00526719
0.00408177
0.00312144
0.0023568
0.0017581
0.00129098
0.000939073
0.00067332
0.000475029
0.000329657
0.00022484
0.000150854
9.92675e-05
6.40476e-05
4.04771e-05
2.50298e-05
1.51215e-05
8.90839e-06
5.08799e-06
2.77414e-06
1.35922e-06
4.03291e-07
-0.0176924
0.00470169
0.00899915
0.0109006
0.0106712
0.00940582
0.00788596
0.0064074
0.00508766
0.00396812
0.00304841
0.00230917
0.00172637
0.00127369
0.000923741
0.000662936
0.00046783
0.000324625
0.000221323
0.000148439
9.76134e-05
6.29303e-05
3.97348e-05
2.45464e-05
1.48139e-05
8.71776e-06
4.97386e-06
2.70941e-06
1.32659e-06
3.93483e-07
-0.0258318
-0.000793174
0.00554949
0.00872299
0.00933427
0.00858848
0.00738232
0.00609494
0.0048923
0.00384453
0.00296909
0.00225751
0.00169197
0.00124931
0.000906921
0.000651594
0.000460023
0.000319195
0.000217533
0.000145842
9.58352e-05
6.17299e-05
3.89378e-05
2.40276e-05
1.44838e-05
8.51333e-06
4.85153e-06
2.64003e-06
1.29165e-06
3.83055e-07
-0.0337825
-0.00644925
0.0020253
0.0063989
0.00789595
0.00770626
0.00683757
0.00575683
0.00468097
0.00371095
0.00288348
0.0022018
0.001655
0.00122348
0.000891661
0.00064048
0.000451718
0.000313389
0.00021347
0.00014306
9.39331e-05
6.04471e-05
3.80868e-05
2.3474e-05
1.41318e-05
8.2954e-06
4.72116e-06
2.56611e-06
1.25442e-06
3.72033e-07
-0.0414828
-0.0122603
-0.00163843
0.0039792
0.00635783
0.0067576
0.00624779
0.00538953
0.00445154
0.00356632
0.00279108
0.00214186
0.00161535
0.00119779
0.000874084
0.000624882
0.000443109
0.000307219
0.000209178
0.000140105
9.19117e-05
5.90863e-05
3.71856e-05
2.28882e-05
1.37594e-05
8.06467e-06
4.58308e-06
2.48776e-06
1.21498e-06
3.6045e-07
-0.0487402
-0.0182084
-0.0053867
0.00148483
0.00473885
0.00576523
0.00563182
0.00500203
0.00420684
0.00341095
0.0026914
0.00207704
0.00157246
0.00116862
0.000853578
0.000614574
0.000431255
0.000300083
0.00020453
0.000136954
8.97664e-05
5.76462e-05
3.62327e-05
2.2269e-05
1.33656e-05
7.82077e-06
4.43714e-06
2.40496e-06
1.17332e-06
3.48332e-07
-0.0555528
-0.0238585
-0.00915646
-0.00116153
0.00293466
0.00461254
0.00493394
0.00458543
0.00395376
0.00325453
0.00259301
0.00201399
0.00153119
0.00114125
0.000835348
0.000599385
0.000425464
0.000294009
0.000198565
0.000133405
8.74117e-05
5.60679e-05
3.51877e-05
2.15915e-05
1.29373e-05
7.55738e-06
4.28071e-06
2.31677e-06
1.12917e-06
3.35656e-07
-0.0631312
-0.0313874
-0.0139284
-0.0043015
0.000926972
0.00332419
0.00408043
0.00402189
0.00359098
0.00302181
0.00244304
0.00191651
0.00146707
0.00109866
0.00080645
0.000580632
0.000410328
0.000285783
0.00019593
0.000129865
8.48337e-05
5.42959e-05
3.40131e-05
2.08367e-05
1.24658e-05
7.27111e-06
4.11261e-06
2.22281e-06
1.08246e-06
3.22412e-07
-0.0628825
-0.0324314
-0.015036
-0.00536046
9.85869e-05
0.00275038
0.00371718
0.00379565
0.00344623
0.00292741
0.00238028
0.00187395
0.00143755
0.0010778
0.000791497
0.000569768
0.000402659
0.000279611
0.000190615
0.000126821
8.28773e-05
5.30032e-05
3.31535e-05
2.02676e-05
1.20947e-05
7.03496e-06
3.96773e-06
2.13854e-06
1.03949e-06
3.10079e-07
-0.0630673
-0.0338652
-0.0166783
-0.00691537
-0.00118257
0.00177318
0.00299794
0.00327843
0.00308067
0.00267169
0.0022023
0.00175043
0.00135199
0.00101873
0.000750855
0.000541976
0.000383825
0.000266803
0.000181962
0.000121219
7.9236e-05
5.06814e-05
3.17009e-05
1.93768e-05
1.15601e-05
6.72161e-06
3.78956e-06
2.04173e-06
9.92634e-07
2.96633e-07
-0.0628842
-0.0350723
-0.0181871
-0.00841218
-0.00245713
0.000778268
0.00225247
0.00273446
0.002691
0.00239551
0.0020077
0.00161387
0.00125644
0.000952174
0.00070471
0.000510233
0.000362117
0.000252105
0.000172149
0.000114756
7.50283e-05
4.7997e-05
3.00227e-05
1.83499e-05
1.09463e-05
6.36393e-06
3.58767e-06
1.93301e-06
9.404e-07
2.81645e-07
-0.062338
-0.0360326
-0.0195255
-0.00980142
-0.00367713
-0.000191246
0.00151752
0.00219288
0.00229967
0.00211608
0.00180955
0.00147405
0.00115815
0.000883416
0.000656859
0.000477189
0.000339452
0.000236702
0.000161803
0.000107942
7.05933e-05
4.51641e-05
2.82482e-05
1.72615e-05
1.02938e-05
5.98262e-06
3.37182e-06
1.81648e-06
8.84291e-07
2.65542e-07
-0.0614971
-0.0367577
-0.0207087
-0.0110932
-0.00485296
-0.00114685
0.000781402
0.00164305
0.001898
0.00182677
0.00160298
0.00132746
0.00105466
0.000810752
0.000606149
0.000442085
0.000315342
0.000220286
0.000150756
0.000100665
6.58563e-05
4.21369e-05
2.63509e-05
1.6097e-05
9.59525e-06
5.57404e-06
3.14033e-06
1.6914e-06
8.2401e-07
2.48234e-07
-0.0603234
-0.0372363
-0.0217296
-0.0122793
-0.00597885
-0.00208648
4.40075e-05
0.00108369
0.00148422
0.00152577
0.00138632
0.00117271
0.000944831
0.000733327
0.000551946
0.000404466
0.000289459
0.000202646
0.000138879
9.28309e-05
6.07552e-05
3.8876e-05
2.4307e-05
1.48426e-05
8.84284e-06
5.13405e-06
2.89109e-06
1.55677e-06
7.59126e-07
2.29608e-07
-0.0588167
-0.0374636
-0.0225794
-0.0133469
-0.00704312
-0.00300186
-0.000688881
0.000518585
0.00106053
0.00121424
0.00116012
0.00101001
0.000828708
0.00065109
0.000494171
0.00036425
0.000261732
0.000183727
0.000126132
8.44109e-05
5.52701e-05
3.53685e-05
2.21081e-05
1.3493e-05
8.0334e-06
4.66078e-06
2.62305e-06
1.41203e-06
6.89378e-07
2.09608e-07
-0.0570077
-0.0374402
-0.0232526
-0.0142859
-0.00803483
-0.0038848
-0.00141138
-4.83113e-05
0.000629336
0.000893534
0.000925105
0.000839687
0.000706408
0.000564056
0.000432793
0.000321396
0.000232119
0.000163493
0.000112485
7.53845e-05
4.93871e-05
3.16051e-05
1.97482e-05
1.20445e-05
7.16459e-06
4.15282e-06
2.33539e-06
1.25674e-06
6.14553e-07
1.88191e-07
-0.0549261
-0.0371689
-0.0237457
-0.0150883
-0.008944
-0.00472756
-0.00211785
-0.000613121
0.000192995
0.000564963
0.000681931
0.00066203
0.000578019
0.000472216
0.000367763
0.000275845
0.000200568
0.0001419
9.79063e-05
6.57287e-05
4.30905e-05
2.75754e-05
1.72207e-05
1.04928e-05
6.23393e-06
3.60873e-06
2.02732e-06
1.09046e-06
5.34445e-07
1.65322e-07
-0.0526053
-0.0366561
-0.0240574
-0.015748
-0.00976147
-0.00552241
-0.00280258
-0.00117172
-0.000245852
0.000230066
0.000431433
0.000477442
0.000443698
0.000375603
0.000299056
0.000227554
0.000167033
0.00011891
8.23663e-05
5.54225e-05
3.63657e-05
2.32698e-05
1.45194e-05
8.8343e-06
5.23915e-06
3.0272e-06
1.69809e-06
9.12812e-07
4.4888e-07
1.40976e-07
-0.0500835
-0.0359126
-0.0241875
-0.016262
-0.0104792
-0.00626168
-0.00345973
-0.00171976
-0.000684256
-0.000109353
0.000174644
0.000286476
0.000303708
0.000274319
0.000226695
0.00017651
0.00013149
9.44984e-05
6.58442e-05
4.44502e-05
2.92015e-05
1.86807e-05
1.16395e-05
7.06588e-06
4.17846e-06
2.4072e-06
1.34714e-06
7.23487e-07
3.57725e-07
1.15145e-07
-0.0473999
-0.0349524
-0.0241371
-0.0166296
-0.0110906
-0.00693805
-0.00408353
-0.00225273
-0.00111903
-0.000451252
-8.72021e-05
8.98301e-05
0.00015842
0.000168543
0.000150752
0.000122735
9.39383e-05
6.86536e-05
4.83284e-05
3.28023e-05
2.15905e-05
1.38031e-05
8.57767e-06
5.18553e-06
3.05063e-06
1.74802e-06
9.74083e-07
5.22292e-07
2.60898e-07
8.78379e-08
-0.0445936
-0.0337921
-0.0239105
-0.0168529
-0.0115913
-0.00754474
-0.00466835
-0.00276613
-0.0015468
-0.000793366
-0.000352683
-0.000111639
8.31882e-06
5.8537e-05
7.13607e-05
6.62907e-05
5.44021e-05
4.1384e-05
2.98196e-05
2.0477e-05
1.35307e-05
8.6352e-06
5.33264e-06
3.19243e-06
1.85519e-06
1.04941e-06
5.78792e-07
3.09164e-07
1.58386e-07
5.90841e-08
-0.0417029
-0.0324514
-0.023515
-0.0169363
-0.0119788
-0.00807585
-0.0052089
-0.00325554
-0.00196409
-0.00113324
-0.000620186
-0.000316916
-0.000145982
-5.53441e-05
-1.12803e-05
7.28552e-06
1.29396e-05
1.27193e-05
1.0333e-05
7.48245e-06
5.02619e-06
3.17921e-06
1.90565e-06
1.08731e-06
5.92591e-07
3.11646e-07
1.61443e-07
8.42076e-08
5.02544e-08
2.89359e-08
-0.0387648
-0.0309531
-0.0229612
-0.0168858
-0.0122529
-0.00852667
-0.00570027
-0.00371675
-0.00236739
-0.00146829
-0.000887927
-0.000524828
-0.000303737
-0.000172642
-9.68952e-05
-5.4117e-05
-3.03529e-05
-1.72842e-05
-1.00984e-05
-6.16151e-06
-3.91129e-06
-2.55771e-06
-1.69895e-06
-1.12717e-06
-7.35578e-07
-4.64318e-07
-2.77408e-07
-1.52269e-07
-6.3333e-08
-2.52817e-09
-0.0358146
-0.0293227
-0.0222627
-0.0167095
-0.0124157
-0.00889404
-0.0061382
-0.00414584
-0.00275326
-0.00179579
-0.00115397
-0.000734043
-0.000464065
-0.000292786
-0.000185123
-0.00011769
-7.53344e-05
-4.85387e-05
-3.14201e-05
-2.04207e-05
-1.32605e-05
-8.56239e-06
-5.47303e-06
-3.44608e-06
-2.12633e-06
-1.27672e-06
-7.36748e-07
-3.99712e-07
-1.82095e-07
-3.51999e-08
-0.0328854
-0.0275878
-0.0214355
-0.0164171
-0.0124717
-0.00917666
-0.00651923
-0.00453932
-0.00311845
-0.00211301
-0.00141624
-0.000943082
-0.00062594
-0.000415086
-0.000275508
-0.000183137
-0.000121812
-8.09201e-05
-5.35525e-05
-3.52441e-05
-2.29889e-05
-1.48145e-05
-9.40394e-06
-5.86165e-06
-3.57502e-06
-2.12282e-06
-1.21501e-06
-6.5727e-07
-3.05613e-07
-6.89374e-08
-0.0300083
-0.0257777
-0.0204981
-0.0160199
-0.0124278
-0.00937531
-0.00684093
-0.00489423
-0.00345994
-0.00241725
-0.00167257
-0.00115033
-0.000788197
-0.000538728
-0.00036749
-0.00025008
-0.000169533
-0.000114262
-7.63863e-05
-5.05604e-05
-3.3051e-05
-2.1285e-05
-1.34737e-05
-8.36285e-06
-5.07499e-06
-2.99872e-06
-1.70999e-06
-9.23746e-07
-4.33304e-07
-1.0356e-07
-0.0272118
-0.0239226
-0.0194709
-0.0155307
-0.0122927
-0.00949298
-0.0071022
-0.00520829
-0.00377509
-0.0027059
-0.00192076
-0.00135404
-0.000949531
-0.000662761
-0.000460399
-0.000318052
-0.000218179
-0.000148347
-9.97783e-05
-6.62752e-05
-4.33856e-05
-2.79351e-05
-1.76578e-05
-1.09347e-05
-6.6173e-06
-3.89918e-06
-2.2187e-06
-1.19753e-06
-5.64395e-07
-1.38845e-07
-0.0245224
-0.0220533
-0.0183765
-0.0149636
-0.0120773
-0.00953487
-0.00730346
-0.00547999
-0.00406173
-0.00297657
-0.00215858
-0.00155237
-0.0011085
-0.000786101