/*--------------------------------*- C++ -*----------------------------------*\
  =========                 |
  \\      /  F ield         | OpenFOAM: The Open Source CFD Toolbox
   \\    /   O peration     | Website:  https://openfoam.org
    \\  /    A nd           | Version:  9
     \\/     M anipulation  |
\*---------------------------------------------------------------------------*/
FoamFile
{
    format      ascii;
    class       surfaceScalarField;
    location    "6";
    object      phi;
}
// * * * * * * * * * * * * * * * * * * * * * * * * * * * * * * * * * * * * * //

dimensions      [0 3 -1 0 0 0 0];

internalField   nonuniform List<scalar> 
16735
(
-0.00157015
0.00157015
1.29237e-10
-0.00430186
0.00273171
2.73973e-10
-0.00730899
0.00300713
3.61991e-10
-0.00983339
0.0025244
3.83948e-10
-0.0112929
0.00145949
3.50053e-10
-0.0111266
-0.000166277
2.4694e-10
-0.00880315
-0.00232346
7.73969e-11
-0.00369539
-0.00510776
-1.70805e-10
0.00428388
-0.00797926
-4.84147e-10
-0.0116908
-8.56559e-10
0.0159747
-0.00153667
0.00310682
-0.00418596
0.00538101
-0.00706045
0.00588162
-0.00939694
0.00486089
-0.0106042
0.00266679
-0.0101102
-0.000660318
-0.00736866
-0.005065
-0.00175972
-0.0107167
0.0069045
-0.0166435
-0.0242026
0.0194163
-0.00147035
0.00457717
-0.00395606
0.00786672
-0.00656711
0.00849267
-0.00853032
0.0068241
-0.0092368
0.00337327
-0.00809164
-0.00180548
-0.00451688
-0.00863976
0.00211943
-0.017353
0.0121054
-0.0266294
-0.0383238
0.0262266
-0.00137246
0.00594963
-0.00361584
0.0101101
-0.00583625
0.0107131
-0.00724589
0.00823374
-0.00721024
0.00333762
-0.00510065
-0.00391506
-0.00025563
-0.0134848
0.00789845
-0.0255071
0.0197918
-0.0385227
-0.0547917
0.0362596
-0.00124479
0.00719442
-0.00317059
0.0120359
-0.0048784
0.0124209
-0.00556146
0.00891681
-0.0045526
0.00232876
-0.00118785
-0.00727981
0.00522379
-0.0198964
0.0154238
-0.0357071
0.0298194
-0.0529183
-0.0742742
0.0493019
-0.00108959
0.00828401
-0.00262701
0.0135733
-0.00370686
0.0135007
-0.00349955
0.0087095
-0.00129813
0.000127341
0.0036077
-0.0121856
0.0119589
-0.0282476
0.0245873
-0.0483355
0.0420058
-0.0703368
-0.097348
0.0650796
-0.000909482
0.00919349
-0.00199284
0.0146567
-0.00233714
0.013845
-0.00108656
0.00745891
0.00250818
-0.0034674
0.00921304
-0.0188905
0.0198246
-0.0388592
0.0352448
-0.0637558
0.0561332
-0.0912252
-0.12448
0.0832655
-0.000707292
0.00990078
-0.00127651
0.0152259
-0.000786353
0.0133549
0.00164768
0.00502488
0.00682164
-0.00864136
0.0155563
-0.0276252
0.0287085
-0.0520114
0.047231
-0.0822783
0.0719533
-0.115947
-0.156014
0.103487
-0.00048607
0.0103868
-0.000486632
0.0152265
0.000927663
0.0119406
0.00467251
0.00128004
0.0115924
-0.0155613
0.0225605
-0.0385932
0.0384913
-0.0679423
0.0603646
-0.104151
0.0891915
-0.144774
-0.192157
0.125334
-0.000249627
0.0106365
0.000366353
0.0146105
0.00278634
0.0095206
0.00795577
-0.0038894
0.0167678
-0.0243733
0.0301437
-0.0519691
0.0490465
-0.0868451
0.074452
-0.129557
0.107551
-0.177873
-0.232961
0.148355
1.02001e-05
0.0106263
0.00127674
0.0133439
0.00477193
0.0060254
0.0114653
-0.0105827
0.0222947
-0.0352027
0.0382216
-0.0678961
0.0602423
-0.108866
0.0892907
-0.158605
0.126717
-0.2153
-0.27832
0.172077
0.000269353
0.0103569
0.00223471
0.0113786
0.00686727
0.00139285
0.0151696
-0.0188851
0.0281197
-0.0481528
0.0467077
-0.0864841
0.071942
-0.1341
0.104671
-0.191334
0.146363
-0.256992
-0.327964
0.196007
0.000542073
0.00981485
0.00323361
0.00868704
0.00905622
-0.00442976
0.0190384
-0.0288672
0.03419
-0.0633045
0.0555144
-0.107808
0.0840041
-0.16259
0.120375
-0.227705
0.166148
-0.302765
-0.381456
0.219639
0.000823004
0.00899185
0.00426724
0.00524281
0.0113241
-0.0114866
0.0230426
-0.0405858
0.0404531
-0.080715
0.0645522
-0.131907
0.0962823
-0.19432
0.136182
-0.267605
0.185726
-0.352309
-0.4382
0.242471
0.00111074
0.0078811
0.00533023
0.00102332
0.0136573
-0.0198137
0.0271541
-0.0540826
0.0468564
-0.100417
0.0737292
-0.15878
0.108624
-0.229215
0.151862
-0.310843
0.204748
-0.405195
-0.497466
0.264014
0.00140444
0.00647666
0.00641813
-0.00399037
0.0160435
-0.0294391
0.0313456
-0.0693846
0.0533464
-0.122418
0.0829501
-0.188384
0.12087
-0.267134
0.167182
-0.357155
0.222863
-0.460876
-0.558423
0.28382
0.00170361
0.00477305
0.00752711
-0.00981387
0.0184709
-0.0403828
0.0355895
-0.0865033
0.0598679
-0.146697
0.0921149
-0.220631
0.132854
-0.307873
0.181903
-0.406204
0.239725
-0.518699
-0.620231
0.301533
0.002008
0.00276505
0.00865382
-0.0164597
0.0209277
-0.0526567
0.0398574
-0.105433
0.0663623
-0.173201
0.101118
-0.255386
0.144405
-0.35116
0.195794
-0.457593
0.255005
-0.577909
-0.682142
0.316917
0.00231755
0.000447495
0.00979499
-0.0239371
0.0234021
-0.0662639
0.0441191
-0.12615
0.0727673
-0.20185
0.109846
-0.292465
0.155352
-0.396667
0.20864
-0.510881
0.268432
-0.637702
-0.74369
0.32998
0.00263221
-0.00218472
0.0109472
-0.0322521
0.0258809
-0.0811975
0.0483415
-0.148611
0.0790153
-0.232524
0.11818
-0.331629
0.165513
-0.444
0.220194
-0.565562
0.279882
-0.69739
-0.805451
0.341642
0.00295186
-0.00513658
0.0121064
-0.0414066
0.0283494
-0.0974406
0.0524885
-0.17275
0.0850342
-0.265069
0.125995
-0.37259
0.174695
-0.4927
0.230068
-0.620934
0.289468
-0.75679
-0.879447
0.363465
0.00327616
-0.00841274
0.0132678
-0.0513982
0.030791
-0.114964
0.0565206
-0.198479
0.0907482
-0.299297
0.133167
-0.415009
0.18272
-0.542253
0.238016
-0.67623
0.296086
-0.81486
-0.94604
0.362678
0.00360448
-0.0120172
0.0144256
-0.0622193
0.0331869
-0.133725
0.0603948
-0.225687
0.0960792
-0.334981
0.13958
-0.45851
0.189446
-0.592119
0.243917
-0.730701
0.29988
-0.870823
-1.00618
0.360022
0.0039358
-0.015953
0.0155725
-0.073856
0.0355155
-0.153668
0.0640652
-0.254237
0.10095
-0.371866
0.145127
-0.502688
0.194766
-0.641758
0.24777
-0.783704
0.301128
-0.924181
-1.0606
0.355547
0.00426863
-0.0202217
0.0167002
-0.0862876
0.0377533
-0.174721
0.0674841
-0.283968
0.105283
-0.409665
0.149715
-0.547119
0.198603
-0.690646
0.249594
-0.834695
0.299909
-0.974496
-1.10983
0.349137
0.00460102
-0.0248227
0.0177988
-0.0994854
0.0398744
-0.196797
0.0706024
-0.314696
0.109008
-0.44807
0.153266
-0.591378
0.200911
-0.73829
0.249433
-0.883217
0.296363
-1.02143
-1.15425
0.340785
0.00493053
-0.0297532
0.0188572
-0.113412
0.0418515
-0.219791
0.0733716
-0.346216
0.11206
-0.486759
0.155722
-0.63504
0.201672
-0.78424
0.247359
-0.928905
0.29067
-1.06474
-1.19417
0.330588
0.00525422
-0.0350074
0.0198632
-0.128021
0.0436564
-0.243584
0.075745
-0.378304
0.114382
-0.525396
0.157044
-0.677702
0.200901
-0.828097
0.243472
-0.971475
0.283028
-1.10429
-1.22984
0.318699
0.00556876
-0.0405762
0.0208037
-0.143256
0.0452607
-0.268041
0.0776795
-0.410723
0.115931
-0.563648
0.157212
-0.718983
0.19864
-0.869525
0.237892
-1.01073
0.273644
-1.14004
-1.2615
0.305301
0.00587043
-0.0464466
0.0216652
-0.159051
0.0466367
-0.293013
0.0791368
-0.443223
0.116674
-0.601185
0.156231
-0.758539
0.194953
-0.908247
0.23076
-1.04653
0.262727
-1.17201
-1.28936
0.290588
0.00615523
-0.0526018
0.0224339
-0.175329
0.0477582
-0.318337
0.080085
-0.47555
0.116593
-0.637693
0.154121
-0.796068
0.189926
-0.944052
0.222224
-1.07883
0.250477
-1.20026
-1.31363
0.274752
0.00641899
-0.0590208
0.0230963
-0.192007
0.0486015
-0.343842
0.0804996
-0.507448
0.115683
-0.672877
0.150924
-0.831308
0.183657
-0.976786
0.212437
-1.10761
0.237088
-1.22492
-1.33452
0.257973
0.00665742
-0.0656782
0.0236392
-0.208989
0.049146
-0.369349
0.0803638
-0.538666
0.113953
-0.706466
0.146692
-0.864047
0.176256
-1.00635
0.201553
-1.13291
0.222735
-1.2461
-1.3522
0.240415
0.00686626
-0.0725445
0.0240506
-0.226173
0.0493746
-0.394673
0.0796694
-0.568961
0.111422
-0.738219
0.141492
-0.894116
0.167837
-1.0327
0.189721
-1.15479
0.207581
-1.26396
-1.36684
0.222225
0.00704136
-0.0795859
0.0243197
-0.243451
0.0492746
-0.419628
0.0784162
-0.598102
0.108123
-0.767926
0.135398
-0.921391
0.158514
-1.05581
0.177079
-1.17336
0.191771
-1.27865
-1.3786
0.203534
0.00717875
-0.0867646
0.0244369
-0.260709
0.0488378
-0.444029
0.076612
-0.625876
0.104096
-0.795409
0.128491
-0.945786
0.148403
-1.07572
0.16376
-1.18872
0.175434
-1.29032
-1.38762
0.184453
0.00727477
-0.0940394
0.0243947
-0.277829
0.0480602
-0.467695
0.0742719
-0.652088
0.0993877
-0.820525
0.120854
-0.967252
0.137614
-1.09248
0.149883
-1.20098
0.158683
-1.29913
-1.39402
0.165082
0.00732616
-0.101366
0.0241874
-0.29469
0.0469428
-0.49045
0.0714175
-0.676563
0.0940519
-0.84316
0.112571
-0.985771
0.12625
-1.10616
0.135557
-1.21029
0.141618
-1.30519
-1.39791
0.145504
0.00733007
-0.108696
0.0238112
-0.311172
0.0454906
-0.512129
0.0680759
-0.699148
0.0881452
-0.863229
0.103727
-1.00135
0.11441
-1.11685
0.120879
-1.21676
0.124325
-1.30863
-1.39937
0.125792
0.00728418
-0.11598
0.0232645
-0.327152
0.0437128
-0.532578
0.0642787
-0.719714
0.0817266
-0.880677
0.0944006
-1.01403
0.102185
-1.12463
0.105937
-1.22051
0.10688
-1.30958
-1.3985
0.106009
0.00718669
-0.123166
0.0225478
-0.342513
0.0416222
-0.551652
0.0600611
-0.738153
0.0748557
-0.895471
0.0846705
-1.02384
0.0896558
-1.12962
0.0908072
-1.22166
0.0893476
-1.30812
-1.39537
0.0862122
0.00703641
-0.130203
0.0216634
-0.35714
0.0392349
-0.569224
0.0554608
-0.754379
0.0675922
-0.907603
0.0746094
-1.03086
0.0768995
-1.13191
0.0755584
-1.22032
0.0717855
-1.30434
-1.39003
0.0664465
0.00683275
-0.137036
0.0206158
-0.370923
0.0365696
-0.585177
0.0505173
-0.768326
0.0599942
-0.91708
0.0642859
-1.03515
0.0639838
-1.1316
0.0602507
-1.21659
0.0542445
-1.29834
-1.38254
0.0467529
0.00657571
-0.143611
0.0194109
-0.383758
0.0336473
-0.599414
0.0452708
-0.77995
0.052118
-0.923927
0.0537635
-1.0368
0.0509705
-1.12881
0.0449382
-1.21056
0.0367695
-1.29017
-1.37293
0.0271638
0.0062659
-0.149877
0.0180564
-0.395549
0.0304907
-0.611848
0.0397619
-0.789221
0.0440175
-0.928183
0.0431007
-1.03588
0.0379147
-1.12363
0.0296704
-1.20231
0.0194049
-1.2799
-1.3612
0.00767759
0.00590452
-0.155782
0.0165614
-0.406206
0.0271238
-0.622411
0.0340307
-0.796128
0.0357437
-0.929896
0.0323513
-1.03249
0.0248646
-1.11614
0.0144872
-1.19194
0.0022416
-1.26766
-1.3474
-0.0115654
0.00549332
-0.161275
0.0149362
-0.415648
0.0235712
-0.631046
0.0281163
-0.800673
0.0273446
-0.929124
0.0215651
-1.02671
0.0118656
-1.10644
-0.000631835
-1.17944
-0.0148512
-1.25344
-1.33168
-0.0305714
0.00503458
-0.16631
0.0131918
-0.423806
0.0198582
-0.637712
0.0220568
-0.802872
0.0188649
-0.925932
0.0107874
-1.01863
-0.00104219
-1.09461
-0.0154665
-1.16501
-0.0317033
-1.2372
-1.31402
-0.0493606
0.00453105
-0.170841
0.0113402
-0.430615
0.0160102
-0.642382
0.0158889
-0.80275
0.0103459
-0.920389
3.37977e-05
-1.00832
-0.0138061
-1.08077
-0.0301636
-1.14866
-0.0483107
-1.21905
-1.29444
-0.0678898
0.00398593
-0.174827
0.00939394
-0.436023
0.0120524
-0.64504
0.00964711
-0.800345
0.00182906
-0.912571
-0.0105831
-0.995905
-0.0264112
-1.06494
-0.0446424
-1.13043
-0.0646533
-1.19904
-1.27296
-0.0861304
0.0034028
-0.178229
0.00736565
-0.439986
0.00800944
-0.645684
0.00336564
-0.795701
-0.00665262
-0.902553
-0.0211056
-0.981452
-0.0388229
-1.04722
-0.0588713
-1.11038
-0.0807065
-1.17721
-1.24961
-0.104057
0.00278563
-0.181015
0.00526955
-0.44247
0.0039068
-0.644322
-0.00292678
-0.788868
-0.0150667
-0.890413
-0.0314777
-0.965041
-0.0510125
-1.02769
-0.0728226
-1.08857
-0.0964452
-1.15359
-1.22441
-0.121646
0.00213876
-0.183154
0.00312206
-0.443453
-0.000206508
-0.640993
-0.00920211
-0.779872
-0.0233835
-0.876231
-0.041671
-0.946754
-0.0629536
-1.00641
-0.0864706
-1.06505
-0.111844
-1.12821
-1.19738
-0.138873
0.00146777
-0.184622
0.000944995
-0.44293
-0.00440519
-0.635643
-0.0154342
-0.768843
-0.0315752
-0.86009
-0.05166
-0.926669
-0.0746225
-0.983444
-0.0997906
-1.03988
-0.126876
-1.10113
-1.16854
-0.155717
0.00077532
-0.185397
-0.00127035
-0.440884
-0.0085659
-0.628347
-0.0215956
-0.755813
-0.0396171
-0.842069
-0.0614218
-0.904864
-0.085997
-0.958869
-0.112759
-1.01312
-0.141517
-1.07237
-1.13791
-0.172152
3.43252e-05
-0.185431
-0.00351693
-0.437333
-0.012701
-0.619163
-0.0276639
-0.74085
-0.0474862
-0.822247
-0.0709355
-0.881415
-0.0970572
-0.932747
-0.125353
-0.984824
-0.155739
-1.04198
-1.10549
-0.188153
-0.000677295
-0.184754
-0.0057596
-0.432251
-0.0167931
-0.60813
-0.0336181
-0.724025
-0.055162
-0.800703
-0.0801823
-0.856395
-0.107785
-0.905145
-0.137553
-0.955055
-0.169515
-1.01002
-1.07131
-0.203696
-0.00140908
-0.183345
-0.0079924
-0.425668
-0.0208253
-0.595297
-0.0394388
-0.705412
-0.0626261
-0.777516
-0.0891452
-0.829876
-0.118163
-0.876127
-0.14934
-0.923878
-0.182823
-0.976538
-1.03538
-0.218751
-0.002146
-0.181199
-0.0102049
-0.417609
-0.0247814
-0.58072
-0.0451083
-0.685085
-0.0698614
-0.752762
-0.0978091
-0.801928
-0.128178
-0.845757
-0.160699
-0.891357
-0.195619
-0.941618
-0.997784
-0.233219
-0.00288248
-0.178316
-0.0123864
-0.408105
-0.0286465
-0.56446
-0.0506104
-0.663121
-0.076853
-0.72652
-0.10616
-0.772621
-0.137818
-0.814099
-0.171615
-0.857561
-0.207856
-0.905377
-0.958518
-0.247122
-0.0036139
-0.174703
-0.0145268
-0.397192
-0.0324067
-0.54658
-0.0559303
-0.639597
-0.083587
-0.698863
-0.114187
-0.742021
-0.147075
-0.781211
-0.182078
-0.822557
-0.219149
-0.868307
-0.919296
-0.258371
-0.00433594
-0.170367
-0.0166165
-0.384911
-0.0360489
-0.527148
-0.0610546
-0.614591
-0.0900509
-0.669867
-0.121878
-0.710194
-0.15594
-0.747148
-0.192105
-0.786393
-0.230397
-0.830014
-0.87881
-0.270884
-0.00504449
-0.165322
-0.0186464
-0.371309
-0.0395612
-0.506233
-0.0659709
-0.588182
-0.0962334
-0.639604
-0.129222
-0.677205
-0.164401
-0.711969
-0.201674
-0.74912
-0.241115
-0.790573
-0.837056
-0.28287
-0.00573564
-0.159586
-0.0206079
-0.356437
-0.0429325
-0.483909
-0.0706681
-0.560446
-0.102124
-0.608148
-0.136211
-0.643118
-0.172449
-0.675732
-0.210777
-0.710791
-0.251302
-0.750048
-0.794124
-0.294234
-0.00640567
-0.153181
-0.022493
-0.34035
-0.0461527
-0.460249
-0.0751361
-0.531463
-0.107714
-0.575571
-0.142835
-0.607997
-0.180075
-0.638492
-0.219406
-0.67146
-0.260964
-0.708491
-0.750095
-0.304993
-0.00705106
-0.14613
-0.0242945
-0.323106
-0.0492126
-0.435331
-0.0793656
-0.50131
-0.112994
-0.541942
-0.149087
-0.571904
-0.187271
-0.600309
-0.227553
-0.631178
-0.270093
-0.66595
-0.70503
-0.315157
-0.00766849
-0.138461
-0.0260053
-0.304769
-0.0521037
-0.409232
-0.0833483
-0.470065
-0.117957
-0.507334
-0.154959
-0.534901
-0.19403
-0.561238
-0.235209
-0.589999
-0.278679
-0.62248
-0.658989
-0.324721
-0.00825487
-0.130206
-0.0276193
-0.285405
-0.0548183
-0.382033
-0.0870766
-0.437807
-0.122595
-0.471815
-0.160444
-0.497052
-0.200345
-0.521337
-0.242366
-0.547978
-0.286714
-0.578132
-0.612027
-0.333676
-0.0088073
-0.121399
-0.0291306
-0.265082
-0.0573495
-0.353814
-0.0905435
-0.404613
-0.126902
-0.435457
-0.165535
-0.458419
-0.206208
-0.480665
-0.249016
-0.505169
-0.294185
-0.532963
-0.564202
-0.34201
-0.00932312
-0.112076
-0.0305339
-0.243871
-0.059691
-0.324657
-0.0937427
-0.370561
-0.130872
-0.398328
-0.170226
-0.419064
-0.211611
-0.43928
-0.255149
-0.461632
-0.301082
-0.48703
-0.515573
-0.349711
-0.00979985
-0.102276
-0.0318245
-0.221846
-0.0618369
-0.294645
-0.0966687
-0.33573
-0.134499
-0.360498
-0.174511
-0.379052
-0.216548
-0.397243
-0.260756
-0.417424
-0.307393
-0.440392
-0.466203
-0.356764
-0.0102353
-0.0920408
-0.0329981
-0.199083
-0.0637824
-0.263861
-0.0993162
-0.300196
-0.137778
-0.322037
-0.178385
-0.338444
-0.221013
-0.354615
-0.265829
-0.372608
-0.313108
-0.393114
-0.416155
-0.363156
-0.0106274
-0.0814134
-0.0340507
-0.17566
-0.0655228
-0.232389
-0.101681
-0.264038
-0.140704
-0.283013
-0.181842
-0.297307
-0.224998
-0.311458
-0.270361
-0.327246
-0.318215
-0.345259
-0.365497
-0.368873
-0.0109744
-0.070439
-0.0349791
-0.151655
-0.0670541
-0.200314
-0.103759
-0.227333
-0.143274
-0.243498
-0.184877
-0.255704
-0.228499
-0.267836
-0.274342
-0.281402
-0.322706
-0.296896
-0.314301
-0.373902
-0.0112748
-0.0591642
-0.0357803
-0.12715
-0.068373
-0.167721
-0.105546
-0.19016
-0.145483
-0.203561
-0.187486
-0.2137
-0.231509
-0.223814
-0.277768
-0.235143
-0.326572
-0.248092
-0.262638
-0.378234
-0.0115271
-0.0476371
-0.0364517
-0.102225
-0.0694765
-0.134696
-0.10704
-0.152597
-0.147329
-0.163272
-0.189667
-0.171363
-0.234025
-0.179456
-0.280632
-0.188535
-0.329805
-0.19892
-0.210584
-0.381859
-0.0117303
-0.0359068
-0.0369913
-0.0769644
-0.0703622
-0.101325
-0.108238
-0.114721
-0.148809
-0.122701
-0.191415
-0.128757
-0.236042
-0.134828
-0.28293
-0.141647
-0.332399
-0.149451
-0.158215
-0.384768
-0.0118835
-0.0240233
-0.0373975
-0.0514504
-0.0710281
-0.0676945
-0.109138
-0.076611
-0.149921
-0.081918
-0.192728
-0.0859501
-0.237558
-0.0899982
-0.284656
-0.094549
-0.334349
-0.0997587
-0.105609
-0.386955
-0.011986
-0.0120373
-0.0376689
-0.0257675
-0.0714728
-0.0338906
-0.109739
-0.0383446
-0.150663
-0.0409943
-0.193604
-0.0430087
-0.23857
-0.045033
-0.285809
-0.0473098
-0.335651
-0.0499168
-0.0528444
-0.388416
-0.0120373
1.11083e-10
-0.0378048
2.4301e-10
-0.0716955
3.18846e-10
-0.11004
3.4807e-10
-0.151034
3.51206e-10
-0.194043
3.41945e-10
-0.239076
3.29175e-10
-0.286386
3.16648e-10
-0.336303
3.01689e-10
2.85999e-10
-0.389147
-0.0120373
0.0120373
-0.0378048
0.0257675
-0.0716955
0.0338906
-0.11004
0.0383446
-0.151034
0.0409943
-0.194043
0.0430087
-0.239076
0.045033
-0.286386
0.0473098
-0.336303
0.0499168
0.0528444
-0.389147
-0.011986
0.0240233
-0.0376689
0.0514504
-0.0714728
0.0676945
-0.109739
0.076611
-0.150663
0.081918
-0.193604
0.0859501
-0.23857
0.0899982
-0.285809
0.094549
-0.335651
0.0997587
0.105609
-0.388416
-0.0118835
0.0359068
-0.0373975
0.0769644
-0.0710281
0.101325
-0.109138
0.114721
-0.149921
0.122701
-0.192728
0.128757
-0.237558
0.134828
-0.284656
0.141647
-0.334349
0.149451
0.158215
-0.386955
-0.0117303
0.0476371
-0.0369913
0.102225
-0.0703622
0.134696
-0.108238
0.152597
-0.148809
0.163272
-0.191415
0.171363
-0.236042
0.179456
-0.28293
0.188535
-0.332399
0.19892
0.210584
-0.384768
-0.0115271
0.0591642
-0.0364517
0.12715
-0.0694765
0.167721
-0.10704
0.19016
-0.147329
0.203561
-0.189667
0.2137
-0.234025
0.223814
-0.280632
0.235143
-0.329805
0.248092
0.262638
-0.381859
-0.0112748
0.070439
-0.0357803
0.151655
-0.068373
0.200314
-0.105546
0.227333
-0.145483
0.243498
-0.187486
0.255704
-0.231509
0.267836
-0.277768
0.281402
-0.326572
0.296896
0.314301
-0.378234
-0.0109744
0.0814134
-0.0349791
0.17566
-0.0670541
0.232389
-0.103759
0.264038
-0.143274
0.283013
-0.184877
0.297307
-0.228499
0.311458
-0.274342
0.327246
-0.322706
0.345259
0.365497
-0.373902
-0.0106274
0.0920408
-0.0340507
0.199083
-0.0655228
0.263861
-0.101681
0.300196
-0.140704
0.322037
-0.181842
0.338444
-0.224998
0.354615
-0.270361
0.372608
-0.318215
0.393114
0.416155
-0.368873
-0.0102353
0.102276
-0.0329981
0.221846
-0.0637824
0.294645
-0.0993162
0.33573
-0.137778
0.360498
-0.178385
0.379052
-0.221013
0.397243
-0.265829
0.417424
-0.313108
0.440392
0.466203
-0.363156
-0.00979985
0.112076
-0.0318245
0.243871
-0.0618369
0.324657
-0.0966687
0.370561
-0.134499
0.398328
-0.174511
0.419064
-0.216548
0.43928
-0.260756
0.461632
-0.307393
0.48703
0.515573
-0.356764
-0.00932312
0.121399
-0.0305339
0.265082
-0.059691
0.353814
-0.0937427
0.404613
-0.130872
0.435457
-0.170226
0.458419
-0.211611
0.480665
-0.255149
0.505169
-0.301082
0.532963
0.564202
-0.349711
-0.0088073
0.130206
-0.0291306
0.285405
-0.0573495
0.382033
-0.0905435
0.437807
-0.126902
0.471815
-0.165535
0.497052
-0.206208
0.521337
-0.249016
0.547978
-0.294185
0.578132
0.612027
-0.34201
-0.00825487
0.138461
-0.0276193
0.304769
-0.0548183
0.409232
-0.0870766
0.470065
-0.122595
0.507334
-0.160444
0.534901
-0.200345
0.561238
-0.242366
0.589999
-0.286714
0.62248
0.658989
-0.333676
-0.00766849
0.14613
-0.0260053
0.323106
-0.0521037
0.435331
-0.0833483
0.50131
-0.117957
0.541942
-0.154959
0.571904
-0.19403
0.600309
-0.235209
0.631178
-0.278679
0.66595
0.70503
-0.324721
-0.00705106
0.153181
-0.0242945
0.34035
-0.0492126
0.460249
-0.0793656
0.531463
-0.112994
0.575571
-0.149087
0.607997
-0.187271
0.638492
-0.227553
0.67146
-0.270093
0.708491
0.750095
-0.315157
-0.00640567
0.159586
-0.022493
0.356437
-0.0461527
0.483909
-0.0751361
0.560446
-0.107714
0.608148
-0.142835
0.643118
-0.180075
0.675732
-0.219406
0.710791
-0.260964
0.750048
0.794124
-0.304993
-0.00573564
0.165322
-0.0206079
0.371309
-0.0429325
0.506233
-0.0706681
0.588182
-0.102124
0.639604
-0.136211
0.677205
-0.172449
0.711969
-0.210777
0.74912
-0.251302
0.790573
0.837056
-0.294234
-0.00504449
0.170367
-0.0186464
0.384911
-0.0395612
0.527148
-0.0659709
0.614591
-0.0962334
0.669867
-0.129222
0.710194
-0.164401
0.747148
-0.201674
0.786393
-0.241115
0.830014
0.87881
-0.28287
-0.00433594
0.174703
-0.0166165
0.397192
-0.0360489
0.54658
-0.0610546
0.639597
-0.0900509
0.698863
-0.121878
0.742021
-0.15594
0.781211
-0.192105
0.822557
-0.230397
0.868307
0.919296
-0.270884
-0.0036139
0.178316
-0.0145268
0.408105
-0.0324067
0.56446
-0.0559303
0.663121
-0.083587
0.72652
-0.114187
0.772621
-0.147075
0.814099
-0.182078
0.857561
-0.219149
0.905377
0.958518
-0.258371
-0.00288248
0.181199
-0.0123864
0.417609
-0.0286465
0.58072
-0.0506104
0.685085
-0.076853
0.752762
-0.10616
0.801928
-0.137818
0.845757
-0.171615
0.891357
-0.207856
0.941618
0.997784
-0.247122
-0.002146
0.183345
-0.0102049
0.425668
-0.0247814
0.595297
-0.0451083
0.705412
-0.0698614
0.777516
-0.0978091
0.829876
-0.128178
0.876127
-0.160699
0.923878
-0.195619
0.976538
1.03538
-0.233219
-0.00140908
0.184754
-0.0079924
0.432251
-0.0208253
0.60813
-0.0394388
0.724025
-0.0626261
0.800703
-0.0891452
0.856395
-0.118163
0.905145
-0.14934
0.955055
-0.182823
1.01002
1.07131
-0.218751
-0.000677295
0.185431
-0.0057596
0.437333
-0.0167931
0.619163
-0.0336181
0.74085
-0.055162
0.822247
-0.0801823
0.881415
-0.107785
0.932747
-0.137553
0.984824
-0.169515
1.04198
1.10549
-0.203696
3.43252e-05
0.185397
-0.00351693
0.440884
-0.012701
0.628347
-0.0276639
0.755813
-0.0474862
0.842069
-0.0709355
0.904864
-0.0970572
0.958869
-0.125353
1.01312
-0.155739
1.07237
1.13791
-0.188153
0.00077532
0.184622
-0.00127035
0.44293
-0.0085659
0.635643
-0.0215956
0.768843
-0.0396171
0.86009
-0.0614218
0.926669
-0.085997
0.983444
-0.112759
1.03988
-0.141517
1.10113
1.16854
-0.172152
0.00146777
0.183154
0.000944995
0.443453
-0.00440519
0.640993
-0.0154342
0.779872
-0.0315752
0.876231
-0.05166
0.946754
-0.0746225
1.00641
-0.0997906
1.06505
-0.126876
1.12821
1.19738
-0.155717
0.00213876
0.181015
0.00312206
0.44247
-0.000206508
0.644322
-0.00920211
0.788868
-0.0233835
0.890413
-0.041671
0.965041
-0.0629536
1.02769
-0.0864706
1.08857
-0.111844
1.15359
1.22441
-0.138873
0.00278563
0.178229
0.00526955
0.439986
0.0039068
0.645684
-0.00292678
0.795701
-0.0150667
0.902553
-0.0314777
0.981452
-0.0510125
1.04722
-0.0728226
1.11038
-0.0964452
1.17721
1.24961
-0.121646
0.0034028
0.174827
0.00736565
0.436023
0.00800944
0.64504
0.00336564
0.800345
-0.00665262
0.912571
-0.0211056
0.995905
-0.0388229
1.06494
-0.0588713
1.13043
-0.0807065
1.19904
1.27296
-0.104057
0.00398593
0.170841
0.00939394
0.430615
0.0120524
0.642382
0.00964711
0.80275
0.00182906
0.920389
-0.0105831
1.00832
-0.0264112
1.08077
-0.0446424
1.14866
-0.0646533
1.21905
1.29444
-0.0861304
0.00453105
0.16631
0.0113402
0.423806
0.0160102
0.637712
0.0158889
0.802872
0.0103459
0.925932
3.37978e-05
1.01863
-0.0138061
1.09461
-0.0301636
1.16501
-0.0483107
1.2372
1.31402
-0.0678898
0.00503458
0.161275
0.0131918
0.415648
0.0198582
0.631046
0.0220568
0.800673
0.0188649
0.929124
0.0107874
1.02671
-0.00104219
1.10644
-0.0154665
1.17944
-0.0317033
1.25344
1.33168
-0.0493606
0.00549332
0.155782
0.0149362
0.406206
0.0235712
0.622411
0.0281163
0.796128
0.0273446
0.929896
0.0215651
1.03249
0.0118656
1.11614
-0.000631835
1.19194
-0.0148512
1.26766
1.3474
-0.0305714
0.00590452
0.149877
0.0165614
0.395549
0.0271238
0.611848
0.0340307
0.789221
0.0357437
0.928183
0.0323513
1.03588
0.0248646
1.12363
0.0144872
1.20231
0.0022416
1.2799
1.3612
-0.0115654
0.0062659
0.143611
0.0180564
0.383758
0.0304907
0.599414
0.0397619
0.77995
0.0440175
0.923927
0.0431007
1.0368
0.0379147
1.12881
0.0296704
1.21056
0.0194049
1.29017
1.37293
0.00767759
0.00657571
0.137036
0.0194109
0.370923
0.0336473
0.585177
0.0452708
0.768326
0.052118
0.91708
0.0537635
1.03515
0.0509705
1.1316
0.0449382
1.21659
0.0367695
1.29834
1.38254
0.0271638
0.00683275
0.130203
0.0206158
0.35714
0.0365696
0.569224
0.0505173
0.754379
0.0599942
0.907603
0.0642859
1.03086
0.0639838
1.13191
0.0602507
1.22032
0.0542445
1.30434
1.39003
0.0467529
0.00703641
0.123166
0.0216634
0.342513
0.0392349
0.551652
0.0554608
0.738153
0.0675922
0.895471
0.0746094
1.02384
0.0768995
1.12962
0.0755584
1.22166
0.0717855
1.30812
1.39537
0.0664465
0.00718669
0.11598
0.0225478
0.327152
0.0416222
0.532578
0.0600611
0.719714
0.0748557
0.880677
0.0846705
1.01403
0.0896558
1.12463
0.0908072
1.22051
0.0893476
1.30958
1.3985
0.0862122
0.00728418
0.108696
0.0232645
0.311172
0.0437128
0.512129
0.0642787
0.699148
0.0817266
0.863229
0.0944006
1.00135
0.102185
1.11685
0.105937
1.21676
0.10688
1.30863
1.39937
0.106009
0.00733007
0.101366
0.0238112
0.29469
0.0454906
0.49045
0.0680759
0.676563
0.0881452
0.84316
0.103727
0.985771
0.11441
1.10616
0.120879
1.21029
0.124325
1.30519
1.39791
0.125792
0.00732616
0.0940394
0.0241874
0.277829
0.0469428
0.467695
0.0714175
0.652088
0.0940519
0.820525
0.112571
0.967252
0.12625
1.09248
0.135557
1.20098
0.141618
1.29913
1.39402
0.145504
0.00727477
0.0867646
0.0243947
0.260709
0.0480602
0.444029
0.0742719
0.625876
0.0993877
0.795409
0.120854
0.945786
0.137614
1.07572
0.149883
1.18872
0.158683
1.29032
1.38762
0.165082
0.00717875
0.0795859
0.0244369
0.243451
0.0488378
0.419628
0.076612
0.598102
0.104096
0.767926
0.128491
0.921391
0.148403
1.05581
0.16376
1.17336
0.175434
1.27865
1.3786
0.184453
0.00704136
0.0725445
0.0243197
0.226173
0.0492746
0.394673
0.0784162
0.568961
0.108123
0.738219
0.135398
0.894116
0.158514
1.0327
0.177079
1.15479
0.191771
1.26396
1.36684
0.203534
0.00686626
0.0656782
0.0240506
0.208989
0.0493746
0.369349
0.0796694
0.538666
0.111422
0.706466
0.141492
0.864047
0.167837
1.00635
0.189721
1.13291
0.207581
1.2461
1.3522
0.222225
0.00665742
0.0590208
0.0236392
0.192007
0.049146
0.343842
0.0803638
0.507448
0.113953
0.672877
0.146692
0.831308
0.176256
0.976786
0.201553
1.10761
0.222735
1.22492
1.33452
0.240415
0.00641899
0.0526018
0.0230963
0.175329
0.0486015
0.318337
0.0804996
0.47555
0.115683
0.637693
0.150924
0.796068
0.183657
0.944052
0.212437
1.07883
0.237088
1.20026
1.31363
0.257973
0.00615523
0.0464466
0.0224339
0.159051
0.0477582
0.293013
0.080085
0.443223
0.116593
0.601185
0.154121
0.758539
0.189926
0.908247
0.222224
1.04653
0.250477
1.17201
1.28936
0.274752
0.00587043
0.0405762
0.0216652
0.143256
0.0466367
0.268041
0.0791368
0.410723
0.116674
0.563648
0.156231
0.718983
0.194953
0.869525
0.23076
1.01073
0.262727
1.14004
1.2615
0.290588
0.00556876
0.0350074
0.0208037
0.128021
0.0452607
0.243584
0.0776795
0.378304
0.115931
0.525396
0.157212
0.677702
0.19864
0.828097
0.237892
0.971475
0.273644
1.10429
1.22984
0.305301
0.00525422
0.0297532
0.0198632
0.113412
0.0436564
0.219791
0.075745
0.346216
0.114382
0.486759
0.157044
0.63504
0.200901
0.78424
0.243472
0.928905
0.283028
1.06474
1.19417
0.318699
0.00493053
0.0248227
0.0188572
0.0994854
0.0418515
0.196797
0.0733716
0.314696
0.11206
0.44807
0.155722
0.591378
0.201672
0.73829
0.247359
0.883217
0.29067
1.02143
1.15425
0.330588
0.00460102
0.0202217
0.0177988
0.0862876
0.0398744
0.174721
0.0706024
0.283968
0.109008
0.409665
0.153266
0.547119
0.200911
0.690646
0.249433
0.834695
0.296363
0.974496
1.10983
0.340785
0.00426863
0.015953
0.0167002
0.073856
0.0377533
0.153668
0.0674841
0.254237
0.105283
0.371866
0.149715
0.502688
0.198603
0.641758
0.249594
0.783704
0.299909
0.924181
1.0606
0.349137
0.0039358
0.0120172
0.0155725
0.0622193
0.0355155
0.133725
0.0640652
0.225687
0.10095
0.334981
0.145127
0.45851
0.194766
0.592119
0.24777
0.730701
0.301128
0.870823
1.00618
0.355547
0.00360448
0.00841274
0.0144256
0.0513982
0.0331869
0.114964
0.0603948
0.198479
0.0960792
0.299297
0.13958
0.415009
0.189446
0.542253
0.243917
0.67623
0.29988
0.81486
0.94604
0.360022
0.00327616
0.00513658
0.0132678
0.0414066
0.030791
0.0974406
0.0565206
0.17275
0.0907482
0.265069
0.133167
0.37259
0.18272
0.4927
0.238016
0.620934
0.296086
0.75679
0.879447
0.362678
0.00295186
0.00218472
0.0121064
0.0322521
0.0283494
0.0811975
0.0524885
0.148611
0.0850342
0.232524
0.125995
0.331629
0.174695
0.444
0.230068
0.565562
0.289468
0.69739
0.805451
0.363465
0.00263222
-0.000447495
0.0109472
0.0239371
0.0258809
0.0662639
0.0483415
0.12615
0.0790153
0.20185
0.11818
0.292465
0.165513
0.396667
0.220194
0.510881
0.279882
0.637702
0.74369
0.341642
0.00231755
-0.00276505
0.00979499
0.0164597
0.0234021
0.0526567
0.0441191
0.105433
0.0727673
0.173201
0.109846
0.255386
0.155352
0.35116
0.20864
0.457593
0.268432
0.577909
0.682142
0.32998
0.002008
-0.00477305
0.00865382
0.00981387
0.0209277
0.0403828
0.0398574
0.0865033
0.0663623
0.146697
0.101118
0.220631
0.144405
0.307873
0.195794
0.406204
0.255005
0.518699
0.620231
0.316917
0.00170361
-0.00647666
0.00752711
0.00399037
0.0184709
0.0294391
0.0355895
0.0693846
0.0598679
0.122418
0.0921149
0.188384
0.132854
0.267134
0.181903
0.357155
0.239725
0.460876
0.558423
0.301533
0.00140444
-0.0078811
0.00641813
-0.00102332
0.0160435
0.0198137
0.0313456
0.0540826
0.0533464
0.100417
0.0829501
0.15878
0.12087
0.229215
0.167182
0.310843
0.222863
0.405195
0.497466
0.28382
0.00111074
-0.00899185
0.00533023
-0.00524281
0.0136573
0.0114866
0.0271541
0.0405858
0.0468564
0.080715
0.0737292
0.131907
0.108624
0.19432
0.151862
0.267605
0.204748
0.352309
0.4382
0.264014
0.000823004
-0.00981485
0.00426724
-0.00868704
0.0113241
0.00442976
0.0230426
0.0288672
0.0404531
0.0633045
0.0645522
0.107808
0.0962823
0.16259
0.136182
0.227705
0.185726
0.302765
0.381456
0.242471
0.000542073
-0.0103569
0.00323361
-0.0113786
0.00905622
-0.00139285
0.0190384
0.0188851
0.03419
0.0481528
0.0555144
0.0864841
0.0840041
0.1341
0.120375
0.191334
0.166148
0.256992
0.327964
0.219639
0.000269353
-0.0106263
0.00223471
-0.0133439
0.00686727
-0.00602541
0.0151696
0.0105827
0.0281197
0.0352027
0.0467077
0.0678961
0.071942
0.108866
0.104671
0.158605
0.146363
0.2153
0.27832
0.196007
1.02001e-05