/*--------------------------------*- C++ -*----------------------------------*\
  =========                 |
  \\      /  F ield         | OpenFOAM: The Open Source CFD Toolbox
   \\    /   O peration     | Website:  https://openfoam.org
    \\  /    A nd           | Version:  7
     \\/     M anipulation  |
\*---------------------------------------------------------------------------*/
FoamFile
{
    version     2.0;
    format      ascii;
    class       volScalarField;
    location    "1.1";
    object      p;
}
// * * * * * * * * * * * * * * * * * * * * * * * * * * * * * * * * * * * * * //

dimensions      [0 2 -2 0 0 0 0];

internalField   nonuniform List<scalar> 
306000
(
-0.247344
-0.255549
-0.257848
-0.261163
-0.263024
-0.264631
-0.265674
-0.266319
-0.266481
-0.266111
-0.265114
-0.26339
-0.260835
-0.25735
-0.252848
-0.247261
-0.240537
-0.232649
-0.223595
-0.213396
-0.202101
-0.189781
-0.176531
-0.162466
-0.147719
-0.132435
-0.116772
-0.100891
-0.084957
-0.0691324
-0.0535729
-0.0384251
-0.0238226
-0.00988462
0.00328717
0.0156093
0.027017
0.0374649
0.0469254
0.0553889
0.0628612
0.0693626
0.0749256
0.079593
0.0834157
0.0864506
0.0887588
0.0904037
0.0914496
0.0919599
0.0919967
0.0916189
0.0908823
0.0898391
0.0885365
0.087019
0.0853229
0.0834904
0.0815328
0.0795282
-0.247465
-0.255663
-0.25796
-0.261272
-0.263132
-0.264739
-0.265782
-0.266428
-0.26659
-0.266223
-0.265228
-0.263507
-0.260954
-0.257473
-0.252976
-0.247392
-0.240672
-0.232789
-0.223738
-0.213543
-0.202252
-0.189935
-0.176688
-0.162625
-0.14788
-0.132597
-0.116934
-0.101053
-0.0851185
-0.0692925
-0.0537313
-0.0385812
-0.023976
-0.0100349
0.00314031
0.0154661
0.0268778
0.0373298
0.0467946
0.0552624
0.0627391
0.0692449
0.0748124
0.0794843
0.0833114
0.0863506
0.0886631
0.0903122
0.0913622
0.0918766
0.0919171
0.0915431
0.0908102
0.0897705
0.0884713
0.086957
0.085264
0.0834345
0.0814795
0.0794782
-0.247707
-0.255891
-0.258184
-0.261491
-0.263349
-0.264955
-0.265998
-0.266645
-0.26681
-0.266446
-0.265456
-0.26374
-0.261194
-0.25772
-0.25323
-0.247654
-0.240943
-0.233067
-0.224025
-0.213838
-0.202553
-0.190243
-0.177001
-0.162943
-0.148201
-0.13292
-0.117258
-0.101377
-0.0854411
-0.0696126
-0.0540479
-0.0388932
-0.0242826
-0.0103353
0.00284678
0.01518
0.0265996
0.0370597
0.0465331
0.0550095
0.0624951
0.0690098
0.0745862
0.079267
0.0831029
0.0861508
0.0884718
0.0901293
0.0911875
0.0917099
0.0917582
0.0913917
0.0906661
0.0896334
0.0883409
0.0868331
0.0851462
0.0833227
0.0813729
0.0793781
-0.248071
-0.256231
-0.25852
-0.261819
-0.263673
-0.265277
-0.266321
-0.26697
-0.267139
-0.26678
-0.265797
-0.264089
-0.261553
-0.258089
-0.253611
-0.248047
-0.241348
-0.233485
-0.224454
-0.214279
-0.203005
-0.190704
-0.17747
-0.163419
-0.148682
-0.133405
-0.117744
-0.101863
-0.0859244
-0.0700922
-0.0545222
-0.0393607
-0.0247419
-0.0107854
0.00240698
0.0147513
0.0261827
0.0366552
0.0461412
0.0546307
0.0621295
0.0686575
0.0742473
0.0789413
0.0827904
0.0858514
0.0881852
0.0898553
0.0909257
0.0914601
0.0915201
0.0911648
0.0904501
0.0894279
0.0881454
0.0866473
0.0849696
0.0831552
0.0812132
0.0792281
-0.248554
-0.256685
-0.258966
-0.262256
-0.264106
-0.265707
-0.266751
-0.267402
-0.267576
-0.267225
-0.266251
-0.264554
-0.262031
-0.258581
-0.254118
-0.24857
-0.241887
-0.234041
-0.225026
-0.214866
-0.203606
-0.191318
-0.178095
-0.164053
-0.149322
-0.134049
-0.118391
-0.102509
-0.0865679
-0.0707307
-0.0551537
-0.0399831
-0.0253535
-0.0113845
0.00182148
0.0141806
0.0256276
0.0361165
0.0456196
0.0541264
0.0616428
0.0681885
0.073796
0.0785078
0.0823744
0.0854527
0.0878036
0.0894904
0.0905772
0.0911274
0.0912029
0.0908627
0.0901624
0.0891542
0.0878851
0.0863999
0.0847344
0.0829321
0.0810005
0.0790283
-0.249157
-0.257251
-0.259523
-0.2628
-0.264645
-0.266243
-0.267287
-0.267942
-0.268122
-0.267779
-0.266817
-0.265134
-0.262626
-0.259194
-0.25475
-0.249223
-0.24256
-0.234734
-0.22574
-0.215598
-0.204356
-0.192083
-0.178875
-0.164843
-0.150121
-0.134854
-0.119198
-0.103315
-0.0873707
-0.0715272
-0.0559414
-0.0407595
-0.0261163
-0.012132
0.00109108
0.0134686
0.0249352
0.0354446
0.0449688
0.0534972
0.0610355
0.0676034
0.0732331
0.0779668
0.0818553
0.0849552
0.0873274
0.089035
0.0901422
0.0907124
0.0908071
0.0904856
0.0898035
0.0888126
0.0875603
0.0860912
0.0844409
0.0826536
0.0807349
0.0787789
-0.249879
-0.257928
-0.26019
-0.263452
-0.26529
-0.266885
-0.267929
-0.268588
-0.268775
-0.268443
-0.267494
-0.265828
-0.26334
-0.259929
-0.255507
-0.250004
-0.243366
-0.235564
-0.226593
-0.216475
-0.205253
-0.193
-0.179807
-0.165789
-0.151077
-0.135817
-0.120163
-0.10428
-0.0883317
-0.0724807
-0.0568843
-0.0416889
-0.0270296
-0.0130268
0.000216733
0.0126163
0.0241064
0.0346402
0.0441897
0.0527441
0.0603086
0.066903
0.0725591
0.0773193
0.0812339
0.0843597
0.0867573
0.0884899
0.0896214
0.0902153
0.0903332
0.0900341
0.0893735
0.0884035
0.0871712
0.0857214
0.0840893
0.08232
0.0804168
0.07848
-0.250719
-0.258716
-0.260966
-0.26421
-0.266041
-0.267631
-0.268676
-0.269339
-0.269535
-0.269215
-0.268282
-0.266636
-0.264169
-0.260783
-0.256388
-0.250912
-0.244302
-0.236529
-0.227586
-0.217494
-0.206298
-0.194066
-0.180893
-0.16689
-0.152189
-0.136937
-0.121287
-0.105403
-0.0894497
-0.0735901
-0.0579811
-0.04277
-0.0280919
-0.0140676
-0.000800392
0.0116249
0.0231422
0.0337045
0.0432834
0.0518679
0.0594629
0.0660881
0.071775
0.0765658
0.0805109
0.0836667
0.0860938
0.0878554
0.0890154
0.0896369
0.0897816
0.0895085
0.0888731
0.0879273
0.0867183
0.0852908
0.08368
0.0819315
0.0800464
0.078132
-0.251676
-0.259613
-0.26185
-0.265073
-0.266896
-0.26848
-0.269526
-0.270195
-0.2704
-0.270095
-0.26918
-0.267555
-0.265113
-0.261755
-0.25739
-0.251946
-0.245369
-0.237628
-0.228717
-0.218655
-0.207487
-0.195281
-0.182129
-0.168144
-0.153456
-0.138212
-0.122567
-0.106682
-0.0907232
-0.0748538
-0.0592303
-0.0440014
-0.0293019
-0.0152532
-0.00195895
0.0104955
0.0220439
0.0326387
0.0422511
0.0508698
0.0584996
0.0651597
0.0708817
0.0757074
0.0796871
0.0828771
0.0853379
0.0871326
0.0883247
0.0889777
0.089153
0.0889095
0.0883027
0.0873845
0.086202
0.0848
0.0832133
0.0814886
0.079624
0.0777352
-0.252747
-0.260618
-0.26284
-0.26604
-0.267853
-0.269432
-0.270479
-0.271153
-0.27137
-0.27108
-0.270185
-0.268585
-0.266171
-0.262844
-0.258513
-0.253105
-0.246564
-0.23886
-0.229984
-0.219956
-0.208819
-0.196641
-0.183514
-0.169549
-0.154876
-0.139642
-0.124001
-0.108115
-0.0921505
-0.0762699
-0.0606306
-0.0453815
-0.0306581
-0.016582
-0.0032574
0.00922985
0.0208129
0.0314441
0.041094
0.0497511
0.0574198
0.0641192
0.0698804
0.0747452
0.0787637
0.081992
0.0844905
0.0863221
0.0875504
0.0882386
0.0884481
0.0882377
0.087663
0.0867757
0.0856228
0.0842494
0.0826897
0.0809917
0.0791501
0.0772899
-0.253933
-0.26173
-0.263935
-0.26711
-0.268913
-0.270486
-0.271533
-0.272213
-0.272442
-0.272169
-0.271297
-0.269724
-0.267342
-0.264049
-0.259756
-0.254386
-0.247886
-0.240222
-0.231386
-0.221396
-0.210293
-0.198147
-0.185046
-0.171103
-0.156447
-0.141224
-0.125588
-0.109701
-0.0937296
-0.0778367
-0.0621798
-0.0469084
-0.0321585
-0.0180522
-0.00469403
0.00782946
0.019451
0.0301223
0.0398138
0.0485133
0.0562251
0.0629677
0.0687723
0.0736804
0.0777417
0.0810123
0.0835525
0.0854249
0.0866931
0.0874202
0.0876676
0.0874939
0.0869545
0.0861014
0.0849813
0.0836395
0.0821096
0.0804412
0.078625
0.0767964
-0.255231
-0.262948
-0.265134
-0.268282
-0.270073
-0.271638
-0.272686
-0.273373
-0.273615
-0.273361
-0.272514
-0.27097
-0.268622
-0.265368
-0.261115
-0.255789
-0.249333
-0.241713
-0.23292
-0.222971
-0.211907
-0.199795
-0.186723
-0.172805
-0.158167
-0.142955
-0.127325
-0.111437
-0.0954585
-0.0795521
-0.0638761
-0.0485802
-0.0338013
-0.0196618
-0.00626694
0.00629622
0.0179598
0.0286751
0.038412
0.0471579
0.0549168
0.0617069
0.0675589
0.0725142
0.0766224
0.0799393
0.082525
0.0844421
0.085754
0.0865237
0.0868124
0.0866788
0.0861782
0.0853624
0.0842782
0.0829709
0.0814738
0.0798376
0.0780492
0.0762553
-0.256639
-0.264269
-0.266435
-0.269552
-0.271331
-0.272889
-0.273938
-0.274632
-0.274888
-0.274655
-0.273834
-0.272322
-0.270011
-0.266798
-0.26259
-0.257311
-0.250902
-0.243331
-0.234585
-0.224681
-0.213658
-0.201583
-0.188544
-0.174651
-0.160034
-0.144835
-0.12921
-0.113322
-0.0973348
-0.0814139
-0.065717
-0.0503947
-0.0355843
-0.0214088
-0.00797406
0.00463214
0.0163414
0.0271044
0.0368905
0.0456868
0.0534967
0.0603382
0.0662416
0.0712482
0.0754072
0.0787742
0.0814093
0.0833748
0.084734
0.0855499
0.0858834
0.0857933
0.0853347
0.0845594
0.0835142
0.0822444
0.0807827
0.0791815
0.0774233
0.075667
-0.258155
-0.265692
-0.267836
-0.270921
-0.272686
-0.274236
-0.275285
-0.275987
-0.276258
-0.276047
-0.275255
-0.273778
-0.271507
-0.268338
-0.264178
-0.258949
-0.252593
-0.245073
-0.236378
-0.226522
-0.215544
-0.203509
-0.190505
-0.17664
-0.162044
-0.146859
-0.131241
-0.115352
-0.0993562
-0.0834195
-0.0677003
-0.0523494
-0.037505
-0.0232907
-0.00981314
0.0028394
0.0145978
0.0254122
0.0352513
0.0441018
0.0519666
0.0588634
0.0648222
0.0698839
0.0740975
0.0775185
0.0802067
0.0822243
0.0836344
0.0844999
0.0848817
0.0848383
0.0844249
0.0836933
0.0826899
0.0814604
0.0800369
0.0784734
0.0767478
0.0750319
-0.259779
-0.267215
-0.269335
-0.272386
-0.274136
-0.275677
-0.276727
-0.277438
-0.277725
-0.277538
-0.276776
-0.275336
-0.273108
-0.269986
-0.265878
-0.260702
-0.254401
-0.246937
-0.238296
-0.228492
-0.217562
-0.205571
-0.192603
-0.178769
-0.164196
-0.149027
-0.133415
-0.117524
-0.10152
-0.0855664
-0.0698232
-0.0544418
-0.0395611
-0.0253053
-0.0117818
0.000920369
0.0127314
0.0236006
0.0334964
0.0424049
0.0503284
0.0572843
0.0633023
0.0684229
0.0726949
0.0761736
0.0789185
0.0809918
0.0824564
0.0833749
0.0838083
0.083815
0.0834499
0.0827649
0.0818063
0.0806199
0.0792373
0.0777141
0.0760233
0.0743506
-0.261506
-0.268835
-0.270931
-0.273945
-0.27568
-0.27721
-0.278262
-0.278981
-0.279285
-0.279123
-0.278393
-0.276993
-0.27481
-0.271739
-0.267685
-0.262568
-0.256326
-0.24892
-0.240338
-0.230589
-0.21971
-0.207764
-0.194837
-0.181035
-0.166487
-0.151333
-0.135729
-0.119837
-0.103823
-0.0878516
-0.072083
-0.0566691
-0.0417497
-0.0274497
-0.0138774
-0.00112247
0.0107445
0.0216722
0.0316283
0.0405983
0.0485843
0.055603
0.0616839
0.0668671
0.0712012
0.0747412
0.0775464
0.0796788
0.0812013
0.0821762
0.0826644
0.0827242
0.0824105
0.0817751
0.0808641
0.0797237
0.0783844
0.0769042
0.0752505
0.0736238
-0.263335
-0.270552
-0.272621
-0.275596
-0.277314
-0.278834
-0.279886
-0.280614
-0.280937
-0.280801
-0.280106
-0.278747
-0.276612
-0.273595
-0.269599
-0.264543
-0.258363
-0.251021
-0.242499
-0.232809
-0.221985
-0.210088
-0.197202
-0.183435
-0.168913
-0.153776
-0.13818
-0.122287
-0.106263
-0.0902722
-0.0744767
-0.0590284
-0.044068
-0.0297213
-0.0160972
-0.00328644
0.00863968
0.0196292
0.0296491
0.0386843
0.0467363
0.0538215
0.0599689
0.0652183
0.069618
0.0732228
0.0760918
0.0782868
0.0798704
0.080905
0.0814512
0.0815672
0.0813079
0.0807249
0.0798643
0.0787725
0.0774792
0.0760443
0.0744299
0.0728519
-0.265264
-0.272362
-0.274403
-0.277337
-0.279037
-0.280546
-0.281599
-0.282337
-0.282678
-0.28257
-0.281911
-0.280596
-0.278512
-0.275551
-0.271616
-0.266624
-0.260511
-0.253234
-0.244778
-0.23515
-0.224383
-0.212538
-0.199697
-0.185966
-0.171471
-0.156353
-0.140765
-0.124871
-0.108835
-0.092825
-0.0770011
-0.0615166
-0.046513
-0.0321169
-0.0184384
-0.00556874
0.00641976
0.0174744
0.0275615
0.0366653
0.0447869
0.051942
0.0581594
0.0634785
0.0679473
0.0716204
0.0745565
0.0768173
0.0784654
0.0795627
0.08017
0.0803452
0.0801431
0.0796154
0.0788079
0.0777672
0.0765224
0.0751354
0.0735624
0.0720357
-0.26729
-0.274263
-0.276275
-0.279165
-0.280846
-0.282344
-0.283397
-0.284145
-0.284506
-0.284427
-0.283806
-0.282537
-0.280506
-0.277605
-0.273734
-0.268809
-0.262765
-0.255559
-0.247171
-0.237608
-0.226902
-0.21511
-0.202316
-0.188624
-0.174158
-0.159059
-0.14348
-0.127584
-0.111538
-0.0955067
-0.0796529
-0.0641303
-0.0490814
-0.0346336
-0.0208978
-0.00796641
0.00408754
0.0152105
0.0253681
0.0345439
0.0427384
0.0499669
0.0562577
0.0616498
0.0661911
0.0699356
0.0729422
0.075272
0.0769876
0.0781508
0.0788221
0.0790594
0.0789174
0.0784476
0.0776958
0.0767088
0.0755149
0.0741782
0.0726486
0.0711758
-0.26941
-0.276253
-0.278234
-0.281078
-0.28274
-0.284225
-0.285278
-0.286036
-0.286418
-0.286369
-0.285788
-0.284567
-0.282592
-0.279753
-0.275949
-0.271095
-0.265124
-0.257991
-0.249674
-0.24018
-0.229537
-0.217803
-0.205058
-0.191406
-0.17697
-0.161891
-0.146322
-0.130425
-0.114367
-0.0983137
-0.0824287
-0.0668663
-0.0517699
-0.037268
-0.0234724
-0.0104764
0.00164601
0.0128404
0.0230716
0.0323227
0.0405934
0.0478985
0.054266
0.0597345
0.0643514
0.0681706
0.0712507
0.0736526
0.0754387
0.0766707
0.0774089
0.0777111
0.0776319
0.0772227
0.0765292
0.0755984
0.0744577
0.0731735
0.0716893
0.0702729
-0.271621
-0.278328
-0.280277
-0.283074
-0.284715
-0.286187
-0.287241
-0.288009
-0.288412
-0.288395
-0.287854
-0.286683
-0.284766
-0.281992
-0.278259
-0.273479
-0.267584
-0.260527
-0.252285
-0.242862
-0.232285
-0.220611
-0.207918
-0.194308
-0.179904
-0.164846
-0.149287
-0.133389
-0.117318
-0.101242
-0.0853248
-0.069721
-0.0545751
-0.0400167
-0.0261587
-0.0130954
-0.000901704
0.0103671
0.0206751
0.0300044
0.0383544
0.0457394
0.0521867
0.0577346
0.0624302
0.0663273
0.0694838
0.0719609
0.0738204
0.0751241
0.0759319
0.0763017
0.0762879
0.0759418
0.0753091
0.0744367
0.0733515
0.0721222
0.0706855
0.0693278
-0.273921
-0.280487
-0.282402
-0.285149
-0.286769
-0.288227
-0.289281
-0.29006
-0.290485
-0.2905
-0.290002
-0.288883
-0.287027
-0.28432
-0.280659
-0.275956
-0.27014
-0.263163
-0.254999
-0.245651
-0.235143
-0.223531
-0.210892
-0.197326
-0.182956
-0.16792
-0.152371
-0.136471
-0.120388
-0.104289
-0.0883374
-0.0726905
-0.0574932
-0.0428762
-0.0289534
-0.0158201
-0.00355237
0.00779373
0.0181813
0.027592
0.0360244
0.0434921
0.0500223
0.0556526
0.06043
0.0644077
0.0676437
0.0701987
0.0721344
0.0735124
0.0743926
0.0748326
0.0748867
0.0746063
0.0740365
0.0732251
0.0721975
0.0710252
0.0696378
0.0683412
-0.276307
-0.282727
-0.284607
-0.287302
-0.288899
-0.290343
-0.291396
-0.292186
-0.292634
-0.292683
-0.292229
-0.291164
-0.289369
-0.286732
-0.283148
-0.278525
-0.272791
-0.265896
-0.257814
-0.248542
-0.238107
-0.22656
-0.213976
-0.200456
-0.186121
-0.171108
-0.15557
-0.139669
-0.123573
-0.107449
-0.0914627
-0.0757711
-0.0605206
-0.0458428
-0.0318528
-0.0186471
-0.00630265
0.00512348
0.0155936
0.0250884
0.033606
0.0411594
0.0477753
0.0534909
0.0583528
0.062414
0.0657322
0.0683679
0.0703825
0.0718375
0.0727926
0.0733053
0.0734297
0.0732172
0.0727129
0.0719644
0.0709967
0.0698834
0.0685472
0.0673139
-0.278775
-0.285045
-0.286888
-0.28953
-0.291103
-0.292532
-0.293585
-0.294385
-0.294856
-0.29494
-0.294531
-0.293522
-0.291792
-0.289227
-0.285721
-0.28118
-0.275532
-0.268723
-0.260724
-0.251533
-0.241173
-0.229692
-0.217167
-0.203695
-0.189395
-0.174407
-0.15888
-0.142978
-0.126868
-0.110719
-0.0946966
-0.0789589
-0.0636533
-0.0489127
-0.0348533
-0.0215728
-0.00914908
0.00235968
0.0129149
0.0224967
0.0311022
0.0387441
0.0454483
0.051252
0.0562012
0.0603485
0.0637515
0.0664704
0.0685665
0.070101
0.0711334
0.0717212
0.0719183
0.071776
0.0713392
0.0706559
0.06975
0.0686978
0.0674146
0.0662468
-0.281323
-0.287437
-0.289243
-0.291829
-0.293377
-0.29479
-0.295843
-0.296655
-0.297149
-0.297268
-0.296906
-0.295953
-0.29429
-0.2918
-0.288374
-0.283919
-0.278359
-0.271639
-0.263727
-0.254619
-0.244336
-0.232925
-0.220459
-0.207037
-0.192775
-0.177811
-0.162296
-0.146393
-0.13027
-0.114095
-0.0980349
-0.0822496
-0.0668873
-0.052082
-0.0379511
-0.0245934
-0.0120881
-0.000494239
0.0101487
0.0198199
0.0285159
0.0362489
0.0430441
0.0489384
0.0539774
0.0582134
0.0617038
0.0645083
0.0666883
0.0683046
0.0694167
0.0700819
0.0703538
0.0702839
0.0699168
0.0693007
0.0684585
0.0674694
0.0662408
0.0651406
-0.283947
-0.289901
-0.291668
-0.294197
-0.29572
-0.297116
-0.298167
-0.29899
-0.299509
-0.299664
-0.29935
-0.298456
-0.296861
-0.294447
-0.291105
-0.286738
-0.281269
-0.27464
-0.266818
-0.257795
-0.247592
-0.236253
-0.22385
-0.210478
-0.196255
-0.181317
-0.165815
-0.149911
-0.133773
-0.117571
-0.101473
-0.0856391
-0.0702184
-0.0553466
-0.0411422
-0.0277052
-0.0151161
-0.00343477
0.00729821
0.0170613
0.0258503
0.0336767
0.0405655
0.0465528
0.0516839
0.0560111
0.0595911
0.0624837
0.0647498
0.0664502
0.0676442
0.0683889
0.0687378
0.0687424
0.0684469
0.0679
0.0671234
0.0661992
0.065027
0.0639963
-0.286644
-0.292434
-0.294161
-0.296631
-0.298127
-0.299506
-0.300556
-0.30139
-0.301933
-0.302125
-0.30186
-0.301026
-0.299501
-0.297166
-0.29391
-0.289633
-0.284257
-0.277722
-0.269992
-0.261059
-0.250937
-0.239672
-0.227333
-0.214014
-0.199832
-0.18492
-0.169431
-0.153526
-0.137374
-0.121145
-0.105007
-0.089123
-0.0736425
-0.0587024
-0.0444226
-0.0309044
-0.0182292
-0.00645831
0.00436696
0.0142242
0.0231085
0.0310307
0.0380152
0.0440977
0.0493234
0.0537438
0.0574157
0.0603985
0.062753
0.0645396
0.0658176
0.0666438
0.0670718
0.0671527
0.0669308
0.0664549
0.0657458
0.0648883
0.0637739
0.0628148
-0.28941
-0.295033
-0.296718
-0.299128
-0.300596
-0.301958
-0.303005
-0.303851
-0.304419
-0.304648
-0.304433
-0.30366
-0.302207
-0.299953
-0.296784
-0.2926
-0.28732
-0.280881
-0.273247
-0.264404
-0.254367
-0.243179
-0.230906
-0.217641
-0.203499
-0.188615
-0.17314
-0.157234
-0.141067
-0.12481
-0.108633
-0.092697
-0.0771552
-0.0621453
-0.0477883
-0.0341869
-0.0214238
-0.00956122
0.00135844
0.0113119
0.0202936
0.0283137
0.035396
0.041576
0.0468982
0.0514141
0.0551799
0.058255
0.0606998
0.0625747
0.0639386
0.0648483
0.0653573
0.0655164
0.0653698
0.0649668
0.0643268
0.0635376
0.0624826
0.0615968
-0.292243
-0.297695
-0.299337
-0.301685
-0.303125
-0.304467
-0.305513
-0.306369
-0.306962
-0.307229
-0.307065
-0.306355
-0.304975
-0.302803
-0.299724
-0.295635
-0.290453
-0.284114
-0.276576
-0.267827
-0.257877
-0.246767
-0.234562
-0.221353
-0.207254
-0.192398
-0.176937
-0.16103
-0.144848
-0.128563
-0.112344
-0.0963564
-0.0807521
-0.0656708
-0.0512351
-0.0375488
-0.0246959
-0.0127397
-0.00172379
0.00832788
0.0174089
0.0255288
0.032711
0.0389904
0.0444111
0.0490243
0.052886
0.0560553
0.0585923
0.0605573
0.0620091
0.0630041
0.0635957
0.0638349
0.0637654
0.0634368
0.0628675
0.0621484
0.0611542
0.0603435
-0.295139
-0.300416
-0.302015
-0.304298
-0.305709
-0.307032
-0.308075
-0.308942
-0.309559
-0.309865
-0.309752
-0.309106
-0.307801
-0.305713
-0.302725
-0.298734
-0.293653
-0.287415
-0.279977
-0.271323
-0.261462
-0.250432
-0.238297
-0.225145
-0.21109
-0.196264
-0.180817
-0.164909
-0.148712
-0.132398
-0.116138
-0.100097
-0.0844287
-0.0692747
-0.0547586
-0.0409859
-0.0280415
-0.0159901
-0.0048761
0.00527554
0.0144577
0.0226792
0.0299631
0.0363436
0.0418646
0.046577
0.0505363
0.0538016
0.0564326
0.0584895
0.0600307
0.0611128
0.0617888
0.0621096
0.0621188
0.0618663
0.0613692
0.0607217
0.0597896
0.0590556
-0.298094
-0.303194
-0.304748
-0.306966
-0.308346
-0.309648
-0.310688
-0.311566
-0.312208
-0.312553
-0.312492
-0.311911
-0.310681
-0.308679
-0.305785
-0.301893
-0.296915
-0.29078
-0.283444
-0.274888
-0.265118
-0.25417
-0.242106
-0.229013
-0.215003
-0.200207
-0.184775
-0.168867
-0.152655
-0.136312
-0.120009
-0.103913
-0.0881804
-0.0729524
-0.0583548
-0.044494
-0.0314567
-0.0193085
-0.00809483
0.00215839
0.0114433
0.0197681
0.0271552
0.0336385
0.0392615
0.0440746
0.0481333
0.051496
0.0542227
0.056373
0.0580054
0.0591761
0.059938
0.060342
0.0604314
0.0602565
0.0598331
0.0592585
0.0583899
0.0577342
-0.301106
-0.306024
-0.307532
-0.309684
-0.311033
-0.312314
-0.31335
-0.314238
-0.314905
-0.315289
-0.315281
-0.314765
-0.313613
-0.311698
-0.308899
-0.305108
-0.300234
-0.294205
-0.286973
-0.278517
-0.26884
-0.257976
-0.245985
-0.232952
-0.218988
-0.204223
-0.188806
-0.172898
-0.156671
-0.140298
-0.123952
-0.107801
-0.0920026
-0.0766995
-0.062019
-0.0480691
-0.0349374
-0.022691
-0.0113763
-0.00102003
0.00836903
0.0167986
0.0242904
0.030878
0.0366043
0.0415197
0.0456791
0.0491409
0.0519647
0.05421
0.0559349
0.0571957
0.058045
0.0585337
0.0587047
0.0586086
0.0582603
0.0577601
0.0569561
0.0563803
-0.30417
-0.308905
-0.310366
-0.31245
-0.313767
-0.315025
-0.316057
-0.316955
-0.317647
-0.31807
-0.318116
-0.317666
-0.316591
-0.314764
-0.312062
-0.308374
-0.303607
-0.297685
-0.290559
-0.282205
-0.272623
-0.261845
-0.249928
-0.236957
-0.22304
-0.208306
-0.192905
-0.176998
-0.160755
-0.144352
-0.127963
-0.111756
-0.0958906
-0.0805115
-0.0657471
-0.0517067
-0.0384795
-0.0261337
-0.0147166
-0.00425616
0.00523836
0.0137739
0.0213717
0.0280648
0.0338959
0.0389148
0.0431763
0.0467386
0.0496608
0.0520023
0.0538212
0.0551734
0.0561114
0.056686
0.05694
0.0569242
0.0566521
0.0562275
0.0554894
0.0549947
-0.307282
-0.311833
-0.313246
-0.31526
-0.316544
-0.317779
-0.318806
-0.319713
-0.32043
-0.320893
-0.320992
-0.320609
-0.319613
-0.317876
-0.315271
-0.311688
-0.307028
-0.301216
-0.294198
-0.285947
-0.276462
-0.265772
-0.253931
-0.241022
-0.227153
-0.212452
-0.197067
-0.18116
-0.164902
-0.148469
-0.132036
-0.115773
-0.0998397
-0.0843837
-0.0695344
-0.0554027
-0.0420789
-0.0296326
-0.0181122
-0.0075464
0.00205466
0.0106973
0.0184022
0.025202
0.0311389
0.0362625
0.0406273
0.0442911
0.047313
0.049752
0.0516661
0.0531109
0.0541389
0.0548006
0.0551387
0.0552044
0.0550098
0.054662
0.0539908
0.0535786
-0.310441
-0.314804
-0.316168
-0.318112
-0.319361
-0.320573
-0.321594
-0.32251
-0.323252
-0.323753
-0.323906
-0.32359
-0.322674
-0.321027
-0.318522
-0.315044
-0.310495
-0.304793
-0.297885
-0.289739
-0.280353
-0.269751
-0.257988
-0.245143
-0.231323
-0.216655
-0.201287
-0.18538
-0.169107
-0.152643
-0.136166
-0.119846
-0.103845
-0.0883115
-0.0733765
-0.0591526
-0.0457315
-0.0331839
-0.0215592
-0.0108872
-0.00117866
0.00757198
0.0153849
0.0222923
0.0283361
0.0335654
0.0380345
0.0418009
0.0449235
0.0474611
0.0494714
0.0510099
0.052129
0.052879
0.0533023
0.0534505
0.0533345
0.0530647
0.0524613
0.0521329
-0.313641
-0.317815
-0.31913
-0.321002
-0.322216
-0.323403
-0.324418
-0.325342
-0.326108
-0.326648
-0.326855
-0.326607
-0.325771
-0.324215
-0.321811
-0.31844
-0.314001
-0.308413
-0.301615
-0.293576
-0.28429
-0.273779
-0.262094
-0.249314
-0.235544
-0.22091
-0.205559
-0.189653
-0.173365
-0.156871
-0.140349
-0.123971
-0.107902
-0.0922902
-0.077269
-0.0629523
-0.0494331
-0.0367834
-0.0250538
-0.0142748
-0.00445816
0.00440122
0.0123229
0.0193387
0.0254901
0.0308259
0.0354002
0.0392701
0.0424943
0.0451315
0.047239
0.0488723
0.0500834
0.0509227
0.0514323
0.0516641
0.0516276
0.0514368
0.0509022
0.0506586
-0.31688
-0.320863
-0.322127
-0.323927
-0.325105
-0.326267
-0.327274
-0.328206
-0.328996
-0.329575
-0.329835
-0.329655
-0.3289
-0.327436
-0.325132
-0.32187
-0.317543
-0.312069
-0.305384
-0.297454
-0.288269
-0.277849
-0.266244
-0.25353
-0.239811
-0.225211
-0.209878
-0.193974
-0.17767
-0.161146
-0.144579
-0.128144
-0.112006
-0.0963153
-0.0812074
-0.0667973
-0.0531796
-0.0404273
-0.0285922
-0.0177058
-0.00778042
0.00118825
0.00921934
0.0163442
0.0226038
0.0280468
0.032727
0.0367011
0.0400278
0.0427653
0.0449708
0.0466997
0.0480037
0.0489333
0.04953
0.0498463
0.0498903
0.0497793
0.0493144
0.0491568
-0.320155
-0.323945
-0.325158
-0.326884
-0.328026
-0.32916
-0.33016
-0.331099
-0.331911
-0.332529
-0.332843
-0.332731
-0.332057
-0.330685
-0.328484
-0.32533
-0.321117
-0.315758
-0.309187
-0.301366
-0.292284
-0.281957
-0.270433
-0.257787
-0.244119
-0.229554
-0.21424
-0.198337
-0.182018
-0.165463
-0.148851
-0.132359
-0.116151
-0.100382
-0.085187
-0.0706833
-0.0569667
-0.0441115
-0.0321707
-0.0211764
-0.011142
-0.00206368
0.00607718
0.0133114
0.0196798
0.0252306
0.0300171
0.0340962
0.0375258
0.0403644
0.0426687
0.0444939
0.0458917
0.0469122
0.047597
0.0479985
0.0481238
0.0480936
0.0476991
0.0476284
-0.32346
-0.327058
-0.328219
-0.32987
-0.330974
-0.332081
-0.333072
-0.334018
-0.334852
-0.335508
-0.335875
-0.33583
-0.335238
-0.333959
-0.33186
-0.328816
-0.324718
-0.319475
-0.313019
-0.305309
-0.296331
-0.286098
-0.274656
-0.262078
-0.248462
-0.233934
-0.218638
-0.202737
-0.186403
-0.169818
-0.153161
-0.136611
-0.120334
-0.104486
-0.0892035
-0.074606
-0.0607903
-0.0478322
-0.0357854
-0.0246832
-0.0145396
-0.00535136
0.0028995
0.0102435
0.0167209
0.0223797
0.0272731
0.0314575
0.0349907
0.0379308
0.0403345
0.0422568
0.0437489
0.0448611
0.0456345
0.0461221
0.0463295
0.0463808
0.0460574
0.0460745
-0.326795
-0.330199
-0.331307
-0.332883
-0.333948
-0.335027
-0.336008
-0.336959
-0.337815
-0.338508
-0.338928
-0.338951
-0.338439
-0.337254
-0.335258
-0.332325
-0.328342
-0.323216
-0.316876
-0.309278
-0.300404
-0.290267
-0.278908
-0.266398
-0.252836
-0.238344
-0.223068
-0.207168
-0.19082
-0.174205
-0.157503
-0.140895
-0.124549
-0.108622
-0.0932523
-0.078561
-0.0646464
-0.0515853
-0.0394326
-0.0282225
-0.0179696
-0.00867157
-0.000310678
0.00714308
0.0137297
0.0194968
0.0244973
0.0287873
0.0324245
0.0354666
0.0379702
0.0399899
0.041577
0.0427815
0.0436442
0.0442185
0.0445085
0.044642
0.0443904
0.0444961
-0.330154
-0.333364
-0.334419
-0.335918
-0.336943
-0.337993
-0.338964
-0.339919
-0.340796
-0.341526
-0.341998
-0.342088
-0.341658
-0.340566
-0.338673
-0.33585
-0.331983
-0.326976
-0.320753
-0.313268
-0.3045
-0.294459
-0.283183
-0.270744
-0.257235
-0.24278
-0.227523
-0.211627
-0.195264
-0.178619
-0.161873
-0.145207
-0.128792
-0.112785
-0.0973291
-0.0825441
-0.0685307
-0.0553669
-0.0431085
-0.0317907
-0.0214289
-0.0120211
-0.00355034
0.00401314
0.010709
0.0165844
0.0216921
0.0260879
0.0298293
0.0329737
0.0355775
0.0376951
0.0393776
0.0406748
0.0416274
0.0422889
0.0426622
0.0428785
0.0426993
0.0428943
-0.333534
-0.33655
-0.337552
-0.338974
-0.339959
-0.340978
-0.341937
-0.342896
-0.343792
-0.344558
-0.345082
-0.345239
-0.34489
-0.343891
-0.342101
-0.33939
-0.33564
-0.33075
-0.324645
-0.317274
-0.308613
-0.298668
-0.287478
-0.275108
-0.261654
-0.247237
-0.232
-0.216106
-0.19973
-0.183055
-0.166264
-0.149541
-0.133057
-0.116972
-0.101429
-0.0865511
-0.0724393
-0.0591731
-0.0468095
-0.0353845
-0.0249141
-0.0153969
-0.00681652
0.000856444
0.00766128
0.013645
0.0188598
0.0233615
0.0272071
0.030454
0.0331582
0.0353741
0.0371523
0.0385427
0.0395855
0.0403348
0.0407918
0.0410915
0.040985
0.0412701
-0.336933
-0.339756
-0.340703
-0.342047
-0.34299
-0.343978
-0.344925
-0.345886
-0.346801
-0.347602
-0.348177
-0.3484
-0.348131
-0.347225
-0.345539
-0.342939
-0.339305
-0.334535
-0.328549
-0.321291
-0.312737
-0.302891
-0.291786
-0.279487
-0.266088
-0.251709
-0.236493
-0.220602
-0.204213
-0.187508
-0.170673
-0.153893
-0.137341
-0.121178
-0.105549
-0.0905777
-0.0763681
-0.0630002
-0.050532
-0.0390002
-0.0284218
-0.0187958
-0.0101063
-0.00232423
0.00458928
0.0106809
0.0160028
0.0206102
0.0245601
0.0279096
0.0307143
0.0330285
0.0349027
0.0363866
0.03752
0.0383574
0.0388985
0.039282
0.0392489
0.0396245
-0.340348
-0.342976
-0.343868
-0.345134
-0.346035
-0.346991
-0.347924
-0.348886
-0.34982
-0.350654
-0.351279
-0.351568
-0.351379
-0.350565
-0.348982
-0.346494
-0.342977
-0.338326
-0.332458
-0.325316
-0.31687
-0.307121
-0.296102
-0.283875
-0.270531
-0.256191
-0.240996
-0.225109
-0.208707
-0.191973
-0.175095
-0.158258
-0.141638
-0.125397
-0.109683
-0.0946198
-0.0803131
-0.0668442
-0.0542722
-0.0426345
-0.0319488
-0.0222147
-0.0134167
-0.00552614
0.00149555
0.00769477
0.0131233
0.0178363
0.0218903
0.0253422
0.0282476
0.0306602
0.0326305
0.0342081
0.0354323
0.036358
0.0369837
0.0374514
0.0374918
0.0379585
-0.343774
-0.34621
-0.347046
-0.348233
-0.349091
-0.350014
-0.350932
-0.351894
-0.352845
-0.353712
-0.354386
-0.354739
-0.354629
-0.353907
-0.352427
-0.350051
-0.346651
-0.342119
-0.33637
-0.329343
-0.321006
-0.311356
-0.300423
-0.288267
-0.27498
-0.260678
-0.245505
-0.229623
-0.213207
-0.196445
-0.179524
-0.162631
-0.145944
-0.129626
-0.113827
-0.0986732
-0.0842704
-0.0707015
-0.0580266
-0.046284
-0.0354919
-0.0256506
-0.0167449
-0.00874659
-0.00161735
0.00468889
0.0102236
0.0150418
0.0191997
0.0227539
0.0257597
0.0282708
0.0303373
0.0320086
0.0333238
0.0343381
0.0350484
0.0356006
0.035715
0.0362732
-0.347209
-0.349453
-0.350234
-0.351341
-0.352156
-0.353045
-0.353946
-0.354907
-0.355873
-0.356772
-0.357494
-0.357911
-0.357879
-0.357248
-0.355871
-0.353605
-0.350322
-0.34591
-0.34028
-0.333368
-0.325139
-0.315589
-0.304742
-0.292659
-0.279428
-0.265166
-0.250015
-0.234137
-0.21771
-0.200919
-0.183956
-0.167008
-0.150254
-0.133861
-0.117978
-0.102734
-0.0882362
-0.0745685
-0.0617918
-0.0499454
-0.0390481
-0.0291006
-0.0200881
-0.0119829
-0.00474692
0.00166565
0.00730605
0.0122289
0.0164902
0.0201464
0.0232525
0.0258619
0.0280245
0.0297895
0.0311958
0.0322989
0.0330941
0.033731
0.0339195
0.0345695
-0.350651
-0.352703
-0.353428
-0.354456
-0.355226
-0.356079
-0.356964
-0.357923
-0.358902
-0.359831
-0.3606
-0.361079
-0.361124
-0.360584
-0.359309
-0.357153
-0.353987
-0.349694
-0.344183
-0.337387
-0.329267
-0.319816
-0.309057
-0.297046
-0.283872
-0.26965
-0.254521
-0.238648
-0.222209
-0.205391
-0.188386
-0.171384
-0.154564
-0.138096
-0.122131
-0.106798
-0.0922066
-0.0784414
-0.0655644
-0.0536154
-0.0426141
-0.0325616
-0.0234436
-0.0152325
-0.0078907
-0.00137262
0.0043727
0.00939958
0.0137639
0.0175217
0.0207277
0.0234352
0.0256937
0.0275525
0.0290498
0.0302416
0.0311218
0.0318436
0.0321064
0.0328486
-0.354095
-0.355958
-0.356627
-0.357575
-0.358299
-0.359116
-0.359982
-0.360937
-0.361929
-0.362887
-0.363701
-0.364242
-0.364363
-0.363913
-0.362738
-0.360692
-0.357642
-0.353468
-0.348077
-0.341396
-0.333385
-0.324032
-0.313361
-0.301423
-0.288306
-0.274124
-0.259018
-0.243151
-0.2267
-0.209856
-0.19281
-0.175754
-0.15887
-0.142329
-0.126282
-0.110862
-0.096178
-0.0823167
-0.0693408
-0.0572909
-0.046187
-0.0360309
-0.0268085
-0.0184928
-0.0110463
-0.00442363
0.00142576
0.00655598
0.0110226
0.0148815
0.018187
0.0209923
0.0233465
0.0252988
0.0268871
0.0281677
0.0291329
0.0299396
0.0302768
0.0311113
-0.35754
-0.359215
-0.359827
-0.360695
-0.361373
-0.362153
-0.362999
-0.363949
-0.364952
-0.365938
-0.366795
-0.367395
-0.367591
-0.367229
-0.366155
-0.364218
-0.361283
-0.357228
-0.351955
-0.34539
-0.337488
-0.328235
-0.31765
-0.305786
-0.292726
-0.278584
-0.263502
-0.24764
-0.231179
-0.214309
-0.197223
-0.180114
-0.163168
-0.146554
-0.130427