/*--------------------------------*- C++ -*----------------------------------*\
  =========                 |
  \\      /  F ield         | OpenFOAM: The Open Source CFD Toolbox
   \\    /   O peration     | Website:  https://openfoam.org
    \\  /    A nd           | Version:  9
     \\/     M anipulation  |
\*---------------------------------------------------------------------------*/
FoamFile
{
    format      ascii;
    class       volVectorField;
    location    "14.7";
    object      U;
}
// * * * * * * * * * * * * * * * * * * * * * * * * * * * * * * * * * * * * * //

dimensions      [0 1 -1 0 0 0 0];

internalField   nonuniform List<vector> 
8500
(
(-0.00712963 0.00283403 0)
(-0.0317596 0.0048795 -6.98415e-23)
(-0.0668034 0.00545898 -3.84127e-24)
(-0.0979215 0.00541051 7.28883e-37)
(-0.129389 0.00526488 -1.07604e-23)
(-0.154612 0.00485669 8.95965e-24)
(-0.184662 0.0051488 -6.10123e-23)
(-0.202932 0.00417057 -9.51217e-23)
(-0.233309 0.00582935 -8.76813e-23)
(-0.251975 0.0041883 -4.58288e-24)
(-0.00742206 0.0084368 2.01663e-22)
(-0.0319394 0.0145465 6.52571e-23)
(-0.0664747 0.0162814 2.62073e-22)
(-0.0968552 0.0161344 0)
(-0.127496 0.0156881 0)
(-0.151335 0.0144547 1.81109e-23)
(-0.180313 0.015297 4.58905e-23)
(-0.195963 0.0123363 1.01557e-22)
(-0.224797 0.0172854 6.5921e-23)
(-0.239469 0.0122527 1.83358e-23)
(-0.00799789 0.0138467 -1.79207e-22)
(-0.0323 0.0239403 0)
(-0.0658359 0.026819 -2.46619e-22)
(-0.094759 0.026569 0)
(-0.123774 0.0257924 -4.31013e-23)
(-0.144885 0.0237139 3.58884e-23)
(-0.171785 0.0249963 0)
(-0.182278 0.0199957 0)
(-0.20822 0.0281481 0)
(-0.215229 0.0194083 0)
(-0.00883982 0.0189455 3.60347e-22)
(-0.0328432 0.0328878 -2.62064e-22)
(-0.0649226 0.0368879 -6.18531e-23)
(-0.0917027 0.0365275 -3.85982e-22)
(-0.118341 0.035368 -3.88272e-22)
(-0.135454 0.0324316 3.63187e-23)
(-0.159393 0.0339455 -3.03242e-23)
(-0.162338 0.0268726 3.53225e-22)
(-0.184377 0.0380733 -4.07875e-25)
(-0.180634 0.0251403 3.63563e-22)
(-0.00992361 0.0236291 -3.60347e-22)
(-0.033571 0.0412291 -3.38738e-22)
(-0.0637839 0.0463131 9.30654e-23)
(-0.087784 0.045832 5.15218e-22)
(-0.111356 0.0442094 -4.38274e-23)
(-0.123312 0.0404356 5.75964e-22)
(-0.143537 0.0418412 0)
(-0.136729 0.0327683 -4.04801e-22)
(-0.15425 0.0467947 -8.74074e-23)
(-0.13733 0.0290849 -5.05133e-22)
(-0.0112201 0.0278127 9.08524e-23)
(-0.0344846 0.0488218 5.63323e-22)
(-0.0624768 0.0549303 -4.35634e-22)
(-0.0831205 0.0543172 -3.91644e-25)
(-0.102991 0.0521191 -3.91493e-22)
(-0.108772 0.0475903 1.45276e-22)
(-0.124636 0.0483793 -6.08796e-23)
(-0.106051 0.0375732 5.05825e-22)
(-0.11879 0.0541258 -8.66614e-23)
(-0.0867233 0.0312229 2.88806e-22)
(-0.0126975 0.0314338 4.55213e-23)
(-0.0355837 0.0555448 0)
(-0.0610587 0.0625881 -1.62973e-24)
(-0.0778377 0.0618325 0)
(-0.0934057 0.0589113 6.94203e-22)
(-0.0921547 0.0537987 -5.76229e-22)
(-0.10303 0.0532567 0)
(-0.0708028 0.0413002 -1.61179e-24)
(-0.0786989 0.0598279 0)
(-0.0291808 0.0321332 0)
(-0.0143238 0.0344541 -7.34075e-22)
(-0.0368654 0.061301 -7.58278e-23)
(-0.0595798 0.0691527 5.62026e-22)
(-0.0720546 0.0682422 1.04345e-22)
(-0.0827151 0.0644173 -6.9798e-22)
(-0.0737369 0.0590037 -4.30946e-22)
(-0.0788508 0.0561445 -6.11011e-23)
(-0.0312776 0.0441668 5.00619e-22)
(-0.0343345 0.0634123 -8.66977e-23)
(0.036682 0.0324679 7.33909e-23)
(-0.0160696 0.0368601 8.26384e-22)
(-0.0383218 0.0660191 -6.09299e-22)
(-0.0580728 0.0745106 -1.88356e-22)
(-0.0658645 0.0734243 1.03932e-22)
(-0.0709488 0.068491 6.97746e-22)
(-0.053709 0.0632055 6.49712e-22)
(-0.0518314 0.056643 -6.11847e-23)
(0.0127412 0.0463814 9.965e-23)
(0.0137904 0.0645415 -1.7413e-22)
(0.115111 0.0329108 7.35282e-23)
(-0.0179095 0.0386619 7.42431e-22)
(-0.0399375 0.0696539 6.0964e-22)
(-0.056543 0.0785726 -8.83468e-22)
(-0.0593116 0.0772705 -1.04228e-22)
(-0.0579998 0.0710102 0)
(-0.0321304 0.0664786 0)
(-0.0213736 0.0547365 0)
(0.0625639 0.0480402 -1.58532e-21)
(0.0654873 0.0625117 -7.24306e-22)
(0.210435 0.034782 5.62598e-22)
(-0.0198243 0.0398905 -1.48925e-21)
(-0.0416861 0.0721866 0)
(-0.0549565 0.081278 2.02233e-21)
(-0.0523692 0.0796938 8.36544e-22)
(-0.0435702 0.0718894 8.71344e-23)
(-0.00857641 0.0687021 0)
(0.013365 0.0508602 -9.98538e-22)
(0.119584 0.0498516 7.90818e-22)
(0.123208 0.0560473 7.24296e-22)
(0.325787 0.0391751 -5.62577e-22)
(-0.0218008 0.0405939 8.40546e-22)
(-0.0435248 0.0736224 -7.69323e-23)
(-0.0532238 0.0825961 -1.01285e-21)
(-0.0449101 0.0806402 -9.41636e-22)
(-0.0272795 0.0711793 0)
(0.0179388 0.0695946 1.15362e-21)
(0.0544286 0.0454711 1.57354e-24)
(0.184779 0.0528593 6.81251e-22)
(0.193331 0.0456566 8.10354e-22)
(0.460842 0.0456142 -5.56993e-22)
(-0.0238318 0.0408323 2.14836e-26)
(-0.0453886 0.0739878 1.31773e-21)
(-0.0511807 0.0825266 -1.27348e-22)
(-0.0365844 0.0800219 7.34402e-22)
(-0.00859898 0.0690481 4.39005e-22)
(0.048668 0.0690781 2.91929e-22)
(0.105045 0.039464 9.95515e-22)
(0.258901 0.0568296 -8.85291e-22)
(0.285305 0.0355883 -5.50545e-22)
(0.609879 0.0530703 4.11147e-22)
(-0.0259147 0.0406728 0)
(-0.0471846 0.0733272 -1.08535e-21)
(-0.0486139 0.0811198 -1.27826e-22)
(-0.026808 0.0777905 1.34428e-24)
(0.0134306 0.0656257 7.00579e-22)
(0.0852994 0.0671184 -1.00763e-21)
(0.16876 0.034632 9.88154e-22)
(0.342983 0.060181 -1.00934e-22)
(0.406213 0.0319692 0)
(0.76212 0.0615184 0)
(-0.0280483 0.0401832 9.53818e-23)
(-0.0487759 0.071704 -1.25186e-21)
(-0.0452111 0.0784622 0)
(-0.0148365 0.0740572 -1.04049e-22)
(0.0401895 0.061106 8.73742e-23)
(0.13024 0.0636341 0)
(0.248222 0.0331262 -9.89675e-22)
(0.439043 0.0619007 -7.82435e-22)
(0.553354 0.0379924 1.71578e-22)
(0.90479 0.0715564 -1.4419e-22)
(-0.0302254 0.0394215 -9.57906e-23)
(-0.0499847 0.069196 1.33049e-21)
(-0.0405113 0.0746442 0)
(0.000318813 0.0690388 -9.47406e-22)
(0.0734161 0.0558982 8.73841e-23)
(0.186487 0.0590437 -1.15246e-21)
(0.344012 0.0362559 -1.19951e-22)
(0.549233 0.0635768 8.82813e-22)
(0.712662 0.0519537 0)
(1.02715 0.0828632 1.10598e-21)
(-0.0324258 0.0384332 -1.45621e-21)
(-0.0505846 0.065887 -7.90979e-23)
(-0.0339119 0.0697885 -1.28168e-22)
(0.0199398 0.063031 1.06014e-22)
(0.115248 0.0506542 -1.39486e-21)
(0.257132 0.0547445 1.15244e-21)
(0.454228 0.0439347 9.71593e-22)
(0.672029 0.0683587 7.81925e-22)
(0.865491 0.0698473 1.35126e-21)
(1.1232 0.0939634 -9.67258e-22)
(-0.0346135 0.0372508 1.55257e-21)
(-0.0502885 0.0618567 0)
(-0.0246683 0.0640559 1.1638e-21)
(0.045587 0.0564121 -1.06278e-22)
(0.168075 0.0462331 2.78859e-21)
(0.344214 0.0528839 0)
(0.574727 0.0554001 -9.71572e-22)
(0.799599 0.0776619 -2.14727e-24)
(0.997156 0.0883976 -1.51575e-21)
(1.19225 0.103376 1.38256e-22)
(-0.0367314 0.0358897 0)
(-0.0487479 0.0571811 1.27854e-21)
(-0.0118908 0.0576383 -1.0353e-21)
(0.0790461 0.0496775 0)
(0.234113 0.043711 -1.39372e-21)
(0.447065 0.0554928 0)
(0.699211 0.0698789 9.55525e-22)
(0.920716 0.0903198 -7.79746e-22)
(1.10078 0.105779 -1.29403e-21)
(1.2376 0.110203 -1.05505e-21)
(-0.0386942 0.0343463 -1.96783e-22)
(-0.0455538 0.0519343 -1.11702e-21)
(0.00545633 0.0507613 0)
(0.122233 0.0435131 0)
(0.314632 0.0443268 0)
(0.561379 0.0634155 -1.42624e-22)
(0.819962 0.0863377 -9.57304e-22)
(1.02622 0.104443 -9.81609e-23)
(1.17628 0.120956 1.29402e-21)
(1.26471 0.113796 1.18702e-21)
(-0.0403856 0.0326027 0)
(-0.0402373 0.0461871 -1.29619e-21)
(0.0285519 0.0436972 0)
(0.17697 0.0388966 0)
(0.408949 0.0491737 0)
(0.679948 0.0759985 1.41715e-22)
(0.929876 0.103404 -1.1704e-21)
(1.11167 0.118698 9.18312e-23)
(1.22772 0.132829 9.23716e-22)
(1.2804 0.113831 1.01476e-21)
(-0.0416753 0.0306466 0)
(-0.0322546 0.0399914 1.29618e-21)
(0.0587112 0.0368141 -1.05653e-21)
(0.244517 0.037103 0)
(0.51373 0.0586588 -1.39122e-21)
(0.794894 0.0916514 0)
(1.02438 0.119931 9.35957e-22)
(1.17676 0.132035 -7.50144e-22)
(1.26084 0.140559 -1.23651e-21)
(1.3028 0.123855 -1.01034e-21)
(-0.0424175 0.0284553 1.64812e-21)
(-0.0209961 0.0333838 0)
(0.097334 0.0306796 9.25581e-22)
(0.324882 0.0394164 1.08307e-22)
(0.623386 0.0722023 2.78247e-21)
(0.899964 0.108692 0)
(1.10181 0.135259 -9.13921e-22)
(1.22386 0.143519 -1.48787e-21)
(1.2841 0.148109 -1.03541e-21)
(1.31054 0.129429 -5.05019e-24)
(-0.0424344 0.0259927 -1.7505e-21)
(-0.00577897 0.0264154 8.40422e-23)
(0.145727 0.0261763 1.31653e-22)
(0.4162 0.0465741 -1.08892e-22)
(0.731617 0.0885434 -1.39125e-21)
(0.991541 0.125862 1.12237e-21)
(1.1627 0.149033 9.13917e-22)
(1.25705 0.153662 7.3773e-22)
(1.29726 0.154059 1.18246e-21)
(1.31266 0.134977 -1.04735e-21)
(-0.0415318 0.0232232 1.03733e-22)
(0.0141853 0.0191849 1.26319e-21)
(0.204752 0.0244973 0)
(0.514726 0.0583548 -7.57344e-22)
(0.833136 0.106353 -8.82374e-23)
(1.06839 0.142386 -1.12236e-21)
(1.20902 0.161322 1.09663e-22)
(1.27904 0.162415 6.17946e-22)
(1.30411 0.159436 0)
(1.31176 0.139813 9.31949e-22)
(-0.0394998 0.0201126 -1.06971e-22)
(0.0397904 0.0119285 -1.34833e-21)
(0.274365 0.0268615 0)
(0.615654 0.0737393 1.01675e-22)
(0.924533 0.124623 -8.84721e-23)
(1.13093 0.1579 0)
(1.24301 0.172248 -8.75373e-22)
(1.29273 0.170143 -7.09737e-22)
(1.30634 0.164211 -1.3607e-22)
(1.30784 0.144291 -1.14461e-22)
(-0.0360971 0.0166279 0)
(0.0719649 0.00515307 -1.55347e-21)
(0.35328 0.0340122 1.39316e-22)
(0.714316 0.0914872 -5.33051e-24)
(1.00421 0.142728 -6.93946e-22)
(1.18044 0.172284 -1.22873e-21)
(1.26701 0.182024 9.87249e-22)
(1.30025 0.177054 0)
(1.30535 0.16866 0)
(1.30295 0.148611 0)
(-0.0310235 0.0127473 2.32546e-24)
(0.11151 -0.000263887 1.30243e-21)
(0.439011 0.0458732 1.41034e-22)
(0.807089 0.110588 9.80993e-22)
(1.07189 0.160328 6.05021e-22)
(1.21862 0.18556 -1.20037e-22)
(1.2831 0.190863 8.5212e-22)
(1.30331 0.183393 -5.76279e-22)
(1.30229 0.1729 -6.48584e-22)
(1.29695 0.15284 5.21594e-22)
(-0.0238924 0.00848321 8.07923e-22)
(0.158866 -0.00312095 9.09193e-23)
(0.528338 0.0616687 -1.12698e-21)
(0.891684 0.130363 -8.83651e-22)
(1.12808 0.177259 0)
(1.2472 0.197826 1.08261e-21)
(1.29306 0.198977 -1.63396e-23)
(1.30316 0.189339 7.42293e-22)
(1.29777 0.177045 4.53531e-22)
(1.29052 0.157054 -4.13441e-22)
(-0.014228 0.0039208 -1.85938e-21)
(0.213879 -0.00215684 0)
(0.617938 0.0803736 2.27049e-21)
(0.966982 0.150404 7.76314e-22)
(1.17376 0.193466 8.90905e-23)
(1.26784 0.209222 0)
(1.29832 0.206558 -8.29063e-22)
(1.30074 0.19504 6.29271e-22)
(1.2923 0.181162 4.8957e-22)
(1.2837 0.161287 -3.86352e-22)
(-0.00149544 -0.000739095 9.4069e-22)
(0.275701 0.00355848 7.33806e-22)
(0.704911 0.101104 -1.28298e-21)
(1.03269 0.170488 1.15352e-22)
(1.21007 0.208957 0)
(1.28202 0.219896 0)
(1.30004 0.213768 0)
(1.2967 0.200602 -1.24081e-21)
(1.28616 0.185299 -4.89574e-22)
(1.27664 0.16555 3.86334e-22)
(0.0148229 -0.00513525 8.7036e-22)
(0.342883 0.0143402 -7.27995e-22)
(0.787021 0.123244 7.47199e-23)
(1.08903 0.190511 0)
(1.2382 0.223779 6.73848e-22)
(1.29098 0.229995 4.47842e-22)
(1.29908 0.220741 5.14734e-23)
(1.29149 0.206098 -5.4131e-23)
(1.27953 0.189483 1.17214e-22)
(1.26937 0.169847 -4.74075e-23)
(0.0350997 -0.00872308 -9.87934e-22)
(0.413614 0.0298866 9.20788e-23)
(0.86273 0.146386 5.91796e-22)
(1.1365 0.210412 -1.65173e-22)
(1.2593 0.238001 -5.05456e-22)
(1.29575 0.239653 -6.36424e-22)
(1.2961 0.227577 5.03586e-23)
(1.2854 0.211576 3.06127e-22)
(1.27252 0.193723 0)
(1.2619 0.174165 -4.22298e-23)
(0.0594893 -0.0108294 -6.39731e-23)
(0.485987 0.0495154 0)
(0.931122 0.170243 6.05879e-24)
(1.17576 0.230134 0)
(1.27441 0.251695 6.56978e-22)
(1.29718 0.248984 -4.88397e-22)
(1.29155 0.234346 0)
(1.27865 0.21706 9.94472e-24)
(1.26517 0.19802 0)
(1.25423 0.178493 0)
(0.0879134 -0.0107586 -1.2785e-22)
(0.558194 0.0724639 8.35755e-22)
(0.991786 0.194605 -6.74349e-22)
(1.20751 0.249618 1.1166e-22)
(1.28447 0.264938 -3.00137e-22)
(1.29594 0.258081 -5.22561e-23)
(1.28579 0.241091 0)
(1.27134 0.222558 2.1199e-22)
(1.25752 0.202363 5.46004e-23)
(1.24635 0.182807 1.566e-22)
(0.120057 -0.00791701 -5.37969e-22)
(0.628628 0.0980707 -3.3748e-22)
(1.04468 0.219316 -1.1105e-22)
(1.23245 0.268801 4.45845e-22)
(1.29026 0.277797 3.68727e-23)
(1.29253 0.267014 4.76354e-22)
(1.27905 0.247836 0)
(1.26353 0.228066 -2.55883e-22)
(1.24958 0.206736 4.76254e-23)
(1.23824 0.187087 -3.45311e-22)
(0.155408 -0.00192008 -5.37968e-22)
(0.695917 0.125815 3.50712e-22)
(1.09001 0.244255 -4.18961e-24)
(1.25128 0.287622 -5.19086e-22)
(1.29246 0.290329 -2.74569e-22)
(1.28736 0.275831 -2.69317e-23)
(1.27147 0.254582 2.24869e-23)
(1.25528 0.233569 2.85709e-22)
(1.24133 0.211119 -2.38468e-24)
(1.22988 0.191305 1.1236e-22)
(0.193311 0.00736243 -2.76916e-22)
(0.758927 0.155278 0)
(1.12815 0.269316 -3.02774e-22)
(1.26465 0.306032 0)
(1.2916 0.302576 -3.45807e-22)
(1.28072 0.28456 2.98543e-23)
(1.26316 0.26132 0)
(1.2466 0.239043 0)
(1.23277 0.215488 0)
(1.22127 0.195433 0)
(0.233017 0.0198362 2.42874e-22)
(0.816764 0.186083 1.17561e-22)
(1.15956 0.29439 3.02775e-22)
(1.27317 0.323993 0)
(1.28813 0.314562 0)
(1.27281 0.293206 -1.24692e-23)
(1.25418 0.268027 4.80287e-23)
(1.23748 0.244462 5.50906e-23)
(1.22389 0.219813 5.11167e-23)
(1.21241 0.199439 -8.47005e-24)
(0.273735 0.0352636 -4.39147e-24)
(0.868805 0.217867 -1.1003e-22)
(1.18468 0.319356 5.04153e-24)
(1.27739 0.341485 5.98082e-24)
(1.28241 0.326299 -9.15073e-24)
(1.2638 0.30176 3.48568e-24)
(1.24457 0.27467 -4.19244e-23)
(1.22793 0.249791 -5.14866e-23)
(1.21469 0.22406 -3.86842e-23)
(1.20331 0.203286 1.56564e-24)
(0.314661 0.0533445 0)
(0.91474 0.250291 -1.10874e-22)
(1.20391 0.344093 -3.4374e-24)
(1.27779 0.358491 6.9974e-24)
(1.27472 0.337782 1.2571e-37)
(1.25378 0.310194 -8.85476e-38)
(1.23434 0.281209 -3.77005e-23)
(1.21794 0.254994 -4.50793e-23)
(1.20514 0.228184 -3.56389e-23)
(1.194 0.20694 0)
(0.355015 0.0737643 3.18028e-22)
(0.954482 0.283065 9.09167e-23)
(1.21762 0.368486 3.01866e-22)
(1.27477 0.374983 -1.36588e-23)
(1.26528 0.34899 0)
(1.24283 0.318471 1.07007e-23)
(1.22352 0.287599 2.47073e-23)
(1.2075 0.260033 4.84771e-23)
(1.19525 0.232137 2.75714e-23)
(1.18447 0.210379 6.7808e-24)
(0.394052 0.0962263 -2.8342e-22)
(0.988039 0.315932 0)
(1.22622 0.39241 -2.85355e-22)
(1.26868 0.39092 0)
(1.25426 0.359886 -2.90602e-23)
(1.231 0.326538 2.41973e-23)
(1.2121 0.29379 0)
(1.19661 0.264866 0)
(1.18501 0.235878 0)
(1.17465 0.213585 0)
(0.431091 0.120456 5.61777e-22)
(1.0155 0.348652 -3.61045e-22)
(1.23006 0.415739 -6.94591e-23)
(1.25983 0.406258 -2.85732e-22)
(1.24182 0.370421 -2.66122e-22)
(1.21832 0.33434 1.86524e-23)
(1.20008 0.299732 -1.55739e-23)
(1.18525 0.269444 1.31321e-22)
(1.17448 0.239382 2.17666e-24)
(1.16448 0.216533 9.76825e-23)
(0.465518 0.146189 -5.61778e-22)
(1.03702 0.381001 -4.36062e-22)
(1.2295 0.438346 9.68509e-23)
(1.24848 0.420945 3.41775e-22)
(1.22804 0.380533 -1.64891e-23)
(1.20482 0.341811 2.87721e-22)
(1.18745 0.305368 0)
(1.17343 0.273708 -1.497e-22)
(1.16367 0.242637 -2.34449e-23)
(1.15395 0.219218 -1.23752e-22)
(0.496808 0.173155 1.33781e-22)
(1.05277 0.412761 7.45129e-22)
(1.22485 0.460101 -4.35785e-22)
(1.23487 0.434919 -8.2853e-23)
(1.21303 0.390154 -2.00083e-22)
(1.19052 0.348884 4.37458e-23)
(1.17424 0.310643 -2.60129e-23)
(1.16117 0.277593 1.46341e-22)
(1.15259 0.245622 -2.43796e-23)
(1.14315 0.22163 6.66073e-23)
(0.524524 0.201063 6.77245e-23)
(1.06297 0.443717 0)
(1.21641 0.48087 2.69331e-23)
(1.21919 0.448112 0)
(1.19682 0.399208 3.99741e-22)
(1.17544 0.355487 -2.61182e-22)
(1.16045 0.315495 0)
(1.14854 0.281061 -1.69486e-23)
(1.14115 0.24827 0)
(1.13217 0.223702 0)
(0.548324 0.229602 -1.04052e-21)
(1.06782 0.473652 -8.07358e-23)
(1.20445 0.500518 5.31797e-22)
(1.2016 0.460445 6.13587e-23)
(1.1795 0.407607 -4.15079e-22)
(1.15966 0.361544 -1.47799e-22)
(1.14616 0.319862 -2.03612e-23)
(1.13556 0.284087 8.63286e-23)
(1.12933 0.250541 -1.75128e-23)
(1.12101 0.225402 9.64612e-24)
(0.567959 0.258433 1.15833e-21)
(1.06757 0.502344 -6.98589e-22)
(1.18922 0.518905 -1.54362e-22)
(1.18223 0.471832 7.57771e-23)
(1.16114 0.415262 3.25834e-22)
(1.14322 0.366977 2.24879e-22)
(1.13134 0.323685 -1.73572e-23)
(1.1222 0.286634 -1.92358e-23)
(1.11718 0.252394 -2.44641e-23)
(1.10968 0.226689 8.85214e-24)
(0.583268 0.287205 9.60347e-22)
(1.06246 0.529568 6.78063e-22)
(1.17095 0.535881 -6.50036e-22)
(1.16126 0.482175 -6.88601e-23)
(1.1419 0.422099 0)
(1.12611 0.371703 0)
(1.11601 0.326906 0)
(1.10849 0.288661 -2.23135e-22)
(1.10472 0.253796 -5.44857e-23)
(1.0982 0.227529 2.56446e-23)
(0.594171 0.315557 -1.86981e-21)
(1.05274 0.555105 0)
(1.14985 0.551281 1.38903e-21)
(1.13891 0.49138 3.6729e-22)
(1.1218 0.428035 0)
(1.10832 0.37565 0)
(1.10022 0.329462 -1.12721e-22)
(1.09445 0.290125 9.31908e-23)
(1.09199 0.254711 5.44861e-23)
(1.08658 0.227889 -2.56436e-23)
(0.600671 0.343123 1.00817e-21)
(1.03871 0.578753 -8.10237e-23)
(1.12616 0.564935 -6.5575e-22)
(1.11528 0.499327 -4.02188e-22)
(1.10085 0.432988 2.89654e-23)
(1.08992 0.378748 1.49114e-22)
(1.084 0.331294 5.11637e-23)
(1.08011 0.290987 1.40656e-23)
(1.07904 0.255107 -1.41278e-24)
(1.07487 0.227741 1.92371e-23)
(0.602842 0.369536 -1.18218e-23)
(1.0207 0.600317 9.88189e-22)
(1.10015 0.576729 -8.65948e-23)
(1.09042 0.505852 2.14176e-22)
(1.07912 0.436882 1.04175e-22)
(1.07097 0.38093 -3.91501e-23)
(1.06742 0.332346 5.53544e-23)
(1.06551 0.291207 -1.90826e-23)
(1.06588 0.254948 -1.08628e-23)
(1.0631 0.227057 -1.35332e-23)
(0.600826 0.394433 0)
(0.998958 0.61956 -8.66666e-22)
(1.07211 0.586569 -7.48766e-23)
(1.06442 0.510832 -6.71706e-23)
(1.05671 0.439613 -1.06793e-22)
(1.05153 0.382131 -7.7122e-23)
(1.05052 0.332566 -4.93761e-23)
(1.05068 0.290747 0)
(1.05255 0.2542 0)
(1.0513 0.225802 0)
(0.594825 0.417494 8.43685e-23)
(0.973614 0.636147 -7.03415e-22)
(1.04235 0.594395 0)
(1.03744 0.51419 -8.11811e-23)
(1.03369 0.441091 9.63747e-24)
(1.03167 0.382293 0)
(1.03335 0.33191 4.39606e-23)
(1.03567 0.289575 1.01299e-22)
(1.03909 0.252827 -2.11057e-23)
(1.03952 0.223932 1.77274e-23)
(0.585063 0.438499 -6.19714e-23)
(0.944907 0.649793 7.54288e-22)
(1.01113 0.600057 0)
(1.00963 0.515882 -1.08198e-22)
(1.01015 0.441232 2.76259e-24)
(1.01147 0.381357 1.41715e-22)
(1.01598 0.330334 1.6816e-23)
(1.02052 0.287658 -1.15375e-22)
(1.02552 0.250795 0)
(1.02779 0.221406 -2.18249e-22)
(0.571749 0.457214 -8.59926e-22)
(0.913311 0.66038 -4.18316e-23)
(0.978628 0.603357 -9.59456e-24)
(0.981127 0.51584 7.93638e-24)
(0.986195 0.439963 1.92253e-22)
(0.991018 0.379271 -1.41717e-22)
(0.998476 0.327802 -2.07505e-22)
(1.00527 0.284965 -1.82207e-22)
(1.01188 0.248076 -3.11317e-22)
(1.01625 0.218218 1.91024e-22)
(0.555011 0.473284 9.1089e-22)
(0.879375 0.667881 0)
(0.945064 0.604168 -1.11768e-23)
(0.952081 0.513996 2.09812e-24)
(0.961925 0.437223 -4.90546e-22)
(0.970388 0.375988 0)
(0.980895 0.324284 2.07506e-22)
(0.989948 0.281459 -4.07272e-23)
(0.998288 0.244643 3.5369e-22)
(1.00517 0.214406 -3.55841e-23)
(0.535082 0.486304 0)
(0.843482 0.672145 1.16535e-22)
(0.910643 0.602425 8.64035e-24)
(0.922647 0.510281 0)
(0.937454 0.432961 2.98293e-22)
(0.949674 0.371471 0)
(0.963294 0.319753 -3.17862e-22)
(0.974611 0.277099 2.22937e-22)
(0.984906 0.240455 4.30848e-22)
(0.994871 0.210037 3.3911e-22)
(0.512437 0.496101 -2.9537e-23)
(0.805976 0.673036 -9.22906e-23)
(0.875595 0.598067 0)
(0.892983 0.504634 0)
(0.9129 0.427137 0)
(0.928967 0.365689 5.13513e-23)
(0.945735 0.314189 2.32179e-22)
(0.959347 0.271861 3.58312e-23)
(0.971927 0.235454 -4.30851e-22)
(0.98523 0.205061 -3.80791e-22)
(0.487494 0.502506 0)
(0.767205 0.670438 1.97306e-22)
(0.840159 0.591051 0)
(0.863248 0.497005 0)
(0.888384 0.419718 0)
(0.908361 0.35862 -6.02502e-23)
(0.92829 0.307579 5.26892e-22)
(0.944281 0.265748 -1.20287e-22)
(0.959435 0.229654 -4.15664e-22)
(0.975582 0.197984 -4.18808e-22)
(0.460665 0.505386 0)
(0.727528 0.664275 -1.97307e-22)
(0.804578 0.581352 4.44014e-22)
(0.833611 0.487359 0)
(0.864032 0.410686 7.25322e-22)
(0.887951 0.350249 0)
(0.91105 0.299907 -4.27341e-22)
(0.929526 0.258775 3.82218e-22)
(0.947177 0.223512 5.43941e-22)
(0.964648 0.192881 4.17502e-22)
(0.432362 0.504649 -3.76533e-22)
(0.687309 0.654497 0)
(0.769095 0.568958 -3.78609e-22)
(0.804239 0.475674 -5.41037e-23)
(0.839972 0.400029 -1.5553e-21)
(0.867836 0.340567 0)
(0.894106 0.291161 5.33771e-22)
(0.915147 0.250864 3.77688e-23)
(0.935274 0.216311 5.77655e-22)
(0.954136 0.186328 2.38125e-24)
(0.402993 0.500242 4.14027e-22)
(0.646912 0.641089 -3.07769e-23)
(0.733955 0.553878 -7.78927e-23)
(0.775305 0.461943 -6.44311e-23)
(0.816333 0.38775 8.29976e-22)
(0.848118 0.329579 -7.4303e-22)
(0.877542 0.281358 -5.33775e-22)
(0.901149 0.242114 -4.19992e-22)
(0.923565 0.208529 -6.52643e-22)
(0.943609 0.17955 6.05478e-22)
(0.372965 0.492153 -5.06067e-23)
(0.606701 0.624064 -7.852e-22)
(0.699396 0.536139 0)
(0.74698 0.446178 5.6397e-22)
(0.793244 0.373862 6.20521e-23)
(0.8289 0.317295 7.43035e-22)
(0.861447 0.270498 -7.37555e-23)
(0.887603 0.232476 -4.30439e-22)
(0.912198 0.199961 0)
(0.933383 0.172074 -5.40184e-22)
(0.342673 0.480407 5.88566e-23)
(0.567032 0.603465 8.26744e-22)
(0.665655 0.515786 0)
(0.719435 0.428404 -1.29317e-23)
(0.770835 0.358389 6.88621e-23)
(0.810285 0.303736 0)
(0.845899 0.258608 6.82945e-22)
(0.874544 0.222002 4.92174e-22)
(0.901193 0.190739 9.36059e-23)
(0.92351 0.164057 -7.86263e-23)
(0.312506 0.465066 0)
(0.528253 0.579365 1.25996e-21)
(0.632962 0.492882 -1.1151e-22)
(0.692836 0.408664 6.74718e-23)
(0.749236 0.341366 6.11317e-22)
(0.792375 0.288933 1.05628e-21)
(0.830977 0.245712 -7.7501e-22)
(0.862033 0.210701 0)
(0.890618 0.180842 0)
(0.914073 0.155459 0)
(0.282836 0.446228 2.44217e-24)
(0.4907 0.551865 -1.04533e-21)
(0.601539 0.467509 1.25089e-22)
(0.66735 0.387014 -8.74719e-22)
(0.72857 0.322843 -5.2957e-22)
(0.77527 0.272926 1.79512e-22)
(0.816756 0.231845 -7.8058e-22)
(0.850124 0.198609 5.1448e-22)
(0.880527 0.17031 5.53727e-22)
(0.905126 0.146312 -4.31079e-22)
(0.254022 0.424033 -7.38178e-22)
(0.454693 0.521087 -8.21407e-23)
(0.571601 0.439765 1.15401e-21)
(0.643133 0.363527 9.0179e-22)
(0.708961 0.302877 0)
(0.759065 0.255763 -1.00792e-21)
(0.80331 0.217047 -4.10733e-23)
(0.838874 0.18576 -6.62162e-22)
(0.870974 0.159164 -3.88265e-22)
(0.896716 0.136639 3.4301e-22)
(0.226405 0.39866 1.77062e-21)
(0.42053 0.487171 0)
(0.543353 0.409764 -2.39274e-21)
(0.620338 0.33829 -7.8928e-22)
(0.690526 0.281537 -9.33953e-23)
(0.743854 0.237502 0)
(0.79071 0.201365 8.13555e-22)
(0.828337 0.172195 -6.46216e-22)
(0.86201 0.147435 -4.8977e-22)
(0.888883 0.126469 3.7334e-22)
(0.200297 0.370331 -9.32371e-22)
(0.388487 0.450276 -8.21768e-22)
(0.516995 0.377634 1.39358e-21)
(0.59911 0.311403 -1.28082e-22)
(0.673379 0.258905 0)
(0.729722 0.218208 0)
(0.779023 0.184854 0)
(0.818566 0.157956 1.3175e-21)
(0.853684 0.135158 4.89771e-22)
(0.88166 0.115836 -3.7334e-22)
(0.175971 0.339269 -9.69554e-22)
(0.358832 0.410613 8.18686e-22)
(0.49272 0.343519 8.62e-23)
(0.579587 0.282981 0)
(0.657625 0.23507 -8.06473e-22)
(0.716754 0.197956 -5.37243e-22)
(0.768311 0.167572 -5.96102e-23)
(0.809611 0.143094 1.04258e-22)
(0.846043 0.12237 -1.30021e-22)
(0.875079 0.10478 5.18332e-23)
(0.153662 0.305677 1.10077e-21)
(0.331819 0.368435 -1.10466e-22)
(0.470701 0.307581 -9.03683e-22)
(0.561895 0.253153 2.00802e-22)
(0.64336 0.210132 6.00419e-22)
(0.705024 0.176825 7.64295e-22)
(0.758632 0.149586 -6.1715e-23)
(0.801519 0.12766 -3.36827e-22)
(0.839129 0.109115 0)
(0.869166 0.0933417 4.86459e-23)
(0.133597 0.269784 7.55079e-23)
(0.307674 0.324006 0)
(0.451093 0.270002 -2.85552e-23)
(0.546151 0.222056 0)
(0.630676 0.1842 -8.62494e-22)
(0.694601 0.154904 6.47386e-22)
(0.750041 0.130965 0)
(0.794334 0.111711 8.98668e-24)
(0.832983 0.0954401 0)
(0.863945 0.0815649 0)
(0.115986 0.231848 1.56607e-22)
(0.286599 0.277598 -1.06746e-21)
(0.43403 0.230976 8.47738e-22)
(0.532457 0.18984 -1.45602e-22)
(0.619651 0.15739 3.73399e-22)
(0.685547 0.132285 1.02295e-22)
(0.742583 0.111786 0)
(0.788095 0.0953089 -2.78082e-22)
(0.82764 0.0813939 -7.39743e-23)
(0.859436 0.0694963 -2.135e-22)
(0.101014 0.192152 6.70005e-22)
(0.268765 0.22949 -1.58325e-21)
(0.41963 0.190708 1.45804e-22)
(0.520905 0.156662 -6.08646e-22)
(0.610354 0.129824 -6.83287e-23)
(0.677918 0.109066 -6.6292e-22)
(0.736302 0.0921265 0)
(0.782838 0.0785176 3.80323e-22)
(0.823134 0.0670302 -6.77936e-23)
(0.855655 0.0571827 4.87235e-22)
(0.0888414 0.150993 -6.70005e-22)
(0.254321 0.179973 5.80828e-22)
(0.407989 0.14941 -1.00767e-22)
(0.51157 0.122687 7.13955e-22)
(0.602845 0.101632 3.91605e-22)
(0.671758 0.0853511 4.05308e-23)
(0.731232 0.0720705 -3.38411e-23)
(0.778593 0.0614054 -4.25909e-22)
(0.819493 0.0524055 3.86173e-24)
(0.852615 0.0446712 -1.61854e-22)
(0.0795974 0.108683 3.50635e-22)
(0.243383 0.12935 0)
(0.399189 0.107304 4.1393e-22)
(0.504515 0.0880854 0)
(0.597171 0.0729492 5.49602e-23)
(0.667104 0.0612461 -4.57628e-23)
(0.727404 0.0517031 0)
(0.775386 0.0440417 0)
(0.816741 0.0375775 0)
(0.850326 0.0320097 0)
(0.0733798 0.0655438 -3.07169e-22)
(0.236041 0.0779303 -1.18212e-22)
(0.393289 0.064616 -4.1393e-22)
(0.499785 0.0530326 0)
(0.593368 0.0439119 0)
(0.663986 0.0368605 2.06826e-23)
(0.724839 0.0311118 -8.24882e-23)
(0.773237 0.0264975 -9.7762e-23)
(0.814894 0.0226045 -9.10723e-23)
(0.848796 0.0192453 1.46898e-23)
(0.0702546 0.0219037 -5.56106e-24)
(0.232355 0.0260303 1.27526e-22)
(0.390329 0.0215777 -5.698e-24)
(0.497412 0.0177078 1.96585e-23)
(0.59146 0.0146611 -7.7431e-24)
(0.662423 0.0123057 0)
(0.723552 0.0103856 6.52194e-23)
(0.772159 0.00884461 9.77621e-23)
(0.813968 0.00754447 6.91956e-23)
(0.848029 0.00642152 1.03208e-23)
(0.0702546 -0.0219037 -5.56106e-24)
(0.232355 -0.0260303 1.27526e-22)
(0.390329 -0.0215777 -5.698e-24)
(0.497412 -0.0177078 1.96585e-23)
(0.59146 -0.0146611 -7.7431e-24)
(0.662423 -0.0123057 0)
(0.723552 -0.0103856 5.74547e-23)
(0.772159 -0.00884461 1.04261e-22)
(0.813968 -0.00754447 7.3583e-23)
(0.848029 -0.00642152 0)
(0.0733798 -0.0655438 -3.94102e-22)
(0.236041 -0.0779303 -1.53324e-22)
(0.393289 -0.064616 -4.38776e-22)
(0.499785 -0.0530326 2.05518e-23)
(0.593368 -0.0439119 0)
(0.663986 -0.0368605 -2.06826e-23)
(0.724839 -0.0311118 -4.79504e-23)
(0.773237 -0.0264975 -9.7762e-23)
(0.814894 -0.0226045 -5.60937e-23)
(0.848796 -0.0192453 -1.46898e-23)
(0.0795974 -0.108683 3.50635e-22)
(0.243383 -0.12935 0)
(0.399189 -0.107304 4.1393e-22)
(0.504515 -0.0880854 0)
(0.597171 -0.0729492 5.49602e-23)
(0.667104 -0.0612461 -4.57628e-23)
(0.727404 -0.0517031 0)
(0.775386 -0.0440417 0)
(0.816741 -0.0375775 0)
(0.850326 -0.0320097 0)
(0.0888414 -0.150993 -6.70005e-22)
(0.254321 -0.179973 4.53671e-22)
(0.407989 -0.14941 1.00767e-22)
(0.51157 -0.122687 4.88895e-22)
(0.602845 -0.101632 5.1198e-22)
(0.671758 -0.0853511 -4.05308e-23)
(0.731232 -0.0720705 3.38411e-23)
(0.778593 -0.0614054 -3.34739e-22)
(0.819493 -0.0524055 -3.86173e-24)
(0.852615 -0.0446712 -2.71731e-22)
(0.101014 -0.192152 6.70005e-22)
(0.268765 -0.22949 5.48754e-22)
(0.41963 -0.190708 -1.45804e-22)
(0.520905 -0.156662 -5.94203e-22)
(0.610354 -0.129824 4.97285e-23)
(0.677918 -0.109066 -6.6292e-22)
(0.736302 -0.0921265 0)
(0.782838 -0.0785176 3.80323e-22)
(0.823134 -0.0670302 6.77936e-23)
(0.855655 -0.0571827 3.73351e-22)
(0.115986 -0.231848 -1.56607e-22)
(0.286599 -0.277598 1.06746e-21)
(0.43403 -0.230976 6.63457e-22)
(0.532457 -0.18984 1.45602e-22)
(0.619651 -0.15739 4.66612e-22)
(0.685547 -0.132285 -1.49332e-22)
(0.742583 -0.111786 6.5209e-23)
(0.788095 -0.0953089 -4.54458e-22)
(0.82764 -0.0813939 7.39743e-23)
(0.859436 -0.0694963 -2.135e-22)
(0.133597 -0.269784 -7.55079e-23)
(0.307674 -0.324006 0)
(0.451093 -0.270002 -2.85552e-23)
(0.546151 -0.222056 0)
(0.630676 -0.1842 -8.62494e-22)
(0.694601 -0.154904 6.47386e-22)
(0.750041 -0.130965 0)
(0.794334 -0.111711 8.98668e-24)
(0.832983 -0.0954401 0)
(0.863945 -0.0815649 0)
(0.153662 -0.305677 1.10077e-21)
(0.331819 -0.368435 1.10466e-22)
(0.470701 -0.307581 -6.36025e-22)
(0.561895 -0.253153 -1.29971e-22)
(0.64336 -0.210132 1.01253e-21)
(0.705024 -0.176825 4.52982e-22)
(0.758632 -0.149586 6.1715e-23)
(0.801519 -0.12766 -4.20802e-22)
(0.839129 -0.109115 7.04401e-23)
(0.869166 -0.0933417 -4.86459e-23)
(0.175971 -0.339269 -1.23198e-21)
(0.358832 -0.410613 8.24854e-22)
(0.49272 -0.343519 7.72494e-23)
(0.579587 -0.282981 -1.35202e-22)
(0.657625 -0.23507 -8.06473e-22)
(0.716754 -0.197956 -6.80031e-22)
(0.768311 -0.167572 5.96102e-23)
(0.809611 -0.143094 -5.8614e-23)
(0.846043 -0.12237 1.30021e-22)
(0.875079 -0.10478 -5.18332e-23)
(0.200297 -0.370331 -9.32371e-22)
(0.388487 -0.450276 -8.21768e-22)
(0.516995 -0.377634 1.08389e-21)
(0.59911 -0.311403 1.28082e-22)
(0.673379 -0.258905 0)
(0.729722 -0.218208 0)
(0.779023 -0.184854 0)
(0.818566 -0.157956 1.3175e-21)
(0.853684 -0.135158 4.89771e-22)
(0.88166 -0.115836 -3.7334e-22)
(0.226405 -0.39866 1.77062e-21)
(0.42053 -0.487171 0)
(0.543353 -0.409764 -2.39274e-21)
(0.620338 -0.33829 -9.01794e-22)
(0.690526 -0.281537 0)
(0.743854 -0.237502 0)
(0.79071 -0.201365 8.13555e-22)
(0.828337 -0.172195 -6.46216e-22)
(0.86201 -0.147435 -4.8977e-22)
(0.888883 -0.126469 3.7334e-22)
(0.254022 -0.424033 -9.3831e-22)
(0.454693 -0.521087 8.21407e-23)
(0.571601 -0.439765 1.15401e-21)
(0.643133 -0.363527 1.0075e-21)
(0.708961 -0.302877 -8.77475e-23)
(0.759065 -0.255763 -1.00792e-21)
(0.80331 -0.217047 -4.10733e-23)
(0.838874 -0.18576 -5.17636e-22)
(0.870974 -0.159164 -5.09497e-22)
(0.896716 -0.136639 3.4301e-22)
(0.282836 -0.446228 -2.44217e-24)
(0.4907 -0.551865 -1.20391e-21)
(0.601539 -0.467509 -1.25089e-22)
(0.66735 -0.387014 -6.77749e-22)
(0.72857 -0.322843 -5.40083e-22)
(0.77527 -0.272926 -1.83117e-22)
(0.816756 -0.231845 -7.64371e-22)
(0.850124 -0.198609 6.65313e-22)
(0.880527 -0.17031 3.44032e-22)
(0.905126 -0.146312 -2.54943e-22)
(0.312506 -0.465066 0)
(0.528253 -0.579365 9.89271e-22)
(0.632962 -0.492882 1.1151e-22)
(0.692836 -0.408664 6.74718e-23)
(0.749236 -0.341366 6.11317e-22)
(0.792375 -0.288933 8.35759e-22)
(0.830977 -0.245712 -6.75789e-22)
(0.862033 -0.210701 7.1062e-23)
(0.890618 -0.180842 0)
(0.914073 -0.155459 0)
(0.342673 -0.480407 -5.88566e-23)
(0.567032 -0.603465 8.26744e-22)
(0.665655 -0.515786 0)
(0.719435 -0.428404 1.52985e-22)
(0.770835 -0.358389 -6.88621e-23)
(0.810285 -0.303736 0)
(0.845899 -0.258608 6.82945e-22)
(0.874544 -0.222002 4.92174e-22)
(0.901193 -0.190739 -9.36059e-23)
(0.92351 -0.164057 7.86263e-23)
(0.372965 -0.492153 5.06067e-23)
(0.606701 -0.624064 -8.68281e-22)