/*--------------------------------*- C++ -*----------------------------------*\
  =========                 |
  \\      /  F ield         | OpenFOAM: The Open Source CFD Toolbox
   \\    /   O peration     | Website:  https://openfoam.org
    \\  /    A nd           | Version:  9
     \\/     M anipulation  |
\*---------------------------------------------------------------------------*/
FoamFile
{
    format      ascii;
    class       volScalarField;
    location    "7.7";
    object      p;
}
// * * * * * * * * * * * * * * * * * * * * * * * * * * * * * * * * * * * * * //

dimensions      [0 2 -2 0 0 0 0];

internalField   nonuniform List<scalar> 
8500
(
-0.334343
-0.342555
-0.338508
-0.33269
-0.323177
-0.31118
-0.297792
-0.281331
-0.268001
-0.247548
-0.33522
-0.343144
-0.339024
-0.33311
-0.323545
-0.311497
-0.298091
-0.281483
-0.268325
-0.247234
-0.336966
-0.344315
-0.340048
-0.333941
-0.324273
-0.312126
-0.298702
-0.281837
-0.26891
-0.246609
-0.339561
-0.346057
-0.341568
-0.335173
-0.325348
-0.313053
-0.299621
-0.28237
-0.269746
-0.245683
-0.34298
-0.348351
-0.343566
-0.336785
-0.32675
-0.314254
-0.300666
-0.28316
-0.27085
-0.244477
-0.347189
-0.351173
-0.346019
-0.338755
-0.328455
-0.315721
-0.301953
-0.284057
-0.272193
-0.243017
-0.352147
-0.354498
-0.348898
-0.341057
-0.33043
-0.317418
-0.303459
-0.28505
-0.273737
-0.241337
-0.357811
-0.358297
-0.352176
-0.343661
-0.33265
-0.319307
-0.305137
-0.286134
-0.275439
-0.239484
-0.364132
-0.362538
-0.355822
-0.346538
-0.335086
-0.321358
-0.306951
-0.287294
-0.277248
-0.237513
-0.37107
-0.367181
-0.359806
-0.349661
-0.337708
-0.323545
-0.308865
-0.288517
-0.279103
-0.23549
-0.378599
-0.372179
-0.364096
-0.353003
-0.340491
-0.325844
-0.310847
-0.289794
-0.280939
-0.23349
-0.386593
-0.377561
-0.368664
-0.356541
-0.343411
-0.328235
-0.312869
-0.291121
-0.282681
-0.231597
-0.395058
-0.383255
-0.373487
-0.360255
-0.346451
-0.3307
-0.314901
-0.292498
-0.284251
-0.229896
-0.403952
-0.389235
-0.378543
-0.364131
-0.349596
-0.333227
-0.31692
-0.293928
-0.285565
-0.228471
-0.413229
-0.395478
-0.383815
-0.368156
-0.352836
-0.335809
-0.318906
-0.295413
-0.286542
-0.22742
-0.422846
-0.401964
-0.389286
-0.372322
-0.356167
-0.338439
-0.320842
-0.296955
-0.2871
-0.226841
-0.432768
-0.40867
-0.394944
-0.376624
-0.359583
-0.341109
-0.322713
-0.298554
-0.287132
-0.2267
-0.442956
-0.415576
-0.400776
-0.381056
-0.363079
-0.34381
-0.324513
-0.300217
-0.286486
-0.226688
-0.453374
-0.42266
-0.40677
-0.385612
-0.366651
-0.346528
-0.326244
-0.30196
-0.285092
-0.227491
-0.463981
-0.429901
-0.412911
-0.390282
-0.370285
-0.349238
-0.327899
-0.303703
-0.283337
-0.234647
-0.474733
-0.437271
-0.41918
-0.395051
-0.373961
-0.351903
-0.329436
-0.305172
-0.281952
-0.254377
-0.485582
-0.444742
-0.425555
-0.399899
-0.377651
-0.354477
-0.33079
-0.306154
-0.280393
-0.259715
-0.496472
-0.452278
-0.432005
-0.404793
-0.381313
-0.356903
-0.331892
-0.306531
-0.278586
-0.260228
-0.50734
-0.459838
-0.43849
-0.409693
-0.384896
-0.359115
-0.332673
-0.306272
-0.276539
-0.258729
-0.51811
-0.467369
-0.444961
-0.414544
-0.388334
-0.36104
-0.333051
-0.305358
-0.274118
-0.255663
-0.528699
-0.474813
-0.451356
-0.41928
-0.39155
-0.362595
-0.332945
-0.303764
-0.27121
-0.251395
-0.53901
-0.482099
-0.457602
-0.423822
-0.394451
-0.36369
-0.332269
-0.301464
-0.267741
-0.246235
-0.548935
-0.489145
-0.463613
-0.428076
-0.396939
-0.364229
-0.330941
-0.298431
-0.263653
-0.240378
-0.558354
-0.49586
-0.46929
-0.431937
-0.398901
-0.364111
-0.328883
-0.294638
-0.258908
-0.233934
-0.567136
-0.502138
-0.474521
-0.435287
-0.400221
-0.363239
-0.326021
-0.290058
-0.253476
-0.226958
-0.575138
-0.507865
-0.479181
-0.438
-0.400777
-0.361512
-0.32229
-0.284667
-0.247337
-0.219471
-0.582207
-0.512915
-0.483137
-0.439941
-0.400445
-0.358838
-0.317629
-0.278444
-0.240481
-0.211477
-0.588184
-0.517154
-0.486244
-0.44097
-0.399102
-0.355127
-0.311989
-0.271371
-0.2329
-0.202968
-0.592901
-0.520437
-0.488353
-0.440945
-0.396631
-0.350301
-0.305328
-0.263434
-0.224592
-0.193934
-0.596186
-0.522614
-0.489307
-0.439724
-0.392919
-0.344287
-0.297612
-0.254624
-0.215557
-0.184363
-0.597865
-0.523531
-0.48895
-0.437166
-0.387862
-0.337025
-0.288815
-0.244934
-0.205798
-0.174248
-0.597765
-0.52303
-0.487123
-0.43314
-0.381368
-0.328468
-0.27892
-0.234364
-0.195321
-0.163584
-0.595714
-0.520954
-0.483674
-0.427521
-0.373357
-0.318575
-0.267918
-0.222915
-0.184131
-0.152368
-0.591548
-0.517149
-0.478457
-0.420197
-0.363761
-0.307322
-0.255806
-0.210595
-0.172241
-0.140605
-0.585108
-0.511464
-0.471335
-0.411068
-0.35253
-0.294694
-0.24259
-0.197413
-0.15966
-0.1283
-0.576249
-0.503759
-0.462184
-0.400053
-0.339626
-0.280686
-0.228282
-0.183385
-0.146406
-0.115468
-0.56484
-0.493903
-0.450897
-0.387086
-0.325029
-0.265305
-0.2129
-0.168527
-0.132493
-0.102122
-0.550766
-0.481782
-0.437381
-0.37212
-0.308733
-0.24857
-0.196468
-0.152863
-0.117942
-0.0882724
-0.53393
-0.467294
-0.421569
-0.355129
-0.290747
-0.230508
-0.17902
-0.136421
-0.102778
-0.0739061
-0.514259
-0.45036
-0.403411
-0.336104
-0.271098
-0.211157
-0.160591
-0.11923
-0.0870539
-0.0589992
-0.491701
-0.430921
-0.382882
-0.31506
-0.249824
-0.190565
-0.141219
-0.101301
-0.0708395
-0.0436477
-0.466231
-0.40894
-0.359982
-0.292029
-0.22698
-0.168785
-0.12094
-0.0826689
-0.0540768
-0.028032
-0.437851
-0.384407
-0.334735
-0.267065
-0.202632
-0.145874
-0.0998153
-0.0635522
-0.0366988
-0.0120958
-0.406589
-0.357337
-0.30719
-0.24024
-0.176859
-0.121905
-0.077971
-0.0438262
-0.0188747
0.00415638
-0.372502
-0.32777
-0.277418
-0.211649
-0.149755
-0.0969944
-0.0553941
-0.023579
-0.000658444
0.020686
-0.335677
-0.295774
-0.245528
-0.181394
-0.12142
-0.0712015
-0.0321849
-0.00287253
0.0179057
0.0374455
-0.296227
-0.261452
-0.211676
-0.149561
-0.0919667
-0.0446219
-0.0084241
0.0182303
0.0367677
0.0543813
-0.2543
-0.224952
-0.175995
-0.116265
-0.0615209
-0.0173603
0.0158057
0.0396611
0.0558742
0.0714334
-0.21007
-0.186438
-0.138346
-0.0818986
-0.0302173
0.0104759
0.0404163
0.0613475
0.0751687
0.0885337
-0.163704
-0.146048
-0.0992287
-0.0464159
0.00180672
0.0387729
0.065315
0.0832134
0.0945908
0.105606
-0.115367
-0.103977
-0.0588821
-0.00999928
0.0344029
0.0674124
0.0904049
0.10518
0.114081
0.122569
-0.0655024
-0.0603646
-0.017439
0.0271511
0.0674185
0.0962726
0.115586
0.127169
0.133592
0.13932
-0.0142784
-0.015521
0.0248823
0.0648391
0.100697
0.125227
0.140754
0.14911
0.153087
0.155661
0.0380414
0.0302856
0.0678419
0.102865
0.134079
0.154147
0.165805
0.170934
0.172467
0.171252
0.0911452
0.0767887
0.111195
0.141023
0.167401
0.182902
0.190637
0.192552
0.191461
0.185814
0.144711
0.123706
0.154689
0.179104
0.200498
0.21136
0.215148
0.213846
0.209729
0.199746
0.19841
0.170745
0.198067
0.216901
0.233204
0.239391
0.239233
0.234702
0.227816
0.215268
0.251904
0.217606
0.241069
0.254202
0.265356
0.266864
0.262783
0.255018
0.245387
0.23091
0.30485
0.263983
0.283434
0.2908
0.296789
0.29365
0.285695
0.274721
0.262353
0.246123
0.356904
0.309573
0.324901
0.32649
0.327342
0.319622
0.307867
0.293739
0.278692
0.260758
0.407719
0.354072
0.365217
0.361068
0.356858
0.344657
0.3292
0.311997
0.294358
0.274766
0.456956
0.39718
0.40413
0.39434
0.385183
0.368634
0.349597
0.329421
0.309294
0.28809
0.504281
0.438604
0.441398
0.426116
0.412171
0.391438
0.368967
0.345939
0.323444
0.300676
0.54937
0.478061
0.476787
0.456212
0.437678
0.412957
0.387221
0.361483
0.336754
0.312478
0.591912
0.51528
0.510075
0.484458
0.461571
0.433085
0.404276
0.375988
0.34917
0.323453
0.631611
0.550002
0.541052
0.510688
0.483722
0.451723
0.420051
0.389391
0.36064
0.333562
0.668189
0.581987
0.569522
0.534752
0.504014
0.468779
0.434473
0.401633
0.371116
0.342771
0.701389
0.611011
0.595305
0.55651
0.522338
0.484165
0.447474
0.41266
0.380551
0.351045
0.730976
0.63687
0.618236
0.575836
0.538595
0.497805
0.458991
0.422422
0.388904
0.358355
0.756741
0.659384
0.63817
0.592615
0.552697
0.509629
0.468969
0.430876
0.396137
0.364673
0.778499
0.678393
0.65498
0.606751
0.564569
0.519577
0.47736
0.437982
0.402217
0.369975
0.796096
0.693764
0.668559
0.618161
0.574144
0.527597
0.484123
0.443706
0.407116
0.374242
0.809405
0.705389
0.678819
0.626778
0.581372
0.533649
0.489224
0.448024
0.41081
0.377456
0.818331
0.713185
0.685696
0.63255
0.586213
0.537701
0.492639
0.450913
0.413282
0.379606
0.82281
0.717096
0.689146
0.635445
0.58864
0.539733
0.494351
0.452362
0.414521
0.380684
0.82281
0.717096
0.689146
0.635445
0.58864
0.539733
0.494351
0.452362
0.414521
0.380684
0.818331
0.713185
0.685696
0.63255
0.586213
0.537701
0.492639
0.450913
0.413282
0.379606
0.809405
0.705389
0.678819
0.626778
0.581372
0.533649
0.489224
0.448024
0.41081
0.377456
0.796096
0.693765
0.668559
0.618161
0.574144
0.527597
0.484123
0.443706
0.407116
0.374242
0.778499
0.678393
0.65498
0.606751
0.564569
0.519577
0.47736
0.437982
0.402217
0.369975
0.756741
0.659384
0.63817
0.592615
0.552697
0.509629
0.468969
0.430876
0.396137
0.364673
0.730976
0.63687
0.618236
0.575836
0.538595
0.497805
0.458991
0.422422
0.388904
0.358355
0.701389
0.611011
0.595305
0.55651
0.522338
0.484165
0.447474
0.41266
0.380551
0.351045
0.668189
0.581987
0.569522
0.534752
0.504014
0.468779
0.434473
0.401633
0.371116
0.342771
0.631611
0.550002
0.541052
0.510688
0.483723
0.451723
0.420051
0.389391
0.36064
0.333562
0.591912
0.51528
0.510075
0.484458
0.461571
0.433085
0.404276
0.375988
0.34917
0.323453
0.54937
0.478061
0.476787
0.456213
0.437678
0.412957
0.387221
0.361483
0.336754
0.312478
0.504281
0.438604
0.441398
0.426116
0.412171
0.391438
0.368967
0.345939
0.323444
0.300676
0.456956
0.39718
0.40413
0.39434
0.385183
0.368634
0.349597
0.329421
0.309294
0.28809
0.407719
0.354072
0.365217
0.361068
0.356858
0.344657
0.3292
0.311997
0.294358
0.274766
0.356904
0.309573
0.324902
0.32649
0.327342
0.319622
0.307867
0.293739
0.278692
0.260759
0.304851
0.263983
0.283434
0.2908
0.296789
0.29365
0.285696
0.274721
0.262354
0.246123
0.251904
0.217606
0.241069
0.254202
0.265356
0.266864
0.262783
0.255018
0.245387
0.23091
0.19841
0.170745
0.198067
0.216901
0.233204
0.239391
0.239233
0.234702
0.227816
0.215268
0.144711
0.123706
0.154689
0.179105
0.200498
0.21136
0.215148
0.213846
0.209729
0.199746
0.0911453
0.0767888
0.111195
0.141023
0.167401
0.182902
0.190637
0.192552
0.191461
0.185814
0.0380414
0.0302857
0.0678419
0.102865
0.134079
0.154147
0.165805
0.170934
0.172467
0.171252
-0.0142784
-0.0155209
0.0248823
0.0648391
0.100697
0.125227
0.140754
0.14911
0.153087
0.155661
-0.0655023
-0.0603646
-0.0174389
0.0271511
0.0674185
0.0962726
0.115586
0.127169
0.133592
0.13932
-0.115367
-0.103977
-0.058882
-0.00999922
0.034403
0.0674125
0.090405
0.10518
0.114081
0.122569
-0.163704
-0.146048
-0.0992287
-0.0464158
0.00180678
0.0387729
0.065315
0.0832134
0.0945909
0.105606
-0.21007
-0.186438
-0.138346
-0.0818985
-0.0302172
0.010476
0.0404163
0.0613476
0.0751688
0.0885338
-0.2543
-0.224952
-0.175995
-0.116265
-0.0615208
-0.0173602
0.0158057
0.0396612
0.0558743
0.0714335
-0.296227
-0.261452
-0.211676
-0.149561
-0.0919666
-0.0446219
-0.00842403
0.0182304
0.0367677
0.0543814
-0.335677
-0.295774
-0.245528
-0.181394
-0.12142
-0.0712014
-0.0321848
-0.00287245
0.0179057
0.0374456
-0.372502
-0.32777
-0.277418
-0.211649
-0.149755
-0.0969943
-0.0553941
-0.0235789
-0.000658362
0.0206861
-0.406589
-0.357337
-0.30719
-0.24024
-0.176859
-0.121905
-0.0779709
-0.0438261
-0.0188746
0.00415647
-0.437851
-0.384407
-0.334735
-0.267065
-0.202631
-0.145874
-0.0998152
-0.0635522
-0.0366987
-0.0120957
-0.466231
-0.40894
-0.359982
-0.292029
-0.22698
-0.168785
-0.12094
-0.0826688
-0.0540767
-0.0280319
-0.491701
-0.43092
-0.382882
-0.31506
-0.249824
-0.190565
-0.141219
-0.101301
-0.0708395
-0.0436476
-0.514259
-0.45036
-0.40341
-0.336104
-0.271098
-0.211157
-0.160591
-0.11923
-0.0870538
-0.0589991
-0.53393
-0.467294
-0.421569
-0.355129
-0.290747
-0.230508
-0.17902
-0.136421
-0.102778
-0.073906
-0.550766
-0.481781
-0.437381
-0.37212
-0.308733
-0.24857
-0.196468
-0.152862
-0.117942
-0.0882723
-0.56484
-0.493903
-0.450897
-0.387086
-0.325029
-0.265305
-0.2129
-0.168527
-0.132493
-0.102122
-0.576249
-0.503759
-0.462184
-0.400053
-0.339626
-0.280686
-0.228282
-0.183385
-0.146406
-0.115468
-0.585108
-0.511464
-0.471335
-0.411068
-0.35253
-0.294694
-0.24259
-0.197413
-0.15966
-0.1283
-0.591548
-0.517149
-0.478457
-0.420197
-0.363761
-0.307322
-0.255806
-0.210595
-0.172241
-0.140605
-0.595714
-0.520954
-0.483674
-0.427521
-0.373357
-0.318575
-0.267917
-0.222915
-0.184131
-0.152368
-0.597765
-0.52303
-0.487123
-0.43314
-0.381368
-0.328468
-0.27892
-0.234364
-0.195321
-0.163584
-0.597865
-0.523531
-0.48895
-0.437166
-0.387862
-0.337025
-0.288814
-0.244934
-0.205798
-0.174248
-0.596186
-0.522614
-0.489307
-0.439724
-0.392919
-0.344287
-0.297612
-0.254624
-0.215557
-0.184363
-0.592901
-0.520437
-0.488353
-0.440945
-0.396631
-0.3503
-0.305328
-0.263434
-0.224592
-0.193934
-0.588184
-0.517154
-0.486244
-0.44097
-0.399102
-0.355127
-0.311989
-0.271371
-0.2329
-0.202968
-0.582207
-0.512915
-0.483137
-0.439941
-0.400445
-0.358838
-0.317629
-0.278444
-0.240481
-0.211477
-0.575138
-0.507865
-0.479181
-0.438
-0.400777
-0.361512
-0.32229
-0.284667
-0.247337
-0.219471
-0.567136
-0.502138
-0.474521
-0.435287
-0.400221
-0.363239
-0.326021
-0.290058
-0.253476
-0.226958
-0.558354
-0.49586
-0.46929
-0.431937
-0.398901
-0.364111
-0.328883
-0.294638
-0.258908
-0.233934
-0.548935
-0.489145
-0.463613
-0.428076
-0.396939
-0.364228
-0.330941
-0.298431
-0.263653
-0.240378
-0.53901
-0.482099
-0.457602
-0.423822
-0.394451
-0.36369
-0.332269
-0.301464
-0.267741
-0.246235
-0.528699
-0.474813
-0.451356
-0.41928
-0.39155
-0.362595
-0.332945
-0.303764
-0.27121
-0.251395
-0.51811
-0.467369
-0.444961
-0.414544
-0.388334
-0.36104
-0.333051
-0.305358
-0.274118
-0.255663
-0.50734
-0.459838
-0.43849
-0.409693
-0.384896
-0.359115
-0.332673
-0.306272
-0.276539
-0.258729
-0.496472
-0.452278
-0.432005
-0.404793
-0.381313
-0.356903
-0.331892
-0.306531
-0.278586
-0.260227
-0.485582
-0.444742
-0.425555
-0.399899
-0.377651
-0.354477
-0.33079
-0.306154
-0.280393
-0.259715
-0.474733
-0.437271
-0.41918
-0.395051
-0.373961
-0.351903
-0.329436
-0.305172
-0.281952
-0.254377
-0.46398
-0.4299
-0.412911
-0.390282
-0.370285
-0.349237
-0.327899
-0.303703
-0.283337
-0.234647
-0.453374
-0.42266
-0.40677
-0.385611
-0.366651
-0.346528
-0.326244
-0.30196
-0.285092
-0.227491
-0.442956
-0.415576
-0.400776
-0.381056
-0.363079
-0.34381
-0.324513
-0.300217
-0.286486
-0.226688
-0.432768
-0.40867
-0.394944
-0.376624
-0.359582
-0.341108
-0.322713
-0.298554
-0.287132
-0.2267
-0.422846
-0.401964
-0.389286
-0.372322
-0.356167
-0.338439
-0.320842
-0.296955
-0.2871
-0.226841
-0.413229
-0.395478
-0.383815
-0.368156
-0.352836
-0.335809
-0.318906
-0.295413
-0.286542
-0.22742
-0.403952
-0.389235
-0.378543
-0.364131
-0.349596
-0.333227
-0.31692
-0.293927
-0.285565
-0.228471
-0.395058
-0.383255
-0.373487
-0.360255
-0.346451
-0.3307
-0.314901
-0.292498
-0.284251
-0.229896
-0.386593
-0.377561
-0.368664
-0.356541
-0.343411
-0.328235
-0.312868
-0.291121
-0.282681
-0.231597
-0.378599
-0.372179
-0.364096
-0.353003
-0.340491
-0.325844
-0.310847
-0.289794
-0.280939
-0.23349
-0.37107
-0.367181
-0.359806
-0.349661
-0.337708
-0.323545
-0.308865
-0.288517
-0.279103
-0.23549
-0.364132
-0.362538
-0.355822
-0.346538
-0.335086
-0.321358
-0.306951
-0.287294
-0.277248
-0.237513
-0.357811
-0.358297
-0.352176
-0.343661
-0.33265
-0.319307
-0.305137
-0.286134
-0.275439
-0.239484
-0.352147
-0.354498
-0.348898
-0.341057
-0.33043
-0.317418
-0.303459
-0.28505
-0.273737
-0.241337
-0.347188
-0.351173
-0.346019
-0.338755
-0.328455
-0.315721
-0.301953
-0.284057
-0.272193
-0.243017
-0.34298
-0.348351
-0.343566
-0.336785
-0.32675
-0.314254
-0.300666
-0.28316
-0.27085
-0.244477
-0.339561
-0.346057
-0.341568
-0.335173
-0.325348
-0.313053
-0.299621
-0.28237
-0.269746
-0.245683
-0.336966
-0.344315
-0.340048
-0.333941
-0.324273
-0.312126
-0.298702
-0.281837
-0.26891
-0.246609
-0.33522
-0.343144
-0.339024
-0.33311
-0.323545
-0.311497
-0.298091
-0.281483
-0.268325
-0.247234
-0.334343
-0.342555
-0.338508
-0.33269
-0.323177
-0.31118
-0.297792
-0.281331
-0.268001
-0.247548
-0.240293
-0.233475
-0.226174
-0.218691
-0.210884
-0.202758
-0.19434
-0.185638
-0.176664
-0.167432
-0.157961
-0.148272
-0.13839
-0.128343
-0.118165
-0.10789
-0.0975626
-0.0872235
-0.0769394
-0.0667367
-0.0567832
-0.0469332
-0.0378265
-0.0283814
-0.0212612
-0.0114388
-0.00921104
0.00452213
-0.00591464
0.0227451
-0.240803
-0.233862
-0.226473
-0.218965
-0.211137
-0.202994
-0.194564
-0.185853
-0.176871
-0.167633
-0.158157
-0.148463
-0.138577
-0.128527
-0.118345
-0.108068
-0.0977376
-0.0873954
-0.077108
-0.0669012
-0.0569429
-0.0470871
-0.037973
-0.0285213
-0.0213878
-0.0115646
-0.00930533
0.00440091
-0.00594523
0.0225912
-0.241815
-0.234629
-0.227066
-0.219508
-0.21164
-0.203462
-0.195007
-0.186277
-0.17728
-0.16803
-0.158543
-0.14884
-0.138946
-0.128889
-0.118701
-0.108419
-0.098083
-0.087735
-0.077441
-0.0672262
-0.0572585
-0.0473912
-0.0382626
-0.0287981
-0.0216383
-0.0118136
-0.00949192
0.00416085
-0.00600553
0.0222859
-0.243309
-0.235767
-0.227947
-0.220313
-0.212383
-0.204153
-0.19566
-0.186902
-0.177881
-0.168612
-0.159109
-0.149392
-0.139487
-0.12942
-0.119224
-0.108934
-0.0985901
-0.0882337
-0.0779302
-0.0677038
-0.0577224
-0.0478386
-0.0386888
-0.0292056
-0.0220072
-0.0121805
-0.00976692
0.00380664
-0.00609384
0.0218343
-0.245249
-0.237264
-0.229102
-0.221367
-0.213355
-0.205053
-0.19651
-0.187712
-0.17866
-0.169365
-0.159841
-0.150107
-0.140187
-0.130108
-0.119901
-0.1096
-0.0992465
-0.0888793
-0.078564
-0.0683228
-0.0583241
-0.0484191
-0.0392421
-0.0297351
-0.0224868
-0.012658
-0.0101248
0.003345
-0.00620774
0.0212438
-0.247585
-0.239101
-0.230516
-0.222652
-0.214539
-0.206147
-0.197537
-0.18869
-0.179599
-0.170272
-0.160721
-0.150966
-0.141028
-0.130934
-0.120714
-0.110401
-0.100036
-0.0896568
-0.0793276
-0.0690691
-0.05905
-0.0491202
-0.0399108
-0.0303757
-0.0230674
-0.0132367
-0.0105583
0.00278442
-0.0063442
0.020524
-0.250247
-0.241246
-0.232162
-0.224146
-0.215912
-0.20741
-0.198721
-0.189813
-0.180674
-0.171309
-0.161728
-0.151948
-0.141989
-0.131879
-0.121645
-0.111319
-0.100942
-0.0905487
-0.0802041
-0.0699266
-0.0598847
-0.0499271
-0.0406812
-0.0311148
-0.0237376
-0.0139058
-0.0110595
0.00213478
-0.00649976
0.0196862
-0.253173
-0.243655
-0.234009
-0.22582
-0.217448
-0.208819
-0.200035
-0.191057
-0.181861
-0.172452
-0.162837
-0.153029
-0.143049
-0.132921
-0.122672
-0.112334
-0.101943
-0.091536
-0.0811754
-0.0708777
-0.0608114
-0.0508241
-0.0415386
-0.0319385
-0.0244852
-0.0146535
-0.0116191
0.00140694
-0.00667069
0.0187433
-0.256296
-0.246276
-0.236017
-0.227638
-0.219115
-0.210341
-0.20145
-0.19239
-0.183132
-0.173674
-0.164022
-0.154186
-0.144184
-0.134038
-0.123774
-0.113423
-0.10302
-0.0925991
-0.0822223
-0.0719041
-0.0618128
-0.0517948
-0.0424673
-0.0328324
-0.0252971
-0.0154673
-0.0122277
0.000612373
-0.00685319
0.0177094
-0.259484
-0.249034
-0.238135
-0.229558
-0.220873
-0.211941
-0.202932
-0.193783
-0.184457
-0.174948
-0.165257
-0.155392
-0.145368
-0.135206
-0.12493
-0.114567
-0.104152
-0.0937182
-0.0833261
-0.0729878
-0.0628715
-0.0528227
-0.043452
-0.0337821
-0.0261604
-0.0163348
-0.0128756
-0.000237282
-0.00704354
0.0165993
-0.262607
-0.251841
-0.240304
-0.231526
-0.222676
-0.213578
-0.204444
-0.195202
-0.185804
-0.176243
-0.166514
-0.156623
-0.14658
-0.136404
-0.126117
-0.115744
-0.10532
-0.0948746
-0.0844685
-0.0741113
-0.0639707
-0.0538919
-0.0444778
-0.0347736
-0.0270623
-0.0172436
-0.0135535
-0.00113053
-0.00723828
0.0154283
-0.265535
-0.254588
-0.242451
-0.233483
-0.224471
-0.215208
-0.205946
-0.19661
-0.187143
-0.177531
-0.167768
-0.157854
-0.147796
-0.137609
-0.127315
-0.116936
-0.106505
-0.0960507
-0.0856326
-0.0752583
-0.065095
-0.0549877
-0.0455306
-0.0357937
-0.027991
-0.0181822
-0.0142522
-0.00205634
-0.0074343
0.0142116
-0.268128
-0.257153
-0.244493
-0.23536
-0.226197
-0.216778
-0.207397
-0.197971
-0.18844
-0.178785
-0.168994
-0.159062
-0.148994
-0.138803
-0.128506
-0.118125
-0.107691
-0.0972306
-0.0868033
-0.0764143
-0.0662303
-0.0560967
-0.0465978
-0.0368304
-0.0289354
-0.0191399
-0.0149636
-0.00300439
-0.00762899
0.0129641
-0.27025
-0.259398
-0.246335
-0.237077
-0.227787
-0.218236
-0.208751
-0.19925
-0.189665
-0.179977
-0.170167
-0.160227
-0.150157
-0.139968
-0.129674
-0.119296
-0.108863
-0.0984006
-0.0879674
-0.0775667
-0.0673646
-0.0572073
-0.0476683
-0.0378732
-0.0298859
-0.0201072
-0.0156801
-0.00396521
-0.00782023
0.0117001
-0.27177
-0.261172
-0.247871
-0.238548
-0.229168
-0.219526
-0.209967
-0.200411
-0.190792
-0.181085
-0.171269
-0.16133
-0.151269
-0.141089
-0.130805
-0.120436
-0.110009
-0.0995488
-0.0891133
-0.0787043
-0.0684869
-0.0583091
-0.048732
-0.0389124
-0.0308336
-0.0210754
-0.0163951
-0.00493016
-0.00800648
0.0104328
-0.272601
-0.26234
-0.249003
-0.239682
-0.230263
-0.220586
-0.210995
-0.201416
-0.191788
-0.182082
-0.172276
-0.162353
-0.15231
-0.14215
-0.131885
-0.121532
-0.111117
-0.100664
-0.0902303
-0.079817
-0.0695877
-0.0593929
-0.0497804
-0.03994
-0.0317709
-0.022037
-0.0171029
-0.00589161
-0.00818675
0.00917468
-0.27268
-0.262758
-0.24961
-0.240356
-0.23097
-0.221341
-0.211782
-0.202226
-0.192624
-0.182948
-0.173173
-0.163284
-0.153275
-0.143146
-0.132909
-0.122579
-0.112183
-0.101742
-0.0913158
-0.0809023
-0.0706646
-0.0604563
-0.0508108
-0.0409529
-0.0326948
-0.0229885
-0.0178007
-0.00684461
-0.00836087
0.00793571
-0.271469
-0.261989
-0.249541
-0.240532
-0.23131
-0.221845
-0.21239
-0.202906
-0.193363
-0.18374
-0.174013
-0.164169
-0.154202
-0.144111
-0.133907
-0.123605
-0.113231
-0.102806
-0.0923877
-0.0819753
-0.0717299
-0.0615092
-0.051831
-0.0419568
-0.0336096
-0.0239316
-0.01849
-0.00778796
-0.00852934
0.00672347
-0.270035
-0.26065
-0.249202
-0.240384
-0.231345
-0.222101
-0.21279
-0.20341
-0.193953
-0.184402
-0.174741
-0.164956
-0.155042
-0.144999
-0.134837
-0.124569
-0.114223
-0.103818
-0.0934124
-0.0830048
-0.0727551
-0.0625252
-0.0528174
-0.0429303
-0.0344974
-0.0248508
-0.0191599
-0.00871078
-0.00869152
0.00555004
-0.269983
-0.25684
-0.246114
-0.237496
-0.228989
-0.220369
-0.211546
-0.202546
-0.193392
-0.184086
-0.174628
-0.165014
-0.155246
-0.145329
-0.135275
-0.1251
-0.11483
-0.104488
-0.0941338
-0.0837657
-0.0735424
-0.0633336
-0.0536214
-0.0437506
-0.0352532
-0.0256655
-0.0197502
-0.00956118
-0.00884487
0.00444769
-0.238151
-0.247948
-0.24483
-0.236785
-0.228543
-0.220104
-0.211374
-0.202445
-0.193356
-0.184111
-0.174711
-0.165156
-0.155447
-0.145588
-0.135591
-0.125471
-0.115255
-0.104961
-0.0946489
-0.0843188
-0.0741207
-0.0639409
-0.0542249
-0.0443891
-0.0358287
-0.0263251
-0.0202081
-0.0102656
-0.00898241
0.00350581
-0.234449
-0.239741
-0.238054
-0.231191
-0.223909
-0.216241
-0.20811
-0.19967
-0.190993
-0.182102
-0.173012
-0.163733
-0.154273
-0.14464
-0.134849
-0.124918
-0.114873
-0.104737
-0.0945658
-0.0843647
-0.0742763
-0.064202
-0.0545551
-0.044813
-0.0362493
-0.0268688
-0.020584
-0.0109252
-0.00905538
0.00260909
-0.228497
-0.232002
-0.230821
-0.224882
-0.218369
-0.211397
-0.203871
-0.195953
-0.187733
-0.179248
-0.170522
-0.161574
-0.152416
-0.143063
-0.133531
-0.12384
-0.114018
-0.104088
-0.094107
-0.0840831
-0.0741507
-0.0642281
-0.0546926
-0.0450876
-0.0365546
-0.0273373
-0.0209001
-0.0115699
-0.00908905
0.00169627
-0.223144
-0.224878
-0.223739
-0.218582
-0.212725
-0.206374
-0.199424
-0.19202
-0.184261
-0.176191
-0.167842
-0.159237
-0.150397
-0.141337
-0.132077
-0.122639
-0.113052
-0.103342
-0.0935617
-0.0837263
-0.07396
-0.0641994
-0.0547836
-0.0453252
-0.0368289
-0.0277841
-0.0211967
-0.0122048
-0.00911058
0.000782869
-0.217696
-0.217852
-0.216517
-0.212041
-0.2068
-0.201044
-0.19467
-0.187796
-0.180519
-0.17289
-0.164943
-0.156708
-0.148207
-0.139461
-0.130494
-0.121326
-0.111991
-0.102514
-0.0929477
-0.083312
-0.0737217
-0.0641318
-0.054843
-0.0455377
-0.0370828
-0.0282152
-0.0214803
-0.0128292
-0.00912547
-0.000122311
-0.211448
-0.210672
-0.20906
-0.205168
-0.20052
-0.195338
-0.189539
-0.18321
-0.176439
-0.169276
-0.16176
-0.153922
-0.145788
-0.137383
-0.128731
-0.119857
-0.110793
-0.101568
-0.0922331
-0.0828126
-0.0734123
-0.0640053
-0.0548545
-0.0457113
-0.0373066
-0.0286217
-0.0217464
-0.013437
-0.00913448
-0.00100917
-0.204348
-0.203221
-0.20137
-0.197983
-0.193909
-0.189284
-0.184052
-0.178274
-0.172024
-0.165349
-0.158287
-0.150871
-0.14313
-0.13509
-0.126777
-0.118218
-0.109446
-0.100492
-0.0914067
-0.0822176
-0.0730221
-0.0638111
-0.0548107
-0.0458392
-0.0374948
-0.0289978
-0.0219923
-0.0140221
-0.00914014
-0.00186625
-0.196502
-0.195431
-0.193445
-0.190515
-0.187
-0.18292
-0.178244
-0.173018
-0.167298
-0.161125
-0.154537
-0.147564
-0.140237
-0.132584
-0.124632
-0.11641
-0.10795
-0.0992862
-0.0904668
-0.0815251
-0.0725492
-0.0635471
-0.0547093
-0.0459186
-0.0376455
-0.02934
-0.0222173
-0.0145788
-0.00914606
-0.00268186
-0.188027
-0.187279
-0.185293
-0.182794
-0.179822
-0.176281
-0.17215
-0.167471
-0.162286
-0.156626
-0.150524
-0.144012
-0.137119
-0.129872
-0.122301
-0.114434
-0.106306
-0.0979494
-0.0894132
-0.0807343
-0.0719925
-0.0632117
-0.0545488
-0.0459473
-0.037757
-0.0296449
-0.0224208
-0.0151017
-0.00915579
-0.00344484
-0.179062
-0.178788
-0.176939
-0.174859
-0.172417
-0.169403
-0.165808
-0.16167
-0.157018
-0.151875
-0.146271
-0.140232
-0.133787
-0.126963
-0.11979
-0.112296
-0.104515
-0.0964836
-0.0882466
-0.0798452
-0.0713516
-0.062804
-0.0543283
-0.0459236
-0.0378284
-0.0299099
-0.0226028
-0.0155858
-0.00917209
-0.00414551
-0.169756
-0.170022
-0.168424
-0.166761
-0.164829
-0.162335
-0.159263
-0.155655
-0.15153
-0.146905
-0.141801
-0.136243
-0.130257
-0.12387
-0.117108
-0.110003
-0.102586
-0.0948932
-0.08697
-0.0788598
-0.0706277
-0.0623243
-0.0540478
-0.0458468
-0.037859
-0.0301328
-0.0227632
-0.0160271
-0.00919718
-0.00477551
-0.160258
-0.161065
-0.159805
-0.158559
-0.157116
-0.155125
-0.152562
-0.14947
-0.145863
-0.14175
-0.137146
-0.132073
-0.126553
-0.12061
-0.114272
-0.107566
-0.100525
-0.093185
-0.0855886
-0.077782
-0.0698235
-0.0617744
-0.0537082
-0.0457169
-0.037849
-0.0303125
-0.0229023
-0.0164223
-0.00923277
-0.00532823
-0.15071
-0.152018
-0.151152
-0.150317
-0.149335
-0.147828
-0.145756
-0.143164
-0.140061
-0.13645
-0.132341
-0.127751
-0.122699
-0.117206
-0.111298
-0.105001
-0.0983458
-0.0913686
-0.0841099
-0.0766172
-0.068943
-0.0611572
-0.0533117
-0.0455349
-0.0377992
-0.0304483
-0.0230205
-0.0167692
-0.0092799
-0.00579919
-0.141239
-0.142983
-0.142535
-0.1421
-0.141549
-0.1405
-0.138899
-0.136786
-0.134169
-0.131047
-0.127423
-0.12331
-0.118723
-0.113682
-0.108207
-0.102324
-0.096062
-0.0894555
-0.0825431
-0.0753729
-0.067992
-0.0604767
-0.0528611
-0.0453027
-0.0377109
-0.0305405
-0.0231185
-0.0170665
-0.00933872
-0.00618639
-0.131959
-0.134059
-0.134028
-0.133974
-0.133821
-0.1332
-0.132043
-0.130385
-0.128235
-0.125583
-0.122431
-0.118785
-0.114658
-0.110064
-0.105022
-0.0995553
-0.0936901
-0.0874593
-0.0808992
-0.0740577
-0.0669771
-0.0597381
-0.0523601
-0.0450229
-0.0375857
-0.0305899
-0.0231968
-0.0173141
-0.00940854
-0.00649035
-0.12296
-0.125335
-0.125702
-0.126003
-0.126212
-0.125984
-0.125243
-0.124015
-0.122305
-0.120103
-0.117405
-0.114213
-0.110535
-0.106382
-0.101769
-0.0967163
-0.0912481
-0.085395
-0.0791905
-0.0726815
-0.0659062
-0.0589475
-0.0518133
-0.0446987
-0.0374257
-0.0305982
-0.0232559
-0.0175129
-0.0094878
-0.00671404
-0.114318
-0.11689
-0.11762
-0.118246
-0.118778
-0.118908
-0.11855
-0.117722
-0.116426
-0.114651
-0.112386
-0.109631
-0.106388
-0.102665
-0.0984732
-0.0938298
-0.0887558
-0.0832792
-0.0774307
-0.0712556
-0.0647881
-0.0581116
-0.0512256
-0.044334
-0.0372334
-0.0305674
-0.023296
-0.0176647
-0.00957424
-0.00686272
-0.106085
-0.108788
-0.10984
-0.110756
-0.111575
-0.112024
-0.112014
-0.111555
-0.110645
-0.109269
-0.107415
-0.105076
-0.102251
-0.0989441
-0.0951627
-0.0909201
-0.0862341
-0.0811297
-0.0756348
-0.0697921
-0.0636326
-0.0572383
-0.0506028
-0.0439333
-0.0370115
-0.0305002
-0.0233176
-0.0177725
-0.00966505
-0.00694357
-0.0983037
-0.101082
-0.102409
-0.103581
-0.10465
-0.105381
-0.105685
-0.105561
-0.105006
-0.104002
-0.102533
-0.100587
-0.0981602
-0.0952521
-0.0918665
-0.0880128
-0.0837054
-0.0789659
-0.073819
-0.0683046
-0.0624505
-0.0563361
-0.0499513
-0.0435015
-0.036763
-0.0303998
-0.023321
-0.0178397
-0.00975713
-0.00696522
-0.0910037
-0.0938141
-0.0953726
-0.0967643
-0.0980488
-0.0990249
-0.099607
-0.0997867
-0.0995552
-0.0988929
-0.09778
-0.0962025
-0.0941513
-0.0916221
-0.0886148
-0.085135
-0.0811935
-0.0768083
-0.0720009
-0.0668077
-0.0612538
-0.0554147
-0.0492784
-0.0430446
-0.0364915
-0.0302698
-0.0233065
-0.0178706
-0.00984731
-0.00693728
-0.0842088
-0.0870178
-0.0887668
-0.0903455
-0.091813
-0.0930003
-0.0938262
-0.0942755
-0.0943355
-0.093984
-0.0931992
-0.0919627
-0.090262
-0.0880889
-0.0854395
-0.0823156
-0.0787241
-0.0746795
-0.0701998
-0.0653178
-0.0600559
-0.0544849
-0.0485924
-0.0425692
-0.0362012
-0.0301145
-0.023275
-0.0178697
-0.00993265
-0.00686977
-0.0779397
-0.0807232
-0.0826263
-0.0843614
-0.0859824
-0.0873488
-0.0883856
-0.0890722
-0.0893916
-0.0893193
-0.0888326
-0.0879085
-0.0865312
-0.0846891
-0.0823745
-0.0795853
-0.0763249
-0.0726039
-0.068437
-0.063853
-0.0588718
-0.0535591
-0.047903
-0.042083
-0.0358972
-0.0299389
-0.0232279
-0.0178421
-0.0100107
-0.00677264
-0.0722167
-0.074958
-0.0769835
-0.0788477
-0.0805955
-0.0821118
-0.0833286
-0.084221
-0.0847688
-0.0849462
-0.0847247
-0.0840826
-0.083
-0.0814613
-0.0794558
-0.0769774
-0.0740259
-0.0706082
-0.0667358
-0.0624334
-0.0577185
-0.0526514
-0.0472212
-0.041595
-0.0355857
-0.0297487
-0.0231671
-0.017793
-0.0100796
-0.00665533
-0.0670616
-0.0697501
-0.0718711
-0.0738401
-0.0756911
-0.077331
-0.0786989
-0.0797671
-0.0805122
-0.0809062
-0.0809206
-0.0805298
-0.0797115
-0.078447
-0.0767221
-0.0745277
-0.0718598
-0.068722
-0.0651222
-0.0610816
-0.0566152
-0.0517778
-0.0465597
-0.0411156
-0.035274
-0.0295502
-0.0230955
-0.0177279
-0.0101386
-0.00652645
-0.0624994
-0.0651296
-0.0673236
-0.0693763
-0.0713096
-0.0730495
-0.0745421
-0.0757578
-0.0766706
-0.077251
-0.0774694
-0.0772981
-0.0767122
-0.0756905
-0.0742156
-0.0722753