/*--------------------------------*- C++ -*----------------------------------*\
  =========                 |
  \\      /  F ield         | OpenFOAM: The Open Source CFD Toolbox
   \\    /   O peration     | Website:  https://openfoam.org
    \\  /    A nd           | Version:  7
     \\/     M anipulation  |
\*---------------------------------------------------------------------------*/
FoamFile
{
    version     2.0;
    format      ascii;
    class       volScalarField;
    location    "3.3";
    object      p;
}
// * * * * * * * * * * * * * * * * * * * * * * * * * * * * * * * * * * * * * //

dimensions      [1 -1 -2 0 0 0 0];

internalField   nonuniform List<scalar> 
6300
(
1
1
1
1
1
1
1
1
1
1
1
1
1
1
1
6.4342
10.5384
10.6729
10.8296
10.9869
11.1364
11.2783
11.4123
11.5386
11.6563
11.7633
11.8579
11.9341
11.9917
12.0326
1
1
1
1
1
1
1
1
1
1
1
1
1
1
1
6.29141
10.4973
10.6569
10.8124
10.9703
11.1186
11.2587
11.3905
11.514
11.6283
11.7315
11.8223
11.895
11.9495
11.9889
1
1
1
1
1
1
1
1
1
1
1
1
1
1
1
6.00097
10.451
10.6249
10.7785
10.9373
11.0849
11.2241
11.3546
11.4762
11.588
11.6876
11.7739
11.8417
11.8907
11.9266
1
1
1
1
1
1
1
1
1
1
1
1
1
1
1
5.57727
10.3722
10.5815
10.7315
10.89
11.0342
11.1696
11.2957
11.4128
11.5199
11.6149
11.6963
11.7594
11.8033
11.8368
1
1
1
1
1
1
1
1
1
1
1
1
1
1
1
5.02968
10.242
10.5267
10.6742
10.8321
10.9728
11.1037
11.2241
11.3338
11.4317
11.5163
11.5879
11.6434
11.6809
11.7139
1
1
1
1
1
1
1
1
1
1
1
1
1
1
1
4.37148
10.0315
10.4579
10.6035
10.7571
10.8912
11.014
11.1254
11.2257
11.3157
11.3936
11.4581
11.5029
11.5247
11.5412
1
1
1
1
1
1
1
1
1
1
1
1
1
1
1
3.6287
9.69774
10.387
10.5298
10.6761
10.799
10.9076
11.0044
11.0895
11.1623
11.2192
11.2577
11.2853
11.2957
11.3257
1
1
1
1
1
1
1
1
1
1
1
1
1
1
1
2.84557
9.20269
10.361
10.4727
10.6029
10.7114
10.8035
10.8804
10.9419
10.9885
11.0243
11.0452
11.0576
11.0287
10.9718
1
1
1
1
1
1
1
1
1
1
1
1
1
1
1
2.02527
8.45616
10.3279
10.3967
10.5203
10.6109
10.6837
10.7393
10.7768
10.7948
10.7917
10.7473
10.6586
10.5475
10.4709
1
1
1
1
1
1
1
1
1
1
1
1
1
1
1
1.2648
7.55399
10.4054
10.3099
10.3842
10.4642
10.5263
10.5659
10.5782
10.5595
10.5026
10.3992
10.2596
10.0865
10.0213
1
1
1
1
1
1
1
1
1
1
1
1
1
1
1
1.00976
6.33209
10.0258
10.081
10.1975
10.2743
10.3316
10.3563
10.3459
10.2928
10.188
10.0006
9.68109
8.86352
6.95115
1
1
1
1
1
1
1
1
1
1
1
1
1
1
1
0.999984
4.81548
9.658
9.95473
10.0485
10.0982
10.1321
10.1299
10.0927
10.0008
9.83561
9.55384
9.03314
8.18507
6.06571
1
1
1
1
1
1
1
1
1
1
1
1
1
1
1
0.999995
3.25812
8.98398
9.84736
9.92311
9.95303
9.95676
9.91504
9.84412
9.70941
9.48374
9.13302
8.52305
7.62404
5.66215
1
1
1
1
1
1
1
1
1
1
1
1
1
1
1
0.999999
1.8409
8.06346
9.83438
9.80167
9.80343
9.77554
9.70647
9.59853
9.42561
9.15345
8.74988
8.14138
7.17849
5.59017
1
1
1
1
1
1
1
1
1
1
1
1
1
1
1
1
1.08096
6.47296
9.60041
9.60953
9.62306
9.58148
9.49656
9.3613
9.16061
8.86496
8.42839
7.82791
6.88464
5.6573
1
1
1
1
1
1
1
1
1
1
1
1
1
1
1
1
1.00037
4.46723
9.1577
9.41653
9.42898
9.38594
9.29131
9.13608
8.91223
8.60392
8.17037
7.57803
6.7284
5.75743
1
1
1
1
1
1
1
1
1
1
1
1
1
1
1
1
0.999995
2.32308
8.32753
9.35773
9.32988
9.2599
9.13333
8.95028
8.70171
8.37924
7.95614
7.38488
6.6447
5.84578
1
1
1
1
1
1
1
1
1
1
1
1
1
1
1
1
0.999999
1.14666
6.66596
9.31721
9.19879
9.1034
8.95519
8.75975
8.50467
8.18892
7.77502
7.23829
6.59912
5.92826
1
1
1
1
1
1
1
1
1
1
1
1
1
1
1
1
1
1.00152
4.28512
8.75915
8.99189
8.92016
8.78351
8.58733
8.33037
8.01684
7.61881
7.12467
6.57447
5.98543
1
1
1
1
1
1
1
1
1
1
1
1
1
1
1
1
1
0.999988
1.88767
7.87533
9.03554
8.81512
8.63538
8.43762
8.1893
7.87086
7.49712
7.05098
6.56278
6.03271
1
1
1
1
1
1
1
1
1
1
1
1
1
1
1
1
1
0.999997
1.0651
5.94389
8.73541
8.54815
8.43697
8.26974
8.03716
7.74436
7.38817
6.98128
6.53863
6.06143
1
1
1
1
1
1
1
1
1
1
1
1
1
1
1
1
1
1
1.00018
3.10022
8.01046
8.42276
8.3555
8.19709
7.9604
7.67182
7.32634
6.93657
6.52059
6.09092
1
1
1
1
1
1
1
1
1
1
1
1
1
1
1
1
1
1
0.999999
1.29595
6.41417
8.47139
8.32214
8.11609
7.85994
7.5748
7.24968
6.891
6.5089
6.12004
1
1
1
1
1
1
1
1
1
1
1
1
1
1
1
1
1
1
1
1.00698
3.67878
7.86853
8.17189
7.98141
7.75769
7.4956
7.19412
6.86356
6.51133
6.14643
1
1
1
1
1
1
1
1
1
1
1
1
1
1
1
1
1
1
1
0.999999
1.464
6.46408
8.18705
7.9322
7.70756
7.44738
7.15141
6.83511
6.50572
6.16227
1
1
1
1
1
1
1
1
1
1
1
1
1
1
1
1
1
1
1
1
1.01715
3.82758
7.64217
7.80634
7.61986
7.37723
7.09752
6.80246
6.49533
6.1785
1
1
1
1
1
1
1
1
1
1
1
1
1
1
1
1
1
1
1
1
1.00004
1.51847
6.14938
7.82216
7.59028
7.34958
7.07702
6.79461
6.50012
6.2013
1
1
1
1
1
1
1
1
1
1
1
1
1
1
1
1
1
1
1
1
1
1.02107
3.34862
7.24383
7.52972
7.28816
7.03068
6.76734
6.49631
6.21878
1
1
1
1
1
1
1
1
1
1
1
1
1
1
1
1
1
1
1
1
1
1.00011
1.3752
5.55797
7.55475
7.26474
7.0261
6.77662
6.52125
6.25612
1
1
1
1
1
1
1
1
1
1
1
1
1
1
1
1
1
1
1
1
1
1
1.01158
2.60789
6.61523
7.22294
7.00545
6.77648
6.52988
6.27137
1
1
1
1
1
1
1
1
1
1
1
1
1
1
1
1
1
1
1
1
1
1
1.00007
1.18193
4.49501
7.17921
7.0334
6.81232
6.56318
6.30553
1
1
1
1
1
1
1
1
1
1
1
1
1
1
1
1
1
1
1
1
1
1
1
1.00338
1.875
5.87613
7.02962
6.7861
6.54609
6.30751
1
1
1
1
1
1
1
1
1
1
1
1
1
1
1
1
1
1
1
1
1
1
1
1.00002
1.05743
3.1711
6.46425
6.78617
6.58006
6.3485
1
1
1
1
1
1
1
1
1
1
1
1
1
1
1
1
1
1
1
1
1
1
1
1
1.00069
1.3265
4.58484
6.71029
6.63228
6.40417
1
1
1
1
1
1
1
1
1
1
1
1
1
1
1
1
1
1
1
1
1
1
1
1
1
1.00999
1.98105
5.536
6.59244
6.43189
1
1
1
1
1
1
1
1
1
1
1
1
1
1
1
1
1
1
1
1
1
1
1
1
1
1.00007
1.0725
2.93797
6.01382
6.46095
1
1
1
1
1
1
1
1
1
1
1
1
1
1
1
1
1
1
1
1
1
1
1
1
1
1
1.00107
1.26845
3.99793
6.19313
1
1
1
1
1
1
1
1
1
1
1
1
1
1
1
1
1
1
1
1
1
1
1
1
1
1
1
1.0079
1.68315
4.7802
1
1
1
1
1
1
1
1
1
1
1
1
1
1
1
1
1
1
1
1
1
1
1
1
1
1
1
1.00006
1.0388
2.26601
1
1
1
1
1
1
1
1
1
1
1
1
1
1
1
1
1
1
1
1
1
1
1
1
1
1
1
1
1.00049
1.12256
1
1
1
1
1
1
1
1
1
1
1
1
1
1
1
1
1
1
1
1
1
1
1
1
1
1
1
1
1
1.00253
1
1
1
1
1
1
1
1
1
1
1
1
1
1
1
1
1
1
1
1
1
1
1
1
1
1
1
1
1
1.00001
1
1
1
1
1
1
1
1
1
1
1
1
1
1
1
1
1
1
1
1
1
1
1
1
1
1
1
1
1
1
1
1
1
1
1
1
1
1
1
1
1
1
1
1
1
1
1
1
1
1
1
1
1
1
1
1
1
1
1
1
1
1
1
1
1
1
1
1
1
1
1
1
1
1
1
1
1
1
1
1
1
1
1
1
1
1
1
1
1
1
1
1
1
1
1
1
1
1
1
1
1
1
1
1
1
1
1
1
1
1
1
1
1
1
1
1
1
1
1
1
1
1
1
1
1
1
1
1
1
1
1
1
1
1
1
1
1
1
1
1
1
1
1
1
1
1
1
1
1
1
1
1
1
1
1
1
1
1
1
1
1
1
1
1
1
1
1
1
1
1
1
1
1
1
1
1
1
1
1
1
1
1
1
1
1
1
1
1
1
1
1
1
1
1
1
1
1
1
1
1
1
1
1
1
1
1
1
1
1
1
1
1
1
1
1
1
1
1
1
1
1
1
1
1
1
1
1
1
1
1
1
1
1
1
1
1
1
1
1
1
1.41344
0.375298
0.157514
0.0953112
0.111795
0.169153
0.259918
0.342744
0.447291
0.563801
0.686625
0.822929
0.961217
1.0901
1.10235
1.09945
1.09963
1.11422
1.15293
1.19493
1.24829
1.25764
1.24912
1.23676
1.24417
1.26487
1.28789
1.30821
1.30511
1.29408
1.28561
1.2921
1.31038
1.3378
1.35165
1.35006
1.34395
1.33453
1.42488
4.23558
5.91825
6.07755
6.13042
6.14477
6.14702
6.13369
6.10278
6.05435
5.99959
5.94529
5.89769
5.85524
5.80776
5.74669
5.66679
5.57339
5.47901
5.39651
5.32792
5.2658
5.19896
5.11748
5.02937
4.94952
4.88634
4.84471
4.81066
4.74639
4.65583
4.55529
4.45985
4.38708
4.33864
4.31984
4.28867
4.22954
4.16358
4.09071
4.01561
3.95472
3.90454
3.86727
3.84235
3.80668
3.7531
3.6921
3.61995
3.54638
3.48892
3.44624
3.41192
3.38441
3.34708
3.30049
3.2352
3.16402
3.11219
3.07567
3.04521
3.02018
2.98912
2.95111
2.90116
2.84653
2.8061
2.77803
2.75499
2.73877
2.72174
2.69439
2.65077
2.57988
2.51262
2.47482
2.45066
2.43193
2.41926
2.4027
2.38197
2.3193
2.55895
1.27177
0.81216
0.535483
0.410217
0.413298
0.425558
0.404615
0.401275
0.428831
0.482949
0.536722
0.618065
0.756288
0.864472
0.920429
0.966484
1.00911
1.06041
1.11252
1.17577
1.23008
1.24523
1.25465
1.25688
1.25347
1.2543
1.26221
1.28326
1.29675
1.30227
1.30821
1.31819
1.32356
1.3331
1.34174
1.34069
1.33461
1.34362
3.91476
6.09188
6.23803
6.22499
6.19495
6.14502
6.09151
6.04115
6.00249
5.97394
5.92732
5.84925
5.76593
5.69733
5.64967
5.60904
5.55875
5.48476
5.39463
5.30879
5.23973
5.18865
5.13776
5.06433
4.97415
4.88302
4.79575
4.72081
4.66933
4.62453
4.56658
4.49647
4.42487
4.36283
4.30301
4.24638
4.2054
4.1653
4.11173
4.0505
3.97919
3.90715
3.85198
3.80762
3.77212
3.73828
3.69181
3.63977
3.57676
3.50513
3.44092
3.39409
3.35495
3.32299
3.28736
3.24287
3.19339
3.13724
3.08326
3.04118
3.00715
2.97803
2.94613
2.9067
2.86324
2.82211
2.78597
2.75549
2.72862
2.70194
2.67505
2.64146
2.59378
2.54059
2.49344
2.45812
2.43168
2.40771
2.3852
2.36423
2.31642
3.42471
2.20571
1.54263
1.10102
0.797975
0.688336
0.627905
0.586453
0.527542
0.481243
0.487148
0.510296
0.549113
0.600249
0.698045
0.776455
0.837205
0.911128
0.97435
1.03485
1.11474
1.18731
1.24213
1.27969
1.28762
1.28211
1.26244
1.25508
1.26408
1.28405
1.3151
1.3359
1.34123
1.33541
1.32177
1.31933
1.32131
1.33031
1.38281
3.44634
6.42282
6.46967
6.20744
6.18848
6.18203
6.13369
6.05887
6.00142
5.97249
5.96078
5.91348
5.81304
5.70081
5.60757
5.54237
5.51014
5.48689
5.42655
5.3373
5.24832
5.17518
5.12368
5.08507
5.03568
4.95978
4.85969
4.73106
4.6161
4.54767
4.50699
4.4887
4.46156
4.40624
4.32922
4.2373
4.16839
4.12095
4.09156
4.05938
4.01149
3.95348
3.87466
3.78522
3.72267
3.68124
3.65583
3.63442
3.59779
3.54975
3.47968
3.39191
3.32101
3.27558
3.24211
3.22249
3.20108
3.16773
3.12285
3.0619
2.99904
2.95276
2.91976
2.89513
2.87004
2.84221
2.80764
2.7634
2.71732
2.6778
2.64169
2.60986
2.58568
2.5602
2.52841
2.48524
2.43719
2.39716
2.36299
2.33431
2.2936
4.00357
2.92532
2.22035
1.74228
1.36319
1.04975
0.892298
0.866859
0.827051
0.746016
0.649475
0.594775
0.589398
0.597054
0.613301
0.643148
0.690659
0.765534
0.838866
0.904455
0.982386
1.06818
1.13167
1.17384
1.22808
1.24912
1.25645
1.26185
1.27232
1.2952
1.33643
1.35152
1.34909
1.33361
1.30579
1.2949
1.30071
1.3513
1.58401
2.83879
6.13376
6.78514
6.33879
6.17479
6.13489
6.10307
6.03029
5.967
5.9143
5.87584
5.85474
5.79815
5.71474
5.60416
5.5185
5.46178
5.42912
5.39676
5.33754
5.26499
5.17595
5.09461
5.03342
4.9834
4.92909
4.86168
4.78176
4.67927
4.5739
4.5096
4.47088
4.43811
4.3894
4.3322
4.26428
4.18161
4.11071
4.06496
4.029
3.99044
3.9432
3.8847
3.81449
3.7379
3.67196
3.63067
3.59924
3.57254
3.53863
3.49206
3.4241
3.33891
3.26799
3.2286
3.20239
3.18159
3.15871
3.12846
3.08325
3.01579
2.95111
2.91226
2.88583
2.86371
2.84291
2.81754
2.78094
2.72068
2.6527
2.61028
2.58716
2.57032
2.5586
2.53814
2.50998
2.4654
2.40159
2.34193
2.30933
2.28049
4.45622
3.53233
2.77676
2.25401
1.9101
1.58256
1.25982
1.10015
1.05332
0.998228
0.91516
0.796562
0.704042
0.662653
0.650114
0.652456
0.678268
0.713429
0.733703
0.748315
0.778626
0.841059
0.927126
1.01745
1.11798
1.17489
1.20357
1.21823
1.23316
1.26074
1.30291
1.32971
1.33281
1.33032
1.31294
1.3073
1.33867
1.587
2.32413
2.83928
4.47949
6.12988
6.28632
6.2768
6.18467
6.08462
5.99587
5.92817
5.87633
5.83858
5.80282
5.76542
5.71224
5.63587
5.53018
5.44042
5.38041
5.33546
5.30041
5.25185
5.18823
5.09814
5.00221
4.93457
4.87806
4.82556
4.77295
4.71425
4.63589
4.5404
4.46392
4.41024
4.36169
4.31516
4.26756
4.20968
4.13525
4.06049
4.00505
3.95547
3.9049
3.85601
3.80939
3.75969
3.69989
3.6325
3.57766
3.53669
3.49786
3.45642
3.41033
3.36022
3.30597
3.25013
3.20497
3.17202
3.14109
3.10589
3.0629
3.01391
2.96653
2.92345
2.88769
2.86019
2.83544
2.80814
2.76986
2.71246
2.64801
2.60605
2.58288
2.56414
2.54792
2.52973
2.5055
2.46814
2.41041
2.34565
2.31307
2.2831
4.79229
4.01123
3.31751
2.71227
2.31863
2.02258
1.74644
1.4765
1.26733
1.20022
1.15665
1.07642
0.941371
0.838368
0.814864
0.778711
0.74357
0.746755
0.753759
0.747423
0.725308
0.724863
0.744739
0.796358
0.872256
0.972518
1.0699
1.14235
1.19236
1.22613
1.26461
1.29325
1.3059
1.30169
1.29807
1.33926
1.61223
2.25837
3.1068
3.17052
3.39651
4.4919
5.63053
6.07897
6.20802
6.13671
6.02117
5.91646
5.8242
5.75935
5.72692
5.71175
5.6961
5.64197
5.55861
5.44274
5.35552
5.30111
5.26533
5.23429
5.18295
5.11092
5.0083
4.91667
4.85921
4.81362
4.77551
4.72732
4.66555
4.57311
4.46137
4.38606
4.34031
4.30235
4.26541
4.21909
4.15041
4.05337
3.96734
3.91321
3.87363
3.83907
3.80515
3.76697
3.71633
3.64177
3.5622
3.50744
3.4668
3.43039
3.39816
3.36817
3.33312
3.28349
3.21997
3.1633
3.11914
3.0785
3.04029
3.00715
2.9762
2.94204
2.90311
2.86416
2.8264
2.78488
2.73792
2.69107
2.6527
2.61922
2.58534
2.55652
2.53399
2.51224
2.48386
2.44443
2.40047
2.36287
2.33482
2.29118
5.03747
4.34896
3.71571
3.1689
2.73621
2.34824
2.08111
1.86433
1.6378
1.40806
1.31053
1.2649
1.17591
1.04554
0.974563
0.936064
0.880311
0.819955
0.797132
0.786701
0.775533
0.76194
0.747596
0.742498
0.751557
0.785891
0.850583
0.942876
1.05128
1.13294
1.1712
1.20569
1.24839
1.2522
1.28912
1.59223
2.3289
2.90048
3.30697
3.30653
3.26006
3.38388
4.13939
5.30799
5.94067
6.10078
6.07191
5.96895
5.85115
5.72542
5.67109
5.65294
5.65996
5.63486
5.57138
5.47572
5.36356
5.29266
5.24794
5.21693
5.16824
5.10939
5.02989
4.93133
4.85947
4.81197
4.77019
4.717
4.65814
4.58775
4.49399
4.39794
4.33746
4.29426
4.25118
4.19858
4.13141
4.04538
3.95305
3.88953
3.85114
3.81924
3.78886
3.75436
3.71148
3.6471
3.56028
3.48774
3.44626
3.41585
3.38901
3.36648
3.33916
3.30061
3.23312
3.14913
3.08976
3.05362
3.02739
3.00486
2.98206
2.95497
2.91497
2.8586
2.8018
2.75399
2.71589
2.68841
2.66483
2.63726
2.60153
2.56093
2.52698
2.49404
2.45599
2.42039
2.39609
2.37664
2.35613
2.3073
5.23865
4.6189
4.03804
3.51864
3.09714
2.70199
2.35716
2.14159
1.95552
1.72016
1.51433
1.41985
1.36047
1.26851
1.15417
1.09285
1.04546
0.977002
0.908178
0.883221
0.872303
0.847824
0.807341
0.772263
0.766951
0.76784
0.772516
0.789704
0.830432
0.896359
0.964611
1.0421
1.11429
1.19238
1.47303
2.25427
2.86432
3.11623
3.30355
3.34211
3.30491
3.22986
3.30034
3.87565
4.99423
5.74358
5.99465
6.00844
5.91985
5.76941
5.63914
5.59786
5.57537
5.57605
5.54847
5.48585
5.39714
5.29174
5.21383
5.15807
5.11799
5.08043
5.02568
4.95438
4.86312
4.77521
4.70786
4.66275
4.62494
4.57575
4.51552
4.43507
4.33682
4.25397
4.19483
4.1487
4.10083
4.04552
3.98119
3.90553
3.83515
3.78935
3.75587
3.7266
3.69064
3.64254
3.57975
3.50697
3.45107
3.4194
3.39683
3.3722
3.3382
3.29154
3.22513
3.1491
3.08877
3.05254
3.02919
3.01239
2.99541
2.96716
2.91602
2.83683
2.76852
2.73267
2.71089
2.69201
2.67221
2.64932
2.61832
2.56854
2.50314
2.4533
2.42532
2.40744
2.39315
2.37839
2.36277
2.31873
5.38348
4.83024
4.28917
3.79953
3.40055
3.02443
2.66668
2.39873
2.18876
2.00185
1.81707
1.61589
1.50654
1.43988
1.34506
1.23943
1.18137
1.13681
1.0777
0.998514
0.942177
0.917114
0.892039
0.854251
0.823386
0.811026
0.792507
0.789075
0.790416
0.800561
0.82114
0.861442
0.920976
1.2026
1.98177
2.68124
2.88193
3.02055
3.12054
3.20964
3.22651
3.22132
3.19857
3.23283
3.65205
4.67265
5.52535
5.90954
5.9377
5.83013
5.66774
5.55974
5.50671
5.48936
5.48644
5.45985
5.40467
5.32427
5.20975
5.1131
5.05868
5.01545
4.98526
4.93675
4.86862
4.77042
4.67188
4.607
4.56149
4.52831
4.49272
4.43767
4.3561
4.24771
4.16109
4.10687
4.06658
4.0314
3.9904
3.93524
3.85975
3.78243
3.72402
3.68203
3.64827
3.61937
3.58667
3.54502
3.48809
3.4228
3.36723
3.32344
3.28593
3.24433
3.20076
3.16237
3.12655
3.08689
3.04582
3.00841
2.97024
2.92742
2.87399
2.81038
2.75824
2.73116
2.7125
2.69671
2.6782
2.65747
2.62954
2.57
2.48782
2.4364
2.41518
2.39944
2.38618
2.37818
2.36971
2.3277
5.50339
4.99435
4.49442
4.05355
3.64886
3.26378
2.9475
2.68337
2.41816
2.18991
2.04457
1.87001
1.69513
1.59864
1.5219
1.4069
1.30028
1.26207
1.22771
1.17166
1.0834
1.0031
0.985594
0.968919
0.923945
0.89362
0.87253
0.840685
0.817215
0.808796
0.813567
0.831001
1.01414
1.59738
2.27007
2.46262
2.54042
2.62871
2.74753
2.90197
3.02822
3.13088
3.15731
3.1308
3.13019
3.44802
4.36705
5.31721
5.75227
5.78236
5.69994
5.59594
5.4802
5.43133
5.39668
5.38072
5.36818
5.31861
5.24268
5.11852
5.00559
4.95235
4.91275
4.88837
4.8443
4.78001
4.67488
4.5631
4.50389
4.46211
4.43541
4.40161
4.34962
4.27589
4.17435
4.08661
4.03889
4.00362
3.97119
3.93326
3.88134
3.80219
3.71542
3.65902
3.62462
3.59752
3.57744
3.54769
3.50406
3.43655
3.35701
3.29602
3.24998
3.21477
3.19004
3.1698
3.14546
3.11303
3.0618
2.99633
2.93406
2.88094
2.83241
2.79016
2.76554
2.74231
2.71834
2.69752
2.67929
2.65344
2.60917
2.55241
2.49128
2.44821
2.42132
2.40262
2.38709
2.37048
2.35343
2.30177
5.59171
5.11573
4.66525
4.25851
3.86296
3.48572
3.18231
2.91385
2.64998
2.4114
2.23743
2.07651
1.89694
1.76006
1.68176
1.59659
1.48448
1.35879
1.31267
1.28831
1.23885
1.15864
1.07282
1.0486
1.02492
0.981447
0.951513
0.921159
0.879203
0.841555
0.847135
0.99115
1.47049
2.10139
2.22542
2.22648
2.23625
2.26245
2.337
2.43257
2.56037
2.71062
2.85863
2.96114
2.99825
3.04608
3.29295
4.0267
4.99013
5.43688
5.62201
5.61801
5.52971
5.42228
5.34075
5.30427
5.29301
5.27577
5.22716
5.14709
5.01039
4.90325
4.85328
4.82456
4.80266
4.75985
4.69354
4.57803
4.46208
4.40575
4.36559
4.33927
4.31521
4.27185
4.21236
4.12356
4.02947
3.97368
3.93848
3.90569
3.86929
3.82275
3.75589
3.67435
3.61258
3.57703
3.54562
3.51626
3.48219
3.43365
3.36441
3.28839
3.2366
3.2087
3.1885
3.17308
3.15112
3.11789
3.05772
2.97745
2.90674
2.85096
2.81077
2.79012
2.77126
2.74995
2.72698
2.70203
2.66484
2.61788
2.57271
2.52964
2.49779
2.46871
2.43768
2.41032
2.38869
2.36464
2.33091
2.27218
5.65681
5.22107
4.8169
4.42675
4.03868
3.7039
3.40011
3.1152
2.84972
2.63454
2.43147
2.25672
2.10469
1.95749
1.81371
1.72806
1.65463
1.55245
1.4269
1.36167
1.33632
1.29195
1.21287
1.13424
1.11516
1.0876
1.04994
1.01259
0.97272
0.970687
1.09515
1.56231
2.09647
2.31281
2.30267
2.28169
2.26691
2.23595
2.18443
2.17029
2.18593
2.24058
2.35808
2.51424
2.66004
2.7428
2.77977
2.95213
3.54873
4.47663
5.15786
5.47507
5.53991
5.44727
5.32187
5.26002
5.22496
5.21215
5.18481
5.13363
5.03728
4.8966
4.81343
4.77166
4.74873
4.72124
4.67612
4.6032
4.48183
4.37461
4.32227
4.28845
4.27077
4.24558
4.20641
4.15073
4.06127
3.96705
3.91007
3.87338
3.84205
3.81145
3.77472
3.71498
3.63005
3.56129
3.51629
3.4766
3.43797
3.40076
3.36073
3.31444
3.26462
3.21965
3.18555
3.15418
3.11854
3.07574
3.02209
2.95004
2.87924
2.84123
2.82186
2.80548
2.78362
2.75696
2.72296
2.67735
2.62743
2.58363
2.54591
2.52419
2.50568
2.4822
2.4517
2.41512
2.37839
2.33979
2.30344
2.25231
5.71366
5.31429
4.93891
4.55989
4.19914
3.88695
3.58849
3.29389
3.04254
2.8292
2.62946
2.4324
2.2748
2.14287
2.00145
1.8518
1.75971
1.69343
1.59561
1.48028
1.4132
1.38227
1.33517
1.2647
1.20351
1.16735
1.12749
1.09231
1.096
1.23582
1.75351
2.29877
2.47505
2.43245
2.3923
2.3691
2.34758
2.30996
2.2436
2.19049
2.1771
2.17831
2.1921
2.21628
2.25655
2.28909
2.32005
2.36112
2.49816
2.98069
3.87474
4.84417
5.30229
5.40194
5.3396
5.23039
5.17516
5.14599
5.13527
5.0934
5.02444
4.91947
4.80955
4.74794
4.71189
4.68334
4.64189
4.58775
4.50374
4.39049
4.30706
4.26348
4.23516
4.21318
4.17867
4.13794
4.07679
3.9835
3.89801
3.85248
3.82054
3.79096
3.76179
3.72364
3.65413
3.56128
3.49165
3.44583
3.40863
3.37701
3.34973
3.32219
3.28543
3.23283
3.17655
3.12814
3.0829
3.03506
2.97933
2.91696
2.87342
2.85252
2.83763
2.82023
2.79675
2.76477
2.71486
2.64564
2.58782
2.55544
2.53846
2.52781
2.51371
2.49394
2.46461
2.41472
2.35147
2.3039
2.27532
2.24562
5.76649
5.39571
5.03482
4.67713
4.35167
4.04352
3.74558
3.46451
3.23204
3.00514
2.79656
2.60328
2.44411
2.28574
2.15267
2.01566
1.89211
1.79753
1.72657
1.64088
1.52939
1.46126
1.42849
1.38241
1.32449
1.26095
1.2025
1.21586
1.38881
1.96693
2.59192
2.7095
2.64515
2.56345
2.52474
2.5099
2.48187
2.43945
2.38164
2.30372
2.24814
2.21412
2.19494
2.18444
2.18659
2.18241
2.16429
2.13492
2.1194
2.16459
2.42668
3.18346
4.16888
5.00165
5.20637
5.23488
5.15336
5.06677
5.02147
5.001
4.97892
4.92636
4.85638
4.76102
4.68249
4.63285
4.58918
4.54489
4.49513
4.42563
4.33203
4.25277
4.20676
4.16877
4.13905
4.1039
4.06101
3.99631
3.9104
3.84508
3.80806
3.77703
3.74494
3.70409
3.64368
3.56148
3.48161
3.43126
3.39892
3.37115
3.34348
3.31319
3.2748
3.21846
3.15311
3.0966
3.04679
2.99586
2.9454
2.91199
2.89029
2.86794
2.84554
2.82344
2.8008
2.76502
2.69708
2.61149
2.56207
2.54378
2.53157
2.52495
2.51389
2.49715
2.47097
2.41214
2.32658
2.27379
2.2599
2.24061
5.81131
5.46547
5.11685
4.78712
4.48134
4.17972
3.88184
3.62977
3.39214
3.16924
2.94546
2.76764
2.59923
2.44024
2.28696
2.16593
2.04997
1.92109
1.82294
1.76438
1.68312
1.58238
1.50684
1.46294
1.41264
1.35332
1.36043
1.54798
2.13646
2.8395
2.95882
2.878
2.78707
2.70966
2.67447
2.6502
2.61634
2.57191
2.52224
2.45353
2.37455
2.32541
2.28565
2.24817
2.214
2.18831
2.1638
2.13602
2.10253
2.06596
2.04953
2.11452
2.49207
3.37332
4.31581
5.00097
5.11034
5.0431
4.96774
4.92829
4.92511
4.90639
4.85774
4.78054
4.67143
4.5955
4.5481
4.50596
4.4696
4.42619
4.36006
4.26556
4.18791
4.14114
4.10142
4.06546
4.03076
3.99204
3.93823
3.86822
3.79739
3.73971
3.69117
3.64833
3.60554
3.55188
3.48955
3.43691
3.39935
3.36746
3.33404
3.29495
3.2433
3.17322
3.10229
3.05159
3.00959
2.97489
2.95209
2.9344
2.91161
2.88265
2.8503
2.8208
2.78108
2.72931
2.66783
2.60753
2.56855
2.54435
2.52939
2.52285
2.51695
2.49779
2.46353
2.39761
2.31321
2.26785
2.25496
2.23778
5.8528
5.524
5.19848
4.89172
4.59337
4.29734
4.02594
3.77845
3.53907
3.30722
3.10189
2.9203
2.74385
2.58381
2.42755
2.29904
2.17966
2.07004
1.95178
1.86638
1.79432
1.71142
1.62561
1.55332
1.49152
1.51412
1.75506
2.35287
3.02192
3.16021
3.08621
3.02212
2.96548
2.89102
2.81781
2.77072
2.72825
2.68472
2.64151
2.59465
2.53367
2.45897
2.39221
2.3439
2.30233
2.26225
2.2237
2.18353
2.13579
2.0747
2.03224
2.02068
2.01618
2.11425
2.60409
3.52444
4.44118
4.88208
4.87691
4.88953
4.87133
4.8648
4.82158
4.76456
4.66535
4.5619
4.51029
4.47115
4.44196
4.40653
4.35888
4.28034
4.18248
4.11997
4.07924
4.04175
4.00559
3.96998
3.93133
3.87079
3.78664
3.71457
3.66268
3.61575
3.56902
3.52742
3.48671
3.44091
3.39597
3.35579
3.31629
3.27238
3.21729
3.14358
3.0591
3.00411
2.98194
2.96869
2.96459
2.95505
2.93382
2.90259
2.84875
2.77293
2.71189
2.6669
2.63505
2.61696
2.59827
2.57213
2.53755
2.50031
2.4699
2.44395
2.40981
2.36392
2.3269
2.30199
2.27368
2.23094
5.89502
5.58098
5.27841
4.98785
4.69474
4.41017
4.15769
3.91021
3.66795
3.43893
3.24885
3.05787
2.88409
2.70937
2.57132
2.43278
2.30429
2.18653
2.08515
1.99166
1.89223
1.80316
1.72662
1.65531
1.70587
2.04681
2.70898
3.23305
3.38998
3.31637
3.23083
3.19084
3.14504
3.07708
2.9719
2.87514
2.82812
2.7908
2.74873
2.70579
2.65931
2.59615
2.51107
2.4404
2.39651
2.35425
2.3093
2.26356
2.21508
2.16136
2.10138
2.04049
1.99645
1.98222
1.99609
2.13939
2.7174
3.63686
4.4057
4.68898
4.80406
4.83641
4.79397
4.72892
4.64267
4.53532
4.47764
4.44193
4.4143
4.38102
4.34137
4.28129
4.18569
4.10382
4.05981
4.02226
3.98364
3.94221
3.89529
3.83936
3.76784
3.69431
3.63894
3.59456
3.55286
3.50863
3.45604
3.39674
3.34684
3.30877
3.27372
3.23821
3.1958
3.13557
3.05902
3.00336
2.97986
2.97012
2.97885
2.96921
2.94202
2.90448
2.83507
2.7381
2.66492
2.63297
2.62008
2.61456
2.60465
2.58458
2.54962
2.491
2.42983
2.38924
2.35925
2.342
2.33315
2.31913
2.29768
2.23866
5.92953
5.63848
5.35503
5.07033
4.78447
4.52373
4.27417
4.02677
3.78266
3.57744
3.37905
3.19024
3.00434
2.84595
2.70102
2.55868
2.43141
2.30589
2.20649
2.10193
1.99855
1.90653
1.83201
1.90769
2.35383
3.17955
3.62784
3.62791
3.53659
3.42575
3.36357
3.33329
3.28478
3.21668
3.12225
3.0081
2.94415
2.90523
2.86308
2.8162
2.76696
2.70947
2.63415
2.54942
2.48117
2.431
2.38737
2.34515
2.30083
2.25159
2.1922
2.12361
2.06324
2.00353
1.96944
1.95782
1.98498
2.18677
2.83822
3.69815
4.38278
4.63237
4.68986
4.68168
4.6186
4.53243
4.45958
4.41765
4.3803
4.34494
4.31003
4.26219
4.18626
4.10153
4.04266
3.99849
3.95642
3.91196
3.86277
3.80515
3.73539
3.66559
3.61598
3.57808
3.54012
3.49594
3.44172
3.3772
3.31038
3.2638
3.23112
3.19961
3.1677
3.13606
3.0988
3.04846
2.99539
2.9655
2.94234
2.91988
2.89498
2.85896
2.79862
2.71492
2.6559
2.63362
2.6231
2.6245
2.61366
2.59069
2.55256
2.48134
2.40407
2.35924
2.33993
2.33148
2.33268
2.32466
2.30542
2.24414
5.97633
5.69776
5.42541
5.14656
4.87233
4.62362
4.37958
4.13009
3.90166
3.70194
3.50274
3.3088
3.12601
2.97752
2.82193
2.68507
2.54298
2.43063
2.31679
2.19707
2.10392
2.03744
2.16501
2.66873
3.49073
4.01735
3.98096
3.84962
3.69493
3.56845
3.51388
3.477
3.42148
3.35583
3.2746
3.164
3.06649
3.00665
2.9552
2.90261
2.84866
2.79326
2.73092
2.65458
2.575
2.51217
2.46053
2.41306
2.36865
2.3256
2.27832
2.21726
2.1442
2.07721
2.02649
1.98235
1.96177
1.9419
1.98151
2.24279
2.90738
3.73525
4.25546
4.47545
4.57257
4.54756
4.46987
4.40903
4.34814
4.29857
4.25529
4.21147
4.15537
4.08741
4.02768
3.97847
3.93314
3.88627
3.83504
3.77507
3.6994
3.62285
3.58005
3.55049
3.52077
3.48567
3.43986
3.37173
3.28575
3.2246
3.19204
3.16804
3.15006
3.13354
3.11155
3.07741
3.02354
2.96004
2.90841
2.87202
2.83776
2.79969
2.75586
2.71655
2.69288
2.66479
2.63031
2.59647
2.57049
2.54665
2.51339
2.45811
2.38965
2.35635
2.34416
2.33435
2.32013
2.30194
2.28372
2.23278
6.00685
5.742
5.47417
5.20598
4.95551
4.71197
4.46676
4.22543
4.01944
3.81579
3.61635
3.41365
3.25404
3.09546
2.94353
2.79361
2.65624
2.54085
2.41128
2.30509
2.2847
2.51124
3.18838
3.82441
4.22751
4.23524
4.12244
4.02364
3.90334
3.75735
3.67033
3.60765
3.54541
3.4795
3.40714
3.31699
3.20909
3.11733
3.04869
2.99048
2.93476
2.87963
2.82177
2.75128
2.66623
2.59117
2.53517
2.4875
2.44255
2.39718
2.34889
2.29109
2.21708
2.1382
2.08074
2.03817
1.99975
1.96673
1.94906
1.91815
1.95677
2.25753
2.93518
3.61901
4.24367
4.35895
4.43275
4.41224
4.3463
4.28577
4.20533
4.13908
4.08845
4.03898
3.99406
3.94942
3.9055
3.86361
3.81983
3.7649
3.68501
3.59417
3.53674
3.50416
3.47658
3.45037
3.42177
3.37656
3.30074
3.21965
3.17254
3.1463
3.12458
3.10755
3.09771
3.07652
3.03029
2.95748
2.88231
2.82675
2.78765
2.75215
2.72678
2.71665
2.70474
2.67969
2.63774
2.5845
2.53766
2.50117
2.46667
2.43074
2.39933
2.37242
2.34004
2.3113
2.28958
2.26778
2.24564
2.20083
6.04783
5.79125
5.53034
5.27456
5.0347
4.7977
4.55425
4.33133
4.12786
3.92611
3.71935
3.53256
3.37397
3.20915
3.05733
2.89649
2.76447
2.63998
2.51804
2.57219
2.95104
3.83711
4.40699
4.54068
4.5222
4.40099
4.30444
4.21885
4.10337
3.94148
3.82725
3.74827
3.67442
3.60495
3.53307
3.44763
3.33827
3.23094
3.15303
3.08949
3.02903
2.96756
2.90245
2.82762
2.73984
2.65867
2.59978
2.55322
2.51018
2.46666
2.41886
2.36084
2.28471
2.19709
2.1377
2.10163
2.06546
2.02815
1.98532
1.94603
1.91187
1.86016
1.92173
2.25395
2.99201
3.65173
4.11406
4.28483
4.32731
4.28071
4.17929
4.08756
4.02883
3.98563
3.95326
3.91454
3.86685
3.82365
3.78544
3.7384
3.67108
3.59223
3.52725
3.47974
3.44107
3.40887
3.38048
3.35116
3.3069
3.23644
3.16999
3.1313
3.10467
3.08176
3.05589
3.0258
2.99581
2.9452
2.86738
2.80097
2.76091
2.73769
2.7228
2.70963
2.69033
2.66764
2.62804
2.56384
2.50499
2.46542
2.43343
2.41114
2.39627
2.37319
2.33385
2.2894
2.25888
2.23567
2.21407
2.17817
6.06474
5.81752
5.57153
5.33789
5.10486
4.86665
4.63359
4.4304
4.22612
4.02151
3.81308
3.64828
3.47839
3.31677
3.14954
2.98992
2.87333
2.7659
2.88722
3.43228
4.33582
4.94584
4.90255
4.78108
4.65403
4.56487
4.48824
4.39302
4.26723
4.11505
3.97645
3.89067
3.8163
3.74004
3.65962
3.56767
3.45696
3.34366
3.25832
3.19132
3.12799
3.06196
2.98871
2.90276
2.80605
2.72476
2.66949
2.62419
2.58017
2.53464
2.4849
2.42438
2.34237
2.24504
2.17945
2.14154
2.11054
2.0798
2.04573
2.00642
1.95498
1.88764
1.82441
1.80795
1.90786
2.32799
2.98291
3.65059
4.04679
4.15422
4.13736
4.06551
4.00326
3.96263
3.92473
3.8826
3.8319
3.78197
3.73657
3.68356
3.62375
3.57099
3.52794
3.48529
3.43752
3.38677
3.34387
3.3125
3.28136
3.23139
3.17186
3.12575
3.09003
3.05499
3.01887
2.98382
2.94747
2.90743
2.85324
2.79677
2.76309
2.7412
2.71986
2.69617
2.66926
2.63648
2.59437
2.53722
2.48085
2.44215
2.41835
2.40282
2.38523
2.35982
2.3191
2.26863
2.23398
2.21066
2.19422
2.17183
6.1158
5.8771
5.64035
5.41048
5.18052
4.94536
4.72847
4.52197
4.31793
4.10682
3.92285
3.75626
3.57929
3.40975
3.23092
3.10617
3.07254
3.33608
4.11878
4.8339
5.29068
5.39459
5.24751
5.03719
4.83614
4.71214
4.63125
4.53572
4.42264
4.29451
4.16083
4.05346
3.96711
3.88116
3.79004
3.68749
3.56756
3.44772
3.35637
3.28478
3.21883
3.15197
3.07916
2.99256
2.88519
2.78546
2.72339
2.67633
2.63231
2.5886
2.5422
2.48711
2.41579
2.32468
2.24009
2.18248
2.13842
2.10492
2.07517
2.0432
2.00601
1.95342
1.88543
1.80719
1.7729
1.78649
1.90614
2.35226
2.98756
3.62378
3.90965
3.926
3.94681
3.94356
3.91138
3.87013
3.82099
3.75502
3.6808
3.6143
3.56249
3.52974
3.50468
3.47803
3.4443
3.39819
3.34012
3.27688
3.2219
3.18267
3.14423
3.10366
3.06888
3.03592
3.00032
2.95798
2.90981
2.86065
2.82054
2.79151
2.76902
2.74589
2.71795
2.68581
2.6498
2.60643
2.55199
2.49837
2.45582
2.42866
2.41076
2.39252
2.37138
2.34522
2.30737
2.2549
2.21562
2.19792
2.18982
2.17861
6.16922
5.93097
5.70082
5.47289
5.24005
5.01277
4.80832
4.60254
4.39883
4.19126
4.02247
3.84227
3.66474
3.49513
3.34239
3.43996
3.9201
4.96064
5.59367
5.58562
5.54991
5.48932
5.38767
5.24255
5.05619
4.88344
4.77481
4.68213
4.58191
4.46456
4.32446
4.19314
4.09589
4.00465
3.91053
3.80983
3.69279
3.56075
3.44905
3.36775
3.29814
3.23113
3.16131
3.08204
2.98585
2.87833
2.79056
2.72752
2.67369
2.62377
2.57632
2.52745
2.4718
2.40249
2.32345
2.25045
2.1918
2.14386
2.10007
2.05741
2.01552
1.97438
1.92841
1.86701
1.81255
1.77069
1.74345
1.76471
1.91505
2.34455
2.96855
3.47092
3.73525
3.83636
3.89224
3.88278
3.82717
3.75053
3.65305
3.55115
3.50385
3.48375
3.46572
3.44558
3.42254
3.39519
3.35071
3.27495
3.18761
3.11812
3.07479
3.04751
3.02501
3.00375
2.98056
2.95211
2.91434
2.85911
2.7958
2.76544
2.75085
2.73194
2.70773
2.67929
2.64171
2.5879
2.52069
2.4573
2.42616
2.41132
2.39629
2.37854
2.35757
2.33191
2.29758
2.25094
2.21105
2.19564
2.18944
2.17011
6.19449
5.96922
5.74508
5.51743
5.28963
5.08623
4.88442
4.67925
4.47288
4.28211
4.11243
3.92384
3.76231
3.65084
3.89717
4.69105
5.58974
6.31146
6.31351
6.03208
5.70225
5.52324
5.46987
5.40852
5.26966
5.08572
4.94313
4.83544
4.73381
4.61771
4.47935
4.33547
4.21831
4.11884
4.02243
3.92177
3.80958
3.68409
3.56215
3.4623
3.38053
3.30692
3.23458
3.15758
3.07162
2.97528
2.87925
2.79745
2.72804
2.66359
2.60166
2.54385
2.49267
2.44209
2.38272
2.31562
2.25235
2.19671
2.14553
2.09546
2.0456
1.99805
1.95266
1.90429
1.85681
1.80994
1.77231
1.74236
1.71015
1.72808
1.89759
2.32042
2.92013
3.34257
3.66041
3.75884
3.7729
3.74458
3.65193
3.55391
3.48863
3.44934
3.42794
3.41451
3.40408
3.38206
3.34047
3.2718
3.17414
3.07742
3.02544
3.00094
2.98126
2.96309
2.94676
2.9322
2.91506
2.88044
2.80797