/*--------------------------------*- C++ -*----------------------------------*\
  =========                 |
  \\      /  F ield         | OpenFOAM: The Open Source CFD Toolbox
   \\    /   O peration     | Website:  https://openfoam.org
    \\  /    A nd           | Version:  7
     \\/     M anipulation  |
\*---------------------------------------------------------------------------*/
FoamFile
{
    version     2.0;
    format      ascii;
    class       volVectorField;
    location    "3.3";
    object      U;
}
// * * * * * * * * * * * * * * * * * * * * * * * * * * * * * * * * * * * * * //

dimensions      [0 1 -1 0 0 0 0];

internalField   nonuniform List<vector> 
6300
(
(3 -1.5584e-19 0)
(3 -5.13249e-17 0)
(3 -4.20138e-17 0)
(3 -2.37384e-17 0)
(3 1.68905e-17 0)
(3 3.50195e-16 0)
(3 1.29054e-15 0)
(3 1.24332e-15 0)
(3 9.98228e-16 0)
(3 6.70792e-16 0)
(3 9.02153e-16 0)
(3 4.96178e-16 0)
(3 1.0757e-15 0)
(3 2.23211e-15 0)
(3 1.16232e-15 0)
(1.1221 0.0130939 0)
(0.731993 0.0128636 0)
(0.689042 0.0172044 0)
(0.644548 0.0188299 0)
(0.598965 0.0199345 0)
(0.552591 0.0209245 0)
(0.505113 0.0219303 0)
(0.456239 0.0230074 0)
(0.405598 0.0241935 0)
(0.352807 0.0255587 0)
(0.297354 0.027162 0)
(0.238771 0.0290419 0)
(0.176007 0.031531 0)
(0.10872 0.0332921 0)
(0.0393694 0.0362686 0)
(3 -1.43097e-17 0)
(3 -2.50364e-16 0)
(3 -2.82673e-16 0)
(3 -2.23958e-16 0)
(3 -3.3591e-16 0)
(3 -4.40144e-16 0)
(3 -2.54246e-16 0)
(3 7.61278e-16 0)
(3 4.67243e-16 0)
(3 8.54969e-16 0)
(3 1.12494e-15 0)
(3 1.15569e-15 0)
(3 2.04114e-15 0)
(3 2.37717e-15 0)
(3 7.06225e-16 0)
(1.14066 0.0586888 0)
(0.727317 0.0497723 0)
(0.679987 0.0533444 0)
(0.63481 0.0571982 0)
(0.588508 0.0598943 0)
(0.541737 0.0626876 0)
(0.493969 0.065726 0)
(0.444904 0.0690787 0)
(0.394224 0.0728136 0)
(0.341676 0.0771275 0)
(0.286894 0.0822423 0)
(0.22954 0.0881603 0)
(0.168817 0.09599 0)
(0.103869 0.101591 0)
(0.0377502 0.1104 0)
(3 1.8119e-16 0)
(3 1.10861e-17 0)
(3 -1.17806e-16 0)
(3 -2.09041e-16 0)
(3 -2.23582e-16 0)
(3 -7.417e-16 0)
(3 -7.8814e-16 0)
(3 -1.38173e-16 0)
(3 8.75874e-16 0)
(3 1.32687e-15 0)
(3 2.25227e-15 0)
(3 1.35867e-15 0)
(3 3.18121e-16 0)
(3 2.01943e-16 0)
(3 2.16267e-17 0)
(1.1972 0.102229 0)
(0.735704 0.0862769 0)
(0.684546 0.0914625 0)
(0.638096 0.0974063 0)
(0.59035 0.101737 0)
(0.542435 0.106244 0)
(0.493571 0.111186 0)
(0.443408 0.116639 0)
(0.39158 0.122645 0)
(0.337868 0.129409 0)
(0.282072 0.137278 0)
(0.224085 0.1461 0)
(0.163833 0.158144 0)
(0.0998669 0.166635 0)
(0.0363366 0.180262 0)
(3 -1.3078e-16 0)
(3 -2.60525e-16 0)
(3 -4.15555e-16 0)
(3 -9.14726e-16 0)
(3 -8.57941e-16 0)
(3 -8.60342e-16 0)
(3 -7.77356e-16 0)
(3 -7.26868e-16 0)
(3 8.13918e-16 0)
(3 1.81265e-15 0)
(3 1.97606e-15 0)
(3 1.16308e-15 0)
(3 6.41116e-17 0)
(3 3.7266e-16 0)
(3 4.21713e-17 0)
(1.28587 0.144001 0)
(0.745871 0.124163 0)
(0.689706 0.130415 0)
(0.643371 0.13797 0)
(0.595636 0.143618 0)
(0.548204 0.149728 0)
(0.499839 0.156694 0)
(0.449969 0.164595 0)
(0.39801 0.173423 0)
(0.343638 0.183228 0)
(0.286734 0.194318 0)
(0.227271 0.205946 0)
(0.165934 0.221741 0)
(0.100534 0.232462 0)
(0.03663 0.249693 0)
(3 -8.48296e-17 0)
(3 -3.19521e-16 0)
(3 -2.98689e-16 0)
(3 -3.14322e-16 0)
(3 -4.03265e-16 0)
(3 -2.76208e-16 0)
(3 -5.85224e-16 0)
(3 -8.43151e-16 0)
(3 1.11346e-20 0)
(3 1.74843e-15 0)
(3 1.66796e-15 0)
(3 2.03334e-16 0)
(3 -3.26898e-16 0)
(3 -1.17652e-15 0)
(3 -1.02188e-15 0)
(1.41558 0.185752 0)
(0.759159 0.164723 0)
(0.694043 0.170851 0)
(0.647522 0.179042 0)
(0.599804 0.185635 0)
(0.552951 0.193211 0)
(0.50537 0.202315 0)
(0.456394 0.212966 0)
(0.405334 0.225033 0)
(0.35166 0.238236 0)
(0.295017 0.252935 0)
(0.234768 0.267558 0)
(0.172244 0.287523 0)
(0.104068 0.300971 0)
(0.0381054 0.321583 0)
(3 7.41588e-17 0)
(3 1.97577e-16 0)
(3 5.31236e-16 0)
(3 8.24301e-16 0)
(3 5.62846e-16 0)
(3 2.42016e-16 0)
(3 -3.74956e-17 0)
(3 1.36962e-16 0)
(3 7.83001e-16 0)
(3 1.1929e-15 0)
(3 1.27898e-15 0)
(3 5.92696e-16 0)
(3 -1.25638e-16 0)
(3 -1.62093e-15 0)
(3 -3.16672e-15 0)
(1.6004 0.225948 0)
(0.779866 0.209463 0)
(0.700392 0.212892 0)
(0.654247 0.219763 0)
(0.60822 0.226603 0)
(0.563918 0.235098 0)
(0.519328 0.245956 0)
(0.473274 0.259207 0)
(0.424466 0.274888 0)
(0.37157 0.292608 0)
(0.313812 0.31305 0)
(0.25011 0.3328 0)
(0.183921 0.358313 0)
(0.110914 0.375638 0)
(0.039258 0.3981 0)
(3 2.00705e-16 0)
(3 3.9272e-16 0)
(3 3.28191e-16 0)
(3 5.44007e-16 0)
(3 5.81617e-16 0)
(3 3.21217e-16 0)
(3 2.96755e-16 0)
(3 2.91515e-16 0)
(3 1.06437e-15 0)
(3 6.33322e-16 0)
(3 8.33351e-16 0)
(3 9.84067e-16 0)
(3 8.11953e-17 0)
(3 -1.92152e-15 0)
(3 -3.02267e-15 0)
(1.84995 0.260588 0)
(0.809454 0.26062 0)
(0.704683 0.258034 0)
(0.656172 0.26038 0)
(0.60989 0.267008 0)
(0.566598 0.275782 0)
(0.524367 0.288168 0)
(0.481705 0.304303 0)
(0.437033 0.32456 0)
(0.388351 0.347991 0)
(0.335405 0.375352 0)
(0.274755 0.400767 0)
(0.209809 0.432281 0)
(0.131404 0.457814 0)
(0.0484618 0.485843 0)
(3 -1.1209e-17 0)
(3 4.509e-16 0)
(3 8.52163e-16 0)
(3 6.30739e-16 0)
(3 4.94168e-16 0)
(3 4.30531e-16 0)
(3 5.38968e-16 0)
(3 7.07985e-16 0)
(3 5.02556e-16 0)
(3 -1.20192e-16 0)
(3 -1.44546e-16 0)
(3 2.54494e-16 0)
(3 -2.18589e-16 0)
(3 -2.28432e-17 0)
(3 -4.22399e-16 0)
(2.16927 0.289809 0)
(0.84781 0.32667 0)
(0.715329 0.307569 0)
(0.672549 0.307502 0)
(0.627225 0.311913 0)
(0.583368 0.319193 0)
(0.540729 0.33122 0)
(0.498801 0.348207 0)
(0.457058 0.371483 0)
(0.41241 0.399615 0)
(0.363814 0.434503 0)
(0.303019 0.471738 0)
(0.231533 0.517111 0)
(0.146488 0.560579 0)
(0.0483223 0.595046 0)
(3 -1.62642e-16 0)
(3 4.64234e-17 0)
(3 -5.54219e-17 0)
(3 -3.04599e-16 0)
(3 -4.34672e-16 0)
(3 -1.08589e-16 0)
(3 4.5117e-16 0)
(3 3.62149e-16 0)
(3 5.32462e-17 0)
(3 -2.09264e-16 0)
(3 -2.84619e-16 0)
(3 -1.62555e-16 0)
(3 3.94678e-16 0)
(3 1.43553e-15 0)
(3 2.19101e-15 0)
(2.61496 0.274362 0)
(0.952405 0.395015 0)
(0.776776 0.3339 0)
(0.735727 0.341769 0)
(0.683483 0.352891 0)
(0.632406 0.362155 0)
(0.583303 0.375117 0)
(0.536428 0.392432 0)
(0.492459 0.417623 0)
(0.44799 0.450637 0)
(0.401583 0.494835 0)
(0.349517 0.546646 0)
(0.288276 0.604377 0)
(0.209237 0.665356 0)
(0.0874578 0.72684 0)
(3 1.92063e-16 0)
(3 -1.16934e-16 0)
(3 -2.48735e-16 0)
(3 1.51364e-16 0)
(3 5.27068e-16 0)
(3 6.89312e-16 0)
(3 7.35113e-16 0)
(3 4.42639e-16 0)
(3 -5.48202e-17 0)
(3 -4.90745e-16 0)
(3 -1.06533e-15 0)
(3 -1.03811e-15 0)
(3 2.18742e-16 0)
(3 1.57676e-15 0)
(3 2.63161e-15 0)
(3.02234 0.0719635 0)
(1.12757 0.404215 0)
(0.841594 0.365217 0)
(0.807533 0.38212 0)
(0.754783 0.398137 0)
(0.699303 0.410634 0)
(0.645052 0.424759 0)
(0.592531 0.441585 0)
(0.544558 0.466813 0)
(0.499545 0.501863 0)
(0.458263 0.550247 0)
(0.415482 0.610958 0)
(0.358511 0.69585 0)
(0.252014 0.819178 0)
(0.137862 0.974746 0)
(3 -1.22502e-16 0)
(3 -2.19592e-16 0)
(3 -4.13906e-17 0)
(3 8.64401e-17 0)
(3 2.94874e-16 0)
(3 2.19104e-16 0)
(3 9.3814e-17 0)
(3 1.8026e-17 0)
(3 1.28086e-16 0)
(3 -2.63047e-16 0)
(3 -9.16601e-16 0)
(3 -6.56454e-16 0)
(3 6.04414e-16 0)
(3 2.03371e-15 0)
(3 1.70519e-15 0)
(3.01638 0.0025038 0)
(1.28055 0.389206 0)
(0.847102 0.407372 0)
(0.813126 0.436054 0)
(0.77688 0.45167 0)
(0.739992 0.463745 0)
(0.697911 0.478787 0)
(0.651815 0.49589 0)
(0.60655 0.520477 0)
(0.562848 0.554263 0)
(0.526315 0.604386 0)
(0.491159 0.679412 0)
(0.460958 0.804816 0)
(0.43688 0.976581 0)
(0.552534 1.25387 0)
(3 -1.70464e-16 0)
(3 -3.37848e-16 0)
(3 -3.35759e-16 0)
(3 -3.39141e-16 0)
(3 -3.85474e-16 0)
(3 -3.99077e-16 0)
(3 -4.96074e-16 0)
(3 -6.09612e-16 0)
(3 -5.94774e-16 0)
(3 -5.49911e-17 0)
(3 1.91577e-16 0)
(3 8.26118e-16 0)
(3 1.41655e-15 0)
(3 2.24825e-15 0)
(3 1.14976e-15 0)
(3.00023 -4.27823e-06 0)
(1.55884 0.41365 0)
(0.842576 0.436783 0)
(0.795365 0.456336 0)
(0.772934 0.475869 0)
(0.752945 0.497209 0)
(0.728939 0.520062 0)
(0.699612 0.544016 0)
(0.667162 0.571742 0)
(0.632639 0.605624 0)
(0.603927 0.655751 0)
(0.588308 0.737443 0)
(0.590211 0.869286 0)
(0.658014 1.01865 0)
(0.951297 1.20203 0)
(3 2.48334e-16 0)
(3 1.26615e-16 0)
(3 -5.91831e-17 0)
(3 5.11836e-17 0)
(3 6.69885e-17 0)
(3 4.54909e-16 0)
(3 2.01983e-16 0)
(3 -2.28181e-16 0)
(3 -8.62924e-16 0)
(3 -1.13434e-15 0)
(3 -4.84029e-16 0)
(3 5.56677e-16 0)
(3 1.05143e-15 0)
(3 1.12562e-15 0)
(3 1.05464e-15 0)
(3.00001 -2.2111e-06 0)
(2.06891 0.449031 0)
(0.898564 0.511363 0)
(0.801532 0.483325 0)
(0.78322 0.499154 0)
(0.768432 0.5213 0)
(0.752179 0.548347 0)
(0.738244 0.579372 0)
(0.71995 0.613162 0)
(0.702072 0.652061 0)
(0.685596 0.701099 0)
(0.692029 0.77817 0)
(0.723555 0.89323 0)
(0.850165 1.01891 0)
(1.16801 1.13311 0)
(3 7.22737e-17 0)
(3 -9.20971e-17 0)
(3 -2.31178e-16 0)
(3 -1.48842e-16 0)
(3 8.53332e-17 0)
(3 3.27615e-16 0)
(3 5.64315e-16 0)
(3 -2.03332e-16 0)
(3 -1.88804e-16 0)
(3 -9.46047e-16 0)
(3 -7.54385e-16 0)
(3 -2.14365e-16 0)
(3 7.27877e-17 0)
(3 -6.61189e-16 0)
(3 -1.51683e-16 0)
(3 -5.52296e-07 0)
(2.79828 0.27833 0)
(1.07466 0.570728 0)
(0.873065 0.512223 0)
(0.831444 0.520233 0)
(0.80513 0.542597 0)
(0.785784 0.570263 0)
(0.777473 0.603983 0)
(0.768969 0.641829 0)
(0.767702 0.685545 0)
(0.767572 0.733214 0)
(0.788568 0.800275 0)
(0.844123 0.892714 0)
(0.993396 0.995775 0)
(1.26181 1.06529 0)
(3 -1.16353e-16 0)
(3 -4.06534e-16 0)
(3 -3.46095e-16 0)
(3 -2.10161e-16 0)
(3 3.36941e-16 0)
(3 3.32101e-16 0)
(3 6.4564e-16 0)
(3 6.09322e-16 0)
(3 5.52101e-16 0)
(3 5.47e-16 0)
(3 -3.58549e-17 0)
(3 -3.47526e-16 0)
(3 -2.55176e-16 0)
(3 -3.87115e-16 0)
(3 1.93408e-16 0)
(3 -5.19333e-08 0)
(3.06715 0.0215884 0)
(1.37239 0.557723 0)
(0.953266 0.569347 0)
(0.902354 0.565532 0)
(0.861773 0.576574 0)
(0.831197 0.595678 0)
(0.8198 0.626039 0)
(0.815968 0.663772 0)
(0.824863 0.70883 0)
(0.842117 0.757949 0)
(0.875356 0.817039 0)
(0.947706 0.889373 0)
(1.09391 0.963155 0)
(1.3146 1.00634 0)
(3 1.8401e-16 0)
(3 2.19451e-16 0)
(3 2.00514e-16 0)
(3 1.63521e-16 0)
(3 3.07597e-16 0)
(3 4.33943e-16 0)
(3 6.73909e-16 0)
(3 1.37053e-15 0)
(3 1.18229e-15 0)
(3 8.45753e-16 0)
(3 3.75725e-16 0)
(3 5.76832e-16 0)
(3 5.30364e-16 0)
(3 8.70413e-16 0)
(3 8.20747e-16 0)
(3 -1.97226e-09 0)
(3.00345 1.96325e-05 0)
(1.75319 0.533324 0)
(0.975891 0.624387 0)
(0.918046 0.621189 0)
(0.892051 0.62123 0)
(0.8705 0.629875 0)
(0.860463 0.651036 0)
(0.862276 0.681422 0)
(0.876458 0.720639 0)
(0.904414 0.766952 0)
(0.948882 0.820599 0)
(1.03059 0.878788 0)
(1.1642 0.929763 0)
(1.3415 0.956502 0)
(3 -1.19421e-16 0)
(3 -4.90711e-17 0)
(3 -2.86511e-17 0)
(3 -8.64788e-17 0)
(3 -2.2875e-16 0)
(3 -1.99288e-16 0)
(3 -5.20871e-17 0)
(3 9.01877e-16 0)
(3 1.27839e-15 0)
(3 1.11465e-15 0)
(3 1.30697e-15 0)
(3 1.37237e-15 0)
(3 3.65302e-16 0)
(3 -3.93008e-16 0)
(3 1.46095e-16 0)
(3 -2.96381e-11 0)
(3.00001 -4.76455e-07 0)
(2.5663 0.383507 0)
(1.09744 0.659853 0)
(0.963748 0.64914 0)
(0.940267 0.64908 0)
(0.921351 0.656087 0)
(0.909389 0.671468 0)
(0.911663 0.697954 0)
(0.927975 0.732282 0)
(0.959759 0.772114 0)
(1.01086 0.818856 0)
(1.09528 0.866182 0)
(1.21436 0.902132 0)
(1.3582 0.91726 0)
(3 -1.52377e-16 0)
(3 -2.83731e-16 0)
(3 -3.64409e-16 0)
(3 -5.60918e-16 0)
(3 -6.04278e-16 0)
(3 -4.22278e-16 0)
(3 -1.91321e-16 0)
(3 -3.2696e-16 0)
(3 3.72642e-17 0)
(3 1.03818e-15 0)
(3 7.66169e-16 0)
(3 6.82451e-17 0)
(3 -3.98475e-16 0)
(3 -1.36321e-15 0)
(3 -1.1331e-15 0)
(3 -3.63346e-14 0)
(3 -6.07572e-07 0)
(3.07357 0.0440721 0)
(1.39373 0.640796 0)
(1.03332 0.671535 0)
(1.01069 0.673087 0)
(0.987504 0.683892 0)
(0.971402 0.694475 0)
(0.968541 0.712263 0)
(0.980885 0.740279 0)
(1.01142 0.773654 0)
(1.06311 0.811278 0)
(1.14351 0.850489 0)
(1.24942 0.878736 0)
(1.37307 0.891234 0)
(3 -1.35425e-17 0)
(3 1.36944e-16 0)
(3 1.66168e-16 0)
(3 -2.03948e-17 0)
(3 -2.38156e-16 0)
(3 -3.76034e-16 0)
(3 -6.65348e-16 0)
(3 -1.42729e-15 0)
(3 -1.29531e-15 0)
(3 -1.01343e-15 0)
(3 -3.69796e-16 0)
(3 -3.03441e-17 0)
(3 1.60499e-17 0)
(3 -5.77971e-16 0)
(3 -5.48626e-16 0)
(3 -1.19294e-15 0)
(3 -1.26316e-07 0)
(3.00675 0.000209111 0)
(1.85332 0.607727 0)
(1.06174 0.721892 0)
(1.02921 0.717383 0)
(1.0278 0.724283 0)
(1.02422 0.73545 0)
(1.02495 0.744952 0)
(1.03558 0.760116 0)
(1.06369 0.781186 0)
(1.11159 0.808544 0)
(1.18192 0.83545 0)
(1.27341 0.855621 0)
(1.37738 0.864285 0)
(3 -2.8889e-16 0)
(3 -1.44354e-16 0)
(3 4.14773e-17 0)
(3 3.19149e-17 0)
(3 -1.75098e-16 0)
(3 -6.29071e-16 0)
(3 -1.42627e-15 0)
(3 -1.86839e-15 0)
(3 -2.09409e-15 0)
(3 -1.38448e-15 0)
(3 -3.58262e-16 0)
(3 2.87999e-17 0)
(3 1.79897e-16 0)
(3 3.03193e-16 0)
(3 -1.30043e-16 0)
(3 -9.59766e-16 0)
(3 -1.04164e-08 0)
(3.00003 -2.92844e-07 0)
(2.8027 0.296871 0)
(1.2366 0.717346 0)
(1.0747 0.719829 0)
(1.08176 0.726654 0)
(1.08562 0.74719 0)
(1.08763 0.761893 0)
(1.09681 0.774065 0)
(1.11833 0.790821 0)
(1.15845 0.808957 0)
(1.2196 0.828299 0)
(1.29813 0.843097 0)
(1.38724 0.848952 0)
(3 -1.54381e-17 0)
(3 -1.94616e-16 0)
(3 -2.30915e-16 0)
(3 -3.90808e-16 0)
(3 -2.8909e-16 0)
(3 -1.77135e-16 0)
(3 -6.57844e-16 0)
(3 -1.20334e-15 0)
(3 -1.12903e-15 0)
(3 -9.51536e-16 0)
(3 -7.81876e-16 0)
(3 -5.10163e-16 0)
(3 3.97133e-16 0)
(3 3.99878e-16 0)
(3 -1.04442e-16 0)
(3 -8.38855e-16 0)
(3 -4.96399e-11 0)
(3 -1.57137e-06 0)
(3.05472 0.0150502 0)
(1.53214 0.67596 0)
(1.09696 0.754384 0)
(1.10383 0.762069 0)
(1.10735 0.777618 0)
(1.11916 0.788573 0)
(1.13902 0.798032 0)
(1.16592 0.806425 0)
(1.20306 0.815317 0)
(1.25666 0.825125 0)
(1.32282 0.833681 0)
(1.40068 0.835741 0)
(3 1.93821e-16 0)
(3 3.55458e-16 0)
(3 -1.36887e-16 0)
(3 -4.27219e-17 0)
(3 3.16361e-17 0)
(3 -2.14937e-16 0)
(3 -3.3685e-16 0)
(3 -1.56677e-16 0)
(3 -4.96507e-17 0)
(3 -1.04663e-15 0)
(3 -1.27933e-15 0)
(3 -1.00309e-15 0)
(3 -4.93954e-16 0)
(3 -2.75831e-16 0)
(3 -3.50258e-16 0)
(3 -5.46627e-16 0)
(3 -7.45182e-14 0)
(3 -3.32959e-07 0)
(3.00172 0.000104859 0)
(2.2802 0.564042 0)
(1.18376 0.799315 0)
(1.12996 0.786033 0)
(1.1318 0.787127 0)
(1.14629 0.793981 0)
(1.17177 0.804177 0)
(1.20321 0.815241 0)
(1.24145 0.824809 0)
(1.29046 0.83214 0)
(1.34827 0.836456 0)
(1.41634 0.834942 0)
(3 -5.98541e-17 0)
(3 -6.04321e-17 0)
(3 2.5596e-16 0)
(3 3.67149e-16 0)
(3 -1.19403e-17 0)
(3 -9.7405e-16 0)
(3 -7.02422e-16 0)
(3 1.58196e-16 0)
(3 4.91787e-16 0)
(3 5.6378e-16 0)
(3 1.37305e-16 0)
(3 -1.95995e-16 0)
(3 -3.72521e-16 0)
(3 -8.24798e-17 0)
(3 -3.18e-17 0)
(3 1.37699e-16 0)
(3 9.58919e-16 0)
(3 -2.77683e-08 0)
(3 1.89787e-08 0)
(3.0469 0.10112 0)
(1.51894 0.776397 0)
(1.1816 0.78629 0)
(1.18195 0.788099 0)
(1.1893 0.797335 0)
(1.20924 0.807829 0)
(1.23783 0.818443 0)
(1.27586 0.827282 0)
(1.32151 0.833155 0)
(1.37458 0.834373 0)
(1.43469 0.831239 0)
(3 4.79025e-17 0)
(3 2.86762e-18 0)
(3 3.9851e-16 0)
(3 2.96396e-16 0)
(3 -5.52235e-16 0)
(3 -3.844e-16 0)
(3 -9.25565e-17 0)
(3 8.22058e-17 0)
(3 9.27849e-16 0)
(3 1.1392e-15 0)
(3 1.03058e-15 0)
(3 7.97129e-16 0)
(3 1.77477e-16 0)
(3 3.20645e-16 0)
(3 9.83322e-16 0)
(3 1.14098e-15 0)
(3 1.4833e-15 0)
(3 -1.20948e-10 0)
(3 -1.47887e-07 0)
(3.01212 0.00179389 0)
(2.13562 0.671936 0)
(1.22682 0.841351 0)
(1.20018 0.825537 0)
(1.2209 0.825144 0)
(1.24016 0.829238 0)
(1.2666 0.834166 0)
(1.30281 0.839172 0)
(1.34604 0.842708 0)
(1.39545 0.842801 0)
(1.44907 0.839853 0)
(3 2.86656e-16 0)
(3 4.93027e-16 0)
(3 2.0589e-16 0)
(3 1.47777e-16 0)
(3 5.35825e-16 0)
(3 8.35251e-16 0)
(3 1.24956e-15 0)
(3 1.41832e-15 0)
(3 1.05585e-15 0)
(3 4.1441e-16 0)
(3 1.8718e-17 0)
(3 -1.61964e-17 0)
(3 4.19088e-16 0)
(3 6.01815e-16 0)
(3 1.03973e-15 0)
(3 9.51242e-16 0)
(3 7.99492e-16 0)
(3 -2.25319e-13 0)
(3 -2.74881e-08 0)
(3.00006 1.70625e-05 0)
(3.0023 0.170291 0)
(1.53811 0.826986 0)
(1.23993 0.818396 0)
(1.2654 0.82622 0)
(1.28064 0.831871 0)
(1.3032 0.835188 0)
(1.33489 0.838487 0)
(1.374 0.840929 0)
(1.41872 0.841227 0)
(1.46773 0.838252 0)
(3 -9.15325e-18 0)
(3 9.50763e-17 0)
(3 -1.51657e-16 0)
(3 -4.31648e-17 0)
(3 5.99654e-16 0)
(3 8.51661e-16 0)
(3 1.35519e-15 0)
(3 1.56419e-15 0)
(3 1.30005e-15 0)
(3 6.52841e-16 0)
(3 1.45856e-16 0)
(3 2.33366e-16 0)
(3 1.24367e-15 0)
(3 1.66786e-15 0)
(3 1.01204e-15 0)
(3 5.32747e-16 0)
(3 4.19006e-16 0)
(3 2.48692e-16 0)
(3 -8.30851e-10 0)
(3 -2.32786e-07 0)
(3.01787 0.0044965 0)
(2.12171 0.702733 0)
(1.28917 0.869058 0)
(1.2784 0.862057 0)
(1.29966 0.857674 0)
(1.32392 0.85792 0)
(1.35561 0.858313 0)
(1.39199 0.857767 0)
(1.43312 0.855611 0)
(1.47957 0.849862 0)
(3 -6.57477e-17 0)
(3 -2.09012e-16 0)
(3 -1.5331e-16 0)
(3 -3.1344e-16 0)
(3 -3.10422e-16 0)
(3 -8.97927e-17 0)
(3 2.73137e-16 0)
(3 1.63425e-16 0)
(3 -7.83487e-17 0)
(3 2.3305e-16 0)
(3 6.95829e-16 0)
(3 7.01939e-16 0)
(3 5.70272e-16 0)
(3 9.18438e-16 0)
(3 6.75867e-16 0)
(3 -4.39043e-16 0)
(3 -5.54163e-16 0)
(3 -6.78739e-16 0)
(3 -2.94763e-12 0)
(3 -5.64851e-08 0)
(3.00013 7.47465e-05 0)
(2.97641 0.19003 0)
(1.61181 0.861701 0)
(1.30708 0.855518 0)
(1.33225 0.855814 0)
(1.35323 0.857876 0)
(1.38366 0.857697 0)
(1.41673 0.856786 0)
(1.45447 0.853811 0)
(1.49765 0.847911 0)
(3 -1.79569e-17 0)
(3 8.1729e-17 0)
(3 1.1553e-16 0)
(3 7.91367e-17 0)
(3 -5.19745e-17 0)
(3 8.08778e-17 0)
(3 -1.33102e-17 0)
(3 4.50173e-18 0)
(3 -4.57028e-17 0)
(3 1.44851e-16 0)
(3 5.63992e-16 0)
(3 2.27653e-16 0)
(3 3.04418e-16 0)
(3 3.42836e-16 0)
(3 5.50347e-16 0)
(3 4.5104e-17 0)
(3 3.72779e-17 0)
(3 2.69987e-16 0)
(3 -5.70945e-16 0)
(3 -5.21394e-09 0)
(3 5.31772e-08 0)
(3.01491 0.00703044 0)
(2.30635 0.678645 0)
(1.37851 0.900811 0)
(1.3506 0.889574 0)
(1.37608 0.881361 0)
(1.40141 0.878474 0)
(1.43109 0.875134 0)
(1.46612 0.869457 0)
(1.50514 0.862388 0)
(3 -2.09028e-16 0)
(3 -1.57579e-16 0)
(3 1.43161e-16 0)
(3 1.37746e-16 0)
(3 -2.62453e-16 0)
(3 -4.43475e-16 0)
(3 -2.6944e-16 0)
(3 5.9725e-16 0)
(3 9.07867e-16 0)
(3 1.02615e-15 0)
(3 7.03523e-16 0)
(3 4.68094e-17 0)
(3 -1.27625e-17 0)
(3 -7.57882e-16 0)
(3 -1.14661e-15 0)
(3 -1.18338e-16 0)
(3 9.74221e-16 0)
(3 1.9159e-15 0)
(3 1.91629e-15 0)
(3 -2.06928e-10 0)
(3 -2.04446e-10 0)
(3.0001 0.000134819 0)
(3.01323 0.132064 0)
(1.75825 0.850747 0)
(1.3819 0.895055 0)
(1.41489 0.888584 0)
(1.43275 0.883473 0)
(1.45713 0.876154 0)
(1.48721 0.868272 0)
(1.52128 0.860898 0)
(3 -2.83695e-17 0)
(3 -2.76354e-17 0)
(3 -1.78751e-16 0)
(3 -4.30881e-16 0)
(3 -1.31058e-16 0)
(3 -5.58125e-16 0)
(3 -4.83347e-16 0)
(3 6.73917e-17 0)
(3 8.83005e-16 0)
(3 7.85385e-16 0)
(3 3.89838e-16 0)
(3 3.85439e-16 0)
(3 -1.94406e-16 0)
(3 -1.13428e-15 0)
(3 -1.1181e-15 0)
(3 -1.03857e-16 0)
(3 6.26997e-16 0)
(3 1.58492e-15 0)
(3 2.41766e-15 0)
(3 -1.85371e-12 0)
(3 -6.6044e-11 0)
(3 1.62299e-07 0)
(3.00686 0.00578948 0)
(2.57786 0.546526 0)
(1.52041 0.941173 0)
(1.43051 0.915607 0)
(1.45345 0.906267 0)
(1.47469 0.896601 0)
(1.50074 0.886882 0)
(1.53107 0.877569 0)
(3 -1.79335e-17 0)
(3 2.21353e-16 0)
(3 1.28489e-16 0)
(3 2.7509e-16 0)
(3 9.24462e-16 0)
(3 1.08066e-15 0)
(3 8.44006e-16 0)
(3 2.03407e-16 0)
(3 2.02281e-16 0)
(3 5.89304e-16 0)
(3 1.96985e-16 0)
(3 2.02962e-16 0)
(3 -2.99156e-16 0)
(3 -6.18745e-16 0)
(3 -3.48873e-16 0)
(3 -7.93647e-16 0)
(3 -9.17261e-16 0)
(3 -4.77652e-16 0)
(3 3.70014e-16 0)
(3 -2.91899e-15 0)
(3 -8.90856e-12 0)
(3 1.98456e-11 0)
(3.00002 7.41932e-05 0)
(3.02946 0.0587782 0)
(2.00815 0.809741 0)
(1.4792 0.923206 0)
(1.48952 0.913719 0)
(1.50614 0.903177 0)
(1.52732 0.893593 0)
(1.55351 0.882897 0)
(3 -1.61055e-17 0)
(3 -1.04712e-16 0)
(3 3.74005e-16 0)
(3 7.09405e-16 0)
(3 8.62286e-16 0)
(3 1.06633e-15 0)
(3 1.20256e-15 0)
(3 2.14977e-16 0)
(3 -2.38203e-16 0)
(3 -4.47524e-17 0)
(3 -1.07978e-16 0)
(3 -5.9345e-16 0)
(3 -1.29515e-15 0)
(3 -1.23436e-15 0)
(3 -2.03259e-15 0)
(3 -1.58749e-15 0)
(3 -6.60417e-16 0)
(3 -5.66746e-16 0)
(3 -8.78958e-17 0)
(3 5.5877e-16 0)
(3 -5.75333e-13 0)
(3 -5.76372e-13 0)
(3 6.99918e-08 0)
(3.00168 0.00261732 0)
(2.82703 0.324783 0)
(1.72823 0.908407 0)
(1.50388 0.934959 0)
(1.53227 0.926301 0)
(1.55315 0.915693 0)
(1.57566 0.902535 0)
(3 3.81463e-16 0)
(3 1.35345e-16 0)
(3 -2.69918e-17 0)
(3 -1.28726e-16 0)
(3 -1.70407e-16 0)
(3 -3.28403e-16 0)
(3 -5.12884e-16 0)
(3 -7.72233e-16 0)
(3 -6.14749e-16 0)
(3 -9.09933e-16 0)
(3 -6.4155e-16 0)
(3 -5.39745e-16 0)
(3 -8.35832e-16 0)
(3 -8.39845e-16 0)
(3 -1.03993e-15 0)
(3 6.39113e-17 0)
(3 1.37088e-16 0)
(3 -5.23001e-16 0)
(3 3.20432e-16 0)
(3 1.24512e-15 0)
(3 -7.31052e-15 0)
(3 -1.91074e-13 0)
(3 1.84265e-11 0)
(3 1.48769e-05 0)
(3.01008 0.0219202 0)
(2.38744 0.655336 0)
(1.59366 0.956312 0)
(1.54474 0.946875 0)
(1.56889 0.934073 0)
(1.59391 0.91952 0)
(3 2.27042e-16 0)
(3 9.30607e-17 0)
(3 -3.0871e-16 0)
(3 -6.82021e-16 0)
(3 -9.27171e-16 0)
(3 -9.51403e-16 0)
(3 -7.69229e-16 0)
(3 -8.27044e-16 0)
(3 -1.01767e-15 0)
(3 -9.99214e-16 0)
(3 -7.22087e-16 0)
(3 3.23027e-16 0)
(3 9.74111e-16 0)
(3 1.01213e-15 0)
(3 1.70064e-15 0)
(3 1.09415e-15 0)
(3 2.92348e-16 0)
(3 -3.49736e-16 0)
(3 1.54522e-16 0)
(3 7.72195e-16 0)
(3 1.67088e-15 0)
(3 -2.38051e-14 0)
(3 -2.1672e-14 0)
(3 8.49619e-09 0)
(3.00008 0.000659102 0)
(2.98468 0.117813 0)
(2.00672 0.827869 0)
(1.59326 0.947784 0)
(1.59257 0.943103 0)
(1.61874 0.928067 0)
(3 -2.87413e-16 0)
(3 -2.43786e-16 0)
(3 6.47343e-17 0)
(3 1.17374e-16 0)
(3 -2.76216e-16 0)
(3 -2.56125e-16 0)
(3 -6.69879e-16 0)
(3 -9.72178e-16 0)
(3 -1.2435e-15 0)
(3 -8.55327e-16 0)
(3 -4.25076e-16 0)
(3 -4.63155e-17 0)
(3 1.09809e-15 0)
(3 1.16956e-15 0)
(3 1.58734e-15 0)
(3 1.39345e-15 0)
(3 4.66585e-16 0)
(3 -3.22517e-16 0)
(3 -7.06894e-16 0)
(3 -5.66013e-16 0)
(3 6.42289e-16 0)
(3 -3.04714e-16 0)
(3 -6.76306e-15 0)
(3 2.61604e-12 0)
(3 1.55992e-06 0)
(3.00172 0.00644722 0)
(2.76388 0.361861 0)
(1.81625 0.907706 0)
(1.6149 0.959432 0)
(1.63228 0.950178 0)
(3 -1.4454e-16 0)
(3 2.10654e-16 0)
(3 7.524e-16 0)
(3 9.42991e-16 0)
(3 3.82454e-16 0)
(3 1.36625e-16 0)
(3 -2.5365e-16 0)
(3 -1.18465e-16 0)
(3 2.20313e-16 0)
(3 4.52916e-16 0)
(3 3.63755e-16 0)
(3 1.17864e-16 0)
(3 1.98574e-16 0)
(3 1.46378e-16 0)
(3 6.50922e-16 0)
(3 1.32864e-16 0)
(3 -2.54314e-16 0)
(3 -3.1259e-16 0)
(3 -7.47362e-16 0)
(3 -6.44711e-16 0)
(3 -1.02093e-15 0)
(3 -5.64358e-16 0)
(3 -9.20756e-16 0)
(3 -8.55532e-16 0)
(3 8.58408e-10 0)
(2.99999 6.36963e-05 0)
(3.00198 0.0293582 0)
(2.43264 0.609741 0)
(1.73184 0.956806 0)
(1.6374 0.961015 0)
(3 5.10219e-17 0)
(3 3.17929e-16 0)
(3 4.02894e-16 0)
(3 2.21828e-16 0)
(3 -1.50593e-16 0)
(3 -2.21824e-16 0)
(3 9.03851e-17 0)
(3 4.32247e-16 0)
(3 1.00096e-15 0)
(3 1.02743e-15 0)
(3 9.92288e-16 0)
(3 9.97115e-16 0)
(3 7.35754e-16 0)
(3 1.12224e-15 0)
(3 6.89369e-16 0)
(3 -1.95017e-16 0)
(3 -3.58946e-16 0)
(3 -3.81373e-16 0)
(3 -3.76121e-16 0)
(3 -9.545e-16 0)
(3 -1.36634e-15 0)
(3 -1.17427e-15 0)
(3 -1.30222e-15 0)
(3 -1.93026e-15 0)
(3 1.88957e-13 0)
(3 6.37011e-08 0)
(2.99997 0.000943078 0)
(2.96659 0.101225 0)
(2.17643 0.77631 0)
(1.68541 0.964553 0)
(3 2.86014e-17 0)
(3 -1.58707e-16 0)
(3 -4.60393e-17 0)
(3 6.9071e-17 0)
(3 2.05232e-16 0)
(3 2.96936e-16 0)
(3 4.5452e-17 0)
(3 -1.10181e-16 0)
(3 2.20916e-16 0)
(3 4.91151e-16 0)
(3 4.78312e-16 0)
(3 9.32268e-16 0)
(3 1.43369e-15 0)
(3 1.87073e-15 0)
(3 9.99308e-16 0)
(3 3.47889e-16 0)
(3 -7.95607e-18 0)
(3 -5.81623e-16 0)
(3 -1.00329e-15 0)
(3 -5.02326e-16 0)
(3 3.19463e-16 0)
(3 -6.07106e-16 0)
(3 -1.2094e-15 0)
(3 -9.02947e-16 0)
(3 -1.37597e-15 0)
(3 3.33619e-11 0)
(3 2.51829e-06 0)
(2.99988 0.00551228 0)
(2.84979 0.263262 0)
(1.98943 0.862921 0)
(3 -2.26858e-17 0)
(3 1.1195e-16 0)
(3 -6.5634e-17 0)
(3 -1.34435e-16 0)
(3 3.60317e-16 0)
(3 3.21079e-16 0)
(3 -2.67013e-17 0)
(3 -5.93759e-16 0)
(3 -7.43806e-16 0)
(3 -2.94666e-16 0)
(3 -3.17189e-16 0)
(3 -9.721e-17 0)
(3 1.45653e-15 0)
(3 1.47853e-15 0)
(3 7.7023e-16 0)
(3 4.1666e-16 0)
(3 -2.77038e-16 0)
(3 -8.55224e-16 0)
(3 -8.76398e-16 0)
(3 6.31483e-16 0)
(3 1.29184e-15 0)
(3 1.09497e-15 0)
(3 4.06438e-16 0)
(3 6.93759e-16 0)
(3 -7.20104e-16 0)
(3 2.72558e-15 0)
(3 2.04508e-09 0)
(2.99999 4.321e-05 0)
(2.99784 0.0197156 0)
(2.64234 0.454972 0)
(3 4.58247e-17 0)
(3 1.91335e-16 0)
(3 6.47766e-17 0)
(3 -3.502e-16 0)
(3 -3.78726e-16 0)
(3 -3.23467e-16 0)
(3 -1.29236e-16 0)
(3 2.00195e-16 0)
(3 -4.80751e-17 0)
(3 -1.67029e-17 0)
(3 -3.69226e-16 0)
(3 -3.09088e-16 0)
(3 1.39726e-16 0)
(3 1.2976e-16 0)
(3 -1.54415e-16 0)
(3 -4.803e-16 0)
(3 -5.54253e-16 0)
(3 -2.43634e-16 0)
(3 2.46013e-16 0)
(3 4.14637e-16 0)
(3 3.09166e-16 0)
(3 -1.23063e-16 0)
(3 -4.0201e-16 0)
(3 -4.02755e-16 0)
(3 -8.32542e-17 0)
(3 -9.97111e-16 0)
(3 4.5716e-13 0)
(3 4.96072e-08 0)
(2.99992 0.000411745 0)
(2.98642 0.0503991 0)
(3 -6.13749e-17 0)
(3 -1.74851e-16 0)
(3 -5.1379e-16 0)
(3 -3.68189e-16 0)
(3 -2.78414e-16 0)
(3 -3.39562e-16 0)
(3 -2.45367e-17 0)
(3 8.18434e-16 0)
(3 1.26211e-15 0)
(3 6.52447e-16 0)
(3 -2.77531e-16 0)
(3 -6.97412e-16 0)
(3 -1.15834e-15 0)
(3 -9.018e-16 0)
(3 -1.50771e-17 0)
(3 2.55421e-16 0)
(3 4.03929e-16 0)
(3 4.53253e-16 0)
(3 5.15777e-16 0)
(3 2.68468e-16 0)
(3 -9.53639e-16 0)
(3 -1.18142e-15 0)
(3 -8.45594e-16 0)
(3 -4.83882e-16 0)
(3 2.99083e-17 0)
(3 6.72087e-17 0)
(3 4.67283e-16 0)
(3 2.68093e-11 0)
(3 7.83197e-07 0)
(2.99968 0.00210281 0)
(3 -3.36717e-17 0)
(3 -3.04649e-16 0)
(3 -5.51945e-16 0)
(3 -5.49609e-16 0)
(3 8.6097e-17 0)
(3 5.47291e-16 0)
(3 6.82822e-16 0)
(3 5.13658e-16 0)
(3 3.12151e-16 0)
(3 -5.13242e-16 0)
(3 -5.99005e-16 0)
(3 -9.65906e-16 0)
(3 -1.00631e-15 0)
(3 -1.47697e-15 0)
(3 -2.99999e-16 0)
(3 8.92399e-16 0)
(3 1.03004e-15 0)
(3 8.68421e-16 0)
(3 4.64315e-16 0)
(3 -3.36479e-16 0)
(3 -9.77232e-16 0)
(3 -8.31916e-16 0)
(3 -3.32395e-16 0)
(3 -3.50458e-16 0)
(3 -1.80079e-16 0)
(3 9.53231e-17 0)
(3 -2.3798e-16 0)
(3 2.82067e-15 0)
(3 7.06665e-10 0)
(3 8.58245e-06 0)
(3 1.04982e-16 0)
(3 -1.36395e-16 0)
(3 9.46549e-17 0)
(3 4.48442e-16 0)
(3 8.55061e-16 0)
(3 1.37678e-15 0)
(3 1.76956e-15 0)
(3 1.31368e-15 0)
(3 5.42129e-16 0)
(3 2.06086e-16 0)
(3 -4.79213e-16 0)
(3 -5.57707e-16 0)
(3 -2.01426e-16 0)
(3 -1.34859e-15 0)
(3 -1.64743e-15 0)
(3 -1.44112e-15 0)
(3 -4.57146e-17 0)
(3 6.42294e-16 0)
(3 -1.16749e-16 0)
(3 -1.7916e-15 0)
(3 -1.91416e-15 0)
(3 -1.68656e-15 0)
(3 -8.4991e-16 0)
(3 -4.91131e-16 0)
(3 -3.77028e-16 0)
(3 -8.27591e-18 0)
(3 1.8717e-16 0)
(3 9.69658e-16 0)
(3 9.21215e-14 0)
(3 1.06322e-08 0)
(3 1.70353e-17 0)
(3 2.01068e-16 0)
(3 1.91903e-16 0)
(3 4.33466e-16 0)
(3 8.29602e-16 0)
(3 1.06343e-15 0)
(3 7.65669e-16 0)
(3 4.38066e-16 0)
(3 8.20164e-16 0)
(3 1.10847e-15 0)
(3 9.55373e-16 0)
(3 7.20823e-16 0)
(3 1.03266e-16 0)
(3 -2.49409e-16 0)
(3 -4.18754e-16 0)
(3 -1.00987e-16 0)
(3 -3.04485e-17 0)
(3 7.28837e-16 0)
(3 -6.5323e-16 0)
(3 -1.40338e-15 0)
(3 -2.28368e-15 0)
(3 -2.7952e-15 0)
(3 -2.00973e-15 0)
(3 7.85988e-18 0)
(3 6.57632e-16 0)
(3 9.13219e-16 0)
(3 1.05712e-15 0)
(3 1.16503e-15 0)
(3 1.23067e-15 0)
(3 2.06708e-12 0)
(3 -1.42851e-16 0)
(3 1.88886e-17 0)
(3 2.24815e-16 0)
(3 -1.47862e-16 0)
(3 -2.88699e-16 0)
(3 -4.59098e-16 0)
(3 -7.79111e-16 0)
(3 -4.67769e-16 0)
(3 -9.86737e-17 0)
(3 3.07303e-16 0)
(3 8.50417e-16 0)
(3 7.96345e-16 0)
(3 -3.42996e-16 0)
(3 -5.9388e-16 0)
(3 -1.85778e-16 0)
(3 -4.24132e-17 0)
(3 -4.72754e-16 0)
(3 -3.61423e-16 0)
(3 -6.99136e-16 0)
(3 -7.96344e-16 0)
(3 -1.00991e-15 0)
(3 -9.94044e-16 0)
(3 -9.72981e-16 0)
(3 -9.77361e-16 0)
(3 2.42175e-16 0)
(3 5.58079e-16 0)
(3 1.22928e-15 0)
(3 1.71514e-15 0)
(3 1.65027e-15 0)
(3 1.43029e-15 0)
(3 5.38411e-17 0)
(3 -8.9224e-19 0)
(3 1.32801e-16 0)
(3 1.13245e-16 0)
(3 -1.30618e-16 0)
(3 -9.09466e-16 0)
(3 -8.84042e-16 0)
(3 -8.02619e-16 0)
(3 -1.00108e-15 0)
(3 -8.32126e-16 0)
(3 -2.84308e-16 0)
(3 2.75621e-16 0)
(3 2.03125e-16 0)
(3 -2.02903e-16 0)
(3 2.16067e-16 0)
(3 2.78258e-16 0)
(3 -3.80524e-16 0)
(3 -8.72283e-16 0)
(3 -2.68333e-16 0)
(3 6.15145e-16 0)
(3 3.90375e-16 0)
(3 -1.07353e-16 0)
(3 -5.45165e-16 0)
(3 -1.98714e-16 0)
(3 8.04747e-17 0)
(3 8.24269e-16 0)
(3 1.36993e-15 0)
(3 2.23412e-15 0)
(3 2.80552e-15 0)
(3 2.25684e-15 0)
(3 5.46856e-17 0)
(3 1.41572e-16 0)
(3 1.40256e-17 0)
(3 2.24144e-16 0)
(3 3.85043e-16 0)
(3 -1.03875e-16 0)
(3 -6.77548e-16 0)
(3 -9.9764e-16 0)
(3 -8.56751e-16 0)
(3 -4.12516e-16 0)
(3 3.5551e-16 0)
(3 4.57387e-16 0)
(3 2.54094e-16 0)
(3 2.32479e-16 0)
(3 1.31875e-16 0)
(3 4.69986e-16 0)
(3 4.28208e-16 0)
(3 2.98147e-16 0)
(3 6.34047e-16 0)
(3 1.54885e-15 0)
(3 1.21333e-15 0)
(3 5.58917e-16 0)
(3 3.36042e-16 0)
(3 1.21799e-15 0)
(3 1.11509e-15 0)
(3 1.75751e-15 0)
(3 2.17069e-15 0)
(3 2.85905e-15 0)
(3 3.49095e-15 0)
(3 3.30709e-15 0)
(3 -1.68093e-16 0)
(3 -3.00927e-16 0)
(3 -3.4829e-16 0)
(3 -4.93174e-16 0)
(3 -6.69433e-16 0)
(3 -4.36827e-16 0)
(3 -2.7074e-16 0)
(3 -4.36197e-16 0)
(3 -5.56394e-16 0)
(3 1.45395e-16 0)
(3 1.4681e-15 0)
(3 1.46614e-15 0)
(3 -3.70994e-16 0)
(3 -1.2746e-15 0)
(3 -1.61722e-15 0)
(3 -1.01827e-15 0)
(3 -2.72169e-17 0)
(3 2.91522e-16 0)
(3 5.46289e-16 0)
(3 1.18396e-15 0)
(3 1.8179e-15 0)
(3 1.47233e-15 0)
(3 2.10355e-15 0)
(3 1.4225e-15 0)
(3 1.5445e-15 0)
(3 2.74251e-15 0)
(3 2.72628e-15 0)
(3 2.59486e-15 0)
(3 1.99685e-15 0)
(3 1.76269e-15 0)
(3 -3.38099e-17 0)
(3 -2.1075e-16 0)
(3 -6.0612e-16 0)
(3 -1.23969e-15 0)
(3 -1.61191e-15 0)
(3 -1.19153e-15 0)
(3 -7.38572e-16 0)
(3 -6.10505e-16 0)
(3 -1.85245e-15 0)
(3 -1.26805e-15 0)
(3 -3.40439e-16 0)
(3 1.91264e-16 0)
(3 -5.48618e-16 0)
(3 -1.13162e-17 0)
(3 5.89385e-16 0)
(3 7.97589e-17 0)
(3 -1.15438e-15 0)
(3 -1.44535e-15 0)
(3 -2.9407e-17 0)
(3 1.3612e-15 0)
(3 2.35504e-15 0)
(3 2.09701e-15 0)
(3 1.75838e-15 0)
(3 9.29233e-16 0)
(3 9.28574e-16 0)
(3 2.03471e-15 0)
(3 1.15296e-15 0)
(3 1.76962e-16 0)
(3 4.40201e-17 0)
(3 -5.76738e-16 0)
(3 -1.29331e-17 0)
(3 -6.55848e-17 0)
(3 -2.32099e-16 0)
(3 -4.9892e-16 0)
(3 -5.01813e-16 0)
(3 -7.22684e-16 0)
(3 -6.90368e-16 0)
(3 -9.09597e-16 0)
(3 -9.23761e-16 0)
(3 -1.69101e-16 0)
(3 -8.39094e-17 0)
(3 -1.58521e-16 0)
(3 2.77938e-16 0)
(3 9.51713e-16 0)
(3 1.37275e-15 0)
(3 9.62878e-16 0)
(3 -2.52387e-16 0)
(3 -6.62895e-16 0)
(3 7.68015e-16 0)
(3 1.84641e-15 0)
(3 1.78525e-15 0)
(3 1.62395e-15 0)
(3 1.23641e-15 0)
(3 1.11066e-15 0)
(3 8.02865e-16 0)
(3 5.45e-16 0)
(3 2.51569e-18 0)
(3 5.82461e-16 0)
(3 9.06891e-16 0)
(3 -2.78614e-16 0)
(1.44054 1.33254 0)
(1.87463 1.25672 0)
(2.31225 1.29076 0)
(2.44362 1.05612 0)
(2.4372 0.469895 0)
(2.51471 -0.0501419 0)
(2.55325 -0.360454 0)
(2.53067 -0.42213 0)
(2.44486 -0.418519 0)
(2.44618 -0.29448 0)
(2.46535 -0.218071 0)
(2.46543 -0.246916 0)
(2.49542 -0.26163 0)
(2.50322 -0.228156 0)
(2.45743 -0.197715 0)
(2.41592 -0.144174 0)