/*--------------------------------*- C++ -*----------------------------------*\
  =========                 |
  \\      /  F ield         | OpenFOAM: The Open Source CFD Toolbox
   \\    /   O peration     | Website:  https://openfoam.org
    \\  /    A nd           | Version:  7
     \\/     M anipulation  |
\*---------------------------------------------------------------------------*/
FoamFile
{
    version     2.0;
    format      ascii;
    class       volScalarField;
    location    "1";
    object      p;
}
// * * * * * * * * * * * * * * * * * * * * * * * * * * * * * * * * * * * * * //

dimensions      [0 2 -2 0 0 0 0];

internalField   nonuniform List<scalar> 
306000
(
-0.220236
-0.22797
-0.230032
-0.232978
-0.234442
-0.235544
-0.235969
-0.235859
-0.23512
-0.2337
-0.231505
-0.228445
-0.224432
-0.21939
-0.213262
-0.206013
-0.197631
-0.188134
-0.177562
-0.165985
-0.153496
-0.140209
-0.126257
-0.111789
-0.0969609
-0.0819384
-0.066887
-0.051969
-0.0373395
-0.0231429
-0.00951025
0.00344432
0.0156247
0.0269541
0.0373751
0.0468501
0.0553596
0.0629014
0.069489
0.075149
0.0799197
0.0838485
0.0869895
0.0894019
0.0911477
0.0922904
0.0928927
0.0930163
0.0927201
0.0920597
0.091087
0.0898498
0.0883913
0.0867509
0.084963
0.0830594
0.0810645
0.0790085
0.0768944
0.0747845
-0.220355
-0.228082
-0.230143
-0.233087
-0.23455
-0.235652
-0.236077
-0.235967
-0.23523
-0.233812
-0.231619
-0.228562
-0.224552
-0.219513
-0.213389
-0.206143
-0.197765
-0.188271
-0.177703
-0.166129
-0.153642
-0.140357
-0.126407
-0.111939
-0.097112
-0.0820893
-0.0670373
-0.0521181
-0.0374868
-0.023288
-0.00965271
0.00330485
0.0154885
0.0268215
0.0372463
0.0467252
0.0552388
0.0627848
0.0693765
0.0750408
0.0798157
0.0837487
0.0868938
0.0893103
0.0910601
0.0922066
0.0928128
0.0929401
0.0926474
0.0919904
0.0910211
0.089787
0.0883316
0.0866941
0.0849089
0.0830079
0.0810156
0.078962
0.0768501
0.0747427
-0.220593
-0.228307
-0.230365
-0.233305
-0.234766
-0.235866
-0.236292
-0.236184
-0.23545
-0.234035
-0.231847
-0.228796
-0.224791
-0.219759
-0.213642
-0.206403
-0.198033
-0.188545
-0.177984
-0.166416
-0.153934
-0.140653
-0.126706
-0.11224
-0.0974139
-0.082391
-0.0673376
-0.052416
-0.0377813
-0.023578
-0.00993747
0.00302607
0.0152164
0.0265564
0.0369888
0.0464756
0.0549973
0.0625516
0.0691518
0.0748245
0.0796079
0.0835492
0.0867026
0.0891272
0.090885
0.0920393
0.092653
0.0927877
0.0925021
0.091852
0.0908892
0.0896615
0.0882121
0.0865804
0.0848009
0.0829051
0.0809178
0.0788691
0.0767614
0.0746591
-0.220949
-0.228644
-0.230697
-0.23363
-0.235089
-0.236188
-0.236615
-0.236509
-0.235779
-0.23437
-0.232189
-0.229145
-0.225151
-0.220129
-0.214022
-0.206794
-0.198434
-0.188957
-0.178405
-0.166845
-0.154371
-0.141097
-0.127154
-0.112691
-0.0978663
-0.082843
-0.0677875
-0.0528623
-0.0382225
-0.0240126
-0.0103642
0.00260831
0.0148085
0.0261592
0.036603
0.0461016
0.0546355
0.0622022
0.068815
0.0745004
0.0792964
0.0832502
0.086416
0.0888528
0.0906225
0.0917885
0.0924136
0.0925592
0.0922843
0.0916445
0.0906916
0.0894734
0.0880331
0.0864101
0.0846388
0.0827511
0.0807712
0.0787298
0.0766284
0.0745338
-0.221424
-0.229093
-0.23114
-0.234064
-0.23552
-0.236617
-0.237044
-0.236942
-0.236217
-0.234816
-0.232644
-0.229611
-0.225629
-0.22062
-0.214527
-0.207314
-0.198968
-0.189505
-0.178965
-0.167418
-0.154954
-0.141687
-0.127751
-0.113292
-0.0984688
-0.0834449
-0.0683867
-0.0534567
-0.0388099
-0.0245912
-0.0109323
0.00205207
0.0142654
0.0256304
0.0360892
0.0456036
0.0541537
0.061737
0.0683666
0.0740688
0.0788816
0.0828521
0.0860344
0.0884874
0.090273
0.0914545
0.0920947
0.092255
0.0919943
0.0913681
0.0904284
0.0892228
0.0877947
0.0861833
0.084423
0.0825458
0.0805759
0.0785442
0.0764512
0.0743668
-0.222016
-0.229652
-0.231692
-0.234606
-0.236057
-0.237152
-0.23758
-0.237482
-0.236764
-0.235372
-0.233212
-0.230193
-0.226225
-0.221233
-0.215158
-0.207963
-0.199634
-0.190188
-0.179665
-0.168132
-0.15568
-0.142424
-0.128495
-0.114041
-0.0992205
-0.084196
-0.0691343
-0.0541983
-0.0395429
-0.0253132
-0.0116413
0.00135801
0.0135878
0.0249705
0.0354482
0.0449822
0.0535525
0.0611565
0.067807
0.0735302
0.078364
0.0823553
0.0855581
0.0880314
0.0898368
0.0910377
0.0916967
0.0918753
0.0916322
0.0910232
0.0900999
0.0889101
0.0874971
0.0859001
0.0841536
0.0822896
0.080332
0.0783125
0.07623
0.0741584
-0.222726
-0.230323
-0.232354
-0.235254
-0.2367
-0.237792
-0.238222
-0.238129
-0.237418
-0.236037
-0.233891
-0.230889
-0.22694
-0.221968
-0.215913
-0.208739
-0.200432
-0.191006
-0.180502
-0.168986
-0.15655
-0.143306
-0.129387
-0.114939
-0.100121
-0.0850953
-0.0700296
-0.0550863
-0.0404205
-0.0261777
-0.0124902
0.000526935
0.0127764
0.0241804
0.0346806
0.0442381
0.0528327
0.0604614
0.0671369
0.0728852
0.0777441
0.0817603
0.0849878
0.0874852
0.0893144
0.0905384
0.09122
0.0914204
0.0911986
0.0906099
0.0897063
0.0885354
0.0871405
0.0855608
0.0838308
0.0819825
0.0800398
0.0780348
0.0759649
0.0739085
-0.223551
-0.231103
-0.233123
-0.236008
-0.237448
-0.238537
-0.238969
-0.238881
-0.23818
-0.236812
-0.234682
-0.231698
-0.227771
-0.222822
-0.216792
-0.209643
-0.201361
-0.191959
-0.181477
-0.169981
-0.157562
-0.144332
-0.130424
-0.115983
-0.101168
-0.0861419
-0.0710715
-0.0561194
-0.0414418
-0.0271837
-0.013478
-0.000440166
0.0118322
0.0232609
0.0337873
0.0433721
0.051995
0.0596525
0.066357
0.0721346
0.0770227
0.0810679
0.0843239
0.0868495
0.0887063
0.0899573
0.0906651
0.090891
0.0906937
0.0901288
0.0892481
0.0880991
0.0867252
0.0851657
0.0834549
0.0816249
0.0796995
0.0777114
0.0756561
0.0736175
-0.224491
-0.231991
-0.234
-0.236867
-0.2383
-0.239386
-0.23982
-0.239738
-0.239047
-0.237694
-0.235583
-0.232621
-0.228718
-0.223795
-0.217793
-0.210672
-0.202418
-0.193043
-0.182587
-0.171114
-0.158715
-0.145502
-0.131606
-0.117173
-0.102361
-0.0873345
-0.0722588
-0.0572967
-0.0426054
-0.02833
-0.0146036
-0.00154215
0.0107563
0.0222132
0.0327694
0.0423854
0.0510404
0.0587306
0.0654684
0.0712792
0.0762005
0.0802787
0.0835674
0.086125
0.0880132
0.0892948
0.0900325
0.0902873
0.0901181
0.0895803
0.0887256
0.0876016
0.0862517
0.0847151
0.0830261
0.0812171
0.0793113
0.0773425
0.0753039
0.0732855
-0.225545
-0.232988
-0.234983
-0.237831
-0.239256
-0.240338
-0.240773
-0.240698
-0.24002
-0.238683
-0.236592
-0.233655
-0.229779
-0.224886
-0.218915
-0.211826
-0.203604
-0.19426
-0.183832
-0.172385
-0.160008
-0.146813
-0.132931
-0.118507
-0.1037
-0.0886716
-0.0735898
-0.0586168
-0.0439101
-0.0296152
-0.0158656
-0.00277773
0.00954999
0.0210385
0.0316281
0.0412791
0.04997
0.057697
0.0644719
0.07032
0.0752786
0.0793937
0.0827188
0.0853124
0.0872358
0.0885517
0.0893228
0.0896102
0.0894723
0.0889648
0.0881393
0.0870434
0.0857203
0.0842094
0.082545
0.0807593
0.0788756
0.0769284
0.0749085
0.0729127
-0.226712
-0.23409
-0.236071
-0.238897
-0.240313
-0.241391
-0.241829
-0.241762
-0.241096
-0.239778
-0.23771
-0.234799
-0.230954
-0.226094
-0.220157
-0.213103
-0.204916
-0.195606
-0.18521
-0.173791
-0.161439
-0.148265
-0.134398
-0.119984
-0.105181
-0.0901518
-0.0750632
-0.0600781
-0.0453543
-0.0310379
-0.0172626
-0.00414545
0.00821465
0.0197381
0.0303648
0.0400543
0.0487851
0.0565527
0.0633687
0.0692581
0.0742578
0.0784138
0.0817793
0.0844125
0.0863748
0.0877288
0.0885369
0.0888601
0.088757
0.0882831
0.0874898
0.0864249
0.0851315
0.083649
0.0820117
0.080252
0.0783927
0.0764694
0.0744702
0.0724995
-0.227989
-0.235298
-0.237263
-0.240065
-0.241472
-0.242544
-0.242985
-0.242926
-0.242275
-0.240976
-0.238933
-0.236052
-0.23224
-0.227416
-0.221517
-0.214502
-0.206353
-0.19708
-0.186718
-0.175332
-0.163007
-0.149855
-0.136004
-0.121602
-0.106803
-0.0917731
-0.0766772
-0.0616789
-0.0469364
-0.0325964
-0.018793
-0.0056437
0.00675187
0.0183136
0.0289808
0.0387127
0.047487
0.0552991
0.06216
0.0680946
0.0731393
0.0773401
0.0807497
0.0834264
0.0854313
0.0868269
0.0876754
0.0880379
0.0879729
0.0875356
0.0867777
0.0857467
0.0844859
0.0830345
0.0814268
0.0796955
0.0778629
0.0759658
0.0739893
0.0720461
-0.229377
-0.23661
-0.238557
-0.241333
-0.24273
-0.243797
-0.24424
-0.24419
-0.243555
-0.242278
-0.240262
-0.237413
-0.233636
-0.228852
-0.222994
-0.216021
-0.207914
-0.198681
-0.188357
-0.177004
-0.164709
-0.151581
-0.137749
-0.123359
-0.108565
-0.0935338
-0.0784299
-0.0634173
-0.0486545
-0.0342888
-0.0204548
-0.00727073
0.00516334
0.0167666
0.0274778
0.0372556
0.0460772
0.0539376
0.0608473
0.0668309
0.0719245
0.0761737
0.0796313
0.0823551
0.0844062
0.0858468
0.0867393
0.0871444
0.0871206
0.0867231
0.0860035
0.0850094
0.0837839
0.0823663
0.0807908
0.0790903
0.0772867
0.0754181
0.0734662
0.0715529
-0.230872
-0.238024
-0.239951
-0.2427
-0.244085
-0.245147
-0.245592
-0.245552
-0.244934
-0.24368
-0.241693
-0.238879
-0.235141
-0.230399
-0.224585
-0.217658
-0.209595
-0.200406
-0.190123
-0.178807
-0.166544
-0.153442
-0.13963
-0.125252
-0.110465
-0.0954317
-0.0803192
-0.0652912
-0.0505065
-0.0361132
-0.0222463
-0.00902463
0.00345094
0.0150989
0.0258576
0.0356848
0.0445574
0.0524697
0.059432
0.0654683
0.0706145
0.0749159
0.0784251
0.0811997
0.0833004
0.0847896
0.0857294
0.0861804
0.086201
0.0858464
0.0851681
0.0842136
0.0830261
0.0816449
0.0801042
0.0784369
0.0766646
0.0748266
0.0729012
0.0710201
-0.232474
-0.239538
-0.241445
-0.244164
-0.245537
-0.246592
-0.247041
-0.247011
-0.24641
-0.245182
-0.243226
-0.240448
-0.236753
-0.232055
-0.22629
-0.21941
-0.211396
-0.202253
-0.192014
-0.180738
-0.168509
-0.155435
-0.141644
-0.12728
-0.112499
-0.0974646
-0.082343
-0.0672985
-0.0524904
-0.0380675
-0.0241652
-0.0109033
0.00161666
0.0133126
0.024122
0.0340021
0.0429292
0.0508972
0.0579156
0.0640084
0.0692109
0.0735682
0.0771325
0.0799613
0.0821153
0.0836564
0.0846467
0.0851468
0.0852149
0.0849062
0.0842721
0.0833601
0.0822133
0.080871
0.0793675
0.0777358
0.0759969
0.0741918
0.0722949
0.0704482
-0.23418
-0.241151
-0.243036
-0.245723
-0.247084
-0.248132
-0.248583
-0.248565
-0.247983
-0.246781
-0.244858
-0.24212
-0.238468
-0.233819
-0.228104
-0.221277
-0.213314
-0.204221
-0.194028
-0.182794
-0.170602
-0.157558
-0.14379
-0.129441
-0.114666
-0.0996301
-0.0844988
-0.0694368
-0.0546037
-0.0401492
-0.0262094
-0.0129047
-0.000337373
0.0114096
0.022273
0.0322095
0.0411946
0.0492217
0.0563
0.0624527
0.0677151
0.0721318
0.0757548
0.0786414
0.0808519
0.0824483
0.0834924
0.0840447
0.0841633
0.0839034
0.0833163
0.0824495
0.081346
0.0800453
0.0785813
0.0769875
0.0752843
0.0735141
0.0716475
0.0698376
-0.235988
-0.24286
-0.244723
-0.247376
-0.248723
-0.249763
-0.250218
-0.250211
-0.249649
-0.248475
-0.246588
-0.243891
-0.240287
-0.235689
-0.230027
-0.223255
-0.215347
-0.206307
-0.196163
-0.184974
-0.17282
-0.159808
-0.146065
-0.131731
-0.116964
-0.101926
-0.0867842
-0.0717035
-0.0568441
-0.0423561
-0.0283765
-0.0150263
-0.00240888
0.00939213
0.0203128
0.0303089
0.0393555
0.0474452
0.0545868
0.0608031
0.0661289
0.0706084
0.0742936
0.0772412
0.0795116
0.0811664
0.0822675
0.082875
0.0830472
0.082839
0.0823017
0.0814827
0.0804251
0.0791683
0.0777463
0.0761926
0.0745272
0.0727941
0.0709596
0.0691886
-0.237896
-0.244665
-0.246503
-0.24912
-0.250452
-0.251485
-0.251944
-0.251948
-0.251408
-0.250263
-0.248413
-0.24576
-0.242205
-0.237661
-0.232056
-0.225342
-0.217492
-0.208507
-0.198416
-0.187274
-0.175162
-0.162184
-0.148465
-0.134148
-0.119388
-0.104349
-0.0891963
-0.0740961
-0.0592088
-0.0446855
-0.0306638
-0.0172658
-0.00459547
0.00726256
0.0182436
0.0283026
0.037414
0.0455697
0.052778
0.0590613
0.0644538
0.0689996
0.0727502
0.0757622
0.0780957
0.0798121
0.0809732
0.081639
0.0818676
0.0817138
0.081229
0.0804605
0.0794514
0.0782409
0.0768631
0.0753517
0.0737263
0.0720323
0.0702317
0.0685019
-0.239902
-0.246562
-0.248374
-0.250954
-0.252271
-0.253296
-0.253757
-0.253774
-0.253256
-0.252142
-0.250331
-0.247724
-0.244221
-0.239734
-0.234189
-0.227536
-0.219746
-0.21082
-0.200785
-0.189692
-0.177623
-0.164681
-0.150989
-0.13669
-0.121938
-0.106897
-0.0917325
-0.0766117
-0.0616951
-0.0471347
-0.0330689
-0.0196205
-0.00689462
0.00502333
0.0160677
0.0261929
0.0353722
0.0435973
0.0508756
0.0572292
0.0626918
0.0673071
0.0711264
0.0742059
0.0766056
0.0783867
0.0796107
0.0803377
0.0806255
0.080529
0.0800993
0.0793838
0.0784255
0.0772637
0.0759324
0.0744655
0.072882
0.0712292
0.0694643
0.0677777
-0.242004
-0.24855
-0.250335
-0.252875
-0.254176
-0.255192
-0.255657
-0.255687
-0.255192
-0.25411
-0.25234
-0.249782
-0.246333
-0.241905
-0.236422
-0.229833
-0.222108
-0.213243
-0.203265
-0.192225
-0.180202
-0.167297
-0.153633
-0.139353
-0.124609
-0.109566
-0.0943898
-0.0792473
-0.0643002
-0.0497009
-0.0355888
-0.0220878
-0.00930367
0.00267699
0.0137877
0.023982
0.0332325
0.0415301
0.0488817
0.0553087
0.0608446
0.0655327
0.0694237
0.0725739
0.0750428
0.0768916
0.0781814
0.0789724
0.0793222
0.0792855
0.0789135
0.0782535
0.0773484
0.0762376
0.0749549
0.0735347
0.0719952
0.0703855
0.0686579
0.0670166
-0.244198
-0.250626
-0.252383
-0.254881
-0.256166
-0.257172
-0.25764
-0.257684
-0.257213
-0.256165
-0.254437
-0.251929
-0.248538
-0.244171
-0.238754
-0.232232
-0.224573
-0.215773
-0.205856
-0.194871
-0.182895
-0.170028
-0.156395
-0.142133
-0.127399
-0.112354
-0.097165
-0.0820001
-0.067021
-0.0523811
-0.0382207
-0.0246647
-0.0118199
0.000226227
0.0114062
0.0216725
0.0309973
0.0393704
0.0467984
0.053302
0.0589143
0.0636782
0.067644
0.0708678
0.0734089
0.0753281
0.0766867
0.0775443
0.0779587
0.0779845
0.0776726
0.0770705
0.0762209
0.0751634
0.0739315
0.0725599
0.0710663
0.0695016
0.0678132
0.0662192
-0.246484
-0.252788
-0.254516
-0.256971
-0.258237
-0.259234
-0.259706
-0.259763
-0.259317
-0.258304
-0.25662
-0.254164
-0.250832
-0.24653
-0.241182
-0.234729
-0.22714
-0.218407
-0.208553
-0.197625
-0.185698
-0.172873
-0.15927
-0.145029
-0.130304
-0.115257
-0.100055
-0.0848666
-0.0698543
-0.0551722
-0.0409616
-0.0273483
-0.0144403
-0.00232617
0.00892575
0.0192671
0.0286689
0.0371206
0.044628
0.0512112
0.0569029
0.0617455
0.0657891
0.0690894
0.0717054
0.0736979
0.0751278
0.0760548
0.0765363
0.076627
0.0763778
0.0758358
0.075044
0.0740418
0.0728629
0.071542
0.0700961
0.0685784
0.0669306
0.065386
-0.248858
-0.255033
-0.25673
-0.259141
-0.260389
-0.261375
-0.26185
-0.261922
-0.261501
-0.260524
-0.258886
-0.256485
-0.253214
-0.248979
-0.243701
-0.237321
-0.229804
-0.221142
-0.211353
-0.200484
-0.188609
-0.175827
-0.162256
-0.148036
-0.13332
-0.118272
-0.103057
-0.0878438
-0.0727969
-0.058071
-0.0438082
-0.0301356
-0.0171621
-0.00497732
0.00634924
0.0167683
0.0262501
0.0347833
0.0423728
0.0490386
0.0548125
0.0597366
0.0638608
0.0672403
0.069934
0.0720025
0.0735063
0.0745052
0.0750563
0.0752143
0.07503
0.0745505
0.0738187
0.0728739
0.0717499
0.0704816
0.0690854
0.0676163
0.0660108
0.0645175
-0.251316
-0.25736
-0.259025
-0.261389
-0.262617
-0.263593
-0.264071
-0.264158
-0.263763
-0.262823
-0.261233
-0.258888
-0.25568
-0.251515
-0.24631
-0.240006
-0.232563
-0.223974
-0.214253
-0.203446
-0.191625
-0.178886
-0.165349
-0.151151
-0.136446
-0.121395
-0.106166
-0.090928
-0.0758455
-0.0610742
-0.0467574
-0.0330233
-0.019982
-0.00772422
0.00367952
0.014179
0.0237434
0.0323608
0.0400354
0.0467863
0.0526452
0.0576536
0.0618611
0.0653225
0.0680965
0.0702434
0.0718237
0.0728968
0.07352
0.0737476
0.0736305
0.0732156
0.0725458
0.0716606
0.0705933
0.0693796
0.0680347
0.0666162
0.0650545
0.0636143
-0.253858
-0.259765
-0.261397
-0.263713
-0.264921
-0.265885
-0.266367
-0.266468
-0.266101
-0.265199
-0.263657
-0.26137
-0.258228
-0.254135
-0.249006
-0.242779
-0.235414
-0.2269
-0.217249
-0.206507
-0.194741
-0.182048
-0.168546
-0.154371
-0.139676
-0.124623
-0.10938
-0.0941158
-0.0789964
-0.0641783
-0.0498058
-0.0360082
-0.0228969
-0.0105638
0.000919583
0.0115019
0.0211517
0.0298558
0.037618
0.0444568
0.0504033
0.0554987
0.0597919
0.0633377
0.0661945
0.0684223
0.0700815
0.0712313
0.0719288
0.0722282
0.0721803
0.0718322
0.0712264
0.0704027
0.0693942
0.0682367
0.066945
0.0655787
0.0640623
0.0626771
-0.256479
-0.262246
-0.263844
-0.26611
-0.267297
-0.268249
-0.268734
-0.26885
-0.26851
-0.267648
-0.266156
-0.263929
-0.260855
-0.256835
-0.251785
-0.245638
-0.238353
-0.229916
-0.220339
-0.209662
-0.197954
-0.185309
-0.171842
-0.157691
-0.143007
-0.127952
-0.112694
-0.0974035
-0.0822462
-0.0673798
-0.0529499
-0.039087
-0.0259036
-0.0134929
-0.00192753
0.00874012
0.0184776
0.027271
0.0351233
0.0420526
0.0480891
0.0532738
0.0576553
0.061288
0.0642299
0.066541
0.0682813
0.0695099
0.0702839
0.0706573
0.0706808
0.0704013
0.0698616
0.0691012
0.0681532
0.0670538
0.0658169
0.0645044
0.0630348
0.0617063
-0.259178
-0.2648
-0.266362
-0.268577
-0.269743
-0.270682
-0.27117
-0.271301
-0.27099
-0.270168
-0.268728
-0.266561
-0.263557
-0.259613
-0.254643
-0.248579
-0.241377
-0.23302
-0.223518
-0.212909
-0.201261
-0.188664
-0.175235
-0.161108
-0.146435
-0.131378
-0.116105
-0.100787
-0.085591
-0.070675
-0.0561861
-0.0422561
-0.0289986
-0.0165082
-0.00485868
0.00589657
0.0157241
0.0246091
0.032554
0.0395759
0.045705
0.0509813
0.0554534
0.0591752
0.0622045
0.064601
0.0664247
0.0677343
0.0685868
0.0690362
0.0691331
0.0689243
0.0684524
0.0677571
0.0668715
0.0658318
0.0646513
0.0633943
0.0619728
0.0607028
-0.26195
-0.267424
-0.268951
-0.271113
-0.272255
-0.273182
-0.273672
-0.273819
-0.273536
-0.272755
-0.271368
-0.269264
-0.266331
-0.262466
-0.257578
-0.251599
-0.244482
-0.236207
-0.226783
-0.216244
-0.204657
-0.19211
-0.178719
-0.164618
-0.149957
-0.134898
-0.11961
-0.104264
-0.0890272
-0.0740603
-0.0595109
-0.0455119
-0.0321786
-0.0196065
-0.00787068
0.00297434
0.0128941
0.021873
0.0299126
0.0370295
0.0432532
0.0486235
0.0531883
0.0570014
0.0601202
0.0626043
0.0645133
0.065906
0.066839
0.0673663
0.0675384
0.0674021
0.0669999
0.0663715
0.0655498
0.0645715
0.063449
0.062249
0.060877
0.0596671
-0.264793
-0.270117
-0.271605
-0.273713
-0.274832
-0.275745
-0.276238
-0.2764
-0.276147
-0.275407
-0.274074
-0.272034
-0.269174
-0.265389
-0.260587
-0.254695
-0.247665
-0.239474
-0.230129
-0.219663
-0.208138
-0.195644
-0.182292
-0.168216
-0.153567
-0.138506
-0.123203
-0.107828
-0.0925507
-0.0775318
-0.0629204
-0.048851
-0.03544
-0.0227843
-0.0109602
-2.34404e-05
0.0099906
0.0190655
0.0272019
0.0344159
0.0407363
0.0462026
0.0508622
0.0547686
0.057979
0.0605526
0.0625489
0.0640265
0.0650419
0.065649
0.0658981
0.0658361
0.0655053
0.0649454
0.0641892
0.0632739
0.0622108
0.0610692
0.0597481
0.0585998
-0.267705
-0.272874
-0.274324
-0.276376
-0.277471
-0.278369
-0.278864
-0.279043
-0.278819
-0.278122
-0.276843
-0.274868
-0.272084
-0.26838
-0.263665
-0.257862
-0.250921
-0.242818
-0.233554
-0.223162
-0.211702
-0.19926
-0.185949
-0.1719
-0.157263
-0.142201
-0.126881
-0.111477
-0.0961578
-0.0810856
-0.066411
-0.0522696
-0.0387792
-0.0260382
-0.014124
-0.00309357
0.0070167
0.0161894
0.0244247
0.0317377
0.0381568
0.0437209
0.0484772
0.0524788
0.0557826
0.0584476
0.0605331
0.0620974
0.063197
0.0638857
0.0642135
0.0642273
0.0639695
0.0634797
0.0627907
0.0619398
0.0609376
0.0598559
0.0585868
0.0575018
-0.270681
-0.275693
-0.277104
-0.279099
-0.280169
-0.281052
-0.281549
-0.281743
-0.281549
-0.280895
-0.279671
-0.277764
-0.275055
-0.271436
-0.266808
-0.261097
-0.254248
-0.246233
-0.237053
-0.226736
-0.215342
-0.202955
-0.189685
-0.175664
-0.16104
-0.145976
-0.13064
-0.115206
-0.0998442
-0.0847178
-0.0699787
-0.0557638
-0.0421926
-0.0293646
-0.0173587
-0.0062328
0.00397547
0.0132479
0.0215837
0.0289975
0.0355171
0.0411809
0.0460357
0.0501342
0.0535332
0.0562913
0.0584676
0.0601204
0.0613059
0.0620777
0.0624859
0.0625771
0.0623939
0.0619757
0.0613552
0.0605701
0.0596302
0.0586098
0.0573939
0.0563736
-0.273719
-0.278571
-0.279941
-0.281879
-0.282922
-0.28379
-0.284288
-0.284498
-0.284334
-0.283724
-0.282557
-0.280717
-0.278086
-0.274552
-0.270015
-0.264397
-0.257641
-0.249717
-0.240622
-0.230383
-0.219056
-0.206725
-0.193497
-0.179505
-0.164894
-0.149828
-0.134476
-0.119011
-0.103606
-0.0884244
-0.0736195
-0.05933
-0.0456764
-0.03276
-0.0206607
-0.00943785
0.000870049
0.0102438
0.0186818
0.0261981
0.0328197
0.0385849
0.0435398
0.047737
0.0512327
0.0540855
0.0563543
0.0580971
0.05937
0.0602265
0.0607165
0.0608868
0.0607795
0.0604343
0.0598837
0.0591659
0.0582895
0.0573316
0.0561702
0.055216
-0.276816
-0.281505
-0.282835
-0.284712
-0.285729
-0.286581
-0.28708
-0.287305
-0.287171
-0.286605
-0.285496
-0.283725
-0.281173
-0.277725
-0.27328
-0.267757
-0.261097
-0.253265
-0.244257
-0.234097
-0.22284
-0.210565
-0.197381
-0.183417
-0.16882
-0.153752
-0.138384
-0.122888
-0.107439
-0.0922012
-0.0773296
-0.0629642
-0.0492271
-0.0362207
-0.0240267
-0.0127054
-0.00229638
0.00718016
0.0157219
0.0233421
0.0300674
0.0359353
0.0409919
0.0452891
0.0488831
0.0518322
0.0541949
0.0560291
0.0573909
0.0583335
0.0589068
0.0591574
0.0591275
0.0588567
0.0583774
0.057728
0.0569164
0.0560223
0.0549164
0.0540296
-0.279969
-0.284493
-0.28578
-0.287597
-0.288587
-0.289421
-0.289922
-0.290162
-0.290058
-0.289537
-0.288485
-0.286784
-0.284312
-0.280952
-0.276601
-0.271175
-0.264611
-0.256873
-0.247954
-0.237875
-0.226688
-0.214472
-0.201332
-0.187397
-0.172814
-0.157745
-0.142359
-0.126833
-0.111339
-0.0960442
-0.0811049
-0.0666625
-0.0528406
-0.0397432
-0.0274532
-0.0160321
-0.00552062
0.00406006
0.0127068
0.0204323
0.0272626
0.0332347
0.0383942
0.0427929
0.0464865
0.0495331
0.0519911
0.0539182
0.0553702
0.0564002
0.0570582
0.0573904
0.0574392
0.057244
0.0568372
0.0562575
0.0555118
0.0546827
0.0536333
0.0528153
-0.283174
-0.287532
-0.288776
-0.290531
-0.291492
-0.292309
-0.292809
-0.293064
-0.292991
-0.292515
-0.291521
-0.289891
-0.287499
-0.284229
-0.279973
-0.274645
-0.26818
-0.260538
-0.251709
-0.241712
-0.230597
-0.21844
-0.205345
-0.191441
-0.176872
-0.161801
-0.146399
-0.130841
-0.115302
-0.0999492
-0.0849414
-0.070421
-0.0565133
-0.0433237
-0.0309365
-0.0194145
-0.00879944
0.000886558
0.00963956
0.0174715
0.0244079
0.0304854
0.0357491
0.0402504
0.0440449
0.0471903
0.0497448
0.051766
0.0533094
0.0544282
0.0551719
0.0555871
0.0557157
0.0555973
0.0552641
0.0547553
0.0540767
0.0533137
0.0523218
0.0515738
-0.286429
-0.290618
-0.291818
-0.29351
-0.294442
-0.29524
-0.295741
-0.29601
-0.295968
-0.295536
-0.294601
-0.293042
-0.290733
-0.287553
-0.283394
-0.278165
-0.2718
-0.264255
-0.255518
-0.245605
-0.234562
-0.222466
-0.209417
-0.195543
-0.180989
-0.165917
-0.150498
-0.134908
-0.119323
-0.103912
-0.0888348
-0.0742356
-0.0602413
-0.0469586
-0.0344732
-0.0228492
-0.0121296
-0.00233726
0.006523
0.0144625
0.0215061
0.02769
0.0330589
0.0376639
0.0415604
0.0448056
0.0474578
0.0495741
0.0512102
0.0524187
0.0532495
0.0537486
0.0539582
0.0539178
0.0536593
0.0532224
0.0526119
0.051916
0.0509826
0.0503058
-0.28973
-0.293748
-0.294904
-0.296532
-0.297434
-0.298213
-0.298713
-0.298997
-0.298984
-0.298597
-0.297722
-0.296235
-0.294008
-0.29092
-0.286858
-0.281731
-0.275466
-0.26802
-0.259376
-0.249548
-0.23858
-0.226545
-0.213543
-0.1997
-0.185161
-0.170088
-0.154651
-0.139029
-0.123398
-0.107928
-0.0927812
-0.0781025
-0.0640206
-0.050644
-0.0380597
-0.0263329
-0.0155078
-0.00560829
0.00336009
0.0114079
0.0185596
0.0248508
0.0303259
0.0350356
0.0390349
0.0423811
0.0451319
0.0473444
0.049074
0.0503735
0.0512922
0.0518764
0.0521679
0.0522065
0.0520238
0.0516598
0.0511184
0.0504907
0.0496165
0.0490121
-0.293074
-0.29692
-0.29803
-0.299594
-0.300466
-0.301225
-0.301723
-0.302021
-0.302038
-0.301696
-0.30088
-0.299465
-0.297322
-0.294326
-0.290363
-0.285338
-0.279176
-0.27183
-0.26328
-0.253538
-0.242645
-0.230672
-0.217718
-0.203907
-0.189384
-0.174309
-0.158855
-0.143201
-0.127523
-0.111994
-0.0967764
-0.0820175
-0.0678475
-0.0543763
-0.0416923
-0.0298621
-0.0189308
-0.00892343
0.000153761
0.00831069
0.0155712
0.0219704
0.0275524
0.0323676
0.0364707
0.0399185
0.0427688
0.0450785
0.0469026
0.0482939
0.0493015
0.0499717
0.0503462
0.0504647
0.0503586
0.0500685
0.0495971
0.0490384
0.0482244
0.0476933
-0.296458
-0.300132
-0.301196
-0.302693
-0.303533
-0.304272
-0.304769
-0.30508
-0.305126
-0.304829
-0.304072
-0.30273
-0.300671
-0.297768
-0.293905
-0.288983
-0.282925
-0.27568
-0.267226
-0.257571
-0.246754
-0.234844
-0.221938
-0.208159
-0.193652
-0.178576
-0.163105
-0.147418
-0.131693
-0.116105
-0.100816
-0.0859767
-0.0717181
-0.0581517
-0.0453675
-0.0334333
-0.0223954
-0.0122796
-0.00309303
0.00517353
0.0125434
0.0190513
0.0247409
0.0296622
0.0338697
0.03742
0.0403705
0.0427781
0.0446976
0.0461814
0.0472788
0.0480359
0.0484942
0.0486934
0.0486649
0.0484496
0.0480489
0.0475602
0.0468072
0.0463504
-0.29988
-0.303379
-0.304396
-0.305827
-0.306635
-0.307353
-0.307846
-0.30817
-0.308246
-0.307994
-0.307296
-0.306027
-0.304052
-0.301243
-0.29748
-0.292662
-0.286708
-0.279566
-0.271208
-0.261642
-0.250902
-0.239055
-0.226198
-0.212452
-0.197961
-0.182884
-0.167397
-0.151677
-0.135905
-0.120256
-0.104896
-0.089976
-0.0756283
-0.0619665
-0.0490817
-0.0370432
-0.0258982
-0.0156736
-0.00637736
0.00199924
0.00947891
0.0160959
0.0218935
0.0269215
0.0312339
0.0348873
0.0379388
0.0404449
0.0424604
0.0440376
0.0452255
0.0460702
0.0466131
0.0468939
0.0469438
0.0468039
0.0464749
0.046057
0.0453656
0.0449841
-0.303335
-0.306659
-0.307629
-0.308992
-0.309767
-0.310463
-0.310953
-0.311289
-0.311394
-0.311186
-0.310548
-0.309351
-0.307461
-0.304746
-0.301084
-0.296371
-0.290523
-0.283484
-0.275224
-0.265746
-0.255084
-0.243303
-0.230495
-0.216782
-0.202307
-0.18723
-0.171725
-0.155972
-0.140153
-0.124445
-0.109013
-0.0940114
-0.0795745
-0.0658169
-0.0528314
-0.0406883
-0.0294361
-0.0191025
-0.0096963
-0.00120942
0.00638031
0.0131067
0.0190127
0.0241477
0.0285656
0.0323225
0.0354754
0.0380806
0.0401927
0.0418639
0.0431431
0.044076
0.0447042
0.0450672
0.0451962
0.0451326
0.0448759
0.0445295
0.0439004
0.0435952
-0.306821
-0.30997
-0.310892
-0.312187
-0.312928
-0.313601
-0.314087
-0.314435
-0.314567
-0.314403
-0.313824
-0.3127
-0.310895
-0.308275
-0.304714
-0.300107
-0.294365
-0.28743
-0.279268
-0.269881
-0.259297
-0.247581
-0.234823
-0.221144
-0.206685
-0.191608
-0.176086
-0.1603
-0.144434
-0.128665
-0.113162
-0.0980789
-0.0835527
-0.0696993
-0.0566129
-0.0443652
-0.0330057
-0.0225632
-0.0130469
-0.00444971
0.0032502
0.0100862
0.0161008
0.0213431
0.0258666
0.0297274
0.0329821
0.0356869
0.0378962
0.0396618
0.0410328
0.0420546
0.0427687
0.0432146
0.0434234
0.0434367
0.043253
0.0429788
0.0424126
0.0421843
-0.310335
-0.313308
-0.314182
-0.315408
-0.316114
-0.316763
-0.317245
-0.317603
-0.317763
-0.317643
-0.317122
-0.316071
-0.314351
-0.311825
-0.308367
-0.303865
-0.298231
-0.2914
-0.283338
-0.27404
-0.263536
-0.251885
-0.239178
-0.225533
-0.211091
-0.196013
-0.180475
-0.164656
-0.148743
-0.132914
-0.117339
-0.102175
-0.087559
-0.0736099
-0.0604228
-0.0480706
-0.036604
-0.0260525
-0.0164264
-0.0077189
9.1145e-05
0.0070367
0.0131599
0.0185096
0.0231391
0.027104
0.0304608
0.0332655
0.0355723
0.0374329
0.0388961
0.0400073
0.0408078
0.0413373
0.0416263
0.0417171
0.0416071
0.0414057
0.040903
0.0407524
-0.313874
-0.316672
-0.317496
-0.318652
-0.319324
-0.319948
-0.320424
-0.320792
-0.320979
-0.320901
-0.320439
-0.319461
-0.317825
-0.315394
-0.312038
-0.307643
-0.302116
-0.295391
-0.287428
-0.278221
-0.267797
-0.256212
-0.243556
-0.229945
-0.21552
-0.200443
-0.184887
-0.169036
-0.153076
-0.137186
-0.12154
-0.106294
-0.0915897
-0.0775451
-0.0642575
-0.0518011
-0.0402276
-0.0295675
-0.0198318
-0.0110143
-0.00309428
0.0039607
0.0101925
0.0156496
0.020385
0.0244541
0.0279132
0.0308181
0.0332227
0.0351786
0.0367344
0.0379354
0.0388228
0.0394362
0.0398061
0.039975
0.039939
0.039811
0.0393724
0.0393003
-0.317435
-0.320057
-0.320832
-0.321918
-0.322553
-0.323153
-0.323622
-0.323999
-0.324212
-0.324176
-0.323772
-0.322866
-0.321315
-0.318979
-0.315725
-0.311436
-0.306017
-0.299397
-0.291535
-0.28242
-0.272076
-0.260558
-0.247953
-0.234376
-0.219969
-0.204891
-0.189319
-0.173436
-0.157428
-0.141478
-0.125761
-0.110434
-0.095641
-0.0815012
-0.0681135
-0.0555534
-0.0438735
-0.0331053
-0.0232603
-0.0143331
-0.00630356
0.000860577
0.00720071
0.012765
0.0176063
0.0217797
0.0253412
0.0283463
0.0308489
0.0329003
0.034549
0.0358402
0.0368149
0.0375127
0.0379638
0.0382112
0.0382499
0.0381958
0.0378216
0.0378286
-0.321015
-0.323462
-0.324187
-0.325203
-0.325801
-0.326374
-0.326835
-0.327221
-0.327459
-0.327465
-0.327117
-0.326283
-0.324816
-0.322575
-0.319423
-0.315242
-0.309931
-0.303416
-0.295654
-0.286631
-0.276368
-0.264917
-0.252363
-0.238821
-0.224432
-0.209354
-0.193765
-0.17785
-0.161796
-0.145786
-0.129998
-0.114591
-0.0997091
-0.0854747
-0.0719875
-0.0593242
-0.0475386
-0.0366628
-0.0267092
-0.0176729
-0.00953419
-0.00226132
0.00418682
0.00985813
0.0148051
0.0190825
0.0227464
0.0258518
0.0284525
0.0305996
0.0323415
0.0337231
0.0347854
0.0355679
0.0361006
0.0364269
0.0365406
0.0365609
0.0362516
0.0363382
-0.324612
-0.326884
-0.327559
-0.328503
-0.329064
-0.32961
-0.330063
-0.330456
-0.330718
-0.330764
-0.330473
-0.329709
-0.328327
-0.32618
-0.32313
-0.319055
-0.313852
-0.307444
-0.299783
-0.290852
-0.280669
-0.269285
-0.256784
-0.243277
-0.228905
-0.213828
-0.198223
-0.182275
-0.166174
-0.150106
-0.134247
-0.11876
-0.10379
-0.089462
-0.0758761
-0.0631104
-0.0512197
-0.0402371
-0.0301756
-0.0210309
-0.0127837
-0.00540267
0.001153
0.00693089
0.0119832
0.0163646
0.0201306
0.0233363
0.026035
0.0282779
0.030113
0.0315852
0.0327353
0.0336028
0.0342174
0.034623
0.0348121
0.0349072
0.0346631
0.03483
-0.328222
-0.330321
-0.330945
-0.331818
-0.33234
-0.332858
-0.333302
-0.3337
-0.333985
-0.334071
-0.333836
-0.333143
-0.331843
-0.32979
-0.326842
-0.322874
-0.317779
-0.311477
-0.303916
-0.295078
-0.284976
-0.27366
-0.26121
-0.247738
-0.233384
-0.218308
-0.202687
-0.186707
-0.17056
-0.154433
-0.138504
-0.122938
-0.107881
-0.0934597
-0.0797759
-0.0669087
-0.0549139
-0.0438254
-0.0336569
-0.0244046
-0.0160497
-0.00856116
-0.00189858
0.00398537
0.00914259
0.0136275
0.0174955
0.0208012
0.023598
0.0259367
0.027865
0.0294279
0.030666
0.0316187
0.0323154
0.0328005
0.0330653
0.0332355
0.033057
0.0333046
-0.331844
-0.33377
-0.334342
-0.335143
-0.335627
-0.336116
-0.336549
-0.336953
-0.33726
-0.337384
-0.337204
-0.336579
-0.335362
-0.333402
-0.330556
-0.326694
-0.321707
-0.315511
-0.308051
-0.299305
-0.289285
-0.278035
-0.265637
-0.252201
-0.237865
-0.22279
-0.207153
-0.191142
-0.17495
-0.158764
-0.142765
-0.127121
-0.111978
-0.0974643
-0.0836836
-0.070716