/*--------------------------------*- C++ -*----------------------------------*\
  =========                 |
  \\      /  F ield         | OpenFOAM: The Open Source CFD Toolbox
   \\    /   O peration     | Website:  https://openfoam.org
    \\  /    A nd           | Version:  7
     \\/     M anipulation  |
\*---------------------------------------------------------------------------*/
FoamFile
{
    version     2.0;
    format      ascii;
    class       volScalarField;
    location    "2.1";
    object      rho;
}
// * * * * * * * * * * * * * * * * * * * * * * * * * * * * * * * * * * * * * //

dimensions      [1 -3 0 0 0 0 0];

internalField   nonuniform List<scalar> 
25200
(
1.40001
1.40001
1.40001
1.40001
1.40001
1.40001
1.40001
1.40001
1.40001
1.40001
1.40001
1.40001
1.40001
1.40001
1.40001
1.40001
1.40001
1.40001
1.40001
1.40001
1.40001
1.40001
1.40001
1.40001
1.40001
1.40001
1.40001
1.40001
1.40001
1.40001
1.40001
3.94238
5.45583
5.47185
5.49382
5.52113
5.54948
5.58124
5.6162
5.65217
5.68568
5.71428
5.73695
5.7553
5.77346
5.79482
5.81852
5.84077
5.85861
5.87213
5.88387
5.89784
5.91526
5.93373
5.94881
5.95616
5.95131
5.93767
5.92604
5.92366
1.40001
1.40001
1.40001
1.40001
1.40001
1.40001
1.40001
1.40001
1.40001
1.40001
1.40001
1.40001
1.40001
1.40001
1.40001
1.40001
1.40001
1.40001
1.40001
1.40001
1.40001
1.40001
1.40001
1.40001
1.40001
1.40001
1.40001
1.40001
1.40001
1.40001
1.40001
3.91292
5.44723
5.46848
5.4917
5.51998
5.54889
5.58084
5.61576
5.6516
5.68486
5.71334
5.73593
5.75412
5.77198
5.79288
5.8163
5.83848
5.85646
5.87009
5.88177
5.89558
5.91279
5.93103
5.94591
5.95312
5.94819
5.93465
5.92304
5.92071
1.40001
1.40001
1.40001
1.40001
1.40001
1.40001
1.40001
1.40001
1.40001
1.40001
1.40001
1.40001
1.40001
1.40001
1.40001
1.40001
1.40001
1.40001
1.40001
1.40001
1.40001
1.40001
1.40001
1.40001
1.40001
1.40001
1.40001
1.40001
1.40001
1.40001
1.40001
3.85359
5.43759
5.46186
5.48712
5.51689
5.54672
5.57899
5.61385
5.6495
5.68243
5.71077
5.73329
5.75129
5.76888
5.7894
5.81268
5.83497
5.85316
5.86682
5.87828
5.89178
5.90866
5.92657
5.94122
5.94824
5.94317
5.92965
5.91792
5.91553
1.40001
1.40001
1.40001
1.40001
1.40001
1.40001
1.40001
1.40001
1.40001
1.40001
1.40001
1.40001
1.40001
1.40001
1.40001
1.40001
1.40001
1.40001
1.40001
1.40001
1.40001
1.40001
1.40001
1.40001
1.40001
1.40001
1.40001
1.40001
1.40001
1.40001
1.40001
3.76493
5.42466
5.45402
5.48137
5.51267
5.54348
5.57602
5.61069
5.646
5.67844
5.70648
5.72883
5.74651
5.76373
5.78374
5.80688
5.82937
5.84794
5.86177
5.87304
5.88611
5.90245
5.91992
5.93435
5.94119
5.93604
5.92254
5.91046
5.90782
1.40001
1.40001
1.40001
1.40001
1.40001
1.40001
1.40001
1.40001
1.40001
1.40001
1.40001
1.40001
1.40001
1.40001
1.40001
1.40001
1.40001
1.40001
1.40001
1.40001
1.40001
1.40001
1.40001
1.40001
1.40001
1.40001
1.40001
1.40001
1.40001
1.40001
1.40001
3.64552
5.40706
5.44586
5.47466
5.50701
5.53858
5.5713
5.60575
5.64075
5.67279
5.70053
5.72277
5.7401
5.75688
5.77631
5.79924
5.82194
5.84106
5.85523
5.86629
5.87871
5.89417
5.91102
5.92533
5.93216
5.92719
5.91377
5.90115
5.89806
1.40001
1.40001
1.40001
1.40001
1.40001
1.40001
1.40001
1.40001
1.40001
1.40001
1.40001
1.40001
1.40001
1.40001
1.40001
1.40001
1.40001
1.40001
1.40001
1.40001
1.40001
1.40001
1.40001
1.40001
1.40001
1.40001
1.40001
1.40001
1.40001
1.40001
1.40001
3.49493
5.38319
5.43829
5.46751
5.50034
5.53232
5.56506
5.59921
5.63391
5.66565
5.69303
5.71511
5.73194
5.74817
5.76686
5.78942
5.81228
5.83207
5.84684
5.85787
5.86955
5.8839
5.89989
5.91402
5.92094
5.91635
5.9031
5.88992
5.88631
1.40001
1.40001
1.40001
1.40001
1.40001
1.40001
1.40001
1.40001
1.40001
1.40001
1.40001
1.40001
1.40001
1.40001
1.40001
1.40001
1.40001
1.40001
1.40001
1.40001
1.40001
1.40001
1.40001
1.40001
1.40001
1.40001
1.40001
1.40001
1.40001
1.40001
1.40001
3.31371
5.35198
5.43265
5.46079
5.49314
5.52486
5.55731
5.59095
5.62532
5.65697
5.68415
5.70638
5.72303
5.73891
5.75683
5.7787
5.80129
5.82144
5.8367
5.8476
5.85833
5.8713
5.88625
5.9002
5.90736
5.90337
5.89052
5.87701
5.87298
1.40001
1.40001
1.40001
1.40001
1.40001
1.40001
1.40001
1.40001
1.40001
1.40001
1.40001
1.40001
1.40001
1.40001
1.40001
1.40001
1.40001
1.40001
1.40001
1.40001
1.40001
1.40001
1.40001
1.40001
1.40001
1.40001
1.40001
1.40001
1.40001
1.40001
1.40001
3.10278
5.31095
5.4304
5.45595
5.48683
5.51751
5.5492
5.58186
5.61547
5.64679
5.67349
5.69574
5.71222
5.72763
5.74449
5.7652
5.78713
5.80764
5.82388
5.83545
5.84596
5.85798
5.8717
5.88487
5.89168
5.88764
5.87483
5.86105
5.85667
1.40001
1.40001
1.40001
1.40001
1.40001
1.40001
1.40001
1.40001
1.40001
1.40001
1.40001
1.40001
1.40001
1.40001
1.40001
1.40001
1.40001
1.40001
1.40001
1.40001
1.40001
1.40001
1.40001
1.40001
1.40001
1.40001
1.40001
1.40001
1.40001
1.40001
1.40001
2.86511
5.25251
5.43059
5.45224
5.48126
5.51066
5.54145
5.57303
5.60567
5.6365
5.66288
5.68567
5.70267
5.71803
5.7338
5.75265
5.77272
5.79219
5.80829
5.81991
5.83002
5.84113
5.85357
5.86583
5.87239
5.86845
5.85608
5.8427
5.83863
1.40001
1.40001
1.40001
1.40001
1.40001
1.40001
1.40001
1.40001
1.40001
1.40001
1.40001
1.40001
1.40001
1.40001
1.40001
1.40001
1.40001
1.40001
1.40001
1.40001
1.40001
1.40001
1.40001
1.40001
1.40001
1.40001
1.40001
1.40001
1.40001
1.40001
1.40001
2.60417
5.16577
5.43418
5.45105
5.4776
5.50467
5.53334
5.56257
5.59297
5.62249
5.64821
5.67114
5.68877
5.70436
5.71955
5.73691
5.75531
5.77383
5.78997
5.80206
5.8123
5.82291
5.83422
5.84513
5.85085
5.84629
5.83377
5.82062
5.81677
1.40001
1.40001
1.40001
1.40001
1.40001
1.40001
1.40001
1.40001
1.40001
1.40001
1.40001
1.40001
1.40001
1.40001
1.40001
1.40001
1.40001
1.40001
1.40001
1.40001
1.40001
1.40001
1.40001
1.40001
1.40001
1.40001
1.40001
1.40001
1.40001
1.40001
1.40001
2.3309
5.0423
5.44503
5.45308
5.47758
5.50302
5.52996
5.55722
5.58513
5.61246
5.63664
5.65881
5.67673
5.69238
5.70685
5.72232
5.73842
5.75497
5.77003
5.78174
5.79163
5.80166
5.81189
5.82112
5.82561
5.82015
5.80726
5.79427
5.79072
1.40001
1.40001
1.40001
1.40001
1.40001
1.40001
1.40001
1.40001
1.40001
1.40001
1.40001
1.40001
1.40001
1.40001
1.40001
1.40001
1.40001
1.40001
1.40001
1.40001
1.40001
1.40001
1.40001
1.40001
1.40001
1.40001
1.40001
1.40001
1.40001
1.40001
1.40001
2.05389
4.87836
5.45174
5.45833
5.48143
5.50432
5.52877
5.55332
5.57812
5.60286
5.62518
5.64593
5.66375
5.67945
5.69339
5.70703
5.72071
5.73485
5.74822
5.75909
5.76845
5.778
5.78733
5.79473
5.79731
5.79021
5.77615
5.76269
5.75901
1.40001
1.40001
1.40001
1.40001
1.40001
1.40001
1.40001
1.40001
1.40001
1.40001
1.40001
1.40001
1.40001
1.40001
1.40001
1.40001
1.40001
1.40001
1.40001
1.40001
1.40001
1.40001
1.40001
1.40001
1.40001
1.40001
1.40001
1.40001
1.40001
1.40001
1.40001
1.79006
4.68588
5.46904
5.45619
5.48152
5.50317
5.52684
5.54942
5.57102
5.59264
5.61284
5.63209
5.64967
5.66524
5.6786
5.69041
5.7017
5.71329
5.72456
5.73403
5.74217
5.75058
5.75828
5.76322
5.76352
5.75508
5.74001
5.72615
5.72265
1.40001
1.40001
1.40001
1.40001
1.40001
1.40001
1.40001
1.40001
1.40001
1.40001
1.40001
1.40001
1.40001
1.40001
1.40001
1.40001
1.40001
1.40001
1.40001
1.40001
1.40001
1.40001
1.40001
1.40001
1.40001
1.40001
1.40001
1.40001
1.40001
1.40001
1.40001
1.54707
4.40325
5.46632
5.44973
5.47412
5.49467
5.51696
5.53831
5.55895
5.57949
5.59833
5.61599
5.63293
5.64826
5.66125
5.67154
5.68065
5.68971
5.69852
5.70592
5.71204
5.71875
5.72476
5.72799
5.72608
5.71565
5.69796
5.68203
5.67721
1.40001
1.40001
1.40001
1.40001
1.40001
1.40001
1.40001
1.40001
1.40001
1.40001
1.40001
1.40001
1.40001
1.40001
1.40001
1.40001
1.40001
1.40001
1.40001
1.40001
1.40001
1.40001
1.40001
1.40001
1.40001
1.40001
1.40001
1.40001
1.40001
1.40001
1.40001
1.40814
4.05179
5.38478
5.40528
5.44458
5.47342
5.50012
5.52217
5.54135
5.55981
5.57812
5.5959
5.61288
5.62808
5.64081
5.64992
5.65698
5.66338
5.66947
5.67436
5.67795
5.68217
5.68534
5.68531
5.67974
5.66687
5.64699
5.62934
5.62451
1.40001
1.40001
1.40001
1.40001
1.40001
1.40001
1.40001
1.40001
1.40001
1.40001
1.40001
1.40001
1.40001
1.40001
1.40001
1.40001
1.40001
1.40001
1.40001
1.40001
1.40001
1.40001
1.40001
1.40001
1.40001
1.40001
1.40001
1.40001
1.40001
1.40001
1.40001
1.40005
3.61373
5.28316
5.36682
5.41321
5.4473
5.47584
5.49991
5.52074
5.53981
5.55693
5.57174
5.58768
5.6027
5.61562
5.62424
5.62956
5.63335
5.63645
5.6383
5.63846
5.63929
5.63931
5.63571
5.62752
5.61221
5.58755
5.5634
5.55274
1.40001
1.40001
1.40001
1.40001
1.40001
1.40001
1.40001
1.40001
1.40001
1.40001
1.40001
1.40001
1.40001
1.40001
1.40001
1.40001
1.40001
1.40001
1.40001
1.40001
1.40001
1.40001
1.40001
1.40001
1.40001
1.40001
1.40001
1.40001
1.40001
1.40001
1.40001
1.4
3.14945
5.16341
5.33863
5.38671
5.42293
5.45028
5.47249
5.49118
5.50827
5.52537
5.54197
5.55753
5.57184
5.58424
5.59297
5.5973
5.59871
5.59875
5.59727
5.5939
5.59088
5.58617
5.5773
5.56197
5.53807
5.50723
5.47684
5.46728
1.40001
1.40001
1.40001
1.40001
1.40001
1.40001
1.40001
1.40001
1.40001
1.40001
1.40001
1.40001
1.40001
1.40001
1.40001
1.40001
1.40001
1.40001
1.40001
1.40001
1.40001
1.40001
1.40001
1.40001
1.40001
1.40001
1.40001
1.40001
1.40001
1.40001
1.40001
1.40001
2.67262
5.04456
5.34015
5.38013
5.40894
5.43199
5.45096
5.46619
5.48095
5.496
5.51046
5.52422
5.53695
5.54832
5.55637
5.55947
5.55865
5.55556
5.55053
5.54335
5.53499
5.52352
5.50796
5.48533
5.45389
5.41633
5.37036
5.33429
1.40001
1.40001
1.40001
1.40001
1.40001
1.40001
1.40001
1.40001
1.40001
1.40001
1.40001
1.40001
1.40001
1.40001
1.40001
1.40001
1.40001
1.40001
1.40001
1.40001
1.40001
1.40001
1.40001
1.40001
1.40001
1.40001
1.40001
1.40001
1.40001
1.40001
1.40001
1.40001
2.16566
4.86901
5.40508
5.39773
5.40571
5.41752
5.43058
5.44285
5.45474
5.4672
5.47987
5.49168
5.50185
5.50984
5.51569
5.51764
5.51419
5.50786
5.49894
5.48711
5.47205
5.45303
5.42854
5.39402
5.34281
5.27169
5.19742
5.14683
1.40001
1.40001
1.40001
1.40001
1.40001
1.40001
1.40001
1.40001
1.40001
1.40001
1.40001
1.40001
1.40001
1.40001
1.40001
1.40001
1.40001
1.40001
1.40001
1.40001
1.40001
1.40001
1.40001
1.40001
1.40001
1.40001
1.40001
1.40001
1.40001
1.40001
1.40001
1.40001
1.67613
4.63517
5.48182
5.40848
5.40857
5.41529
5.4237
5.43017
5.43596
5.44247
5.45062
5.45945
5.46718
5.4723
5.47489
5.473
5.46624
5.45595
5.44252
5.42478
5.40218
5.37359
5.33558
5.28314
5.21058
5.11353
5.0008
4.93418
1.40001
1.40001
1.40001
1.40001
1.40001
1.40001
1.40001
1.40001
1.40001
1.40001
1.40001
1.40001
1.40001
1.40001
1.40001
1.40001
1.40001
1.40001
1.40001
1.40001
1.40001
1.40001
1.40001
1.40001
1.40001
1.40001
1.40001
1.40001
1.40001
1.40001
1.40001
1.40001
1.4173
4.12652
5.38373
5.36847
5.39464
5.4087
5.41938
5.42276
5.42317
5.42294
5.42481
5.42865
5.43249
5.4341
5.4322
5.42668
5.41625
5.4011
5.38226
5.35833
5.32708
5.28727
5.23456
5.16393
5.06021
4.89226
4.52352
3.63158
1.40001
1.40001
1.40001
1.40001
1.40001
1.40001
1.40001
1.40001
1.40001
1.40001
1.40001
1.40001
1.40001
1.40001
1.40001
1.40001
1.40001
1.40001
1.40001
1.40001
1.40001
1.40001
1.40001
1.40001
1.40001
1.40001
1.40001
1.40001
1.40001
1.40001
1.40001
1.40001
1.40002
3.45193
5.19494
5.31656
5.36496
5.38908
5.40404
5.41012
5.41072
5.40721
5.40381
5.40235
5.4013
5.39813
5.391
5.38035
5.36456
5.3437
5.31859
5.28792
5.24777
5.19599
5.12689
5.03011
4.88452
4.63325
4.22503
3.23744
1.40001
1.40001
1.40001
1.40001
1.40001
1.40001
1.40001
1.40001
1.40001
1.40001
1.40001
1.40001
1.40001
1.40001
1.40001
1.40001
1.40001
1.40001
1.40001
1.40001
1.40001
1.40001
1.40001
1.40001
1.40001
1.40001
1.40001
1.40001
1.40001
1.40001
1.40001
1.40001
1.4
2.8301
5.03149
5.29446
5.34152
5.37168
5.38293
5.38866
5.391
5.3884
5.38354
5.37848
5.37269
5.3645
5.35191
5.33516
5.31311
5.28559
5.25349
5.2155
5.16669
5.10266
5.01696
4.89646
4.71839
4.44957
3.96091
3.11833
1.40001
1.40001
1.40001
1.40001
1.40001
1.40001
1.40001
1.40001
1.40001
1.40001
1.40001
1.40001
1.40001
1.40001
1.40001
1.40001
1.40001
1.40001
1.40001
1.40001
1.40001
1.40001
1.40001
1.40001
1.40001
1.40001
1.40001
1.40001
1.40001
1.40001
1.40001
1.40001
1.4
2.17926
4.82776
5.32157
5.32511
5.34374
5.35422
5.3624
5.36612
5.36654
5.36277
5.35634
5.347
5.33393
5.31556
5.29232
5.26363
5.22851
5.18838
5.14199
5.08444
5.00987
4.90911
4.77216
4.56998
4.29036
3.78893
3.12793
1.40001
1.40001
1.40001
1.40001
1.40001
1.40001
1.40001
1.40001
1.40001
1.40001
1.40001
1.40001
1.40001
1.40001
1.40001
1.40001
1.40001
1.40001
1.40001
1.40001
1.40001
1.40001
1.40001
1.40001
1.40001
1.40001
1.40001
1.40001
1.40001
1.40001
1.40001
1.40001
1.40001
1.57249
4.48861
5.39061
5.33814
5.32398
5.32695
5.33027
5.33306
5.33517
5.33355
5.32804
5.31788
5.30258
5.28068
5.25251
5.21773
5.17496
5.12604
5.07064
5.00406
4.92052
4.80826
4.65974
4.45081
4.15975
3.70735
3.17564
1.40001
1.40001
1.40001
1.40001
1.40001
1.40001
1.40001
1.40001
1.40001
1.40001
1.40001
1.40001
1.40001
1.40001
1.40001
1.40001
1.40001
1.40001
1.40001
1.40001
1.40001
1.40001
1.40001
1.40001
1.40001
1.40001
1.40001
1.40001
1.40001
1.40001
1.40001
1.40001
1.40001
1.40482
3.81906
5.22514
5.26762
5.28313
5.29194
5.29599
5.29742
5.29885
5.29861
5.29398
5.2837
5.26776
5.24422
5.21312
5.17342
5.12458
5.06779
5.00375
4.92862
4.83671
4.71714
4.56041
4.35173
4.06709
3.67476
3.24189
1.40001
1.40001
1.40001
1.40001
1.40001
1.40001
1.40001
1.40001
1.40001
1.40001
1.40001
1.40001
1.40001
1.40001
1.40001
1.40001
1.40001
1.40001
1.40001
1.40001
1.40001
1.40001
1.40001
1.40001
1.40001
1.40001
1.40001
1.40001
1.40001
1.40001
1.40001
1.40001
1.40001
1.39996
3.02986
5.06856
5.27085
5.2821
5.28479
5.27975
5.27339
5.26877
5.26569
5.25882
5.24699
5.23078
5.207
5.17475
5.1321
5.07881
5.01521
4.94282
4.85957
4.76045
4.63636
4.47628
4.27199
4.00457
3.6681
3.30017
1.40001
1.40001
1.40001
1.40001
1.40001
1.40001
1.40001
1.40001
1.40001
1.40001
1.40001
1.40001
1.40001
1.40001
1.40001
1.40001
1.40001
1.40001
1.40001
1.40001
1.40001
1.40001
1.40001
1.40001
1.40001
1.40001
1.40001
1.40001
1.40001
1.40001
1.40001
1.40001
1.40001
1.39999
2.21959
4.85008
5.29789
5.27744
5.27637
5.27105
5.2575
5.2449
5.23491
5.22328
5.20778
5.18992
5.16579
5.13341
5.08979
5.03429
4.9667
4.8885
4.79883
4.69396
4.56707
4.4071
4.20928
3.96197
3.67262
3.35207
1.40001
1.40001
1.40001
1.40001
1.40001
1.40001
1.40001
1.40001
1.40001
1.40001
1.40001
1.40001
1.40001
1.40001
1.40001
1.40001
1.40001
1.40001
1.40001
1.40001
1.40001
1.40001
1.40001
1.40001
1.40001
1.40001
1.40001
1.40001
1.40001
1.40001
1.40001
1.40001
1.40001
1.4
1.54686
4.39398
5.33243
5.28119
5.26168
5.25684
5.24169
5.22486
5.20832
5.19154
5.17138
5.15008
5.12437
5.09159
5.0479
4.99172
4.922
4.84008
4.74571
4.63653
4.50826
4.35125
4.16079
3.93474
3.68157
3.3958
1.40001
1.40001
1.40001
1.40001
1.40001
1.40001
1.40001
1.40001
1.40001
1.40001
1.40001
1.40001
1.40001
1.40001
1.40001
1.40001
1.40001
1.40001
1.40001
1.40001
1.40001
1.40001
1.40001
1.40001
1.40001
1.40001
1.40001
1.40001
1.40001
1.40001
1.40001
1.40001
1.40001
1.4
1.40273
3.58517
5.11992
5.21847
5.24434
5.24053
5.22247
5.20461
5.18399
5.16223
5.13831
5.11274
5.08376
5.04907
5.00458
4.94841
4.87843
4.79566
4.6996
4.58851
4.45952
4.30712
4.12367
3.91775
3.69065
3.43684
1.40001
1.40001
1.40001
1.40001
1.40001
1.40001
1.40001
1.40001
1.40001
1.40001
1.40001
1.40001
1.40001
1.40001
1.40001
1.40001
1.40001
1.40001
1.40001
1.40001
1.40001
1.40001
1.40001
1.40001
1.40001
1.40001
1.40001
1.40001
1.40001
1.40001
1.40001
1.40001
1.40001
1.40001
1.39997
2.62719
4.95486
5.24119
5.2319
5.2243
5.20918
5.19003
5.16578
5.1387
5.11089
5.08096
5.04766
5.00951
4.96286
4.90561
4.83589
4.75383
4.65792
4.54703
4.41875
4.27006
4.09571
3.90922
3.69866
3.47364
1.40001
1.40001
1.40001
1.40001
1.40001
1.40001
1.40001
1.40001
1.40001
1.40001
1.40001
1.40001
1.40001
1.40001
1.40001
1.40001
1.40001
1.40001
1.40001
1.40001
1.40001
1.40001
1.40001
1.40001
1.40001
1.40001
1.40001
1.40001
1.40001
1.40001
1.40001
1.40001
1.40001
1.40001
1.4
1.74048
4.65714
5.30441
5.23475
5.20442
5.18877
5.16942
5.14476
5.11561
5.08517
5.05206
5.01479
4.97271
4.92298
4.86346
4.79353
4.7126
4.61904
4.51003
4.38497
4.23927
4.07713
3.90516
3.70769
3.50902
1.40001
1.40001
1.40001
1.40001
1.40001
1.40001
1.40001
1.40001
1.40001
1.40001
1.40001
1.40001
1.40001
1.40001
1.40001
1.40001
1.40001
1.40001
1.40001
1.40001
1.40001
1.40001
1.40001
1.40001
1.40001
1.40001
1.40001
1.40001
1.40001
1.40001
1.40001
1.40001
1.40001
1.40001
1.4
1.41912
3.8585
5.11804
5.17318
5.18483
5.17254
5.1504
5.12477
5.0948
5.06193
5.02627
4.98576
4.9399
4.88685
4.82474
4.75371
4.67294
4.58142
4.47475
4.35415
4.21354
4.06358
3.90187
3.71918
3.53995
1.40001
1.40001
1.40001
1.40001
1.40001
1.40001
1.40001
1.40001
1.40001
1.40001
1.40001
1.40001
1.40001
1.40001
1.40001
1.40001
1.40001
1.40001
1.40001
1.40001
1.40001
1.40001
1.40001
1.40001
1.40001
1.40001
1.40001
1.40001
1.40001
1.40001
1.40001
1.40001
1.40001
1.40001
1.4
1.39992
2.78734
4.94142
5.17848
5.16864
5.15708
5.13788
5.11111
5.07873
5.04168
5.00249
4.9589
4.90984
4.85399
4.78982
4.71741
4.63654
4.54596
4.44226
4.32614
4.19337
4.05443
3.90163
3.73539
3.56896
1.40001
1.40001
1.40001
1.40001
1.40001
1.40001
1.40001
1.40001
1.40001
1.40001
1.40001
1.40001
1.40001
1.40001
1.40001
1.40001
1.40001
1.40001
1.40001
1.40001
1.40001
1.40001
1.40001
1.40001
1.40001
1.40001
1.40001
1.40001
1.40001
1.40001
1.40001
1.40001
1.40001
1.40001
1.40001
1.39998
1.78572
4.67596
5.2458
5.17179
5.13965
5.11965
5.09139
5.05815
5.01942
4.97778
4.93236
4.8817
4.82401
4.75903
4.68584
4.60545
4.51382
4.41255
4.30003
4.17578
4.04609
3.90148
3.75075
3.59357
1.40001
1.40001
1.40001
1.40001
1.40001
1.40001
1.40001
1.40001
1.40001
1.40001
1.40001
1.40001
1.40001
1.40001
1.40001
1.40001
1.40001
1.40001
1.40001
1.40001
1.40001
1.40001
1.40001
1.40001
1.40001
1.40001
1.40001
1.40001
1.40001
1.40001
1.40001
1.40001
1.40001
1.40001
1.40001
1.4
1.42375
3.83368
5.0599
5.10525
5.11951
5.10425
5.07385
5.0388
4.99819
4.95385
4.90652
4.85552
4.79681
4.73227
4.65939
4.58103
4.48742
4.38765
4.27782
4.16169
4.03897
3.90347
3.76492
3.61729
1.40001
1.40001
1.40001
1.40001
1.40001
1.40001
1.40001
1.40001
1.40001
1.40001
1.40001
1.40001
1.40001
1.40001
1.40001
1.40001
1.40001
1.40001
1.40001
1.40001
1.40001
1.40001
1.40001
1.40001
1.40001
1.40001
1.40001
1.40001
1.40001
1.40001
1.40001
1.40001
1.40001
1.40001
1.40001
1.4
1.39992
2.66314
4.86811
5.12253
5.11404
5.09592
5.0643
5.02656
4.98309
4.93527
4.88458
4.83219
4.77216
4.70805
4.63632
4.55803
4.46621
4.3681
4.26063
4.15063
4.03214
3.90553
3.77507
3.63626
1.40001
1.40001
1.40001
1.40001
1.40001
1.40001
1.40001
1.40001
1.40001
1.40001
1.40001
1.40001
1.40001
1.40001
1.40001
1.40001
1.40001
1.40001
1.40001
1.40001
1.40001
1.40001
1.40001
1.40001
1.40001
1.40001
1.40001
1.40001
1.40001
1.40001
1.40001
1.40001
1.40001
1.40001
1.40001
1.40001
1.39998
1.66303
4.46441
5.18478
5.12453
5.0803
5.04664
5.00864
4.96468
4.91588
4.86331
4.80972
4.74972
4.68634
4.61519
4.53793
4.45009
4.35427
4.25001
4.14318
4.02823
3.90863
3.78359
3.65437
1.40001
1.40001
1.40001
1.40001
1.40001
1.40001
1.40001
1.40001
1.40001
1.40001
1.40001
1.40001
1.40001
1.40001
1.40001
1.40001
1.40001
1.40001
1.40001
1.40001
1.40001
1.40001
1.40001
1.40001
1.40001
1.40001
1.40001
1.40001
1.40001
1.40001
1.40001
1.40001
1.40001
1.40001
1.40001
1.40001
1.4
1.40915
3.47878
4.98427
5.06766
5.06107
5.03506
4.99708
4.95166
4.90186
4.84748
4.79107
4.73012
4.66551
4.59448
4.51804
4.43425
4.34191
4.24234
4.13822
4.02705
3.91206
3.79203
3.671
1.40001
1.40001
1.40001
1.40001
1.40001
1.40001
1.40001
1.40001
1.40001
1.40001
1.40001
1.40001
1.40001
1.40001
1.40001
1.40001
1.40001
1.40001
1.40001
1.40001
1.40001
1.40001
1.40001
1.40001
1.40001
1.40001
1.40001
1.40001
1.40001
1.40001
1.40001
1.40001
1.40001
1.40001
1.40001
1.40001
1.4
1.39995
2.22705
4.81028
5.10674
5.06516
5.02406
4.98403
4.93877
4.88948
4.835
4.77733
4.71472
4.64909
4.5772
4.50126
4.42034
4.33198
4.23757
4.13696
4.02961
3.91849
3.80355
3.68752
1.40001
1.40001
1.40001
1.40001
1.40001
1.40001
1.40001
1.40001
1.40001
1.40001
1.40001
1.40001
1.40001
1.40001
1.40001
1.40001
1.40001
1.40001
1.40001
1.40001
1.40001
1.40001
1.40001
1.40001
1.40001
1.40001
1.40001
1.40001
1.40001
1.40001
1.40001
1.40001
1.40001
1.40001
1.40001
1.40001
1.40001
1.39999
1.50909
4.07722
5.05879
5.02858
5.00178
4.9668
4.92478
4.87732
4.82396
4.76566
4.7018
4.6345
4.5618
4.48595
4.40683
4.32235
4.2329
4.13706
4.03473
3.92745
3.81704
3.70404
1.40001
1.40001
1.40001
1.40001
1.40001
1.40001
1.40001
1.40001
1.40001
1.40001
1.40001
1.40001
1.40001
1.40001
1.40001
1.40001
1.40001
1.40001
1.40001
1.40001
1.40001
1.40001
1.40001
1.40001
1.40001
1.40001
1.40001
1.40001
1.40001
1.40001
1.40001
1.40001
1.40001
1.40001
1.40001
1.40001
1.40001
1.4
1.40103
2.81367
4.83684
5.00367
4.98776
4.964
4.92533
4.8782
4.82412
4.76357
4.69816
4.62843
4.55387
4.47683
4.39774
4.31534
4.22923
4.13781
4.04051
3.93789
3.8317
3.72209
1.40001
1.40001
1.40001
1.40001
1.40001
1.40001
1.40001
1.40001
1.40001
1.40001
1.40001
1.40001
1.40001
1.40001
1.40001
1.40001
1.40001
1.40001
1.40001
1.40001
1.40001
1.40001
1.40001
1.40001
1.40001
1.40001
1.40001
1.40001
1.40001
1.40001
1.40001
1.40001
1.40001
1.40001
1.40001
1.40001
1.40001
1.4
1.4
1.69804
4.3872
5.06161
4.99833
4.95654
4.9154
4.86944
4.81661
4.75718
4.69327
4.62364
4.54887
4.47122
4.39172
4.31026
4.22628
4.13823
4.0451
3.94746
3.84566
3.74025
1.40001
1.40001
1.40001
1.40001
1.40001
1.40001
1.40001
1.40001
1.40001
1.40001
1.40001
1.40001
1.40001
1.40001
1.40001
1.40001
1.40001
1.40001
1.40001
1.40001
1.40001
1.40001
1.40001
1.40001
1.40001
1.40001
1.40001
1.40001
1.40001
1.40001
1.40001
1.40001
1.40001
1.40001
1.40001
1.40001
1.40001
1.40001
1.4
1.4112
3.25473
4.86171
4.94465
4.93088
4.90276
4.86324
4.81351
4.75635
4.69379
4.62439
4.54934
4.47048
4.38969
4.30785
4.22464
4.13875
4.04909
3.95585
3.85859
3.75764
1.40001
1.40001
1.40001
1.40001
1.40001
1.40001
1.40001
1.40001
1.40001
1.40001
1.40001
1.40001
1.40001
1.40001
1.40001
1.40001
1.40001
1.40001
1.40001
1.40001
1.40001
1.40001
1.40001
1.40001
1.40001
1.40001
1.40001
1.40001
1.40001
1.40001
1.40001
1.40001
1.40001
1.40001
1.40001
1.40001
1.40001
1.40001
1.4
1.39999
1.89945
4.56379
5.02009
4.95501
4.90712
4.86043
4.80831
4.75186
4.69046
4.62246
4.54894
4.47146
4.39154
4.31
4.22678
4.14177
4.0545
3.96414
3.87064
3.77395
1.40001
1.40001
1.40001
1.40001
1.40001
1.40001
1.40001
1.40001
1.40001
1.40001
1.40001
1.40001
1.40001
1.40001
1.40001
1.40001
1.40001
1.40001
1.40001
1.40001
1.40001
1.40001
1.40001
1.40001
1.40001
1.40001
1.40001
1.40001
1.40001
1.40001
1.40001
1.40001
1.40001
1.40001
1.40001
1.40001
1.40001
1.40001
1.40001
1.4
1.43507
3.5323
4.87593
4.90907
4.88913
4.8505
4.80129
4.74687
4.68689
4.62079
4.54975
4.47452
4.39599
4.31506
4.23215
4.14767
4.06144
3.97283
3.88199
3.78912
1.40001
1.40001
1.40001
1.40001
1.40001
1.40001
1.40001
1.40001
1.40001
1.40001
1.40001
1.40001
1.40001
1.40001
1.40001
1.40001
1.40001
1.40001
1.40001
1.40001
1.40001
1.40001
1.40001
1.40001
1.40001
1.40001
1.40001
1.40001
1.40001
1.40001
1.40001
1.40001
1.40001
1.40001
1.40001
1.40001
1.40001
1.40001
1.40001
1.4
1.40008
2.05944
4.64161
4.97
4.90899
4.85697
4.80379
4.74718
4.68577
4.61987
4.55027
4.477
4.40029
4.32063
4.23873
4.15518
4.07004
3.98299
3.89415
3.80423
1.40001
1.40001
1.40001
1.40001
1.40001
1.40001
1.40001
1.40001
1.40001
1.40001
1.40001
1.40001
1.40001
1.40001
1.40001
1.40001
1.40001
1.40001
1.40001
1.40001
1.40001
1.40001
1.40001
1.40001
1.40001
1.40001
1.40001
1.40001
1.40001
1.40001
1.40001
1.40001
1.40001
1.40001
1.40001
1.40001
1.40001
1.40001
1.40001
1.40001
1.4
1.46153
3.66958
4.87175
4.87296
4.84214
4.79666
4.7427
4.68287
4.61859
4.55078
4.47952
4.40472
4.3267
4.24624
4.16404
4.08011
3.99436
3.9073
3.81946
1.40001
1.40001
1.40001
1.40001
1.40001
1.40001
1.40001
1.40001
1.40001
1.40001
1.40001
1.40001
1.40001
1.40001
1.40001
1.40001
1.40001
1.40001
1.40001
1.40001
1.40001
1.40001
1.40001
1.40001
1.40001
1.40001
1.40001
1.40001
1.40001
1.40001
1.40001
1.40001
1.40001
1.40001
1.40001
1.40001
1.40001
1.40001
1.40001
1.40001
1.40001
1.40033
2.15381
4.63706
4.91001
4.85317
4.802
4.74642
4.68649
4.62231
4.55506
4.48476
4.41099
4.33419
4.25506
4.17426
4.09173
4.00735
3.92186
3.83576
1.40001
1.40001
1.40001
1.40001
1.40001
1.40001
1.40001
1.40001
1.40001
1.40001
1.40001
1.40001
1.40001
1.40001
1.40001
1.40001
1.40001
1.40001
1.40001
1.40001
1.40001
1.40001
1.40001
1.40001
1.40001
1.40001
1.40001
1.40001
1.40001
1.40001
1.40001
1.40001
1.40001
1.40001
1.40001
1.40001
1.40001
1.40001
1.40001
1.40001
1.40001
1.40001
1.47927
3.6796
4.84784
4.83668
4.79425
4.74267
4.68514
4.62331
4.55768
4.48829
4.41549
4.34024
4.2631
4.18431
4.10386
4.02158
3.93766
3.85301
1.40001
1.40001
1.40001
1.40001
1.40001
1.40001
1.40001
1.40001
1.40001
1.40001
1.40001
1.40001
1.40001
1.40001
1.40001
1.40001
1.40001
1.40001
1.40001
1.40001
1.40001
1.40001
1.40001
1.40001
1.40001
1.40001
1.40001
1.40001
1.40001
1.40001
1.40001
1.40001
1.40001
1.40001
1.40001
1.40001
1.40001
1.40001
1.40001
1.40001
1.40001
1.40001
1.40065
2.16408
4.57276
4.86112
4.80287
4.7491
4.69067
4.6292
4.56419
4.49542
4.42352
4.34956
4.27398
4.1968
4.11808
4.03771
3.95543
3.87211
1.40001
1.40001
1.40001
1.40001
1.40001
1.40001
1.40001
1.40001
1.40001
1.40001
1.40001
1.40001
1.40001
1.40001
1.40001
1.40001
1.40001
1.40001
1.40001
1.40001
1.40001
1.40001
1.40001
1.40001
1.40001
1.40001
1.40001
1.40001
1.40001
1.40001
1.40001
1.40001
1.40001
1.40001
1.40001
1.40001
1.40001
1.40001
1.40001
1.40001
1.40001
1.40001
1.40001
1.47965
3.573
4.79969
4.79115
4.74597
4.69187
4.63154
4.56761
4.50043
4.43058
4.35865
4.28483
4.20929
4.13224
4.05363
3.97339
3.89197
1.40001
1.40001
1.40001
1.40001
1.40001
1.40001
1.40001
1.40001
1.40001
1.40001
1.40001
1.40001
1.40001
1.40001
1.40001
1.40001
1.40001
1.40001
1.40001
1.40001
1.40001
1.40001
1.40001
1.40001
1.40001
1.40001
1.40001
1.40001
1.40001
1.40001
1.40001
1.40001
1.40001
1.40001
1.40001
1.40001
1.40001
1.40001
1.40001
1.40001
1.40001
1.40001
1.40001
1.40076
2.09026
4.45232
4.81267
4.75689
4.70163
4.63972
4.57564
4.50957
4.44144
4.3711
4.2986
4.22428
4.14856
4.07144
3.99284
3.91305
1.40001
1.40001
1.40001
1.40001
1.40001
1.40001
1.40001
1.40001
1.40001
1.40001
1.40001
1.40001
1.40001
1.40001
1.40001
1.40001
1.40001
1.40001
1.40001
1.40001
1.40001
1.40001
1.40001
1.40001
1.40001
1.40001
1.40001
1.40001
1.40001
1.40001
1.40001
1.40001
1.40001
1.40001
1.40001
1.40001
1.40001
1.40001
1.40001
1.40001
1.40001
1.40001
1.40001
1.40001
1.46294
3.33573
4.73747
4.74796
4.70138
4.64419
4.58225
4.51825
4.45172
4.38273
4.3115
4.23824
4.16349
4.08785
4.01096
3.93262
1.40001
1.40001
1.40001
1.40001
1.40001
1.40001
1.40001
1.40001
1.40001
1.40001
1.40001
1.40001
1.40001
1.40001
1.40001
1.40001
1.40001
1.40001
1.40001
1.40001
1.40001
1.40001
1.40001
1.40001
1.40001
1.40001
1.40001
1.40001
1.40001
1.40001
1.40001
1.40001
1.40001
1.40001
1.40001
1.40001
1.40001
1.40001
1.40001
1.40001
1.40001
1.40001
1.40001
1.40001
1.40061
1.93775
4.26133
4.77742
4.71972
4.66117
4.5969
4.5314
4.46402
4.39548
4.32564
4.25394
4.18028
4.10572
4.03046
3.9538
1.40001
1.40001
1.40001
1.40001
1.40001
1.40001
1.40001
1.40001
1.40001
1.40001
1.40001
1.40001
1.40001
1.40001
1.40001
1.40001
1.40001
1.40001
1.40001
1.40001
1.40001
1.40001
1.40001
1.40001
1.40001
1.40001
1.40001
1.40001
1.40001
1.40001
1.40001
1.40001
1.40001
1.40001
1.40001
1.40001
1.40001
1.40001
1.40001
1.40001
1.40001
1.40001
1.40001
1.40001
1.40001
1.43669
2.94998
4.65655
4.72444
4.66745
4.605
4.53923
4.47283
4.4061
4.33843
4.26897
4.19696
4.12303
4.04882
3.97438
1.40001
1.40001
1.40001
1.40001
1.40001
1.40001
1.40001
1.40001
1.40001
1.40001
1.40001
1.40001
1.40001
1.40001
1.40001
1.40001
1.40001
1.40001
1.40001
1.40001
1.40001
1.40001
1.40001
1.40001
1.40001
1.40001
1.40001
1.40001
1.40001
1.40001
1.40001
1.40001
1.40001
1.40001
1.40001
1.40001
1.40001
1.40001
1.40001
1.40001
1.40001
1.40001
1.40001
1.40001
1.40001
1.40033
1.73544
3.99179
4.77528
4.69211
4.62424
4.55697
4.49146
4.42521
4.35727
4.28777
4.21648
4.14328
4.06971
3.99684
1.40001
1.40001
1.40001
1.40001
1.40001
1.40001
1.40001
1.40001
1.40001
1.40001
1.40001
1.40001
1.40001
1.40001
1.40001
1.40001
1.40001
1.40001
1.40001
1.40001
1.40001
1.40001
1.40001
1.40001
1.40001
1.40001
1.40001
1.40001
1.40001
1.40001
1.40001
1.40001
1.40001
1.40001
1.40001
1.40001
1.40001
1.40001
1.40001
1.40001
1.40001
1.40001
1.40001
1.40001
1.40001
1.40001
1.41369
2.51655
4.51803
4.68261
4.63157
4.57304
4.50937
4.44274
4.37337
4.30282
4.2323
4.16123
4.08897
4.01651
1.40001
1.40001
1.40001
1.40001
1.40001
1.40001
1.40001
1.40001
1.40001
1.40001
1.40001
1.40001
1.40001
1.40001
1.40001
1.40001
1.40001
1.40001
1.40001
1.40001
1.40001
1.40001
1.40001
1.40001
1.40001
1.40001
1.40001
1.40001
1.40001
1.40001
1.40001
1.40001
1.40001
1.40001
1.40001
1.40001
1.40001
1.40001
1.40001
1.40001
1.40001
1.40001
1.40001
1.40001
1.40001
1.40001
1.4001
1.56506
3.54952
4.68692
4.65907
4.60212
4.53652
4.4687
4.39837
4.32734
4.25679
4.1864
4.11467
4.04175
1.40001
1.40001
1.40001
1.40001
1.40001
1.40001
1.40001
1.40001
1.40001
1.40001
1.40001
1.40001
1.40001
1.40001
1.40001
1.40001
1.40001
1.40001
1.40001
1.40001
1.40001
1.40001
1.40001
1.40001
1.40001
1.40001
1.40001
1.40001
1.40001
1.40001
1.40001
1.40001
1.40001
1.40001
1.40001
1.40001
1.40001
1.40001
1.40001
1.40001
1.40001
1.40001
1.40001
1.40001
1.40001
1.40001
1.40001
1.4036
2.09009
4.24504
4.67688
4.60724
4.54605
4.48027
4.41355
4.34623
4.27782
4.20813
4.13673
4.06406
1.40001
1.40001
1.40001
1.40001
1.40001
1.40001
1.40001
1.40001
1.40001
1.40001
1.40001
1.40001
1.40001
1.40001
1.40001
1.40001
1.40001
1.40001
1.40001
1.40001
1.40001
1.40001
1.40001
1.40001
1.40001
1.40001
1.40001
1.40001
1.40001
1.40001
1.40001
1.40001
1.40001
1.40001
1.40001
1.40001
1.40001
1.40001
1.40001
1.40001
1.40001
1.40001
1.40001
1.40001
1.40001
1.40001
1.40001
1.40002
1.46029
2.93884
4.54169
4.61498
4.56571
4.50526
4.44078
4.37414
4.30537
4.23475
4.16277
4.08998
1.40001
1.40001
1.40001
1.40001
1.40001
1.40001
1.40001
1.40001
1.40001
1.40001
1.40001
1.40001
1.40001
1.40001
1.40001
1.40001
1.40001
1.40001
1.40001
1.40001
1.40001
1.40001
1.40001
1.40001
1.40001
1.40001
1.40001
1.40001
1.40001
1.40001
1.40001
1.40001
1.40001