/*--------------------------------*- C++ -*----------------------------------*\
  =========                 |
  \\      /  F ield         | OpenFOAM: The Open Source CFD Toolbox
   \\    /   O peration     | Website:  https://openfoam.org
    \\  /    A nd           | Version:  9
     \\/     M anipulation  |
\*---------------------------------------------------------------------------*/
FoamFile
{
    format      ascii;
    class       surfaceScalarField;
    location    "38";
    object      phi;
}
// * * * * * * * * * * * * * * * * * * * * * * * * * * * * * * * * * * * * * //

dimensions      [0 3 -1 0 0 0 0];

internalField   nonuniform List<scalar> 
16735
(
-0.00299129
0.0029914
-1.0643e-07
-0.00898309
0.005992
-1.96562e-07
-0.0168544
0.00787154
-2.37471e-07
-0.0258808
0.00902666
-2.57408e-07
-0.0359547
0.0100742
-2.73057e-07
-0.0464975
0.0105431
-2.78649e-07
-0.0586016
0.0121044
-2.67944e-07
-0.0695777
0.0109762
-2.12524e-07
-0.0843446
0.014767
-9.42697e-08
0.0111289
1.26534e-07
-0.0954736
-0.00293999
0.00593139
-0.00883624
0.0118882
-0.0165709
0.0156062
-0.0254105
0.0178663
-0.0352344
0.0198981
-0.0454323
0.020741
-0.0570909
0.023763
-0.0674213
0.0213067
-0.081471
0.0288167
0.021001
-0.0913431
-0.00283958
0.00877097
-0.00854762
0.0175963
-0.0160119
0.0230704
-0.0244812
0.0263356
-0.0338063
0.0292231
-0.0433206
0.0302553
-0.0540793
0.0345217
-0.0631303
0.0303576
-0.0757577
0.0414441
0.0284096
-0.0831663
-0.00269438
0.0114653
-0.00812721
0.0230291
-0.0151934
0.0301366
-0.0231154
0.0342576
-0.0316951
0.0378029
-0.0401991
0.0387594
-0.0495853
0.0439079
-0.056739
0.0375114
-0.0672502
0.0519553
0.0322412
-0.0710817
-0.00251059
0.0139759
-0.00758947
0.028108
-0.0141389
0.036686
-0.0213454
0.0414641
-0.0289374
0.0453949
-0.0361216
0.0459435
-0.043633
0.0514193
-0.0482824
0.0421607
-0.0559609
0.0596339
0.0315021
-0.0552219
-0.00229609
0.016272
-0.00695273
0.0327646
-0.0128762
0.0426095
-0.0192125
0.0478004
-0.0255795
0.0517619
-0.031156
0.05152
-0.0362497
0.056513
-0.0377883
0.0436994
-0.0418022
0.0636477
0.0253121
-0.0356121
-0.00206004
0.0183321
-0.0062384
0.036943
-0.0114389
0.04781
-0.0167642
0.0531257
-0.0216749
0.0566726
-0.0253808
0.0552259
-0.0274621
0.0585942
-0.0252914
0.0415287
-0.0245055
0.0628618
0.0129013
-0.0120947
-0.00181245
0.0201445
-0.00546988
0.0406004
-0.00986365
0.0522038
-0.0140505
0.0573125
-0.0172777
0.0598998
-0.0188739
0.0568222
-0.017281
0.0570013
-0.0108898
0.0351375
-0.00345189
0.0554238
-0.00705657
0.016506
-0.0015637
0.0217082
-0.00467127
0.043708
-0.00818792
0.0557205
-0.011119
0.0602435
-0.0124341
0.0612149
-0.0116949
0.0560829
-0.00563186
0.0509383
0.00552042
0.0239852
0.0206788
0.0402655
-0.0376466
0.0512688
-0.00132388
0.0230321
-0.00386578
0.0462499
-0.00644712
0.0583018
-0.00800878
0.0618052
-0.00716724
0.0603734
-0.00387897
0.0527947
0.00720996
0.0398494
0.0243723
0.00682284
0.0491381
0.0154997
-0.0813234
0.0928149
-0.00110217
0.0241343
-0.00307387
0.0482216
-0.00467116
0.0598991
-0.00474462
0.0618787
-0.00143097
0.0570597
0.00491093
0.0464528
0.0214973
0.0232631
0.0451439
-0.0168238
0.0821591
-0.0215154
-0.140645
0.14148
-0.000906125
0.0250404
-0.00231113
0.0496266
-0.00287963
0.0604676
-0.00134094
0.06034
0.0046022
0.0511166
0.0148857
0.0361693
0.0378504
0.000298323
0.0687135
-0.0476869
0.119991
-0.0727933
-0.21681
0.196157
-0.000741
0.0257814
-0.00158614
0.0504717
-0.00107259
0.059954
0.00230679
0.0569606
0.0112081
0.0422153
0.0262555
0.0211218
0.0565999
-0.030046
0.0964369
-0.0875239
0.162964
-0.13932
-0.307836
0.253989
-0.000609269
0.0263907
-0.000898752
0.0507612
0.000753344
0.0583019
0.00622355
0.0514904
0.0185828
0.029856
0.0395789
0.000125674
0.0781039
-0.0685709
0.129379
-0.138799
0.210664
-0.220605
-0.407997
0.310825
-0.00051127
0.0269019
-0.000236343
0.0504863
0.0026365
0.0554291
0.0104978
0.0436291
0.0269608
0.0133931
0.0553662
-0.0282798
0.102728
-0.115933
0.167154
-0.203225
0.260627
-0.314078
-0.509553
0.362183
-0.000437895
0.0273398
0.000419852
0.0496286
0.00467494
0.051174
0.015324
0.03298
0.0366817
-0.00796468
0.0739221
-0.0655202
0.130688
-0.172699
0.207663
-0.280201
0.308223
-0.414637
-0.605644
0.404314
-0.000378156
0.027718
0.00111079
0.0481396
0.00697127
0.0453135
0.0209609
0.0189904
0.0481965
-0.0352003
0.0952294
-0.112553
0.161463
-0.238933
0.247705
-0.366443
0.348518
-0.51545
-0.69213
0.435004
-0.000319698
0.0280377
0.00188817
0.0459317
0.00966147
0.0375402
0.0277155
0.000936372
0.0619439
-0.0694287
0.118905
-0.169514
0.19333
-0.313357
0.283751
-0.456863
0.378367
-0.610067
-0.76761
0.453847
-0.000245696
0.0282834
0.00281176
0.0428743
0.0129056
0.0274464
0.0358956
-0.0220536
0.078113
-0.111646
0.144044
-0.235445
0.223724
-0.393038
0.312858
-0.545997
0.39706
-0.694269
-0.832625
0.462074
-0.000135907
0.0284193
0.00394797
0.0387904
0.0168801
0.0145143
0.0457395
-0.050913
0.0963978
-0.162304
0.169115
-0.308163
0.250163
-0.474085
0.333482
-0.629316
0.405655
-0.766442
-0.889264
0.462294
3.11178e-05
0.0283882
0.00536718
0.0334544
0.0217653
-0.00188383
0.0573181
-0.0864659
0.115914
-0.2209
0.192257
-0.384506
0.270935
-0.552763
0.345595
-0.703977
0.407164
-0.828011
-0.945225
0.463125
0.000249097
0.0281391
0.00714382
0.0265596
0.0277191
-0.0224591
0.0704247
-0.129171
0.135348
-0.285824
0.211847
-0.461005
0.285316
-0.626231
0.350332
-0.768993
0.405197
-0.882875
-0.993778
0.45375
0.000556221
0.0275828
0.00935552
0.0177603
0.0348264
-0.04793
0.0845175
-0.178863
0.153281
-0.354588
0.226909
-0.534632
0.293484
-0.692806
0.349888
-0.825398
0.397529
-0.930516
-1.03502
0.438768
0.000962785
0.0266201
0.0120795
0.00664361
0.0430314
-0.0788819
0.0987757
-0.234607
0.168545
-0.424357
0.23716
-0.603247
0.296304
-0.75195
0.344945
-0.874039
0.386471
-0.972042
-1.07194
0.423395
0.00148016
0.0251399
0.0153825
-0.00725874
0.0520949
-0.115594
0.112264
-0.294776
0.18044
-0.492533
0.24286
-0.665667
0.294666
-0.803757
0.336676
-0.916049
0.373181
-1.00855
-1.10486
0.406101
0.0021223
0.0230176
0.0192947
-0.0244311
0.0616119
-0.157912
0.124135
-0.357299
0.188741
-0.557139
0.244513
-0.721438
0.289519
-0.848763
0.325921
-0.952452
0.358188
-1.04081
-1.13469
0.388021
0.00291068
0.0201069
0.0237779
-0.0452984
0.0710719
-0.205205
0.133793
-0.42002
0.193566
-0.616912
0.24274
-0.770613
0.281659
-0.887682
0.313349
-0.984143
0.342116
-1.06958
-1.16183
0.369258
0.00387816
0.0162288
0.0287135
-0.0701337
0.079928
-0.25642
0.140951
-0.481042
0.195232
-0.671193
0.238163
-0.813545
0.271751
-0.921269
0.299481
-1.01187
0.325242
-1.09534
-1.18657
0.34998
0.0050649
0.0111639
0.0339167
-0.0989855
0.087681
-0.310184
0.145582
-0.538943
0.194148
-0.719759
0.231349
-0.850746
0.260323
-0.950243
0.284684
-1.03623
0.307815
-1.11847
-1.2091
0.330339
0.00650218
0.00466169
0.0391695
-0.131653
0.0939728
-0.364988
0.147828
-0.592798
0.190744
-0.762674
0.222787
-0.882789
0.247779
-0.975235
0.26923
-1.05769
0.289982
-1.13922
-1.2295
0.310382
0.00818976
-0.00352807
0.0442493
-0.167712
0.0986271
-0.419366
0.147917
-0.642088
0.185432
-0.800189
0.212883
-0.91024
0.234428
-0.99678
0.25331
-1.07657
0.271849
-1.15776
-1.24783
0.290183
0.0100833
-0.0136114
0.0489397
-0.206569
0.101617
-0.472043
0.146113
-0.686584
0.178581
-0.832657
0.201968
-0.933627
0.2205
-1.01531
0.237059
-1.09313
0.25349
-1.17419
-1.26412
0.269779
0.0121024
-0.0257138
0.0530377
-0.247504
0.103013
-0.522018
0.142685
-0.726257
0.170512
-0.860484
0.190304
-0.953418
0.206166
-1.03117
0.220576
-1.10754
0.234961
-1.18858
-1.27837
0.24921
0.0141519
-0.0398657
0.0563719
-0.289724
0.10294
-0.568585
0.137891
-0.761209
0.161495
-0.884088
0.178096
-0.970018
0.191551
-1.04463
0.203929
-1.11991
0.216307
-1.20096
-1.29057
0.228511
0.0161441
-0.0560098
0.0588242
-0.332404
0.101551
-0.611312
0.131969
-0.791626
0.15175
-0.903869
0.165502
-0.983771
0.176749
-1.05588
0.18717
-1.13034
0.197562
-1.21135
-1.30073
0.207715
0.0180081
-0.0740179
0.0603389
-0.374735
0.0990104
-0.649984
0.125131
-0.817747
0.141458
-0.920195
0.152645
-0.994959
0.161828
-1.06506
0.17034
-1.13885
0.178759
-1.21977
-1.30882
0.186856
0.0196855
-0.0937034
0.0609163
-0.415966
0.0954794
-0.684547
0.117568
-0.839836
0.130769
-0.933396
0.139619
-1.00381
0.146843
-1.07228
0.153478
-1.14548
0.159928
-1.22622
-1.31486
0.165965
0.0211232
-0.114827
0.0605962
-0.455439
0.0911106
-0.715061
0.10944
-0.858166
0.119803
-0.943759
0.126495
-1.0105
0.131836
-1.07762
0.136613
-1.15026
0.141098
-1.2307
-1.31884
0.145076
0.0222712
-0.137098
0.0594366
-0.492604
0.0860423
-0.741667
0.10089
-0.873013
0.108658
-0.951528
0.113332
-1.01517
0.116842
-1.08113
0.119772
-1.15319
0.122299
-1.23323
-1.32076
0.124223
0.0230861
-0.160184
0.0575237
-0.527042
0.0804008
-0.764544
0.0920316
-0.884644
0.0974126
-0.956909
0.100173
-1.01793
0.101889
-1.08285
0.102982
-1.15428
0.103558
-1.2338
-1.32065
0.10345
0.0235393
-0.183723
0.0550371
-0.55854
0.0743045
-0.783811
0.0829616
-0.893301
0.0861284
-0.960075
0.0870549
-1.01886
0.0870044
-1.0828
0.0862653
-1.15354
0.0849041
-1.23244
-1.31856
0.0828072
0.023619
-0.207342
0.0520424
-0.586963
0.0678578
-0.799627
0.0737588
-0.899202
0.074855
-0.961172
0.074009
-1.01801
0.072211
-1.081
0.069645
-1.15098
0.0663588
-1.22916
-1.31446
0.0622616
0.0233304
-0.230673
0.0486113
-0.612244
0.0611512
-0.812167
0.0644897
-0.90254
0.0636323
-0.960314
0.0610604
-1.01544
0.0575307
-1.07747
0.0531469
-1.14659
0.0479396
-1.22395
-1.30835
0.0418302
0.0226948
-0.253367
0.0448176
-0.634367
0.0542643
-0.821613
0.0552087
-0.903484
0.0524923
-0.957598
0.0482315
-1.01118
0.0429837
-1.07223
0.036797
-1.14041
0.0296908
-1.21684
-1.3002
0.0215385
0.0217455
-0.275113
0.0407316
-0.653353
0.0472484
-0.82813
0.0459596
-0.902196
0.041462
-0.9531
0.0355426
-1.00526
0.0285885
-1.06527
0.0206091
-1.13243
0.0116763
-1.20791
-1.28985
0.00132784
0.0205232
-0.295636
0.0364191
-0.669249
0.0401608
-0.831872
0.0367787
-0.898813
0.0305642
-0.946886
0.0230108
-0.997709
0.0143632
-1.05662
0.00456033
-1.12263
-0.00609162
-1.19726
-1.27752
-0.018422
0.0190714
-0.314707
0.0319403
-0.682118
0.0330545
-0.832986
0.027697
-0.893456
0.0198169
-0.939006
0.0106463
-0.988539
0.000292377
-1.04627
-0.011149
-1.11118
-0.0237416
-1.18467
-1.26336
-0.0378989
0.0174327
-0.33214
0.0273498
-0.692035
0.0259732
-0.83161
0.0187408
-0.886224
0.00922687
-0.929492
-0.00154809
-0.977764
-0.0134457
-1.03437
-0.0266048
-1.09802
-0.0410932
-1.17018
-1.24735
-0.0571087
0.0156469
-0.347787
0.0226958
-0.699084
0.0189531
-0.827867
0.00993091
-0.877201
-0.00121817
-0.918343
-0.0134215
-0.96556
-0.0269833
-1.02081
-0.0418301
-1.08318
-0.0581494
-1.15386
-1.22949
-0.0760047
0.0137509
-0.361538
0.0180208
-0.703354
0.0120219
-0.821868
0.00125891
-0.866438
-0.0112853
-0.905798
-0.0251077
-0.951738
-0.0402733
-1.00564
-0.0567906
-1.06666
-0.0748908
-1.13576
-1.20981
-0.0945679
0.011778
-0.373316
0.0133619
-0.704938
0.00519066
-0.813697
-0.00712933
-0.854118
-0.0211908
-0.891737
-0.0365602
-0.936369
-0.053299
-0.988906
-0.0714616
-1.0485
-0.0913019
-1.11592
-1.18835
-0.112769
0.00975835
-0.383074
0.00875418
-0.703933
-0.00151443
-0.803428
-0.0153422
-0.840291
-0.0308788
-0.8762
-0.0477604
-0.919487
-0.066044
-0.970622
-0.0858216
-1.02872
-0.107364
-1.09437
-1.16512
-0.130588
0.00771711
-0.390791
0.00423772
-0.700454
-0.00790359
-0.791287
-0.0233528
-0.824841
-0.0403321
-0.859221
-0.0586941
-0.901125
-0.0784932
-0.950823
-0.0998522
-1.00736
-0.12306
-1.07117
-1.14018
-0.148002
0.00567303
-0.396464
-8.5629e-05
-0.694695
-0.0141623
-0.77721
-0.0311465
-0.807857
-0.0495399
-0.840828
-0.0693489
-0.881316
-0.0906318
-0.92954
-0.113537
-0.984456
-0.138373
-1.04633
-1.11356
-0.16499
0.00364423
-0.400109
-0.00464676
-0.686404
-0.0202591
-0.761598
-0.0387087
-0.789408
-0.0584907
-0.821046
-0.0797129
-0.860094
-0.102446
-0.906807
-0.126861
-0.960041
-0.153286
-1.01991
-1.08532
-0.181525
0.00166708
-0.401776
-0.00894946
-0.675788
-0.0261756
-0.744372
-0.0460303
-0.769553
-0.0671742
-0.799902
-0.089775
-0.837493
-0.113922
-0.88266
-0.13981
-0.934153
-0.167782
-0.991935
-1.05552
-0.19758
-0.000221921
-0.401554
-0.0130843
-0.662925
-0.0319021
-0.725554
-0.0531066
-0.748348
-0.0755805
-0.777428
-0.0995241
-0.81355
-0.125049
-0.857136
-0.152375
-0.906826
-0.181844
-0.962466
-1.02421
-0.213162
-0.00234976
-0.399204
-0.0170679
-0.648207
-0.0374258
-0.705196
-0.0599318
-0.725842
-0.0837006
-0.753659
-0.10895
-0.788301
-0.135816
-0.83027
-0.164556
-0.878087
-0.195466
-0.931555
-0.991437
-0.228236
-0.00432904
-0.394875
-0.0208986
-0.631638
-0.0427353
-0.683359
-0.0664999
-0.702078
-0.0915259
-0.728633
-0.118041
-0.761785
-0.146216
-0.802095
-0.176345
-0.847958
-0.208601
-0.899299
-0.957472
-0.242566
-0.00622176
-0.388653
-0.0245737
-0.613286
-0.0478243
-0.660109
-0.0728055
-0.677097
-0.0990483
-0.70239
-0.12679
-0.734043
-0.156239
-0.772646
-0.187698
-0.816498
-0.221259
-0.865739
-0.922709
-0.256023
-0.00803426
-0.380619
-0.0280898
-0.59323
-0.0526882
-0.63551
-0.0788432
-0.650942
-0.106261
-0.674973
-0.135188
-0.705116
-0.165868
-0.741966
-0.19856
-0.783806
-0.232972
-0.831327
-0.885751
-0.26993
-0.00976686
-0.370852
-0.0314437
-0.571553
-0.0573235
-0.609631
-0.0846082
-0.623657
-0.113156
-0.646425
-0.143227
-0.675045
-0.175082
-0.710111
-0.208892
-0.749996
-0.244565
-0.795654
-0.847204
-0.283111
-0.0114182
-0.359434
-0.0346324
-0.548339
-0.0617274
-0.582536
-0.0900958
-0.595288
-0.119729
-0.616792
-0.150899
-0.643875
-0.18388
-0.67713
-0.218833
-0.715042
-0.255883
-0.758605
-0.807322
-0.295766
-0.0129862
-0.346448
-0.0376533
-0.523672
-0.0658974
-0.554291
-0.0953018
-0.565884
-0.125972
-0.586121
-0.158191
-0.611656
-0.192238
-0.643083
-0.228279
-0.679002
-0.26655
-0.720334
-0.766174
-0.307697
-0.0144688
-0.331979
-0.0405038
-0.497637
-0.0698314
-0.524964
-0.100222
-0.535493
-0.13188
-0.554463
-0.165098
-0.578439
-0.200163
-0.608017
-0.237263
-0.641902
-0.27669
-0.680907
-0.723881
-0.318983
-0.0158637
-0.316115
-0.0431819
-0.470319
-0.0735273
-0.494618
-0.104853
-0.504167
-0.137447
-0.521869
-0.17161
-0.544276
-0.207639
-0.571989
-0.245742
-0.603799
-0.286245
-0.640403
-0.680515
-0.329612
-0.0171683
-0.298947
-0.0456857
-0.441801
-0.0769833
-0.463321
-0.109191
-0.471959
-0.142668
-0.488392
-0.177721
-0.509223
-0.214659
-0.535051
-0.253712
-0.564746
-0.295221
-0.598894
-0.636148
-0.339588
-0.0183797
-0.280567
-0.0480137
-0.412167
-0.0801976
-0.431137
-0.113233
-0.438923
-0.147537
-0.454088
-0.183425
-0.473335
-0.221215
-0.497261
-0.261157
-0.524804
-0.303603
-0.556449
-0.590846
-0.348904
-0.019494
-0.261073
-0.0501642
-0.381497
-0.0831688
-0.398132
-0.116976
-0.405116
-0.15205
-0.419014
-0.188714
-0.436671
-0.227298
-0.458677
-0.268068
-0.484034
-0.311381
-0.513136
-0.544677
-0.35755
-0.0205045
-0.240569
-0.0521354
-0.349866
-0.0858958
-0.364372
-0.120417
-0.370596
-0.156202
-0.383228
-0.193583
-0.399291
-0.232901
-0.419358
-0.274436
-0.442499
-0.318545
-0.469027
-0.497707
-0.365515
-0.0213967
-0.219172
-0.0539263
-0.317337
-0.0883782
-0.32992
-0.123552
-0.335421
-0.15999
-0.346791
-0.198026
-0.361255
-0.238017
-0.379367
-0.28025
-0.400266
-0.325087
-0.42419
-0.450007
-0.372787
-0.0222155
-0.196956
-0.0555389
-0.284014
-0.0906157
-0.294843
-0.126382
-0.299656
-0.163409
-0.309764
-0.202038
-0.322626
-0.242638
-0.338767
-0.285505
-0.357399
-0.330997
-0.378699
-0.401648
-0.379356
-0.0229607
-0.173996
-0.0569741
-0.25
-0.0926074
-0.25921
-0.128901
-0.263362
-0.166456
-0.27221
-0.205615
-0.283466
-0.24676
-0.297622
-0.290193
-0.313966
-0.336267
-0.332625
-0.352702
-0.385213
-0.02362
-0.150376
-0.0582314
-0.215389
-0.0943526
-0.223088
-0.13111
-0.226604
-0.169129
-0.234191
-0.208754
-0.243841
-0.250378
-0.255998
-0.294308
-0.270036
-0.34089
-0.286043
-0.303245
-0.390347
-0.0241887
-0.126187
-0.0593102
-0.180267
-0.0958502
-0.186548
-0.133006
-0.189448
-0.171424
-0.195773
-0.21145
-0.203816
-0.253485
-0.213963
-0.297842
-0.225679
-0.344861
-0.239024
-0.253353
-0.394752
-0.0246645
-0.101523
-0.06021
-0.144722
-0.0970995
-0.149659
-0.134588
-0.151959
-0.173341
-0.15702
-0.213701
-0.163455
-0.25608
-0.171584
-0.300792
-0.180968
-0.348171
-0.191645
-0.203101
-0.398422
-0.025046
-0.0764765
-0.0609303
-0.108838
-0.0980998
-0.112489
-0.135856
-0.114203
-0.174876
-0.118
-0.215504
-0.122827
-0.258159
-0.128929
-0.303154
-0.135973
-0.350818
-0.143981
-0.152566
-0.401354
-0.0253327
-0.0511438
-0.0614709
-0.0726993
-0.0988505
-0.0751098
-0.136807
-0.0762472
-0.176028
-0.0787789
-0.216858
-0.0819967
-0.25972
-0.0860676
-0.304927
-0.0907661
-0.352803
-0.0961042
-0.101822
-0.403547
-0.025524
-0.0256198
-0.0618314
-0.036392
-0.0993512
-0.03759
-0.137441
-0.0381571
-0.176797
-0.0394231
-0.217762
-0.041032
-0.260761
-0.0430683
-0.306109
-0.0454183
-0.354126
-0.048087
-0.0509439
-0.405004
-0.0256198
-1.99707e-08
-0.0620117
-2.7135e-08
-0.0996016
-2.64586e-08
-0.137759
-2.5077e-08
-0.177182
-2.38998e-08
-0.218214
-2.27774e-08
-0.261282
-2.1765e-08
-0.3067
-2.08333e-08
-0.354787
-1.99689e-08
-1.9082e-08
-0.405731
-0.0256198
0.0256197
-0.0620117
0.0363919
-0.0996016
0.0375899
-0.137759
0.038157
-0.177182
0.039423
-0.218214
0.0410319
-0.261282
0.0430682
-0.3067
0.0454182
-0.354787
0.048087
0.0509438
-0.405731
-0.025524
0.0511438
-0.0618314
0.0726993
-0.0993512
0.0751097
-0.137441
0.0762472
-0.176797
0.0787788
-0.217762
0.0819966
-0.260761
0.0860676
-0.306109
0.090766
-0.354126
0.0961041
0.101822
-0.405004
-0.0253327
0.0764765
-0.0614709
0.108837
-0.0988505
0.112489
-0.136807
0.114203
-0.176028
0.118
-0.216858
0.122827
-0.25972
0.128929
-0.304927
0.135973
-0.352803
0.143981
0.152566
-0.403547
-0.025046
0.101523
-0.0609303
0.144722
-0.0980998
0.149659
-0.135856
0.151959
-0.174876
0.15702
-0.215504
0.163455
-0.258159
0.171584
-0.303154
0.180968
-0.350818
0.191645
0.203101
-0.401354
-0.0246645
0.126187
-0.06021
0.180267
-0.0970995
0.186548
-0.134588
0.189448
-0.173341
0.195772
-0.213701
0.203816
-0.25608
0.213963
-0.300792
0.225679
-0.348171
0.239024
0.253353
-0.398422
-0.0241887
0.150376
-0.0593102
0.215389
-0.0958502
0.223088
-0.133006
0.226604
-0.171424
0.234191
-0.21145
0.243841
-0.253485
0.255998
-0.297842
0.270036
-0.344861
0.286043
0.303245
-0.394752
-0.02362
0.173996
-0.0582313
0.25
-0.0943526
0.25921
-0.13111
0.263362
-0.169129
0.27221
-0.208754
0.283466
-0.250378
0.297622
-0.294308
0.313966
-0.34089
0.332625
0.352702
-0.390347
-0.0229607
0.196956
-0.0569741
0.284013
-0.0926074
0.294843
-0.128901
0.299655
-0.166456
0.309764
-0.205615
0.322626
-0.24676
0.338767
-0.290193
0.357399
-0.336267
0.378699
0.401647
-0.385213
-0.0222155
0.219172
-0.0555389
0.317337
-0.0906157
0.32992
-0.126382
0.335421
-0.163409
0.346791
-0.202038
0.361255
-0.242638
0.379367
-0.285505
0.400266
-0.330997
0.42419
0.450007
-0.379356
-0.0213967
0.240569
-0.0539263
0.349866
-0.0883782
0.364372
-0.123552
0.370596
-0.15999
0.383228
-0.198026
0.399291
-0.238017
0.419358
-0.28025
0.442499
-0.325087
0.469027
0.497707
-0.372787
-0.0205045
0.261073
-0.0521354
0.381497
-0.0858958
0.398132
-0.120417
0.405116
-0.156202
0.419014
-0.193583
0.436671
-0.232901
0.458677
-0.274436
0.484034
-0.318545
0.513136
0.544677
-0.365515
-0.019494
0.280567
-0.0501642
0.412167
-0.0831688
0.431137
-0.116976
0.438923
-0.15205
0.454088
-0.188714
0.473335
-0.227298
0.497261
-0.268068
0.524804
-0.311381
0.556449
0.590846
-0.35755
-0.0183797
0.298947
-0.0480137
0.441801
-0.0801976
0.463321
-0.113233
0.471959
-0.147537
0.488392
-0.183425
0.509223
-0.221215
0.535051
-0.261157
0.564746
-0.303603
0.598894
0.636148
-0.348904
-0.0171683
0.316115
-0.0456857
0.470319
-0.0769833
0.494618
-0.109191
0.504167
-0.142668
0.521869
-0.177721
0.544276
-0.214659
0.571989
-0.253712
0.603799
-0.295221
0.640403
0.680514
-0.339588
-0.0158637
0.331979
-0.0431819
0.497637
-0.0735273
0.524964
-0.104853
0.535493
-0.137447
0.554463
-0.17161
0.578439
-0.207639
0.608017
-0.245742
0.641902
-0.286245
0.680907
0.723881
-0.329612
-0.0144688
0.346448
-0.0405038
0.523672
-0.0698314
0.554291
-0.100222
0.565884
-0.13188
0.586121
-0.165098
0.611656
-0.200163
0.643083
-0.237263
0.679002
-0.27669
0.720334
0.766174
-0.318983
-0.0129862
0.359434
-0.0376533
0.548339
-0.0658974
0.582536
-0.0953018
0.595288
-0.125972
0.616792
-0.158191
0.643875
-0.192238
0.67713
-0.228279
0.715042
-0.26655
0.758605
0.807322
-0.307697
-0.0114182
0.370852
-0.0346324
0.571553
-0.0617274
0.609631
-0.0900958
0.623657
-0.119729
0.646425
-0.150899
0.675045
-0.18388
0.710111
-0.218833
0.749996
-0.255883
0.795654
0.847204
-0.295766
-0.00976686
0.380619
-0.0314437
0.59323
-0.0573235
0.63551
-0.0846082
0.650941
-0.113156
0.674973
-0.143227
0.705116
-0.175082
0.741966
-0.208892
0.783806
-0.244565
0.831327
0.88575
-0.283111
-0.00803426
0.388653
-0.0280898
0.613286
-0.0526882
0.660109
-0.0788432
0.677097
-0.106261
0.70239
-0.135188
0.734043
-0.165868
0.772646
-0.19856
0.816498
-0.232972
0.865739
0.922708
-0.26993
-0.00622176
0.394875
-0.0245737
0.631638
-0.0478243
0.683359
-0.0728055
0.702078
-0.0990483
0.728633
-0.12679
0.761785
-0.156239
0.802095
-0.187698
0.847958
-0.221259
0.899299
0.957472
-0.256022
-0.00432904
0.399204
-0.0208986
0.648207
-0.0427353
0.705196
-0.0664999
0.725842
-0.0915259
0.753659
-0.118041
0.788301
-0.146216
0.83027
-0.176345
0.878086
-0.208601
0.931555
0.991437
-0.242566
-0.00234975
0.401554
-0.0170679
0.662925
-0.0374258
0.725554
-0.0599318
0.748348
-0.0837006
0.777428
-0.10895
0.81355
-0.135816
0.857136
-0.164556
0.906826
-0.195466
0.962466
1.02421
-0.228236
-0.000221921
0.401776
-0.0130843
0.675788
-0.0319021
0.744372
-0.0531066
0.769553
-0.0755805
0.799902
-0.0995241
0.837493
-0.125049
0.88266
-0.152375
0.934153
-0.181844
0.991935
1.05552
-0.213162
0.00166708
0.400109
-0.00894946
0.686404
-0.0261756
0.761598
-0.0460303
0.789408
-0.0671742
0.821046
-0.089775
0.860094
-0.113922
0.906807
-0.13981
0.960041
-0.167782
1.01991
1.08532
-0.19758
0.00364423
0.396464
-0.00464676
0.694695
-0.0202591
0.77721
-0.0387087
0.807857
-0.0584907
0.840828
-0.0797129
0.881316
-0.102446
0.92954
-0.126861
0.984456
-0.153286
1.04633
1.11356
-0.181525
0.00567303
0.390791
-8.56274e-05
0.700454
-0.0141623
0.791287
-0.0311465
0.824841
-0.0495399
0.859221
-0.0693489
0.901125
-0.0906318
0.950823
-0.113537
1.00736
-0.138373
1.07117
1.14018
-0.16499
0.00771711
0.383074
0.00423772
0.703933
-0.00790358
0.803428
-0.0233528
0.840291
-0.0403321
0.8762
-0.0586941
0.919487
-0.0784932
0.970622
-0.0998522
1.02872
-0.123059
1.09437
1.16512
-0.148002
0.00975835
0.373316
0.00875418
0.704937
-0.00151443
0.813697
-0.0153422
0.854118
-0.0308788
0.891737
-0.0477604
0.936369
-0.066044
0.988906
-0.0858216
1.0485
-0.107364
1.11592
1.18835
-0.130588
0.011778
0.361538
0.0133619
0.703354
0.00519066
0.821868
-0.00712932
0.866438
-0.0211908
0.905798
-0.0365602
0.951738
-0.053299
1.00564
-0.0714616
1.06666
-0.0913019
1.13576
1.20981
-0.112769
0.0137509
0.347787
0.0180208
0.699084
0.0120219
0.827867
0.00125891
0.877201
-0.0112853
0.918343
-0.0251077
0.96556
-0.0402733
1.02081
-0.0567906
1.08318
-0.0748908
1.15386
1.22949
-0.0945678
0.0156469
0.33214
0.0226958
0.692035
0.0189531
0.831609
0.00993091
0.886223
-0.00121817
0.929492
-0.0134215
0.977764
-0.0269833
1.03437
-0.0418301
1.09802
-0.0581494
1.17018
1.24735
-0.0760046
0.0174327
0.314707
0.0273498
0.682118
0.0259732
0.832986
0.0187408
0.893456
0.00922687
0.939006
-0.00154808
0.988539
-0.0134457
1.04627
-0.0266048
1.11118
-0.0410932
1.18467
1.26336
-0.0571087
0.0190714
0.295636
0.0319403
0.669249
0.0330545
0.831872
0.027697
0.898813
0.0198169
0.946886
0.0106463
0.997709
0.000292387
1.05662
-0.011149
1.12263
-0.0237416
1.19726
1.27752
-0.0378989
0.0205232
0.275113
0.0364191
0.653353
0.0401608
0.82813
0.0367787
0.902195
0.0305642
0.9531
0.0230108
1.00526
0.0143632
1.06527
0.00456034
1.13243
-0.00609161
1.20791
1.28985
-0.018422
0.0217455
0.253367
0.0407316
0.634367
0.0472484
0.821613
0.0459596
0.903484
0.041462
0.957598
0.0355426
1.01118
0.0285885
1.07223
0.0206092
1.14041
0.0116763
1.21684
1.3002
0.00132786
0.0226948
0.230673
0.0448176
0.612244
0.0542643
0.812167
0.0552087
0.90254
0.0524924
0.960314
0.0482315
1.01544
0.0429837
1.07747
0.0367971
1.14659
0.0296908
1.22395
1.30835
0.0215385
0.0233304
0.207342
0.0486113
0.586963
0.0611512
0.799627
0.0644897
0.899202
0.0636323
0.961172
0.0610604
1.01801
0.0575307
1.081
0.0531469
1.15098
0.0479396
1.22916
1.31446
0.0418302
0.023619
0.183723
0.0520424
0.558539
0.0678578
0.783811
0.0737588
0.893301
0.074855
0.960075
0.074009
1.01886
0.072211
1.0828
0.069645
1.15354
0.0663588
1.23244
1.31856
0.0622617
0.0235393
0.160184
0.0550371
0.527042
0.0743045
0.764544
0.0829616
0.884643
0.0861284
0.956909
0.0870549
1.01793
0.0870044
1.08285
0.0862654
1.15428
0.0849041
1.2338
1.32065
0.0828073
0.0230861
0.137098
0.0575237
0.492604
0.0804008
0.741667
0.0920316
0.873013
0.0974126
0.951527
0.100173
1.01517
0.101889
1.08113
0.102982
1.15319
0.103558
1.23323
1.32076
0.10345
0.0222712
0.114827
0.0594366
0.455439
0.0860423
0.715061
0.10089
0.858165
0.108658
0.943759
0.113332
1.0105
0.116842
1.07762
0.119772
1.15026
0.122299
1.2307
1.31884
0.124223
0.0211232
0.0937034
0.0605962
0.415966
0.0911106
0.684547
0.10944
0.839836
0.119803
0.933396
0.126495
1.00381
0.131836
1.07228
0.136613
1.14548
0.141098
1.22622
1.31486
0.145076
0.0196854
0.0740179
0.0609163
0.374735
0.0954794
0.649984
0.117568
0.817747
0.130769
0.920195
0.139619
0.994958
0.146843
1.06506
0.153478
1.13885
0.159928
1.21977
1.30882
0.165965
0.0180081
0.0560098
0.0603389
0.332404
0.0990103
0.611312
0.125131
0.791626
0.141458
0.903869
0.152645
0.983771
0.161828
1.05588
0.17034
1.13034
0.178759
1.21135
1.30073
0.186856
0.0161441
0.0398657
0.0588242
0.289724
0.101551
0.568585
0.131969
0.761208
0.15175
0.884088
0.165502
0.970018
0.176749
1.04463
0.18717
1.11991
0.197562
1.20096
1.29057
0.207715
0.0141519
0.0257138
0.0563719
0.247504
0.10294
0.522018
0.137891
0.726257
0.161495
0.860484
0.178096
0.953418
0.191551
1.03117
0.203929
1.10754
0.216307
1.18858
1.27837
0.228511
0.0121024
0.0136114
0.0530377
0.206569
0.103013
0.472043
0.142685
0.686584
0.170512
0.832657
0.190304
0.933626
0.206166
1.01531
0.220576
1.09313
0.234962
1.17419
1.26412
0.24921
0.0100833
0.00352807
0.0489397
0.167712
0.101617
0.419365
0.146113
0.642088
0.178581
0.800189
0.201968
0.91024
0.2205
0.99678
0.237059
1.07657
0.25349
1.15776
1.24783
0.269779
0.00818976
-0.00466169
0.0442493
0.131653
0.0986271
0.364988
0.147917
0.592798
0.185432
0.762674
0.212882
0.882789
0.234428
0.975235
0.25331
1.05769
0.271849
1.13922
1.2295
0.290183
0.00650217
-0.0111639
0.0391695
0.0989854
0.0939728
0.310184
0.147828
0.538943
0.190744
0.719759
0.222787
0.850746
0.247779
0.950243
0.26923
1.03623
0.289982
1.11847
1.2091
0.310382
0.0050649
-0.0162288
0.0339167
0.0701337
0.0876809
0.25642
0.145582
0.481042
0.194148
0.671193
0.231349
0.813545
0.260323
0.921269
0.284684
1.01187
0.307815
1.09534
1.18657
0.330339
0.00387816
-0.0201069
0.0287134
0.0452984
0.079928
0.205205
0.140951
0.420019
0.195232
0.616912
0.238163
0.770613
0.271751
0.887681
0.299481
0.984142
0.325242
1.06958
1.16183
0.34998
0.00291068
-0.0230176
0.0237779
0.0244311
0.0710719
0.157911
0.133793
0.357298
0.193566
0.557139
0.24274
0.721438
0.281659
0.848763
0.313349
0.952452
0.342116
1.04081
1.13469
0.369258
0.0021223
-0.0251399
0.0192947
0.00725875
0.0616119
0.115594
0.124135
0.294776
0.188741
0.492533
0.244512
0.665667
0.289518
0.803757
0.325921
0.916049
0.358188
1.00855
1.10486
0.388021
0.00148016
-0.0266201
0.0153825
-0.00664361
0.0520949
0.0788819
0.112264
0.234607
0.18044
0.424357
0.24286
0.603247
0.294666
0.75195
0.336676
0.874039
0.373181
0.972042
1.07194
0.406101
0.000962786
-0.0275828
0.0120795
-0.0177603
0.0430314
0.04793
0.0987757
0.178862
0.168545
0.354588
0.23716
0.534632
0.296304
0.692806
0.344945
0.825398
0.386471
0.930516
1.03502
0.423395
0.000556221
-0.0281391
0.00935551
-0.0265596
0.0348264
0.0224591
0.0845174
0.129171
0.153281
0.285824
0.226908
0.461005
0.293483
0.626231
0.349888
0.768993
0.397529
0.882875
0.993777
0.438768
0.000249096
-0.0283882
0.00714382
-0.0334543
0.0277191
0.00188385
0.0704246
0.0864659
0.135348
0.2209
0.211847
0.384506
0.285316
0.552763
0.350332
0.703976
0.405197
0.82801
0.945224
0.45375
3.11158e-05
-0.0284193
0.00536717
-0.0387904
0.0217652
-0.0145142
0.0573181
0.050913
0.115914
0.162304
0.192257
0.308163
0.270935
0.474085
0.345595
0.629316
0.407164
0.766441
0.889263
0.463125
-0.000135911
-0.0282834
0.00394796
-0.0428743
0.0168801
-0.0274463
0.0457395
0.0220537
0.0963977
0.111646
0.169115
0.235445
0.250162
0.393038
0.333482
0.545997
0.405655
0.694268
0.832625
0.462294
-0.000245702
-0.0280377
0.00281174
-0.0459317
0.0129056
-0.0375402
0.0358955
-0.000936309
0.0781129
0.0694287
0.144044
0.169514
0.223724
0.313357
0.312858
0.456863
0.397059
0.610067
0.76761
0.462074
-0.000319706
-0.027718
0.00188814
-0.0481395
0.00966142
-0.0453134
0.0277154
-0.0189903
0.0619438
0.0352003
0.118905
0.112553
0.19333
0.238932
0.28375
0.366443
0.378367
0.51545
0.69213
0.453847
-0.000378166
-0.0273398
0.00111076
-0.0496285
0.00697122
-0.0511739
0.0209608
-0.0329799
0.0481964
0.00796478
0.0952292
0.0655202
0.161463
0.172699
0.247705
0.280201
0.348518
0.414637
0.605644
0.435004
-0.000437906
-0.0269019
0.000419819
-0.0504862
0.00467488
-0.0554289
0.0153239
-0.0436289
0.0366816
-0.0133929
0.073922
0.0282799
0.130688
0.115933
0.207663
0.203225
0.308222
0.314078
0.509552
0.404314
-0.000511283
-0.0263906
-0.000236381
-0.0507611
0.00263644
-0.0583018
0.0104977
-0.0514902
0.0269606
-0.0298559
0.0553661
-0.000125523
0.102728
0.068571
0.167154
0.138799
0.260626
0.220605
0.407996
0.362182
-0.000609283
-0.0257813
-0.000898792
-0.0504716
0.000753272
-0.0599538
0.00622344
-0.0569604
0.0185826
-0.0422151
0.0395787
-0.0211216
0.0781036
0.0300461
0.129379
0.087524
0.210664
0.13932
0.307835
0.310825
-0.000741015
-0.0250403
-0.00158618
-0.0496264
-0.00107266
-0.0604673
0.00230667
-0.0603397
0.011208
-0.0511163
0.0262553
-0.036169
0.0565996
-0.000298113
0.0964366
0.047687
0.162964
0.0727932
0.21681
0.253989
-0.000906141
-0.0241342
-0.00231117
-0.0482214
-0.0028797
-0.0598988
-0.00134106
-0.0618784
0.00460204
-0.0570594
0.0148855
-0.0464525
0.0378502
-0.0232628
0.0687131
0.016824
0.119991
0.0215154
0.140644
0.196156
-0.00110219
-0.023032
-0.00307391
-0.0462497
-0.00467123
-0.0583015