/*--------------------------------*- C++ -*----------------------------------*\
  =========                 |
  \\      /  F ield         | OpenFOAM: The Open Source CFD Toolbox
   \\    /   O peration     | Website:  https://openfoam.org
    \\  /    A nd           | Version:  9
     \\/     M anipulation  |
\*---------------------------------------------------------------------------*/
FoamFile
{
    format      ascii;
    class       volVectorField;
    location    "38";
    object      U;
}
// * * * * * * * * * * * * * * * * * * * * * * * * * * * * * * * * * * * * * //

dimensions      [0 1 -1 0 0 0 0];

internalField   nonuniform List<vector> 
8500
(
(-0.00648746 0.00259331 0)
(-0.0291333 0.00447149 -6.58245e-23)
(-0.0611826 0.00493311 -3.61921e-24)
(-0.0889981 0.00476822 6.85666e-37)
(-0.116416 0.00445097 -1.00858e-23)
(-0.136848 0.00384818 8.39794e-24)
(-0.160768 0.0037949 -5.68399e-23)
(-0.171644 0.00248606 -8.8044e-23)
(-0.191944 0.00351398 -8.04945e-23)
(-0.199077 0.00123624 -4.17869e-24)
(-0.00678121 0.00772747 1.90088e-22)
(-0.0293907 0.0133395 6.15017e-23)
(-0.0610612 0.0147238 2.46821e-22)
(-0.08832 0.0142339 0)
(-0.115156 0.0132839 0)
(-0.134609 0.0114846 1.69116e-23)
(-0.157962 0.0113183 4.27195e-23)
(-0.167116 0.00739893 9.39743e-23)
(-0.186902 0.0105076 6.0595e-23)
(-0.191811 0.00357407 1.67237e-23)
(-0.00736048 0.0127075 -1.68921e-22)
(-0.0299018 0.0219862 0)
(-0.0608228 0.0242906 -2.32274e-22)
(-0.0869724 0.0234897 0)
(-0.112648 0.0219101 -4.04012e-23)
(-0.130138 0.0189447 3.36401e-23)
(-0.152355 0.0186371 0)
(-0.158021 0.0121441 0)
(-0.176819 0.0174039 0)
(-0.177303 0.00552412 0)
(-0.00820943 0.0174374 3.39588e-22)
(-0.0306591 0.0302697 -2.46972e-22)
(-0.0604757 0.0334867 -5.82456e-23)
(-0.084972 0.0323961 -3.63155e-22)
(-0.108912 0.0301859 -3.64537e-22)
(-0.123452 0.0261156 3.39227e-23)
(-0.143956 0.0255907 -2.83236e-23)
(-0.144273 0.0166353 3.27525e-22)
(-0.161674 0.0241527 1.81707e-26)
(-0.15553 0.00688687 3.30141e-22)
(-0.00930569 0.021831 -3.39588e-22)
(-0.0316515 0.0380563 -3.19193e-22)
(-0.0600312 0.042169 8.76235e-23)
(-0.0823427 0.0408142 4.84647e-22)
(-0.103973 0.0379603 -4.12197e-23)
(-0.114577 0.03289 5.39349e-22)
(-0.132757 0.031982 0)
(-0.12573 0.0208149 -3.75107e-22)
(-0.141365 0.0307175 -7.99525e-23)
(-0.126273 0.00757544 -4.58855e-22)
(-0.010622 0.0258156 8.56056e-23)
(-0.0328645 0.0452237 5.30851e-22)
(-0.0595008 0.0501988 -4.10292e-22)
(-0.0791136 0.0486077 -2.96491e-25)
(-0.0978506 0.0450751 -3.67543e-22)
(-0.103547 0.0391675 1.36265e-22)
(-0.118727 0.0375653 -5.69072e-23)
(-0.102189 0.0246514 4.69156e-22)
(-0.115678 0.0370448 -8.01233e-23)
(-0.0888738 0.00773636 2.62789e-22)
(-0.0121282 0.0293337 4.28871e-23)
(-0.0342807 0.0516634 0)
(-0.0588933 0.0574432 -1.56773e-24)
(-0.0753146 0.0556436 0)
(-0.0905446 0.051367 6.51877e-22)
(-0.090402 0.0448573 -5.39843e-22)
(-0.101773 0.0420399 0)
(-0.0733949 0.0281465 -1.12607e-24)
(-0.0842655 0.0429155 0)
(-0.0419421 0.00798076 0)
(-0.0137931 0.0323458 -6.9157e-22)
(-0.0358791 0.0572828 -7.14422e-23)
(-0.05821 0.0637776 5.29352e-22)
(-0.0709693 0.0617931 9.81233e-23)
(-0.0820198 0.0566744 -6.55743e-22)
(-0.0751612 0.0498829 -4.04344e-22)
(-0.0816783 0.0450443 -5.71977e-23)
(-0.0390584 0.0313882 4.65681e-22)
(-0.0466708 0.0475999 -8.0434e-23)
(0.0169355 0.00935781 6.65387e-23)
(-0.015587 0.0348303 7.78553e-22)
(-0.0376351 0.0620072 -5.74328e-22)
(-0.0574393 0.0690893 -1.77421e-22)
(-0.0660833 0.0669318 9.78803e-23)
(-0.0721792 0.0608448 6.55675e-22)
(-0.0578006 0.0541983 6.09382e-22)
(-0.0579728 0.0461674 -5.73298e-23)
(0.00119361 0.0345564 9.32038e-23)
(-0.00269172 0.050294 -1.6124e-22)
(0.0917442 0.0123782 6.78316e-23)
(-0.0174831 0.0367842 6.99561e-22)
(-0.0395184 0.0657808 5.74649e-22)
(-0.0565491 0.0732812 -8.32605e-22)
(-0.060628 0.0709401 -9.81899e-23)
(-0.0608255 0.0637367 0)
(-0.0382079 0.0578053 0)
(-0.0298699 0.0452045 0)
(0.0484034 0.0376722 -1.47622e-21)
(0.0474 0.0501153 -6.74958e-22)
(0.186186 0.017599 5.1619e-22)
(-0.0194594 0.0382213 -1.4034e-21)
(-0.0414904 0.0685672 0)
(-0.0554785 0.0762759 1.90611e-21)
(-0.0545226 0.0737067 7.88474e-22)
(-0.0476169 0.0652241 8.20583e-23)
(-0.0159888 0.0606394 0)
(0.00362935 0.0423654 -9.3725e-22)
(0.103913 0.0410769 7.36731e-22)
(0.105267 0.0457346 6.74949e-22)
(0.301876 0.0255018 -5.1617e-22)
(-0.021499 0.03917 7.92202e-22)
(-0.0435004 0.0703494 -7.25335e-23)
(-0.0541256 0.0780194 -9.54798e-22)
(-0.0476099 0.0751373 -8.87505e-22)
(-0.0321188 0.0653043 0)
(0.00973767 0.0624437 1.08559e-21)
(0.0442313 0.0381449 5.22934e-25)
(0.168535 0.0455738 6.35762e-22)
(0.176191 0.0373831 7.57598e-22)
(0.437217 0.0352029 -5.119e-22)
(-0.0235897 0.03967 4.54679e-26)
(-0.04548 0.0711289 1.24335e-21)
(-0.0523324 0.0784842 -1.20128e-22)
(-0.0395704 0.0751402 6.92878e-22)
(-0.013808 0.0640702 4.14025e-22)
(0.0401837 0.0629958 2.75775e-22)
(0.0947172 0.0333995 9.34921e-22)
(0.242688 0.0510209 -8.26616e-22)
(0.268447 0.0289971 -5.15962e-22)
(0.586115 0.0454731 3.76517e-22)
(-0.0257237 0.0397692 0)
(-0.0473365 0.0709236 -1.02407e-21)
(-0.0498837 0.077676 -1.20625e-22)
(-0.0298915 0.0736516 1.62947e-24)
(0.00814151 0.0616046 6.60507e-22)
(0.0768679 0.0622039 -9.49088e-22)
(0.158239 0.0297315 9.29504e-22)
(0.326954 0.0559295 -9.46562e-23)
(0.388518 0.026506 0)
(0.738243 0.0562775 0)
(-0.0278951 0.0395192 8.99993e-23)
(-0.0489425 0.0697666 -1.18202e-21)
(-0.0464876 0.075643 0)
(-0.0178781 0.0707122 -9.78633e-23)
(0.0349341 0.0580554 8.24653e-23)
(0.12191 0.0599477 0)
(0.237174 0.0291719 -9.31388e-22)
(0.422824 0.059168 -7.31505e-22)
(0.534159 0.033283 1.59427e-22)
(0.881424 0.0683577 -1.3398e-22)
(-0.0300949 0.0389671 -9.04429e-23)
(-0.0501309 0.0677097 1.25626e-21)
(-0.0417333 0.0724557 0)
(-0.0026276 0.0664819 -8.94556e-22)
(0.0681281 0.05375 8.25084e-23)
(0.177981 0.0565523 -1.08738e-21)
(0.332042 0.0330627 -1.12603e-22)
(0.532182 0.0620419 8.25734e-22)
(0.692428 0.0480258 0)
(1.0051 0.0814791 1.01831e-21)
(-0.0323028 0.0381507 -1.37566e-21)
(-0.050691 0.0648172 -7.47135e-23)
(-0.0350683 0.0682072 -1.21078e-22)
(0.0170277 0.0612229 1.0015e-22)
(0.109685 0.0492753 -1.31724e-21)
(0.247921 0.0532699 1.08737e-21)
(0.441047 0.0414193 9.15473e-22)
(0.653903 0.0675986 7.3143e-22)
(0.845486 0.0669722 1.26525e-21)
(1.10309 0.0942639 -8.90905e-22)
(-0.0344828 0.0370979 1.46668e-21)
(-0.0503561 0.0611558 0)
(-0.0258008 0.0630315 1.09989e-21)
(0.0425337 0.0552877 -1.00428e-22)
(0.161848 0.0454527 2.63363e-21)
(0.333742 0.0521158 0)
(0.560305 0.0535278 -9.15453e-22)
(0.780962 0.0774665 -1.84723e-24)
(0.978632 0.0868227 -1.41813e-21)
(1.17425 0.105266 1.28496e-22)
(-0.0365801 0.0358248 0)
(-0.0487973 0.0567923 1.20889e-21)
(-0.0130945 0.0571032 -9.78471e-22)
(0.0755795 0.0491442 0)
(0.226777 0.043342 -1.31638e-21)
(0.435036 0.05512 0)
(0.683903 0.0686388 9.00366e-22)
(0.902624 0.0907107 -7.29553e-22)
(1.08441 0.105622 -1.20958e-21)
(1.22148 0.113494 -9.73908e-22)
(-0.0385141 0.0343327 -1.86115e-22)
(-0.0456246 0.0517982 -1.05612e-21)
(0.00403674 0.0506379 0)
(0.118012 0.0434481 0)
(0.305821 0.0441881 0)
(0.547947 0.0632607 -1.34478e-22)
(0.80445 0.0857731 -9.02458e-22)
(1.0096 0.10549 -9.22087e-23)
(1.1621 0.122208 1.20957e-21)
(1.25015 0.118215 1.09558e-21)
(-0.0401758 0.0326124 0)
(-0.0403852 0.0462474 -1.22638e-21)
(0.0267308 0.0439044 0)
(0.171632 0.0391427 0)
(0.39853 0.0491282 0)
(0.665675 0.0760552 1.33584e-22)
(0.914894 0.103579 -1.10197e-21)
(1.09698 0.120438 8.54426e-23)
(1.21536 0.135363 8.62177e-22)
(1.2672 0.118805 9.40702e-22)
(-0.0414415 0.0306597 0)
(-0.0325503 0.0402015 1.22638e-21)
(0.0562719 0.0372688 -9.99466e-22)
(0.237762 0.0374776 0)
(0.501906 0.0586623 -1.31403e-21)
(0.780504 0.0920157 0)
(1.01046 0.120863 8.81354e-22)
(1.164 0.134486 -7.02739e-22)
(1.24989 0.143994 -1.15383e-21)
(1.29192 0.129392 -9.35801e-22)
(-0.0421709 0.0284609 1.56185e-21)
(-0.0215225 0.0337121 0)
(0.0940437 0.0312904 8.75612e-22)
(0.316571 0.0397562 1.02436e-22)
(0.610646 0.0723119 2.62799e-21)
(0.886076 0.109466 0)
(1.0892 0.136911 -8.59795e-22)
(1.21275 0.146592 -1.39385e-21)
(1.27453 0.152195 -9.6603e-22)
(1.30116 0.135474 -5.30407e-24)
(-0.0421911 0.0259884 -1.65885e-21)
(-0.00662982 0.0268454 7.96275e-23)
(0.141364 0.0268332 1.24535e-22)
(0.406432 0.0468003 -1.03005e-22)
(0.718558 0.0888655 -1.31395e-21)
(0.978548 0.1271 1.05805e-21)
(1.15142 0.151312 8.59791e-22)
(1.24736 0.157244 6.91109e-22)
(1.28878 0.158638 1.10283e-21)
(1.30439 0.141248 -9.71941e-22)
(-0.0413114 0.0232147 9.83329e-23)
(0.0129047 0.0197105 1.19688e-21)
(0.199152 0.0250751 0)
(0.503831 0.0585008 -7.16146e-22)
(0.820278 0.106978 -8.33814e-23)
(1.05647 0.144087 -1.05804e-21)
(1.19898 0.164119 1.02916e-22)
(1.27049 0.166398 5.78431e-22)
(1.29651 0.164335 0)
(1.30439 0.146262 8.65085e-22)
(-0.0393247 0.0201119 -1.01523e-22)
(0.0379632 0.0125418 -1.27759e-21)
(0.267471 0.0272526 0)
(0.604089 0.0739099 9.59845e-23)
(0.912229 0.125595 -8.3606e-23)
(1.1201 0.160023 0)
(1.23405 0.175455 -8.22421e-22)
(1.2851 0.174414 -6.64576e-22)
(1.29945 0.169331 -1.26614e-22)
(1.30116 0.150794 -1.06507e-22)
(-0.0359933 0.0166517 0)
(0.0694693 0.00582602 -1.47335e-21)
(0.345174 0.034174 1.32037e-22)
(0.702536 0.0917883 -5.21374e-24)
(0.992657 0.144048 -6.5533e-22)
(1.17065 0.174767 -1.15738e-21)
(1.25897 0.18554 9.27681e-22)
(1.29334 0.181521 0)
(1.29904 0.173905 0)
(1.29684 0.155106 0)
(-0.0310233 0.0128143 2.29018e-24)
(0.108235 0.0004067 1.23553e-21)
(0.429904 0.0458467 1.33726e-22)
(0.795453 0.111086 9.27787e-22)
(1.06116 0.161968 5.71277e-22)
(1.20975 0.188335 -1.12571e-22)
(1.27582 0.1946 8.00113e-22)
(1.29697 0.187975 -5.38585e-22)
(1.29645 0.178204 -6.03749e-22)
(1.29133 0.159268 4.84158e-22)
(-0.0240379 0.00861106 7.68883e-22)
(0.154733 -0.00254573 8.64022e-23)
(0.518518 0.061549 -1.06841e-21)
(0.880432 0.131086 -8.36283e-22)
(1.11818 0.179177 0)
(1.23914 0.200826 1.01958e-21)
(1.28639 0.202859 -1.58102e-23)
(1.29729 0.193973 6.93829e-22)
(1.29231 0.18235 4.22175e-22)
(1.28532 0.163373 -3.83589e-22)
(-0.0145717 0.00412096 -1.77e-21)
(0.208864 -0.00177474 0)
(0.607708 0.0802588 2.15304e-21)
(0.956251 0.151346 7.34793e-22)
(1.16463 0.195611 8.42373e-23)
(1.26047 0.212381 0)
(1.29216 0.21052 -7.7764e-22)
(1.29524 0.199673 5.87368e-22)
(1.28719 0.186427 4.55057e-22)
(1.27887 0.167464 -3.57854e-22)
(-0.00209858 -0.000466158 8.95851e-22)
(0.269845 0.00368139 6.97752e-22)
(0.69454 0.101062 -1.21683e-21)
(1.02254 0.171627 1.09341e-22)
(1.20165 0.211279 0)
(1.27522 0.223159 0)
(1.29429 0.217757 0)
(1.29151 0.205195 -1.15758e-21)
(1.28134 0.190489 -4.55061e-22)
(1.27214 0.171558 3.57838e-22)
(0.0139003 -0.00480682 8.30628e-22)
(0.336282 0.0141914 -6.9202e-22)
(0.776725 0.123309 7.10108e-23)
(1.07948 0.191812 0)
(1.23042 0.226231 6.36088e-22)
(1.28466 0.233311 4.21073e-22)
(1.29366 0.224715 4.83046e-23)
(1.28657 0.210619 -4.96123e-23)
(1.27498 0.19457 1.08798e-22)
(1.26516 0.175667 -4.39102e-23)
(0.0338079 -0.0083754 -9.42621e-22)
(0.406399 0.0295025 8.75668e-23)
(0.852667 0.146568 5.62345e-22)
(1.12754 0.211839 -1.56395e-22)
(1.25207 0.240536 -4.77132e-22)
(1.28984 0.24298 -5.98237e-22)
(1.29096 0.2315 4.72197e-23)
(1.28072 0.216 2.8548e-22)
(1.2682 0.198687 0)
(1.25796 0.179785 -3.89098e-23)
(0.0577932 -0.0105131 -6.11281e-23)
(0.478303 0.0489557 0)
(0.921397 0.170537 6.16574e-24)
(1.16736 0.231655 0)
(1.26768 0.254275 6.19733e-22)
(1.29161 0.252287 -4.58365e-22)
(1.28666 0.238192 0)
(1.27417 0.221368 9.69418e-24)
(1.26107 0.202843 0)
(1.25054 0.1839 0)
(0.085797 -0.0105295 -1.22182e-22)
(0.550185 0.071786 7.96749e-22)
(0.98246 0.194997 -6.41318e-22)
(1.19962 0.251202 1.05829e-22)
(1.27815 0.267527 -2.83573e-22)
(1.29065 0.26133 -4.87234e-23)
(1.2811 0.24484 0)
(1.26705 0.226737 1.96993e-22)
(1.25363 0.207033 5.05144e-23)
(1.24288 0.187996 1.43565e-22)
(0.117523 -0.00782413 -5.15187e-22)
(0.620428 0.0973168 -3.21457e-22)
(1.03578 0.219786 -1.05613e-22)
(1.22504 0.270422 4.22681e-22)
(1.28431 0.280364 3.46654e-23)
(1.28749 0.270186 4.46591e-22)
(1.27454 0.25147 0)
(1.25943 0.232104 -2.36476e-22)
(1.24587 0.211243 4.37109e-23)
(1.23497 0.192053 -3.16127e-22)
(0.152474 -0.00199592 -5.15186e-22)
(0.687648 0.125012 3.34557e-22)
(1.08154 0.24478 -4.1075e-24)
(1.24431 0.289258 -4.91763e-22)
(1.28682 0.292849 -2.58567e-22)
(1.28253 0.278907 -2.51233e-23)
(1.26713 0.258091 2.09769e-23)
(1.25134 0.237458 2.63923e-22)
(1.23779 0.215456 -2.32278e-24)
(1.22679 0.196046 1.02692e-22)
(0.190008 0.00710549 -2.6556e-22)
(0.750696 0.15444 0)
(1.12011 0.269873 -2.88428e-22)
(1.25808 0.30766 0)
(1.28624 0.305027 -3.25395e-22)
(1.27608 0.287525 2.8001e-23)
(1.25898 0.264694 0)
(1.24281 0.242777 0)
(1.22939 0.219649 0)
(1.21835 0.199948 0)
(0.229387 0.0194026 2.32932e-22)
(0.808661 0.18522 1.12391e-22)
(1.15191 0.294959 2.8843e-22)
(1.26696 0.325593 0)
(1.28301 0.316927 0)
(1.26834 0.296049 -1.15821e-23)
(1.25014 0.271259 4.43891e-23)
(1.23384 0.248037 5.03883e-23)
(1.22067 0.223796 4.63441e-23)
(1.20964 0.203728 -7.67493e-24)
(0.269824 0.034667 -4.2147e-24)
(0.860897 0.216988 -1.0516e-22)
(1.17741 0.319919 4.81232e-24)
(1.2715 0.343039 5.6381e-24)
(1.27751 0.328564 -8.59302e-24)
(1.25949 0.304474 3.25818e-24)
(1.24067 0.277756 -3.86701e-23)
(1.22443 0.253205 -4.70816e-23)
(1.2116 0.227863 -3.50917e-23)
(1.20068 0.207354 1.38277e-24)
(0.310521 0.0526023 0)
(0.907064 0.249399 -1.0606e-22)
(1.197 0.344634 -3.23521e-24)
(1.27219 0.359984 6.64192e-24)
(1.27001 0.339937 1.17846e-37)
(1.24961 0.312774 -8.22363e-38)
(1.23058 0.284147 -3.45026e-23)
(1.21457 0.258247 -4.07578e-23)
(1.20218 0.231807 -3.18788e-23)
(1.1915 0.21079 0)
(0.350698 0.0728926 3.05418e-22)
(0.947065 0.282159 8.69503e-23)
(1.21107 0.368991 2.8715e-22)
(1.26944 0.376401 -1.29546e-23)
(1.26076 0.351026 0)
(1.2388 0.320912 9.83785e-24)
(1.21989 0.290387 2.2582e-23)
(1.20426 0.263124 4.38609e-23)
(1.19241 0.235583 2.47327e-23)
(1.18209 0.214014 6.00638e-24)
(0.389613 0.0952375 -2.72208e-22)
(0.980897 0.315008 0)
(1.21999 0.392867 -2.7149e-22)
(1.2636 0.392254 0)
(1.24991 0.361799 -2.69349e-23)
(1.22711 0.328841 2.24277e-23)
(1.20859 0.296429 0)
(1.19349 0.267796 0)
(1.18229 0.239147 0)
(1.17239 0.217005 0)
(0.42658 0.119359 5.3958e-22)
(1.00865 0.347707 -3.45555e-22)
(1.22414 0.416138 -6.60204e-23)
(1.25498 0.407499 -2.68351e-22)
(1.23762 0.372207 -2.46895e-22)
(1.21456 0.336503 1.69573e-23)
(1.19669 0.302222 -1.41586e-23)
(1.18224 0.272216 1.15539e-22)
(1.17185 0.242472 2.1186e-24)
(1.16236 0.219739 8.27607e-23)
(0.460985 0.144989 -5.39581e-22)
(1.03045 0.380029 -4.16703e-22)
(1.22388 0.43868 9.17989e-23)
(1.24384 0.422086 3.20498e-22)
(1.224 0.38219 -1.44935e-23)
(1.20119 0.343836 2.60573e-22)
(1.18419 0.307712 0)
(1.17053 0.276327 -1.31685e-22)
(1.16114 0.245546 -1.98388e-23)
(1.15194 0.222234 -1.03012e-22)
(0.492296 0.171857 1.28338e-22)
(1.04649 0.411757 7.1247e-22)
(1.21951 0.460363 -4.12498e-22)
(1.23043 0.435956 -7.757e-23)
(1.20914 0.391684 -1.81571e-22)
(1.18701 0.350773 3.72135e-23)
(1.17108 0.312842 -2.32308e-23)
(1.15838 0.280066 1.24188e-22)
(1.15015 0.248354 -2.06853e-23)
(1.14121 0.224524 5.47551e-23)
(0.520073 0.199672 6.50001e-23)
(1.05698 0.442677 0)
(1.21133 0.481055 2.66147e-23)
(1.21494 0.449042 0)
(1.19308 0.40061 3.66347e-22)
(1.17205 0.357244 -2.34272e-22)
(1.15741 0.317551 0)
(1.14586 0.283388 -1.68338e-23)
(1.13881 0.250837 0)
(1.13029 0.226422 0)
(0.543969 0.228124 -9.9758e-22)
(1.06212 0.472572 -7.66397e-23)
(1.19962 0.500624 5.02188e-22)
(1.19752 0.461266 5.63018e-23)
(1.17589 0.408884 -3.74071e-22)
(1.15638 0.363173 -1.28005e-22)
(1.14322 0.321779 -1.76242e-23)
(1.13297 0.286269 6.456e-23)
(1.12709 0.252951 -1.38655e-23)
(1.11919 0.227963 6.72875e-24)
(0.563729 0.256876 1.11018e-21)
(1.06216 0.501222 -6.65304e-22)
(1.18464 0.518931 -1.44731e-22)
(1.17833 0.472545 7.05643e-23)
(1.15766 0.416415 2.93078e-22)
(1.14006 0.368483 1.9518e-22)
(1.12851 0.325468 -1.46431e-23)
(1.11971 0.288676 -2.33532e-23)
(1.11502 0.254652 -1.72997e-23)
(1.10792 0.229086 5.8796e-24)
(0.579185 0.285577 9.18437e-22)
(1.05732 0.528403 6.45015e-22)
(1.16661 0.53583 -6.05824e-22)
(1.15753 0.482788 -6.37131e-23)
(1.13854 0.423131 0)
(1.12307 0.373087 0)
(1.11328 0.328561 0)
(1.10609 0.290566 -1.53632e-22)
(1.10264 0.255909 -2.60312e-23)
(1.0965 0.229772 2.3136e-24)
(0.590254 0.313867 -1.78657e-21)
(1.04788 0.553895 0)
(1.14574 0.551153 1.28885e-21)
(1.13533 0.491896 3.27737e-22)
(1.11857 0.428952 0)
(1.10539 0.376915 0)
(1.09759 0.330994 -7.06541e-23)
(1.09214 0.2919 5.85386e-23)
(1.09 0.256685 2.60314e-23)
(1.08494 0.229985 -2.3135e-24)
(0.596933 0.341383 9.61851e-22)
(1.03412 0.577498 -7.69237e-23)
(1.12227 0.56473 -6.05996e-22)
(1.11187 0.499753 -3.57789e-22)
(1.09775 0.433797 2.49421e-23)
(1.08711 0.379899 9.79714e-23)
(1.08148 0.332708 5.08798e-23)
(1.07788 0.292636 -1.59545e-23)
(1.07711 0.256947 -3.31868e-23)
(1.07329 0.229697 4.24311e-23)
(0.599291 0.367759 -1.16877e-23)
(1.01637 0.599026 9.22657e-22)
(1.09648 0.576445 -8.03138e-23)
(1.08716 0.506194 1.80338e-22)
(1.07615 0.43759 7.67237e-23)
(1.06827 0.381972 -5.15043e-23)
(1.065 0.333647 1.3676e-23)
(1.06336 0.292735 1.95114e-23)
(1.06402 0.256661 -4.60356e-23)
(1.06157 0.228881 -3.08726e-23)
(0.597471 0.392627 0)
(0.99492 0.618253 -8.12227e-22)
(1.06861 0.586204 -6.8694e-23)
(1.06131 0.511091 -6.67322e-23)
(1.05387 0.440226 -7.55709e-23)
(1.04894 0.383071 -3.26418e-23)
(1.04819 0.333761 -9.05261e-23)
(1.04861 0.292161 0)
(1.05077 0.255792 0)
(1.04983 0.2275 0)
(0.591671 0.415661 7.94896e-23)
(0.969855 0.634832 -6.43686e-22)
(1.03903 0.593963 0)
(1.03448 0.514365 -7.60603e-23)
(1.03097 0.441616 5.7411e-24)
(1.02919 0.383135 0)
(1.03111 0.333002 8.52089e-23)
(1.03368 0.290879 1.35065e-22)
(1.03737 0.254303 -2.80291e-23)
(1.03809 0.225509 2.35427e-23)
(0.582115 0.436646 -5.7314e-23)
(0.941398 0.648465 6.90735e-22)
(1.008 0.599576 0)
(1.00681 0.51598 -6.57839e-23)
(1.00755 0.441674 -1.09369e-24)
(1.0091 0.382108 1.91312e-22)
(1.01384 0.33133 2.1888e-23)
(1.01861 0.288859 -1.53386e-22)
(1.02386 0.252161 0)
(1.02641 0.22287 -2.64163e-22)
(0.569017 0.45536 -7.90129e-22)
(0.91003 0.659035 -3.80773e-23)
(0.97568 0.602835 -3.88979e-24)
(0.978451 0.515866 3.21754e-24)
(0.983716 0.440329 2.52395e-22)
(0.988749 0.379937 -1.91313e-22)
(0.99642 0.328707 -2.48023e-22)
(1.00344 0.286068 -2.15665e-22)
(1.01028 0.249337 -3.66689e-22)
(1.01492 0.219574 2.31221e-22)
(0.552498 0.47145 8.36519e-22)
(0.876317 0.666531 0)
(0.942294 0.603609 -6.2145e-23)
(0.949544 0.513958 6.75815e-24)
(0.959564 0.43752 -6.10299e-22)
(0.968219 0.376575 0)
(0.978924 0.325103 2.48024e-22)
(0.988188 0.282469 -4.05814e-23)
(0.996749 0.245806 4.15925e-22)
(1.00389 0.215661 -4.13479e-23)
(0.53277 0.484494 0)
(0.84064 0.670798 6.05904e-23)
(0.908043 0.601835 5.39753e-23)
(0.920245 0.510186 0)
(0.935207 0.433194 3.57905e-22)
(0.947603 0.371985 0)
(0.961407 0.320492 -3.5794e-22)
(0.972921 0.278023 2.5625e-22)
(0.983424 0.241525 4.85862e-22)
(0.993631 0.211198 3.84753e-22)
(0.510319 0.494325 -2.08769e-23)
(0.803344 0.6717 -4.3454e-23)
(0.873159 0.597454 0)
(0.890711 0.50449 0)
(0.910763 0.427312 0)
(0.926992 0.366135 5.73705e-23)
(0.943928 0.314854 2.6226e-22)
(0.957727 0.272702 3.99926e-23)
(0.970501 0.236437 -4.85865e-22)
(0.984022 0.206133 -4.32122e-22)
(0.485563 0.500774 0)
(0.764773 0.66912 2.51472e-22)
(0.837879 0.590422 0)
(0.861103 0.49682 0)
(0.886354 0.419843 0)
(0.906478 0.359005 -6.62348e-23)
(0.926562 0.308174 5.76514e-22)
(0.942728 0.266513 -1.32635e-22)
(0.958061 0.230554 -4.56681e-22)
(0.974404 0.198969 -4.64398e-22)
(0.458913 0.503705 0)
(0.725287 0.662982 -2.51473e-22)
(0.802448 0.580713 4.87035e-22)
(0.831588 0.487139 0)
(0.862105 0.410765 7.83018e-22)
(0.886156 0.350578 0)
(0.909397 0.300439 -4.67018e-22)
(0.928037 0.259467 4.15015e-22)
(0.945854 0.224333 5.98658e-22)
(0.963502 0.193791 4.63032e-22)
(0.430779 0.503027 -4.42628e-22)
(0.68525 0.653236 0)
(0.767108 0.568315 -4.16317e-22)
(0.802333 0.475425 -5.84985e-23)
(0.838144 0.400069 -1.67027e-21)
(0.866126 0.340846 0)
(0.892526 0.291633 5.73084e-22)
(0.913719 0.25149 3.76582e-23)
(0.934 0.217058 6.2532e-22)
(0.953029 0.187162 2.43752e-24)
(0.40157 0.498687 4.84157e-22)
(0.645025 0.639866 -3.40886e-23)
(0.732103 0.553238 -8.31499e-23)
(0.773511 0.461674 -6.87798e-23)
(0.8146 0.387756 8.87248e-22)
(0.846488 0.329812 -7.90154e-22)
(0.876031 0.281775 -5.73088e-22)
(0.899779 0.242677 -4.52678e-22)
(0.922338 0.209207 -7.07098e-22)
(0.942538 0.180311 6.56438e-22)
(0.371692 0.49067 -5.45752e-23)
(0.604976 0.622885 -8.32993e-22)
(0.697673 0.535508 0)
(0.745292 0.445893 5.93856e-22)
(0.791601 0.37384 6.56036e-23)
(0.827348 0.317488 7.90159e-22)
(0.860002 0.270865 -7.86271e-23)
(0.886288 0.232981 -4.58847e-22)
(0.911016 0.200575 0)
(0.932349 0.172766 -5.85505e-22)
(0.341541 0.479001 6.28035e-23)
(0.565459 0.602336 8.77795e-22)
(0.664052 0.515168 0)
(0.717847 0.42811 -1.74525e-23)
(0.769279 0.358343 7.23872e-23)
(0.808806 0.303894 0)
(0.844515 0.25893 7.21789e-22)
(0.87328 0.222454 5.2466e-22)
(0.900053 0.191293 1.00357e-22)
(0.922511 0.164685 -8.42967e-23)
(0.311503 0.463742 0)
(0.526821 0.578291 1.31594e-21)
(0.631471 0.492284 -1.16646e-22)
(0.691344 0.408366 6.72161e-23)
(0.747759 0.341303 6.39222e-22)
(0.790966 0.28906 1.10853e-21)
(0.829651 0.245993 -8.18707e-22)
(0.860818 0.211103 0)
(0.889518 0.18134 0)
(0.913106 0.156026 0)
(0.281954 0.444991 2.41662e-24)
(0.4894 0.550851 -1.09202e-21)
(0.600153 0.466935 1.30169e-22)
(0.665945 0.386718 -9.12544e-22)
(0.727169 0.322765 -5.53997e-22)
(0.773925 0.273026 1.85103e-22)
(0.815485 0.232088 -8.19171e-22)
(0.848955 0.198966 5.42673e-22)
(0.879465 0.170756 5.87409e-22)
(0.904191 0.146823 -4.59266e-22)
(0.25325 0.422885 -7.64321e-22)
(0.453513 0.520138 -8.52133e-23)
(0.570312 0.43922 1.19402e-21)
(0.641811 0.363237 9.34971e-22)
(0.70763 0.302789 0)
(0.75778 0.25584 -1.05416e-21)
(0.80209 0.217257 -4.09574e-23)
(0.837747 0.186075 -6.98413e-22)
(0.869948 0.159561 -4.11847e-22)
(0.89581 0.137095 3.65546e-22)
(0.225733 0.397606 1.82999e-21)
(0.41946 0.486291 0)
(0.542154 0.409252 -2.47246e-21)
(0.619092 0.33801 -8.1832e-22)
(0.689261 0.281444 -9.68325e-23)
(0.742624 0.237559 0)
(0.789537 0.201545 8.52022e-22)
(0.827249 0.172471 -6.78309e-22)
(0.861017 0.147787 -5.16637e-22)
(0.888002 0.126875 3.95826e-22)
(0.199715 0.369373 -9.61857e-22)
(0.387517 0.449469 -8.45615e-22)
(0.515878 0.377159 1.43823e-21)
(0.597933 0.311138 -1.32182e-22)
(0.672173 0.25881 0)
(0.728544 0.21825 0)
(0.777893 0.185007 0)
(0.817514 0.158197 1.38163e-21)
(0.852721 0.135467 5.16638e-22)
(0.880804 0.116195 -3.95826e-22)
(0.175468 0.338408 -9.94742e-22)
(0.357952 0.409881 8.42537e-22)
(0.491676 0.343084 8.86499e-23)
(0.578472 0.282735 0)
(0.656472 0.234976 -8.33736e-22)
(0.715621 0.197985 -5.57191e-22)
(0.767219 0.167701 -6.19962e-23)
(0.808592 0.143302 1.08202e-22)
(0.845107 0.122639 -1.36721e-22)
(0.874245 0.105094 5.46444e-23)
(0.15323 0.304915 1.12957e-21)
(0.331018 0.367783 -1.13418e-22)
(0.469723 0.30719 -9.28039e-22)
(0.560836 0.252928 2.06913e-22)
(0.642256 0.210043 6.20883e-22)
(0.703932 0.176844 7.92792e-22)
(0.757576 0.149694 -6.40952e-23)
(0.800529 0.127838 -3.5284e-22)
(0.838217 0.109347 0)
(0.868352 0.0936134 5.1445e-23)
(0.133225 0.269121 7.72824e-23)
(0.306943 0.323437 0)
(0.450172 0.269658 -2.84591e-23)
(0.545141 0.221856 0)
(0.629613 0.184117 -8.89587e-22)
(0.693545 0.154915 6.70082e-22)
(0.749014 0.131054 0)
(0.79337 0.111861 8.9659e-24)
(0.832093 0.0956366 0)
(0.863148 0.0817962 0)
(0.115665 0.231286 1.60132e-22)
(0.285927 0.277112 -1.0921e-21)
(0.433158 0.230681 8.69544e-22)
(0.53149 0.189667 -1.49639e-22)
(0.618624 0.157315 3.8527e-22)
(0.684522 0.132291 1.05076e-22)
(0.741583 0.111857 0)
(0.787153 0.0954319 -2.90043e-22)
(0.826769 0.0815571 -7.73157e-23)
(0.858654 0.0696889 -2.24702e-22)
(0.100737 0.19169 6.83956e-22)
(0.268143 0.22909 -1.61944e-21)
(0.418799 0.190463 1.49421e-22)
(0.519973 0.156518 -6.24718e-22)
(0.609358 0.129761 -6.99803e-23)
(0.676919 0.109069 -6.85573e-22)
(0.735323 0.0921829 0)
(0.781914 0.0786161 3.96236e-22)
(0.822278 0.0671616 -7.11296e-23)
(0.854885 0.0573382 5.12435e-22)
(0.0885982 0.150634 -6.83956e-22)
(0.253737 0.179661 5.93819e-22)
(0.407191 0.149218 -1.03167e-22)
(0.510666 0.122573 7.33065e-22)
(0.601873 0.101582 4.03415e-22)
(0.670779 0.0853517 4.19465e-23)
(0.730271 0.072113 -3.50231e-23)
(0.777684 0.0614806 -4.4381e-22)
(0.81865 0.0525063 3.86261e-24)
(0.851855 0.0447908 -1.70253e-22)
(0.0793798 0.108426 3.57555e-22)
(0.242829 0.129126 0)
(0.398416 0.107166 4.23501e-22)
(0.503632 0.0880027 0)
(0.596217 0.072912 5.66481e-23)
(0.666142 0.0612457 -4.71683e-23)
(0.726456 0.0517327 0)
(0.774488 0.0440947 0)
(0.815906 0.0376489 0)
(0.849574 0.0320945 0)
(0.0731792 0.0653893 -3.13222e-22)
(0.235507 0.0777958 -1.20719e-22)
(0.392532 0.064533 -4.23501e-22)
(0.498916 0.0529827 0)
(0.592426 0.0438892 0)
(0.663034 0.0368599 2.13894e-23)
(0.7239 0.0311293 -8.54448e-23)
(0.772346 0.0265291 -1.01734e-22)
(0.814066 0.022647 -9.52391e-23)
(0.848048 0.0192959 1.53895e-23)
(0.0700624 0.0218522 -5.66888e-24)
(0.23183 0.0259854 1.3021e-22)
(0.389579 0.02155 -5.85018e-24)
(0.49655 0.0176911 2.01586e-23)
(0.590525 0.0146535 -7.95189e-24)
(0.661475 0.0123054 0)
(0.722618 0.0103914 6.75858e-23)
(0.771272 0.00885508 1.01734e-22)
(0.813143 0.00755862 7.23211e-23)
(0.847285 0.00643835 1.08449e-23)
(0.0700624 -0.0218522 -5.66888e-24)
(0.23183 -0.0259853 1.3021e-22)
(0.389579 -0.0215499 -5.85018e-24)
(0.49655 -0.0176911 2.01586e-23)
(0.590525 -0.0146534 -7.95189e-24)
(0.661475 -0.0123054 0)
(0.722618 -0.0103914 5.9525e-23)
(0.771272 -0.00885504 1.08481e-22)
(0.813143 -0.00755858 7.69168e-23)
(0.847285 -0.00643831 0)
(0.0731792 -0.0653892 -4.01887e-22)
(0.235507 -0.0777957 -1.56544e-22)
(0.392532 -0.0645329 -4.48948e-22)
(0.498916 -0.0529826 2.10492e-23)
(0.592426 -0.0438892 0)
(0.663034 -0.0368599 -2.13894e-23)
(0.7239 -0.0311292 -4.97267e-23)
(0.772346 -0.026529 -1.01734e-22)
(0.814066 -0.022647 -5.85944e-23)
(0.848048 -0.0192959 -1.53895e-23)
(0.0793798 -0.108426 3.57555e-22)
(0.242829 -0.129126 0)
(0.398416 -0.107166 4.23501e-22)
(0.503632 -0.0880027 0)
(0.596217 -0.072912 5.66481e-23)
(0.666142 -0.0612456 -4.71683e-23)
(0.726456 -0.0517326 0)
(0.774488 -0.0440947 0)
(0.815906 -0.0376488 0)
(0.849574 -0.0320945 0)
(0.0885982 -0.150633 -6.83956e-22)
(0.253737 -0.179661 4.63766e-22)
(0.407191 -0.149218 1.03167e-22)
(0.510666 -0.122573 5.01971e-22)
(0.601873 -0.101582 5.2714e-22)
(0.670779 -0.0853516 -4.19465e-23)
(0.730271 -0.0721129 3.50231e-23)
(0.777684 -0.0614806 -3.48663e-22)
(0.81865 -0.0525063 -3.86261e-24)
(0.851855 -0.0447908 -2.85725e-22)
(0.100737 -0.19169 6.83956e-22)
(0.268143 -0.22909 5.61855e-22)
(0.418799 -0.190463 -1.49421e-22)
(0.519973 -0.156517 -6.10317e-22)
(0.609358 -0.129761 5.1435e-23)
(0.676919 -0.109069 -6.85573e-22)
(0.735323 -0.0921829 0)
(0.781914 -0.0786161 3.96236e-22)
(0.822278 -0.0671615 7.11296e-23)
(0.854885 -0.0573381 3.92946e-22)
(0.115665 -0.231285 -1.60132e-22)
(0.285927 -0.277112 1.0921e-21)
(0.433158 -0.230681 6.80405e-22)
(0.53149 -0.189667 1.49639e-22)
(0.618624 -0.157315 4.81901e-22)
(0.684522 -0.132291 -1.55039e-22)
(0.741583 -0.111857 6.75796e-23)
(0.787153 -0.0954319 -4.74386e-22)
(0.826769 -0.081557 7.73157e-23)
(0.858654 -0.0696889 -2.24702e-22)
(0.133225 -0.269121 -7.72824e-23)
(0.306943 -0.323437 0)
(0.450172 -0.269658 -2.84591e-23)
(0.545141 -0.221856 0)
(0.629613 -0.184117 -8.89587e-22)
(0.693545 -0.154915 6.70082e-22)
(0.749014 -0.131054 0)
(0.793369 -0.111861 8.9659e-24)
(0.832093 -0.0956366 0)
(0.863148 -0.0817961 0)
(0.15323 -0.304915 1.12957e-21)
(0.331018 -0.367783 1.13418e-22)
(0.469723 -0.30719 -6.53065e-22)
(0.560836 -0.252928 -1.34054e-22)
(0.642256 -0.210042 1.04659e-21)
(0.703932 -0.176844 4.70098e-22)
(0.757576 -0.149694 6.40952e-23)
(0.800529 -0.127837 -4.40808e-22)
(0.838217 -0.109347 7.37891e-23)
(0.868352 -0.0936133 -5.1445e-23)
(0.175468 -0.338408 -1.2644e-21)
(0.357952 -0.409881 8.48697e-22)
(0.491676 -0.343084 7.97259e-23)
(0.578472 -0.282735 -1.39277e-22)
(0.656472 -0.234976 -8.33736e-22)
(0.715621 -0.197985 -7.05695e-22)
(0.767219 -0.167701 6.19962e-23)
(0.808592 -0.143302 -6.26662e-23)
(0.845107 -0.122639 1.36721e-22)
(0.874245 -0.105094 -5.46444e-23)
(0.199715 -0.369373 -9.61857e-22)
(0.387517 -0.449469 -8.45615e-22)
(0.515878 -0.377159 1.11864e-21)
(0.597933 -0.311138 1.32182e-22)
(0.672173 -0.25881 0)
(0.728544 -0.21825 0)
(0.777893 -0.185007 0)
(0.817514 -0.158197 1.38163e-21)
(0.852721 -0.135467 5.16638e-22)
(0.880804 -0.116195 -3.95826e-22)
(0.225733 -0.397605 1.82999e-21)
(0.41946 -0.486291 0)
(0.542154 -0.409252 -2.47246e-21)
(0.619092 -0.33801 -9.34975e-22)
(0.689261 -0.281444 0)
(0.742624 -0.237559 0)
(0.789537 -0.201545 8.52022e-22)
(0.827249 -0.172471 -6.78309e-22)
(0.861016 -0.147787 -5.16637e-22)
(0.888002 -0.126875 3.95826e-22)
(0.25325 -0.422885 -9.71939e-22)
(0.453513 -0.520138 8.52133e-23)
(0.570312 -0.43922 1.19402e-21)
(0.641811 -0.363237 1.04484e-21)
(0.70763 -0.302789 -9.12041e-23)
(0.75778 -0.25584 -1.05416e-21)
(0.80209 -0.217257 -4.09574e-23)
(0.837747 -0.186075 -5.45848e-22)
(0.869947 -0.159561 -5.39822e-22)
(0.89581 -0.137095 3.65546e-22)
(0.281954 -0.444991 -2.41662e-24)
(0.489399 -0.550851 -1.25671e-21)
(0.600153 -0.466935 -1.30169e-22)
(0.665945 -0.386718 -7.07195e-22)
(0.727169 -0.322765 -5.6451e-22)
(0.773925 -0.273026 -1.94895e-22)
(0.815485 -0.232088 -8.02945e-22)
(0.848955 -0.198966 7.01583e-22)
(0.879465 -0.170756 3.64257e-22)
(0.904191 -0.146823 -2.71827e-22)
(0.311503 -0.463742 0)
(0.526821 -0.578291 1.03279e-21)
(0.631471 -0.492284 1.16646e-22)
(0.691344 -0.408366 6.72161e-23)
(0.747759 -0.341303 6.39222e-22)
(0.790965 -0.28906 8.76387e-22)
(0.829651 -0.245993 -7.1462e-22)
(0.860818 -0.211103 7.51126e-23)
(0.889518 -0.18134 0)
(0.913106 -0.156026 0)
(0.341541 -0.479001 -6.28035e-23)
(0.565459 -0.602336 8.77795e-22)
(0.664052 -0.515168 0)
(0.717847 -0.42811 1.56958e-22)
(0.769278 -0.358343 -7.23872e-23)
(0.808806 -0.303894 0)
(0.844515 -0.25893 7.21789e-22)
(0.87328 -0.222454 5.2466e-22)
(0.900053 -0.191293 -1.00357e-22)
(0.922511 -0.164685 8.42967e-23)
(0.371692 -0.49067 5.45752e-23)