/*--------------------------------*- C++ -*----------------------------------*\
  =========                 |
  \\      /  F ield         | OpenFOAM: The Open Source CFD Toolbox
   \\    /   O peration     | Website:  https://openfoam.org
    \\  /    A nd           | Version:  7
     \\/     M anipulation  |
\*---------------------------------------------------------------------------*/
FoamFile
{
    version     2.0;
    format      ascii;
    class       volScalarField;
    location    "3.5";
    object      T;
}
// * * * * * * * * * * * * * * * * * * * * * * * * * * * * * * * * * * * * * //

dimensions      [0 0 0 1 0 0 0];

internalField   nonuniform List<scalar> 
64512
(
1
1
1
1
1
1
1
1
1
1
1
1
1
1
1
1
1
1
1
1
1
1
1
1
1
1
1
1
1
1
1
1
1
1
1
1
1
1
1
1
1
1
1
1
1
1
1
1
1
2.28462
2.69035
2.6927
2.69533
2.69944
2.70375
2.70845
2.71337
2.71839
2.72325
2.72771
2.73159
2.73475
2.7372
2.73922
2.74127
2.74392
2.74752
2.75206
2.75706
2.76176
2.76548
2.76799
2.7696
2.77101
2.77284
2.77534
2.77824
2.78109
2.78356
2.78558
2.78742
2.78942
2.79177
2.79433
2.79677
2.79881
2.80037
2.80158
2.8026
2.80366
2.80494
2.80655
2.80834
2.80996
2.81107
2.81162
1
1
1
1
1
1
1
1
1
1
1
1
1
1
1
1
1
1
1
1
1
1
1
1
1
1
1
1
1
1
1
1
1
1
1
1
1
1
1
1
1
1
1
1
1
1
1
1
1
2.27919
2.68963
2.69257
2.69531
2.69949
2.70382
2.70852
2.71341
2.71839
2.72323
2.72768
2.73154
2.73467
2.73711
2.73912
2.74118
2.74384
2.74745
2.75197
2.75694
2.76161
2.76532
2.76785
2.76947
2.77087
2.77267
2.77513
2.77803
2.78093
2.78345
2.7855
2.78734
2.78932
2.79163
2.79416
2.79658
2.7986
2.80016
2.80136
2.80238
2.80344
2.80473
2.80633
2.80811
2.80972
2.81082
2.81137
1
1
1
1
1
1
1
1
1
1
1
1
1
1
1
1
1
1
1
1
1
1
1
1
1
1
1
1
1
1
1
1
1
1
1
1
1
1
1
1
1
1
1
1
1
1
1
1
1
2.2672
2.68905
2.69207
2.69515
2.69947
2.70394
2.70869
2.71354
2.71843
2.7232
2.72759
2.73137
2.73445
2.73685
2.73887
2.74096
2.74367
2.74732
2.75184
2.75679
2.76141
2.76509
2.7676
2.76923
2.77062
2.77238
2.77481
2.77772
2.78066
2.78325
2.78535
2.7872
2.78916
2.79144
2.79392
2.7963
2.79828
2.79981
2.80099
2.80202
2.80309
2.80439
2.80598
2.80775
2.80935
2.81044
2.81098
1
1
1
1
1
1
1
1
1
1
1
1
1
1
1
1
1
1
1
1
1
1
1
1
1
1
1
1
1
1
1
1
1
1
1
1
1
1
1
1
1
1
1
1
1
1
1
1
1
2.24968
2.68768
2.69149
2.69497
2.69951
2.70418
2.70906
2.71389
2.71866
2.72327
2.7275
2.73113
2.73407
2.73643
2.73846
2.74061
2.74339
2.74711
2.75166
2.75659
2.76115
2.76477
2.76724
2.76882
2.77018
2.7719
2.77431
2.77726
2.7803
2.78297
2.78511
2.78697
2.78889
2.79111
2.79355
2.79587
2.7978
2.7993
2.80047
2.8015
2.80258
2.80388
2.80546
2.80721
2.80879
2.80987
2.8104
1
1
1
1
1
1
1
1
1
1
1
1
1
1
1
1
1
1
1
1
1
1
1
1
1
1
1
1
1
1
1
1
1
1
1
1
1
1
1
1
1
1
1
1
1
1
1
1
1
2.2265
2.68548
2.69075
2.69466
2.69944
2.70436
2.70945
2.71435
2.71902
2.72344
2.72743
2.73081
2.73357
2.73584
2.7379
2.74012
2.74301
2.74683
2.75142
2.75636
2.76088
2.76442
2.76679
2.76828
2.76957
2.77125
2.77367
2.7767
2.77984
2.78259
2.78477
2.78661
2.78849
2.79065
2.79303
2.7953
2.79719
2.79865
2.79982
2.80086
2.80195
2.80324
2.8048
2.80652
2.80807
2.80914
2.80966
1
1
1
1
1
1
1
1
1
1
1
1
1
1
1
1
1
1
1
1
1
1
1
1
1
1
1
1
1
1
1
1
1
1
1
1
1
1
1
1
1
1
1
1
1
1
1
1
1
2.19729
2.68261
2.68979
2.69406
2.69912
2.70436
2.70968
2.71474
2.71942
2.72366
2.72739
2.73048
2.73299
2.73515
2.73721
2.73951
2.74251
2.74645
2.75113
2.7561
2.76059
2.76402
2.76625
2.76759
2.76878
2.77042
2.7729
2.77605
2.77931
2.78214
2.78433
2.78613
2.78794
2.79003
2.79235
2.79457
2.79643
2.79787
2.79903
2.80007
2.80116
2.80244
2.80397
2.80566
2.80719
2.80824
2.80875
1
1
1
1
1
1
1
1
1
1
1
1
1
1
1
1
1
1
1
1
1
1
1
1
1
1
1
1
1
1
1
1
1
1
1
1
1
1
1
1
1
1
1
1
1
1
1
1
1
2.1618
2.67942
2.68854
2.69297
2.6983
2.70394
2.70957
2.71487
2.71966
2.72385
2.72739
2.73019
2.73242
2.7344
2.7364
2.73873
2.74183
2.74592
2.75072
2.75577
2.76025
2.76355
2.76561
2.76676
2.76783
2.76943
2.77198
2.77527
2.77867
2.78155
2.78373
2.78547
2.7872
2.78921
2.79147
2.79367
2.79551
2.79694
2.79809
2.79914
2.80022
2.80148
2.80299
2.80465
2.80616
2.80721
2.80771
1
1
1
1
1
1
1
1
1
1
1
1
1
1
1
1
1
1
1
1
1
1
1
1
1
1
1
1
1
1
1
1
1
1
1
1
1
1
1
1
1
1
1
1
1
1
1
1
1
2.11983
2.67643
2.68679
2.6911
2.69669
2.70277
2.70892
2.71462
2.71965
2.72391
2.72737
2.72997
2.73192
2.73365
2.73551
2.73781
2.74096
2.74518
2.75013
2.75531
2.75982
2.76301
2.76489
2.76583
2.76678
2.76833
2.77095
2.77436
2.77788
2.78082
2.78296
2.78461
2.78623
2.78816
2.79037
2.79255
2.7944
2.79584
2.79699
2.79803
2.7991
2.80034
2.80183
2.80349
2.80501
2.80606
2.80657
1
1
1
1
1
1
1
1
1
1
1
1
1
1
1
1
1
1
1
1
1
1
1
1
1
1
1
1
1
1
1
1
1
1
1
1
1
1
1
1
1
1
1
1
1
1
1
1
1
2.07087
2.67392
2.68431
2.68821
2.69398
2.70049
2.70731
2.71372
2.71929
2.7238
2.7273
2.72977
2.73146
2.7329
2.73454
2.7367
2.73981
2.74412
2.74925
2.7546
2.75923
2.76236
2.76411
2.76486
2.76567
2.76716
2.76982
2.77336
2.77701
2.78
2.78208
2.7836
2.7851
2.78692
2.78908
2.79127
2.79315
2.7946
2.79574
2.79674
2.79777
2.79898
2.80046
2.80212
2.80365
2.8047
2.80522
1
1
1
1
1
1
1
1
1
1
1
1
1
1
1
1
1
1
1
1
1
1
1
1
1
1
1
1
1
1
1
1
1
1
1
1
1
1
1
1
1
1
1
1
1
1
1
1
1
2.01347
2.67104
2.68169
2.68463
2.69017
2.69691
2.70437
2.71175
2.71823
2.72335
2.72711
2.72956
2.73104
2.73218
2.73352
2.73544
2.73838
2.7427
2.74798
2.75355
2.75838
2.76157
2.76325
2.76382
2.76448
2.76587
2.76852
2.77216
2.77594
2.77898
2.78101
2.78241
2.78377
2.7855
2.78763
2.78985
2.79176
2.79322
2.79433
2.79529
2.79627
2.79745
2.79892
2.80058
2.80212
2.80317
2.80369
1
1
1
1
1
1
1
1
1
1
1
1
1
1
1
1
1
1
1
1
1
1
1
1
1
1
1
1
1
1
1
1
1
1
1
1
1
1
1
1
1
1
1
1
1
1
1
1
1
1.94506
2.665
2.68064
2.68159
2.68596
2.69229
2.70014
2.70848
2.71616
2.72231
2.72667
2.72932
2.73066
2.73149
2.73247
2.73405
2.73669
2.74086
2.74623
2.75204
2.7572
2.76059
2.76229
2.76271
2.76322
2.76445
2.76705
2.77074
2.77464
2.77774
2.77972
2.781
2.78222
2.78385
2.78598
2.78825
2.79021
2.79168
2.79275
2.79365
2.79457
2.79573
2.7972
2.79885
2.8004
2.80144
2.80197
1
1
1
1
1
1
1
1
1
1
1
1
1
1
1
1
1
1
1
1
1
1
1
1
1
1
1
1
1
1
1
1
1
1
1
1
1
1
1
1
1
1
1
1
1
1
1
1
1
1.86363
2.6516
2.68144
2.68041
2.68298
2.68772
2.69511
2.70402
2.71286
2.72035
2.72573
2.72887
2.73023
2.73081
2.73145
2.73262
2.73483
2.73872
2.74408
2.75013
2.75571
2.75946
2.76129
2.76161
2.76196
2.76299
2.76544
2.76911
2.77308
2.77624
2.77819
2.77935
2.78044
2.782
2.78413
2.78647
2.78848
2.78994
2.79097
2.79181
2.79269
2.79382
2.79528
2.79694
2.79848
2.79952
2.80004
1
1
1
1
1
1
1
1
1
1
1
1
1
1
1
1
1
1
1
1
1
1
1
1
1
1
1
1
1
1
1
1
1
1
1
1
1
1
1
1
1
1
1
1
1
1
1
1
1
1.77025
2.62908
2.68259
2.68065
2.68191
2.68455
2.69027
2.69885
2.7084
2.71706
2.72373
2.72777
2.72946
2.72993
2.73028
2.73105
2.73277
2.73622
2.74145
2.74769
2.75375
2.75801
2.76013
2.76044
2.76067
2.76148
2.76371
2.76729
2.77128
2.77451
2.77644
2.7775
2.77848
2.77997
2.7821
2.78448
2.78653
2.78799
2.78896
2.78974
2.79058
2.7917
2.79316
2.79482
2.79635
2.79738
2.7979
1
1
1
1
1
1
1
1
1
1
1
1
1
1
1
1
1
1
1
1
1
1
1
1
1
1
1
1
1
1
1
1
1
1
1
1
1
1
1
1
1
1
1
1
1
1
1
1
1
1.6672
2.59923
2.68292
2.68081
2.6818
2.68302
2.68683
2.69401
2.70344
2.71272
2.72039
2.72555
2.72793
2.72857
2.7288
2.72929
2.73057
2.73349
2.73843
2.74472
2.75122
2.7561
2.75866
2.75911
2.75925
2.75986
2.76182
2.76522
2.7692
2.77249
2.77445
2.77547
2.77636
2.77777
2.77988
2.78228
2.78436
2.78581
2.78674
2.78747
2.78826
2.78936
2.79081
2.79245
2.79398
2.79499
2.79551
1
1
1
1
1
1
1
1
1
1
1
1
1
1
1
1
1
1
1
1
1
1
1
1
1
1
1
1
1
1
1
1
1
1
1
1
1
1
1
1
1
1
1
1
1
1
1
1
1
1.5526
2.56075
2.68205
2.68024
2.68144
2.6822
2.68477
2.69024
2.69845
2.70766
2.71588
2.72202
2.72546
2.7267
2.72709
2.7275
2.72845
2.73078
2.73523
2.74134
2.7481
2.75362
2.75678
2.75755
2.75766
2.75809
2.75974
2.76288
2.76679
2.77016
2.77222
2.77325
2.7741
2.77543
2.77748
2.77986
2.78194
2.78338
2.78428
2.78495
2.7857
2.78676
2.7882
2.78983
2.79134
2.79235
2.79286
1
1
1
1
1
1
1
1
1
1
1
1
1
1
1
1
1
1
1
1
1
1
1
1
1
1
1
1
1
1
1
1
1
1
1
1
1
1
1
1
1
1
1
1
1
1
1
1
1
1.42256
2.50946
2.67858
2.67818
2.68039
2.68148
2.68356
2.68751
2.69403
2.70217
2.71035
2.7172
2.7218
2.72405
2.72496
2.72552
2.72632
2.72815
2.73198
2.7377
2.74449
2.75053
2.75437
2.75563
2.7558
2.7561
2.75744
2.76027
2.76405
2.7675
2.76972
2.77084
2.77168
2.77294
2.77488
2.7772
2.77928
2.78072
2.78158
2.78221
2.7829
2.7839
2.7853
2.78691
2.7884
2.78939
2.78988
1
1
1
1
1
1
1
1
1
1
1
1
1
1
1
1
1
1
1
1
1
1
1
1
1
1
1
1
1
1
1
1
1
1
1
1
1
1
1
1
1
1
1
1
1
1
1
1
1
1.27919
2.44531
2.67509
2.67486
2.67865
2.6805
2.68289
2.68594
2.69064
2.6971
2.70452
2.71157
2.71707
2.72046
2.72221
2.72319
2.72406
2.72556
2.72875
2.73391
2.74047
2.74684
2.75132
2.75326
2.75362
2.75388
2.75495
2.75742
2.76101
2.76452
2.76694
2.7682
2.76906
2.77024
2.77206
2.7743
2.77635
2.77778
2.77862
2.77919
2.7798
2.78073
2.78209
2.78368
2.78515
2.78611
2.7866
1
1
1
1
1
1
1
1
1
1
1
1
1
1
1
1
1
1
1
1
1
1
1
1
1
1
1
1
1
1
1
1
1
1
1
1
1
1
1
1
1
1
1
1
1
1
1
1
1
1.12884
2.37453
2.67483
2.67336
2.67765
2.68048
2.68308
2.6856
2.68888
2.69356
2.69956
2.70597
2.71175
2.71608
2.71882
2.72046
2.7216
2.72295
2.72556
2.73005
2.73612
2.74258
2.74759
2.75031
2.75107
2.7514
2.75228
2.7544
2.75773
2.76123
2.76384
2.76528
2.7662
2.76731
2.769
2.77113
2.77315
2.77458
2.77539
2.77589
2.77641
2.77725
2.77854
2.78007
2.7815
2.78245
2.78292
1
1
1
1
1
1
1
1
1
1
1
1
1
1
1
1
1
1
1
1
1
1
1
1
1
1
1
1
1
1
1
1
1
1
1
1
1
1
1
1
1
1
1
1
1
1
1
1
1
1.00625
2.30879
2.67582
2.67323
2.67695
2.68024
2.68348
2.68646
2.68947
2.69278
2.69669
2.70147
2.70668
2.71139
2.71493
2.7173
2.71886
2.72027
2.72243
2.7262
2.73159
2.73785
2.74321
2.7467
2.74804
2.7486
2.74939
2.75121
2.75421
2.75763
2.7604
2.76205
2.76305
2.76412
2.76568
2.76768
2.76964
2.77105
2.77182
2.77224
2.77267
2.7734
2.7746
2.77606
2.77746
2.7784
2.77886
1
1
1
1
1
1
1
1
1
1
1
1
1
1
1
1
1
1
1
1
1
1
1
1
1
1
1
1
1
1
1
1
1
1
1
1
1
1
1
1
1
1
1
1
1
1
1
1
1
1.00003
2.21959
2.67388
2.67577
2.67873
2.68205
2.68496
2.68754
2.68992
2.6925
2.69545
2.69905
2.70319
2.70747
2.71124
2.71411
2.71609
2.71763
2.71947
2.72254
2.72709
2.73286
2.73831
2.74242
2.74447
2.7454
2.74622
2.74781
2.75048
2.75375
2.7566
2.75846
2.75958
2.76062
2.76206
2.76393
2.7658
2.76718
2.76791
2.76825
2.76856
2.76919
2.77025
2.77158
2.77294
2.77385
2.77427
1
1
1
1
1
1
1
1
1
1
1
1
1
1
1
1
1
1
1
1
1
1
1
1
1
1
1
1
1
1
1
1
1
1
1
1
1
1
1
1
1
1
1
1
1
1
1
1
1
1
2.10591
2.66503
2.67688
2.6801
2.684
2.68726
2.6898
2.69174
2.69359
2.69578
2.69844
2.7016
2.70509
2.70852
2.71141
2.71361
2.71524
2.71683
2.71924
2.72288
2.72786
2.73312
2.73757
2.74032
2.74176
2.74271
2.74415
2.74651
2.74955
2.75242
2.75446
2.75572
2.75676
2.75809
2.75982
2.76158
2.76289
2.76356
2.76381
2.764
2.76449
2.76537
2.76659
2.76792
2.76881
2.76921
1
1
1
1
1
1
1
1
1
1
1
1
1
1
1
1
1
1
1
1
1
1
1
1
1
1
1
1
1
1
1
1
1
1
1
1
1
1
1
1
1
1
1
1
1
1
1
1
1
1
1.96153
2.6387
2.67429
2.67951
2.68353
2.68686
2.68962
2.692
2.69419
2.69633
2.69869
2.70135
2.70422
2.70704
2.70959
2.7117
2.71322
2.71458
2.7164
2.71914
2.72316
2.72791
2.73238
2.73568
2.73764
2.73882
2.74018
2.74226
2.74503
2.74785
2.75003
2.75144
2.75252
2.75376
2.75533
2.75696
2.75819
2.75878
2.75894
2.75904
2.75934
2.75996
2.76101
2.76223
2.76306
2.76342
1
1
1
1
1
1
1
1
1
1
1
1
1
1
1
1
1
1
1
1
1
1
1
1
1
1
1
1
1
1
1
1
1
1
1
1
1
1
1
1
1
1
1
1
1
1
1
1
1
1
1.79671
2.59493
2.66538
2.674
2.68047
2.68497
2.68844
2.6913
2.69369
2.69587
2.69823
2.70079
2.70347
2.7061
2.70848
2.71039
2.71193
2.71287
2.71415
2.7161
2.71908
2.72303
2.72719
2.73072
2.73311
2.73455
2.73587
2.73768
2.74016
2.74286
2.74514
2.74671
2.74785
2.74901
2.75041
2.75187
2.75297
2.75345
2.75348
2.75346
2.75351
2.75385
2.75471
2.75583
2.75663
2.75697
1
1
1
1
1
1
1
1
1
1
1
1
1
1
1
1
1
1
1
1
1
1
1
1
1
1
1
1
1
1
1
1
1
1
1
1
1
1
1
1
1
1
1
1
1
1
1
1
1
1
1.60983
2.53095
2.65123
2.66314
2.67185
2.67732
2.68249
2.68728
2.69116
2.69429
2.69704
2.69965
2.70227
2.70486
2.70727
2.70922
2.71064
2.71175
2.71241
2.71366
2.71566
2.71871
2.72227
2.72569
2.72828
2.72993
2.73121
2.73277
2.73494
2.73748
2.73978
2.74149
2.7427
2.7438
2.74503
2.74629
2.7472
2.74755
2.74749
2.74729
2.74704
2.74711
2.74764
2.7485
2.74916
2.7494
1
1
1
1
1
1
1
1
1
1
1
1
1
1
1
1
1
1
1
1
1
1
1
1
1
1
1
1
1
1
1
1
1
1
1
1
1
1
1
1
1
1
1
1
1
1
1
1
1
1
1.36606
2.44228
2.64693
2.64812
2.65685
2.66521
2.67292
2.67933
2.68462
2.68931
2.69333
2.6969
2.70014
2.70311
2.70571
2.70782
2.70928
2.71028
2.71101
2.71172
2.71295
2.71502
2.71785
2.72085
2.72335
2.72507
2.72626
2.72756
2.72939
2.73171
2.73394
2.73574
2.73702
2.73806
2.7391
2.74011
2.74079
2.74097
2.74073
2.74019
2.73958
2.7393
2.73952
2.74012
2.74066
2.74085
1
1
1
1
1
1
1
1
1
1
1
1
1
1
1
1
1
1
1
1
1
1
1
1
1
1
1
1
1
1
1
1
1
1
1
1
1
1
1
1
1
1
1
1
1
1
1
1
1
1
1.10019
2.35368
2.64893
2.64434
2.64736
2.65327
2.66084
2.66845
2.67548
2.68149
2.68667
2.69135
2.69565
2.69962
2.70306
2.70574
2.70758
2.70865
2.70933
2.70986
2.71054
2.71193
2.71399
2.71636
2.71853
2.7201
2.72113
2.72214
2.72359
2.72555
2.72764
2.72947
2.73079
2.73177
2.73261
2.73332
2.7337
2.73365
2.73319
2.7323
2.73129
2.73055
2.7303
2.73038
2.73052
2.73043
1
1
1
1
1
1
1
1
1
1
1
1
1
1
1
1
1
1
1
1
1
1
1
1
1
1
1
1
1
1
1
1
1
1
1
1
1
1
1
1
1
1
1
1
1
1
1
1
1
1
1.00279
2.27535
2.6469
2.64007
2.64482
2.64901
2.65428
2.65993
2.66629
2.67244
2.67808
2.68346
2.68873
2.6938
2.69836
2.70205
2.7047
2.70633
2.70727
2.70783
2.70834
2.70912
2.71057
2.71236
2.714
2.71521
2.71595
2.7166
2.71759
2.71909
2.72088
2.72263
2.72396
2.72485
2.72546
2.72581
2.72587
2.72556
2.72469
2.72326
2.72155
2.72006
2.71914
2.71874
2.7186
2.71845
1
1
1
1
1
1
1
1
1
1
1
1
1
1
1
1
1
1
1
1
1
1
1
1
1
1
1
1
1
1
1
1
1
1
1
1
1
1
1
1
1
1
1
1
1
1
1
1
1
1
1
2.14254
2.6502
2.64894
2.65009
2.6513
2.65386
2.65727
2.66086
2.66481
2.66953
2.67474
2.68028
2.68598
2.6915
2.69631
2.70003
2.70256
2.70416
2.70512
2.7058
2.70649
2.70743
2.70869
2.70983
2.71055
2.71085
2.71105
2.71153
2.71245
2.71377
2.71528
2.71652
2.71729
2.7176
2.71759
2.7173
2.71654
2.7151
2.713
2.71055
2.70827
2.70646
2.70497
2.70377
2.70272
1
1
1
1
1
1
1
1
1
1
1
1
1
1
1
1
1
1
1
1
1
1
1
1
1
1
1
1
1
1
1
1
1
1
1
1
1
1
1
1
1
1
1
1
1
1
1
1
1
1
1
1.96807
2.63484
2.6538
2.65336
2.65489
2.65603
2.65748
2.65903
2.66119
2.664
2.6675
2.6721
2.67749
2.68322
2.68871
2.69339
2.69696
2.6995
2.7012
2.70241
2.70338
2.7043
2.70524
2.70591
2.70613
2.70597
2.70565
2.70555
2.70574
2.70642
2.70749
2.70848
2.70899
2.70899
2.70865
2.70787
2.70651
2.70435
2.70135
2.69769
2.69378
2.69012
2.68708
2.68478
2.68377
1
1
1
1
1
1
1
1
1
1
1
1
1
1
1
1
1
1
1
1
1
1
1
1
1
1
1
1
1
1
1
1
1
1
1
1
1
1
1
1
1
1
1
1
1
1
1
1
1
1
1
1.74982
2.56948
2.65051
2.65422
2.65721
2.65848
2.65922
2.65967
2.66038
2.66144
2.66337
2.66619
2.67008
2.67495
2.68024
2.68529
2.6896
2.69305
2.6957
2.69773
2.69932
2.70058
2.70155
2.70204
2.70186
2.7013
2.70046
2.69968
2.69904
2.69905
2.69941
2.69988
2.70004
2.69973
2.69893
2.69753
2.69538
2.69225
2.688
2.68277
2.67708
2.67149
2.66615
2.66023
2.65471
1
1
1
1
1
1
1
1
1
1
1
1
1
1
1
1
1
1
1
1
1
1
1
1
1
1
1
1
1
1
1
1
1
1
1
1
1
1
1
1
1
1
1
1
1
1
1
1
1
1
1
1.45119
2.45052
2.64297
2.64666
2.65115
2.65453
2.65719
2.65904
2.66013
2.66092
2.6617
2.66297
2.66521
2.66843
2.67249
2.67695
2.6813
2.68522
2.68863
2.69152
2.69394
2.69584
2.69717
2.69778
2.6975
2.69668
2.69544
2.69399
2.69252
2.69165
2.69119
2.69093
2.69055
2.68975
2.68836
2.6862
2.68309
2.67877
2.67304
2.66582
2.6572
2.6469
2.63482
2.62258
2.61332
1
1
1
1
1
1
1
1
1
1
1
1
1
1
1
1
1
1
1
1
1
1
1
1
1
1
1
1
1
1
1
1
1
1
1
1
1
1
1
1
1
1
1
1
1
1
1
1
1
1
1
1.10628
2.33436
2.63499
2.63167
2.63667
2.64362
2.65032
2.655
2.6578
2.65947
2.66051
2.66142
2.66252
2.66422
2.66668
2.66977
2.67327
2.67694
2.68057
2.68394
2.68707
2.68977
2.69178
2.69274
2.69264
2.69184
2.69036
2.68838
2.68625
2.68444
2.683
2.68182
2.68065
2.67914
2.67699
2.67392
2.66968
2.66393
2.65627
2.6462
2.63332
2.61738
2.59852
2.58037
2.5726
1
1
1
1
1
1
1
1
1
1
1
1
1
1
1
1
1
1
1
1
1
1
1
1
1
1
1
1
1
1
1
1
1
1
1
1
1
1
1
1
1
1
1
1
1
1
1
1
1
1
1
1.00289
2.24164
2.62129
2.61906
2.62589
2.63292
2.64036
2.64713
2.65209
2.65559
2.65786
2.65937
2.66051
2.6616
2.66289
2.66458
2.66673
2.6694
2.67253
2.6757
2.67905
2.68229
2.68501
2.68666
2.687
2.6864
2.68494
2.68272
2.68008
2.67743
2.67496
2.6727
2.6705
2.66802
2.66489
2.66073
2.65519
2.64776
2.63785
2.62462
2.60714
2.58301
2.5467
2.48108
2.34081
1
1
1
1
1
1
1
1
1
1
1
1
1
1
1
1
1
1
1
1
1
1
1
1
1
1
1
1
1
1
1
1
1
1
1
1
1
1
1
1
1
1
1
1
1
1
1
1
1
1
1
0.999994
2.07387
2.61502
2.62324
2.62705
2.62973
2.63362
2.63895
2.64423
2.64894
2.65275
2.65557
2.65754
2.6589
2.6599
2.66079
2.66184
2.6633
2.66534
2.66777
2.67064
2.67381
2.67694
2.67933
2.68036
2.68009
2.6789
2.67675
2.67386
2.67057
2.66716
2.66375
2.66032
2.65662
2.65228
2.64683
2.63981
2.63052
2.6181
2.60126
2.57769
2.54331
2.48799
2.40677
2.19324
1
1
1
1
1
1
1
1
1
1
1
1
1
1
1
1
1
1
1
1
1
1
1
1
1
1
1
1
1
1
1
1
1
1
1
1
1
1
1
1
1
1
1
1
1
1
1
1
1
1
1
0.999998
1.84303
2.5801
2.6291
2.6285
2.62982
2.63184
2.63387
2.63719
2.6414
2.64575
2.64967
2.65283
2.65511
2.65658
2.65742
2.65795
2.65852
2.65945
2.6609
2.6627
2.66514
2.66802
2.67076
2.6725
2.67275
2.67199
2.67014
2.66727
2.66362
2.65947
2.65498
2.65025
2.64514
2.63938
2.63245
2.62378
2.61251
2.59754
2.57703
2.54844
2.50559
2.44711
2.32527
2.11573
1
1
1
1
1
1
1
1
1
1
1
1
1
1
1
1
1
1
1
1
1
1
1
1
1
1
1
1
1
1
1
1
1
1
1
1
1
1
1
1
1
1
1
1
1
1
1
1
1
1
1
1
1.5155
2.47038
2.62611
2.62554
2.62764
2.62905
2.63061
2.63278
2.63562
2.63913
2.64297
2.64667
2.64981
2.65212
2.65351
2.65415
2.65437
2.65463
2.65519
2.65583
2.65712
2.65909
2.66148
2.66356
2.66442
2.66405
2.66265
2.66008
2.65638
2.65175
2.64639
2.64044
2.63386
2.62651
2.61792
2.60749
2.59417
2.57684
2.55309
2.5207
2.47282
2.40309
2.27458
2.08756
1
1
1
1
1
1
1
1
1
1
1
1
1
1
1
1
1
1
1
1
1
1
1
1
1
1
1
1
1
1
1
1
1
1
1
1
1
1
1
1
1
1
1
1
1
1
1
1
1
1
1
1
1.12261
2.33748
2.62252
2.618
2.61955
2.62267
2.6262
2.62868
2.63097
2.63354
2.63658
2.63996
2.64336
2.64629
2.64842
2.64967
2.65009
2.65018
2.65019
2.64999
2.65014
2.65085
2.65227
2.65401
2.65513
2.65507
2.65416
2.65202
2.64852
2.64372
2.63776
2.63082
2.62288
2.61394
2.6036
2.59134
2.57602
2.55649
2.53028
2.49455
2.4444
2.36894
2.25043
2.09926
1
1
1
1
1
1
1
1
1
1
1
1
1
1
1
1
1
1
1
1
1
1
1
1
1
1
1
1
1
1
1
1
1
1
1
1
1
1
1
1
1
1
1
1
1
1
1
1
1
1
1
1
1.00383
2.22139
2.60276
2.60375
2.60918
2.61474
2.61996
2.62354
2.62622
2.62855
2.63093
2.63364
2.63669
2.63961
2.64216
2.64406
2.64509
2.64545
2.64529
2.64474
2.64408
2.64367
2.64388
2.6446
2.64535
2.6454
2.64475
2.64299
2.63982
2.63514
2.62893
2.62131
2.6123
2.60192
2.58983
2.57574
2.55853
2.53702
2.50898
2.47115
2.42007
2.3457
2.2433
2.11787
1
1
1
1
1
1
1
1
1
1
1
1
1
1
1
1
1
1
1
1
1
1
1
1
1
1
1
1
1
1
1
1
1
1
1
1
1
1
1
1
1
1
1
1
1
1
1
1
1
1
1
1
0.999989
2.01445
2.58383
2.60499
2.60855
2.61139
2.6143
2.61777
2.62086
2.62342
2.62566
2.6279
2.63038
2.63287
2.63529
2.63745
2.63905
2.63993
2.63997
2.63949
2.63851
2.63733
2.63639
2.63591
2.63576
2.63545
2.63467
2.63305
2.63017
2.62577
2.61963
2.61172
2.60196
2.59047
2.57687
2.56105
2.54212
2.51893
2.48959
2.45104
2.39987
2.33114
2.2433
2.13584
1
1
1
1
1
1
1
1
1
1
1
1
1
1
1
1
1
1
1
1
1
1
1
1
1
1
1
1
1
1
1
1
1
1
1
1
1
1
1
1
1
1
1
1
1
1
1
1
1
1
1
1
0.999997
1.70868
2.51828
2.60371
2.60573
2.60715
2.60949
2.61227
2.61517
2.61787
2.62023
2.62234
2.62444
2.62645
2.62842
2.63038
2.63213
2.63347
2.63401
2.63376
2.63289
2.63144
2.62975
2.62818
2.62691
2.62575
2.62441
2.62254
2.6197
2.61553
2.60964
2.6018
2.59175
2.5795
2.56481
2.54756
2.52711
2.50254
2.4724
2.43405
2.38378
2.32148
2.24566
2.15408
1
1
1
1
1
1
1
1
1
1
1
1
1
1
1
1
1
1
1
1
1
1
1
1
1
1
1
1
1
1
1
1
1
1
1
1
1
1
1
1
1
1
1
1
1
1
1
1
1
1
1
1
0.999999
1.30608
2.39053
2.59801
2.59667
2.59946
2.6038
2.60689
2.60965
2.61228
2.61471
2.61686
2.61884
2.62046
2.62196
2.62343
2.62491
2.6263
2.62722
2.62732
2.62675
2.62541
2.62343
2.62114
2.61887
2.61668
2.61445
2.61195
2.6088
2.60463
2.59894
2.59134
2.5814
2.56885
2.55353
2.53529
2.51371
2.48807
2.45767
2.41941
2.37162
2.31619
2.24927
2.16975
1
1
1
1
1
1
1
1
1
1
1
1
1
1
1
1
1
1
1
1
1
1
1
1
1
1
1
1
1
1
1
1
1
1
1
1
1
1
1
1
1
1
1
1
1
1
1
1
1
1
1
1
1
1.02562
2.25824
2.59662
2.59251
2.59373
2.59758
2.60086
2.60372
2.60635
2.60882
2.61111
2.6131
2.6146
2.61581
2.61684
2.61783
2.61891
2.61987
2.62027
2.61996
2.61891
2.61702
2.61445
2.6115
2.60843
2.6052
2.60179
2.59796
2.59342
2.58768
2.58026
2.57061
2.55822
2.54282
2.52412
2.50191
2.47562
2.44507
2.4073
2.36333
2.31316
2.25172
2.18338
1
1
1
1
1
1
1
1
1
1
1
1
1
1
1
1
1
1
1
1
1
1
1
1
1
1
1
1
1
1
1
1
1
1
1
1
1
1
1
1
1
1
1
1
1
1
1
1
1
1
1
1
1
1.0001
2.04691
2.56702
2.58239
2.58877
2.59256
2.59504
2.59769
2.60024
2.60273
2.6051
2.60709
2.60865
2.60977
2.61051
2.61105
2.61165
2.61231
2.61272
2.61255
2.61177
2.61013
2.60762
2.60439
2.6007
2.59667
2.59234
2.58763
2.58241
2.57628
2.56879
2.55936
2.54736
2.53231
2.51376
2.49149
2.46498
2.43481
2.39808
2.35709
2.31035
2.25379
2.19595
1
1
1
1
1
1
1
1
1
1
1
1
1
1
1
1
1
1
1
1
1
1
1
1
1
1
1
1
1
1
1
1
1
1
1
1
1
1
1
1
1
1
1
1
1
1
1
1
1
1
1
1
1
0.999999
1.70775
2.50004
2.58252
2.58528
2.58668
2.58918
2.59183
2.59433
2.59679
2.59905
2.60101
2.60261
2.60373
2.60436
2.60461
2.60477
2.60495
2.60507
2.60487
2.60417
2.60273
2.60041
2.5972
2.59325
2.58871
2.58369
2.57811
2.57201
2.56517
2.55727
2.54779
2.53612
2.52164
2.50374
2.48204
2.45595
2.42662
2.3908
2.35233
2.3085
2.25727
2.2066
1
1
1
1
1
1
1
1
1
1
1
1
1
1
1
1
1
1
1
1
1
1
1
1
1
1
1
1
1
1
1
1
1
1
1
1
1
1
1
1
1
1
1
1
1
1
1
1
1
1
1
1
1
1
1.26127
2.36987
2.57858
2.57455
2.57697
2.58122
2.58478
2.58771
2.59027
2.59258
2.59455
2.5962
2.59738
2.59803
2.59816
2.59803
2.59781
2.59754
2.59709
2.59628
2.59487
2.59271
2.58966
2.58573
2.58098
2.57552
2.56932
2.56244
2.55476
2.54618
2.53633
2.52472
2.51074
2.49369
2.47298
2.44808
2.4197
2.38512
2.34941
2.30819
2.26172
2.21485
1
1
1
1
1
1
1
1
1
1
1
1
1
1
1
1
1
1
1
1
1
1
1
1
1
1
1
1
1
1
1
1
1
1
1
1
1
1
1
1
1
1
1
1
1
1
1
1
1
1
1
1
1
1
1.01721
2.23831
2.56641
2.56363
2.56804
2.57289
2.57707
2.58051
2.58332
2.58583
2.5879
2.5896
2.59084
2.59155
2.59166
2.59142
2.59093
2.5903
2.5895
2.58841
2.58686
2.58469
2.58174
2.57792
2.57321
2.56759
2.56106
2.55364
2.54524
2.53589
2.5254
2.51352
2.49977
2.48345
2.46391
2.44071
2.41327
2.38084
2.34785
2.30857
2.266
2.2216
1
1
1
1
1
1
1
1
1
1
1
1
1
1
1
1
1
1
1
1
1
1
1
1
1
1
1
1
1
1
1
1
1
1
1
1
1
1
1
1
1
1
1
1
1
1
1
1
1
1
1
1
1
1
1.00003
1.98266
2.5358
2.55905
2.56463
2.56805
2.57109
2.57355
2.57617
2.57868
2.58084
2.58261
2.58393
2.58472
2.5849
2.58464
2.58403
2.58316
2.58205
2.58065
2.57885
2.57654
2.57357
2.56983
2.56521
2.55964
2.55303
2.54533
2.53648
2.52654
2.51539
2.50301
2.48914
2.4732
2.45474
2.43303
2.40686
2.37784
2.34683
2.30871
2.2698
2.22824
1
1
1
1
1
1
1
1
1
1
1
1
1
1
1
1
1
1
1
1
1
1
1
1
1
1
1
1
1
1
1
1
1
1
1
1
1
1
1
1
1
1
1
1
1
1
1
1
1
1
1
1
1
1
1
1.56332
2.44716
2.56297
2.5624
2.56332
2.56527
2.56725
2.56938
2.57159
2.57365
2.57541
2.57675
2.57761
2.5779
2.57767
2.57703
2.57605
2.57474
2.57308
2.57101
2.56846
2.56533
2.56155
2.55697
2.55149
2.54496
2.53725
2.52825
2.51797
2.50638
2.49351
2.47927
2.46335
2.44559
2.42483
2.40093
2.37504
2.34456
2.30885
2.27421
2.23513
1
1
1
1
1
1
1
1
1
1
1
1
1
1
1
1
1
1
1
1
1
1
1
1
1
1
1
1
1
1
1
1
1
1
1
1
1
1
1
1
1
1
1
1
1
1
1
1
1
1
1
1
1
1
1
1.08711
2.29979
2.56362
2.55626
2.55696
2.55884
2.56085
2.56268
2.56458
2.56641
2.56805
2.56936
2.57024
2.57061
2.57042
2.56981
2.56881
2.5674
2.56559
2.5633
2.56052
2.5572
2.55328
2.54865
2.54321
2.53678
2.52919
2.52027
2.50995
2.49818
2.48501
2.47056
2.45422
2.43678
2.41677
2.39487
2.37061
2.34134
2.31028
2.27821
2.24093
1
1
1
1
1
1
1
1
1
1
1
1
1
1
1
1
1
1
1
1
1
1
1
1
1
1
1
1
1
1
1
1
1
1
1
1
1
1
1
1
1
1
1
1
1
1
1
1
1
1
1
1
1
1
1
1.00173
2.1149
2.53485
2.54131
2.54871
2.5531
2.55478
2.55638
2.55794
2.55945
2.56083
2.56196
2.56274
2.5631
2.56292
2.56233
2.56135
2.55992
2.55804
2.55563
2.5527
2.54919
2.54511
2.54036
2.53486
2.52847
2.52101
2.51229
2.50217
2.4905
2.47735
2.46279
2.44617
2.42902
2.40915
2.38829
2.3655
2.33848
2.31081
2.28004
2.24591
1
1
1
1
1
1
1
1
1
1
1
1
1
1
1
1
1
1
1
1
1
1
1
1
1
1
1
1
1
1
1
1
1
1
1
1
1
1
1
1
1
1
1
1
1
1
1
1
1
1
1
1
1
1
1
0.999988
1.7339
2.47104
2.54148
2.54432
2.54691
2.54892
2.55053
2.55186
2.55307
2.5541
2.55494
2.55546
2.55563
2.5554
2.55475
2.55374
2.55231
2.55041
2.54796
2.54493
2.54132
2.53711
2.53223
2.52663
2.5202
2.5128
2.50426
2.4944
2.48305
2.47014
2.45569
2.43927
2.42212
2.40216
2.38241
2.36048
2.3352
2.3097
2.28058
2.2508
1
1
1
1
1
1
1
1
1
1
1
1
1
1
1
1
1
1
1
1
1
1
1
1
1
1
1
1
1
1
1
1
1
1
1
1
1
1
1
1
1
1
1
1
1
1
1
1
1
1
1
1
1
1
1
0.999997
1.2126
2.33471
2.54186
2.53625
2.53769
2.54066
2.5431
2.54491
2.54632
2.54733
2.54802
2.54833
2.54825
2.54787
2.54712
2.54602
2.54454
2.54261
2.54014
2.5371
2.53344
2.52917
2.52421
2.51854
2.51204
2.50465
2.4962
2.48658
2.4756
2.46309
2.44903
2.43311
2.41582
2.39656
2.37769
2.35544
2.33165
2.30786
2.28145
2.25433
1
1
1
1
1
1
1
1
1
1
1
1
1
1
1
1
1
1
1
1
1
1
1
1
1
1
1
1
1
1
1
1
1
1
1
1
1
1
1
1
1
1
1
1
1
1
1
1
1
1
1
1
1
1
1
0.999999
1.01075
2.1803
2.52132
2.52276
2.52806
2.53221
2.5348
2.5372
2.53906
2.54032
2.54112
2.54136
2.54115
2.5406
2.53967
2.53842
2.53681
2.53479
2.53229
2.52924
2.52558
2.52129
2.5163
2.5106
2.50407
2.49667
2.48828
2.47879
2.46811
2.45599
2.44248
2.42716
2.41025
2.39213
2.37308
2.35083
2.32919
2.30634
2.2813
2.25534
1
1
1
1
1
1
1
1
1
1
1
1
1
1
1
1
1
1
1
1
1
1
1
1
1
1
1
1
1
1
1
1
1
1
1
1
1
1
1
1
1
1
1
1
1
1
1
1
1
1
1
1
1
1
1
1
0.999998
1.82112
2.47467
2.51705
2.52247
2.52493
2.52742
2.52973
2.5316
2.53303
2.53401
2.53438
2.53415
2.53351
2.53244
2.531
2.52921
2.52703
2.52443
2.52132
2.51764
2.51336
2.5084
2.50272
2.49623
2.48887
2.48058
2.47117
2.46071
2.44885
2.4359
2.42129
2.40515
2.38788
2.3688
2.34798
2.32753
2.30469
2.28073
2.25611
1
1
1
1
1
1
1
1
1
1
1
1
1
1
1
1
1
1
1
1
1
1
1
1
1
1
1
1
1
1
1
1
1
1
1
1
1
1
1
1
1
1
1
1
1
1
1
1
1
1
1
1
1
1
1
1
0.999996
1.28702
2.3532
2.52191
2.51646
2.51736
2.51919
2.52134
2.52321
2.52483
2.52614
2.5269
2.52685
2.52636
2.52532
2.52381
2.52187
2.51952
2.51675
2.51351
2.50976
2.50545
2.50051
2.49488
2.48849
2.48122
2.47309
2.46376
2.45346
2.44173
2.42932
2.41532
2.39996
2.38359
2.36534
2.346
2.32551
2.30309
2.28079
2.25747
1
1
1
1
1
1
1
1
1
1
1
1
1
1
1
1
1
1
1
1
1
1
1
1
1
1
1
1
1
1
1
1
1
1
1
1
1
1
1
1
1
1
1
1
1
1
1
1
1
1
1
1
1
1
1
1
0.999999
1.0196
2.19653
2.50536
2.50506
2.50798
2.51119
2.51317
2.5148
2.51636
2.51775
2.51882
2.5192
2.51892
2.5181
2.51669
2.51472
2.51224
2.50931
2.50591
2.50201
2.49762
2.49267
2.48707
2.48078
2.47365
2.46576
2.45657
2.44646
2.4349
2.42293
2.40927
2.39479
2.37945
2.3621
2.34353
2.32344
2.30288
2.28146
2.25893
1
1
1
1
1
1
1
1
1
1
1
1
1
1
1
1
1
1
1
1
1
1
1
1
1
1
1
1
1
1
1
1
1
1
1
1
1
1
1
1
1
1
1
1
1
1
1
1
1
1
1
1
1
1
1
1
1
1.00004
1.82234
2.4601
2.49764
2.50202
2.50461
2.50656
2.50771
2.5087
2.50967
2.51061
2.51123
2.51115
2.51059
2.50942
2.5076
2.50515
2.50214
2.49859
2.49454
2.49001
2.48497
2.47935
2.47313
2.46614
2.45847
2.44944
2.43958
2.42844
2.4167
2.40328
2.38976
2.37507
2.35833
2.34065
2.32201
2.30299
2.28184
2.25955
1
1
1
1
1
1
1
1
1
1
1
1
1
1
1
1
1
1
1
1
1
1
1
1
1
1
1
1
1
1
1
1
1
1
1
1
1
1
1
1
1
1
1
1
1
1
1
1
1
1
1
1
1
1
1
1
1
1
1.25232
2.3313
2.50498
2.49737
2.49813
2.499
2.50002
2.50071
2.5014
2.50211
2.50275
2.50293
2.50262
2.50176
2.50022
2.49797
2.49506
2.4915
2.48735
2.4827
2.47754
2.47185
2.46561
2.45878
2.45119
2.44241
2.43288
2.42229
2.41068
2.39775
2.38488
2.37035
2.35438
2.33786
2.3206
2.30244
2.28153
2.26023
1
1
1
1
1
1
1
1
1
1
1
1
1
1
1
1
1
1
1
1
1
1
1
1
1
1
1
1
1
1
1
1
1
1
1
1
1
1
1
1
1
1
1
1
1
1
1
1
1
1
1
1
1
1
1
1
1
1
1.01482
2.16278
2.48536
2.48523
2.48827
2.4912
2.49254
2.49312
2.49358
2.49396
2.49434
2.49454
2.49436
2.49374
2.49251
2.49057
2.48789
2.48446
2.48036
2.47566
2.4704
2.46463
2.45832
2.45158
2.44392
2.43545
2.42626
2.41614
2.40478
2.39258
2.3799
2.36545
2.35058
2.3351
2.31845
2.30072
2.28068
2.26125
1
1
1
1
1
1
1
1
1
1
1
1
1
1
1
1
1
1
1
1
1
1
1
1
1
1
1
1
1
1
1
1
1
1
1
1
1
1
1
1
1
1
1
1
1
1
1
1
1
1
1
1
1
1
1
1
1
1
1.00001
1.73198
2.4215
2.4856
2.48532
2.48509
2.48598
2.48673
2.48674
2.48657
2.48645
2.48634
2.48607
2.48548
2.48444
2.48279
2.48043
2.47728
2.47338
2.4688
2.46355
2.45776
2.45141
2.44456
2.43697
2.42871
2.41977
2.40999
2.39906
2.3875
2.3749
2.36094
2.34706
2.33195
2.31559
2.2988
2.28013
2.26205
1
1
1
1
1
1
1
1
1
1
1
1
1
1
1
1
1
1
1
1
1
1
1
1
1
1
1
1
1
1
1
1
1
1
1
1
1
1
1
1
1
1
1
1
1
1
1
1
1
1
1
1
1
1
1
1
1
1
0.999997
1.14718
2.27971
2.49077
2.48112
2.47977
2.47971
2.48017
2.47972
2.47912
2.47866
2.47826
2.47779
2.47713
2.47615
2.47469
2.47261
2.4698
2.4662
2.46186
2.45677
2.45105
2.4447
2.4378
2.4303
2.42214
2.41337
2.40383
2.39335
2.38223
2.36992
2.35678
2.34341
2.32829
2.31255
2.29705
2.27962
2.26204
1
1
1
1
1
1
1
1
1
1
1
1
1
1
1
1
1
1
1
1
1
1
1
1
1
1
1
1
1
1
1
1
1
1
1
1
1
1
1
1
1
1
1
1
1
1
1
1
1
1
1
1
1
1
1
1
1
1
0.999999
1.00492
2.06808
2.4586
2.46305
2.46831
2.47365
2.47376
2.47305
2.47228
2.47153
2.47076
2.46994
2.46904
2.46794
2.4665
2.46457
2.46204
2.45876
2.45476
2.44994
2.44444
2.4382
2.43136
2.42395
2.41585
2.40722
2.39784
2.38766
2.37691
2.36511
2.35267
2.33951
2.32467
2.3099
2.29532
2.2787
2.2614
1
1
1
1
1
1
1
1
1
1
1
1
1
1
1
1
1
1
1
1
1
1
1
1
1
1
1
1
1
1
1
1
1
1
1
1
1
1
1
1
1
1
1
1
1
1
1
1
1
1
1
1
1
1
1
1
1
1
1
0.999985
1.56023
2.36768
2.45929
2.46541
2.46854
2.46749
2.46667
2.46604
2.46518
2.46401
2.46273
2.46144
2.46005
2.45845
2.45649
2.45407
2.45101
2.44731
2.44282
2.43762
2.43161
2.42496
2.41768
2.40972
2.40125
2.39197
2.38202
2.37166
2.36034
2.34828
2.3354
2.32132
2.30744
2.29322
2.27697
2.26006
1
1
1
1
1
1
1
1
1
1
1
1
1
1
1
1
1
1
1
1
1
1
1
1
1
1
1
1
1
1
1
1
1
1
1
1
1
1
1
1
1
1
1
1
1
1
1
1
1
1
1
1
1
1
1
1
1
1
1
0.999996
1.08104
2.20555
2.45961
2.45813
2.45939
2.45898
2.45933
2.45946
2.45877
2.45743
2.45584
2.45424
2.45257
2.45075
2.44867
2.44621
2.44324
2.43971
2.43549
2.43057
2.42487
2.41851
2.41145
2.40374
2.39547
2.38632
2.3766
2.36657
2.35555
2.34377
2.33139
2.3182
2.30482
2.2907
2.2749
2.25878
1
1
1
1
1
1
1
1
1
1
1
1
1
1
1
1
1
1
1
1
1
1
1
1
1
1
1
1
1
1
1
1
1
1
1
1
1
1
1
1
1
1
1
1
1
1
1
1
1
1
1
1
1
1
1
1
1
1
1
0.999999
1.00127
1.85299
2.40954
2.44396
2.44711
2.44864
2.45166
2.45306
2.45247
2.45117
2.44948
2.44767
2.4457
2.44359
2.44124
2.43858
2.43551
2.43198
2.42791
2.42321
2.41782
2.41178
2.40503
2.39767
2.38968
2.38076
2.37138
2.36158
2.35074
2.33931
2.3276
2.31504
2.30179
2.28787
2.27293
2.25783
1
1
1
1
1
1
1
1
1
1
1
1
1
1
1
1
1
1
1
1
1
1
1
1
1
1
1
1
1
1
1
1
1
1
1
1
1