/*--------------------------------*- C++ -*----------------------------------*\
  =========                 |
  \\      /  F ield         | OpenFOAM: The Open Source CFD Toolbox
   \\    /   O peration     | Website:  https://openfoam.org
    \\  /    A nd           | Version:  9
     \\/     M anipulation  |
\*---------------------------------------------------------------------------*/
FoamFile
{
    format      ascii;
    class       surfaceScalarField;
    location    "4.8";
    object      phi;
}
// * * * * * * * * * * * * * * * * * * * * * * * * * * * * * * * * * * * * * //

dimensions      [0 3 -1 0 0 0 0];

internalField   nonuniform List<scalar> 
16735
(
-0.00165668
0.00165668
3.18115e-11
-0.00455241
0.00289573
-2.69619e-11
-0.00777289
0.00322048
-1.7192e-10
-0.0105333
0.00276038
-3.94086e-10
-0.0122236
0.00169037
-6.68245e-10
-0.0122394
1.57713e-05
-9.7523e-10
-0.00997746
-0.00226195
-1.29532e-09
-0.00469817
-0.00527928
-1.5838e-09
0.00383131
-0.00852949
-1.82635e-09
-0.0128255
-1.98584e-09
0.0166568
-0.00162019
0.00327688
-0.00442696
0.0057025
-0.00750429
0.00629781
-0.0100613
0.00531737
-0.0114775
0.00310658
-0.0111353
-0.00032638
-0.0084151
-0.00498218
-0.00257964
-0.0111147
0.00669396
-0.0178031
-0.0265484
0.0204169
-0.001548
0.00482488
-0.00417839
0.00833289
-0.00697173
0.00909114
-0.00912526
0.0074709
-0.00999792
0.00397923
-0.00894615
-0.00137815
-0.00531557
-0.00861276
0.00162814
-0.0180585
0.0123641
-0.028539
-0.0420213
0.027837
-0.00144163
0.00626651
-0.00381121
0.0107025
-0.00618424
0.0114642
-0.00774077
0.00902744
-0.00781004
0.0040485
-0.00571064
-0.00347755
-0.000708879
-0.0136145
0.00790901
-0.0266763
0.0207132
-0.0413432
-0.0600285
0.0387204
-0.00130327
0.00756978
-0.00333189
0.0127311
-0.00515484
0.0132871
-0.00593019
0.00980279
-0.00494974
0.00306805
-0.00149096
-0.00693633
0.00522241
-0.0203279
0.0160424
-0.0374963
0.0315477
-0.0568484
-0.0812634
0.0527826
-0.00113564
0.00870543
-0.00274855
0.014344
-0.00389988
0.0144385
-0.00372163
0.00962453
-0.00146098
0.000807395
0.00365551
-0.0120528
0.0124568
-0.0291292
0.0258876
-0.0509271
0.0446269
-0.0755877
-0.106303
0.0696662
-0.000941878
0.0096473
-0.00207055
0.0154727
-0.0024383
0.0148062
-0.00114775
0.00833398
0.00260105
-0.00294141
0.0096408
-0.0190926
0.0208569
-0.0403453
0.0372606
-0.0673308
0.0596712
-0.0979984
-0.135587
0.088956
-0.000725359
0.0103727
-0.00130803
0.0160553
-0.000790767
0.0142889
0.00175513
0.00578808
0.0071802
-0.00836648
0.0163744
-0.0282868
0.0302819
-0.0542527
0.049955
-0.087004
0.076371
-0.124414
-0.169411
0.110194
-0.000489671
0.0108623
-0.000471202
0.0160369
0.00102133
0.0127964
0.00494995
0.00185947
0.0122161
-0.0156326
0.0237625
-0.0398332
0.0405863
-0.0710765
0.0637518
-0.110169
0.0943968
-0.155059
-0.207908
0.132894
-0.000239095
0.0111014
0.000427672
0.0153701
0.00297616
0.0102479
0.00839862
-0.003563
0.0176462
-0.0248802
0.0317079
-0.0538949
0.0516208
-0.0909894
0.078425
-0.136974
0.113406
-0.190041
-0.251051
0.156549
3.24386e-05
0.011069
0.00138193
0.0140206
0.00505312
0.00657673
0.0120638
-0.0105737
0.023409
-0.0362254
0.040113
-0.070599
0.0632343
-0.114111
0.0937461
-0.167485
0.133051
-0.229346
-0.298641
0.180642
0.00030525
0.0107637
0.00238051
0.0119454
0.00723266
0.00172457
0.0159099
-0.019251
0.0294444
-0.0497599
0.0488815
-0.0900361
0.075276
-0.140505
0.109487
-0.201697
0.152983
-0.272841
-0.350319
0.20466
0.0005888
0.0101749
0.00341585
0.0091183
0.00949692
-0.0043565
0.0199035
-0.0296576
0.0356947
-0.065551
0.0579185
-0.11226
0.087595
-0.170182
0.125421
-0.239523
0.172854
-0.320274
-0.405565
0.228101
0.000879048
0.00929589
0.00448127
0.00551608
0.01183
-0.0117052
0.0240135
-0.041841
0.0421042
-0.0836417
0.0671304
-0.137286
0.10004
-0.203091
0.141322
-0.280805
0.192324
-0.371276
-0.463721
0.250479
0.00117457
0.00812132
0.00557118
0.00111948
0.0142179
-0.020352
0.0282109
-0.055834
0.0486191
-0.10405
0.076424
-0.165091
0.112458
-0.239125
0.156964
-0.325311
0.211054
-0.425365
-0.52401
0.271343
0.00147457
0.00664675
0.00668112
-0.00408707
0.016648
-0.0303188
0.0324681
-0.0716541
0.055186
-0.126768
0.0857049
-0.19561
0.124693
-0.278113
0.17212
-0.372739
0.228717
-0.481962
-0.585581
0.290289
0.00177864
0.00486812
0.00780749
-0.0101159
0.0191089
-0.0416203
0.0367583
-0.0893035
0.0617508
-0.15176
0.0948755
-0.228735
0.136584
-0.319822
0.186564
-0.422719
0.244993
-0.540391
-0.647595
0.307007
0.00208671
0.00278141
0.00894727
-0.0169765
0.0215896
-0.0542626
0.0410542
-0.108768
0.0682572
-0.178963
0.103834
-0.264312
0.14797
-0.363957
0.20008
-0.47483
0.259582
-0.599893
-0.709323
0.32131
0.00239887
0.000382539
0.0100976
-0.0246753
0.0240789
-0.0682439
0.0453268
-0.130016
0.0746451
-0.208282
0.112473
-0.30214
0.158687
-0.410171
0.212467
-0.52861
0.272239
-0.659666
-0.770348
0.333265
0.00271527
-0.00233273
0.0112556
-0.0332156
0.0265646
-0.083553
0.0495448
-0.152996
0.0808499
-0.239587
0.120678
-0.341967
0.168566
-0.458059
0.223502
-0.583546
0.282878
-0.719042
-0.831159
0.343689
0.00303595
-0.00536868
0.0124177
-0.0425973
0.0290329
-0.100168
0.0536735
-0.177637
0.0868022
-0.272715
0.12833
-0.383495
0.177425
-0.507154
0.232822
-0.638943
0.291646
-0.777866
-0.903426
0.363913
0.00336072
-0.0087294
0.0135794
-0.052816
0.0314679
-0.118057
0.0576746
-0.203843
0.0924289
-0.30747
0.135311
-0.426378
0.185099
-0.556942
0.240208
-0.694051
0.297492
-0.83515
-0.968248
0.362313
0.00368908
-0.0124185
0.0147352
-0.0638621
0.0338513
-0.137173
0.0615066
-0.231499
0.0976549
-0.343618
0.141511
-0.470234
0.191458
-0.606889
0.245557
-0.748151
0.300569
-0.890163
-1.02662
0.35894
0.00402007
-0.0164385
0.0158783
-0.0757204
0.0361623
-0.157457
0.0651248
-0.260461
0.102405
-0.380898
0.146828
-0.514657
0.196403
-0.656464
0.248881
-0.800628
0.301168
-0.94245
-1.0793
0.353854
0.00435227
-0.0207908
0.0170003
-0.0883684
0.0383776
-0.178834
0.0684822
-0.290566
0.106605
-0.419021
0.151175
-0.559227
0.199869
-0.705157
0.250209
-0.850968
0.299377
-0.991618
-1.12687
0.346939
0.00468375
-0.0254746
0.0180915
-0.101776
0.0404718
-0.201214
0.071531
-0.321625
0.110187
-0.457678
0.15448
-0.60352
0.201814
-0.752491
0.249593
-0.898747
0.295342
-1.03737
-1.16971
0.338186
0.00501204
-0.0304866
0.0191408
-0.115905
0.0424177
-0.224491
0.0742236
-0.353431
0.113088
-0.496542
0.156689
-0.64712
0.202231
-0.798032
0.24711
-0.943626
0.289239
-1.0795
-1.20815
0.327683
0.00533421
-0.0358208
0.020136
-0.130707
0.0441875
-0.248543
0.0765144
-0.385758
0.115256
-0.535284
0.157767
-0.689632
0.201138
-0.841403
0.242862
-0.98535
0.281263
-1.1179
-1.24246
0.315571
0.00564687
-0.0414677
0.0210642
-0.146124
0.0457529
-0.273232
0.0783613
-0.418366
0.116647
-0.573569
0.1577
-0.730685
0.19858
-0.882283
0.236971
-1.02374
0.271615
-1.15254
-1.27287
0.302024
0.00594626
-0.047414
0.0219116
-0.162089
0.0470868
-0.298407
0.0797274
-0.451007
0.117233
-0.611074
0.156495
-0.769948
0.194626
-0.920414
0.229574
-1.05869
0.260493
-1.18346
-1.2996
0.287222
0.00622838
-0.0536423
0.0226647
-0.178526
0.0481632
-0.323905
0.0805821
-0.483426
0.116997
-0.647489
0.154176
-0.807126
0.189362
-0.9556
0.220819
-1.09015
0.248093
-1.21074
-1.32285
0.271345
0.00648899
-0.0601313
0.0233099
-0.195347
0.048959
-0.349554
0.0809019
-0.515368
0.115938
-0.682525
0.150784
-0.841973
0.182886
-0.987702
0.210854
-1.11811
0.234597
-1.23448
-1.34282
0.254562
0.00672382
-0.0668551
0.0238343
-0.212457
0.049454
-0.375174
0.0806716
-0.546586
0.114064
-0.715918
0.146376
-0.874285
0.175306
-1.01663
0.199828
-1.14263
0.220176
-1.25483
-1.35967
0.23703
0.0069286
-0.0737837
0.0242258
-0.229754
0.049632
-0.40058
0.079884
-0.576838
0.111399
-0.747433
0.141018
-0.903903
0.166736
-1.04235
0.187887
-1.16379
0.204983
-1.27192
-1.37357
0.218888
0.00709917
-0.0808829
0.0244739
-0.247129
0.0494806
-0.425587
0.0785403
-0.605898
0.107975
-0.776868
0.134784
-0.930712
0.157289
-1.06486
0.175165
-1.18166
0.189159
-1.28592
-1.38467
0.200258
0.00723161
-0.0881145
0.0245692
-0.264467
0.0489923
-0.45001
0.0766492
-0.633555
0.103833
-0.804051
0.127755
-0.954635
0.147076
-1.08418
0.161789
-1.19637
0.172827
-1.29696
-1.3931
0.181251
0.00732231
-0.0954368
0.0245045
-0.281649
0.0481638
-0.473669
0.0742267
-0.659617
0.0990207
-0.828845
0.120014
-0.975628
0.136206
-1.10037
0.147876
-1.20804
0.156096
-1.30517
-1.39896
0.161958
0.00736803
-0.102805
0.0242743
-0.298555
0.0469966
-0.496392
0.071295
-0.683916
0.0935919
-0.851142
0.111643
-0.993679
0.124781
-1.11351
0.133532
-1.21679
0.139062
-1.31071
-1.40236
0.142463
0.007366
-0.110171
0.0238751
-0.315064
0.0454964
-0.518013
0.0678819
-0.706301
0.0876032
-0.870864
0.102726
-1.0088
0.112897
-1.12368
0.11885
-1.22275
0.12181
-1.31367
-1.40339
0.122836
0.00731394
-0.117485
0.0233056
-0.331056
0.0436726
-0.53838
0.0640193
-0.726648
0.0811134
-0.887958
0.0933408
-1.02103
0.100641
-1.13098
0.103915
-1.22602
0.104412
-1.31416
-1.40211
0.103141
0.00721015
-0.124695
0.0225664
-0.346412
0.0415387
-0.557352
0.0597427
-0.744852
0.0741817
-0.902397
0.0835647
-1.03041
0.0880942
-1.13551
0.0888026
-1.22673
0.0869334
-1.31229
-1.39861
0.0834303
0.0070535
-0.131748
0.0216601
-0.361019
0.0391109
-0.574803
0.0550898
-0.760831
0.0668672
-0.914174
0.0734693
-1.03701
0.0753311
-1.13737
0.0735793
-1.22498
0.0694289
-1.30814
-1.39293
0.0637516
0.00684346
-0.138592
0.0205914
-0.374767
0.0364083
-0.59062
0.0501001
-0.774523
0.0592275
-0.923302
0.0631218
-1.04091
0.0624182
-1.13667
0.0583039
-1.22086
0.0519489
-1.30179
-1.38513
0.0441456
0.00658011
-0.145172
0.0193665
-0.387553
0.033452
-0.604705
0.0448137
-0.785884
0.0513182
-0.929806
0.0525847
-1.04218
0.0494158
-1.1335
0.0430294
-1.21448
0.0345371
-1.2933
-1.37524
0.0246443
0.00626413
-0.151436
0.0179932
-0.399282
0.0302648
-0.616977
0.039271
-0.79489
0.0431924
-0.933727
0.0419154
-1.0409
0.0363779
-1.12796
0.027805
-1.2059
0.0172379
-1.28273
-1.36323
0.00523118
0.00589677
-0.157333
0.0164807
-0.409866
0.0268707
-0.627367
0.0335117
-0.801531
0.0349006
-0.935116
0.0311667
-1.03716
0.0233517
-1.12014
0.0126672
-1.19522
0.000190182
-1.27025
-1.34914
-0.013897
0.00547984
-0.162813
0.0148393
-0.419226
0.0232945
-0.635822
0.0275747
-0.805812
0.0264901
-0.934032
0.0203872
-1.03106
0.0103818
-1.11014
-0.00237715
-1.18246
-0.0168828
-1.25575
-1.3332
-0.0328227
0.00501566
-0.167828
0.0130802
-0.42729
0.0195612
-0.642303
0.0214977
-0.807748
0.0180049
-0.930539
0.0096208
-1.02268
-0.0024907
-1.09803
-0.0171817
-1.16777
-0.0336596
-1.23927
-1.31534
-0.0515252
0.00450704
-0.172335
0.0112154
-0.433999
0.0156962
-0.646784
0.0153168
-0.807369
0.00948603
-0.924708
-0.00109983
-1.01209
-0.015221
-1.08391
-0.0318243
-1.15117
-0.0501927
-1.2209
-1.29557
-0.0699655
0.00395719
-0.176293
0.0092574
-0.439299
0.0117244
-0.649251
0.00906642
-0.804711
0.000972547
-0.916614
-0.0117123
-0.999406
-0.0277879
-1.06783
-0.0462463
-1.13271
-0.0664607
-1.20069
-1.27391
-0.0881163
0.00336973
-0.179662
0.00721879
-0.443148
0.00767058
-0.649703
0.00278071
-0.799821
-0.00750154
-0.906332
-0.0222101
-0.984698
-0.0401587
-1.04988
-0.060417
-1.11245
-0.0824391
-1.17866
-1.2504
-0.105953
0.00274865
-0.182411
0.00511409
-0.445513
0.00356058
-0.648149
-0.0035141
-0.792746
-0.0159045
-0.893942
-0.0325549
-0.968047
-0.0523053
-1.03013
-0.0743092
-1.09045
-0.0981028
-1.15487
-1.22505
-0.123451
0.00209844
-0.184509
0.00295959
-0.446374
-0.000571436
-0.644618
-0.00978807
-0.783529
-0.024207
-0.879523
-0.0427189
-0.949536
-0.0642022
-1.00865
-0.0878976
-1.06675
-0.113427
-1.12934
-1.19789
-0.140589
0.0014249
-0.185934
0.000780293
-0.44573
-0.00476224
-0.639076
-0.0160153
-0.772276
-0.032382
-0.863156
-0.0526769
-0.929241
-0.0758259
-0.985499
-0.101158
-1.04142
-0.128385
-1.10211
-1.16893
-0.157344
0.000729092
-0.186663
-0.00144411
-0.443557
-0.00892466
-0.631595
-0.0221698
-0.759031
-0.040405
-0.844921
-0.0624064
-0.907239
-0.0871548
-0.960751
-0.114067
-1.01451
-0.142953
-1.07323
-1.13819
-0.173692
-1.84096e-05
-0.186645
-0.00369329
-0.439882
-0.0130596
-0.622229
-0.0282293
-0.743862
-0.0482537
-0.824896
-0.0718869
-0.883606
-0.0981693
-0.934469
-0.126603
-0.986073
-0.157102
-1.04273
-1.10568
-0.189608
-0.00072711
-0.185918
-0.00593796
-0.434671
-0.0171499
-0.611017
-0.0341729
-0.726839
-0.0559079
-0.803161
-0.0811001
-0.858414
-0.108852
-0.906717
-0.138746
-0.956179
-0.170809
-1.01067
-1.07142
-0.205068
-0.0014607
-0.184457
-0.00817192
-0.42796
-0.0211788
-0.59801
-0.0399818
-0.708036
-0.0633494
-0.779794
-0.0900293
-0.831734
-0.119185
-0.877561
-0.150477
-0.924887
-0.184048
-0.977095
-1.03543
-0.220042
-0.00219888
-0.182258
-0.0103847
-0.419774
-0.0251304
-0.583264
-0.0456383
-0.687528
-0.0705617
-0.75487
-0.0986595
-0.803636
-0.129156
-0.847064
-0.161782
-0.892262
-0.19678
-0.942096
-0.997776
-0.234432
-0.00293625
-0.179322
-0.0125657
-0.410144
-0.02899
-0.56684
-0.0511266
-0.665391
-0.0775298
-0.728467
-0.106977
-0.774189
-0.138753
-0.815289
-0.172644
-0.858371
-0.208955
-0.905785
-0.958475
-0.248257
-0.00366824
-0.175654
-0.014705
-0.399108
-0.0327438
-0.548801
-0.0564322
-0.641703
-0.0842402
-0.700659
-0.114971
-0.743458
-0.147969
-0.782291
-0.183057
-0.823282
-0.220182
-0.868661
-0.919255
-0.259402
-0.00439057
-0.171263
-0.0167929
-0.386705
-0.036379
-0.529215
-0.0615417
-0.61654
-0.0906808
-0.67152
-0.12263
-0.711509
-0.156793
-0.748128
-0.193036
-0.787039
-0.231378
-0.830319
-0.878762
-0.271871
-0.00509916
-0.166164
-0.0188205
-0.372984
-0.0398838
-0.508152
-0.0664431
-0.589981
-0.0968403
-0.641123
-0.129944
-0.678405
-0.165216
-0.712856
-0.20256
-0.749695
-0.242046
-0.790832
-0.836997
-0.283811
-0.00579013
-0.160374
-0.0207793
-0.357995
-0.0432472
-0.485684
-0.0711254
-0.562103
-0.102709
-0.60954
-0.136902
-0.644212
-0.173226
-0.676532
-0.21162
-0.711301
-0.252186
-0.750267
-0.794054
-0.295129
-0.00645981
-0.153914
-0.0226615
-0.341793
-0.0464594
-0.461886
-0.0755787
-0.532983
-0.108277
-0.576842
-0.143498
-0.60899
-0.180817
-0.639213
-0.220208
-0.671911
-0.261802
-0.708672
-0.750013
-0.305843
-0.0071047
-0.146809
-0.0244597
-0.324438
-0.0495111
-0.436835
-0.0797938
-0.502701
-0.113536
-0.5431
-0.149722
-0.572803
-0.18798
-0.600955
-0.228316
-0.631575
-0.270888
-0.666099
-0.704939
-0.315963
-0.00772152
-0.139088
-0.0261672
-0.305992
-0.0523942
-0.410608
-0.0837626
-0.471332
-0.118478
-0.508384
-0.155569
-0.535713
-0.194708
-0.561816
-0.235936
-0.590347
-0.279435
-0.6226
-0.658889
-0.325484
-0.00830719
-0.130781
-0.0277778
-0.286522
-0.0551009
-0.383285
-0.0874776
-0.438955
-0.123098
-0.472764
-0.161029
-0.497782
-0.200993
-0.521852
-0.243059
-0.548281
-0.287431
-0.578228
-0.611923
-0.334398
-0.00885887
-0.121922
-0.0292857
-0.266095
-0.0576245
-0.354946
-0.0909318
-0.405648
-0.127387
-0.436309
-0.166098
-0.459071
-0.206829
-0.481121
-0.249677
-0.505433
-0.294867
-0.533037
-0.564095
-0.342694
-0.00937389
-0.112548
-0.0306857
-0.244783
-0.0599587
-0.325673
-0.0941192
-0.371488
-0.13134
-0.399088
-0.170768
-0.419643
-0.212207
-0.439682
-0.255781
-0.461859
-0.301732
-0.487086
-0.515467
-0.35036
-0.00984983
-0.102698
-0.0319731
-0.22266
-0.0620978
-0.295548
-0.0970341
-0.336551
-0.134952
-0.36117
-0.175034
-0.379561
-0.217121
-0.397594
-0.261362
-0.417619
-0.308013
-0.440435
-0.466099
-0.357381
-0.0102845
-0.0924137
-0.0331437
-0.199801
-0.0640369
-0.264655
-0.0996715
-0.300917
-0.138217
-0.322625
-0.17889
-0.338889
-0.221565
-0.354918
-0.266411
-0.372773
-0.313701
-0.393144
-0.416057
-0.363744
-0.0106759
-0.0817379
-0.0341935
-0.176283
-0.0657715
-0.233077
-0.102027
-0.264661
-0.141131
-0.283521
-0.182331
-0.297689
-0.225532
-0.311717
-0.270921
-0.327384
-0.318785
-0.34528
-0.365407
-0.369435
-0.0110222
-0.0707157
-0.0351194
-0.152186
-0.0672977
-0.200899
-0.104097
-0.227862
-0.14369
-0.243928
-0.185352
-0.256026
-0.229016
-0.268054
-0.274884
-0.281516
-0.323255
-0.29691
-0.31422
-0.374442
-0.0113219
-0.0593938
-0.0359183
-0.127589
-0.0686121
-0.168205
-0.105877
-0.190597
-0.14589
-0.203915
-0.18795
-0.213965
-0.232012
-0.223991
-0.278294
-0.235235
-0.327102
-0.248101
-0.262568
-0.378754
-0.0115737
-0.0478201
-0.0365878
-0.102575
-0.0697118
-0.135081
-0.107365
-0.152944
-0.147728
-0.163553
-0.190121
-0.171572
-0.234516
-0.179596
-0.281144
-0.188607
-0.33032
-0.198926
-0.210527
-0.382362
-0.0117765
-0.0360437
-0.0371259
-0.0772258
-0.0705943
-0.101613
-0.108558
-0.11498
-0.149201
-0.12291
-0.191861
-0.128913
-0.236524
-0.134932
-0.283431
-0.1417
-0.332902
-0.149454
-0.158171
-0.385258
-0.0119293
-0.0241144
-0.0375309
-0.0516242
-0.0712579
-0.0678855
-0.109455
-0.0767829
-0.150308
-0.0820569
-0.193168
-0.0860534
-0.238033
-0.0900668
-0.285149
-0.0945835
-0.334843
-0.0997602
-0.105579
-0.387435
-0.0120316
-0.0120828
-0.0378015
-0.0258542
-0.0717011
-0.0339859
-0.110054
-0.0384303
-0.151047
-0.0410635
-0.19404
-0.0430602
-0.23904
-0.0450671
-0.286297
-0.0473269
-0.33614
-0.0499174
-0.0528294
-0.38889
-0.0120828
6.48776e-11
-0.0379371
1.48004e-10
-0.0719229
2.09203e-10
-0.110353
2.49164e-10
-0.151417
2.79172e-10
-0.194477
2.99501e-10
-0.239544
3.12769e-10
-0.286871
3.18823e-10
-0.336788
3.23359e-10
3.21712e-10
-0.389618
-0.0120828
0.0120828
-0.0379371
0.0258542
-0.0719229
0.0339859
-0.110353
0.0384303
-0.151417
0.0410635
-0.194477
0.0430602
-0.239544
0.0450671
-0.286871
0.0473269
-0.336788
0.0499174
0.0528294
-0.389618
-0.0120316
0.0241144
-0.0378015
0.0516242
-0.0717011
0.0678855
-0.110054
0.0767829
-0.151047
0.0820569
-0.19404
0.0860534
-0.23904
0.0900668
-0.286297
0.0945835
-0.33614
0.0997602
0.105579
-0.38889
-0.0119293
0.0360437
-0.0375309
0.0772258
-0.0712579
0.101613
-0.109455
0.11498
-0.150308
0.12291
-0.193168
0.128913
-0.238033
0.134932
-0.285149
0.1417
-0.334843
0.149454
0.158171
-0.387435
-0.0117765
0.0478201
-0.0371259
0.102575
-0.0705943
0.135081
-0.108558
0.152944
-0.149201
0.163553
-0.191861
0.171572
-0.236524
0.179596
-0.283431
0.188607
-0.332902
0.198926
0.210527
-0.385258
-0.0115737
0.0593938
-0.0365878
0.127589
-0.0697118
0.168205
-0.107365
0.190597
-0.147728
0.203915
-0.190121
0.213965
-0.234516
0.223991
-0.281144
0.235235
-0.33032
0.248101
0.262568
-0.382362
-0.0113219
0.0707157
-0.0359183
0.152186
-0.0686121
0.200899
-0.105877
0.227862
-0.14589
0.243928
-0.18795
0.256026
-0.232012
0.268054
-0.278294
0.281516
-0.327102
0.29691
0.31422
-0.378754
-0.0110222
0.0817379
-0.0351194
0.176283
-0.0672977
0.233077
-0.104097
0.264661
-0.14369
0.283521
-0.185352
0.297689
-0.229016
0.311717
-0.274884
0.327384
-0.323255
0.34528
0.365407
-0.374442
-0.0106759
0.0924137
-0.0341935
0.199801
-0.0657715
0.264655
-0.102027
0.300917
-0.141131
0.322625
-0.182331
0.338889
-0.225532
0.354918
-0.270921
0.372773
-0.318785
0.393144
0.416057
-0.369435
-0.0102845
0.102698
-0.0331437
0.22266
-0.0640369
0.295548
-0.0996715
0.336551
-0.138217
0.36117
-0.17889
0.379561
-0.221565
0.397594
-0.266411
0.417619
-0.313701
0.440435
0.466099
-0.363744
-0.00984983
0.112548
-0.0319731
0.244783
-0.0620978
0.325673
-0.0970341
0.371488
-0.134952
0.399088
-0.175034
0.419643
-0.217121
0.439682
-0.261362
0.461859
-0.308013
0.487086
0.515467
-0.357381
-0.00937389
0.121922
-0.0306857
0.266095
-0.0599587
0.354946
-0.0941192
0.405648
-0.13134
0.436309
-0.170768
0.459071
-0.212207
0.481121
-0.255781
0.505433
-0.301732
0.533037
0.564095
-0.35036
-0.00885887
0.130781
-0.0292857
0.286522
-0.0576245
0.383285
-0.0909318
0.438955
-0.127387
0.472764
-0.166098
0.497782
-0.206829
0.521852
-0.249677
0.548281
-0.294867
0.578228
0.611923
-0.342694
-0.00830719
0.139088
-0.0277778
0.305992
-0.0551009
0.410608
-0.0874776
0.471332
-0.123098
0.508384
-0.161029
0.535713
-0.200993
0.561816
-0.243059
0.590347
-0.287431
0.6226
0.658889
-0.334398
-0.00772152
0.146809
-0.0261672
0.324438
-0.0523942
0.436835
-0.0837626
0.502701
-0.118478
0.5431
-0.155569
0.572803
-0.194708
0.600955
-0.235936
0.631575
-0.279435
0.666099
0.704939
-0.325484
-0.0071047
0.153914
-0.0244597
0.341793
-0.0495111
0.461886
-0.0797938
0.532983
-0.113536
0.576842
-0.149722
0.60899
-0.18798
0.639213
-0.228316
0.671911
-0.270888
0.708672
0.750013
-0.315963
-0.00645981
0.160374
-0.0226615
0.357995
-0.0464594
0.485684
-0.0755787
0.562103
-0.108277
0.60954
-0.143498
0.644212
-0.180817
0.676532
-0.220208
0.711301
-0.261802
0.750267
0.794054
-0.305843
-0.00579013
0.166164
-0.0207793
0.372984
-0.0432472
0.508152
-0.0711254
0.589981
-0.102709
0.641123
-0.136902
0.678405
-0.173226
0.712856
-0.21162
0.749695
-0.252186
0.790832
0.836997
-0.295129
-0.00509916
0.171263
-0.0188205
0.386705
-0.0398838
0.529215
-0.0664431
0.61654
-0.0968403
0.67152
-0.129944
0.711509
-0.165216
0.748128
-0.20256
0.787039
-0.242046
0.830319
0.878762
-0.283811
-0.00439057
0.175654
-0.0167929
0.399108
-0.036379
0.548801
-0.0615417
0.641703
-0.0906808
0.700659
-0.12263
0.743458
-0.156793
0.782291
-0.193036
0.823282
-0.231378
0.868661
0.919255
-0.271871
-0.00366824
0.179322
-0.014705
0.410144
-0.0327438
0.56684
-0.0564322
0.665391
-0.0842402
0.728467
-0.114971
0.774189
-0.147969
0.815289
-0.183057
0.858371
-0.220182
0.905785
0.958475
-0.259402
-0.00293625
0.182258
-0.0125657
0.419774
-0.02899
0.583264
-0.0511266
0.687528
-0.0775298
0.75487
-0.106977
0.803636
-0.138753
0.847064
-0.172644
0.892262
-0.208955
0.942096
0.997776
-0.248257
-0.00219888
0.184457
-0.0103847
0.42796
-0.0251304
0.59801
-0.0456383
0.708036
-0.0705617
0.779794
-0.0986595
0.831734
-0.129156
0.877561
-0.161782
0.924887
-0.19678
0.977095
1.03543
-0.234432
-0.0014607
0.185918
-0.00817192
0.434671
-0.0211788
0.611017
-0.0399818
0.726839
-0.0633494
0.803161
-0.0900293
0.858414
-0.119185
0.906717
-0.150477
0.956179
-0.184048
1.01067
1.07142
-0.220042
-0.00072711
0.186645
-0.00593796
0.439882
-0.0171499
0.622229
-0.0341729
0.743862
-0.0559079
0.824896
-0.0811001
0.883606
-0.108852
0.934469
-0.138746
0.986073
-0.170809
1.04273
1.10568
-0.205068
-1.84096e-05
0.186663
-0.00369329
0.443557
-0.0130596
0.631595
-0.0282293
0.759031
-0.0482537
0.844921
-0.0718869
0.907239
-0.0981693
0.960751
-0.126603
1.01451
-0.157102
1.07323
1.13819
-0.189608
0.000729092
0.185934
-0.00144411
0.44573
-0.00892466
0.639076
-0.0221698
0.772276
-0.040405
0.863156
-0.0624064
0.929241
-0.0871548
0.985499
-0.114067
1.04142
-0.142953
1.10211
1.16893
-0.173692
0.0014249
0.184509
0.000780293
0.446374
-0.00476224
0.644618
-0.0160153
0.783529
-0.032382
0.879523
-0.0526769
0.949536
-0.0758259
1.00865
-0.101158
1.06675
-0.128385
1.12934
1.19789
-0.157344
0.00209844
0.182411
0.00295959
0.445513
-0.000571436
0.648149
-0.00978807
0.792746
-0.024207
0.893942
-0.0427189
0.968047
-0.0642022
1.03013
-0.0878976
1.09045
-0.113427
1.15487
1.22505
-0.140589
0.00274865
0.179662
0.00511409
0.443148
0.00356058
0.649703
-0.0035141
0.799821
-0.0159045
0.906332
-0.0325549
0.984698
-0.0523053
1.04988
-0.0743092
1.11245
-0.0981028
1.17866
1.2504
-0.123451
0.00336973
0.176293
0.00721879
0.439299
0.00767058
0.649251
0.00278071
0.804711
-0.00750154
0.916614
-0.0222101
0.999406
-0.0401587
1.06783
-0.060417
1.13271
-0.0824391
1.20069
1.27391
-0.105953
0.00395719
0.172335
0.0092574
0.433999
0.0117244
0.646784
0.00906642
0.807369
0.000972547
0.924708
-0.0117123
1.01209
-0.0277879
1.08391
-0.0462463
1.15117
-0.0664607
1.2209
1.29557
-0.0881163
0.00450704
0.167828
0.0112154
0.42729
0.0156962
0.642303
0.0153168
0.807748
0.00948603
0.930539
-0.00109983
1.02268
-0.015221
1.09803
-0.0318243
1.16777
-0.0501927
1.23927
1.31534
-0.0699655
0.00501566
0.162813
0.0130802
0.419226
0.0195612
0.635822
0.0214977
0.805812
0.0180049
0.934032
0.0096208
1.03106
-0.0024907
1.11014
-0.0171817
1.18246
-0.0336596
1.25575
1.3332
-0.0515252
0.00547984
0.157333
0.0148393
0.409866
0.0232945
0.627367
0.0275747
0.801531
0.0264901
0.935116
0.0203872
1.03716
0.0103818
1.12014
-0.00237715
1.19522
-0.0168828
1.27025
1.34914
-0.0328227
0.00589677
0.151436
0.0164807
0.399282
0.0268707
0.616977
0.0335117
0.79489
0.0349006
0.933727
0.0311667
1.0409
0.0233517
1.12796
0.0126672
1.2059
0.000190182
1.28273
1.36323
-0.013897
0.00626413
0.145172
0.0179932
0.387553
0.0302648
0.604705
0.039271
0.785884
0.0431924
0.929806
0.0419154
1.04218
0.0363779
1.1335
0.027805
1.21448
0.0172379
1.2933
1.37524
0.00523118
0.00658011
0.138592
0.0193665
0.374767
0.033452
0.59062
0.0448137
0.774523
0.0513182
0.923302
0.0525847
1.04091
0.0494158
1.13667
0.0430294
1.22086
0.0345371
1.30179
1.38513
0.0246443
0.00684346
0.131748
0.0205914
0.361019
0.0364083
0.574803
0.0501001
0.760831
0.0592275
0.914174
0.0631218
1.03701
0.0624182
1.13737
0.0583039
1.22498
0.0519489
1.30814
1.39293
0.0441456
0.0070535
0.124695
0.0216601
0.346412
0.0391109
0.557352
0.0550898
0.744852
0.0668672
0.902397
0.0734693
1.03041
0.0753311
1.13551
0.0735793
1.22673
0.0694289
1.31229
1.39861
0.0637516
0.00721015
0.117485
0.0225664
0.331056
0.0415387
0.53838
0.0597427
0.726648
0.0741817
0.887958
0.0835647
1.02103
0.0880942
1.13098
0.0888026
1.22602
0.0869334
1.31416
1.40211
0.0834303
0.00731394
0.110171
0.0233056
0.315064
0.0436726
0.518013
0.0640193
0.706301
0.0811134
0.870864
0.0933408
1.0088
0.100641
1.12368
0.103915
1.22275
0.104412
1.31367
1.40339
0.103141
0.007366
0.102805
0.0238751
0.298555
0.0454964
0.496392
0.0678819
0.683916
0.0876032
0.851142
0.102726
0.993679
0.112897
1.11351
0.11885
1.21679
0.12181
1.31071
1.40236
0.122836
0.00736803
0.0954368
0.0242743
0.281649
0.0469966
0.473669
0.071295
0.659617
0.0935919
0.828845
0.111643
0.975628
0.124781
1.10037
0.133532
1.20804
0.139062
1.30517
1.39896
0.142463
0.00732231
0.0881145
0.0245045
0.264467
0.0481638
0.45001
0.0742267
0.633555
0.0990207
0.804051
0.120014
0.954635
0.136206
1.08418
0.147876
1.19637
0.156096
1.29696
1.3931
0.161958
0.00723161
0.0808829
0.0245692
0.247129
0.0489923
0.425587
0.0766492
0.605898
0.103833
0.776868
0.127755
0.930712
0.147076
1.06486
0.161789
1.18166
0.172827
1.28592
1.38467
0.181251
0.00709917
0.0737837
0.0244739
0.229754
0.0494806
0.40058
0.0785403
0.576838
0.107975
0.747433
0.134784
0.903903
0.157289
1.04235
0.175165
1.16379
0.189159
1.27192
1.37357
0.200258
0.0069286
0.0668551
0.0242258
0.212457
0.049632
0.375174
0.079884
0.546586
0.111399
0.715918
0.141018
0.874285
0.166736
1.01663
0.187887
1.14263
0.204983
1.25483
1.35967
0.218888
0.00672382
0.0601313
0.0238343
0.195347
0.049454
0.349554
0.0806716
0.515368
0.114064
0.682525
0.146376
0.841973
0.175306
0.987702
0.199828
1.11811
0.220176
1.23448
1.34282
0.23703
0.00648899
0.0536423
0.0233099
0.178526
0.048959
0.323905
0.0809019
0.483426
0.115938
0.647489
0.150784
0.807126
0.182886
0.9556
0.210854
1.09015
0.234597
1.21074
1.32285
0.254562
0.00622838
0.047414
0.0226647
0.162089
0.0481632
0.298407
0.0805821
0.451007
0.116997
0.611074
0.154176
0.769948
0.189362
0.920414
0.220819
1.05869
0.248093
1.18346
1.2996
0.271345
0.00594626
0.0414677
0.0219116
0.146124
0.0470868
0.273232
0.0797274
0.418366
0.117233
0.573569
0.156495
0.730685
0.194626
0.882283
0.229574
1.02374
0.260493
1.15254
1.27287
0.287222
0.00564687
0.0358208
0.0210642
0.130707
0.0457529
0.248543
0.0783613
0.385758
0.116647
0.535284
0.1577
0.689632
0.19858
0.841403
0.236971
0.98535
0.271615
1.1179
1.24246
0.302024
0.00533421
0.0304866
0.020136
0.115905
0.0441875
0.224491
0.0765144
0.353431
0.115256
0.496542
0.157767
0.64712
0.201138
0.798032
0.242862
0.943626
0.281263
1.0795
1.20815
0.315571
0.00501204
0.0254746
0.0191408
0.101776
0.0424177
0.201214
0.0742236
0.321625
0.113088
0.457678
0.156689
0.60352
0.202231
0.752491
0.24711
0.898747
0.289239
1.03737
1.16971
0.327683
0.00468375
0.0207908
0.0180915
0.0883684
0.0404718
0.178834
0.071531
0.290566
0.110187
0.419021
0.15448
0.559227
0.201814
0.705157
0.249593
0.850968
0.295342
0.991618
1.12687
0.338186
0.00435227
0.0164385
0.0170003
0.0757204
0.0383776
0.157457
0.0684822
0.260461
0.106605
0.380898
0.151175
0.514657
0.199869
0.656464
0.250209
0.800628
0.299377
0.94245
1.0793
0.346939
0.00402007
0.0124185
0.0158783
0.0638621
0.0361623
0.137173
0.0651248
0.231499
0.102405
0.343618
0.146828
0.470234
0.196403
0.606889
0.248881
0.748151
0.301168
0.890163
1.02662
0.353854
0.00368908
0.0087294
0.0147352
0.052816
0.0338513
0.118057
0.0615066
0.203843
0.0976549
0.30747
0.141511
0.426378
0.191458
0.556942
0.245557
0.694051
0.300569
0.83515
0.968248
0.35894
0.00336072
0.00536868
0.0135794
0.0425973
0.0314679
0.100168
0.0576746
0.177637
0.0924289
0.272715
0.135311
0.383495
0.185099
0.507154
0.240208
0.638943
0.297492
0.777866
0.903426
0.362313
0.00303595
0.00233273
0.0124177
0.0332156
0.0290329
0.083553
0.0536735
0.152996
0.0868022
0.239587
0.12833
0.341967
0.177425
0.458059
0.232822
0.583546
0.291646
0.719042
0.831159
0.363913
0.00271527
-0.000382539
0.0112556
0.0246753
0.0265646
0.0682439
0.0495448
0.130016
0.0808499
0.208282
0.120678
0.30214
0.168566
0.410171
0.223502
0.52861
0.282878
0.659666
0.770348
0.343689
0.00239887
-0.00278141
0.0100976
0.0169765
0.0240789
0.0542626
0.0453268
0.108768
0.0746451
0.178963
0.112473
0.264312
0.158687
0.363957
0.212467
0.47483
0.272239
0.599893
0.709323
0.333265
0.00208671
-0.00486812
0.00894727
0.0101159
0.0215896
0.0416203
0.0410542
0.0893035
0.0682572
0.15176
0.103834
0.228735
0.14797
0.319822
0.20008
0.422719
0.259582
0.540391
0.647595
0.32131
0.00177864
-0.00664675
0.00780749
0.00408707
0.0191089
0.0303188
0.0367583
0.0716541
0.0617508
0.126768
0.0948755
0.19561
0.136584
0.278113
0.186564
0.372739
0.244993
0.481962
0.585581
0.307007
0.00147457
-0.00812132
0.00668112
-0.00111948
0.016648
0.020352
0.0324681
0.055834
0.055186
0.10405
0.0857049
0.165091
0.124693
0.239125
0.17212
0.325311
0.228717
0.425365
0.52401
0.290289
0.00117457
-0.00929589
0.00557118
-0.00551608
0.0142179
0.0117053
0.0282109
0.041841
0.0486191
0.0836417
0.076424
0.137286
0.112458
0.203091
0.156964
0.280805
0.211054
0.371276
0.463721
0.271343
0.000879048
-0.0101749
0.00448127
-0.0091183
0.01183
0.0043565
0.0240135
0.0296576
0.0421042
0.065551
0.0671304
0.11226
0.10004
0.170182
0.141322
0.239523
0.192324
0.320274
0.405565
0.250479
0.0005888
-0.0107637
0.00341585
-0.0119454
0.00949692
-0.00172457
0.0199035
0.019251
0.0356947
0.0497599
0.0579185
0.0900361
0.087595
0.140505
0.125421
0.201697
0.172854
0.272841
0.350319
0.228101
0.00030525
-0.011069
0.00238051
-0.0140206
0.00723266
-0.00657673
0.0159099
0.0105737
0.0294444
0.0362254
0.0488815
0.070599
0.075276
0.114111
0.109487
0.167485
0.152983
0.229346
0.298641
0.20466