/*--------------------------------*- C++ -*----------------------------------*\
  =========                 |
  \\      /  F ield         | OpenFOAM: The Open Source CFD Toolbox
   \\    /   O peration     | Website:  https://openfoam.org
    \\  /    A nd           | Version:  9
     \\/     M anipulation  |
\*---------------------------------------------------------------------------*/
FoamFile
{
    format      ascii;
    class       volVectorField;
    location    "4.8";
    object      U;
}
// * * * * * * * * * * * * * * * * * * * * * * * * * * * * * * * * * * * * * //

dimensions      [0 1 -1 0 0 0 0];

internalField   nonuniform List<vector> 
8500
(
(-0.00412719 0.00142767 0)
(-0.0157061 0.00213737 -7.45931e-23)
(-0.0298295 0.00193878 -4.13055e-24)
(-0.0392076 0.00124407 7.67808e-37)
(-0.0437003 0.000301765 -1.0795e-23)
(-0.042147 -0.000777817 9.0539e-24)
(-0.0349379 -0.00193112 -5.69734e-23)
(-0.0207269 -0.00314702 -8.47333e-23)
(-0.00288248 -0.00416962 -7.23621e-23)
(0.0230335 -0.00529269 -3.63947e-24)
(-0.00428601 0.00424711 2.08923e-22)
(-0.0156922 0.00634828 6.97067e-23)
(-0.0292827 0.00574675 2.79846e-22)
(-0.037949 0.00366643 0)
(-0.041572 0.000850104 0)
(-0.0390204 -0.00237329 1.73878e-23)
(-0.0307156 -0.0058144 4.23711e-23)
(-0.0152374 -0.00942472 9.02319e-23)
(0.00380684 -0.0125028 5.47653e-23)
(0.0315705 -0.0158105 1.45658e-23)
(-0.00459511 0.00695991 -1.85647e-22)
(-0.0156508 0.0103694 0)
(-0.028177 0.0093477 -2.63534e-22)
(-0.0354246 0.0058932 0)
(-0.0373159 0.00123455 -4.33313e-23)
(-0.0327789 -0.00408707 3.63425e-23)
(-0.0222932 -0.00976566 0)
(-0.00431611 -0.0156622 0)
(0.0170968 -0.020808 0)
(0.048515 -0.0261188 0)
(-0.00503762 0.00949838 3.77109e-22)
(-0.0155548 0.0140795 -2.82306e-22)
(-0.0264885 0.0126094 -6.62219e-23)
(-0.0316195 0.00779973 -4.10439e-22)
(-0.0309325 0.00135152 -3.99985e-22)
(-0.0234468 -0.00599305 3.49747e-23)
(-0.00971535 -0.0138394 -2.93717e-23)
(0.0119353 -0.0218641 3.19102e-22)
(0.0368167 -0.0290276 2.64645e-24)
(0.073607 -0.0360648 2.77295e-22)
(-0.00558891 0.0117998 -3.77109e-22)
(-0.0153638 0.0173654 -3.6714e-22)
(-0.0241811 0.0154081 9.96463e-23)
(-0.0265102 0.00926999 5.45877e-22)
(-0.0224205 0.00110598 -4.6975e-23)
(-0.0110614 -0.00815373 5.754e-22)
(0.00694062 -0.0180499 0)
(0.0333902 -0.0280477 -3.63398e-22)
(0.0627373 -0.0371077 -6.94236e-23)
(0.106455 -0.045493 -3.82254e-22)
(-0.00621725 0.0138081 9.61971e-23)
(-0.0150253 0.0201246 6.08702e-22)
(-0.0212064 0.0176318 -4.73013e-22)
(-0.020064 0.0101998 1.39389e-24)
(-0.0117738 0.00041442 -4.03339e-22)
(0.004344 -0.0106213 1.47409e-22)
(0.0275688 -0.0223898 -5.92921e-23)
(0.0598663 -0.0341896 4.56027e-22)
(0.0945825 -0.045012 -7.53412e-23)
(0.146563 -0.0542452 2.20024e-22)
(-0.00688468 0.0154752 4.86587e-23)
(-0.0144748 0.0222679 0)
(-0.0175036 0.0191836 -4.81356e-24)
(-0.0122379 0.0105003 0)
(0.00101861 -0.000790701 7.17769e-22)
(0.0227352 -0.0134375 -5.78558e-22)
(0.0520603 -0.0268683 0)
(0.0911446 -0.0402251 1.83754e-24)
(0.132025 -0.0526819 0)
(0.193341 -0.0621575 0)
(-0.00754807 0.0167622 -7.98155e-22)
(-0.0136372 0.0237213 -8.24817e-23)
(-0.013 0.019984 6.13307e-22)
(-0.00297729 0.0101015 1.10051e-22)
(0.0159752 -0.00255764 -7.24553e-22)
(0.0440769 -0.0166217 -4.39953e-22)
(0.080303 -0.0314761 -6.00195e-23)
(0.126984 -0.0460791 4.62921e-22)
(0.174697 -0.0600325 -7.62861e-23)
(0.246121 -0.0690593 5.63997e-23)
(-0.00816039 0.0176405 8.98589e-22)
(-0.0124275 0.0244275 -6.78151e-22)
(-0.00761058 0.0199735 -2.06228e-22)
(0.00778433 0.00895494 1.14214e-22)
(0.0331243 -0.0049134 7.27803e-22)
(0.0683366 -0.020169 6.57969e-22)
(0.11218 -0.0361747 -6.04304e-23)
(0.167127 -0.0516606 9.53532e-23)
(0.222207 -0.0669521 -1.46903e-22)
(0.304161 -0.0747759 5.90777e-23)
(-0.00867155 0.0180908 8.28775e-22)
(-0.0107529 0.024349 6.77234e-22)
(-0.0012385 0.0191145 -9.86262e-22)
(0.0201255 0.00703607 -1.15381e-22)
(0.052505 -0.00785946 0)
(0.0954874 -0.0240492 0)
(0.147574 -0.0408976 0)
(0.211296 -0.0568565 -1.49393e-21)
(0.274136 -0.0732968 -6.09651e-22)
(0.366645 -0.0791324 4.30808e-22)
(-0.00902667 0.018099 -1.67461e-21)
(-0.0085155 0.0234713 0)
(0.00622229 0.0173938 2.26197e-21)
(0.0341364 0.00434745 9.22812e-22)
(0.0741659 -0.0113686 9.45835e-23)
(0.125507 -0.0282038 0)
(0.186361 -0.0455488 -9.60546e-22)
(0.259194 -0.0615305 7.49098e-22)
(0.330043 -0.0788872 6.09645e-22)
(0.432688 -0.0819563 -4.30821e-22)
(-0.00916972 0.0176674 9.51486e-22)
(-0.00560727 0.0217945 -8.86948e-23)
(0.0148852 0.0148237 -1.13783e-21)
(0.0499164 0.000920468 -1.03678e-21)
(0.0981637 -0.0153827 0)
(0.158377 -0.032544 1.20754e-21)
(0.228411 -0.0500022 -6.87816e-24)
(0.310501 -0.0655262 6.64828e-22)
(0.389457 -0.0835081 6.97089e-22)
(0.501344 -0.0830839 -4.27551e-22)
(-0.0090489 0.0168103 -1.53526e-24)
(-0.00191742 0.0193349 1.51848e-21)
(0.0248723 0.0114419 -1.46922e-22)
(0.0675716 -0.00318349 8.27024e-22)
(0.124559 -0.0198114 4.7791e-22)
(0.194072 -0.0369493 3.13001e-22)
(0.273581 -0.0541022 9.60345e-22)
(0.364864 -0.0686729 -8.56633e-22)
(0.45186 -0.0869133 -4.77027e-22)
(0.571599 -0.082372 3.08142e-22)
(-0.00860975 0.0155444 0)
(0.00266458 0.0161337 -1.25489e-21)
(0.0363091 0.00731287 -1.49048e-22)
(0.0872114 -0.00787242 1.02459e-23)
(0.153409 -0.0245317 7.59375e-22)
(0.232559 -0.0412681 -1.06777e-21)
(0.321697 -0.0576659 9.7367e-22)
(0.421889 -0.0707936 -9.9368e-23)
(0.516683 -0.0888355 0)
(0.642383 -0.0797133 0)
(-0.00779818 0.0138944 1.14083e-22)
(0.0082498 0.0122506 -1.47871e-21)
(0.0493214 0.00252658 0)
(0.108943 -0.013024 -1.06827e-22)
(0.184765 -0.0293891 9.83732e-23)
(0.273781 -0.0453203 0)
(0.37255 -0.0604887 -9.80899e-22)
(0.481135 -0.0717152 -7.7141e-22)
(0.58329 -0.089002 1.42252e-22)
(0.712581 -0.0750645 -1.19914e-22)
(-0.0065616 0.0118928 -1.13996e-22)
(0.0149477 0.0077622 1.57441e-21)
(0.0640313 -0.0028021 0)
(0.132865 -0.0184869 -1.08162e-21)
(0.218656 -0.0341996 9.94015e-23)
(0.317653 -0.0489012 -1.24671e-21)
(0.425877 -0.062352 -1.19658e-22)
(0.542107 -0.0712793 8.72023e-22)
(0.650975 -0.0871531 0)
(0.781061 -0.0684759 8.51097e-22)
(-0.00484915 0.00957823 -1.81548e-21)
(0.0228637 0.00276146 -9.76106e-23)
(0.0805533 -0.00853499 -1.49946e-22)
(0.159061 -0.024083 1.25478e-22)
(0.255087 -0.0387543 -1.57733e-21)
(0.364044 -0.0517882 1.2467e-21)
(0.481351 -0.0630344 9.99578e-22)
(0.604256 -0.0693536 7.80369e-22)
(0.718953 -0.0830522 1.25639e-21)
(0.846672 -0.0600728 -7.32041e-22)
(-0.00261198 0.00699469 1.93175e-21)
(0.0320965 -0.00264337 0)
(0.0989892 -0.0145126 1.4044e-21)
(0.187591 -0.0296112 -1.27138e-22)
(0.294022 -0.0428245 3.17013e-21)
(0.412768 -0.053749 0)
(0.538575 -0.0623267 -9.99571e-22)
(0.666995 -0.0658442 4.44517e-24)
(0.786375 -0.0764676 -1.39885e-21)
(0.9082 -0.0499689 1.20113e-22)
(0.000196238 0.00419101 0)
(0.0427358 -0.00833035 1.57894e-21)
(0.119423 -0.020557 -1.25247e-21)
(0.218487 -0.0348512 0)
(0.33538 -0.0461694 -1.5928e-21)
(0.463577 -0.0545518 0)
(0.597077 -0.0600515 1.01054e-21)
(0.729724 -0.0607024 -7.84803e-22)
(0.852399 -0.0671668 -1.24595e-21)
(0.964665 -0.038576 -8.66555e-22)
(0.00361887 0.00122033 -2.46818e-22)
(0.05486 -0.0141654 -1.37173e-21)
(0.141917 -0.0264745 0)
(0.251741 -0.0395691 0)
(0.379023 -0.0485433 0)
(0.516152 -0.0539757 -1.55783e-22)
(0.65631 -0.0560787 -1.01898e-21)
(0.791836 -0.0539074 -1.02907e-22)
(0.916256 -0.055137 1.24594e-21)
(1.01652 -0.0283997 9.85426e-22)
(0.00769565 -0.00186019 0)
(0.0685329 -0.0200038 -1.63232e-21)
(0.166505 -0.0320597 0)
(0.287301 -0.0435237 0)
(0.424754 -0.0497047 0)
(0.570101 -0.0518215 1.56754e-22)
(0.715657 -0.0503268 -1.27434e-21)
(0.852629 -0.0454403 8.81228e-23)
(0.976901 -0.0411983 9.2373e-22)
(1.06758 -0.0238732 9.55511e-22)
(0.012462 -0.00498965 0)
(0.0838017 -0.0256924 1.63232e-21)
(0.19319 -0.0370991 -1.32871e-21)
(0.325069 -0.0464722 0)
(0.472312 -0.049425 -1.65639e-21)
(0.624966 -0.0479189 0)
(0.774465 -0.0427487 1.01977e-21)
(0.911277 -0.0353202 -7.96854e-22)
(1.03233 -0.0271097 -1.23234e-21)
(1.11742 -0.0202992 -9.48792e-22)
(0.0179482 -0.00810359 2.20577e-21)
(0.100694 -0.0310711 0)
(0.221938 -0.0413758 1.16618e-21)
(0.364892 -0.0481784 1.36005e-22)
(0.521373 -0.0474969 3.32838e-21)
(0.680235 -0.0421363 0)
(0.832075 -0.0333331 -1.02591e-21)
(0.967037 -0.0235619 -1.59332e-21)
(1.08236 -0.0126448 -1.06766e-21)
(1.1613 -0.0112076 -1.44623e-23)
(0.0241783 -0.0111343 -2.33909e-21)
(0.119217 -0.0359749 1.1193e-22)
(0.252679 -0.0446734 1.64715e-22)
(0.406564 -0.0484187 -1.37835e-22)
(0.57156 -0.0437437 -1.67199e-21)
(0.735362 -0.0343884 1.32087e-21)
(0.88786 -0.0221132 1.02591e-21)
(1.01929 -0.0102537 7.96462e-22)
(1.12709 0.00233856 1.21517e-21)
(1.19865 0.00129293 -1.0524e-21)
(0.0311694 -0.0140108 1.35795e-22)
(0.139353 -0.0402365 1.62705e-21)
(0.285302 -0.0467814 0)
(0.449831 -0.0469896 -9.52304e-22)
(0.622446 -0.0380259 -1.09532e-22)
(0.789784 -0.0246421 -1.32086e-21)
(0.941237 -0.00917272 1.23458e-22)
(1.06755 0.00442579 6.8681e-22)
(1.16658 0.0177783 0)
(1.22995 0.0155195 9.44526e-22)
(0.03893 -0.0166596 -1.44973e-22)
(0.161057 -0.0436882 -1.74105e-21)
(0.319653 -0.0474994 0)
(0.494386 -0.0437138 1.20233e-22)
(0.673568 -0.0302474 -1.10602e-22)
(0.842938 -0.0129175 0)
(0.991685 0.00535837 -1.02557e-21)
(1.11147 0.0202493 -7.90626e-22)
(1.20091 0.0335658 -1.42771e-22)
(1.25562 0.0305875 -1.20363e-22)
(0.0474595 -0.019005 0)
(0.184261 -0.0461649 -2.01083e-21)
(0.355539 -0.0466419 1.81844e-22)
(0.539882 -0.0384457 -1.11374e-23)
(0.72444 -0.0203579 -8.62664e-22)
(0.894286 0.000715066 -1.49367e-21)
(1.03876 0.0213125 1.15988e-21)
(1.15084 0.036972 0)
(1.23025 0.0495696 0)
(1.27614 0.0459427 0)
(0.0567467 -0.0209698 7.46097e-24)
(0.208866 -0.0475066 1.6929e-21)
(0.39273 -0.0440428 1.84312e-22)
(0.585935 -0.0310756 1.24029e-21)
(0.774566 -0.00835453 7.50165e-22)
(0.943326 0.0161403 -1.59964e-22)
(1.08212 0.038495 1.02887e-21)
(1.18555 0.05435 -6.66361e-22)
(1.25479 0.0656458 -7.07961e-22)
(1.29202 0.0612194 5.51254e-22)
(0.0667691 -0.022476 1.08663e-21)
(0.234745 -0.0475616 1.21744e-22)
(0.430958 -0.0395597 -1.45917e-21)
(0.632135 -0.021533 -1.12522e-21)
(0.823455 0.00571992 0)
(0.989612 0.0332056 1.33398e-21)
(1.12149 0.0566948 -7.97108e-24)
(1.21562 0.072153 8.58581e-22)
(1.27481 0.0816542 4.94511e-22)
(1.30379 0.0761856 -4.35169e-22)
(0.0774916 -0.0234464 -2.48091e-21)
(0.261744 -0.0461891 0)
(0.469924 -0.0330769 2.93312e-21)
(0.678055 -0.00978793 9.89271e-22)
(0.870639 0.0217797 1.13881e-22)
(1.03276 0.0517294 0)
(1.15671 0.0756945 -1.00835e-21)
(1.24116 0.0901721 7.44531e-22)
(1.29062 0.0974689 5.46581e-22)
(1.31194 0.0907011 -4.10175e-22)
(0.0888669 -0.0238052 1.24926e-21)
(0.289683 -0.0432629 9.40999e-22)
(0.509301 -0.0245094 -1.6518e-21)
(0.723263 0.00414836 1.48827e-22)
(0.915677 0.0397011 0)
(1.07247 0.0715097 0)
(1.1877 0.0952794 0)
(1.26232 0.108223 -1.47408e-21)
(1.30258 0.112984 -5.46584e-22)
(1.31695 0.104689 4.10161e-22)
(0.100834 -0.0234801 1.1281e-21)
(0.318354 -0.0386739 -9.29754e-22)
(0.548744 -0.0138046 9.62209e-23)
(0.767327 0.0202246 0)
(0.958175 0.0593278 8.70108e-22)
(1.1085 0.0923327 5.7533e-22)
(1.21446 0.115244 6.52228e-23)
(1.27935 0.12615 -6.74269e-23)
(1.31104 0.128116 1.33007e-22)
(1.31923 0.118112 -5.21895e-23)
(0.113319 -0.0224035 -1.27856e-21)
(0.347529 -0.0323335 1.1588e-22)
(0.587894 -0.000944264 7.45309e-22)
(0.809835 0.0383515 -2.11814e-22)
(0.997786 0.0804773 -6.52647e-22)
(1.14069 0.11398 -8.16e-22)
(1.23706 0.135395 6.43297e-23)
(1.2925 0.14382 3.65802e-22)
(1.31635 0.1428 0)
(1.31916 0.130962 -4.24964e-23)
(0.126235 -0.0205141 -8.09006e-23)
(0.37696 -0.0241759 0)
(0.626383 0.0140546 2.13831e-24)
(0.850391 0.0584049 0)
(1.03422 0.102947 8.58859e-22)
(1.16894 0.136233 -6.3521e-22)
(1.25561 0.155558 0)
(1.30205 0.161125 1.05583e-23)
(1.31885 0.156989 0)
(1.31707 0.143242 0)
(0.139482 -0.0177589 -1.58083e-22)
(0.40638 -0.0141607 1.02763e-21)
(0.663845 0.0311399 -8.44498e-22)
(0.888635 0.0802294 1.43018e-22)
(1.06724 0.126521 -3.90227e-22)
(1.19322 0.158881 -7.24467e-23)
(1.27028 0.175576 0)
(1.30829 0.177977 2.59428e-22)
(1.31885 0.170652 6.46437e-23)
(1.31323 0.154966 1.66438e-22)
(0.152951 -0.0140945 -6.51918e-22)
(0.435513 -0.00227492 -4.23076e-22)
(0.69992 0.0502248 -1.38577e-22)
(0.924239 0.103643 5.71566e-22)
(1.09666 0.150974 4.9936e-23)
(1.21355 0.181721 6.2319e-22)
(1.28126 0.195307 0)
(1.3115 0.194304 -3.11957e-22)
(1.31664 0.183766 5.25449e-23)
(1.30789 0.166147 -3.68098e-22)
(0.166519 -0.00948897 -6.51918e-22)
(0.464076 0.011466 4.23394e-22)
(0.734263 0.0711899 -4.16428e-24)
(0.956917 0.12844 -6.67125e-22)
(1.12237 0.176077 -3.62875e-22)
(1.23 0.204561 -3.49593e-23)
(1.28876 0.214628 2.9359e-23)
(1.31196 0.21005 3.47201e-22)
(1.31248 0.196314 -4.76893e-24)
(1.30125 0.176799 1.19062e-22)
(0.180059 -0.003923 -3.23517e-22)
(0.49178 0.0270168 0)
(0.766549 0.0938848 -3.7101e-22)
(0.986426 0.1544 0)
(1.14429 0.201601 -4.5791e-22)
(1.24267 0.227223 3.97073e-23)
(1.293 0.233432 0)
(1.30993 0.225166 0)
(1.3066 0.208285 0)
(1.29347 0.186931 0)
(0.193433 0.00260868 2.84366e-22)
(0.518342 0.044303 1.34282e-22)
(0.796475 0.118131 3.71011e-22)
(1.01257 0.181284 0)
(1.16239 0.227322 0)
(1.2517 0.249541 -1.62556e-23)
(1.29421 0.251622 6.19364e-23)
(1.30565 0.239614 6.69454e-23)
(1.2992 0.219668 5.72076e-23)
(1.2847 0.196548 -9.24049e-24)
(0.206502 0.0100965 -4.98165e-24)
(0.543484 0.0632202 -1.25419e-22)
(0.823769 0.143726 5.92919e-24)
(1.03519 0.208849 7.7767e-24)
(1.17668 0.253019 -1.20633e-23)
(1.25723 0.271361 4.65386e-24)
(1.29262 0.269114 -5.36684e-23)
(1.29934 0.253359 -6.24192e-23)
(1.29045 0.230451 -4.36999e-23)
(1.27506 0.205648 1.31161e-24)
(0.219121 0.0185151 0)
(0.56694 0.0836361 -1.21782e-22)
(0.848194 0.170444 -4.62665e-24)
(1.05417 0.236843 8.74995e-24)
(1.18723 0.278482 1.67545e-37)
(1.25945 0.292542 -1.17441e-37)
(1.28843 0.285833 -4.80735e-23)
(1.29121 0.26637 -5.40553e-23)
(1.28051 0.240622 -3.94143e-23)
(1.26464 0.214226 0)
(0.231149 0.0278233 3.41474e-22)
(0.58846 0.105392 9.95709e-23)
(0.869544 0.198044 3.63279e-22)
(1.06946 0.265012 -1.7022e-23)
(1.19411 0.303508 0)
(1.25853 0.312956 1.39217e-23)
(1.28187 0.301712 3.13247e-23)
(1.28143 0.278618 5.83088e-23)
(1.26949 0.250164 3.09631e-23)
(1.25352 0.222272 7.12023e-24)
(0.242443 0.0379638 -3.04079e-22)
(0.607814 0.128303 0)
(0.887654 0.226268 -3.42939e-22)
(1.08102 0.293104 0)
(1.19743 0.327902 -3.84866e-23)
(1.25466 0.332482 3.22794e-23)
(1.27312 0.316689 0)
(1.27016 0.290074 0)
(1.25752 0.259058 0)
(1.24178 0.229771 0)
(0.252869 0.0488633 5.7206e-22)
(0.624797 0.152164 -3.71771e-22)
(0.902394 0.254851 -8.08183e-23)
(1.08886 0.320868 -3.6552e-22)
(1.19732 0.351484 -3.53132e-22)
(1.24803 0.351013 2.40849e-23)
(1.26238 0.33071 -2.02267e-23)
(1.25757 0.300711 1.53587e-22)
(1.24469 0.267281 4.15576e-24)
(1.22947 0.236697 8.83194e-23)
(0.262296 0.0604335 -5.72061e-22)
(0.63923 0.176751 -4.40057e-22)
(0.913675 0.283518 1.13499e-22)
(1.09303 0.348063 4.39719e-22)
(1.19393 0.374082 -2.04392e-23)
(1.23884 0.368445 3.76622e-22)
(1.24983 0.34372 0)
(1.24377 0.310499 -1.74182e-22)
(1.23111 0.274817 -2.24404e-23)
(1.21659 0.243015 -1.0564e-22)
(0.270607 0.0725718 1.30663e-22)
(0.650962 0.201821 7.60509e-22)
(0.921445 0.311993 -5.08473e-22)
(1.0936 0.37445 -1.03752e-22)
(1.18743 0.395534 -2.63921e-22)
(1.22727 0.384688 5.44611e-23)
(1.23563 0.35567 -3.33251e-23)
(1.22889 0.319402 1.61302e-22)
(1.21688 0.281663 -2.60501e-23)
(1.20319 0.24871 5.57417e-23)
(0.277693 0.0851623 6.38028e-23)
(0.659877 0.227121 0)
(0.925688 0.339999 3.59711e-23)
(1.09067 0.399803 0)
(1.17799 0.415691 5.28662e-22)
(1.21351 0.399656 -3.39661e-22)
(1.21994 0.366513 0)
(1.21303 0.327372 -2.30566e-23)
(1.20205 0.287788 0)
(1.18941 0.253751 0)
(0.283459 0.0980778 -9.27422e-22)
(0.665886 0.252388 -8.39104e-23)
(0.926426 0.367262 6.10919e-22)
(1.08437 0.423906 7.84535e-23)
(1.16581 0.434413 -5.42753e-22)
(1.19776 0.413271 -1.8793e-22)
(1.2029 0.376211 -2.54502e-23)
(1.19632 0.334391 7.98064e-23)
(1.1866 0.293133 -1.67876e-23)
(1.1753 0.258134 4.61701e-24)
(0.287828 0.111181 1.0332e-21)
(0.668938 0.277353 -6.49624e-22)
(0.923714 0.393514 -1.73497e-22)
(1.07485 0.446554 9.07242e-23)
(1.15106 0.451574 4.2731e-22)
(1.18017 0.425459 2.85262e-22)
(1.18467 0.384714 -2.12624e-23)
(1.17885 0.34044 -3.45589e-23)
(1.17063 0.297675 -1.75658e-23)
(1.16087 0.261814 4.72249e-24)
(0.290736 0.124327 7.83135e-22)
(0.669013 0.301746 6.38651e-22)
(0.917638 0.418498 -7.28133e-22)
(1.06229 0.467556 -8.16352e-23)
(1.13395 0.467056 0)
(1.16095 0.436155 0)
(1.16537 0.39198 0)
(1.16071 0.345486 -1.86902e-22)
(1.15421 0.301392 -1.16296e-23)
(1.14616 0.264759 -2.67422e-23)
(0.292138 0.137363 -1.48564e-21)
(0.666124 0.325296 0)
(0.90832 0.441964 1.5537e-21)
(1.04686 0.486733 4.51433e-22)
(1.11469 0.480752 0)
(1.14027 0.445301 0)
(1.14513 0.397972 -1.03811e-22)
(1.14198 0.349498 6.84834e-23)
(1.1374 0.304257 1.16296e-23)
(1.13119 0.266937 2.67411e-23)
(0.29201 0.150137 7.80888e-22)
(0.660318 0.347737 -6.58008e-23)
(0.895911 0.46368 -7.28017e-22)
(1.02877 0.503921 -4.94435e-22)
(1.09347 0.492566 3.60199e-23)
(1.11829 0.452842 1.6267e-22)
(1.12408 0.402655 6.97063e-23)
(1.12274 0.352448 -3.05298e-23)
(1.12025 0.306244 -6.87016e-23)
(1.11601 0.268316 8.49245e-23)
(0.290344 0.162492 -3.55774e-24)
(0.651678 0.368813 8.31099e-22)
(0.880581 0.483427 -8.1184e-23)
(1.00823 0.518969 2.539e-22)
(1.0705 0.50241 1.27218e-22)
(1.09519 0.458729 -6.32438e-23)
(1.10235 0.405998 2.34608e-23)
(1.10307 0.354309 3.79208e-23)
(1.10281 0.307329 -9.07226e-23)
(1.10067 0.268868 -6.37096e-23)
(0.287156 0.174273 0)
(0.640324 0.388281 -7.10891e-22)
(0.862489 0.500989 -6.70715e-23)
(0.985463 0.531755 -8.64715e-23)
(1.04601 0.510209 -1.28886e-22)
(1.07113 0.462921 -7.10576e-23)
(1.08005 0.407975 -1.18137e-22)
(1.08306 0.35506 0)
(1.08512 0.30749 0)
(1.08519 0.268562 0)
(0.282473 0.185322 4.76672e-23)
(0.62639 0.40592 -5.05296e-22)
(0.841839 0.516171 0)
(0.96073 0.542156 -1.01383e-22)
(1.02018 0.515904 1.04543e-23)
(1.04627 0.465384 0)
(1.0573 0.40856 1.08632e-22)
(1.06279 0.354681 1.93182e-22)
(1.06724 0.306711 -4.38783e-23)
(1.06962 0.267368 3.69434e-23)
(0.276326 0.195474 -3.35931e-23)
(0.610042 0.421516 5.335e-22)
(0.818893 0.528827 0)
(0.93426 0.550066 -1.13445e-22)
(0.993243 0.519444 1.5035e-24)
(1.02078 0.466089 2.27925e-22)
(1.03422 0.407735 2.9787e-23)
(1.04234 0.35316 -2.18231e-22)
(1.04921 0.304979 0)
(1.05398 0.265252 -4.03722e-22)
(0.268799 0.204582 -2.20475e-22)
(0.591455 0.434851 -1.78393e-23)
(0.793901 0.538816 -5.02986e-24)
(0.906292 0.555401 4.20922e-24)
(0.965392 0.520788 2.79169e-22)
(0.994809 0.465015 -2.27927e-22)
(1.01094 0.405484 -3.26976e-22)
(1.02181 0.350485 -3.00111e-22)
(1.03109 0.302282 -5.28021e-22)
(1.03831 0.26218 3.5261e-22)
(0.259998 0.212537 2.41724e-22)
(0.570825 0.445742 0)
(0.767117 0.546007 -9.52749e-23)
(0.877077 0.558093 8.18052e-24)
(0.936837 0.519905 -6.95875e-22)
(0.968522 0.462147 0)
(0.987556 0.401799 3.26978e-22)
(1.00128 0.346653 -5.32292e-23)
(1.01291 0.298608 5.99755e-22)
(1.02266 0.258107 -6.03855e-23)
(0.250013 0.219211 0)
(0.548387 0.454042 -1.25834e-22)
(0.73881 0.550295 8.54999e-23)
(0.846866 0.558094 0)
(0.907781 0.516777 4.16707e-22)
(0.942071 0.457478 0)
(0.964201 0.396676 -4.71974e-22)
(0.980839 0.341664 3.53344e-22)
(0.994752 0.293949 6.8606e-22)
(1.00718 0.252985 5.67236e-22)
(0.238957 0.224492 3.50014e-23)
(0.524391 0.45962 9.64494e-23)
(0.709255 0.551599 0)
(0.815911 0.55537 0)
(0.878428 0.511397 0)
(0.915608 0.451009 7.37745e-23)
(0.940985 0.390119 3.46154e-22)
(0.960572 0.335529 5.37058e-23)
(0.976765 0.288337 -6.86065e-22)
(0.991993 0.246939 -6.38287e-22)
(0.226958 0.228281 0)
(0.499095 0.46237 4.5632e-22)
(0.678732 0.549863 0)
(0.784464 0.549906 0)
(0.848975 0.503768 0)
(0.889284 0.442749 -8.52444e-23)
(0.918021 0.382133 7.5753e-22)
(0.940594 0.328251 -1.80647e-22)
(0.959238 0.281859 -6.37963e-22)
(0.977101 0.240018 -6.65224e-22)
(0.214157 0.230498 0)
(0.472767 0.462209 -4.56321e-22)
(0.647528 0.545051 5.9591e-22)
(0.752775 0.541703 0)
(0.819619 0.493907 9.60322e-22)
(0.863243 0.432712 0)
(0.895417 0.372729 -6.13762e-22)
(0.921027 0.319804 5.5963e-22)
(0.942328 0.274493 8.36578e-22)
(0.962839 0.233757 6.66802e-22)
(0.200704 0.231077 -1.09402e-21)
(0.445683 0.459081 0)
(0.615926 0.537152 -5.11191e-22)
(0.72109 0.53078 -7.08995e-23)
(0.790549 0.481841 -2.05156e-21)
(0.837628 0.420924 0)
(0.873278 0.361925 7.49918e-22)
(0.901928 0.310206 4.86302e-23)
(0.925855 0.266118 8.65333e-22)
(0.948516 0.226879 8.29382e-25)
(0.186758 0.229968 1.16429e-21)
(0.418124 0.452957 -5.89955e-23)
(0.584211 0.526177 -9.92984e-23)
(0.689651 0.517171 -8.30981e-23)
(0.761951 0.467608 1.09124e-21)
(0.812578 0.407417 -1.00406e-21)
(0.851709 0.349745 -7.49923e-22)
(0.883376 0.299482 -6.08267e-22)
(0.909884 0.256783 -9.80061e-22)
(0.934508 0.219148 9.26019e-22)
(0.172483 0.227141 -8.31093e-23)
(0.390373 0.443833 -1.03669e-21)
(0.552665 0.512162 0)
(0.658693 0.500928 7.09489e-22)
(0.734007 0.45126 7.99643e-23)
(0.788228 0.392233 1.00406e-21)
(0.830814 0.33622 -1.03514e-22)
(0.865454 0.287659 -6.13557e-22)
(0.89449 0.246528 0)
(0.920972 0.210578 -8.24498e-22)
(0.158047 0.222582 1.02238e-22)
(0.362713 0.431733 1.10647e-21)
(0.521564 0.495162 0)
(0.628446 0.482119 -2.19593e-23)
(0.706889 0.432857 8.82474e-23)
(0.764708 0.375421 0)
(0.810693 0.321387 9.38403e-22)
(0.84824 0.274761 7.00606e-22)
(0.879732 0.235379 1.38491e-22)
(0.907991 0.201209 -1.16645e-22)
(0.143619 0.216297 0)
(0.335422 0.416706 1.57776e-21)
(0.491175 0.475256 -1.40942e-22)
(0.599129 0.460826 7.99145e-23)
(0.680764 0.412473 7.87564e-22)
(0.742144 0.357038 1.40546e-21)
(0.791443 0.30529 -1.06301e-21)
(0.831808 0.260825 0)
(0.86567 0.223359 0)
(0.895637 0.191064 0)
(0.129369 0.208308 -8.07243e-24)
(0.308774 0.398829 -1.32361e-21)
(0.461759 0.452543 1.55444e-22)
(0.570954 0.437147 -1.09216e-21)
(0.655792 0.39019 -6.83771e-22)
(0.720655 0.337151 2.33855e-22)
(0.773156 0.287981 -1.05849e-21)
(0.816231 0.245889 7.1979e-22)
(0.852361 0.210503 7.98391e-22)
(0.883966 0.180171 -6.32111e-22)
(0.115463 0.198658 -1.02825e-21)
(0.283033 0.3782 -1.09582e-22)
(0.433565 0.427142 1.40103e-21)
(0.544121 0.411197 1.11589e-21)
(0.632124 0.366102 0)
(0.700354 0.315833 -1.33345e-21)
(0.755919 0.269518 -5.10359e-23)
(0.801575 0.23 -9.25969e-22)
(0.839856 0.196847 -5.60065e-22)
(0.873026 0.168563 5.03602e-22)
(0.102063 0.187404 2.40352e-21)
(0.258454 0.354945 0)
(0.406828 0.399192 -2.89641e-21)
(0.518819 0.3831 -9.75379e-22)
(0.609903 0.340314 -1.17712e-22)
(0.681349 0.293166 0)
(0.739812 0.249966 1.10134e-21)
(0.787905 0.213213 -8.94513e-22)
(0.828207 0.182436 -6.96503e-22)
(0.862858 0.156283 5.41318e-22)
(0.0893258 0.174623 -1.24475e-21)
(0.235277 0.329208 -9.64851e-22)
(0.381771 0.36885 1.68274e-21)
(0.495227 0.352998 -1.56796e-22)
(0.58926 0.312938 0)
(0.663739 0.269241 0)
(0.724915 0.229396 0)
(0.775279 0.195584 1.82017e-21)
(0.81746 0.167317 6.96505e-22)
(0.8535 0.143376 -5.41318e-22)
(0.0773998 0.160407 -1.23764e-21)
(0.213729 0.301159 9.53567e-22)
(0.3586 0.33629 1.02728e-22)
(0.473508 0.321041 0)
(0.570318 0.284097 -1.0229e-21)
(0.647616 0.244154 -7.00461e-22)
(0.711296 0.207885 -7.91026e-23)
(0.763752 0.177177 1.4145e-22)
(0.807657 0.151543 -1.83101e-22)
(0.844984 0.12989 7.39394e-23)
(0.0664232 0.144863 1.3974e-21)
(0.194019 0.270985 -1.28872e-22)
(0.337506 0.3017 -1.07753e-21)
(0.453811 0.287394 2.47099e-22)
(0.55319 0.253922 7.62452e-22)
(0.633064 0.218008 9.97247e-22)
(0.699021 0.185518 -8.16795e-23)
(0.753375 0.158062 -4.64337e-22)
(0.79884 0.135172 0)
(0.837339 0.11588 7.03023e-23)
(0.0565235 0.128112 9.33697e-23)
(0.176338 0.238891 0)
(0.31866 0.265286 -3.14392e-23)
(0.436273 0.25223 0)
(0.537977 0.22255 -1.0896e-21)
(0.620161 0.190913 8.41562e-22)
(0.688148 0.162381 0)
(0.744192 0.13831 1.10581e-23)
(0.791042 0.118265 0)
(0.83059 0.101399 0)
(0.0478152 0.110288 1.87496e-22)
(0.160855 0.205099 -1.2217e-21)
(0.302215 0.227263 1.00847e-21)
(0.421013 0.215733 -1.77814e-22)
(0.524768 0.190128 4.70395e-22)
(0.608973 0.162983 1.30111e-22)
(0.67873 0.138568 0)
(0.736245 0.117999 -3.79173e-22)
(0.784298 0.100886 -1.02274e-22)
(0.824762 0.0865073 -3.04039e-22)
(0.0403992 0.0915365 8.05786e-22)
(0.147721 0.169846 -1.80476e-21)
(0.288304 0.18786 1.7276e-22)
(0.408135 0.178092 -7.39328e-22)
(0.51364 0.156805 -8.44076e-23)
(0.599559 0.134339 -8.60305e-22)
(0.670812 0.114177 0)
(0.729567 0.0972083 5.17873e-22)
(0.778633 0.0831028 -9.52613e-23)
(0.819874 0.0712637 6.92425e-22)
(0.034361 0.0720122 -8.05787e-22)
(0.137059 0.13338 6.60854e-22)
(0.27704 0.147314 -1.1873e-22)
(0.397726 0.139507 8.69846e-22)
(0.504658 0.122739 4.94397e-22)
(0.591967 0.105105 5.29574e-23)
(0.664431 0.089306 -4.44741e-23)
(0.724189 0.0760218 -5.8042e-22)
(0.774073 0.0649858 4.44618e-24)
(0.815943 0.0557304 -2.30237e-22)
(0.0297704 0.0518782 4.16767e-22)
(0.128973 0.09596 0)
(0.268511 0.105871 4.88786e-22)
(0.389858 0.100181 0)
(0.497876 0.0880898 6.97914e-23)
(0.586239 0.0754081 -5.85358e-23)
(0.659618 0.0640601 0)
(0.720135 0.0545248 0)
(0.770636 0.0466068 0)
(0.812982 0.0399703 0)
(0.0266802 0.0313043 -3.65992e-22)
(0.123539 0.0578525 -1.32695e-22)
(0.262787 0.0637818 -4.88786e-22)
(0.384583 0.0603224 0)
(0.493332 0.0530221 0)
(0.582403 0.0453784 2.69818e-23)
(0.656396 0.0385444 -1.09149e-22)
(0.717421 0.0328045 -1.32744e-22)
(0.768336 0.0280397 -1.2661e-22)
(0.811003 0.0240475 2.06163e-23)
(0.0251262 0.0104644 -6.58494e-24)
(0.120809 0.0193304 1.43903e-22)
(0.259914 0.0213039 -6.96602e-24)
(0.381936 0.0201432 2.38889e-23)
(0.491053 0.0177021 -9.60016e-24)
(0.58048 0.0151484 0)
(0.654782 0.0128662 8.64897e-23)
(0.716062 0.0109498 1.32744e-22)
(0.767184 0.00935919 9.59936e-23)
(0.810012 0.00802672 1.46459e-23)
(0.0251262 -0.0104644 -6.58494e-24)
(0.120809 -0.0193304 1.43903e-22)
(0.259914 -0.0213039 -6.96602e-24)
(0.381936 -0.0201432 2.38889e-23)
(0.491053 -0.0177021 -9.60016e-24)
(0.58048 -0.0151484 0)
(0.654782 -0.0128662 7.61069e-23)
(0.716062 -0.0109498 1.41475e-22)
(0.767184 -0.00935919 1.02132e-22)
(0.810012 -0.00802672 0)
(0.0266802 -0.0313043 -4.67542e-22)
(0.123539 -0.0578525 -1.7397e-22)
(0.262787 -0.0637818 -5.18344e-22)
(0.384583 -0.0603224 2.47357e-23)
(0.493332 -0.0530221 0)
(0.582403 -0.0453784 -2.69818e-23)
(0.656396 -0.0385444 -6.38302e-23)
(0.717421 -0.0328045 -1.32744e-22)
(0.768336 -0.0280397 -7.76533e-23)
(0.811003 -0.0240475 -2.06163e-23)
(0.0297704 -0.0518782 4.16767e-22)
(0.128973 -0.09596 0)
(0.268511 -0.105871 4.88786e-22)
(0.389858 -0.100181 0)
(0.497876 -0.0880898 6.97914e-23)
(0.586239 -0.0754081 -5.85358e-23)
(0.659618 -0.0640601 0)
(0.720135 -0.0545248 0)
(0.770636 -0.0466068 0)
(0.812982 -0.0399703 0)
(0.034361 -0.0720122 -8.05787e-22)
(0.137059 -0.13338 5.14812e-22)
(0.27704 -0.147314 1.1873e-22)
(0.397726 -0.139507 5.94869e-22)
(0.504658 -0.122739 6.43898e-22)
(0.591967 -0.105105 -5.29574e-23)
(0.664431 -0.089306 4.44741e-23)
(0.724189 -0.0760218 -4.55327e-22)
(0.774073 -0.0649858 -4.44618e-24)
(0.815943 -0.0557304 -3.86071e-22)
(0.0403992 -0.0915365 8.05786e-22)
(0.147721 -0.169846 6.29093e-22)
(0.288304 -0.18786 -1.7276e-22)
(0.408135 -0.178092 -7.25385e-22)
(0.51364 -0.156805 6.23862e-23)
(0.599559 -0.134339 -8.60305e-22)
(0.670812 -0.114177 0)
(0.729567 -0.0972083 5.17873e-22)
(0.778633 -0.0831028 9.52613e-23)
(0.819874 -0.0712637 5.31962e-22)
(0.0478152 -0.110288 -1.87496e-22)
(0.160855 -0.205099 1.2217e-21)
(0.302215 -0.227263 7.8812e-22)
(0.421013 -0.215733 1.77814e-22)
(0.524768 -0.190128 5.92532e-22)
(0.608973 -0.162983 -1.94968e-22)
(0.67873 -0.138568 8.5942e-23)
(0.736245 -0.117999 -6.22104e-22)
(0.784298 -0.100886 1.02274e-22)
(0.824762 -0.0865073 -3.04039e-22)
(0.0565235 -0.128112 -9.33697e-23)
(0.176338 -0.238891 0)
(0.31866 -0.265286 -3.14392e-23)
(0.436273 -0.25223 0)
(0.537977 -0.22255 -1.0896e-21)
(0.620161 -0.190913 8.41562e-22)
(0.688148 -0.162381 0)
(0.744192 -0.13831 1.10581e-23)
(0.791042 -0.118265 0)
(0.83059 -0.101399 0)
(0.0664232 -0.144863 1.3974e-21)
(0.194019 -0.270985 1.28872e-22)
(0.337506 -0.3017 -7.59081e-22)
(0.453811 -0.287394 -1.60985e-22)
(0.55319 -0.253922 1.28334e-21)
(0.633064 -0.218008 5.92062e-22)
(0.699021 -0.185518 8.16795e-23)
(0.753375 -0.158062 -5.80651e-22)
(0.79884 -0.135172 9.79366e-23)
(0.837339 -0.11588 -7.03023e-23)
(0.0773998 -0.160407 -1.55716e-21)
(0.213729 -0.301159 9.76138e-22)
(0.3586 -0.33629 9.43164e-23)
(0.473508 -0.321041 -1.64898e-22)
(0.570318 -0.284097 -1.0229e-21)
(0.647616 -0.244154 -8.88844e-22)
(0.711296 -0.207885 7.91026e-23)
(0.763752 -0.177177 -8.49426e-23)
(0.807657 -0.151543 1.83101e-22)
(0.844984 -0.12989 -7.39394e-23)
(0.0893258 -0.174623 -1.24475e-21)
(0.235277 -0.329208 -9.64851e-22)
(0.381771 -0.36885 1.30801e-21)
(0.495227 -0.352998 1.56796e-22)
(0.58926 -0.312938 0)
(0.663739 -0.269241 0)
(0.724915 -0.229396 0)
(0.775279 -0.195584 1.82017e-21)
(0.81746 -0.167317 6.96505e-22)
(0.8535 -0.143376 -5.41318e-22)
(0.102063 -0.187404 2.40352e-21)
(0.258454 -0.354945 0)
(0.406828 -0.399192 -2.89641e-21)
(0.518819 -0.3831 -1.11589e-21)
(0.609903 -0.340314 0)
(0.681349 -0.293166 0)
(0.739812 -0.249966 1.10134e-21)
(0.787905 -0.213213 -8.94513e-22)
(0.828207 -0.182436 -6.96503e-22)
(0.862858 -0.156283 5.41318e-22)
(0.115463 -0.198658 -1.2893e-21)
(0.283033 -0.3782 1.09582e-22)
(0.433565 -0.427142 1.40103e-21)
(0.544121 -0.411197 1.24837e-21)
(0.632124 -0.366102 -1.10979e-22)
(0.700354 -0.315833 -1.33345e-21)
(0.755919 -0.269518 -5.10359e-23)
(0.801575 -0.23 -7.22287e-22)
(0.839856 -0.196847 -7.31565e-22)
(0.873026 -0.168563 5.03602e-22)
(0.129369 -0.208308 8.07243e-24)
(0.308774 -0.398829 -1.49484e-21)
(0.461759 -0.452543 -1.55444e-22)
(0.570954 -0.437147 -8.44349e-22)
(0.655792 -0.39019 -6.92548e-22)
(0.720655 -0.337151 -2.47887e-22)
(0.773156 -0.287981 -1.0421e-21)
(0.816231 -0.245889 9.28459e-22)
(0.852361 -0.210503 4.93234e-22)
(0.883966 -0.180171 -3.75093e-22)
(0.143619 -0.216297 0)
(0.335422 -0.416706 1.24069e-21)
(0.491175 -0.475256 1.40942e-22)
(0.599129 -0.460826 7.99145e-23)
(0.680764 -0.412473 7.87564e-22)
(0.742144 -0.357038 1.10871e-21)
(0.791443 -0.30529 -9.31364e-22)
(0.831808 -0.260825 9.88588e-23)
(0.86567 -0.223359 0)
(0.895637 -0.191064 0)