/*--------------------------------*- C++ -*----------------------------------*\
  =========                 |
  \\      /  F ield         | OpenFOAM: The Open Source CFD Toolbox
   \\    /   O peration     | Website:  https://openfoam.org
    \\  /    A nd           | Version:  9
     \\/     M anipulation  |
\*---------------------------------------------------------------------------*/
FoamFile
{
    format      ascii;
    class       volScalarField;
    location    "21";
    object      p;
}
// * * * * * * * * * * * * * * * * * * * * * * * * * * * * * * * * * * * * * //

dimensions      [0 2 -2 0 0 0 0];

internalField   nonuniform List<scalar> 
8500
(
-0.308028
-0.312285
-0.313149
-0.314951
-0.31712
-0.317462
-0.32139
-0.317913
-0.324428
-0.317417
-0.308297
-0.312491
-0.313349
-0.315119
-0.317322
-0.317556
-0.321691
-0.317841
-0.324839
-0.317279
-0.308828
-0.312898
-0.313742
-0.315447
-0.317715
-0.317733
-0.322281
-0.317679
-0.325655
-0.317004
-0.309606
-0.313495
-0.314315
-0.315919
-0.318284
-0.317972
-0.323139
-0.317399
-0.32686
-0.316596
-0.310614
-0.314265
-0.315048
-0.316512
-0.319001
-0.318246
-0.324229
-0.316965
-0.328426
-0.316057
-0.311827
-0.315189
-0.315918
-0.317198
-0.319829
-0.318526
-0.325493
-0.316342
-0.330309
-0.315373
-0.313218
-0.316245
-0.316899
-0.317948
-0.320723
-0.318791
-0.326854
-0.315503
-0.332455
-0.314486
-0.31476
-0.317412
-0.317961
-0.318731
-0.321631
-0.319027
-0.328218
-0.31444
-0.334777
-0.313396
-0.316426
-0.318668
-0.319076
-0.319523
-0.322494
-0.31923
-0.329467
-0.313241
-0.336808
-0.312332
-0.318192
-0.319992
-0.320214
-0.320302
-0.323257
-0.319417
-0.330376
-0.312117
-0.338538
-0.310874
-0.320038
-0.32137
-0.321352
-0.321052
-0.323861
-0.319681
-0.330828
-0.310962
-0.339906
-0.309217
-0.321952
-0.32279
-0.32247
-0.321766
-0.324197
-0.32006
-0.330839
-0.309863
-0.340484
-0.307853
-0.323928
-0.324246
-0.323558
-0.322464
-0.324298
-0.320421
-0.330404
-0.309142
-0.339725
-0.307327
-0.325968
-0.325739
-0.324607
-0.323121
-0.324222
-0.320718
-0.329454
-0.308956
-0.337237
-0.307646
-0.328086
-0.327275
-0.325632
-0.323718
-0.324014
-0.320926
-0.328058
-0.309218
-0.333015
-0.307963
-0.330307
-0.328863
-0.326671
-0.324263
-0.323727
-0.32086
-0.326342
-0.309553
-0.327576
-0.307173
-0.332666
-0.330524
-0.327751
-0.324788
-0.323438
-0.320481
-0.324391
-0.309573
-0.32156
-0.304772
-0.335203
-0.33229
-0.32891
-0.325334
-0.323205
-0.31981
-0.322169
-0.309086
-0.315212
-0.300793
-0.33797
-0.334197
-0.330191
-0.325937
-0.323033
-0.318961
-0.319586
-0.308012
-0.308452
-0.295659
-0.341021
-0.336286
-0.331646
-0.326622
-0.32288
-0.318051
-0.316623
-0.306207
-0.301326
-0.290133
-0.344413
-0.338607
-0.333325
-0.327389
-0.322721
-0.317115
-0.313357
-0.303444
-0.294451
-0.284694
-0.34819
-0.341229
-0.335268
-0.328222
-0.32259
-0.316086
-0.309868
-0.299683
-0.288253
-0.278039
-0.352428
-0.344205
-0.337477
-0.329131
-0.322543
-0.314842
-0.306185
-0.295195
-0.282024
-0.271176
-0.357189
-0.347599
-0.339914
-0.330201
-0.322572
-0.313277
-0.302304
-0.290121
-0.275788
-0.264279
-0.362537
-0.351462
-0.342528
-0.331563
-0.322584
-0.311333
-0.298179
-0.284659
-0.269436
-0.2573
-0.368539
-0.355806
-0.345323
-0.333288
-0.322456
-0.308984
-0.29379
-0.278902
-0.262949
-0.250304
-0.375269
-0.360578
-0.348417
-0.335294
-0.322088
-0.306226
-0.289121
-0.27291
-0.256329
-0.243223
-0.382798
-0.365681
-0.352016
-0.337376
-0.321404
-0.303066
-0.284165
-0.266707
-0.249561
-0.236056
-0.391167
-0.371011
-0.356301
-0.339318
-0.320333
-0.299507
-0.278914
-0.260295
-0.242641
-0.228762
-0.400349
-0.376509
-0.361312
-0.340967
-0.318806
-0.295543
-0.273357
-0.253663
-0.235551
-0.221323
-0.410225
-0.382189
-0.366859
-0.342229
-0.316762
-0.291157
-0.267478
-0.246794
-0.228273
-0.21371
-0.420566
-0.388131
-0.372552
-0.343028
-0.314146
-0.286318
-0.261254
-0.239666
-0.220783
-0.205903
-0.431038
-0.394434
-0.377899
-0.343272
-0.310917
-0.280992
-0.254658
-0.232254
-0.213058
-0.197879
-0.441322
-0.401157
-0.382441
-0.342848
-0.307036
-0.27514
-0.247656
-0.224532
-0.205076
-0.189621
-0.451116
-0.408265
-0.38583
-0.341625
-0.302461
-0.268729
-0.240217
-0.21647
-0.196814
-0.18111
-0.460163
-0.415579
-0.387848
-0.339464
-0.297146
-0.261725
-0.232308
-0.208041
-0.188252
-0.172329
-0.468261
-0.422772
-0.388396
-0.336242
-0.29104
-0.254096
-0.223898
-0.199219
-0.179369
-0.163264
-0.475252
-0.429382
-0.387463
-0.331858
-0.28409
-0.245807
-0.21496
-0.189982
-0.170147
-0.15391
-0.481008
-0.434883
-0.385076
-0.326246
-0.276243
-0.236826
-0.205469
-0.18031
-0.16057
-0.144276
-0.485422
-0.4388
-0.381214
-0.319357
-0.267449
-0.227119
-0.1954
-0.170183
-0.150626
-0.134385
-0.488394
-0.440799
-0.375756
-0.311146
-0.257667
-0.216657
-0.184735
-0.159584
-0.140304
-0.124255
-0.489815
-0.440604
-0.368608
-0.301571
-0.246862
-0.205416
-0.17346
-0.148501
-0.129594
-0.113861
-0.489555
-0.438014
-0.359713
-0.290592
-0.235005
-0.193376
-0.16156
-0.136919
-0.118508
-0.103138
-0.487456
-0.432896
-0.349023
-0.278185
-0.222078
-0.180523
-0.149022
-0.124829
-0.107087
-0.0920091
-0.48333
-0.425161
-0.336489
-0.264351
-0.208068
-0.166842
-0.135834
-0.112234
-0.0953762
-0.0804574
-0.47697
-0.41475
-0.322073
-0.249094
-0.192961
-0.15233
-0.121999
-0.0991769
-0.0833487
-0.0686262
-0.468159
-0.401628
-0.305754
-0.232413
-0.176742
-0.137009
-0.107557
-0.0857392
-0.0708927
-0.0565929
-0.456685
-0.38578
-0.287526
-0.214305
-0.159422
-0.120943
-0.092582
-0.0718872
-0.0580191
-0.0443613
-0.442355
-0.367205
-0.26738
-0.194791
-0.141089
-0.104185
-0.0770277
-0.0576357
-0.0447744
-0.0319372
-0.425009
-0.345922
-0.245306
-0.173959
-0.121887
-0.0866423
-0.0609326
-0.0429996
-0.031206
-0.0193348
-0.404532
-0.321991
-0.221305
-0.151962
-0.101756
-0.0683698
-0.0443362
-0.0280039
-0.0173563
-0.00658117
-0.380855
-0.295538
-0.195466
-0.128769
-0.0807423
-0.0494264
-0.0272822
-0.0126811
-0.00326655
0.00628667
-0.353969
-0.266724
-0.167978
-0.1043
-0.0589056
-0.0298781
-0.00981849
0.00292931
0.0110237
0.0192245
-0.323922
-0.235575
-0.138982
-0.078671
-0.0363128
-0.00979497
0.00800045
0.0187834
0.025478
0.0321876
-0.290834
-0.201856
-0.108848
-0.0520263
-0.0130385
0.0107481
0.026114
0.0348361
0.0400651
0.0451322
-0.254881
-0.165865
-0.0775365
-0.024515
0.0108305
0.031671
0.0444573
0.0510458
0.054753
0.0579881
-0.216159
-0.128014
-0.0451026
0.00371666
0.0351941
0.0528888
0.062965
0.0673786
0.0694863
0.0705816
-0.174647
-0.0889215
-0.011677
0.0325262
0.0599413
0.0743117
0.081575
0.0838013
0.0841526
0.082576
-0.130826
-0.0487514
0.0225605
0.0617706
0.0849525
0.0958467
0.100227
0.100254
0.098577
0.0936818
-0.0850534
-0.00769617
0.0574056
0.0913006
0.110102
0.117398
0.118852
0.116627
0.112596
0.104217
-0.0377108
0.0340065
0.0926385
0.120959
0.135259
0.138869
0.137366
0.13278
0.126158
0.115499
0.0107992
0.0760926
0.12803
0.150583
0.160289
0.160159
0.155671
0.1486
0.139464
0.127312
0.0600574
0.11828
0.163345
0.180001
0.185058
0.181162
0.173674
0.164056
0.152563
0.139168
0.109632
0.160277
0.198347
0.20904
0.209427
0.201769
0.191278
0.179102
0.165402
0.150889
0.159086
0.201784
0.232798
0.237524
0.233257
0.22187
0.208395
0.19369
0.177906
0.162295
0.207978
0.242501
0.26646
0.265275
0.256411
0.241355
0.224939
0.207764
0.190011
0.173289
0.255871
0.282127
0.299103
0.292118
0.278752
0.260115
0.240825
0.221261
0.201646
0.183791
0.302337
0.320371
0.330499
0.317882
0.300145
0.278044
0.255974
0.234118
0.21275
0.193743
0.346953
0.356952
0.360431
0.342398
0.320461
0.295038
0.270304
0.246271
0.223261
0.203095
0.389312
0.391611
0.388688
0.365505
0.339575
0.310999
0.283739
0.257659
0.233121
0.211804
0.429037
0.424091
0.415074
0.387049
0.357365
0.325833
0.296207
0.268223
0.242276
0.219831
0.46583
0.454103
0.439399
0.406881
0.37372
0.339451
0.307639
0.277908
0.250675
0.227144
0.499393
0.48139
0.461488
0.424869
0.388537
0.351772
0.317971
0.286661
0.25827
0.23371
0.529437
0.505738
0.481179
0.440887
0.401719
0.362723
0.327146
0.294434
0.265016
0.239505
0.555698
0.526958
0.498331
0.454827
0.413181
0.372237
0.33511
0.301183
0.270876
0.244507
0.577945
0.544891
0.512819
0.466593
0.42285
0.380256
0.341819
0.306868
0.275813
0.248697
0.595983
0.559402
0.524538
0.476104
0.430663
0.386731
0.347234
0.311457
0.279798
0.252062
0.609652
0.570382
0.533402
0.483295
0.436567
0.391622
0.351323
0.314922
0.282808
0.254593
0.618833
0.577748
0.539348
0.488117
0.440525
0.3949
0.354063
0.317245
0.284825
0.256282
0.623443
0.581445
0.542331
0.490536
0.44251
0.396543
0.355437
0.318409
0.285837
0.257128
0.623443
0.581445
0.542331
0.490536
0.44251
0.396544
0.355437
0.318409
0.285837
0.257128
0.618833
0.577748
0.539348
0.488117
0.440525
0.3949
0.354063
0.317245
0.284825
0.256282
0.609652
0.570382
0.533402
0.483295
0.436567
0.391622
0.351323
0.314922
0.282808
0.254593
0.595983
0.559402
0.524538
0.476104
0.430663
0.386731
0.347234
0.311457
0.279798
0.252062
0.577945
0.544891
0.512819
0.466593
0.42285
0.380256
0.341819
0.306868
0.275813
0.248697
0.555698
0.526958
0.498331
0.454827
0.413181
0.372237
0.33511
0.301183
0.270876
0.244507
0.529437
0.505738
0.481179
0.440887
0.401719
0.362723
0.327146
0.294434
0.265016
0.239505
0.499393
0.48139
0.461488
0.424869
0.388537
0.351772
0.317971
0.286661
0.25827
0.23371
0.46583
0.454103
0.439399
0.406881
0.37372
0.339451
0.307639
0.277908
0.250675
0.227144
0.429037
0.424091
0.415074
0.387049
0.357365
0.325833
0.296207
0.268223
0.242276
0.219831
0.389312
0.391611
0.388688
0.365505
0.339575
0.310999
0.283739
0.257659
0.233121
0.211804
0.346953
0.356952
0.360431
0.342398
0.320461
0.295038
0.270304
0.246271
0.223261
0.203095
0.302337
0.320371
0.330499
0.317882
0.300145
0.278044
0.255974
0.234118
0.21275
0.193743
0.255871
0.282127
0.299103
0.292118
0.278752
0.260115
0.240825
0.221261
0.201646
0.183791
0.207978
0.242501
0.26646
0.265275
0.256411
0.241355
0.224939
0.207764
0.190011
0.173289
0.159086
0.201784
0.232798
0.237524
0.233257
0.22187
0.208395
0.19369
0.177906
0.162295
0.109632
0.160277
0.198347
0.20904
0.209427
0.201769
0.191278
0.179102
0.165402
0.150889
0.0600574
0.11828
0.163345
0.180001
0.185058
0.181162
0.173674
0.164056
0.152563
0.139168
0.0107992
0.0760926
0.12803
0.150583
0.160289
0.160159
0.155671
0.1486
0.139464
0.127312
-0.0377108
0.0340065
0.0926385
0.120959
0.135259
0.138869
0.137366
0.13278
0.126158
0.1155
-0.0850534
-0.00769616
0.0574056
0.0913006
0.110102
0.117398
0.118852
0.116627
0.112596
0.104217
-0.130826
-0.0487513
0.0225605
0.0617706
0.0849525
0.0958467
0.100227
0.100254
0.098577
0.0936818
-0.174647
-0.0889215
-0.011677
0.0325262
0.0599413
0.0743117
0.081575
0.0838013
0.0841526
0.082576
-0.216159
-0.128014
-0.0451026
0.00371667
0.0351942
0.0528889
0.062965
0.0673786
0.0694863
0.0705816
-0.254881
-0.165865
-0.0775365
-0.024515
0.0108305
0.0316711
0.0444573
0.0510458
0.054753
0.0579881
-0.290834
-0.201856
-0.108848
-0.0520263
-0.0130385
0.0107481
0.0261141
0.0348361
0.0400651
0.0451322
-0.323922
-0.235575
-0.138982
-0.0786709
-0.0363128
-0.00979496
0.00800046
0.0187835
0.025478
0.0321876
-0.353969
-0.266724
-0.167978
-0.1043
-0.0589055
-0.0298781
-0.00981847
0.00292932
0.0110237
0.0192245
-0.380855
-0.295538
-0.195466
-0.128769
-0.0807423
-0.0494264
-0.0272822
-0.0126811
-0.00326653
0.00628669
-0.404532
-0.321991
-0.221305
-0.151962
-0.101756
-0.0683698
-0.0443362
-0.0280039
-0.0173563
-0.00658116
-0.425009
-0.345922
-0.245306
-0.173959
-0.121887
-0.0866423
-0.0609326
-0.0429996
-0.031206
-0.0193348
-0.442355
-0.367205
-0.26738
-0.194791
-0.141088
-0.104185
-0.0770277
-0.0576356
-0.0447744
-0.0319371
-0.456685
-0.38578
-0.287526
-0.214305
-0.159422
-0.120943
-0.092582
-0.0718872
-0.0580191
-0.0443612
-0.468159
-0.401628
-0.305754
-0.232413
-0.176742
-0.137009
-0.107557
-0.0857392
-0.0708926
-0.0565929
-0.47697
-0.41475
-0.322073
-0.249094
-0.192961
-0.15233
-0.121999
-0.0991769
-0.0833487
-0.0686261
-0.48333
-0.425161
-0.336489
-0.264351
-0.208068
-0.166842
-0.135834
-0.112234
-0.0953762
-0.0804574
-0.487456
-0.432896
-0.349023
-0.278185
-0.222078
-0.180523
-0.149022
-0.124829
-0.107087
-0.0920091
-0.489555
-0.438014
-0.359713
-0.290592
-0.235005
-0.193376
-0.16156
-0.136919
-0.118508
-0.103138
-0.489815
-0.440604
-0.368608
-0.301571
-0.246862
-0.205416
-0.17346
-0.148501
-0.129594
-0.113861
-0.488394
-0.440799
-0.375756
-0.311146
-0.257667
-0.216657
-0.184735
-0.159584
-0.140304
-0.124255
-0.485422
-0.4388
-0.381214
-0.319357
-0.267449
-0.227119
-0.1954
-0.170183
-0.150626
-0.134385
-0.481008
-0.434883
-0.385076
-0.326246
-0.276243
-0.236826
-0.205469
-0.18031
-0.16057
-0.144276
-0.475252
-0.429382
-0.387463
-0.331858
-0.28409
-0.245807
-0.21496
-0.189982
-0.170147
-0.15391
-0.468261
-0.422772
-0.388396
-0.336242
-0.29104
-0.254096
-0.223898
-0.199219
-0.179369
-0.163264
-0.460163
-0.415579
-0.387848
-0.339464
-0.297146
-0.261725
-0.232308
-0.208041
-0.188252
-0.172329
-0.451116
-0.408265
-0.38583
-0.341625
-0.302461
-0.268729
-0.240217
-0.21647
-0.196814
-0.18111
-0.441322
-0.401157
-0.382441
-0.342848
-0.307036
-0.27514
-0.247656
-0.224532
-0.205076
-0.189621
-0.431038
-0.394434
-0.377899
-0.343272
-0.310917
-0.280992
-0.254658
-0.232254
-0.213058
-0.197879
-0.420566
-0.388131
-0.372552
-0.343028
-0.314146
-0.286318
-0.261254
-0.239666
-0.220783
-0.205903
-0.410225
-0.382189
-0.366859
-0.342229
-0.316762
-0.291157
-0.267478
-0.246794
-0.228273
-0.21371
-0.400349
-0.376509
-0.361312
-0.340967
-0.318806
-0.295543
-0.273357
-0.253663
-0.235551
-0.221323
-0.391167
-0.371011
-0.356301
-0.339318
-0.320333
-0.299507
-0.278914
-0.260295
-0.242641
-0.228762
-0.382798
-0.365681
-0.352016
-0.337376
-0.321404
-0.303066
-0.284165
-0.266707
-0.249561
-0.236056
-0.375269
-0.360578
-0.348417
-0.335294
-0.322088
-0.306226
-0.289121
-0.27291
-0.256329
-0.243223
-0.368539
-0.355806
-0.345323
-0.333288
-0.322456
-0.308984
-0.29379
-0.278902
-0.262949
-0.250304
-0.362537
-0.351462
-0.342528
-0.331563
-0.322584
-0.311333
-0.298179
-0.284659
-0.269436
-0.2573
-0.357189
-0.347599
-0.339914
-0.330201
-0.322572
-0.313277
-0.302304
-0.290121
-0.275788
-0.264279
-0.352428
-0.344205
-0.337477
-0.329131
-0.322543
-0.314842
-0.306185
-0.295195
-0.282024
-0.271176
-0.34819
-0.341229
-0.335268
-0.328221
-0.32259
-0.316086
-0.309868
-0.299683
-0.288253
-0.278039
-0.344413
-0.338607
-0.333325
-0.327389
-0.322721
-0.317115
-0.313357
-0.303444
-0.294451
-0.284694
-0.341021
-0.336286
-0.331646
-0.326622
-0.32288
-0.318051
-0.316623
-0.306207
-0.301326
-0.290134
-0.33797
-0.334197
-0.330191
-0.325937
-0.323033
-0.318961
-0.319586
-0.308012
-0.308452
-0.295659
-0.335203
-0.33229
-0.32891
-0.325334
-0.323205
-0.31981
-0.322169
-0.309086
-0.315212
-0.300793
-0.332666
-0.330524
-0.327751
-0.324788
-0.323438
-0.320481
-0.324391
-0.309573
-0.32156
-0.304772
-0.330307
-0.328863
-0.326671
-0.324263
-0.323727
-0.32086
-0.326342
-0.309553
-0.327576
-0.307173
-0.328086
-0.327275
-0.325632
-0.323718
-0.324014
-0.320926
-0.328058
-0.309218
-0.333015
-0.307963
-0.325968
-0.325739
-0.324607
-0.323121
-0.324222
-0.320718
-0.329454
-0.308956
-0.337237
-0.307646
-0.323928
-0.324246
-0.323558
-0.322464
-0.324298
-0.320421
-0.330404
-0.309142
-0.339725
-0.307327
-0.321952
-0.32279
-0.32247
-0.321766
-0.324197
-0.32006
-0.330839
-0.309863
-0.340484
-0.307853
-0.320038
-0.32137
-0.321352
-0.321052
-0.323861
-0.319681
-0.330828
-0.310962
-0.339906
-0.309217
-0.318192
-0.319992
-0.320214
-0.320302
-0.323257
-0.319417
-0.330376
-0.312117
-0.338538
-0.310874
-0.316426
-0.318668
-0.319076
-0.319523
-0.322494
-0.31923
-0.329467
-0.313241
-0.336808
-0.312332
-0.31476
-0.317412
-0.317961
-0.318731
-0.321631
-0.319027
-0.328218
-0.31444
-0.334777
-0.313396
-0.313218
-0.316245
-0.316899
-0.317948
-0.320723
-0.318791
-0.326854
-0.315503
-0.332455
-0.314486
-0.311827
-0.315189
-0.315918
-0.317198
-0.319829
-0.318526
-0.325493
-0.316342
-0.330309
-0.315373
-0.310614
-0.314265
-0.315048
-0.316512
-0.319001
-0.318246
-0.324229
-0.316965
-0.328426
-0.316057
-0.309606
-0.313495
-0.314315
-0.315919
-0.318284
-0.317972
-0.323139
-0.317399
-0.32686
-0.316596
-0.308828
-0.312898
-0.313742
-0.315447
-0.317715
-0.317733
-0.322281
-0.317679
-0.325655
-0.317004
-0.308297
-0.312491
-0.313349
-0.315119
-0.317322
-0.317556
-0.321691
-0.317841
-0.324839
-0.317279
-0.308028
-0.312285
-0.313149
-0.314951
-0.31712
-0.317462
-0.32139
-0.317913
-0.324428
-0.317417
-0.325542
-0.317153
-0.320012
-0.314973
-0.314848
-0.311675
-0.310205
-0.305851
-0.298808
-0.283925
-0.259362
-0.221691
-0.169986
-0.110266
-0.0567782
-0.0181808
0.00383648
0.0135378
0.0157109
0.0142135
0.0114077
0.00837628
0.0058152
0.00399089
0.00244485
0.00162698
0.000823783
0.00079406
0.000468478
0.000341558
-0.325762
-0.317249
-0.320055
-0.315026
-0.31488
-0.311737
-0.31031
-0.306037
-0.299101
-0.28435
-0.259922
-0.222393
-0.170746
-0.110951
-0.0572927
-0.0185586
0.00357079
0.0133521
0.0155815
0.0141245
0.0113466
0.00833414
0.00578521
0.00397112
0.00243093
0.00161731
0.000816291
0.00078921
0.000465968
0.00033962
-0.326174
-0.317425
-0.320137
-0.315121
-0.314937
-0.31185
-0.310501
-0.30638
-0.299654
-0.285153
-0.260982
-0.223727
-0.172186
-0.11226
-0.0583248
-0.0193139
0.00303431
0.0129749
0.0153184
0.0139435
0.0112226
0.00824894
0.00572485
0.00393124
0.00240301
0.00159792
0.000801417
0.000779503
0.00046094
0.000335762
-0.326723
-0.31765
-0.320246
-0.315245
-0.315006
-0.311992
-0.310748
-0.306834
-0.300405
-0.286238
-0.262433
-0.225556
-0.174239
-0.114103
-0.0598269
-0.0204431
0.00221827
0.0123965
0.0149142
0.0136655
0.0110328
0.00811905
0.0056334
0.00387067
0.00236096
0.00156873
0.000779374
0.000764918
0.000453375
0.000330023
-0.327339
-0.31788
-0.320368
-0.315377
-0.315073
-0.312137
-0.311009
-0.307325
-0.301256
-0.287495
-0.264134
-0.227761
-0.176655
-0.11644
-0.0617686
-0.0219416
0.00111291
0.0116053
0.0143601
0.0132845
0.0107735
0.00794249
0.00551001
0.00378867
0.0023046
0.00152964
0.000750459
0.000745445
0.00044325
0.000322461
-0.32794
-0.318097
-0.320483
-0.315506
-0.31512
-0.312264
-0.311241
-0.307831
-0.302111
-0.288813
-0.265958
-0.230103
-0.179408
-0.119126
-0.0641018
-0.0238004
-0.000289296
0.0105915
0.0136479
0.0127945
0.0104412
0.00771739
0.00535388
0.00368455
0.0022338
0.0014806
0.00071503
0.000721095
0.000430546
0.000313158
-0.328527
-0.318181
-0.320594
-0.315584
-0.315152
-0.312329
-0.31143
-0.30818
-0.302909
-0.29007
-0.267744
-0.232533
-0.182297
-0.122093
-0.0667795
-0.0260062
-0.00198747
0.00934946
0.0127723
0.012192
0.0100334
0.00744238
0.0051645
0.0035578
0.00214848
0.0014216
0.000673481
0.000691915
0.000415251
0.000302218
-0.328787
-0.318344
-0.320562
-0.315695
-0.315088
-0.312382
-0.311497
-0.308572
-0.303534
-0.291198
-0.269426
-0.234873
-0.185234
-0.125249
-0.0697537
-0.0285391
-0.00397515
0.00788076
0.0117325
0.0114756
0.0095491
0.00711697
0.00494179
0.00340822
0.00204871
0.00135273
0.000626216
0.000657998
0.000397371
0.000289765
-0.32872
-0.318438
-0.320412
-0.315751
-0.314968
-0.312341
-0.311447
-0.308665
-0.303985
-0.292113
-0.270899
-0.237055
-0.188118
-0.128526
-0.0729764
-0.0313703
-0.00623764
0.00619318
0.0105323
0.0106473
0.0089891
0.00674173
0.00468625
0.003236
0.00193468
0.00127418
0.000573636
0.0006195
0.000376938
0.000275941
-0.328262
-0.31842
-0.320131
-0.31572
-0.314767
-0.312213
-0.311318
-0.308647
-0.304202
-0.292769
-0.272105
-0.238996
-0.190879
-0.13186
-0.0763999
-0.0344661
-0.00875235
0.00430096
0.00918045
0.00971215
0.00835623
0.00631831
0.00439898
0.0030418
0.00180676
0.00118627
0.000516124
0.000576632
0.00035401
0.000260902
-0.327137
-0.318271
-0.319654
-0.315566
-0.314458
-0.311944
-0.310978
-0.3084
-0.304154
-0.293131
-0.272998
-0.240647
-0.193459
-0.135197
-0.0799775
-0.037788
-0.0114907
0.00222359
0.00768937
0.00867795
0.00765497
0.00584936
0.00408164
0.00282664
0.00166553
0.0010894
0.000454036
0.000529664
0.00032868
0.000244807
-0.325154
-0.317887
-0.318934
-0.315228
-0.313998
-0.311543
-0.310482
-0.307935
-0.303818
-0.293166
-0.273557
-0.241965
-0.195818
-0.138494
-0.0836645
-0.041295
-0.0144202
-1.57902e-05
0.00607448
0.00755437
0.00689113
0.00533832
0.00373636
0.00259192
0.00151171
0.000984094
0.0003877
0.000478915
0.000301075
0.000227818
-0.322347
-0.317109
-0.317925
-0.314616
-0.31333
-0.310922
-0.309768
-0.307214
-0.303172
-0.292856
-0.273752
-0.242941
-0.197925
-0.141713
-0.0874192
-0.0449454
-0.0175063
-0.00239206
0.00435272
0.00635225
0.00607138
0.00478915
0.00336558
0.00233926
0.00134617
0.000870931
0.00031742
0.000424737
0.000271352
0.000210091
-0.3191
-0.315723
-0.316524
-0.313688
-0.312389
-0.310005
-0.308787
-0.306211
-0.3022
-0.292187
-0.273583
-0.243568
-0.199766
-0.144827
-0.0912038
-0.0486988
-0.0207142
-0.00487964
0.00254152
0.0050828
0.00520269
0.00420613
0.00297195
0.00207045
0.00116988
0.000750548
0.000243477
0.000367505
0.000239692
0.000191772
-0.315677
-0.313678
-0.314659
-0.312358
-0.31113
-0.308921
-0.307548
-0.304917
-0.300896
-0.291161
-0.273058
-0.243863
-0.201335
-0.147815
-0.0949852
-0.0525171
-0.0240109
-0.00745383
0.00065768
0.00375704
0.00429189
0.00359344
0.00255812
0.00178731
0.000983873
0.000623607
0.000166135
0.000307603
0.000206298
0.000172998
-0.311929
-0.311024
-0.312257
-0.310557
-0.309459
-0.30721
-0.305928
-0.30329
-0.299252
-0.289783
-0.272193
-0.243845
-0.202659
-0.150664
-0.0987339
-0.056366
-0.0273669
-0.0100929
-0.00128331
0.0023864
0.00334596
0.00295524
0.00212668
0.00149163
0.000789202
0.000490798
8.56523e-05
0.000245408
0.000171387
0.000153896
-0.308016
-0.307731
-0.309315
-0.308311
-0.307502
-0.305665
-0.304096
-0.301404
-0.29732
-0.288102
-0.271034
-0.243563
-0.203763
-0.153373
-0.102435
-0.060223
-0.0307585
-0.0127757
-0.0032648
0.000982098
0.00237253
0.00229639
0.00168055
0.00118536
0.000587042
0.000352858
2.28114e-06
0.000181258
0.00013517
0.000134577
-0.303881
-0.303886
-0.30579
-0.305465
-0.30492
-0.303118
-0.301721
-0.299113
-0.29504
-0.286097
-0.269591
-0.24305
-0.204684
-0.155934
-0.106048
-0.0640365
-0.0341404
-0.0154725
-0.00527274
-0.000453156
0.00137286
0.00161981
0.00122196
0.000870043
0.000378229
0.000210249
-8.38261e-05
0.000115388
9.78031e-05
0.000115132
-0.299574
-0.299748
-0.302074
-0.302535
-0.302433
-0.301057
-0.299597
-0.296851
-0.292718
-0.284008
-0.268034
-0.242398
-0.205411
-0.158333
-0.109553
-0.0678156
-0.0375476
-0.0182219
-0.00733395
-0.00193011
0.000335764
0.000917338
0.000747221
0.000543978
0.000161991
6.26844e-05
-0.000172656
4.80549e-05
5.94506e-05
9.56546e-05
-0.295504
-0.294812
-0.297132
-0.298298
-0.29866
-0.297559
-0.296207
-0.293763
-0.289752
-0.281429
-0.266196
-0.241727
-0.206403
-0.16106
-0.11345
-0.0719146
-0.0411468
-0.021061
-0.00942199
-0.00341012
-0.000698433
0.000202541
0.000261411
0.000210217
-5.90937e-05
-8.75926e-05
-0.000263364
-1.96818e-05
2.07087e-05
7.6381e-05
-0.290302
-0.29099
-0.293477
-0.295208
-0.295986
-0.295347
-0.294255
-0.291501
-0.28735
-0.279007
-0.263898
-0.239784
-0.205174
-0.160957
-0.114418
-0.0736064
-0.0430802
-0.022882
-0.0109478
-0.00459802
-0.00156863
-0.000409808
-0.000164776
-8.67921e-05
-0.000257769
-0.000223425
-0.00034829
-8.20288e-05
-1.47935e-05
5.89638e-05
-0.284592
-0.286062
-0.288748
-0.290966
-0.29204
-0.291538
-0.290335
-0.287896
-0.283603
-0.275111
-0.260017
-0.236239
-0.202502
-0.159725
-0.114694
-0.0749549
-0.0448903
-0.0246938
-0.0125076
-0.00582653
-0.00248529
-0.00106499
-0.000618663
-0.000401667
-0.000466511
-0.000364905
-0.000433209
-0.00014307
-4.97081e-05
4.20537e-05
-0.2786
-0.280677
-0.283604
-0.286337
-0.287798
-0.28762
-0.286676
-0.284079
-0.279593
-0.270952
-0.255902
-0.232511
-0.199693
-0.158385
-0.114881
-0.0762455
-0.0466844
-0.0265267
-0.0141106
-0.00710699
-0.00345243
-0.00176317
-0.00110475
-0.000739867
-0.00069122
-0.000517196
-0.000523859
-0.000207607
-8.677e-05
2.43282e-05
-0.272348
-0.275055
-0.27824
-0.281452
-0.283306
-0.28344
-0.282566
-0.279999
-0.275354
-0.266605
-0.251646
-0.228695
-0.196839
-0.157025
-0.115058
-0.0775377
-0.048494
-0.0283876
-0.0157496
-0.00842489
-0.00445277
-0.00248845
-0.00161172
-0.00109352
-0.000926909
-0.000677221
-0.000619486
-0.000275307
-0.000125631
5.98857e-06
-0.265785
-0.269224
-0.272677
-0.276316
-0.278552
-0.27897
-0.278206
-0.275659
-0.270885
-0.262062
-0.247238
-0.224775
-0.193919
-0.155618
-0.115203
-0.0788158
-0.0503107
-0.030273
-0.0174233
-0.00977931
-0.00548618
-0.00324124
-0.00213998
-0.00146292
-0.00117378
-0.000845144
-0.000720258
-0.000346212
-0.000166283
-1.2945e-05
-0.258957
-0.263207
-0.266941
-0.270958
-0.273564
-0.274261
-0.273617
-0.271096
-0.26622
-0.257357
-0.242706
-0.220774
-0.190946
-0.154168
-0.11531
-0.0800692
-0.0521242
-0.0321756
-0.0191272
-0.0111684
-0.00655251
-0.0040223
-0.00269039
-0.00184882
-0.00143238
-0.00102133
-0.00082638
-0.000420379
-0.000208739
-3.24496e-05
-0.251936
-0.257036
-0.261067
-0.265419
-0.268384
-0.26936
-0.268837
-0.266351
-0.261401
-0.25253
-0.23809
-0.216725
-0.187946
-0.152687
-0.115379
-0.0812921
-0.0539267
-0.0340877
-0.0208558
-0.0125886
-0.00764984
-0.00483071
-0.00326264
-0.00225113
-0.00170275
-0.0012058
-0.000937937
-0.000497814
-0.000252971
-5.24751e-05
-0.244777
-0.250737
-0.255085
-0.259736
-0.263044
-0.264296
-0.263897
-0.261458
-0.256466
-0.247621
-0.233426
-0.212657
-0.184938
-0.151183
-0.11541
-0.0824791
-0.0557107
-0.0360022
-0.0226033
-0.014036
-0.00877572
-0.00566503
-0.00385602
-0.00266947
-0.0019847
-0.00139843
-0.00105496
-0.000578497
-0.000298932
-7.29605e-05
-0.237528
-0.244332
-0.249017
-0.253936
-0.257568
-0.259095
-0.258827
-0.256449
-0.251446
-0.242661
-0.228744
-0.208596
-0.181938
-0.149664
-0.115405
-0.083625
-0.057469
-0.0379119
-0.0243639
-0.0155066
-0.00992746
-0.00652367
-0.00446969
-0.00310339
-0.00227803
-0.00159908
-0.00117746
-0.000662393
-0.000346568
-9.38397e-05
-0.230238
-0.237845
-0.242885
-0.248045
-0.25198
-0.25378
-0.253653
-0.25135
-0.246368
-0.237677
-0.224067
-0.204561
-0.17896
-0.148136
-0.115361
-0.0847251
-0.0591946
-0.0398097
-0.0261316
-0.0169959
-0.0111022
-0.00740485
-0.00510269
-0.00355232
-0.00258244
-0.00180754
-0.00130539
-0.000749448
-0.000395815
-0.000115041
-0.222952
-0.231301
-0.236709
-0.242087
-0.246302
-0.248371
-0.248396
-0.246184
-0.241254
-0.232691
-0.219417
-0.200567
-0.176014
-0.146606
-0.115281
-0.0857754
-0.0608813
-0.0416887
-0.0279004
-0.0184994
-0.0122966
-0.00830649
-0.00575379
-0.00401554
-0.00289752
-0.00202353
-0.00143866
-0.000839579
-0.0004466
-0.000136487
-0.215714
-0.224729
-0.230511
-0.236091
-0.240556
-0.242888
-0.243078
-0.240973
-0.236125
-0.227722
-0.21481
-0.196627
-0.17311
-0.145076
-0.115162
-0.0867722
-0.0625229
-0.0435422
-0.0296639
-0.020012
-0.0135073
-0.00922619
-0.00642152
-0.00449212
-0.00322274
-0.00224668
-0.00157711
-0.000932668
-0.000498836
-0.000158095
-0.20857
-0.218159
-0.224314
-0.230081
-0.234767
-0.237353
-0.237719
-0.235738
-0.231001
-0.222789
-0.210261
-0.192754
-0.170255
-0.143552
-0.115008
-0.0877125
-0.0641138
-0.0453633
-0.0314157
-0.0215284
-0.0147301
-0.0101612
-0.0071041
-0.00498091
-0.00355739
-0.00247649
-0.00172052
-0.00102856
-0.000552419
-0.000179778
-0.20156
-0.211622
-0.218143
-0.224084
-0.228963
-0.231788
-0.23234
-0.230501
-0.225901
-0.217907
-0.205783
-0.188956
-0.167455
-0.142038
-0.114817
-0.0885939
-0.0656487
-0.0471456
-0.0331492
-0.0230429
-0.0159608
-0.0111084
-0.00779943
-0.00548053
-0.00390062
-0.00271238
-0.00186855
-0.00112703
-0.000607222
-0.000201444
-0.194722
-0.205151
-0.212021
-0.218128
-0.22317
-0.226219
-0.226965
-0.225283
-0.220844
-0.213093
-0.201391
-0.185244
-0.164718
-0.140538
-0.114592
-0.0894143
-0.0671226
-0.0488825
-0.0348574
-0.0245495
-0.0171946
-0.0120641
-0.00850504
-0.00598929
-0.00425132
-0.0029536
-0.0020208
-0.00122781
-0.000663095
-0.000222996
-0.188089
-0.198779
-0.205975
-0.212239
-0.217418
-0.220672
-0.221618
-0.220106
-0.21585
-0.208365
-0.197097
-0.181628
-0.16205
-0.139056
-0.114335
-0.0901723
-0.0685308
-0.0505673
-0.0365331
-0.0260415
-0.0184259
-0.0130243
-0.00921799
-0.00650516
-0.00460818
-0.00319922
-0.00217672
-0.00133056
-0.000719852
-0.000244334
-0.181691
-0.192543
-0.200034
-0.206446
-0.21174
-0.215178
-0.216323
-0.214996
-0.210941
-0.203739
-0.192915
-0.178117
-0.159458
-0.137598
-0.114048
-0.0908669
-0.069869
-0.0521937
-0.0381689
-0.0275117
-0.0196488
-0.0139844
-0.0099349
-0.00702575
-0.00496958
-0.00344815
-0.00233562
-0.00143484
-0.000777266
-0.000265352
-0.175557
-0.186479
-0.194229
-0.200777
-0.206168
-0.209769
-0.21111
-0.209979
-0.20614
-0.199236
-0.18886
-0.174722
-0.156949
-0.136169
-0.113734
-0.0914979
-0.0711333
-0.0537551
-0.039757
-0.0289526
-0.0208569
-0.0149389
-0.0106518
-0.00754824
-0.0053336
-0.00369907
-0.00249668
-0.00154012
-0.000835062
-0.00028594
-0.169713
-0.180624
-0.188591
-0.195264
-0.200739
-0.20448
-0.206011
-0.205082
-0.201472
-0.194876
-0.184949
-0.171455
-0.154533
-0.134776
-0.113397
-0.0920656
-0.0723199
-0.0552451
-0.0412894
-0.030356
-0.0220427
-0.015882
-0.0113642
-0.00806934
-0.00569795
-0.00395039
-0.00265888
-0.00164578
-0.000892909
-0.00030598
-0.164184
-0.175015
-0.183158
-0.189941
-0.195488
-0.19935
-0.201059
-0.200336
-0.196964
-0.190681
-0.181199
-0.16833
-0.152219
-0.133427
-0.113043
-0.0925707
-0.0734257
-0.0566572
-0.0427577
-0.0317132
-0.0231983
-0.0168072
-0.012067
-0.00858524
-0.00605995
-0.00420029
-0.002821
-0.00175105
-0.000950408
-0.00032535
-0.158996
-0.169688
-0.177964
-0.184845
-0.190454
-0.194419
-0.196292
-0.195773
-0.192644
-0.186676
-0.17763
-0.165361
-0.150018
-0.132128
-0.112675
-0.0930148
-0.0744477
-0.0579849
-0.0441532
-0.0330146
-0.0243151
-0.0177068
-0.0127542
-0.00909155
-0.00641648
-0.0044466
-0.0029816
-0.00185504
-0.00100709
-0.000343919
-0.154173
-0.164681
-0.173048
-0.180012
-0.185676
-0.189728
-0.19175
-0.191431
-0.188544
-0.182887
-0.174263
-0.162564
-0.147941
-0.13089
-0.112302
-0.0934002
-0.0753833
-0.0592217
-0.0454669
-0.0342503
-0.0253834
-0.0185728
-0.0134193
-0.00958327
-0.00676392
-0.00468682
-0.00313898
-0.00195669
-0.00106238
-0.000361547
-0.149738
-0.16003
-0.168451
-0.175485
-0.181198
-0.185322
-0.187477
-0.187347
-0.184697
-0.179343
-0.171122
-0.159957
-0.146002
-0.129723
-0.111929
-0.0937294
-0.0762302
-0.0603606
-0.0466893
-0.0354095
-0.0263929
-0.019396
-0.0140547
-0.0100547
-0.00709816
-0.00491808
-0.00329119
-0.00205478
-0.00111565