0.59999 	0.06 	0 	0.0855403 	0.225743 	0
0.59999 	0.1 	0 	0.0786275 	0.375249 	0
0.59999 	0.14 	-1.73472e-18 	0.1278 	0.53934 	0
0.59999 	0.18 	-3.46945e-18 	0.181383 	0.817955 	0
