/*--------------------------------*- C++ -*----------------------------------*\
  =========                 |
  \\      /  F ield         | OpenFOAM: The Open Source CFD Toolbox
   \\    /   O peration     | Website:  https://openfoam.org
    \\  /    A nd           | Version:  9
     \\/     M anipulation  |
\*---------------------------------------------------------------------------*/
FoamFile
{
    format      ascii;
    class       surfaceScalarField;
    location    "2.2";
    object      phi;
}
// * * * * * * * * * * * * * * * * * * * * * * * * * * * * * * * * * * * * * //

dimensions      [0 3 -1 0 0 0 0];

internalField   nonuniform List<scalar> 
16735
(
-0.0207149
0.0207149
-8.29965e-10
-0.0524337
0.0317189
-1.10321e-09
-0.0866629
0.0342291
-9.33295e-10
-0.117584
0.0309207
-4.74216e-10
-0.138327
0.0207439
2.47087e-10
-0.139826
0.00149869
1.12373e-09
-0.115468
-0.024358
1.92288e-09
-0.0644278
-0.0510403
2.2955e-09
0.00521868
-0.0696465
2.21996e-09
-0.091761
1.8418e-09
0.0969797
-0.019976
0.0406909
-0.0507765
0.0625194
-0.0839609
0.0674136
-0.113629
0.060589
-0.132877
0.039992
-0.132601
0.00122242
-0.106289
-0.0506706
-0.0537367
-0.103592
0.0172611
-0.140644
-0.183333
0.108833
-0.0185332
0.0592241
-0.0475317
0.0915179
-0.0786732
0.0985551
-0.105916
0.087832
-0.122298
0.0563738
-0.118736
-0.00233901
-0.0888916
-0.0805154
-0.0337461
-0.158738
0.0395068
-0.213897
-0.274153
0.130327
-0.016455
0.0756791
-0.0428351
0.117898
-0.0710215
0.126741
-0.0948059
0.111617
-0.107188
0.0687563
-0.0991591
-0.0103684
-0.0647914
-0.114883
-0.00667227
-0.216857
0.0689171
-0.289486
-0.36334
0.158104
-0.0138408
0.0895199
-0.0368812
0.140938
-0.0613164
0.151177
-0.0807814
0.131081
-0.0882722
0.0762472
-0.074938
-0.0237026
-0.0355719
-0.154249
0.0256138
-0.278043
0.102499
-0.366371
-0.449766
0.188925
-0.0108171
0.100337
-0.0299171
0.160038
-0.0499423
0.171202
-0.0644121
0.145551
-0.0663454
0.0781804
-0.04714
-0.0429081
-0.00242314
-0.198966
0.0608319
-0.341298
0.137864
-0.443403
-0.532201
0.220298
-0.00753304
0.10787
-0.0222431
0.174748
-0.0373444
0.186303
-0.0463364
0.154543
-0.042237
0.0740811
-0.0167915
-0.0683536
0.0318614
-0.247619
0.0973037
-0.40674
0.173176
-0.519275
-0.609541
0.250516
-0.00415386
0.112024
-0.0141916
0.184786
-0.0240203
0.196132
-0.0272535
0.157776
-0.016817
0.0636447
0.0148185
-0.0999891
0.0673401
-0.300141
0.133555
-0.472955
0.206991
-0.592711
-0.680974
0.278424
-0.000857916
0.112882
-0.00612193
0.19005
-0.0105157
0.200526
-0.00794057
0.155201
0.00902229
0.0466818
0.0466055
-0.137572
0.102596
-0.356131
0.168354
-0.538713
0.238124
-0.662481
-0.746075
0.303225
0.00220362
0.110678
0.00160626
0.190648
0.00262966
0.199502
0.0111494
0.146682
0.0344935
0.0233377
0.0778673
-0.180946
0.136435
-0.414698
0.200638
-0.602916
0.2657
-0.727544
-0.804766
0.324391
0.0048518
0.105826
0.00875316
0.186746
0.0151056
0.19315
0.0292441
0.132543
0.0588435
-0.00626177
0.107689
-0.229792
0.167862
-0.474871
0.229519
-0.664573
0.289161
-0.787186
-0.857229
0.341624
0.00695989
0.0988665
0.0148773
0.178829
0.0260844
0.181943
0.0455972
0.11303
0.0815236
-0.0421881
0.135371
-0.283639
0.196107
-0.535607
0.254384
-0.722849
0.308234
-0.841036
-0.903835
0.35484
0.0084322
0.0904343
0.0197357
0.167525
0.0352067
0.166472
0.0598774
0.0883595
0.102234
-0.0845446
0.160425
-0.34183
0.220645
-0.595828
0.274895
-0.777099
0.32289
-0.889031
-0.945085
0.36414
0.00922539
0.0812089
0.0231583
0.153592
0.042232
0.147398
0.0720258
0.0585657
0.12094
-0.133459
0.182551
-0.403441
0.241175
-0.654452
0.290954
-0.826878
0.333291
-0.931368
-0.981559
0.369765
0.00935343
0.0718555
0.0250901
0.137856
0.0471681
0.12532
0.0823347
0.0233991
0.137796
-0.18892
0.201586
-0.467231
0.257589
-0.710454
0.302667
-0.871957
0.339728
-0.968428
-1.01387
0.372041
0.00888756
0.0629679
0.0256197
0.121124
0.0503483
0.100591
0.0914141
-0.0176667
0.152998
-0.250504
0.217444
-0.531678
0.26994
-0.76295
0.310291
-0.912308
0.342567
-1.0007
-1.04265
0.371345
0.00795091
0.055017
0.0250029
0.104072
0.0524447
0.0731495
0.100022
-0.0652436
0.166632
-0.317114
0.230084
-0.59513
0.278411
-0.811276
0.314197
-0.948094
0.342206
-1.02871
-1.06851
0.368061
0.00670775
0.0483093
0.0236681
0.0871113
0.0543559
0.0424616
0.108798
-0.119686
0.178602
-0.386918
0.239514
-0.656042
0.283299
-0.855061
0.314831
-0.979626
0.339059
-1.05294
-1.09202
0.362569
0.00534742
0.0429618
0.0221867
0.070272
0.0569809
0.00766745
0.118014
-0.180719
0.188705
-0.457609
0.245812
-0.713149
0.284982
-0.894231
0.312669
-1.00731
0.333582
-1.07385
-1.11347
0.355041
0.00406297
0.0388989
0.0211914
0.0531436
0.0609762
-0.0321173
0.12745
-0.247192
0.196705
-0.526865
0.249143
-0.765587
0.283883
-0.928971
0.308148
-1.03158
0.32618
-1.09189
-1.13317
0.345878
0.00302635
0.0358725
0.0212384
0.0349316
0.066574
-0.0774529
0.136513
-0.317131
0.202418
-0.592769
0.249758
-0.812927
0.280406
-0.95962
0.301731
-1.0529
0.318358
-1.10851
-1.15529
0.340479
0.00236802
0.0335045
0.0226702
0.0146294
0.0735456
-0.128328
0.144514
-0.388099
0.205791
-0.654047
0.247964
-0.8551
0.274902
-0.986557
0.293707
-1.07171
0.310857
-1.12566
-1.17688
0.332446
0.00217147
0.031333
0.0255387
-0.00873782
0.081303
-0.184093
0.150917
-0.457713
0.206901
-0.71003
0.244093
-0.892293
0.267709
-1.01017
0.284662
-1.08866
0.300867
-1.14187
-1.19582
0.319808
0.00248241
0.0288506
0.0296027
-0.0358581
0.0890847
-0.243575
0.15545
-0.524079
0.205919
-0.760499
0.238471
-0.924845
0.259187
-1.03089
0.274511
-1.10398
0.29003
-1.15739
-1.21407
0.308274
0.00331571
0.0255349
0.0345155
-0.0670579
0.0961698
-0.305229
0.158077
-0.585986
0.203073
-0.805495
0.231406
-0.953177
0.249586
-1.04907
0.263587
-1.11798
0.278281
-1.17208
-1.23081
0.295025
0.00464959
0.0208853
0.0398831
-0.102291
0.102036
-0.367382
0.1589
-0.642849
0.198623
-0.845218
0.223168
-0.977723
0.239153
-1.06506
0.251971
-1.1308
0.265799
-1.18591
-1.24664
0.281627
0.00641398
0.0144713
0.0453072
-0.141185
0.106394
-0.428469
0.158073
-0.694528
0.192824
-0.879969
0.213998
-0.998896
0.228062
-1.07912
0.239813
-1.14255
0.252758
-1.19885
-1.26133
0.267449
0.00849466
0.00597667
0.0504828
-0.183173
0.109185
-0.487171
0.15576
-0.741104
0.185914
-0.910123
0.204093
-1.01708
0.216463
-1.09149
0.227202
-1.15329
0.239205
-1.21086
-1.27496
0.252837
0.0107574
-0.00478077
0.0551453
-0.227561
0.110586
-0.542612
0.152147
-0.782665
0.178102
-0.936078
0.193623
-1.0326
0.204467
-1.10233
0.214217
-1.16304
0.225241
-1.22188
-1.28744
0.237717
0.0130784
-0.0178592
0.0590847
-0.273567
0.110676
-0.594203
0.147418
-0.819407
0.169568
-0.958229
0.182722
-1.04575
0.192163
-1.11177
0.20092
-1.1718
0.210903
-1.23186
-1.29872
0.222188
0.0153627
-0.0332219
0.062161
-0.320365
0.10957
-0.641612
0.141745
-0.851582
0.160465
-0.976949
0.171499
-1.05678
0.17962
-1.1199
0.187359
-1.17954
0.196246
-1.24075
-1.30876
0.206281
0.0175435
-0.0507655
0.0643064
-0.367128
0.1074
-0.684705
0.135287
-0.879469
0.150921
-0.992583
0.16004
-1.0659
0.166892
-1.12675
0.173576
-1.18622
0.181302
-1.24848
-1.31749
0.190037
0.0195705
-0.0703359
0.0655123
-0.41307
0.104301
-0.723494
0.128188
-0.903356
0.141039
-1.00543
0.148405
-1.07327
0.15402
-1.13236
0.159602
-1.1918
0.166107
-1.25498
-1.32487
0.173485
0.0213953
-0.0917312
0.0658091
-0.457484
0.100402
-0.758086
0.120577
-0.923532
0.130903
-1.01576
0.136646
-1.07901
0.141035
-1.13675
0.145462
-1.19623
0.150691
-1.26021
-1.33084
0.156661
0.0229658
-0.114697
0.0652441
-0.499762
0.0958197
-0.788662
0.112566
-0.940278
0.12059
-1.02378
0.124806
-1.08323
0.127967
-1.13992
0.131187
-1.19945
0.135086
-1.26411
-1.33535
0.139597
0.0242292
-0.138926
0.0638602
-0.539393
0.0906616
-0.815463
0.104252
-0.953869
0.110163
-1.02969
0.112921
-1.08599
0.11484
-1.14183
0.116805
-1.20142
0.119321
-1.26663
-1.33836
0.122328
0.0251438
-0.16407
0.0618808
-0.57613
0.0850319
-0.838614
0.095716
-0.964553
0.0996728
-1.03365
0.10102
-1.08733
0.101676
-1.14249
0.102341
-1.20208
0.10343
-1.26772
-1.33982
0.104892
0.0256836
-0.189754
0.059378
-0.609824
0.0790266
-0.858263
0.0870253
-0.972552
0.0891601
-1.03579
0.0891266
-1.0873
0.0884969
-1.14186
0.0878202
-1.2014
0.0874443
-1.26734
-1.3397
0.0873226
0.0258389
-0.215593
0.0564048
-0.64039
0.072728
-0.874586
0.0782389
-0.978062
0.0786578
-1.0362
0.0772616
-1.0859
0.0753215
-1.13992
0.0732673
-1.19935
0.0713941
-1.26547
-1.33796
0.0696591
0.0256173
-0.24121
0.053026
-0.667799
0.0662093
-0.88777
0.0694061
-0.981259
0.0681922
-1.03499
0.0654423
-1.08315
0.0621686
-1.13665
0.0587044
-1.19588
0.055309
-1.26207
-1.3346
0.0519419
0.0250428
-0.266253
0.0493069
-0.692063
0.0595347
-0.897997
0.060564
-0.982289
0.0577853
-1.03221
0.0536845
-1.07905
0.0490558
-1.13202
0.0441541
-1.19098
0.0392137
-1.25713
-1.32961
0.0342225
0.0241519
-0.290405
0.0453097
-0.713221
0.052737
-0.905425
0.0517453
-0.981297
0.0474554
-1.02792
0.0420032
-1.0736
0.0359985
-1.12601
0.0296382
-1.18462
0.0231117
-1.2506
-1.32294
0.0164441
0.0229869
-0.313391
0.0410932
-0.731327
0.0458674
-0.910199
0.0429779
-0.978407
0.037219
-1.02216
0.0304127
-1.06679
0.0230107
-1.11861
0.0151679
-1.17678
0.00712549
-1.24256
-1.31441
-0.00140431
0.0215916
-0.334983
0.0367117
-0.746447
0.0389728
-0.91246
0.0342864
-0.973721
0.0270903
-1.01497
0.0189246
-1.05863
0.0101063
-1.10979
0.000683851
-1.16736
-0.00879755
-1.23308
-1.30419
-0.0190173
0.0200076
-0.354991
0.0322144
-0.758654
0.0320912
-0.912337
0.0256925
-0.967322
0.0170795
-1.00635
0.00754008
-1.04909
-0.00268723
-1.09957
-0.0134439
-1.1566
-0.0246722
-1.22185
-1.2923
-0.0365642
0.0182731
-0.373264
0.0276453
-0.768026
0.0252543
-0.909946
0.0172153
-0.959283
0.00718276
-0.996321
-0.0036936
-1.03821
-0.0152769
-1.08798
-0.0275222
-1.14436
-0.0404079
-1.20897
-1.27871
-0.0539992
0.0164226
-0.389686
0.0230435
-0.774647
0.0184882
-0.90539
0.00886784
-0.949663
-0.00256423
-0.984889
-0.0147086
-1.02607
-0.0277392
-1.07495
-0.0414799
-1.13061
-0.0559943
-1.19445
-1.26341
-0.0712889
0.0144872
-0.404173
0.0184431
-0.778603
0.0118127
-0.89876
0.000621947
-0.938472
-0.0120173
-0.97225
-0.0255887
-1.0125
-0.0400434
-1.0605
-0.0552855
-1.11537
-0.0714134
-1.17832
-1.24642
-0.0884091
0.012495
-0.416668
0.0138737
-0.779982
0.00523138
-0.890118
-0.00732828
-0.925912
-0.0213418
-0.958236
-0.0362999
-0.997538
-0.0521719
-1.04463
-0.0689136
-1.09863
-0.0866442
-1.16059
-1.22773
-0.105332
0.0104712
-0.42714
0.00936408
-0.778875
-0.00124323
-0.879511
-0.0151525
-0.912003
-0.0304952
-0.942894
-0.0468251
-0.981208
-0.0641071
-1.02734
-0.0823404
-1.0804
-0.101663
-1.14127
-1.20736
-0.122031
0.00843646
-0.435576
0.00494844
-0.775387
-0.00738065
-0.867181
-0.0228055
-0.896578
-0.039462
-0.926237
-0.0571497
-0.963521
-0.0758319
-1.00866
-0.0955435
-1.06069
-0.116445
-1.12037
-1.18533
-0.138476
0.00640554
-0.441982
0.000694527
-0.769676
-0.0134169
-0.85307
-0.0302744
-0.879721
-0.0482331
-0.908278
-0.0672608
-0.944493
-0.0873292
-0.988594
-0.108501
-1.03951
-0.130963
-1.09791
-1.16166
-0.154636
0.00439336
-0.446375
-0.00372357
-0.761559
-0.0193133
-0.83748
-0.037547
-0.861487
-0.0567975
-0.889028
-0.0771463
-0.924144
-0.0985829
-0.967157
-0.121194
-1.0169
-0.145194
-1.07391
-1.13637
-0.170482
0.00242807
-0.448803
-0.0079677
-0.751163
-0.0250551
-0.820393
-0.0446153
-0.841927
-0.0651454
-0.868498
-0.0867947
-0.902495
-0.109578
-0.944374
-0.133604
-0.992877
-0.159115
-1.0484
-1.1095
-0.185982
0.000564222
-0.449367
-0.0120418
-0.738557
-0.0306341
-0.801801
-0.0514751
-0.821086
-0.0732669
-0.846706
-0.0961945
-0.879567
-0.1203
-0.920268
-0.145714
-0.967462
-0.172706
-1.02141
-1.08111
-0.201101
-0.00147242
-0.447895
-0.0159671
-0.724062
-0.0360393
-0.781728
-0.0581215
-0.799004
-0.0811531
-0.823674
-0.105335
-0.855385
-0.130736
-0.894867
-0.157512
-0.940686
-0.185949
-0.992968
-1.05124
-0.215813
-0.00347928
-0.444416
-0.0197509
-0.707791
-0.0412593
-0.76022
-0.0645495
-0.775713
-0.0887955
-0.799428
-0.114205
-0.829976
-0.140874
-0.868198
-0.168986
-0.912574
-0.198832
-0.963122
-1.01994
-0.230131
-0.00538698
-0.439029
-0.0233935
-0.689784
-0.0462867
-0.737327
-0.0707539
-0.751246
-0.0961858
-0.773996
-0.122793
-0.803368
-0.150704
-0.840288
-0.180137
-0.883141
-0.211351
-0.931908
-0.987261
-0.244034
-0.00721438
-0.431814
-0.0268938
-0.670105
-0.0511169
-0.713104
-0.0767296
-0.725633
-0.103316
-0.74741
-0.131091
-0.775594
-0.160217
-0.811161
-0.190964
-0.852394
-0.223476
-0.899396
-0.953449
-0.257289
-0.00896593
-0.422848
-0.0302502
-0.648821
-0.0557464
-0.687607
-0.0824716
-0.698908
-0.110179
-0.719703
-0.139088
-0.746685
-0.169402
-0.780847
-0.201412
-0.820384
-0.235214
-0.865595
-0.918966
-0.269696
-0.0106424
-0.412206
-0.0334607
-0.626002
-0.0601727
-0.660895
-0.0879751
-0.671106
-0.116767
-0.690911
-0.146776
-0.716676
-0.178244
-0.749378
-0.211413
-0.787215
-0.245917
-0.831092
-0.882294
-0.282589
-0.0122434
-0.399963
-0.0365231
-0.601722
-0.0643933
-0.633025
-0.0932353
-0.642264
-0.123074
-0.661073
-0.154148
-0.685602
-0.186719
-0.716807
-0.220942
-0.752991
-0.256697
-0.795337
-0.843997
-0.294994
-0.0137676
-0.386195
-0.0394351
-0.576055
-0.0684061
-0.604054
-0.0982478
-0.612422
-0.129093
-0.630228
-0.161194
-0.653501
-0.194827
-0.683174
-0.230136
-0.717682
-0.267236
-0.758237
-0.804342
-0.306891
-0.0152139
-0.370981
-0.0421945
-0.549074
-0.0722088
-0.57404
-0.103008
-0.581623
-0.134818
-0.598417
-0.167902
-0.620418
-0.202543
-0.648533
-0.238894
-0.681331
-0.277193
-0.719937
-0.763427
-0.318108
-0.0165805
-0.354401
-0.0447991
-0.520856
-0.0757994
-0.54304
-0.107512
-0.54991
-0.140243
-0.565687
-0.174265
-0.586395
-0.209872
-0.612927
-0.247241
-0.643962
-0.286677
-0.680501
-0.721369
-0.328735
-0.0178657
-0.336535
-0.047247
-0.491474
-0.0791757
-0.511111
-0.111756
-0.517329
-0.145361
-0.532082
-0.180274
-0.551483
-0.216797
-0.576403
-0.255137
-0.605621
-0.295634
-0.640005
-0.67824
-0.338763
-0.0190674
-0.317467
-0.0495366
-0.461005
-0.0823357
-0.478312
-0.115736
-0.483929
-0.150166
-0.497651
-0.18592
-0.515729
-0.223312
-0.539012
-0.262573
-0.56636
-0.304063
-0.598515
-0.634106
-0.348196
-0.0201832
-0.297284
-0.0516664
-0.429522
-0.0852772
-0.444701
-0.119448
-0.449759
-0.154653
-0.462446
-0.191197
-0.479186
-0.229405
-0.500804
-0.269532
-0.526232
-0.311949
-0.556098
-0.589033
-0.357023
-0.0212095
-0.276075
-0.0536349
-0.397097
-0.0879985
-0.410337
-0.122888
-0.41487
-0.158816
-0.426517
-0.196096
-0.441906
-0.235068
-0.461833
-0.276003
-0.485297
-0.319281
-0.512821
-0.543083
-0.365231
-0.0221406
-0.253934
-0.0554402
-0.363797
-0.0904979
-0.37528
-0.126053
-0.379315
-0.162651
-0.389919
-0.200612
-0.403945
-0.24029
-0.422154
-0.281974
-0.443613
-0.326046
-0.468749
-0.496322
-0.372807
-0.0229625
-0.230972
-0.0570807
-0.329679
-0.0927746
-0.339586
-0.128941
-0.343149
-0.166152
-0.352708
-0.204737
-0.36536
-0.245064
-0.381826
-0.287435
-0.401242
-0.332232
-0.423952
-0.448817
-0.379737
-0.0236985
-0.207273
-0.0585576
-0.29482
-0.0948281
-0.303315
-0.131548
-0.306429
-0.169315
-0.314941
-0.208465
-0.326209
-0.249383
-0.340908
-0.292377
-0.358248
-0.33783
-0.378499
-0.40064
-0.386008
-0.0243797
-0.182893
-0.0598728
-0.259327
-0.0966573
-0.266531
-0.133871
-0.269215
-0.172136
-0.276676
-0.211793
-0.286552
-0.253239
-0.299463
-0.296791
-0.314695
-0.342829
-0.332462
-0.351862
-0.391607
-0.0249859
-0.157908
-0.061026
-0.223287
-0.0982613
-0.229295
-0.135909
-0.231567
-0.174613
-0.237973
-0.214715
-0.24645
-0.256626
-0.257552
-0.300669
-0.270651
-0.347219
-0.285912
-0.302559
-0.396522
-0.0255103
-0.132397
-0.0620161
-0.186781
-0.0996386
-0.191673
-0.13766
-0.193545
-0.176741
-0.198892
-0.217227
-0.205964
-0.259538
-0.215241
-0.304003
-0.226186
-0.350993
-0.238922
-0.252807
-0.400745
-0.0259497
-0.106448
-0.0628424
-0.149888
-0.100788
-0.153727
-0.139122
-0.155212
-0.178519
-0.159494
-0.219325
-0.165158
-0.261971
-0.172596
-0.306787
-0.181369
-0.35414
-0.191569
-0.202682
-0.404266
-0.0263024
-0.0801452
-0.0635042
-0.112686
-0.101709
-0.115522
-0.140293
-0.116628
-0.179943
-0.119843
-0.221007
-0.124094
-0.263921
-0.129682
-0.309018
-0.136272
-0.35666
-0.143927
-0.152261
-0.40708
-0.0265675
-0.0535777
-0.064001
-0.0752529
-0.1024
-0.0771231
-0.141172
-0.0778567
-0.181013
-0.0800018
-0.222271
-0.0828371
-0.265386
-0.0865669
-0.310693
-0.0909649
-0.35855
-0.0960702
-0.101624
-0.409187
-0.0267445
-0.0268331
-0.0643324
-0.0376651
-0.102861
-0.038594
-0.141758
-0.0389597
-0.181727
-0.0400328
-0.223114
-0.0414509
-0.266364
-0.0433171
-0.311811
-0.0455174
-0.359811
-0.0480706
-0.0508465
-0.410588
-0.0268331
-1.74509e-10
-0.0644982
-2.41567e-10
-0.103092
-2.34447e-10
-0.142052
-2.23243e-10
-0.182085
-2.135e-10
-0.223536
-2.04297e-10
-0.266853
-1.96359e-10
-0.31237
-1.8944e-10
-0.360441
-1.83542e-10
-1.77614e-10
-0.411287
-0.0268331
0.0268331
-0.0644982
0.0376651
-0.103092
0.038594
-0.142052
0.0389597
-0.182085
0.0400328
-0.223536
0.0414509
-0.266853
0.0433171
-0.31237
0.0455174
-0.360441
0.0480706
0.0508465
-0.411287
-0.0267445
0.0535777
-0.0643324
0.0752529
-0.102861
0.0771231
-0.141758
0.0778567
-0.181727
0.0800018
-0.223114
0.0828371
-0.266364
0.0865669
-0.311811
0.0909649
-0.359811
0.0960702
0.101624
-0.410588
-0.0265675
0.0801452
-0.064001
0.112686
-0.1024
0.115522
-0.141172
0.116628
-0.181013
0.119843
-0.222271
0.124094
-0.265386
0.129682
-0.310693
0.136272
-0.35855
0.143927
0.152261
-0.409187
-0.0263024
0.106448
-0.0635042
0.149888
-0.101709
0.153727
-0.140293
0.155212
-0.179943
0.159494
-0.221007
0.165158
-0.263921
0.172596
-0.309018
0.181369
-0.35666
0.191569
0.202682
-0.40708
-0.0259497
0.132397
-0.0628424
0.186781
-0.100788
0.191673
-0.139122
0.193545
-0.178519
0.198892
-0.219325
0.205964
-0.261971
0.215241
-0.306787
0.226186
-0.35414
0.238922
0.252807
-0.404266
-0.0255103
0.157908
-0.0620161
0.223287
-0.0996386
0.229295
-0.13766
0.231567
-0.176741
0.237973
-0.217227
0.24645
-0.259538
0.257552
-0.304003
0.270651
-0.350993
0.285912
0.302559
-0.400745
-0.0249859
0.182893
-0.061026
0.259327
-0.0982613
0.266531
-0.135909
0.269215
-0.174613
0.276676
-0.214715
0.286552
-0.256626
0.299463
-0.300669
0.314695
-0.347219
0.332462
0.351862
-0.396522
-0.0243797
0.207273
-0.0598728
0.29482
-0.0966573
0.303315
-0.133871
0.306429
-0.172136
0.314941
-0.211793
0.326209
-0.253239
0.340908
-0.296791
0.358248
-0.342829
0.378499
0.40064
-0.391607
-0.0236985
0.230972
-0.0585576
0.329679
-0.0948281
0.339586
-0.131548
0.343149
-0.169315
0.352708
-0.208465
0.36536
-0.249383
0.381826
-0.292377
0.401242
-0.33783
0.423952
0.448817
-0.386008
-0.0229625
0.253934
-0.0570807
0.363797
-0.0927746
0.37528
-0.128941
0.379315
-0.166152
0.389919
-0.204737
0.403945
-0.245064
0.422154
-0.287435
0.443613
-0.332232
0.468749
0.496322
-0.379737
-0.0221406
0.276075
-0.0554402
0.397097
-0.0904979
0.410337
-0.126053
0.41487
-0.162651
0.426517
-0.200612
0.441906
-0.24029
0.461833
-0.281974
0.485297
-0.326046
0.512821
0.543083
-0.372807
-0.0212095
0.297284
-0.0536349
0.429522
-0.0879985
0.444701
-0.122888
0.449759
-0.158816
0.462446
-0.196096
0.479186
-0.235068
0.500804
-0.276003
0.526232
-0.319281
0.556098
0.589033
-0.365231
-0.0201832
0.317467
-0.0516664
0.461005
-0.0852772
0.478312
-0.119448
0.483929
-0.154653
0.497651
-0.191197
0.515729
-0.229405
0.539012
-0.269532
0.56636
-0.311949
0.598515
0.634106
-0.357023
-0.0190674
0.336535
-0.0495366
0.491474
-0.0823357
0.511111
-0.115736
0.517329
-0.150166
0.532082
-0.18592
0.551483
-0.223312
0.576403
-0.262573
0.605621
-0.304063
0.640005
0.67824
-0.348196
-0.0178657
0.354401
-0.047247
0.520856
-0.0791757
0.54304
-0.111756
0.54991
-0.145361
0.565687
-0.180274
0.586395
-0.216797
0.612927
-0.255137
0.643962
-0.295634
0.680501
0.721369
-0.338763
-0.0165805
0.370981
-0.0447991
0.549074
-0.0757994
0.57404
-0.107512
0.581623
-0.140243
0.598417
-0.174265
0.620418
-0.209872
0.648533
-0.247241
0.681331
-0.286677
0.719937
0.763427
-0.328735
-0.0152139
0.386195
-0.0421945
0.576055
-0.0722088
0.604054
-0.103008
0.612422
-0.134818
0.630228
-0.167902
0.653501
-0.202543
0.683174
-0.238894
0.717682
-0.277193
0.758237
0.804342
-0.318108
-0.0137676
0.399963
-0.0394351
0.601722
-0.0684061
0.633025
-0.0982478
0.642264
-0.129093
0.661073
-0.161194
0.685602
-0.194827
0.716807
-0.230136
0.752991
-0.267236
0.795337
0.843997
-0.306891
-0.0122434
0.412206
-0.0365231
0.626002
-0.0643933
0.660895
-0.0932353
0.671106
-0.123074
0.690911
-0.154148
0.716676
-0.186719
0.749378
-0.220942
0.787215
-0.256697
0.831092
0.882294
-0.294994
-0.0106424
0.422848
-0.0334607
0.648821
-0.0601727
0.687607
-0.0879751
0.698908
-0.116767
0.719703
-0.146776
0.746685
-0.178244
0.780847
-0.211413
0.820384
-0.245917
0.865595
0.918966
-0.282589
-0.00896593
0.431814
-0.0302502
0.670105
-0.0557464
0.713104
-0.0824716
0.725633
-0.110179
0.74741
-0.139088
0.775594
-0.169402
0.811161
-0.201412
0.852394
-0.235214
0.899396
0.953449
-0.269696
-0.00721438
0.439029
-0.0268938
0.689784
-0.0511169
0.737327
-0.0767296
0.751246
-0.103316
0.773996
-0.131091
0.803368
-0.160217
0.840288
-0.190964
0.883141
-0.223476
0.931908
0.987261
-0.257289
-0.00538698
0.444416
-0.0233935
0.707791
-0.0462867
0.76022
-0.0707539
0.775713
-0.0961858
0.799428
-0.122793
0.829976
-0.150704
0.868198
-0.180137
0.912574
-0.211351
0.963122
1.01994
-0.244034
-0.00347928
0.447895
-0.0197509
0.724062
-0.0412593
0.781728
-0.0645495
0.799004
-0.0887955
0.823674
-0.114205
0.855385
-0.140874
0.894867
-0.168986
0.940686
-0.198832
0.992968
1.05124
-0.230131
-0.00147242
0.449367
-0.0159671
0.738557
-0.0360393
0.801801
-0.0581215
0.821086
-0.0811531
0.846706
-0.105335
0.879567
-0.130736
0.920268
-0.157512
0.967462
-0.185949
1.02141
1.08111
-0.215813
0.000564222
0.448803
-0.0120418
0.751163
-0.0306341
0.820393
-0.0514751
0.841927
-0.0732669
0.868498
-0.0961945
0.902495
-0.1203
0.944374
-0.145714
0.992877
-0.172706
1.0484
1.1095
-0.201101
0.00242807
0.446375
-0.0079677
0.761559
-0.0250551
0.83748
-0.0446153
0.861487
-0.0651454
0.889028
-0.0867947
0.924144
-0.109578
0.967157
-0.133604
1.0169
-0.159115
1.07391
1.13637
-0.185982
0.00439336
0.441982
-0.00372357
0.769676
-0.0193133
0.85307
-0.037547
0.879721
-0.0567975
0.908278
-0.0771463
0.944493
-0.0985829
0.988594
-0.121194
1.03951
-0.145194
1.09791
1.16166
-0.170482
0.00640554
0.435576
0.000694527
0.775387
-0.0134169
0.867181
-0.0302744
0.896578
-0.0482331
0.926237
-0.0672608
0.963521
-0.0873292
1.00866
-0.108501
1.06069
-0.130963
1.12037
1.18533
-0.154636
0.00843646
0.42714
0.00494844
0.778875
-0.00738065
0.879511
-0.0228055
0.912003
-0.039462
0.942894
-0.0571497
0.981208
-0.0758319
1.02734
-0.0955435
1.0804
-0.116445
1.14127
1.20736
-0.138476
0.0104712
0.416668
0.00936408
0.779982
-0.00124323
0.890118
-0.0151525
0.925912
-0.0304952
0.958236
-0.0468251
0.997538
-0.0641071
1.04463
-0.0823404
1.09863
-0.101663
1.16059
1.22773
-0.122031
0.012495
0.404173
0.0138737
0.778603
0.00523138
0.89876
-0.00732828
0.938472
-0.0213418
0.97225
-0.0362999
1.0125
-0.0521719
1.0605
-0.0689136
1.11537
-0.0866442
1.17832
1.24642
-0.105332
0.0144872
0.389686
0.0184431
0.774647
0.0118127
0.90539
0.000621947
0.949663
-0.0120173
0.984889
-0.0255887
1.02607
-0.0400434
1.07495
-0.0552855
1.13061
-0.0714134
1.19445
1.26341
-0.0884091
0.0164226
0.373264
0.0230435
0.768026
0.0184882
0.909946
0.00886784
0.959283
-0.00256423
0.996321
-0.0147086
1.03821
-0.0277392
1.08798
-0.0414799
1.14436
-0.0559943
1.20897
1.27871
-0.0712889
0.0182731
0.354991
0.0276453
0.758654
0.0252543
0.912337
0.0172153
0.967322
0.00718276
1.00635
-0.0036936
1.04909
-0.0152769
1.09957
-0.0275222
1.1566
-0.0404079
1.22185
1.2923
-0.0539992
0.0200076
0.334983
0.0322144
0.746447
0.0320912
0.91246
0.0256925
0.973721
0.0170795
1.01497
0.00754008
1.05863
-0.00268723
1.10979
-0.0134439
1.16736
-0.0246722
1.23308
1.30419
-0.0365642
0.0215916
0.313391
0.0367117
0.731327
0.0389728
0.910199
0.0342864
0.978407
0.0270903
1.02216
0.0189246
1.06679
0.0101063
1.11861
0.000683851
1.17678
-0.00879755
1.24256
1.31441
-0.0190173
0.0229869
0.290405
0.0410932
0.713221
0.0458674
0.905425
0.0429779
0.981297
0.037219
1.02792
0.0304127
1.0736
0.0230107
1.12601
0.0151679
1.18462
0.00712549
1.2506
1.32294
-0.00140431
0.0241519
0.266253
0.0453097
0.692063
0.052737
0.897997
0.0517453
0.982289
0.0474554
1.03221
0.0420032
1.07905
0.0359985
1.13202
0.0296382
1.19098
0.0231117
1.25713
1.32961
0.0164441
0.0250428
0.24121
0.0493069
0.667799
0.0595347
0.88777
0.060564
0.981259
0.0577853
1.03499
0.0536845
1.08315
0.0490558
1.13665
0.0441541
1.19588
0.0392137
1.26207
1.3346
0.0342225
0.0256173
0.215593
0.053026
0.64039
0.0662093
0.874586
0.0694061
0.978062
0.0681922
1.0362
0.0654423
1.0859
0.0621686
1.13992
0.0587044
1.19935
0.055309
1.26547
1.33796
0.0519419
0.0258389
0.189754
0.0564048
0.609824
0.072728
0.858263
0.0782389
0.972552
0.0786578
1.03579
0.0772616
1.0873
0.0753215
1.14186
0.0732673
1.2014
0.0713941
1.26734
1.3397
0.0696591
0.0256836
0.16407
0.059378
0.57613
0.0790266
0.838614
0.0870253
0.964553
0.0891601
1.03365
0.0891266
1.08733
0.0884969
1.14249
0.0878202
1.20208
0.0874443
1.26772
1.33982
0.0873226
0.0251438
0.138926
0.0618808
0.539393
0.0850319
0.815463
0.095716
0.953869
0.0996728
1.02969
0.10102
1.08599
0.101676
1.14183
0.102341
1.20142
0.10343
1.26663
1.33836
0.104892
0.0242292
0.114697
0.0638602
0.499762
0.0906616
0.788662
0.104252
0.940278
0.110163
1.02378
0.112921
1.08323
0.11484
1.13992
0.116805
1.19945
0.119321
1.26411
1.33535
0.122328
0.0229658
0.0917312
0.0652441
0.457484
0.0958197
0.758086
0.112566
0.923532
0.12059
1.01576
0.124806
1.07901
0.127967
1.13675
0.131187
1.19623
0.135086
1.26021
1.33084
0.139597
0.0213953
0.0703359
0.0658091
0.41307
0.100402
0.723494
0.120577
0.903356
0.130903
1.00543
0.136646
1.07327
0.141035
1.13236
0.145462
1.1918
0.150691
1.25498
1.32487
0.156661
0.0195705
0.0507655
0.0655123
0.367128
0.104301
0.684705
0.128188
0.879469
0.141039
0.992583
0.148405
1.0659
0.15402
1.12675
0.159602
1.18622
0.166107
1.24848
1.31749
0.173485
0.0175435
0.0332219
0.0643064
0.320365
0.1074
0.641612
0.135287
0.851582
0.150921
0.976949
0.16004
1.05678
0.166892
1.1199
0.173576
1.17954
0.181302
1.24075
1.30876
0.190037
0.0153627
0.0178592
0.062161
0.273567
0.10957
0.594203
0.141745
0.819407
0.160465
0.958229
0.171499
1.04575
0.17962
1.11177
0.187359
1.1718
0.196246
1.23186
1.29872
0.206281
0.0130784
0.00478077
0.0590847
0.227561
0.110676
0.542612
0.147418
0.782665
0.169568
0.936078
0.182722
1.0326
0.192163
1.10233
0.20092
1.16304
0.210903
1.22188
1.28744
0.222188
0.0107574
-0.00597667
0.0551453
0.183173
0.110586
0.487171
0.152147
0.741104
0.178102
0.910123
0.193623
1.01708
0.204467
1.09149
0.214217
1.15329
0.225241
1.21086
1.27496
0.237717
0.00849466
-0.0144713
0.0504828
0.141185
0.109185
0.428469
0.15576
0.694528
0.185914
0.879969
0.204093
0.998896
0.216463
1.07912
0.227202
1.14255
0.239205
1.19885
1.26133
0.252837
0.00641398
-0.0208853
0.0453072
0.102291
0.106394
0.367382
0.158073
0.642849
0.192824
0.845218
0.213998
0.977723
0.228062
1.06506
0.239813
1.1308
0.252758
1.18591
1.24664
0.267449
0.00464959
-0.0255349
0.0398831
0.0670579
0.102036
0.305229
0.1589
0.585986
0.198623
0.805495
0.223168
0.953177
0.239153
1.04907
0.251971
1.11798
0.265799
1.17208
1.23081
0.281627
0.00331571
-0.0288506
0.0345155
0.0358581
0.0961698
0.243575
0.158077
0.524079
0.203073
0.760499
0.231406
0.924845
0.249586
1.03089
0.263587
1.10398
0.278281
1.15739
1.21407
0.295025
0.00248241
-0.031333
0.0296027
0.00873782
0.0890847
0.184093
0.15545
0.457713
0.205919
0.71003
0.238471
0.892293
0.259187
1.01017
0.274511
1.08866
0.29003
1.14187
1.19582
0.308274
0.00217147
-0.0335045
0.0255387
-0.0146294
0.081303
0.128328
0.150917
0.388099
0.206901
0.654047
0.244093
0.8551
0.267709
0.986557
0.284662
1.07171
0.300867
1.12566
1.17688
0.319808
0.00236802
-0.0358725
0.0226702
-0.0349316
0.0735456
0.0774529
0.144514
0.317131
0.205791
0.592769
0.247964
0.812927
0.274902
0.95962
0.293707
1.0529
0.310857
1.10851
1.15529
0.332446
0.00302635
-0.0388989
0.0212384
-0.0531436
0.066574
0.0321173
0.136513
0.247192
0.202418
0.526865
0.249758
0.765587
0.280406
0.928971
0.301731
1.03158
0.318358
1.09189
1.13317
0.340479
0.00406297
-0.0429618
0.0211914
-0.070272
0.0609762
-0.00766745
0.12745
0.180719
0.196705
0.457609
0.249143
0.713149
0.283883
0.894231
0.308148
1.00731
0.32618
1.07385
1.11347
0.345878
0.00534742
-0.0483093
0.0221867
-0.0871113
0.0569809
-0.0424616
0.118014
0.119686
0.188705
0.386918
0.245812
0.656042
0.284982
0.855061
0.312669
0.979626
0.333582
1.05294
1.09202
0.355041
0.00670775
-0.055017
0.0236681
-0.104072
0.0543559
-0.0731495
0.108798
0.0652436
0.178602
0.317114
0.239514
0.59513
0.283299
0.811276
0.314831
0.948094
0.339059
1.02871
1.06851
0.362569
0.00795091
-0.0629679
0.0250029
-0.121124
0.0524447
-0.100591
0.100022
0.0176667
0.166632
0.250504
0.230084
0.531678
0.278411
0.76295
0.314197
0.912308
0.342206
1.0007
1.04265
0.368061
0.00888756
-0.0718555
0.0256197
-0.137856
0.0503483
-0.12532
0.0914141
-0.0233991
0.152998
0.18892
0.217444
0.467231
0.26994
0.710454
0.310291
0.871957
0.342567
0.968428
1.01387
0.371345
0.00935343
-0.0812089
0.0250901
-0.153592
0.0471681
-0.147398
0.0823347
-0.0585657
0.137796
0.133459
0.201586
0.403441
0.257589
0.654452
0.302667
0.826878
0.339728
0.931368
0.981559
0.372041
0.00922539
-0.0904343
0.0231583
-0.167525
0.042232
-0.166472
0.0720258
-0.0883595
0.12094
0.0845446
0.182551
0.34183
0.241175
0.595828
0.290954
0.777099
0.333291
0.889031
0.945085
0.369765
0.0084322
-0.0988665
0.0197357
-0.178829
0.0352067
-0.181943
0.0598774
-0.11303
0.102234
0.0421881
0.160425
0.283639
0.220645
0.535607
0.274895
0.722849
0.32289
0.841036
0.903835
0.36414
0.00695989
-0.105826
0.0148773
-0.186746
0.0260844
-0.19315
0.0455972
-0.132543
0.0815236
0.00626177
0.135371
0.229792
0.196107
0.474871
0.254384
0.664573
0.308234
0.787186
0.857229
0.35484
0.0048518
-0.110678
0.00875316
-0.190648
0.0151056
-0.199502
0.0292441
-0.146682
0.0588435
-0.0233377
0.107689
0.180946
0.167862
0.414698
0.229519
0.602916
0.289161
0.727544
0.804766
0.341624
0.00220362
-0.112882
0.00160626
-0.19005
0.00262966
-0.200526
0.0111494
-0.155201
0.0344935
-0.0466818
0.0778673
0.137572
0.136435
0.356131
0.200638
0.538713
0.2657
0.662481
0.746075
0.324391
-0.000857916
-0.112024
-0.00612193
-0.184786
-0.0105157
-0.196132
-0.00794057
-0.157776
0.00902229
-0.0636447
0.0466055