/*--------------------------------*- C++ -*----------------------------------*\
  =========                 |
  \\      /  F ield         | OpenFOAM: The Open Source CFD Toolbox
   \\    /   O peration     | Website:  https://openfoam.org
    \\  /    A nd           | Version:  9
     \\/     M anipulation  |
\*---------------------------------------------------------------------------*/
FoamFile
{
    format      ascii;
    class       volVectorField;
    location    "2.2";
    object      U;
}
// * * * * * * * * * * * * * * * * * * * * * * * * * * * * * * * * * * * * * //

dimensions      [0 1 -1 0 0 0 0];

internalField   nonuniform List<vector> 
8500
(
(-0.0539266 0.0178353 0)
(-0.190304 0.022998 -8.82449e-23)
(-0.336875 0.0200785 -4.98845e-24)
(-0.436417 0.0137656 1.03829e-36)
(-0.492771 0.00423411 -1.4544e-23)
(-0.47774 -0.00831243 1.21099e-23)
(-0.397419 -0.0216304 -6.03031e-23)
(-0.245134 -0.0318177 -5.93466e-23)
(-0.0790863 -0.0356849 -2.6027e-23)
(0.117133 -0.0395517 -6.0505e-25)
(-0.0544407 0.0528855 2.43062e-22)
(-0.187875 0.0684758 8.29223e-23)
(-0.330276 0.0599128 3.57047e-22)
(-0.425453 0.0411128 0)
(-0.476807 0.0126706 0)
(-0.456042 -0.024751 2.0944e-23)
(-0.369915 -0.0645172 4.28162e-23)
(-0.212804 -0.0945212 6.21878e-23)
(-0.0459335 -0.10596 2.10715e-23)
(0.153108 -0.116613 2.76645e-24)
(-0.0554032 0.0861033 -2.15835e-22)
(-0.183097 0.112411 0)
(-0.317327 0.0987837 -3.35536e-22)
(-0.403968 0.0679175 0)
(-0.445627 0.0210157 -6.06812e-23)
(-0.413938 -0.0407971 5.05253e-23)
(-0.317022 -0.10624 0)
(-0.15156 -0.154502 0)
(0.016498 -0.173112 0)
(0.218841 -0.187981 0)
(-0.05669 0.11636 4.53521e-22)
(-0.176132 0.153816 -3.46292e-22)
(-0.298508 0.136063 -8.64664e-23)
(-0.372798 0.0938427 -5.83992e-22)
(-0.400643 0.0292476 -5.96476e-22)
(-0.353628 -0.0561289 4.56595e-23)
(-0.242096 -0.145902 -3.8122e-23)
(-0.0667964 -0.210124 2.79934e-22)
(0.102141 -0.235313 1.37069e-23)
(0.305108 -0.251052 4.14588e-23)
(-0.0581345 0.142664 -4.5352e-22)
(-0.167213 0.191756 -4.68623e-22)
(-0.2745 0.171136 1.3467e-22)
(-0.333087 0.118567 7.81081e-22)
(-0.343639 0.0373695 -8.7027e-23)
(-0.277746 -0.0702566 8.66803e-22)
(-0.148872 -0.182612 0)
(0.0358412 -0.260015 -3.086e-22)
(0.204474 -0.290645 -2.5939e-23)
(0.40318 -0.304245 -6.09466e-23)
(-0.0595477 0.164201 1.2041e-22)
(-0.156643 0.225369 7.63594e-22)
(-0.246154 0.203396 -6.41975e-22)
(-0.286219 0.141758 -4.87556e-24)
(-0.276642 0.0453341 -6.62326e-22)
(-0.189061 -0.0828834 2.59517e-22)
(-0.0409622 -0.215613 -8.5283e-23)
(0.151447 -0.302783 4.40872e-22)
(0.317601 -0.33746 -5.99831e-23)
(0.50632 -0.34665 5.03854e-23)
(-0.0607433 0.180377 6.13903e-23)
(-0.144795 0.253887 0)
(-0.214463 0.232228 -1.78525e-23)
(-0.233778 0.163045 0)
(-0.20185 0.052979 1.14627e-21)
(-0.0904076 -0.0938908 -9.09858e-22)
(0.0780447 -0.243474 0)
(0.275883 -0.337776 3.0444e-23)
(0.43619 -0.374768 0)
(0.609635 -0.377884 0)
(-0.0615598 0.190845 -1.02774e-21)
(-0.132105 0.276658 -1.11704e-22)
(-0.180533 0.257005 8.46358e-22)
(-0.177521 0.181996 1.76308e-22)
(-0.121589 0.0599523 -1.22113e-21)
(0.0156084 -0.103158 -7.49813e-22)
(0.204113 -0.265228 -9.41144e-23)
(0.404543 -0.364532 5.4163e-22)
(0.555647 -0.402027 -7.22715e-23)
(0.709444 -0.398113 1.76857e-23)
(-0.0618813 0.19553 1.15996e-21)
(-0.119063 0.293169 -8.84505e-22)
(-0.145549 0.277103 -2.96285e-22)
(-0.119354 0.198083 1.67465e-22)
(-0.0381945 0.0656412 1.21923e-21)
(0.12625 -0.11061 1.10283e-21)
(0.333676 -0.281221 -9.76142e-23)
(0.533178 -0.382515 1.39844e-22)
(0.671842 -0.419189 -1.26202e-22)
(0.802921 -0.408071 4.07962e-23)
(-0.0616441 0.194619 1.07957e-21)
(-0.106192 0.30306 8.89849e-22)
(-0.110733 0.291893 -1.37586e-21)
(-0.0612525 0.21053 -1.69642e-22)
(0.0460582 0.0693842 0)
(0.238949 -0.11656 0)
(0.463178 -0.291646 0)
(0.657944 -0.391904 -1.84176e-21)
(0.781314 -0.426693 -5.41421e-22)
(0.88802 -0.408939 2.77003e-22)
(-0.0608448 0.188569 -2.17958e-21)
(-0.0939878 0.306079 0)
(-0.0773061 0.300699 3.16961e-21)
(-0.00513717 0.218446 1.42493e-21)
(0.129294 0.0704723 1.5274e-22)
(0.351593 -0.121619 0)
(0.589442 -0.296814 -1.51757e-21)
(0.775567 -0.393346 9.39257e-22)
(0.881441 -0.425413 5.41413e-22)
(0.963447 -0.402163 -2.77001e-22)
(-0.0595639 0.178088 1.23906e-21)
(-0.0829048 0.302162 -1.14132e-22)
(-0.0463473 0.302947 -1.58866e-21)
(0.0473671 0.220907 -1.60869e-21)
(0.210488 0.0680379 0)
(0.462618 -0.126323 2.07383e-21)
(0.709838 -0.297206 -4.67882e-24)
(0.883513 -0.387782 8.73922e-22)
(0.970502 -0.416554 6.76152e-22)
(1.0286 -0.389285 -3.23172e-22)
(-0.0579343 0.164092 -1.63206e-25)
(-0.0733203 0.291584 1.96153e-21)
(-0.0187863 0.29834 -1.9359e-22)
(0.0952456 0.216949 1.22063e-21)
(0.289803 0.0613591 7.79903e-22)
(0.571032 -0.130944 4.82956e-22)
(0.822305 -0.293314 1.48822e-21)
(0.980045 -0.376306 -1.12101e-21)
(1.04764 -0.401483 -4.62644e-22)
(1.08348 -0.371814 2.17826e-22)
(-0.056126 0.147642 0)
(-0.0654474 0.274929 -1.60738e-21)
(0.00477675 0.286781 -1.93057e-22)
(0.138591 0.205751 -2.1596e-23)
(0.368666 0.0502504 1.24299e-21)
(0.676213 -0.13537 -1.81228e-21)
(0.925297 -0.285589 1.45817e-21)
(1.06419 -0.360058 -1.4108e-22)
(1.11276 -0.381603 0)
(1.12856 -0.351155 0)
(-0.0543336 0.129861 1.42831e-22)
(-0.0592883 0.253078 -1.83945e-21)
(0.0242881 0.268377 0)
(0.179172 0.18702 -2.02055e-22)
(0.449378 0.0353114 1.46299e-22)
(0.777552 -0.139115 0)
(1.01771 -0.274453 -1.4907e-21)
(1.13567 -0.340164 -9.67385e-22)
(1.16634 -0.358242 1.30856e-22)
(1.16463 -0.328554 -1.09972e-22)
(-0.0527571 0.111838 -1.41809e-22)
(-0.0546072 0.227188 1.95585e-21)
(0.0405263 0.243483 0)
(0.22066 0.161528 -1.52792e-21)
(0.534179 0.0179119 1.43161e-22)
(0.874143 -0.141454 -1.92344e-21)
(1.09884 -0.260336 -1.62842e-22)
(1.1948 -0.317675 1.10368e-21)
(1.20928 -0.332566 0)
(1.19265 -0.305032 7.33731e-22)
(-0.0515726 0.0945343 -2.16415e-21)
(-0.0509037 0.198605 -1.16434e-22)
(0.055461 0.212807 -1.94071e-22)
(0.268191 0.131351 1.60521e-22)
(0.624062 -6.85761e-05 -2.27816e-21)
(0.964704 -0.141644 1.92341e-21)
(1.16837 -0.243713 1.37942e-21)
(1.24238 -0.293538 9.30949e-22)
(1.24273 -0.305488 1.2067e-21)
(1.21354 -0.281301 -6.51583e-22)
(-0.050894 0.0787148 2.30601e-21)
(-0.0473721 0.168716 0)
(0.0724619 0.177602 1.68911e-21)
(0.326962 0.099551 -1.58077e-22)
(0.718015 -0.0166546 4.50455e-21)
(1.04778 -0.139148 0)
(1.22642 -0.225131 -1.37942e-21)
(1.27957 -0.268539 -2.20496e-23)
(1.26791 -0.277607 -1.33761e-21)
(1.22812 -0.257845 1.10024e-22)
(-0.0507335 0.0648904 0)
(-0.0428536 0.13877 1.82436e-21)
(0.0960654 0.139904 -1.498e-21)
(0.400138 0.0694358 0)
(0.813202 -0.0302128 -2.22639e-21)
(1.12207 -0.133741 0)
(1.27356 -0.20519 1.29099e-21)
(1.30776 -0.243245 -9.08898e-22)
(1.28607 -0.249272 -1.16571e-21)
(1.23729 -0.235385 -7.28573e-22)
(-0.0509772 0.053294 -2.84368e-22)
(-0.0358182 0.109729 -1.59095e-21)
(0.131128 0.102602 0)
(0.487364 0.0435642 0)
(0.905994 -0.0397419 0)
(1.18672 -0.125511 -2.03845e-22)
(1.31075 -0.184473 -1.31582e-21)
(1.32843 -0.21797 -1.21678e-22)
(1.29847 -0.220968 1.16572e-21)
(1.24292 -0.215225 8.13768e-22)
(-0.0513875 0.0438799 0)
(-0.0244372 0.0822116 -1.8365e-21)
(0.181461 0.0689986 0)
(0.584875 0.0232079 0)
(0.993101 -0.0448734 0)
(1.24149 -0.114792 1.97402e-22)
(1.3392 -0.16346 -1.51307e-21)
(1.34295 -0.192902 7.37152e-23)
(1.30649 -0.193898 8.31964e-22)
(1.24695 -0.200804 7.56124e-22)
(-0.0516274 0.0363522 0)
(-0.00676614 0.05657 1.8365e-21)
(0.248457 0.0418703 -1.48235e-21)
(0.687041 0.0086162 0)
(1.07223 -0.0457138 -2.0548e-21)
(1.28667 -0.102048 0)
(1.36019 -0.14248 1.20729e-21)
(1.35244 -0.168367 -8.17215e-22)
(1.31117 -0.16997 -1.11837e-21)
(1.25759 -0.175575 -7.30856e-22)
(-0.0512864 0.0302231 2.38381e-21)
(0.0190186 0.0331128 0)
(0.330503 0.0225308 1.29639e-21)
(0.788287 -0.000455923 1.53792e-22)
(1.14222 -0.0426566 4.07407e-21)
(1.32301 -0.0877551 0)
(1.37498 -0.121748 -1.1336e-21)
(1.3579 -0.144916 -1.61293e-21)
(1.31439 -0.146868 -9.55133e-22)
(1.26199 -0.155808 -2.26347e-23)
(-0.0498834 0.0248933 -2.53056e-21)
(0.0543513 0.0123716 1.20455e-22)
(0.423622 0.0106281 1.86833e-22)
(0.884343 -0.00442619 -1.5453e-22)
(1.20275 -0.0362307 -2.01928e-21)
(1.35145 -0.072338 1.51676e-21)
(1.38469 -0.101457 1.1336e-21)
(1.36042 -0.122421 7.95715e-22)
(1.31538 -0.125743 1.07833e-21)
(1.26626 -0.135699 -8.06925e-22)
(-0.0468515 0.0197547 1.48871e-22)
(0.0999766 -0.00479055 1.79607e-21)
(0.522857 0.00486953 0)
(0.97261 -0.00380123 -1.08493e-21)
(1.25408 -0.0269978 -1.25842e-22)
(1.37306 -0.0561503 -1.51676e-21)
(1.39036 -0.0816701 1.25509e-22)
(1.36058 -0.101056 6.5025e-22)
(1.3153 -0.105629 0)
(1.2682 -0.116592 7.25952e-22)
(-0.0415312 0.0143 -1.55093e-22)
(0.15578 -0.0174044 -1.91825e-21)
(0.623543 0.00397785 0)
(1.05192 0.00086177 1.49664e-22)
(1.29678 -0.015488 -1.25038e-22)
(1.38886 -0.0394597 0)
(1.39285 -0.0624395 -1.0411e-21)
(1.35909 -0.0806711 -7.55308e-22)
(1.31397 -0.0866637 -1.17961e-22)
(1.26921 -0.0984104 -9.92007e-23)
(-0.0332107 0.00822582 0)
(0.220736 -0.0247779 -2.21637e-21)
(0.721962 0.00713433 1.98853e-22)
(1.12206 0.0090104 -3.46409e-25)
(1.3316 -0.00216418 -9.49306e-22)
(1.39981 -0.0224681 -1.57441e-21)
(1.39288 -0.0437496 1.1802e-21)
(1.3563 -0.0612294 0)
(1.31188 -0.0685987 0)
(1.2691 -0.08085 0)
(-0.0212008 0.0015282 4.88678e-24)
(0.293075 -0.0267614 1.85853e-21)
(0.815429 0.0138724 2.02121e-22)
(1.18328 0.0201471 1.38655e-21)
(1.35938 0.0125898 8.2589e-22)
(1.40674 -0.00531714 -1.30481e-22)
(1.39102 -0.0255767 1.00778e-21)
(1.35258 -0.0426154 -6.02364e-22)
(1.30905 -0.0513486 -6.01016e-22)
(1.2682 -0.0640785 4.3749e-22)
(-0.00491685 -0.00546563 1.18072e-21)
(0.370673 -0.0237182 1.31491e-22)
(0.902252 0.0238413 -1.62984e-21)
(1.236 0.0338495 -1.23602e-21)
(1.38098 0.0284629 0)
(1.41038 0.0118944 1.37578e-21)
(1.3877 -0.0078751 -2.50413e-23)
(1.34813 -0.0247467 7.78902e-22)
(1.30566 -0.0348248 4.20821e-22)
(1.26656 -0.0478738 -3.41995e-22)
(0.0160352 -0.0121323 -2.71227e-21)
(0.451361 -0.0162577 0)
(0.981534 0.0367289 3.28082e-21)
(1.28076 0.0497363 1.08947e-21)
(1.39719 0.0451926 1.21649e-22)
(1.41131 0.0291005 0)
(1.38326 0.00939956 -9.63022e-22)
(1.3431 -0.00753897 6.63403e-22)
(1.30176 -0.0189403 4.64162e-22)
(1.26429 -0.0322839 -3.26727e-22)
(0.0417889 -0.0176709 1.37134e-21)
(0.533127 -0.00495984 1.05795e-21)
(1.05286 0.052253 -1.84842e-21)
(1.31813 0.0674236 1.63313e-22)
(1.40874 0.0625639 0)
(1.41004 0.0462592 0)
(1.37791 0.0262906 0)
(1.33758 0.00907698 -1.30863e-21)
(1.29741 -0.00364162 -4.64166e-22)
(1.26141 -0.0172291 3.26715e-22)
(0.0722327 -0.0212894 1.25885e-21)
(0.614194 0.0097487 -1.04868e-21)
(1.11618 0.0701432 1.07467e-22)
(1.34872 0.0865468 0)
(1.4163 0.0804053 8.79173e-22)
(1.40695 0.0633452 5.53937e-22)
(1.37182 0.0428333 6.16126e-23)
(1.33164 0.0251579 -5.47772e-23)
(1.29262 0.0111268 1.12884e-22)
(1.25798 -0.00271297 -4.32104e-23)
(0.107038 -0.0223583 -1.42907e-21)
(0.693028 0.0275836 1.32121e-22)
(1.17169 0.0901404 8.32226e-22)
(1.37312 0.106773 -2.24243e-22)
(1.42042 0.0985814 -6.59521e-22)
(1.40235 0.0803425 -7.84165e-22)
(1.3651 0.0590538 6.00594e-23)
(1.32528 0.0407492 3.22859e-22)
(1.28741 0.0254 0)
(1.25402 0.0112941 -3.44542e-23)
(0.145676 -0.0204927 -9.17311e-23)
(0.768318 0.0483254 0)
(1.21975 0.111988 4.34659e-25)
(1.39191 0.12781 0)
(1.42157 0.116983 8.4733e-22)
(1.39648 0.0972371 -5.9696e-22)
(1.3578 0.0749688 0)
(1.31851 0.0558855 9.82651e-24)
(1.28179 0.0392107 0)
(1.24955 0.0247951 0)
(0.187461 -0.0155566 -1.82866e-22)
(0.838962 0.0717488 1.20987e-21)
(1.2608 0.13542 -9.40746e-22)
(1.40563 0.149414 1.50496e-22)
(1.42015 0.13552 -3.92861e-22)
(1.38951 0.114012 -6.46436e-23)
(1.34997 0.0905879 0)
(1.31133 0.0705922 2.27492e-22)
(1.27574 0.0525802 5.58078e-23)
(1.24457 0.0378052 1.38322e-22)
(0.23161 -0.00759161 -7.59001e-22)
(0.904099 0.0975766 -4.9306e-22)
(1.29532 0.160169 -1.53336e-22)
(1.41482 0.171393 5.9753e-22)
(1.41647 0.154113 4.70104e-23)
(1.38155 0.130647 5.8076e-22)
(1.3416 0.105912 0)
(1.3037 0.0848844 -2.73166e-22)
(1.26926 0.0655272 4.46202e-23)
(1.23911 0.0503318 -3.08106e-22)
(0.27729 0.00327567 -7.59e-22)
(0.963205 0.125471 5.07283e-22)
(1.32365 0.185977 -7.84242e-24)
(1.41993 0.193597 -6.91664e-22)
(1.41079 0.172693 -3.49937e-22)
(1.37268 0.147115 -3.194e-23)
(1.3327 0.120935 2.66686e-23)
(1.29563 0.0987694 3.03919e-22)
(1.26235 0.0780631 -4.45398e-24)
(1.23316 0.0623835 9.96863e-23)
(0.323656 0.0168834 -3.86144e-22)
(1.01609 0.155104 0)
(1.34614 0.212616 -4.10397e-22)
(1.42137 0.215889 0)
(1.40334 0.191192 -4.3981e-22)
(1.36296 0.163381 3.72525e-23)
(1.32325 0.135639 0)
(1.28708 0.112246 0)
(1.25499 0.0901947 0)
(1.22675 0.0739649 0)
(0.369878 0.0330721 3.38636e-22)
(1.06266 0.186174 1.6526e-22)
(1.36314 0.23985 4.104e-22)
(1.41948 0.238139 0)
(1.39426 0.209543 0)
(1.3524 0.179406 -1.48126e-23)
(1.31323 0.150003 5.57684e-23)
(1.27804 0.125307 5.95317e-23)
(1.24717 0.101921 5.05859e-23)
(1.21989 0.0850751 -8.08694e-24)
(0.415163 0.0516965 -6.07708e-24)
(1.10295 0.218392 -1.54554e-22)
(1.37501 0.26745 6.93196e-24)
(1.41457 0.260231 7.72689e-24)
(1.38368 0.227678 -1.16292e-23)
(1.34102 0.195141 4.34258e-24)
(1.30262 0.163997 -4.82408e-23)
(1.26849 0.137937 -5.54811e-23)
(1.23889 0.113231 -3.87001e-23)
(1.21259 0.0957057 1.16969e-24)
(0.458772 0.0726138 0)
(1.13703 0.25148 -1.52945e-22)
(1.38207 0.295203 -4.33593e-24)
(1.4069 0.282057 9.25505e-24)
(1.37171 0.24552 1.59306e-37)
(1.32883 0.210532 -1.07848e-37)
(1.29141 0.177584 -4.36916e-23)
(1.25842 0.150117 -4.9113e-23)
(1.23014 0.124104 -3.60341e-23)
(1.20487 0.105848 0)
(0.500039 0.0956645 4.35416e-22)
(1.16503 0.28517 1.256e-22)
(1.38463 0.322902 4.002e-22)
(1.3967 0.303513 -1.79944e-23)
(1.35842 0.262992 0)
(1.31583 0.225521 1.28168e-23)
(1.27957 0.190724 2.84079e-23)
(1.24781 0.161816 5.29491e-23)
(1.22094 0.134518 2.81882e-23)
(1.19668 0.115508 6.59374e-24)
(0.538378 0.120657 -3.8793e-22)
(1.18712 0.319202 0)
(1.38296 0.350353 -3.7845e-22)
(1.38418 0.324497 0)
(1.34387 0.280017 -3.63403e-23)
(1.302 0.240045 3.02592e-23)
(1.26709 0.203377 0)
(1.23663 0.172991 0)
(1.21134 0.144456 0)
(1.188 0.124687 0)
(0.573295 0.147361 7.62638e-22)
(1.20345 0.353317 -4.87074e-22)
(1.37734 0.377361 -9.2093e-23)
(1.36951 0.344907 -3.71203e-22)
(1.32811 0.296512 -3.39174e-22)
(1.28735 0.254039 2.25785e-23)
(1.25396 0.215497 -1.88521e-23)
(1.22491 0.183587 1.4754e-22)
(1.20134 0.153896 3.5604e-24)
(1.17887 0.133373 9.07467e-23)
(0.604386 0.175503 -7.6264e-22)
(1.21422 0.387255 -5.80286e-22)
(1.36799 0.403739 1.27609e-22)
(1.35282 0.364639 4.42931e-22)
(1.31116 0.312392 -2.2656e-23)
(1.2719 0.267431 3.58699e-22)
(1.24021 0.227033 0)
(1.21275 0.193575 -1.67343e-22)
(1.19086 0.162789 -2.3291e-23)
(1.16935 0.141535 -1.13693e-22)
(0.631332 0.204773 1.80124e-22)
(1.21961 0.420751 9.97834e-22)
(1.35515 0.429301 -5.72479e-22)
(1.33423 0.383587 -1.07845e-22)
(1.29306 0.327562 -2.58083e-22)
(1.25569 0.280145 5.85638e-23)
(1.22587 0.237918 -3.20744e-23)
(1.20013 0.202934 1.66771e-22)
(1.17987 0.171112 -2.68629e-23)
(1.15945 0.149125 6.20289e-23)
(0.653901 0.234831 9.10269e-23)
(1.21982 0.453535 0)
(1.33903 0.453864 3.52971e-23)
(1.31384 0.401638 0)
(1.2739 0.341921 5.141e-22)
(1.23876 0.292105 -3.29171e-22)
(1.21091 0.248106 0)
(1.18703 0.211634 -1.7192e-23)
(1.16844 0.178829 0)
(1.14921 0.156112 0)
(0.671938 0.265315 -1.39122e-21)
(1.21506 0.485337 -1.06559e-22)
(1.31981 0.477238 6.98801e-22)
(1.2918 0.418672 8.0391e-23)
(1.25378 0.355384 -5.454e-22)
(1.22107 0.303238 -1.93342e-22)
(1.19534 0.257547 -2.59276e-23)
(1.17347 0.219636 1.05858e-22)
(1.15658 0.185912 -2.001e-23)
(1.13863 0.162459 8.42594e-24)
(0.685365 0.295849 1.54776e-21)
(1.20556 0.515894 -9.22968e-22)
(1.29765 0.499216 -2.03675e-22)
(1.26831 0.434571 1.00012e-22)
(1.23271 0.367866 4.2888e-22)
(1.2026 0.313475 2.92994e-22)
(1.17921 0.266176 -2.26569e-23)
(1.15945 0.226903 -1.71037e-23)
(1.14433 0.192331 -2.73966e-23)
(1.12776 0.168142 9.22851e-24)
(0.694175 0.326054 1.27756e-21)
(1.19157 0.54496 8.94946e-22)
(1.27276 0.519589 -8.62537e-22)
(1.24346 0.449196 -9.15886e-23)
(1.21069 0.379288 0)
(1.18341 0.322745 0)
(1.16253 0.273939 0)
(1.14501 0.233401 -2.88076e-22)
(1.13171 0.198059 -6.57713e-23)
(1.11661 0.173139 2.3483e-23)
(0.698428 0.35554 -2.48615e-21)
(1.1734 0.572301 0)
(1.24541 0.538215 1.85257e-21)
(1.21724 0.462367 5.07394e-22)
(1.18778 0.389573 0)
(1.16355 0.330984 0)
(1.14536 0.280781 -1.72586e-22)
(1.13017 0.239096 1.25183e-22)
(1.11876 0.203071 6.57718e-23)
(1.10523 0.177432 -2.34822e-23)
(0.698246 0.383919 1.33959e-21)
(1.15129 0.597638 -1.07521e-22)
(1.21586 0.554971 -8.79306e-22)
(1.18972 0.473947 -5.57125e-22)
(1.16405 0.398604 4.12772e-23)
(1.14307 0.338126 2.46944e-22)
(1.12773 0.286653 5.42497e-23)
(1.11498 0.243956 4.10135e-23)
(1.10551 0.207345 1.24971e-23)
(1.09364 0.18101 1.98212e-23)
(0.693805 0.410838 -1.57029e-23)
(1.12532 0.620614 1.32197e-21)
(1.18439 0.569759 -1.1674e-22)
(1.16105 0.483846 3.20518e-22)
(1.13957 0.406283 1.7366e-22)
(1.12205 0.344109 -2.1069e-23)
(1.1097 0.291507 1.09356e-22)
(1.09947 0.247951 -5.36166e-23)
(1.09198 0.210859 2.17158e-24)
(1.0819 0.183859 -1.53659e-23)
(0.685318 0.436043 0)
(1.09568 0.640893 -1.15489e-21)
(1.15126 0.582414 -1.0256e-22)
(1.13137 0.492009 -7.6631e-23)
(1.11443 0.412517 -1.81821e-22)
(1.10054 0.348873 -1.5922e-22)
(1.09133 0.295301 -1.41191e-24)
(1.0837 0.251052 0)
(1.07822 0.213587 0)
(1.07005 0.185962 0)
(0.672998 0.459301 1.13491e-22)
(1.06276 0.658271 -9.69156e-22)
(1.11664 0.592713 0)
(1.10081 0.498361 -1.02041e-22)
(1.08871 0.417225 1.93924e-23)
(1.07862 0.35236 0)
(1.07268 0.297994 -6.55411e-24)
(1.06771 0.253232 7.5475e-23)
(1.06428 0.215504 -1.95341e-23)
(1.05812 0.187286 1.64066e-23)
(0.656965 0.480283 -8.51467e-23)
(1.02711 0.672665 1.03905e-21)
(1.0807 0.60048 0)
(1.06952 0.502825 -2.20536e-22)
(1.06251 0.420336 1.17152e-23)
(1.05638 0.354519 6.81295e-23)
(1.05382 0.299553 1.20232e-23)
(1.05156 0.254466 -8.55389e-23)
(1.05017 0.21658 0)
(1.04618 0.187791 -2.16224e-22)
(0.637349 0.498542 -1.20691e-21)
(0.989132 0.683925 -5.90853e-23)
(1.04365 0.605608 -2.52736e-23)
(1.03763 0.50532 2.09057e-23)
(1.03594 0.421791 8.44257e-23)
(1.03391 0.355303 -6.813e-23)
(1.03483 0.299947 -1.66392e-22)
(1.0353 0.254727 -1.59286e-22)
(1.03596 0.216788 -2.90863e-22)
(1.03436 0.187464 1.88769e-22)
(0.614546 0.513791 1.27889e-21)
(0.949192 0.691886 0)
(1.00571 0.608018 1.23922e-22)
(1.00531 0.505768 -9.60677e-24)
(1.00912 0.421539 -2.84723e-22)
(1.01129 0.354671 0)
(1.01577 0.299153 1.66393e-22)
(1.01895 0.253984 -4.22503e-23)
(1.02176 0.216099 3.3176e-22)
(1.02298 0.186338 -3.43431e-23)
(0.588983 0.525814 0)
(0.907612 0.696387 2.89877e-22)
(0.967099 0.607643 -1.12309e-22)
(0.972712 0.504102 0)
(0.982154 0.419539 2.00298e-22)
(0.98863 0.352593 0)
(0.99671 0.29715 -2.82871e-22)
(1.00257 0.252203 2.01539e-22)
(1.00773 0.214476 4.1278e-22)
(1.0124 0.184471 3.36612e-22)
(0.561065 0.534424 -5.95272e-23)
(0.864732 0.697304 -2.41015e-22)
(0.928057 0.604432 0)
(0.939992 0.500268 0)
(0.95518 0.415759 0)
(0.966022 0.349049 4.54211e-23)
(0.977708 0.293929 2.05692e-22)
(0.986253 0.249369 3.28573e-23)
(0.994089 0.211872 -4.12782e-22)
(1.00255 0.181801 -3.78327e-22)
(0.531199 0.539475 0)
(0.820903 0.694541 6.45064e-23)
(0.888829 0.598353 0)
(0.907322 0.494223 0)
(0.928325 0.410178 0)
(0.943569 0.344024 -5.48722e-23)
(0.958851 0.289482 4.90048e-22)
(0.970146 0.245495 -1.1411e-22)
(0.980937 0.208333 -4.04125e-22)
(0.9927 0.176947 -4.14828e-22)
(0.49979 0.540859 0)
(0.776481 0.688034 -6.45067e-23)
(0.849659 0.58939 3.72649e-22)
(0.874873 0.485944 0)
(0.90172 0.402786 6.6293e-22)
(0.921372 0.337511 0)
(0.940235 0.2838 -3.98238e-22)
(0.954371 0.240595 3.66958e-22)
(0.968008 0.204297 5.28239e-22)
(0.981534 0.173762 4.1482e-22)
(0.467242 0.538506 -2.09893e-22)
(0.731826 0.677749 0)
(0.810792 0.577545 -3.1468e-22)
(0.842822 0.47542 -4.79522e-23)
(0.8755 0.393584 -1.43839e-21)
(0.899536 0.329511 0)
(0.921959 0.276879 5.10207e-22)
(0.938999 0.234597 3.9225e-23)
(0.955418 0.199054 5.65555e-22)
(0.970614 0.1691 1.14976e-24)
(0.433957 0.532384 2.39187e-22)
(0.687298 0.663682 -2.40454e-23)
(0.77247 0.562839 -7.15911e-23)
(0.811344 0.46266 -5.92186e-23)
(0.8498 0.382584 7.75464e-22)
(0.878168 0.320039 -7.1082e-22)
(0.904111 0.268743 -5.1021e-22)
(0.924041 0.227608 -4.06187e-22)
(0.94304 0.193075 -6.39457e-22)
(0.959686 0.164086 6.03938e-22)
(0.400329 0.522499 -4.38527e-23)
(0.643252 0.645861 -7.25863e-22)
(0.734934 0.545311 0)
(0.780616 0.447687 5.39178e-22)
(0.824753 0.369809 5.90636e-23)
(0.857378 0.309113 7.10824e-22)
(0.886787 0.259402 -7.16327e-23)
(0.909568 0.219586 -4.21198e-22)
(0.931009 0.186169 0)
(0.94903 0.158245 -5.38313e-22)
(0.366744 0.508894 5.25309e-23)
(0.600039 0.624343 7.61863e-22)
(0.698416 0.525018 0)
(0.750811 0.430539 -4.61185e-24)
(0.800495 0.355295 6.63761e-23)
(0.837271 0.296765 0)
(0.870068 0.24889 6.66844e-22)
(0.89562 0.210592 4.81156e-22)
(0.91936 0.178475 9.28791e-23)
(0.93873 0.151738 -7.80147e-23)
(0.333578 0.491644 0)
(0.557999 0.599212 1.21734e-21)
(0.663145 0.502036 -1.07451e-22)
(0.722099 0.411273 7.241e-23)
(0.777158 0.33909 5.97627e-22)
(0.817955 0.283034 1.03352e-21)
(0.854036 0.237241 -7.56811e-22)
(0.882262 0.200643 0)
(0.908162 0.16998 0)
(0.928871 0.14453 0)
(0.301192 0.470861 3.00817e-24)
(0.517461 0.570582 -1.0087e-21)
(0.629342 0.476457 1.22162e-22)
(0.694647 0.389958 -8.54681e-22)
(0.754869 0.32125 -5.17464e-22)
(0.799533 0.267971 1.80873e-22)
(0.838773 0.224497 -7.68427e-22)
(0.869551 0.189784 5.0842e-22)
(0.897474 0.160732 5.49989e-22)
(0.919515 0.136662 -4.30825e-22)
(0.269931 0.446692 -7.25206e-22)
(0.478739 0.538589 -8.05034e-23)
(0.597219 0.448394 1.14363e-21)
(0.668616 0.36668 8.92381e-22)
(0.733755 0.301847 0)
(0.782103 0.251634 -9.91156e-22)
(0.824353 0.210708 -4.30218e-23)
(0.857547 0.178056 -6.54289e-22)
(0.887356 0.150762 -3.85541e-22)
(0.910713 0.128161 3.43154e-22)
(0.240123 0.419324 1.74884e-21)
(0.442124 0.503385 0)
(0.566978 0.41797 -2.37805e-21)
(0.644157 0.341536 -7.80859e-22)
(0.713935 0.280959 -9.25747e-23)
(0.76576 0.23409 0)
(0.810851 0.195931 8.03726e-22)
(0.846308 0.165508 -6.41184e-22)
(0.877862 0.140108 -4.87727e-22)
(0.902508 0.119066 3.74045e-22)
(0.212072 0.388986 -9.25563e-22)
(0.407885 0.465138 -8.23595e-22)
(0.538815 0.385326 1.3889e-21)
(0.621417 0.314639 -1.27779e-22)
(0.695524 0.258679 0)
(0.750595 0.215415 0)
(0.798336 0.180227 0)
(0.83589 0.152194 1.30842e-21)
(0.869044 0.128813 4.87729e-22)
(0.89494 0.109418 -3.74045e-22)
(0.186042 0.35592 -9.75853e-22)
(0.376276 0.424055 8.20464e-22)
(0.51292 0.350615 8.65218e-23)
(0.600532 0.286115 0)
(0.678629 0.235106 -8.04639e-22)
(0.736691 0.195693 -5.34904e-22)
(0.786873 0.163666 -5.92617e-23)
(0.826346 0.13817 1.0483e-22)
(0.860952 0.116923 -1.29748e-22)
(0.888042 0.0992642 5.18306e-23)
(0.162259 0.320342 1.1076e-21)
(0.347544 0.380398 -1.1126e-22)
(0.489469 0.314008 -9.09788e-22)
(0.581631 0.256102 2.01176e-22)
(0.663349 0.21035 5.98733e-22)
(0.724126 0.175014 7.61066e-22)
(0.776522 0.146322 -6.14704e-23)
(0.817724 0.123496 -3.34847e-22)
(0.853632 0.10449 0)
(0.881842 0.0886535 4.89566e-23)
(0.140928 0.282474 7.64444e-23)
(0.32191 0.334446 0)
(0.468612 0.275696 -3.03748e-23)
(0.564829 0.224751 0)
(0.649774 0.184529 -8.63807e-22)
(0.71297 0.153474 6.46616e-22)
(0.767339 0.128276 0)
(0.81007 0.10824 9.3387e-24)
(0.847126 0.0915694 0)
(0.876367 0.0776388 0)
(0.122249 0.242571 1.5894e-22)
(0.29957 0.286481 -1.08292e-21)
(0.450485 0.235882 8.55412e-22)
(0.550231 0.19222 -1.46525e-22)
(0.637985 0.157769 3.73578e-22)
(0.703286 0.131176 1.03167e-22)
(0.759371 0.109611 0)
(0.803427 0.092471 -2.77335e-22)
(0.841473 0.0782185 -7.39072e-23)
(0.871638 0.0662744 -2.14415e-22)
(0.106399 0.200914 6.82223e-22)
(0.280691 0.23679 -1.60691e-21)
(0.4352 0.194781 1.4741e-22)
(0.537924 0.158677 -6.13663e-22)
(0.628051 0.130203 -6.91607e-23)
(0.695129 0.108228 -6.62933e-22)
(0.752662 0.0904155 0)
(0.797831 0.0762636 3.80047e-22)
(0.836706 0.0645001 -6.79569e-23)
(0.867672 0.0546152 4.89275e-22)
(0.0935318 0.157801 -6.82224e-22)
(0.265415 0.185671 5.90038e-22)
(0.422856 0.152615 -1.0206e-22)
(0.527987 0.124296 7.19515e-22)
(0.620032 0.10197 3.9299e-22)
(0.688547 0.084742 4.05568e-23)
(0.74725 0.0707824 -3.38628e-23)
(0.793313 0.0596946 -4.25646e-22)
(0.832855 0.0504801 3.77811e-24)
(0.864483 0.0427169 -1.6258e-22)
(0.0837711 0.113542 3.5782e-22)
(0.253857 0.13343 0)
(0.413529 0.109612 4.196e-22)
(0.52048 0.0892565 0)
(0.613975 0.0732133 5.51629e-23)
(0.683577 0.060834 -4.59316e-23)
(0.743164 0.0508059 0)
(0.789902 0.0428425 0)
(0.829945 0.0362251 0)
(0.862082 0.0306367 0)
(0.077211 0.0684573 -3.13475e-22)
(0.246103 0.0803828 -1.20346e-22)
(0.407278 0.0660089 -4.196e-22)
(0.515449 0.0537441 0)
(0.609917 0.0440795 0)
(0.680247 0.0366224 2.07154e-23)
(0.740427 0.0305827 -8.25601e-23)
(0.787615 0.0257871 -9.77978e-23)
(0.827993 0.0218021 -9.1262e-23)
(0.860478 0.0184306 1.47368e-23)
(0.0739151 0.0228746 -5.6789e-24)
(0.242211 0.0268484 1.29869e-22)
(0.404143 0.0220433 -5.73813e-24)
(0.512926 0.0179465 1.98581e-23)
(0.607882 0.0147185 -7.80431e-24)
(0.678577 0.0122278 0)
(0.739054 0.0102108 6.52639e-23)
(0.786469 0.00860931 9.77978e-23)
(0.827013 0.00727856 6.93147e-23)
(0.859674 0.00615149 1.03812e-23)
(0.0739151 -0.0228746 -5.6789e-24)
(0.242211 -0.0268484 1.29869e-22)
(0.404143 -0.0220433 -5.73813e-24)
(0.512926 -0.0179465 1.98581e-23)
(0.607882 -0.0147185 -7.80431e-24)
(0.678577 -0.0122278 0)
(0.739054 -0.0102108 5.74944e-23)
(0.786469 -0.00860931 1.04301e-22)
(0.827013 -0.00727856 7.37166e-23)
(0.859674 -0.00615149 0)
(0.077211 -0.0684573 -4.02167e-22)
(0.246103 -0.0803827 -1.56147e-22)
(0.407278 -0.0660089 -4.44742e-22)
(0.515449 -0.0537441 2.07972e-23)
(0.609917 -0.0440795 0)
(0.680247 -0.0366224 -2.07154e-23)
(0.740427 -0.0305827 -4.79676e-23)
(0.787615 -0.0257871 -9.77978e-23)
(0.827993 -0.0218021 -5.61712e-23)
(0.860478 -0.0184306 -1.47368e-23)
(0.0837711 -0.113542 3.5782e-22)
(0.253857 -0.13343 0)
(0.413529 -0.109612 4.196e-22)
(0.52048 -0.0892565 0)
(0.613975 -0.0732133 5.51629e-23)
(0.683577 -0.060834 -4.59316e-23)
(0.743164 -0.0508059 0)
(0.789902 -0.0428425 0)
(0.829945 -0.0362251 0)
(0.862082 -0.0306367 0)
(0.0935318 -0.157801 -6.82224e-22)
(0.265415 -0.185671 4.60998e-22)
(0.422856 -0.152615 1.0206e-22)
(0.527987 -0.124296 4.92653e-22)
(0.620032 -0.10197 5.1415e-22)
(0.688547 -0.084742 -4.05568e-23)
(0.74725 -0.0707824 3.38628e-23)
(0.793313 -0.0596946 -3.34448e-22)
(0.832855 -0.0504801 -3.77811e-24)
(0.864483 -0.0427169 -2.72984e-22)
(0.106399 -0.200914 6.82223e-22)
(0.280691 -0.23679 5.55872e-22)
(0.4352 -0.194781 -1.4741e-22)
(0.537924 -0.158677 -5.98503e-22)
(0.628051 -0.130203 4.95522e-23)
(0.695129 -0.108228 -6.62933e-22)
(0.752662 -0.0904155 0)
(0.797831 -0.0762636 3.80046e-22)
(0.836706 -0.0645001 6.79569e-23)
(0.867672 -0.0546152 3.75118e-22)
(0.122249 -0.242571 -1.5894e-22)
(0.29957 -0.286481 1.08292e-21)
(0.450485 -0.235882 6.69617e-22)
(0.550231 -0.19222 1.46525e-22)
(0.637985 -0.157769 4.66512e-22)
(0.703286 -0.131176 -1.48549e-22)
(0.759371 -0.109611 6.51341e-23)
(0.803427 -0.092471 -4.53551e-22)
(0.841473 -0.0782185 7.39072e-23)
(0.871638 -0.0662744 -2.14415e-22)
(0.140928 -0.282474 -7.64444e-23)
(0.32191 -0.334446 0)
(0.468612 -0.275696 -3.03748e-23)
(0.564829 -0.224751 0)
(0.649774 -0.184529 -8.63807e-22)
(0.71297 -0.153474 6.46616e-22)
(0.767339 -0.128276 0)
(0.81007 -0.10824 9.33871e-24)
(0.847126 -0.0915694 0)
(0.876367 -0.0776388 0)
(0.162259 -0.320342 1.1076e-21)
(0.347544 -0.380398 1.1126e-22)
(0.489469 -0.314008 -6.40468e-22)
(0.581631 -0.256102 -1.30053e-22)
(0.663349 -0.21035 1.01055e-21)
(0.724126 -0.175014 4.50699e-22)
(0.776522 -0.146322 6.14704e-23)
(0.817724 -0.123496 -4.1859e-22)
(0.853632 -0.10449 7.02462e-23)
(0.881842 -0.0886535 -4.89566e-23)
(0.186042 -0.35592 -1.23934e-21)
(0.376276 -0.424055 8.26729e-22)
(0.51292 -0.350615 7.71296e-23)
(0.600532 -0.286115 -1.35369e-22)
(0.678629 -0.235106 -8.04639e-22)
(0.736691 -0.195693 -6.76857e-22)
(0.786873 -0.163666 5.92617e-23)
(0.826346 -0.13817 -5.73986e-23)
(0.860952 -0.116923 1.29748e-22)
(0.888042 -0.0992642 -5.18306e-23)
(0.212072 -0.388986 -9.25563e-22)
(0.407885 -0.465138 -8.23595e-22)
(0.538815 -0.385326 1.07995e-21)
(0.621417 -0.314639 1.27779e-22)
(0.695524 -0.258679 0)
(0.750595 -0.215415 0)
(0.798336 -0.180227 0)
(0.83589 -0.152194 1.30842e-21)
(0.869044 -0.128813 4.87728e-22)
(0.89494 -0.109418 -3.74045e-22)
(0.240123 -0.419324 1.74884e-21)
(0.442124 -0.503385 0)
(0.566978 -0.41797 -2.37805e-21)
(0.644157 -0.341536 -8.92384e-22)
(0.713935 -0.280959 0)
(0.76576 -0.23409 0)
(0.810851 -0.195931 8.03726e-22)
(0.846308 -0.165508 -6.41184e-22)
(0.877862 -0.140108 -4.87727e-22)
(0.902508 -0.119066 3.74045e-22)
(0.269931 -0.446692 -9.21348e-22)
(0.478739 -0.538589 8.05033e-23)
(0.597219 -0.448394 1.14363e-21)
(0.668616 -0.36668 9.96663e-22)
(0.733755 -0.301847 -8.65622e-23)
(0.782103 -0.251634 -9.91156e-22)
(0.824353 -0.210708 -4.30219e-23)
(0.857547 -0.178056 -5.11053e-22)
(0.887356 -0.150762 -5.0569e-22)
(0.910713 -0.128161 3.43154e-22)
(0.301192 -0.470861 -3.00817e-24)
(0.517461 -0.570582 -1.16516e-21)
(0.629342 -0.476457 -1.22162e-22)
(0.694647 -0.389958 -6.61528e-22)
(0.754869 -0.32125 -5.27728e-22)
(0.799533 -0.267971 -1.75083e-22)
(0.838773 -0.224497 -7.5297e-22)
(0.869551 -0.189784 6.56917e-22)
(0.897474 -0.160732 3.41239e-22)
(0.919515 -0.136662 -2.55485e-22)
(0.333578 -0.491644 0)
(0.557999 -0.599212 9.5651e-22)
(0.663145 -0.502036 1.07451e-22)
(0.722099 -0.411273 7.241e-23)
(0.777158 -0.33909 5.97627e-22)
(0.817955 -0.283034 8.18027e-22)
(0.854036 -0.237241 -6.60159e-22)
(0.882262 -0.200643 6.97022e-23)
(0.908162 -0.16998 0)
(0.928871 -0.14453 0)
(0.366744 -0.508894 -5.25309e-23)
(0.600039 -0.624343 7.61862e-22)
(0.698416 -0.525018 0)
(0.750811 -0.430539 1.55315e-22)
(0.800495 -0.355295 -6.63761e-23)
(0.837271 -0.296765 0)
(0.870068 -0.24889 6.66843e-22)
(0.89562 -0.210592 4.81156e-22)
(0.91936 -0.178475 -9.28791e-23)
(0.93873 -0.151738 7.80147e-23)
(0.400329 -0.522499 4.38527e-23)
(0.643252 -0.645861 -7.97856e-22)
(0.734934 -0.545311 0)
(0.780616 -0.447687 6.81487e-22)
(0.824753 -0.369809 -5.90636e-23)
(0.857378 -0.309113 7.10824e-22)