/*--------------------------------*- C++ -*----------------------------------*\
  =========                 |
  \\      /  F ield         | OpenFOAM: The Open Source CFD Toolbox
   \\    /   O peration     | Website:  https://openfoam.org
    \\  /    A nd           | Version:  7
     \\/     M anipulation  |
\*---------------------------------------------------------------------------*/
FoamFile
{
    version     2.0;
    format      ascii;
    class       volScalarField;
    location    "3.3";
    object      p;
}
// * * * * * * * * * * * * * * * * * * * * * * * * * * * * * * * * * * * * * //

dimensions      [1 -1 -2 0 0 0 0];

internalField   nonuniform List<scalar> 
252
(
1
1
1.86131
8.57937
10.9238
11.4348
1
1
1.59462
7.96564
10.5703
11.3268
1
1
1.0827
6.53383
9.19783
7.96935
1
1
1.00149
4.125
7.89753
7.18098
1
1
0.999986
1.71101
6.30563
7.09452
1
1
0.999997
1.05524
3.68631
6.85444
1
1
0.999999
1.00033
1.52215
5.0662
1
1
1
1
1.02298
2.55779
1
1
1
1
1.00016
1.19662
1
1
1
1
1
1.00599
2.56487
1.2729
0.840581
0.895575
0.9578
1.05061
1.17227
1.85695
5.1492
6.15898
6.02145
5.579
5.18189
4.81965
4.46452
4.08181
3.77124
3.5184
3.27297
3.05235
2.87273
2.71396
2.58885
2.37183
3.93897
2.5632
1.85756
1.5933
1.36
1.29185
1.40005
2.01316
3.99327
5.48954
5.64908
5.34752
4.97094
4.63615
4.32014
3.99903
3.74024
3.50832
3.28156
3.07068
2.88289
2.71266
2.57241
2.34502
4.81043
3.28963
2.52697
1.914
1.53337
1.52909
2.00427
2.77312
3.11516
3.84217
4.62439
4.99093
4.92714
4.66573
4.3413
4.06262
3.7925
3.51048
3.26634
3.04981
2.85336
2.67716
2.5242
2.29241
5.30167
3.93118
3.02588
2.29144
2.12823
2.62213
3.54811
3.63305
3.25776
2.97816
3.12861
3.62627
3.96672
4.07858
4.141
4.03797
3.77976
3.45657
3.19444
2.96495
2.76533
2.60544
2.46616
2.2703
5.56118
4.58138
3.42836
2.93778
3.6816
4.60019
4.51312
4.04042
3.48462
2.97524
2.68625
2.64352
2.81547
3.14529
3.45967
3.57313
3.49514
3.37908
3.15993
2.94776
2.75599
2.5802
2.45837
2.33489
4.86403
4.72386
4.16936
5.16877
6.49207
6.18963
5.32114
4.45866
3.77032
3.22142
2.77016
2.45756
2.34587
2.30291
2.47191
2.73146
2.91091
3.00263
2.99429
2.91276
2.76684
2.62488
2.54974
2.57475
3.05021
4.04203
6.66526
8.77813
7.7213
6.53794
5.49045
4.63549
3.96089
3.42169
2.95887
2.55787
2.25972
2.09329
1.94792
1.96023
2.06843
2.30231
2.53901
2.62814
2.72879
2.89149
2.96959
3.11766
1.41901
3.32429
11.2186
13.1142
9.53561
7.144
5.69414
4.74091
4.05053
3.51098
3.06807
2.68051
2.3284
2.03561
1.82091
1.65293
1.58441
1.66448
1.92446
2.35299
2.86723
3.2839
3.63061
3.87465
)
;

boundaryField
{
    inlet
    {
        type            fixedValue;
        value           uniform 1;
    }
    outlet
    {
        type            zeroGradient;
    }
    bottom
    {
        type            symmetryPlane;
    }
    top
    {
        type            symmetryPlane;
    }
    obstacle
    {
        type            zeroGradient;
    }
    defaultFaces
    {
        type            empty;
    }
}


// ************************************************************************* //
