/*--------------------------------*- C++ -*----------------------------------*\
  =========                 |
  \\      /  F ield         | OpenFOAM: The Open Source CFD Toolbox
   \\    /   O peration     | Website:  https://openfoam.org
    \\  /    A nd           | Version:  9
     \\/     M anipulation  |
\*---------------------------------------------------------------------------*/
FoamFile
{
    format      ascii;
    class       volVectorField;
    location    "3.3";
    object      U;
}
// * * * * * * * * * * * * * * * * * * * * * * * * * * * * * * * * * * * * * //

dimensions      [0 1 -1 0 0 0 0];

internalField   nonuniform List<vector> 
252
(
(3 3.18606e-15 0)
(3 2.53643e-14 0)
(2.60451 0.0307907 0)
(0.811159 0.0622925 0)
(0.475014 0.0731696 0)
(0.278034 0.161088 0)
(3 5.76912e-15 0)
(3 -1.66665e-15 0)
(2.7655 0.129474 0)
(0.896493 0.285417 0)
(0.440402 0.32627 0)
(0.308809 0.57343 0)
(3 -8.00381e-15 0)
(3 -4.68033e-14 0)
(3.03224 0.0305377 0)
(1.2054 0.485525 0)
(0.700211 0.573868 0)
(0.773104 0.896858 0)
(3 2.5941e-15 0)
(3 -2.13505e-14 0)
(3.00484 0.000130951 0)
(1.78631 0.592703 0)
(0.972493 0.756026 0)
(1.05541 0.807589 0)
(3 3.68738e-15 0)
(3 -1.02802e-14 0)
(3.00004 -2.46056e-07 0)
(2.8835 0.29959 0)
(1.38197 0.832707 0)
(1.27948 0.822046 0)
(3 -1.22016e-14 0)
(3 9.78145e-16 0)
(3 -1.89001e-06 0)
(3.04756 0.0148652 0)
(2.11268 0.684419 0)
(1.41265 0.873281 0)
(3 9.39043e-15 0)
(3 8.21683e-15 0)
(3 -4.06827e-07 0)
(3.00101 0.000568389 0)
(2.98642 0.194532 0)
(1.74526 0.854926 0)
(3 6.4933e-16 0)
(3 -8.15318e-15 0)
(3 -4.29223e-08 0)
(3 9.44223e-07 0)
(3.01476 0.0106975 0)
(2.51484 0.519715 0)
(3 2.57524e-15 0)
(3 1.94059e-14 0)
(3 -1.80939e-09 0)
(3 -1.60541e-09 0)
(3.00009 0.000158383 0)
(2.96945 0.0901121 0)
(3 1.30027e-14 0)
(3 2.47991e-14 0)
(3 -1.43861e-11 0)
(3 -3.80061e-10 0)
(3 1.48884e-07 0)
(2.99921 0.00358089 0)
(1.64858 0.932348 0)
(2.15249 0.813492 0)
(2.36679 0.632618 0)
(2.39167 0.332097 0)
(2.41563 0.13248 0)
(2.44948 0.0029043 0)
(2.41451 -0.0814028 0)
(2.201 -0.106395 0)
(1.11516 -0.171758 0)
(1.06569 -0.141596 0)
(1.23611 -0.138041 0)
(1.4129 -0.0895054 0)
(1.52483 -0.0532128 0)
(1.6336 -0.0313494 0)
(1.73577 0.00374833 0)
(1.82797 0.0143406 0)
(1.90731 0.0181285 0)
(1.96615 0.0200384 0)
(2.01288 0.0220973 0)
(2.05664 0.0226035 0)
(2.10578 0.0233808 0)
(2.16005 0.0258509 0)
(2.20552 0.0273551 0)
(2.27748 0.0281469 0)
(1.66579 0.697272 0)
(2.0802 0.410785 0)
(2.28269 0.170504 0)
(2.38954 -0.112387 0)
(2.46438 -0.140319 0)
(2.482 -0.248453 0)
(2.43946 -0.300935 0)
(2.11804 -0.592723 0)
(1.65228 -0.394868 0)
(1.37476 -0.157708 0)
(1.42577 -0.0919778 0)
(1.54382 -0.0345835 0)
(1.61337 0.00536377 0)
(1.68616 0.0364288 0)
(1.76835 0.0687407 0)
(1.84814 0.0857269 0)
(1.91587 0.0855561 0)
(1.97739 0.073924 0)
(2.03344 0.0626195 0)
(2.08371 0.0583968 0)
(2.13373 0.0632242 0)
(2.18683 0.0753985 0)
(2.23233 0.0853947 0)
(2.30245 0.0913015 0)
(1.67477 0.706634 0)
(1.98046 0.559431 0)
(2.16909 0.392538 0)
(2.33358 0.204395 0)
(2.42746 0.19898 0)
(2.34033 0.000310841 0)
(2.22871 -0.286924 0)
(1.93904 -0.67214 0)
(1.96946 -0.756153 0)
(1.83593 -0.515849 0)
(1.74599 -0.262119 0)
(1.72811 -0.104534 0)
(1.7684 -0.011378 0)
(1.81681 0.0604697 0)
(1.88489 0.0725266 0)
(1.93892 0.0749674 0)
(1.98554 0.0770448 0)
(2.03991 0.0772808 0)
(2.09011 0.0750035 0)
(2.13803 0.0794624 0)
(2.18646 0.0923802 0)
(2.23506 0.108508 0)
(2.27909 0.131947 0)
(2.34087 0.150605 0)
(1.66445 0.806494 0)
(1.88547 0.704318 0)
(2.12096 0.516177 0)
(2.26234 0.47469 0)
(2.2971 0.256258 0)
(2.1511 -0.13002 0)
(2.01427 -0.45096 0)
(1.97156 -0.678385 0)
(2.0511 -0.702218 0)
(2.12503 -0.677921 0)
(2.10658 -0.525229 0)
(2.04041 -0.305586 0)
(2.00347 -0.107507 0)
(1.96681 0.0255407 0)
(2.00168 0.102406 0)
(2.02143 0.153205 0)
(2.06279 0.191919 0)
(2.11606 0.190256 0)
(2.15214 0.177456 0)
(2.19025 0.177933 0)
(2.2282 0.190316 0)
(2.26567 0.198771 0)
(2.30352 0.214753 0)
(2.36255 0.217195 0)
(1.69485 0.858755 0)
(1.87087 0.762704 0)
(2.05697 0.69471 0)
(2.1698 0.517484 0)
(2.05281 0.0986123 0)
(1.92308 -0.285443 0)
(1.92775 -0.536432 0)
(2.00613 -0.551124 0)
(2.10755 -0.557924 0)
(2.20342 -0.561528 0)
(2.2674 -0.54567 0)
(2.27092 -0.46184 0)
(2.2677 -0.321588 0)
(2.21386 -0.143409 0)
(2.17955 0.0170413 0)
(2.1698 0.148365 0)
(2.16342 0.196875 0)
(2.18258 0.237502 0)
(2.22379 0.253278 0)
(2.26394 0.25272 0)
(2.29257 0.261874 0)
(2.33011 0.2452 0)
(2.34908 0.253855 0)
(2.39128 0.214863 0)
(1.85427 0.86079 0)
(1.85441 0.877846 0)
(1.95765 0.781102 0)
(1.88001 0.33611 0)
(1.77979 -0.0410798 0)
(1.83479 -0.241867 0)
(1.91725 -0.313475 0)
(2.02908 -0.349248 0)
(2.13305 -0.370658 0)
(2.22811 -0.381753 0)
(2.30678 -0.415368 0)
(2.36881 -0.40929 0)
(2.39643 -0.369471 0)
(2.41384 -0.276879 0)
(2.41476 -0.149036 0)
(2.36495 0.0319878 0)
(2.3403 0.157476 0)
(2.31051 0.248366 0)
(2.30288 0.323241 0)
(2.30511 0.342869 0)
(2.32329 0.357706 0)
(2.35997 0.330194 0)
(2.36757 0.295817 0)
(2.38336 0.216526 0)
(2.41311 0.586601 0)
(2.10222 0.960108 0)
(1.66482 0.47275 0)
(1.41446 -0.0170881 0)
(1.58201 -0.197079 0)
(1.75487 -0.221248 0)
(1.91709 -0.219197 0)
(2.05061 -0.218633 0)
(2.15913 -0.221422 0)
(2.25246 -0.229076 0)
(2.33476 -0.237323 0)
(2.41266 -0.261443 0)
(2.46671 -0.256663 0)
(2.50551 -0.239242 0)
(2.55724 -0.195321 0)
(2.54829 -0.0880747 0)
(2.56645 0.0340743 0)
(2.51332 0.194656 0)
(2.47328 0.310538 0)
(2.42738 0.368909 0)
(2.40748 0.362805 0)
(2.37368 0.313328 0)
(2.35171 0.238056 0)
(2.34175 0.0862902 0)
(2.86906 0.119349 0)
(2.39597 0.574282 0)
(1.4197 0.398296 0)
(1.30504 0.218331 0)
(1.60308 0.0289809 0)
(1.82302 -0.0462659 0)
(1.99119 -0.0710467 0)
(2.11862 -0.0787344 0)
(2.2202 -0.0817894 0)
(2.30697 -0.080684 0)
(2.38643 -0.084155 0)
(2.46127 -0.087901 0)
(2.53897 -0.0950776 0)
(2.59425 -0.111766 0)
(2.64111 -0.0719132 0)
(2.66085 -0.119238 0)
(2.69311 -0.0675032 0)
(2.66823 -0.0186119 0)
(2.60275 0.0856946 0)
(2.522 0.140738 0)
(2.43936 0.201855 0)
(2.38424 0.163625 0)
(2.34972 0.196983 0)
(2.32915 0.134562 0)
)
;

boundaryField
{
    inlet
    {
        type            fixedValue;
        value           uniform (3 0 0);
    }
    outlet
    {
        type            inletOutlet;
        inletValue      uniform (3 0 0);
        value           nonuniform List<vector> 8((2.27748 0.0281469 0) (2.30245 0.0913015 0) (2.34087 0.150605 0) (2.36255 0.217195 0) (2.39128 0.214863 0) (2.38336 0.216526 0) (2.34175 0.0862902 0) (2.32915 0.134562 0));
    }
    bottom
    {
        type            symmetryPlane;
    }
    top
    {
        type            symmetryPlane;
    }
    obstacle
    {
        type            slip;
    }
    defaultFaces
    {
        type            empty;
    }
}


// ************************************************************************* //
