/*--------------------------------*- C++ -*----------------------------------*\
  =========                 |
  \\      /  F ield         | OpenFOAM: The Open Source CFD Toolbox
   \\    /   O peration     | Website:  https://openfoam.org
    \\  /    A nd           | Version:  7
     \\/     M anipulation  |
\*---------------------------------------------------------------------------*/
FoamFile
{
    version     2.0;
    format      ascii;
    class       surfaceScalarField;
    location    "1.6";
    object      phi;
}
// * * * * * * * * * * * * * * * * * * * * * * * * * * * * * * * * * * * * * //

dimensions      [0 3 -1 0 0 0 0];

internalField   nonuniform List<scalar> 
21785
(
-1.60601e-13
1.5507e-13
-2.97708e-13
5.41691e-13
-6.18988e-13
6.84374e-13
-9.27411e-13
6.50767e-13
-1.1248e-12
5.33421e-13
-1.19098e-12
3.93602e-13
-1.16202e-12
2.87242e-13
-1.95625e-13
2.22787e-13
7.65974e-13
-7.85707e-14
1.4611e-12
-3.87737e-13
2.45098e-12
-6.60905e-13
3.65083e-12
-8.84946e-13
5.01462e-12
-1.06418e-12
6.49073e-12
-1.19449e-12
8.01866e-12
-1.25489e-12
1.03257e-11
-1.25067e-12
1.27093e-11
-1.43594e-12
1.47073e-11
-1.70707e-12
1.68326e-11
-1.91105e-12
1.90142e-11
-2.00172e-12
2.12741e-11
-2.01618e-12
2.36192e-11
-2.01345e-12
2.60029e-11
-2.00777e-12
2.83334e-11
-1.96861e-12
3.13139e-11
-1.88259e-12
3.39967e-11
-1.9807e-12
3.62905e-11
-2.04733e-12
3.86471e-11
-2.06998e-12
4.1002e-11
-2.05602e-12
4.33121e-11
-2.01428e-12
4.55392e-11
-1.94086e-12
4.76303e-11
-1.81738e-12
5.01957e-11
-1.64909e-12
5.24871e-11
-1.64092e-12
5.43343e-11
-1.62443e-12
5.61543e-11
-1.57298e-12
5.78905e-11
-1.48906e-12
5.95126e-11
-1.38016e-12
6.09929e-11
-1.24541e-12
6.22925e-11
-1.07233e-12
6.39046e-11
-8.67085e-13
6.52348e-11
-7.94029e-13
6.61344e-11
-7.17843e-13
6.69471e-11
-6.15776e-13
-4.88909e-13
6.76303e-11
-1.94277e-13
7.56643e-13
-4.82867e-13
1.55262e-12
-9.08468e-13
1.77303e-12
-1.20253e-12
1.59104e-12
-1.186e-12
1.16109e-12
-7.49744e-13
5.98095e-13
2.00135e-13
-3.03271e-14
2.38182e-12
-6.8519e-13
5.05071e-12
-1.45926e-12
7.58339e-12
-2.30395e-12
1.06935e-11
-3.11783e-12
1.43172e-11
-3.8642e-12
1.84075e-11
-4.53571e-12
2.29182e-11
-5.12611e-12
2.78343e-11
-5.62412e-12
3.37458e-11
-6.06431e-12
4.00611e-11
-6.41326e-12
4.60651e-11
-6.98136e-12
5.23516e-11
-7.51819e-12
5.87927e-11
-7.90212e-12
6.53779e-11
-8.12258e-12
7.21259e-11
-8.24914e-12
7.90141e-11
-8.32041e-12
8.59963e-11
-8.34226e-12
9.36435e-11
-8.34726e-12
1.01164e-10
-8.41065e-12
1.08055e-10
-8.43824e-12
1.14913e-10
-8.40738e-12
1.21688e-10
-8.30645e-12
1.28339e-10
-8.14073e-12
1.34828e-10
-7.91049e-12
1.41136e-10
-7.61602e-12
1.47771e-10
-7.29776e-12
1.54119e-10
-7.0214e-12
1.59679e-10
-6.74461e-12
1.64984e-10
-6.42626e-12
1.69995e-10
-6.05352e-12
1.74682e-10
-5.6301e-12
1.79022e-10
-5.15834e-12
1.83008e-10
-4.64155e-12
1.87054e-10
-4.11463e-12
1.90684e-10
-3.628e-12
1.93482e-10
-3.1554e-12
1.95893e-10
-2.66119e-12
-2.1335e-12
1.97891e-10
-1.26204e-13
1.24608e-12
-2.82842e-13
2.36588e-12
-4.49577e-13
2.54162e-12
-3.23206e-13
2.0522e-12
3.14555e-13
1.11107e-12
1.61969e-12
-1.17166e-13
3.69496e-12
-1.51641e-12
7.31276e-12
-3.02037e-12
1.16674e-11
-4.59102e-12
1.61529e-11
-6.22988e-12
2.14619e-11
-7.83116e-12
2.75373e-11
-9.35885e-12
3.43365e-11
-1.07957e-11
4.1831e-11
-1.21244e-11
4.99879e-11
-1.33161e-11
5.94414e-11
-1.43511e-11
6.91788e-11
-1.50252e-11
7.89302e-11
-1.59977e-11
8.91777e-11
-1.69785e-11
9.97053e-11
-1.77929e-11
1.10417e-10
-1.8354e-11
1.21332e-10
-1.87266e-11
1.3245e-10
-1.8964e-11
1.43731e-10
-1.91e-11
1.55687e-10
-1.91683e-11
1.67604e-10
-1.92155e-11
1.78815e-10
-1.91756e-11
1.89915e-10
-1.90322e-11
2.00851e-10
-1.87739e-11
2.11585e-10
-1.84045e-11
2.22077e-10
-1.79301e-11
2.32292e-10
-1.73628e-11
2.42701e-10
-1.67337e-11
2.52715e-10
-1.60812e-11
2.61758e-10
-1.53797e-11
2.70349e-10
-1.46032e-11
2.78447e-10
-1.37452e-11
2.86024e-10
-1.28092e-11
2.93057e-10
-1.18007e-11
2.99529e-10
-1.07318e-11
3.05834e-10
-9.62982e-12
3.11509e-10
-8.52176e-12
3.16094e-10
-7.4041e-12
3.20025e-10
-6.25256e-12
-5.0609e-12
3.23279e-10
1.95444e-14
1.56958e-12
2.05378e-13
2.81686e-12
5.53483e-13
2.77581e-12
1.3742e-12
1.79679e-12
2.9029e-12
1.47278e-13
5.31588e-12
-1.95503e-12
8.72933e-12
-4.34703e-12
1.39408e-11
-6.90986e-12
2.00573e-11
-9.53871e-12
2.65603e-11
-1.22117e-11
3.41037e-11
-1.48203e-11
4.26289e-11
-1.73448e-11
5.20979e-11
-1.97631e-11
6.25141e-11
-2.20409e-11
7.382e-11
-2.41169e-11
8.68451e-11
-2.5922e-11
9.96485e-11
-2.71109e-11
1.12868e-10
-2.85959e-11
1.26836e-10
-3.00944e-11
1.41263e-10
-3.14429e-11
1.55915e-10
-3.24242e-11
1.7079e-10
-3.31374e-11
1.85892e-10
-3.36265e-11
2.01185e-10
-3.3926e-11
2.17159e-10
-3.40648e-11
2.33157e-10
-3.40663e-11
2.48401e-10
-3.39385e-11
2.63483e-10
-3.36414e-11
2.7833e-10
-3.31689e-11
2.92895e-10
-3.25245e-11
3.0713e-10
-3.17176e-11
3.20982e-10
-3.07672e-11
3.34908e-10
-2.96987e-11
3.48323e-10
-2.85375e-11
3.60614e-10
-2.72678e-11
3.72284e-10
-2.58676e-11
3.8328e-10
-2.43474e-11
3.93568e-10
-2.27144e-11
4.0312e-10
-2.09763e-11
4.11906e-10
-1.91487e-11
4.20318e-10
-1.72538e-11
4.2788e-10
-1.53079e-11
4.34127e-10
-1.33218e-11
4.39483e-10
-1.12752e-11
-9.17769e-12
4.43921e-10
2.32281e-13
1.67881e-12
9.0454e-13
2.77831e-12
1.93724e-12
2.32179e-12
3.63634e-12
6.56239e-13
6.2396e-12
-1.89901e-12
9.92983e-12
-5.07055e-12
1.48268e-11
-8.64832e-12
2.17524e-11
-1.24678e-11
2.97283e-11
-1.6384e-11
3.83103e-11
-2.03172e-11
4.8106e-11
-2.41181e-11
5.90618e-11
-2.77959e-11
7.11531e-11
-3.13229e-11
8.44347e-11
-3.4652e-11
9.8824e-11
-3.77279e-11
1.15438e-10
-4.04665e-11
1.31069e-10
-4.26663e-11
1.47518e-10
-4.47932e-11
1.64924e-10
-4.68507e-11
1.83102e-10
-4.87844e-11
2.01504e-10
-5.01525e-11
2.20145e-10
-5.12395e-11
2.39026e-10
-5.20428e-11
2.58112e-10
-5.25599e-11
2.77884e-10
-5.27997e-11
2.97659e-10
-5.26866e-11
3.16672e-10
-5.24571e-11
3.35489e-10
-5.19644e-11
3.54011e-10
-5.12226e-11
3.72175e-10
-5.02396e-11
3.89916e-10
-4.9021e-11
4.07169e-10
-4.7588e-11
4.24377e-10
-4.59632e-11
4.40967e-10
-4.41608e-11
4.56297e-10
-4.21905e-11
4.70851e-10
-4.00085e-11
4.84563e-10
-3.76589e-11
4.97392e-10
-3.51563e-11
5.09299e-10
-3.25072e-11
5.20247e-10
-2.9729e-11
5.30626e-10
-2.68415e-11
5.39944e-10
-2.38556e-11
5.47743e-10
-2.07968e-11
5.54431e-10
-1.76308e-11
-1.43985e-11
5.59977e-10
4.76547e-13
1.53632e-12
1.76421e-12
2.12177e-12
3.57727e-12
1.0864e-12
6.26426e-12
-1.47461e-12
1.00648e-11
-5.14636e-12
1.51489e-11
-9.58261e-12
2.16344e-11
-1.45357e-11
3.03609e-11
-1.98072e-11
4.02424e-11
-2.51544e-11
5.10035e-11
-3.06331e-11
6.30748e-11
-3.57426e-11
7.64506e-11
-4.07032e-11
9.11278e-11
-4.54381e-11
1.07197e-10
-4.98877e-11
1.24566e-10
-5.4036e-11
1.44562e-10
-5.79662e-11
1.63077e-10
-6.14209e-11
1.82595e-10
-6.44213e-11
2.03167e-10
-6.70754e-11
2.25076e-10
-6.92481e-11
2.46947e-10
-7.0819e-11
2.69134e-10
-7.22911e-11
2.91596e-10
-7.34401e-11
3.14281e-10
-7.4215e-11
3.37769e-10
-7.46776e-11
3.60948e-10
-7.47343e-11
3.83533e-10
-7.45537e-11
4.0586e-10
-7.37824e-11
4.27838e-10
-7.27059e-11
4.49387e-10
-7.1318e-11
4.70422e-10
-6.96113e-11
4.90871e-10
-6.76086e-11
5.11171e-10
-6.53305e-11
5.30696e-10
-6.27242e-11
5.48908e-10
-5.99949e-11
5.66163e-10
-5.68445e-11
5.82418e-10
-5.35017e-11
5.97627e-10
-4.99656e-11
6.11741e-10
-4.62344e-11
6.24716e-10
-4.23298e-11
6.36944e-10
-3.82718e-11
6.47875e-10
-3.40261e-11
6.57153e-10
-2.97579e-11
6.65085e-10
-2.52344e-11
-2.06486e-11
6.71662e-10
7.14391e-13
1.13597e-12
2.81344e-12
1.66954e-12
5.37492e-12
-2.13958e-13
9.10506e-12
-3.94695e-12
1.41747e-11
-8.95058e-12
2.07194e-11
-1.48362e-11
2.88372e-11
-2.13322e-11
3.94673e-11
-2.83382e-11
5.12059e-11
-3.57484e-11
6.43992e-11
-4.2464e-11
7.87262e-11
-4.90051e-11
9.45355e-11
-5.52947e-11
1.11784e-10
-6.10933e-11
1.30549e-10
-6.63978e-11
1.5061e-10
-7.14576e-11
1.73645e-10
-7.65045e-11
1.95321e-10
-8.33885e-11
2.1796e-10
-8.72867e-11
2.41824e-10
-9.00301e-11
2.67187e-10
-9.20735e-11
2.92085e-10
-9.46214e-11
3.17567e-10
-9.66203e-11
3.43389e-10
-9.81008e-11
3.69406e-10
-9.90719e-11
3.9634e-10
-9.96321e-11
4.22786e-10
-1.00157e-10
4.48979e-10
-9.94179e-11
4.74579e-10
-9.82523e-11
4.99804e-10
-9.67989e-11
5.24536e-10
-9.49622e-11
5.48669e-10
-9.27216e-11
5.72115e-10
-9.00862e-11
5.95393e-10
-8.7149e-11
6.17575e-10
-8.39571e-11
6.38643e-10
-7.99263e-11
6.58386e-10
-7.56489e-11
6.77011e-10
-7.11934e-11
6.94446e-10
-6.6484e-11
7.10622e-10
-6.15248e-11
7.25487e-10
-5.6345e-11
7.39495e-10
-5.10321e-11
7.51861e-10
-4.56361e-11
7.62649e-10
-3.96596e-11
7.71707e-10
-3.35734e-11
-2.74582e-11
7.79235e-10
1.46668e-12
1.79576e-12
3.90065e-12
1.17423e-12
7.19741e-12
-2.27909e-12
1.20165e-11
-7.52566e-12
1.84138e-11
-1.41291e-11
2.64582e-11
-2.17003e-11
3.61537e-11
-2.98896e-11
4.83911e-11
-3.8384e-11
6.28536e-11
-4.70937e-11
7.82387e-11
-5.56746e-11
9.49178e-11
-6.43791e-11
1.1333e-10
-7.2638e-11
1.33251e-10
-8.03918e-11
1.54431e-10
-8.75732e-11
1.76912e-10
-9.41648e-11
2.00494e-10
-1.0028e-10
2.27643e-10
-1.06029e-10
2.53847e-10
-1.11118e-10
2.81081e-10
-1.15383e-10
3.08555e-10
-1.19185e-10
3.36674e-10
-1.22306e-10
3.65326e-10
-1.24786e-10
3.94366e-10
-1.26604e-10
4.23574e-10
-1.2775e-10
4.53279e-10
-1.28213e-10
4.83742e-10
-1.27902e-10
5.13056e-10
-1.27102e-10
5.41671e-10
-1.25938e-10
5.69924e-10
-1.24099e-10
5.9764e-10
-1.21688e-10
6.24694e-10
-1.18756e-10
6.50929e-10
-1.15308e-10
6.7684e-10
-1.11327e-10
7.0216e-10
-1.0688e-10
7.25656e-10
-1.01979e-10
7.47682e-10
-9.68341e-11
7.6852e-10
-9.11997e-11
7.88032e-10
-8.51719e-11
8.06131e-10
-7.88058e-11
8.22721e-10
-7.21275e-11
8.38237e-10
-6.51431e-11
8.5247e-10
-5.7937e-11
8.64485e-10
-5.04629e-11
8.74557e-10
-4.29502e-11
-3.5199e-11
8.82963e-10
1.60213e-12
1.0599e-12
4.45228e-12
-1.14958e-12
8.8072e-12
-6.08497e-12
1.48388e-11
-1.30091e-11
2.26566e-11
-2.1408e-11
3.23107e-11
-3.08431e-11
4.38285e-11
-4.09268e-11
5.7881e-11
-5.13014e-11
7.45046e-11
-6.16352e-11
9.17491e-11
-7.23378e-11
1.10884e-10
-8.27929e-11
1.31815e-10
-9.28526e-11
1.5438e-10
-1.02395e-10
1.78257e-10
-1.11282e-10
2.03357e-10
-1.19404e-10
2.29486e-10
-1.26744e-10
2.59561e-10
-1.33374e-10
2.88901e-10
-1.39456e-10
3.18928e-10
-1.44811e-10
3.49453e-10
-1.49374e-10
3.80629e-10
-1.53136e-10
4.12397e-10
-1.56075e-10
4.44574e-10
-1.5821e-10
4.76937e-10
-1.59529e-10
5.09872e-10
-1.60012e-10
5.43302e-10
-1.59645e-10
5.75419e-10
-1.58837e-10
6.0712e-10
-1.5726e-10
6.38307e-10
-1.54909e-10
6.68882e-10
-1.51854e-10
6.9873e-10
-1.4815e-10
7.27712e-10
-1.43821e-10
7.56217e-10
-1.38848e-10
7.84064e-10
-1.33231e-10
8.09766e-10
-1.27323e-10
8.34153e-10
-1.2085e-10
8.57141e-10
-1.13832e-10
8.78649e-10
-1.06331e-10
8.98598e-10
-9.84022e-11
9.1691e-10
-9.00843e-11
9.33921e-10
-8.13877e-11
9.49585e-10
-7.23264e-11
9.62643e-10
-6.3212e-11
9.73826e-10
-5.38246e-11
-4.41906e-11
9.83099e-10
1.46338e-12
-1.21656e-13
5.00394e-12
-4.08413e-12
1.03441e-11
-1.08517e-11
1.76026e-11
-1.96992e-11
2.68605e-11
-3.00946e-11
3.81614e-11
-4.15807e-11
5.15233e-11
-5.37486e-11
6.76754e-11
-6.62328e-11
8.58907e-11
-7.87075e-11
1.05332e-10
-9.12359e-11
1.26766e-10
-1.03531e-10
1.50133e-10
-1.15404e-10
1.7529e-10
-1.26735e-10
2.0189e-10
-1.3737e-10
2.29743e-10
-1.47131e-10
2.58667e-10
-1.55919e-10
2.91259e-10
-1.63535e-10
3.23404e-10
-1.70756e-10
3.56324e-10
-1.77155e-10
3.89833e-10
-1.82587e-10
4.23996e-10
-1.86985e-10
4.58756e-10
-1.90405e-10
4.93943e-10
-1.92898e-10
5.29336e-10
-1.94388e-10
5.65339e-10
-1.94936e-10
6.0138e-10
-1.94557e-10
6.36451e-10
-1.93409e-10
6.71062e-10
-1.9143e-10
7.05071e-10
-1.88545e-10
7.38378e-10
-1.84798e-10
7.70883e-10
-1.80253e-10
8.02468e-10
-1.74958e-10
8.33526e-10
-1.68937e-10
8.63478e-10
-1.62221e-10
8.91504e-10
-1.54924e-10
9.18093e-10
-1.47024e-10
9.43137e-10
-1.38501e-10
9.66553e-10
-1.29401e-10
9.88265e-10
-1.1978e-10
1.00821e-09
-1.09686e-10
1.02673e-09
-9.91604e-11
1.04346e-09
-8.82411e-11
1.05769e-09
-7.70869e-11
1.06989e-09
-6.56716e-11
-5.39863e-11
1.07999e-09
1.55433e-12
-1.34912e-12
5.65678e-12
-7.57388e-12
1.1909e-11
-1.65414e-11
2.03443e-11
-2.75826e-11
3.10037e-11
-4.01931e-11
4.39198e-11
-5.39146e-11
5.90896e-11
-6.83291e-11
7.72724e-11
-8.30611e-11
9.73668e-11
-9.77592e-11
1.1893e-10
-1.1238e-10
1.4259e-10
-1.26653e-10
1.68297e-10
-1.40403e-10
1.95944e-10
-1.5354e-10
2.25218e-10
-1.65923e-10
2.55836e-10
-1.77349e-10
2.87753e-10
-1.87658e-10
3.22592e-10
-1.96589e-10
3.5743e-10
-2.04945e-10
3.93202e-10
-2.12333e-10
4.29646e-10
-2.18608e-10
4.66708e-10
-2.23702e-10
5.04324e-10
-2.27692e-10
5.4245e-10
-2.30632e-10
5.80726e-10
-2.32244e-10
6.19588e-10
-2.32781e-10
6.58355e-10
-2.32122e-10
6.96191e-10
-2.3066e-10
7.33581e-10
-2.28283e-10
7.70308e-10
-2.24853e-10
8.06242e-10
-2.20393e-10
8.41278e-10
-2.14959e-10
8.75313e-10
-2.08618e-10
9.08738e-10
-2.01424e-10
9.40891e-10
-1.93386e-10
9.71075e-10
-1.84661e-10
9.99739e-10
-1.75239e-10
1.02674e-09
-1.65099e-10
1.05198e-09
-1.54289e-10
1.07537e-09
-1.42856e-10
1.09684e-09
-1.30853e-10
1.11676e-09
-1.18335e-10
1.13463e-09
-1.05319e-10
1.14993e-09
-9.20247e-11
1.16306e-09
-7.84301e-11
-6.45327e-11
1.17395e-09
1.73062e-12
-2.74475e-12
6.3769e-12
-1.16044e-11
1.35018e-11
-2.3111e-11
2.30705e-11
-3.66156e-11
3.50888e-11
-5.16681e-11
4.95773e-11
-6.78166e-11
6.65147e-11
-8.46393e-11
8.66809e-11
-1.01757e-10
1.0874e-10
-1.18838e-10
1.32427e-10
-1.35708e-10
1.58297e-10
-1.52122e-10
1.86287e-10
-1.67834e-10
2.16334e-10
-1.82811e-10
2.48199e-10
-1.96946e-10
2.81544e-10
-2.10051e-10
3.16447e-10
-2.21932e-10
3.53524e-10
-2.32441e-10
3.90992e-10
-2.41883e-10
4.29533e-10
-2.50207e-10
4.68831e-10
-2.57308e-10
5.08677e-10
-2.63126e-10
5.49013e-10
-2.67701e-10
5.90191e-10
-2.70939e-10
6.31224e-10
-2.72647e-10
6.72982e-10
-2.7319e-10
7.14245e-10
-2.72205e-10
7.54664e-10
-2.705e-10
7.94722e-10
-2.67699e-10
8.34089e-10
-2.63656e-10
8.7258e-10
-2.58435e-10
9.1007e-10
-2.52079e-10
9.46455e-10
-2.44642e-10
9.82168e-10
-2.36189e-10
1.01643e-09
-2.26719e-10
1.04866e-09
-2.16466e-10
1.07929e-09
-2.05414e-10
1.10817e-09
-1.93514e-10
1.13515e-09
-1.80855e-10
1.16016e-09
-1.67487e-10
1.1831e-09
-1.53455e-10
1.20439e-09
-1.38813e-10
1.22334e-09
-1.23573e-10
1.23963e-09
-1.07993e-10
1.25364e-09
-9.20722e-11
-7.57846e-11
1.26526e-09
1.92746e-12
-4.33607e-12
7.08513e-12
-1.61424e-11
1.51058e-11
-3.05757e-11
2.57751e-11
-4.67509e-11
3.91159e-11
-6.44739e-11
5.51369e-11
-8.32581e-11
7.38034e-11
-1.02671e-10
9.58881e-11
-1.22339e-10
1.19911e-10
-1.41866e-10
1.45692e-10
-1.61143e-10
1.73835e-10
-1.79907e-10
2.0409e-10
-1.97616e-10
2.36471e-10
-2.14459e-10
2.70836e-10
-2.30347e-10
3.06848e-10
-2.45133e-10
3.44564e-10
-2.58584e-10
3.84124e-10
-2.70131e-10
4.24154e-10
-2.80525e-10
4.65354e-10
-2.89672e-10
5.07383e-10
-2.97719e-10
5.49925e-10
-3.0448e-10
5.93047e-10
-3.09551e-10
6.37202e-10
-3.12702e-10
6.80832e-10
-3.14918e-10
7.25571e-10
-3.15619e-10
7.68976e-10
-3.15037e-10
8.11895e-10
-3.13037e-10
8.54574e-10
-3.0975e-10
8.96509e-10
-3.04902e-10
9.37497e-10
-2.98796e-10
9.7739e-10
-2.91449e-10
1.01607e-09
-2.82877e-10
1.05404e-09
-2.73123e-10
1.09028e-09
-2.62149e-10
1.12443e-09
-2.5029e-10
1.15699e-09
-2.37542e-10
1.18765e-09
-2.23687e-10
1.21632e-09
-2.09012e-10
1.24288e-09
-1.93567e-10
1.26726e-09
-1.77386e-10
1.28989e-09
-1.60519e-10
1.30984e-09
-1.42949e-10
1.32705e-09
-1.24972e-10
1.34192e-09
-1.06613e-10
-8.77284e-11
1.35424e-09
2.12346e-12
-6.13246e-12
7.70023e-12
-2.10981e-11
1.67838e-11
-3.81039e-11
2.84559e-11
-5.71823e-11
4.30723e-11
-7.78235e-11
6.05769e-11
-9.94321e-11
8.09048e-11
-1.21609e-10
1.04903e-10
-1.44108e-10
1.3081e-10
-1.66717e-10
1.58626e-10
-1.88552e-10
1.89276e-10
-2.09253e-10
2.21762e-10
-2.28816e-10
2.56433e-10
-2.473e-10
2.93201e-10
-2.64662e-10
3.31777e-10
-2.81051e-10
3.7265e-10
-2.96458e-10
4.14573e-10
-3.10869e-10
4.57087e-10
-3.22649e-10
5.00589e-10
-3.32766e-10
5.45121e-10
-3.41372e-10
5.9053e-10
-3.48507e-10
6.36778e-10
-3.54081e-10
6.83058e-10
-3.58196e-10
7.29414e-10
-3.60567e-10
7.76615e-10
-3.61332e-10
8.22617e-10
-3.60696e-10
8.67993e-10
-3.58253e-10
9.13427e-10
-3.53752e-10
9.57762e-10
-3.47681e-10
1.00112e-09
-3.40529e-10
1.04334e-09
-3.32167e-10
1.08425e-09
-3.22511e-10
1.12448e-09
-3.11601e-10
1.16259e-09
-2.99524e-10
1.19857e-09
-2.86012e-10
1.23315e-09
-2.71042e-10
1.26548e-09
-2.54903e-10
1.29572e-09
-2.3798e-10
1.32377e-09
-2.20305e-10
1.3495e-09
-2.01923e-10
1.37346e-09
-1.82903e-10
1.39437e-09
-1.63331e-10
1.41245e-09
-1.42856e-10
1.42827e-09
-1.2165e-10
-9.98996e-11
1.4412e-09
2.34676e-12
-7.31361e-12
8.79856e-12
-2.53003e-11
1.85135e-11
-4.58464e-11
3.10992e-11
-6.85678e-11
4.6953e-11
-9.251e-11
6.58669e-11
-1.17253e-10
8.76904e-11
-1.42389e-10
1.13227e-10
-1.67554e-10
1.41417e-10
-1.9272e-10
1.71745e-10
-2.16962e-10
2.04821e-10
-2.40176e-10
2.39601e-10
-2.62715e-10
2.76537e-10
-2.83807e-10
3.15352e-10
-3.03384e-10
3.5599e-10
-3.21472e-10
3.98896e-10
-3.38177e-10
4.44443e-10
-3.54236e-10
4.89601e-10
-3.67689e-10
5.3562e-10
-3.7896e-10
5.82575e-10
-3.88299e-10
6.3052e-10
-3.95895e-10
6.79193e-10
-4.01823e-10
7.28163e-10
-4.06068e-10
7.77089e-10
-4.08563e-10
8.26664e-10
-4.09217e-10
8.7544e-10
-4.08621e-10
9.23806e-10
-4.05311e-10
9.71738e-10
-3.99992e-10
1.01808e-09
-3.9351e-10
1.06355e-09
-3.85368e-10
1.10791e-09
-3.75719e-10
1.15093e-09
-3.64592e-10
1.19316e-09
-3.52003e-10
1.2335e-09
-3.38371e-10
1.2717e-09
-3.22927e-10
1.30817e-09
-3.05973e-10
1.34198e-09
-2.88157e-10
1.37361e-09
-2.69134e-10
1.40294e-09
-2.49103e-10
1.42987e-09
-2.2819e-10
1.45488e-09
-2.06474e-10
1.47714e-09
-1.84346e-10
1.49634e-09
-1.61089e-10
1.51305e-09
-1.37013e-10
-1.12762e-10
1.52647e-09
2.63611e-12
-9.11614e-12
9.58601e-12
-3.09736e-11
1.97719e-11
-5.55167e-11
3.34994e-11
-8.17446e-11
5.06376e-11
-1.0912e-10
7.10214e-11
-1.37173e-10
9.45025e-11
-1.6546e-10
1.21526e-10
-1.93555e-10
1.51979e-10
-2.21007e-10
1.8455e-10
-2.48028e-10
2.19422e-10
-2.74335e-10
2.56686e-10
-2.99363e-10
2.96072e-10
-3.22848e-10
3.37246e-10
-3.44582e-10
3.80142e-10
-3.64515e-10
4.24504e-10
-3.82799e-10
4.73477e-10
-4.00124e-10
5.21563e-10
-4.15097e-10
5.70295e-10
-4.27723e-10
6.19735e-10
-4.37979e-10
6.70079e-10
-4.46053e-10
7.21164e-10
-4.52172e-10
7.72628e-10
-4.56491e-10
8.24151e-10
-4.59025e-10
8.75705e-10
-4.59679e-10
9.27883e-10
-4.58473e-10
9.78955e-10
-4.55018e-10
1.02876e-09
-4.49668e-10
1.07745e-09
-4.42239e-10
1.12507e-09
-4.32923e-10
1.17156e-09
-4.21905e-10
1.21672e-09
-4.09279e-10
1.2606e-09
-3.95047e-10
1.30336e-09
-3.79141e-10
1.34364e-09
-3.61934e-10
1.38153e-09
-3.43456e-10
1.41706e-09
-3.23503e-10
1.45017e-09
-3.02178e-10
1.48083e-09
-2.79649e-10
1.509e-09
-2.56101e-10
1.5348e-09
-2.31654e-10
1.55853e-09
-2.06335e-10
1.57884e-09
-1.80341e-10
1.59598e-09
-1.53812e-10
-1.2664e-10
1.61008e-09
2.70294e-12
-1.15392e-11
9.91565e-12
-3.76092e-11
2.09547e-11
-6.59852e-11
3.57547e-11
-9.59675e-11
5.41777e-11
-1.26974e-10
7.60591e-11
-1.58528e-10
1.01235e-10
-1.90169e-10
1.30219e-10
-2.21451e-10
1.62267e-10
-2.51866e-10
1.9658e-10
-2.81682e-10
2.33646e-10
-3.10548e-10
2.73277e-10
-3.38152e-10
3.15181e-10
-3.64149e-10
3.58836e-10
-3.88244e-10
4.04051e-10
-4.10227e-10
4.49989e-10
-4.30136e-10
5.01877e-10
-4.48256e-10
5.5283e-10
-4.64589e-10
6.04466e-10
-4.78628e-10
6.56598e-10
-4.90098e-10
7.09405e-10
-4.98997e-10
7.62813e-10
-5.05531e-10
8.16564e-10
-5.09946e-10
8.70471e-10
-5.12406e-10
9.24354e-10
-5.12907e-10
9.79256e-10
-5.112e-10
1.03268e-09
-5.07354e-10
1.08503e-09
-5.0147e-10
1.13607e-09
-4.9333e-10
1.18586e-09
-4.82938e-10
1.23441e-09
-4.70537e-10
1.28161e-09
-4.56302e-10
1.32758e-09
-4.40291e-10
1.37205e-09
-4.22274e-10
1.41399e-09
-4.03039e-10
1.45373e-09
-3.82453e-10
1.49099e-09
-3.60377e-10
1.52565e-09
-3.36762e-10
1.55765e-09
-3.1171e-10
1.58701e-09
-2.85426e-10
1.61394e-09
-2.5811e-10
1.63857e-09
-2.29748e-10
1.65961e-09
-2.00775e-10
1.67757e-09
-1.71212e-10
-1.41038e-10
1.69232e-09
2.78497e-12
-1.40048e-11
1.03822e-11
-4.46119e-11
2.21657e-11
-7.72221e-11
3.79613e-11
-1.11222e-10
5.76022e-11
-1.46061e-10
8.09368e-11
-1.81289e-10
1.07781e-10
-2.16449e-10
1.38765e-10
-2.5108e-10
1.72377e-10
-2.84607e-10
2.08486e-10
-3.17317e-10
2.47555e-10
-3.48895e-10
2.89408e-10
-3.79104e-10
3.33757e-10
-4.07656e-10
3.79992e-10
-4.34244e-10
4.27707e-10
-4.58477e-10
4.75758e-10
-4.80054e-10
5.29829e-10
-4.98935e-10
5.834e-10
-5.16327e-10
6.3792e-10
-5.31601e-10
6.92915e-10
-5.44371e-10
7.48359e-10
-5.54427e-10
8.04141e-10
-5.61777e-10
8.60089e-10
-5.66549e-10
9.16195e-10
-5.68917e-10
9.72444e-10
-5.68897e-10
1.02983e-09
-5.66005e-10
1.08552e-09
-5.61392e-10
1.1404e-09
-5.55054e-10
1.1939e-09
-5.46378e-10
1.24594e-09
-5.35124e-10
1.29657e-09
-5.21473e-10
1.34578e-09
-5.0562e-10
1.39397e-09
-4.87686e-10
1.43988e-09
-4.67241e-10
1.48339e-09
-4.45761e-10
1.52483e-09
-4.22936e-10
1.56383e-09
-3.98623e-10
1.60011e-09
-3.72707e-10
1.63352e-09
-3.45158e-10
1.66407e-09
-3.16106e-10
1.6922e-09
-2.85792e-10
1.71755e-09
-2.54213e-10
1.7393e-09
-2.22004e-10
1.75798e-09
-1.89235e-10
-1.55879e-10
1.77338e-09
2.92188e-12
-1.65918e-11
1.09325e-11
-5.20301e-11
2.34086e-11
-8.91786e-11
4.01504e-11
-1.27464e-10
6.09522e-11
-1.66331e-10
8.56839e-11
-2.05385e-10
1.14153e-10
-2.44202e-10
1.47153e-10
-2.82339e-10
1.8236e-10
-3.19268e-10
2.20262e-10
-3.55018e-10
2.61205e-10
-3.89391e-10
3.05103e-10
-4.22176e-10
3.51732e-10
-4.53109e-10
4.00568e-10
-4.82043e-10
4.511e-10
-5.08555e-10
5.02006e-10
-5.32137e-10
5.57694e-10
-5.50434e-10
6.13476e-10
-5.68137e-10
6.70547e-10
-5.84465e-10
7.28308e-10
-5.99255e-10
7.86491e-10
-6.11853e-10
8.44872e-10
-6.21636e-10
9.03259e-10
-6.2813e-10
9.61772e-10
-6.30876e-10
1.02087e-09
-6.29717e-10
1.07998e-09
-6.22824e-10
1.13745e-09
-6.17491e-10
1.19468e-09
-6.1043e-10
1.25076e-09
-6.01108e-10
1.30521e-09
-5.88907e-10
1.35809e-09
-5.74039e-10
1.40938e-09
-5.56643e-10
1.46009e-09
-5.36855e-10
1.5071e-09
-5.14289e-10
1.55202e-09
-4.90411e-10
1.59498e-09
-4.65163e-10
1.63562e-09
-4.38224e-10
1.67356e-09
-4.09718e-10
1.70851e-09
-3.79556e-10
1.74034e-09
-3.47739e-10
1.76981e-09
-3.14487e-10
1.79577e-09
-2.79829e-10
1.81813e-09
-2.44224e-10
1.83742e-09
-2.0798e-10
-1.71206e-10
1.85342e-09
3.08289e-12
-1.93328e-11
1.14946e-11
-5.98399e-11
2.46222e-11
-1.01789e-10
4.23423e-11
-1.44702e-10
6.42788e-11
-1.87747e-10
9.0355e-11
-2.3079e-10
1.20391e-10
-2.73419e-10
1.55305e-10
-3.15227e-10
1.92207e-10
-3.5576e-10
2.3191e-10
-3.94765e-10
2.74677e-10
-4.32043e-10
3.20579e-10
-4.67448e-10
3.693e-10
-5.00495e-10
4.20691e-10
-5.31416e-10
4.74039e-10
-5.59969e-10
5.30223e-10
-5.85659e-10
5.86224e-10
-6.08036e-10
6.43328e-10
-6.27585e-10
7.01682e-10
-6.44241e-10
7.61427e-10
-6.58314e-10
8.22207e-10
-6.69814e-10
8.83651e-10
-6.78632e-10
9.4566e-10
-6.84692e-10
1.00773e-09
-6.87821e-10
1.07238e-09
-6.87702e-10
1.12968e-09
-6.83621e-10
1.1888e-09
-6.7724e-10
1.24796e-09
-6.68753e-10
1.30668e-09
-6.58011e-10
1.36363e-09
-6.4431e-10
1.41891e-09
-6.27939e-10
1.47241e-09
-6.08982e-10
1.52578e-09
-5.87532e-10
1.57386e-09
-5.63453e-10
1.62011e-09
-5.37435e-10
1.66452e-09
-5.09448e-10
1.70664e-09
-4.79494e-10
1.74615e-09
-4.47907e-10
1.78266e-09
-4.14776e-10
1.81585e-09
-3.80036e-10
1.84664e-09
-3.43725e-10
1.8735e-09
-3.069e-10
1.89639e-09
-2.67601e-10
1.91616e-09
-2.27658e-10
-1.87187e-10
1.93265e-09
3.26599e-12
-2.22635e-11
1.20278e-11
-6.79816e-11
2.57348e-11
-1.14954e-10
4.4632e-11
-1.6206e-10
6.76332e-11
-2.09378e-10
9.49838e-11
-2.56514e-10
1.26469e-10
-3.03079e-10
1.63126e-10
-3.48907e-10
2.01839e-10
-3.93915e-10
2.43412e-10
-4.36362e-10
2.88085e-10
-4.7674e-10
3.36303e-10
-5.13874e-10
3.86997e-10
-5.47881e-10
4.40552e-10
-5.7969e-10
4.96429e-10
-6.09849e-10
5.5565e-10
-6.38596e-10
6.14083e-10
-6.67245e-10
6.73687e-10
-6.88623e-10
7.3415e-10
-7.06238e-10
7.95989e-10
-7.20597e-10
8.58971e-10
-7.31995e-10
9.22684e-10
-7.40499e-10
9.87172e-10
-7.46213e-10
1.05199e-09
-7.49208e-10
1.12029e-09
-7.49628e-10
1.17925e-09
-7.47262e-10
1.24003e-09
-7.40381e-10
1.30099e-09
-7.3028e-10
1.36234e-09
-7.16991e-10
1.42154e-09
-6.99709e-10
1.47903e-09
-6.80838e-10
1.53463e-09
-6.60258e-10
1.59033e-09
-6.38001e-10
1.64e-09
-6.14536e-10
1.6878e-09
-5.86295e-10
1.73398e-09
-5.56589e-10
1.77745e-09
-5.21788e-10
1.81825e-09
-4.85574e-10
1.85609e-09
-4.48755e-10
1.89068e-09
-4.11223e-10
1.92178e-09
-3.72463e-10
1.95099e-09
-3.32228e-10
1.97429e-09
-2.91269e-10
1.9945e-09
-2.48007e-10
-2.03834e-10
2.01131e-09
3.52135e-12
-2.46116e-11
1.25343e-11
-7.57296e-11
2.74053e-11
-1.27557e-10
4.71178e-11
-1.79898e-10
7.11161e-11
-2.32435e-10
9.95934e-11
-2.84277e-10
1.32214e-10
-3.35086e-10
1.69856e-10
-3.84597e-10
2.11217e-10
-4.33264e-10
2.54758e-10
-4.79622e-10
3.02484e-10
-5.22908e-10
3.53468e-10
-5.63511e-10
4.05966e-10
-6.01806e-10
4.60607e-10
-6.36818e-10
5.17457e-10
-6.68843e-10
5.76086e-10
-6.98403e-10
6.4119e-10
-7.27392e-10
7.03818e-10
-7.51126e-10
7.66979e-10
-7.70422e-10
8.3104e-10
-7.8571e-10
8.96178e-10
-7.97334e-10
9.61942e-10
-8.05525e-10
1.0284e-09
-8.10609e-10
1.0951e-09
-8.13032e-10
1.16536e-09
-8.13026e-10
1.22825e-09
-8.15223e-10
1.29161e-09
-8.08587e-10
1.3551e-09
-7.95849e-10
1.41975e-09
-7.79071e-10
1.47989e-09
-7.61744e-10
1.53849e-09
-7.41541e-10
1.59528e-09
-7.18673e-10
1.65148e-09
-6.93272e-10
1.70558e-09
-6.67324e-10
1.75427e-09
-6.38223e-10
1.80513e-09
-6.03133e-10
1.84949e-09
-5.67213e-10
1.89058e-09
-5.28707e-10
1.92874e-09
-4.88567e-10
1.96418e-09
-4.47146e-10
1.99647e-09
-4.0437e-10
2.02613e-09
-3.60208e-10
2.05149e-09
-3.15735e-10
2.07238e-09
-2.69007e-10
-2.20848e-10
2.0896e-09
3.62495e-12
-2.74325e-11
1.33133e-11
-8.41644e-11
2.87444e-11
-1.41715e-10
4.90559e-11
-1.99644e-10
7.42887e-11
-2.57171e-10
1.04061e-10
-3.13795e-10
1.38113e-10
-3.69061e-10
1.76527e-10
-4.22571e-10
2.19992e-10
-4.73783e-10
2.66182e-10
-5.23438e-10
3.16135e-10
-5.70788e-10
3.68863e-10
-6.15521e-10
4.23976e-10
-6.56996e-10
4.80742e-10
-6.94824e-10
5.39281e-10
-7.29019e-10
5.97598e-10
-7.60105e-10
6.67126e-10
-7.89716e-10
7.33195e-10
-8.15203e-10
7.99445e-10
-8.3645e-10
8.66159e-10
-8.53075e-10
9.33744e-10
-8.65749e-10
1.00168e-09
-8.74438e-10
1.06968e-09
-8.79518e-10
1.13806e-09
-8.81541e-10
1.20518e-09
-8.81047e-10
1.276e-09
-8.77857e-10
1.34426e-09
-8.70441e-10
1.41109e-09
-8.59075e-10
1.47543e-09
-8.44027e-10
1.53763e-09
-8.25513e-10
1.59791e-09
-8.0391e-10
1.65655e-09
-7.79171e-10
1.71251e-09
-7.51137e-10
1.76914e-09
-7.1819e-10
1.82305e-09
-6.86152e-10
1.87413e-09
-6.52004e-10
1.9206e-09
-6.143e-10
1.96267e-09
-5.73133e-10
2.00162e-09
-5.29351e-10
2.0379e-09
-4.83863e-10
2.07123e-09
-4.37086e-10
2.1008e-09
-3.89084e-10
2.12811e-09
-3.40089e-10
2.15011e-09
-2.89454e-10
-2.37683e-10
2.16799e-09
3.68851e-12
-3.08522e-11
1.37755e-11
-9.36793e-11
2.96172e-11
-1.56978e-10
5.08558e-11
-2.20243e-10
7.72447e-11
-2.82943e-10
1.0842e-10
-3.44544e-10
1.44051e-10
-4.04511e-10
1.84392e-10
-4.62301e-10
2.28884e-10
-5.16936e-10
2.76742e-10
-5.70042e-10
3.28497e-10
-6.20875e-10
3.83598e-10
-6.69048e-10
4.41411e-10
-7.14025e-10
5.00754e-10
-7.55139e-10
5.61357e-10
-7.92004e-10
6.20068e-10
-8.24802e-10
6.92497e-10
-8.54035e-10
7.61563e-10
-8.80847e-10
8.31094e-10
-9.03735e-10
9.00715e-10
-9.22359e-10
9.71042e-10
-9.36511e-10
1.04135e-09
-9.46516e-10
1.11113e-09
-9.5228e-10
1.18082e-09
-9.54099e-10
1.24915e-09
-9.52135e-10
1.32332e-09
-9.45893e-10
1.39433e-09
-9.37115e-10
1.46371e-09
-9.25712e-10
1.53034e-09
-9.10549e-10
1.59456e-09
-8.91625e-10
1.65705e-09
-8.69093e-10
1.71801e-09
-8.42783e-10
1.77774e-09
-8.11901e-10
1.83271e-09
-7.71842e-10
1.88798e-09
-7.36244e-10
1.94164e-09
-7.00068e-10
1.99084e-09
-6.61152e-10
2.03487e-09
-6.18136e-10
2.0749e-09
-5.71438e-10
2.11188e-09
-5.22172e-10
2.14591e-09
-4.71282e-10
2.17601e-09
-4.19164e-10
2.20451e-09
-3.65987e-10
2.22728e-09
-3.11426e-10
-2.55757e-10
2.24567e-09
3.79245e-12
-3.43272e-11
1.42233e-11
-1.03571e-10
3.05929e-11
-1.72872e-10
5.26138e-11
-2.41761e-10
8.00257e-11
-3.09782e-10
1.12571e-10
-3.76453e-10
1.49871e-10
-4.41248e-10
1.92707e-10
-5.03536e-10
2.37895e-10
-5.62005e-10
2.87068e-10
-6.18598e-10
3.404e-10
-6.72734e-10
3.97573e-10
-7.24256e-10
4.57981e-10
-7.72727e-10
5.20238e-10
-8.17393e-10
5.83496e-10
-8.57406e-10
6.44237e-10
-8.92103e-10
7.17706e-10
-9.2114e-10
7.89259e-10
-9.48771e-10
8.61691e-10
-9.73036e-10
9.34105e-10
-9.90703e-10
1.00707e-09
-1.00989e-09
1.08011e-09
-1.02506e-09
1.15237e-09
-1.03479e-09
1.22439e-09
-1.03758e-09
1.29561e-09
-1.03277e-09
1.37073e-09
-1.01544e-09
1.44291e-09
-1.00555e-09
1.51468e-09
-9.93541e-10
1.58384e-09
-9.78265e-10
1.65033e-09
-9.5906e-10
1.71551e-09
-9.35915e-10
1.77969e-09
-9.08285e-10
1.84736e-09
-8.74874e-10
1.89688e-09
-8.28386e-10
1.95175e-09
-7.88095e-10
2.00713e-09
-7.48379e-10
2.05955e-09
-7.07152e-10
2.10641e-09
-6.62389e-10
2.14822e-09
-6.13537e-10
2.18611e-09
-5.61253e-10
2.22071e-09
-5.06664e-10
2.25131e-09
-4.50434e-10
2.28068e-09
-3.92639e-10
2.30411e-09
-3.33967e-10
-2.74241e-10
2.32304e-09
3.93623e-12
-3.79026e-11
1.47337e-11
-1.13851e-10
3.16539e-11
-1.89436e-10
5.43912e-11
-2.642e-10
8.27259e-11
-3.37651e-10
1.16558e-10
-4.09379e-10
1.55519e-10
-4.78991e-10
2.0117e-10
-5.4595e-10
2.47097e-10
-6.09093e-10
2.975e-10
-6.69363e-10
3.52066e-10
-7.26699e-10
4.10833e-10
-7.81276e-10
4.73463e-10
-8.32721e-10
5.38752e-10
-8.8041e-10
6.05516e-10
-9.23559e-10
6.70245e-10
-9.61115e-10
7.43501e-10
-9.88734e-10
8.16481e-10
-1.01489e-09
8.93681e-10
-1.03862e-09
9.62828e-10
-1.06303e-09
1.0382e-09
-1.07952e-09
1.1147e-09
-1.09212e-09
1.1924e-09
-1.10055e-09
1.26996e-09
-1.10426e-09
1.35204e-09
-1.10225e-09
1.41803e-09
-1.09101e-09
1.49097e-09
-1.07875e-09
1.56409e-09
-1.0645e-09
1.63569e-09
-1.04756e-09
1.70456e-09
-1.02675e-09
1.77299e-09
-1.00162e-09
1.84124e-09
-9.71938e-10
1.92034e-09
-9.36407e-10
1.96262e-09
-8.91175e-10
2.01604e-09
-8.46513e-10
2.0716e-09
-8.01245e-10
2.12651e-09
-7.55174e-10
2.17644e-09
-7.07009e-10
2.22076e-09
-6.55581e-10
2.26013e-09
-6.00551e-10
2.2956e-09
-5.42697e-10
2.32706e-09
-4.82569e-10
2.35673e-09
-4.20184e-10
2.3807e-09
-3.57178e-10
-2.9316e-10
2.40017e-09
4.07863e-12
-4.16008e-11
1.52501e-11
-1.2446e-10
3.27376e-11
-2.0656e-10
5.62149e-11
-2.87407e-10
8.55204e-11
-3.66584e-10
1.20542e-10
-4.43365e-10
1.61012e-10
-5.17784e-10
2.09196e-10
-5.89538e-10
2.56438e-10
-6.58062e-10
3.08216e-10
-7.22595e-10
3.63859e-10
-7.83345e-10
4.23855e-10
-8.40532e-10