/*--------------------------------*- C++ -*----------------------------------*\
  =========                 |
  \\      /  F ield         | OpenFOAM: The Open Source CFD Toolbox
   \\    /   O peration     | Website:  https://openfoam.org
    \\  /    A nd           | Version:  7
     \\/     M anipulation  |
\*---------------------------------------------------------------------------*/
FoamFile
{
    version     2.0;
    format      ascii;
    class       volScalarField;
    location    "3";
    object      rho;
}
// * * * * * * * * * * * * * * * * * * * * * * * * * * * * * * * * * * * * * //

dimensions      [1 -3 0 0 0 0 0];

internalField   nonuniform List<scalar> 
25200
(
1.40001
1.40001
1.40001
1.40001
1.40001
1.40001
1.40001
1.40001
1.40001
1.40001
1.40001
1.40001
1.40001
1.40001
1.40001
1.40001
1.40001
1.40001
1.40001
1.40001
1.40001
1.40001
1.40001
1.40001
1.40001
1.40001
1.40001
1.40001
1.40001
1.40001
2.34854
5.07749
5.4429
5.45104
5.48323
5.51723
5.55421
5.5918
5.62845
5.66254
5.69272
5.7181
5.73927
5.75874
5.77968
5.80333
5.82809
5.85154
5.87204
5.88892
5.90302
5.91638
5.9306
5.94523
5.95852
5.96854
5.97398
5.9752
5.97493
5.97631
1.40001
1.40001
1.40001
1.40001
1.40001
1.40001
1.40001
1.40001
1.40001
1.40001
1.40001
1.40001
1.40001
1.40001
1.40001
1.40001
1.40001
1.40001
1.40001
1.40001
1.40001
1.40001
1.40001
1.40001
1.40001
1.40001
1.40001
1.40001
1.40001
1.40001
2.32394
5.05729
5.44225
5.45181
5.48349
5.51698
5.55355
5.59088
5.62737
5.66137
5.6915
5.71681
5.73786
5.75713
5.77783
5.80127
5.82598
5.84952
5.87015
5.88704
5.90102
5.91419
5.92823
5.9427
5.95585
5.96573
5.97105
5.97219
5.97189
5.97326
1.40001
1.40001
1.40001
1.40001
1.40001
1.40001
1.40001
1.40001
1.40001
1.40001
1.40001
1.40001
1.40001
1.40001
1.40001
1.40001
1.40001
1.40001
1.40001
1.40001
1.40001
1.40001
1.40001
1.40001
1.40001
1.40001
1.40001
1.40001
1.40001
1.40001
2.26831
5.03015
5.44275
5.45132
5.48215
5.51533
5.55174
5.58894
5.62534
5.65929
5.68934
5.71449
5.73536
5.75437
5.77478
5.79797
5.8226
5.84625
5.86705
5.88402
5.89793
5.91091
5.92469
5.93884
5.95162
5.9611
5.9661
5.9671
5.96677
5.96812
1.40001
1.40001
1.40001
1.40001
1.40001
1.40001
1.40001
1.40001
1.40001
1.40001
1.40001
1.40001
1.40001
1.40001
1.40001
1.40001
1.40001
1.40001
1.40001
1.40001
1.40001
1.40001
1.40001
1.40001
1.40001
1.40001
1.40001
1.40001
1.40001
1.40001
2.18928
4.98964
5.44758
5.45283
5.48164
5.51348
5.54907
5.58577
5.6219
5.65575
5.6858
5.71089
5.73159
5.75029
5.7703
5.79317
5.81768
5.84141
5.86233
5.87938
5.89326
5.9061
5.91963
5.9334
5.94572
5.95465
5.95913
5.95979
5.95925
5.96043
1.40001
1.40001
1.40001
1.40001
1.40001
1.40001
1.40001
1.40001
1.40001
1.40001
1.40001
1.40001
1.40001
1.40001
1.40001
1.40001
1.40001
1.40001
1.40001
1.40001
1.40001
1.40001
1.40001
1.40001
1.40001
1.40001
1.40001
1.40001
1.40001
1.40001
2.09091
4.92726
5.45187
5.45382
5.48082
5.51103
5.54545
5.58128
5.61691
5.65057
5.68063
5.70576
5.72636
5.7447
5.76417
5.78651
5.81071
5.83435
5.85533
5.87248
5.88642
5.8992
5.9125
5.92591
5.93782
5.94632
5.95045
5.95087
5.95015
5.95118
1.40001
1.40001
1.40001
1.40001
1.40001
1.40001
1.40001
1.40001
1.40001
1.40001
1.40001
1.40001
1.40001
1.40001
1.40001
1.40001
1.40001
1.40001
1.40001
1.40001
1.40001
1.40001
1.40001
1.40001
1.40001
1.40001
1.40001
1.40001
1.40001
1.40001
1.97771
4.83971
5.45395
5.4541
5.48037
5.50887
5.54167
5.57605
5.61067
5.64379
5.67381
5.69919
5.72006
5.73833
5.75731
5.77895
5.80255
5.8258
5.84659
5.86373
5.87769
5.89037
5.90337
5.91633
5.92776
5.9358
5.9396
5.93978
5.9389
5.93981
1.40001
1.40001
1.40001
1.40001
1.40001
1.40001
1.40001
1.40001
1.40001
1.40001
1.40001
1.40001
1.40001
1.40001
1.40001
1.40001
1.40001
1.40001
1.40001
1.40001
1.40001
1.40001
1.40001
1.40001
1.40001
1.40001
1.40001
1.40001
1.40001
1.40001
1.85445
4.72544
5.45385
5.45427
5.48083
5.50742
5.53824
5.57071
5.60389
5.63616
5.66592
5.69148
5.71265
5.73087
5.74924
5.7699
5.79257
5.81517
5.83566
5.85278
5.86676
5.87929
5.89193
5.90438
5.91532
5.92293
5.92645
5.92643
5.92543
5.92628
1.40001
1.40001
1.40001
1.40001
1.40001
1.40001
1.40001
1.40001
1.40001
1.40001
1.40001
1.40001
1.40001
1.40001
1.40001
1.40001
1.40001
1.40001
1.40001
1.40001
1.40001
1.40001
1.40001
1.40001
1.40001
1.40001
1.40001
1.40001
1.40001
1.40001
1.72804
4.58633
5.4534
5.45356
5.48127
5.50588
5.53448
5.56474
5.59624
5.62747
5.65683
5.68255
5.70415
5.72256
5.74049
5.76015
5.78172
5.80346
5.82343
5.8403
5.85409
5.86626
5.87833
5.89009
5.9004
5.90743
5.9106
5.91026
5.909
5.90974
1.40001
1.40001
1.40001
1.40001
1.40001
1.40001
1.40001
1.40001
1.40001
1.40001
1.40001
1.40001
1.40001
1.40001
1.40001
1.40001
1.40001
1.40001
1.40001
1.40001
1.40001
1.40001
1.40001
1.40001
1.40001
1.40001
1.40001
1.40001
1.40001
1.40001
1.60191
4.42113
5.44737
5.44785
5.477
5.50131
5.52891
5.55758
5.58747
5.61748
5.6463
5.67218
5.69433
5.71309
5.7307
5.74932
5.76964
5.79032
5.80955
5.82593
5.83928
5.85086
5.86219
5.87316
5.88276
5.8892
5.89199
5.89135
5.88982
5.89045
1.40001
1.40001
1.40001
1.40001
1.40001
1.40001
1.40001
1.40001
1.40001
1.40001
1.40001
1.40001
1.40001
1.40001
1.40001
1.40001
1.40001
1.40001
1.40001
1.40001
1.40001
1.40001
1.40001
1.40001
1.40001
1.40001
1.40001
1.40001
1.40001
1.40001
1.47703
4.22649
5.4346
5.4411
5.46918
5.49415
5.5209
5.54804
5.57633
5.60511
5.63322
5.65898
5.68143
5.70049
5.71787
5.73563
5.75484
5.77458
5.79314
5.80907
5.822
5.83298
5.84354
5.85368
5.86245
5.86809
5.87026
5.86908
5.86712
5.86745
1.40001
1.40001
1.40001
1.40001
1.40001
1.40001
1.40001
1.40001
1.40001
1.40001
1.40001
1.40001
1.40001
1.40001
1.40001
1.40001
1.40001
1.40001
1.40001
1.40001
1.40001
1.40001
1.40001
1.40001
1.40001
1.40001
1.40001
1.40001
1.40001
1.40001
1.40413
3.97068
5.38136
5.41459
5.44676
5.47615
5.50499
5.53289
5.56081
5.58879
5.6164
5.64229
5.66527
5.68475
5.70207
5.71918
5.73741
5.75621
5.77404
5.78938
5.80169
5.81183
5.82137
5.83045
5.83824
5.84309
5.84469
5.84317
5.84089
5.84103
1.40001
1.40001
1.40001
1.40001
1.40001
1.40001
1.40001
1.40001
1.40001
1.40001
1.40001
1.40001
1.40001
1.40001
1.40001
1.40001
1.40001
1.40001
1.40001
1.40001
1.40001
1.40001
1.40001
1.40001
1.40001
1.40001
1.40001
1.40001
1.40001
1.40001
1.40003
3.6523
5.32271
5.38731
5.42205
5.45578
5.48696
5.51656
5.54525
5.57295
5.5995
5.62417
5.64646
5.66582
5.6831
5.69982
5.71713
5.73493
5.75192
5.76659
5.77826
5.78754
5.79601
5.80398
5.81065
5.81451
5.81511
5.81271
5.80975
5.80932
1.40001
1.40001
1.40001
1.40001
1.40001
1.40001
1.40001
1.40001
1.40001
1.40001
1.40001
1.40001
1.40001
1.40001
1.40001
1.40001
1.40001
1.40001
1.40001
1.40001
1.40001
1.40001
1.40001
1.40001
1.40001
1.40001
1.40001
1.40001
1.40001
1.40001
1.40001
3.29717
5.26438
5.36865
5.4036
5.43706
5.4684
5.49821
5.52666
5.55368
5.57944
5.60352
5.62508
5.64377
5.66025
5.67622
5.69274
5.70962
5.72579
5.73981
5.7508
5.75907
5.76607
5.77234
5.77725
5.77987
5.77957
5.77666
5.77335
5.77279
1.40001
1.40001
1.40001
1.40001
1.40001
1.40001
1.40001
1.40001
1.40001
1.40001
1.40001
1.40001
1.40001
1.40001
1.40001
1.40001
1.40001
1.40001
1.40001
1.40001
1.40001
1.40001
1.40001
1.40001
1.40001
1.40001
1.40001
1.40001
1.40001
1.40001
1.40001
2.91295
5.18641
5.36449
5.39724
5.42724
5.45591
5.48423
5.51117
5.53615
5.5594
5.58093
5.60052
5.61795
5.63369
5.64902
5.66446
5.68029
5.69561
5.70892
5.71913
5.72623
5.73162
5.73614
5.73937
5.7407
5.73873
5.73374
5.72875
5.72687
1.40001
1.40001
1.40001
1.40001
1.40001
1.40001
1.40001
1.40001
1.40001
1.40001
1.40001
1.40001
1.40001
1.40001
1.40001
1.40001
1.40001
1.40001
1.40001
1.40001
1.40001
1.40001
1.40001
1.40001
1.40001
1.40001
1.40001
1.40001
1.40001
1.40001
1.40001
2.52227
5.05685
5.39189
5.40255
5.42564
5.44958
5.47504
5.49967
5.52218
5.54246
5.56099
5.57785
5.59278
5.60593
5.61878
5.6326
5.64699
5.66094
5.67311
5.68223
5.68798
5.69126
5.69319
5.69346
5.69176
5.68739
5.68077
5.67488
5.67332
1.40001
1.40001
1.40001
1.40001
1.40001
1.40001
1.40001
1.40001
1.40001
1.40001
1.40001
1.40001
1.40001
1.40001
1.40001
1.40001
1.40001
1.40001
1.40001
1.40001
1.40001
1.40001
1.40001
1.40001
1.40001
1.40001
1.40001
1.40001
1.40001
1.40001
1.40001
2.12318
4.8564
5.43239
5.42667
5.44202
5.45679
5.47422
5.49292
5.51125
5.52798
5.54309
5.55655
5.5685
5.5791
5.5892
5.60002
5.61183
5.62363
5.63383
5.6409
5.64437
5.64489
5.64381
5.64101
5.6365
5.62909
5.6177
5.60635
5.59973
1.40001
1.40001
1.40001
1.40001
1.40001
1.40001
1.40001
1.40001
1.40001
1.40001
1.40001
1.40001
1.40001
1.40001
1.40001
1.40001
1.40001
1.40001
1.40001
1.40001
1.40001
1.40001
1.40001
1.40001
1.40001
1.40001
1.40001
1.40001
1.40001
1.40001
1.40001
1.7303
4.64816
5.47834
5.43029
5.44515
5.45766
5.47458
5.49038
5.50484
5.51751
5.52826
5.53728
5.54523
5.55246
5.55948
5.56717
5.57577
5.58414
5.59095
5.59491
5.59543
5.59242
5.58718
5.579
5.56731
5.55114
5.53256
5.51621
5.51197
1.40001
1.40001
1.40001
1.40001
1.40001
1.40001
1.40001
1.40001
1.40001
1.40001
1.40001
1.40001
1.40001
1.40001
1.40001
1.40001
1.40001
1.40001
1.40001
1.40001
1.40001
1.40001
1.40001
1.40001
1.40001
1.40001
1.40001
1.40001
1.40001
1.40001
1.40001
1.43177
4.2475
5.43886
5.40686
5.43112
5.45063
5.4669
5.4833
5.49822
5.50902
5.51646
5.52136
5.52478
5.52774
5.53077
5.53462
5.53936
5.5433
5.54579
5.54591
5.54182
5.53397
5.52221
5.50651
5.48725
5.46337
5.43654
5.40469
5.37464
1.40001
1.40001
1.40001
1.40001
1.40001
1.40001
1.40001
1.40001
1.40001
1.40001
1.40001
1.40001
1.40001
1.40001
1.40001
1.40001
1.40001
1.40001
1.40001
1.40001
1.40001
1.40001
1.40001
1.40001
1.40001
1.40001
1.40001
1.40001
1.40001
1.40001
1.40001
1.40015
3.70064
5.27935
5.34301
5.39146
5.42595
5.45248
5.47268
5.48654
5.49722
5.50351
5.50574
5.50546
5.50405
5.50256
5.50192
5.5018
5.5005
5.49791
5.4925
5.48298
5.46893
5.44979
5.42487
5.39259
5.34748
5.28685
5.22629
5.18302
1.40001
1.40001
1.40001
1.40001
1.40001
1.40001
1.40001
1.40001
1.40001
1.40001
1.40001
1.40001
1.40001
1.40001
1.40001
1.40001
1.40001
1.40001
1.40001
1.40001
1.40001
1.40001
1.40001
1.40001
1.40001
1.40001
1.40001
1.40001
1.40001
1.40001
1.40001
1.4
3.16467
5.15379
5.29922
5.35755
5.3979
5.42456
5.44466
5.4618
5.47571
5.48409
5.48707
5.48573
5.48145
5.47576
5.47015
5.46454
5.45762
5.44854
5.4367
5.42061
5.3989
5.37011
5.33132
5.27931
5.21111
5.12467
5.02472
4.96171
1.40001
1.40001
1.40001
1.40001
1.40001
1.40001
1.40001
1.40001
1.40001
1.40001
1.40001
1.40001
1.40001
1.40001
1.40001
1.40001
1.40001
1.40001
1.40001
1.40001
1.40001
1.40001
1.40001
1.40001
1.40001
1.40001
1.40001
1.40001
1.40001
1.40001
1.40001
1.4
2.61835
4.98027
5.29375
5.34479
5.37644
5.39918
5.41686
5.43273
5.44651
5.45766
5.46309
5.46287
5.45757
5.44902
5.43857
5.42728
5.4143
5.39787
5.37824
5.35416
5.32324
5.28324
5.22962
5.15899
5.05879
4.89957
4.53873
3.64125
1.40001
1.40001
1.40001
1.40001
1.40001
1.40001
1.40001
1.40001
1.40001
1.40001
1.40001
1.40001
1.40001
1.40001
1.40001
1.40001
1.40001
1.40001
1.40001
1.40001
1.40001
1.40001
1.40001
1.40001
1.40001
1.40001
1.40001
1.40001
1.40001
1.40001
1.40001
1.4
2.04392
4.77751
5.35733
5.33932
5.35283
5.37053
5.38677
5.40206
5.41555
5.42622
5.43334
5.43519
5.43046
5.42074
5.40673
5.3902
5.37098
5.34735
5.31919
5.28601
5.24476
5.19235
5.1222
5.02503
4.88163
4.63547
4.23195
3.25186
1.40001
1.40001
1.40001
1.40001
1.40001
1.40001
1.40001
1.40001
1.40001
1.40001
1.40001
1.40001
1.40001
1.40001
1.40001
1.40001
1.40001
1.40001
1.40001
1.40001
1.40001
1.40001
1.40001
1.40001
1.40001
1.40001
1.40001
1.40001
1.40001
1.40001
1.40001
1.40001
1.51296
4.41864
5.42273
5.36622
5.34805
5.35379
5.36113
5.37059
5.38115
5.39047
5.39755
5.40025
5.39709
5.38789
5.37259
5.35244
5.32769
5.29727
5.26055
5.2174
5.16475
5.0989
5.01191
4.89237
4.71511
4.44853
3.96624
3.12251
1.40001
1.40001
1.40001
1.40001
1.40001
1.40001
1.40001
1.40001
1.40001
1.40001
1.40001
1.40001
1.40001
1.40001
1.40001
1.40001
1.40001
1.40001
1.40001
1.40001
1.40001
1.40001
1.40001
1.40001
1.40001
1.40001
1.40001
1.40001
1.40001
1.40001
1.40001
1.40001
1.40168
3.78296
5.26139
5.29831
5.3197
5.33131
5.3366
5.34178
5.34852
5.35535
5.36019
5.36182
5.35881
5.35046
5.33504
5.31284
5.2836
5.24726
5.2029
5.1501
5.08596
5.00737
4.90455
4.7688
4.56661
4.29334
3.79196
3.14036
1.40001
1.40001
1.40001
1.40001
1.40001
1.40001
1.40001
1.40001
1.40001
1.40001
1.40001
1.40001
1.40001
1.40001
1.40001
1.40001
1.40001
1.40001
1.40001
1.40001
1.40001
1.40001
1.40001
1.40001
1.40001
1.40001
1.40001
1.40001
1.40001
1.40001
1.40001
1.40001
1.39998
3.06298
5.09857
5.29215
5.31933
5.32848
5.32736
5.325
5.32394
5.32424
5.32461
5.32232
5.31677
5.30745
5.29183
5.26892
5.23752
5.19729
5.1471
5.08619
5.01147
4.92117
4.80557
4.65671
4.44798
4.16639
3.70604
3.19382
1.40001
1.40001
1.40001
1.40001
1.40001
1.40001
1.40001
1.40001
1.40001
1.40001
1.40001
1.40001
1.40001
1.40001
1.40001
1.40001
1.40001
1.40001
1.40001
1.40001
1.40001
1.40001
1.40001
1.40001
1.40001
1.40001
1.40001
1.40001
1.40001
1.40001
1.40001
1.40001
1.4
2.32596
4.87799
5.31415
5.31093
5.31361
5.31613
5.31398
5.30821
5.30106
5.29401
5.28642
5.27617
5.26335
5.24596
5.22219
5.18955
5.14691
5.09242
5.02524
4.942
4.84173
4.71694
4.55887
4.35131
4.07342
3.67572
3.25207
1.40001
1.40001
1.40001
1.40001
1.40001
1.40001
1.40001
1.40001
1.40001
1.40001
1.40001
1.40001
1.40001
1.40001
1.40001
1.40001
1.40001
1.40001
1.40001
1.40001
1.40001
1.40001
1.40001
1.40001
1.40001
1.40001
1.40001
1.40001
1.40001
1.40001
1.40001
1.40001
1.4
1.65228
4.57744
5.37983
5.31931
5.30379
5.30344
5.29916
5.29077
5.27964
5.26673
5.25339
5.23808
5.21987
5.19813
5.1718
5.13768
5.09423
5.03761
4.96723
4.87902
4.7717
4.6405
4.47731
4.27411
4.01084
3.66709
3.31286
1.40001
1.40001
1.40001
1.40001
1.40001
1.40001
1.40001
1.40001
1.40001
1.40001
1.40001
1.40001
1.40001
1.40001
1.40001
1.40001
1.40001
1.40001
1.40001
1.40001
1.40001
1.40001
1.40001
1.40001
1.40001
1.40001
1.40001
1.40001
1.40001
1.40001
1.40001
1.40001
1.4
1.41139
3.89112
5.20501
5.24104
5.26424
5.27526
5.27555
5.26905
5.25794
5.24217
5.2236
5.20324
5.17967
5.15251
5.12209
5.08541
5.04072
4.9832
4.91127
4.82056
4.7097
4.57561
4.41072
4.21322
3.96815
3.67027
3.36732
1.40001
1.40001
1.40001
1.40001
1.40001
1.40001
1.40001
1.40001
1.40001
1.40001
1.40001
1.40001
1.40001
1.40001
1.40001
1.40001
1.40001
1.40001
1.40001
1.40001
1.40001
1.40001
1.40001
1.40001
1.40001
1.40001
1.40001
1.40001
1.40001
1.40001
1.40001
1.40001
1.40001
1.39993
3.05044
5.02842
5.22416
5.24882
5.25901
5.25787
5.25083
5.23936
5.22216
5.2
5.17462
5.14622
5.11298
5.07664
5.03518
4.98688
4.92807
4.85582
4.76573
4.6548
4.52214
4.35844
4.16743
3.93994
3.68082
3.41342
1.40001
1.40001
1.40001
1.40001
1.40001
1.40001
1.40001
1.40001
1.40001
1.40001
1.40001
1.40001
1.40001
1.40001
1.40001
1.40001
1.40001
1.40001
1.40001
1.40001
1.40001
1.40001
1.40001
1.40001
1.40001
1.40001
1.40001
1.40001
1.40001
1.40001
1.40001
1.40001
1.40001
1.39999
2.2013
4.82453
5.24901
5.2341
5.2377
5.23762
5.2301
5.21807
5.20026
5.17657
5.14766
5.11505
5.07686
5.03502
4.98829
4.93574
4.87493
4.8017
4.71331
4.60479
4.47547
4.31698
4.1341
3.92251
3.69615
3.4509
1.40001
1.40001
1.40001
1.40001
1.40001
1.40001
1.40001
1.40001
1.40001
1.40001
1.40001
1.40001
1.40001
1.40001
1.40001
1.40001
1.40001
1.40001
1.40001
1.40001
1.40001
1.40001
1.40001
1.40001
1.40001
1.40001
1.40001
1.40001
1.40001
1.40001
1.40001
1.40001
1.40001
1.4
1.53719
4.31612
5.281
5.22846
5.21071
5.21091
5.20436
5.19313
5.17587
5.15248
5.1228
5.08771
5.04649
5.00036
4.94857
4.89095
4.82631
4.75126
4.66317
4.55807
4.43226
4.28409
4.11042
3.91614
3.71262
3.48427
1.40001
1.40001
1.40001
1.40001
1.40001
1.40001
1.40001
1.40001
1.40001
1.40001
1.40001
1.40001
1.40001
1.40001
1.40001
1.40001
1.40001
1.40001
1.40001
1.40001
1.40001
1.40001
1.40001
1.40001
1.40001
1.40001
1.40001
1.40001
1.40001
1.40001
1.40001
1.40001
1.40001
1.4
1.4021
3.47297
5.06665
5.16537
5.18732
5.18616
5.17773
5.16616
5.14897
5.1262
5.097
5.0613
5.0184
4.96921
4.9135
4.85148
4.78271
4.7053
4.61693
4.51441
4.39277
4.25505
4.09198
3.91571
3.72725
3.51654
1.40001
1.40001
1.40001
1.40001
1.40001
1.40001
1.40001
1.40001
1.40001
1.40001
1.40001
1.40001
1.40001
1.40001
1.40001
1.40001
1.40001
1.40001
1.40001
1.40001
1.40001
1.40001
1.40001
1.40001
1.40001
1.40001
1.40001
1.40001
1.40001
1.40001
1.40001
1.40001
1.40001
1.40001
1.39998
2.46555
4.8943
5.20197
5.18117
5.16964
5.15981
5.14513
5.12516
5.10101
5.07125
5.03531
4.99206
4.94159
4.88374
4.81871
4.74635
4.66613
4.5766
4.47478
4.35846
4.2271
4.07514
3.91616
3.74108
3.54958
1.40001
1.40001
1.40001
1.40001
1.40001
1.40001
1.40001
1.40001
1.40001
1.40001
1.40001
1.40001
1.40001
1.40001
1.40001
1.40001
1.40001
1.40001
1.40001
1.40001
1.40001
1.40001
1.40001
1.40001
1.40001
1.40001
1.40001
1.40001
1.40001
1.40001
1.40001
1.40001
1.40001
1.40001
1.4
1.61031
4.47815
5.26
5.18676
5.15344
5.13917
5.12083
5.09915
5.0741
5.04403
5.00838
4.96569
4.91533
4.85679
4.79002
4.71511
4.63271
4.54187
4.43986
4.32844
4.20161
4.06027
3.91521
3.75193
3.57986
1.40001
1.40001
1.40001
1.40001
1.40001
1.40001
1.40001
1.40001
1.40001
1.40001
1.40001
1.40001
1.40001
1.40001
1.40001
1.40001
1.40001
1.40001
1.40001
1.40001
1.40001
1.40001
1.40001
1.40001
1.40001
1.40001
1.40001
1.40001
1.40001
1.40001
1.40001
1.40001
1.40001
1.40001
1.4
1.40575
3.58752
5.05022
5.11993
5.13796
5.12451
5.10056
5.0764
5.04921
5.01791
4.98177
4.93927
4.88926
4.83098
4.76428
4.68866
4.60588
4.51317
4.41083
4.30245
4.17956
4.04763
3.91293
3.76027
3.60517
1.40001
1.40001
1.40001
1.40001
1.40001
1.40001
1.40001
1.40001
1.40001
1.40001
1.40001
1.40001
1.40001
1.40001
1.40001
1.40001
1.40001
1.40001
1.40001
1.40001
1.40001
1.40001
1.40001
1.40001
1.40001
1.40001
1.40001
1.40001
1.40001
1.40001
1.40001
1.40001
1.40001
1.40001
1.4
1.39995
2.4785
4.86985
5.15721
5.13803
5.11635
5.09071
5.06288
5.03138
4.99644
4.9577
4.91378
4.86352
4.80547
4.7397
4.66428
4.58203
4.48846
4.38757
4.28132
4.16219
4.03925
3.91081
3.7685
3.62611
1.40001
1.40001
1.40001
1.40001
1.40001
1.40001
1.40001
1.40001
1.40001
1.40001
1.40001
1.40001
1.40001
1.40001
1.40001
1.40001
1.40001
1.40001
1.40001
1.40001
1.40001
1.40001
1.40001
1.40001
1.40001
1.40001
1.40001
1.40001
1.40001
1.40001
1.40001
1.40001
1.40001
1.40001
1.40001
1.39999
1.60357
4.37967
5.19979
5.13912
5.0996
5.0754
5.04529
5.01232
4.97531
4.93456
4.88914
4.83834
4.78035
4.71503
4.64188
4.55941
4.46796
4.36994
4.26521
4.15008
4.03418
3.90945
3.77723
3.64265
1.40001
1.40001
1.40001
1.40001
1.40001
1.40001
1.40001
1.40001
1.40001
1.40001
1.40001
1.40001
1.40001
1.40001
1.40001
1.40001
1.40001
1.40001
1.40001
1.40001
1.40001
1.40001
1.40001
1.40001
1.40001
1.40001
1.40001
1.40001
1.40001
1.40001
1.40001
1.40001
1.40001
1.40001
1.40001
1.4
1.40495
3.38939
4.99251
5.08562
5.08582
5.06587
5.03328
4.99826
4.95944
4.91608
4.86768
4.81481
4.75576
4.69021
4.61837
4.53825
4.45034
4.35616
4.25364
4.14349
4.03177
3.91085
3.78654
3.6574
1.40001
1.40001
1.40001
1.40001
1.40001
1.40001
1.40001
1.40001
1.40001
1.40001
1.40001
1.40001
1.40001
1.40001
1.40001
1.40001
1.40001
1.40001
1.40001
1.40001
1.40001
1.40001
1.40001
1.40001
1.40001
1.40001
1.40001
1.40001
1.40001
1.40001
1.40001
1.40001
1.40001
1.40001
1.40001
1.4
1.39996
2.19206
4.81376
5.1258
5.09188
5.05737
5.02446
4.98874
4.94848
4.90227
4.85056
4.79488
4.73392
4.66802
4.59598
4.51868
4.43441
4.34413
4.24488
4.13993
4.03125
3.91504
3.79616
3.67272
1.40001
1.40001
1.40001
1.40001
1.40001
1.40001
1.40001
1.40001
1.40001
1.40001
1.40001
1.40001
1.40001
1.40001
1.40001
1.40001
1.40001
1.40001
1.40001
1.40001
1.40001
1.40001
1.40001
1.40001
1.40001
1.40001
1.40001
1.40001
1.40001
1.40001
1.40001
1.40001
1.40001
1.40001
1.40001
1.40001
1.4
1.50337
4.08095
5.0777
5.05864
5.03766
5.01053
4.97821
4.93802
4.88915
4.83447
4.77611
4.71378
4.64746
4.57645
4.50047
4.41958
4.33324
4.23853
4.13852
4.03337
3.92262
3.8076
3.68978
1.40001
1.40001
1.40001
1.40001
1.40001
1.40001
1.40001
1.40001
1.40001
1.40001
1.40001
1.40001
1.40001
1.40001
1.40001
1.40001
1.40001
1.40001
1.40001
1.40001
1.40001
1.40001
1.40001
1.40001
1.40001
1.40001
1.40001
1.40001
1.40001
1.40001
1.40001
1.40001
1.40001
1.40001
1.40001
1.40001
1.4
1.40087
2.85216
4.86549
5.03982
5.02931
5.01082
4.97818
4.93409
4.88182
4.82444
4.76374
4.69963
4.63227
4.56129
4.48587
4.40678
4.32318
4.23278
4.13706
4.03642
3.93053
3.81942
3.70745
1.40001
1.40001
1.40001
1.40001
1.40001
1.40001
1.40001
1.40001
1.40001
1.40001
1.40001
1.40001
1.40001
1.40001
1.40001
1.40001
1.40001
1.40001
1.40001
1.40001
1.40001
1.40001
1.40001
1.40001
1.40001
1.40001
1.40001
1.40001
1.40001
1.40001
1.40001
1.40001
1.40001
1.40001
1.40001
1.40001
1.4
1.4
1.71852
4.472
5.10988
5.05175
5.01209
4.97019
4.92037
4.8673
4.81086
4.75112
4.68781
4.621
4.55065
4.47613
4.39802
4.31607
4.22871
4.13631
4.04012
3.93854
3.83203
3.72552
1.40001
1.40001
1.40001
1.40001
1.40001
1.40001
1.40001
1.40001
1.40001
1.40001
1.40001
1.40001
1.40001
1.40001
1.40001
1.40001
1.40001
1.40001
1.40001
1.40001
1.40001
1.40001
1.40001
1.40001
1.40001
1.40001
1.40001
1.40001
1.40001
1.40001
1.40001
1.40001
1.40001
1.40001
1.40001
1.40001
1.40001
1.4
1.41337
3.41886
4.92926
5.00532
4.98842
4.94644
4.90243
4.85378
4.80071
4.7431
4.68117
4.61498
4.54488
4.47057
4.39264
4.31152
4.22572
4.13542
4.04273
3.94517
3.84378
3.7419
1.40001
1.40001
1.40001
1.40001
1.40001
1.40001
1.40001
1.40001
1.40001
1.40001
1.40001
1.40001
1.40001
1.40001
1.40001
1.40001
1.40001
1.40001
1.40001
1.40001
1.40001
1.40001
1.40001
1.40001
1.40001
1.40001
1.40001
1.40001
1.40001
1.40001
1.40001
1.40001
1.40001
1.40001
1.40001
1.40001
1.40001
1.4
1.39997
2.06481
4.74122
5.07578
5.00251
4.94344
4.89281
4.84461
4.79325
4.73775
4.67791
4.61314
4.54376
4.46969
4.39152
4.31041
4.22514
4.13613
4.04601
3.95215
3.8555
3.75733
1.40001
1.40001
1.40001
1.40001
1.40001
1.40001
1.40001
1.40001
1.40001
1.40001
1.40001
1.40001
1.40001
1.40001
1.40001
1.40001
1.40001
1.40001
1.40001
1.40001
1.40001
1.40001
1.40001
1.40001
1.40001
1.40001
1.40001
1.40001
1.40001
1.40001
1.40001
1.40001
1.40001
1.40001
1.40001
1.40001
1.40001
1.40001
1.4
1.46586
3.88122
4.978
4.94031
4.91017
4.87283
4.82858
4.77999
4.72781
4.67124
4.60911
4.54157
4.46894
4.39157
4.311
4.22683
4.13959
4.05125
3.96013
3.86664
3.77134
1.40001
1.40001
1.40001
1.40001
1.40001
1.40001
1.40001
1.40001
1.40001
1.40001
1.40001
1.40001
1.40001
1.40001
1.40001
1.40001
1.40001
1.40001
1.40001
1.40001
1.40001
1.40001
1.40001
1.40001
1.40001
1.40001
1.40001
1.40001
1.40001
1.40001
1.40001
1.40001
1.40001
1.40001
1.40001
1.40001
1.40001
1.40001
1.4
1.40029
2.51187
4.76017
4.9283
4.90864
4.87392
4.82978
4.78115
4.72895
4.67219
4.61017
4.543
4.47099
4.39436
4.31477
4.23214
4.14665
4.0595
3.97019
3.87864
3.78573
1.40001
1.40001
1.40001
1.40001
1.40001
1.40001
1.40001
1.40001
1.40001
1.40001
1.40001
1.40001
1.40001
1.40001
1.40001
1.40001
1.40001
1.40001
1.40001
1.40001
1.40001
1.40001
1.40001
1.40001
1.40001
1.40001
1.40001
1.40001
1.40001
1.40001
1.40001
1.40001
1.40001
1.40001
1.40001
1.40001
1.40001
1.40001
1.4
1.4
1.58245
4.06015
4.95656
4.91699
4.87406
4.82628
4.77641
4.72399
4.66761
4.60663
4.54082
4.47056
4.39592
4.31816
4.23747
4.15393
4.06824
3.98062
3.89089
3.80003
1.40001
1.40001
1.40001
1.40001
1.40001
1.40001
1.40001
1.40001
1.40001
1.40001
1.40001
1.40001
1.40001
1.40001
1.40001
1.40001
1.40001
1.40001
1.40001
1.40001
1.40001
1.40001
1.40001
1.40001
1.40001
1.40001
1.40001
1.40001
1.40001
1.40001
1.40001
1.40001
1.40001
1.40001
1.40001
1.40001
1.40001
1.40001
1.40001
1.4
1.40358
2.73434
4.73492
4.88252
4.85573
4.81669
4.77127
4.72068
4.66551
4.60589
4.54141
4.4726
4.39988
4.32391
4.24503
4.16341
4.0793
3.99342
3.90558
3.81615
1.40001
1.40001
1.40001
1.40001
1.40001
1.40001
1.40001
1.40001
1.40001
1.40001
1.40001
1.40001
1.40001
1.40001
1.40001
1.40001
1.40001
1.40001
1.40001
1.40001
1.40001
1.40001
1.40001
1.40001
1.40001
1.40001
1.40001
1.40001
1.40001
1.40001
1.40001
1.40001
1.40001
1.40001
1.40001
1.40001
1.40001
1.40001
1.40001
1.4
1.40001
1.66112
4.14014
4.92919
4.87348
4.82426
4.77577
4.7224
4.66493
4.60422
4.54
4.47272
4.40244
4.32887
4.25212
4.17256
4.09022
4.00624
3.92061
3.83294
1.40001
1.40001
1.40001
1.40001
1.40001
1.40001
1.40001
1.40001
1.40001
1.40001
1.40001
1.40001
1.40001
1.40001
1.40001
1.40001
1.40001
1.40001
1.40001
1.40001
1.40001
1.40001
1.40001
1.40001
1.40001
1.40001
1.40001
1.40001
1.40001
1.40001
1.40001
1.40001
1.40001
1.40001
1.40001
1.40001
1.40001
1.40001
1.40001
1.40001
1.40001
1.40799
2.83915
4.72382
4.83383
4.81021
4.77007
4.71946
4.66249
4.60182
4.53858
4.47315
4.40537
4.3342
4.25959
4.18207
4.10179
4.01981
3.93646
3.85129
1.40001
1.40001
1.40001
1.40001
1.40001
1.40001
1.40001
1.40001
1.40001
1.40001
1.40001
1.40001
1.40001
1.40001
1.40001
1.40001
1.40001
1.40001
1.40001
1.40001
1.40001
1.40001
1.40001
1.40001
1.40001
1.40001
1.40001
1.40001
1.40001
1.40001
1.40001
1.40001
1.40001
1.40001
1.40001
1.40001
1.40001
1.40001
1.40001
1.40001
1.40001
1.40002
1.69969
4.12904
4.88028
4.83377
4.78273
4.72766
4.66815
4.60598
4.54222
4.47682
4.4094
4.33898
4.26583
4.19048
4.11285
4.03347
3.95274
3.87056
1.40001
1.40001
1.40001
1.40001
1.40001
1.40001
1.40001
1.40001
1.40001
1.40001
1.40001
1.40001
1.40001
1.40001
1.40001
1.40001
1.40001
1.40001
1.40001
1.40001
1.40001
1.40001
1.40001
1.40001
1.40001
1.40001
1.40001
1.40001
1.40001
1.40001
1.40001
1.40001
1.40001
1.40001
1.40001
1.40001
1.40001
1.40001
1.40001
1.40001
1.40001
1.40001
1.4108
2.79485
4.69245
4.81125
4.77711
4.7267
4.66803
4.60723
4.54424
4.47909
4.41175
4.34232
4.27115
4.19857
4.12425
4.04798
3.97
3.89073
1.40001
1.40001
1.40001
1.40001
1.40001
1.40001
1.40001
1.40001
1.40001
1.40001
1.40001
1.40001
1.40001
1.40001
1.40001
1.40001
1.40001
1.40001
1.40001
1.40001
1.40001
1.40001
1.40001
1.40001
1.40001
1.40001
1.40001
1.40001
1.40001
1.40001
1.40001
1.40001
1.40001
1.40001
1.40001
1.40001
1.40001
1.40001
1.40001
1.40001
1.40001
1.40001
1.40004
1.67964
4.03885
4.83905
4.79852
4.74121
4.67866
4.61646
4.55232
4.48621
4.41813
4.34891
4.27906
4.20861
4.13696
4.06346
3.98794
3.91091
1.40001
1.40001
1.40001
1.40001
1.40001
1.40001
1.40001
1.40001
1.40001
1.40001
1.40001
1.40001
1.40001
1.40001
1.40001
1.40001
1.40001
1.40001
1.40001
1.40001
1.40001
1.40001
1.40001
1.40001
1.40001
1.40001
1.40001
1.40001
1.40001
1.40001
1.40001
1.40001
1.40001
1.40001
1.40001
1.40001
1.40001
1.40001
1.40001
1.40001
1.40001
1.40001
1.40001
1.40929
2.61258
4.64226
4.79576
4.74094
4.68286
4.62065
4.55626
4.48982
4.42213
4.35422
4.28659
4.2187
4.14943
4.0784
4.00534
3.92985
1.40001
1.40001
1.40001
1.40001
1.40001
1.40001
1.40001
1.40001
1.40001
1.40001
1.40001
1.40001
1.40001
1.40001
1.40001
1.40001
1.40001
1.40001
1.40001
1.40001
1.40001
1.40001
1.40001
1.40001
1.40001
1.40001
1.40001
1.40001
1.40001
1.40001
1.40001
1.40001
1.40001
1.40001
1.40001
1.40001
1.40001
1.40001
1.40001
1.40001
1.40001
1.40001
1.40001
1.40005
1.60753
3.88145
4.82295
4.75862
4.69888
4.63459
4.56853
4.50103
4.43378
4.36702
4.30064
4.23381
4.16519
4.09481
4.02294
3.94883
1.40001
1.40001
1.40001
1.40001
1.40001
1.40001
1.40001
1.40001
1.40001
1.40001
1.40001
1.40001
1.40001
1.40001
1.40001
1.40001
1.40001
1.40001
1.40001
1.40001
1.40001
1.40001
1.40001
1.40001
1.40001
1.40001
1.40001
1.40001
1.40001
1.40001
1.40001
1.40001
1.40001
1.40001
1.40001
1.40001
1.40001
1.40001
1.40001
1.40001
1.40001
1.40001
1.40001
1.40001
1.40504
2.38643
4.54456
4.75094
4.69999
4.64245
4.57687
4.51063
4.44474
4.3788
4.31246
4.24564
4.17771
4.10801
4.03712
3.96555
1.40001
1.40001
1.40001
1.40001
1.40001
1.40001
1.40001
1.40001
1.40001
1.40001
1.40001
1.40001
1.40001
1.40001
1.40001
1.40001
1.40001
1.40001
1.40001
1.40001
1.40001
1.40001
1.40001
1.40001
1.40001
1.40001
1.40001
1.40001
1.40001
1.40001
1.40001
1.40001
1.40001
1.40001
1.40001
1.40001
1.40001
1.40001
1.40001
1.40001
1.40001
1.40001
1.40001
1.40001
1.40003
1.53168
3.59214
4.7451
4.7169
4.6619
4.59457
4.53003
4.46491
4.39875
4.33159
4.26383
4.1957
4.12642
4.05603
3.98567
1.40001
1.40001
1.40001
1.40001
1.40001
1.40001
1.40001
1.40001
1.40001
1.40001
1.40001
1.40001
1.40001
1.40001
1.40001
1.40001
1.40001
1.40001
1.40001
1.40001
1.40001
1.40001
1.40001
1.40001
1.40001
1.40001
1.40001
1.40001
1.40001
1.40001
1.40001
1.40001
1.40001
1.40001
1.40001
1.40001
1.40001
1.40001
1.40001
1.40001
1.40001
1.40001
1.40001
1.40001
1.40001
1.40221
2.1235
4.34601
4.72424
4.65867
4.60174
4.54014
4.47638
4.41153
4.3458
4.27905
4.21148
4.14313
4.07382
4.00373
1.40001
1.40001
1.40001
1.40001
1.40001
1.40001
1.40001
1.40001
1.40001
1.40001
1.40001
1.40001
1.40001
1.40001
1.40001
1.40001
1.40001
1.40001
1.40001
1.40001
1.40001
1.40001
1.40001
1.40001
1.40001
1.40001
1.40001
1.40001
1.40001
1.40001
1.40001
1.40001
1.40001
1.40001
1.40001
1.40001
1.40001
1.40001
1.40001
1.40001
1.40001
1.40001
1.40001
1.40001
1.40001
1.40001
1.46811
3.14079
4.64407
4.66505
4.61483
4.55732
4.4963
4.43344
4.36923
4.30329
4.23572
4.167
4.09724
4.02648
1.40001
1.40001
1.40001
1.40001
1.40001
1.40001
1.40001
1.40001
1.40001
1.40001
1.40001
1.40001
1.40001
1.40001
1.40001
1.40001
1.40001
1.40001
1.40001
1.40001
1.40001
1.40001
1.40001
1.40001
1.40001
1.40001
1.40001
1.40001
1.40001
1.40001
1.40001
1.40001
1.40001
1.40001
1.40001
1.40001
1.40001
1.40001
1.40001
1.40001
1.40001
1.40001
1.40001
1.40001
1.40001
1.40001
1.40085
1.83256
4.04125
4.71095
4.63539
4.57175
4.51169
4.45188
4.38987
4.32466
4.25683
4.1875
4.11716
4.04629
1.40001
1.40001
1.40001
1.40001
1.40001
1.40001
1.40001
1.40001
1.40001
1.40001
1.40001
1.40001
1.40001
1.40001
1.40001
1.40001
1.40001
1.40001
1.40001
1.40001
1.40001
1.40001
1.40001
1.40001
1.40001
1.40001
1.40001
1.40001
1.40001
1.40001
1.40001
1.40001
1.40001
1.40001
1.40001
1.40001
1.40001
1.40001
1.40001
1.40001
1.40001
1.40001
1.40001
1.40001
1.40001
1.40001
1.40001
1.42351
2.61133
4.49337
4.63429
4.58616
4.53279
4.47434
4.41146
4.34504
4.2764
4.20686
4.13717
4.06752
1.40001
1.40001
1.40001
1.40001
1.40001
1.40001
1.40001
1.40001
1.40001
1.40001
1.40001
1.40001
1.40001
1.40001
1.40001
1.40001
1.40001
1.40001
1.40001
1.40001
1.40001
1.40001
1.40001
1.40001
1.40001
1.40001
1.40001
1.40001
1.40001
1.40001
1.40001
1.40001
1.40001
1.40001
1.40001
1.40001
1.40001
1.40001