/*--------------------------------*- C++ -*----------------------------------*\
  =========                 |
  \\      /  F ield         | OpenFOAM: The Open Source CFD Toolbox
   \\    /   O peration     | Website:  https://openfoam.org
    \\  /    A nd           | Version:  7
     \\/     M anipulation  |
\*---------------------------------------------------------------------------*/
FoamFile
{
    version     2.0;
    format      ascii;
    class       volScalarField;
    location    "3";
    object      T;
}
// * * * * * * * * * * * * * * * * * * * * * * * * * * * * * * * * * * * * * //

dimensions      [0 0 0 1 0 0 0];

internalField   nonuniform List<scalar> 
25200
(
1
1
1
1
1
1
1
1
1
1
1
1
1
1
1
1
1
1
1
1
1
1
1
1
1
1
1
1
1
1
1.66287
2.5994
2.69786
2.71006
2.72154
2.72864
2.73351
2.73675
2.73927
2.74204
2.74603
2.7519
2.75927
2.76673
2.77268
2.77647
2.77866
2.78034
2.7825
2.78565
2.78959
2.79355
2.79686
2.79936
2.80148
2.80392
2.8072
2.811
2.81416
2.81576
1
1
1
1
1
1
1
1
1
1
1
1
1
1
1
1
1
1
1
1
1
1
1
1
1
1
1
1
1
1
1.65232
2.59572
2.69761
2.71012
2.72144
2.72846
2.73327
2.73645
2.73894
2.74171
2.74572
2.75161
2.75899
2.7664
2.77229
2.77603
2.77821
2.77992
2.78212
2.7853
2.78923
2.79315
2.7964
2.79887
2.80097
2.80339
2.80666
2.81045
2.8136
2.81519
1
1
1
1
1
1
1
1
1
1
1
1
1
1
1
1
1
1
1
1
1
1
1
1
1
1
1
1
1
1
1.62261
2.58718
2.69578
2.70891
2.72044
2.72761
2.73251
2.73575
2.73825
2.74103
2.74506
2.75096
2.75834
2.76574
2.77158
2.77529
2.77746
2.77922
2.7815
2.78474
2.78867
2.79254
2.79572
2.79811
2.80016
2.80254
2.80579
2.80954
2.81265
2.81424
1
1
1
1
1
1
1
1
1
1
1
1
1
1
1
1
1
1
1
1
1
1
1
1
1
1
1
1
1
1
1.57913
2.57366
2.69264
2.70654
2.71862
2.72607
2.73118
2.73455
2.73712
2.73993
2.74396
2.74983
2.75717
2.76454
2.77041
2.77415
2.77637
2.77819
2.78054
2.78383
2.78778
2.79161
2.79472
2.79704
2.79903
2.80136
2.80458
2.80827
2.81127
2.81278
1
1
1
1
1
1
1
1
1
1
1
1
1
1
1
1
1
1
1
1
1
1
1
1
1
1
1
1
1
1
1.52476
2.55645
2.68947
2.70347
2.71604
2.72377
2.72919
2.73281
2.73557
2.73845
2.74245
2.74817
2.75536
2.76268
2.76862
2.77249
2.77483
2.77672
2.77911
2.78243
2.78639
2.79023
2.79331
2.79557
2.79752
2.79984
2.80307
2.80671
2.80959
2.81103
1
1
1
1
1
1
1
1
1
1
1
1
1
1
1
1
1
1
1
1
1
1
1
1
1
1
1
1
1
1
1.45711
2.53347
2.68793
2.70049
2.71299
2.72086
2.72665
2.73067
2.73372
2.7367
2.74061
2.74608
2.75303
2.76027
2.76633
2.77042
2.77292
2.77489
2.77728
2.78059
2.78455
2.78839
2.79147
2.79369
2.7956
2.79789
2.80114
2.80475
2.8075
2.80887
1
1
1
1
1
1
1
1
1
1
1
1
1
1
1
1
1
1
1
1
1
1
1
1
1
1
1
1
1
1
1.3764
2.50219
2.68783
2.6975
2.70925
2.7172
2.72358
2.72821
2.73168
2.73482
2.73859
2.74371
2.75025
2.75729
2.76344
2.76777
2.77048
2.77255
2.77496
2.77824
2.7822
2.78605
2.78913
2.79134
2.79322
2.79549
2.79875
2.80231
2.80499
2.80632
1
1
1
1
1
1
1
1
1
1
1
1
1
1
1
1
1
1
1
1
1
1
1
1
1
1
1
1
1
1
1.28387
2.45934
2.68793
2.69379
2.7045
2.71262
2.7198
2.72526
2.72931
2.73268
2.73633
2.74103
2.7471
2.75386
2.76008
2.76469
2.76768
2.76989
2.7723
2.77552
2.77942
2.78325
2.78633
2.78851
2.79036
2.7926
2.79581
2.7993
2.80191
2.80319
1
1
1
1
1
1
1
1
1
1
1
1
1
1
1
1
1
1
1
1
1
1
1
1
1
1
1
1
1
1
1.17825
2.40208
2.68645
2.69029
2.69981
2.70777
2.71552
2.72177
2.72647
2.73013
2.7337
2.73804
2.74361
2.75004
2.75627
2.76117
2.76447
2.76685
2.76926
2.77237
2.77615
2.77992
2.78297
2.78513
2.78696
2.78919
2.79233
2.79574
2.79827
2.7995
1
1
1
1
1
1
1
1
1
1
1
1
1
1
1
1
1
1
1
1
1
1
1
1
1
1
1
1
1
1
1.06803
2.34039
2.68643
2.68958
2.697
2.70419
2.71164
2.71807
2.72311
2.72702
2.73058
2.7346
2.73968
2.74571
2.75185
2.75699
2.76063
2.76322
2.76567
2.76867
2.77232
2.77602
2.77905
2.78121
2.78302
2.78521
2.78824
2.79151
2.79392
2.79506
1
1
1
1
1
1
1
1
1
1
1
1
1
1
1
1
1
1
1
1
1
1
1
1
1
1
1
1
1
1
1.00252
2.26925
2.68299
2.68803
2.69461
2.70155
2.70853
2.71465
2.71962
2.72357
2.72711
2.73096
2.73567
2.74128
2.74719
2.7524
2.7563
2.75908
2.76153
2.76438
2.76784
2.7714
2.77438
2.7765
2.77827
2.78044
2.78339
2.78653
2.78886
2.78994
1
1
1
1
1
1
1
1
1
1
1
1
1
1
1
1
1
1
1
1
1
1
1
1
1
1
1
1
1
1
1.00001
2.17546
2.6769
2.68807
2.69459
2.70125
2.70737
2.71277
2.71731
2.72103
2.72435
2.72784
2.73205
2.73709
2.74258
2.74766
2.75161
2.75444
2.75682
2.75947
2.76269
2.76609
2.76901
2.7711
2.77281
2.77493
2.7777
2.7806
2.78281
2.78379
1
1
1
1
1
1
1
1
1
1
1
1
1
1
1
1
1
1
1
1
1
1
1
1
1
1
1
1
1
1
1
2.05209
2.66024
2.68586
2.6936
2.70032
2.70598
2.71082
2.71489
2.71834
2.72155
2.72494
2.7288
2.73326
2.73807
2.7427
2.74647
2.74922
2.75144
2.75382
2.75674
2.7599
2.76266
2.76464
2.76619
2.76815
2.77072
2.7735
2.7757
2.77669
1
1
1
1
1
1
1
1
1
1
1
1
1
1
1
1
1
1
1
1
1
1
1
1
1
1
1
1
1
1
1
1.90002
2.62771
2.67833
2.68913
2.69691
2.70308
2.7082
2.71221
2.71555
2.71866
2.72187
2.72544
2.72942
2.73365
2.73772
2.74104
2.74348
2.74543
2.74747
2.75
2.75283
2.75538
2.75725
2.75871
2.7604
2.76253
2.76497
2.76694
2.76774
1
1
1
1
1
1
1
1
1
1
1
1
1
1
1
1
1
1
1
1
1
1
1
1
1
1
1
1
1
1
1
1.73218
2.57923
2.66627
2.67899
2.6888
2.6962
2.70249
2.70747
2.71149
2.71506
2.71857
2.72219
2.72587
2.72941
2.73263
2.73532
2.73728
2.73877
2.74032
2.74232
2.74472
2.74694
2.74855
2.7496
2.75061
2.75218
2.75438
2.75631
2.75725
1
1
1
1
1
1
1
1
1
1
1
1
1
1
1
1
1
1
1
1
1
1
1
1
1
1
1
1
1
1
1
1.51509
2.4965
2.65191
2.66561
2.6772
2.68562
2.69286
2.69906
2.7044
2.70918
2.71367
2.71789
2.72175
2.72506
2.72771
2.72965
2.73093
2.7318
2.73269
2.73395
2.7357
2.7374
2.7385
2.739
2.73947
2.74042
2.74177
2.74272
2.7427
1
1
1
1
1
1
1
1
1
1
1
1
1
1
1
1
1
1
1
1
1
1
1
1
1
1
1
1
1
1
1
1.23895
2.40073
2.65116
2.64991
2.65964
2.67003
2.67942
2.68717
2.694
2.70029
2.70614
2.71143
2.71597
2.71957
2.72211
2.72364
2.72434
2.72449
2.72457
2.725
2.72587
2.72657
2.72688
2.7264
2.7254
2.72466
2.72474
2.72466
2.725
1
1
1
1
1
1
1
1
1
1
1
1
1
1
1
1
1
1
1
1
1
1
1
1
1
1
1
1
1
1
1
1.01665
2.3151
2.6532
2.64672
2.65211
2.65866
2.66587
2.67367
2.68139
2.68869
2.69574
2.70229
2.70791
2.71229
2.71525
2.71678
2.71715
2.71679
2.71621
2.71575
2.71518
2.71464
2.71359
2.71165
2.70914
2.70678
2.705
2.70149
2.69606
1
1
1
1
1
1
1
1
1
1
1
1
1
1
1
1
1
1
1
1
1
1
1
1
1
1
1
1
1
1
1
1.00007
2.18545
2.64693
2.64647
2.64997
2.65413
2.65897
2.66406
2.66953
2.676
2.68312
2.69038
2.69703
2.70241
2.70625
2.70832
2.70878
2.70823
2.70712
2.70559
2.70374
2.70163
2.69887
2.695
2.68982
2.68291
2.6739
2.66432
2.65598
1
1
1
1
1
1
1
1
1
1
1
1
1
1
1
1
1
1
1
1
1
1
1
1
1
1
1
1
1
1
1
1
2.00753
2.63512
2.64823
2.65202
2.65502
2.6566
2.65814
2.66093
2.66512
2.6706
2.67722
2.68407
2.69008
2.69485
2.69791
2.69896
2.6985
2.69709
2.69479
2.69171
2.68782
2.68281
2.67591
2.6664
2.6539
2.63901
2.62731
2.62891
1
1
1
1
1
1
1
1
1
1
1
1
1
1
1
1
1
1
1
1
1
1
1
1
1
1
1
1
1
1
1
1
1.76911
2.57037
2.64556
2.65183
2.65579
2.6572
2.65757
2.65793
2.65894
2.66143
2.66561
2.6711
2.67642
2.6814
2.68527
2.68717
2.68699
2.68563
2.68286
2.6787
2.67298
2.66543
2.65515
2.64134
2.62146
2.59034
2.5274
2.40312
1
1
1
1
1
1
1
1
1
1
1
1
1
1
1
1
1
1
1
1
1
1
1
1
1
1
1
1
1
1
1
1
1.43587
2.44234
2.6367
2.6425
2.6497
2.65395
2.65563
2.65602
2.656
2.6562
2.65745
2.66024
2.66358
2.66739
2.67103
2.67339
2.67364
2.67253
2.6696
2.66468
2.65735
2.64724
2.6332
2.61333
2.58352
2.53285
2.45685
2.26531
1
1
1
1
1
1
1
1
1
1
1
1
1
1
1
1
1
1
1
1
1
1
1
1
1
1
1
1
1
1
1
1
1.05743
2.31177
2.62779
2.62919
2.63584
2.64435
2.6498
2.65219
2.65252
2.65206
2.65164
2.65198
2.65288
2.65442
2.65653
2.65837
2.65874
2.65774
2.65475
2.6493
2.64069
2.62825
2.61061
2.58552
2.54775
2.49109
2.38783
2.18796
1
1
1
1
1
1
1
1
1
1
1
1
1
1
1
1
1
1
1
1
1
1
1
1
1
1
1
1
1
1
1
1
1.00077
2.17738
2.59863
2.6072
2.61754
2.62872
2.63784
2.64393
2.64686
2.64721
2.64659
2.64564
2.64454
2.64376
2.64348
2.64354
2.64309
2.64158
2.63826
2.63239
2.62289
2.60884
2.58828
2.55952
2.51572
2.4557
2.33956
2.17341
1
1
1
1
1
1
1
1
1
1
1
1
1
1
1
1
1
1
1
1
1
1
1
1
1
1
1
1
1
1
1
1
0.999993
1.95085
2.57363
2.60136
2.61008
2.61785
2.62548
2.63247
2.63769
2.64015
2.64026
2.63923
2.63723
2.63485
2.63237
2.63012
2.6278
2.62495
2.62075
2.61428
2.6041
2.58907
2.56684
2.53558
2.48989
2.42626
2.31541
2.18213
1
1
1
1
1
1
1
1
1
1
1
1
1
1
1
1
1
1
1
1
1
1
1
1
1
1
1
1
1
1
1
1
0.999998
1.59468
2.48158
2.59565
2.6021
2.60714
2.61334
2.6199
2.62575
2.63
2.63183
2.63149
2.62982
2.62694
2.62315
2.61886
2.61421
2.60918
2.60319
2.59548
2.58443
2.56874
2.54599
2.5137
2.46838
2.40458
2.3072
2.19586
1
1
1
1
1
1
1
1
1
1
1
1
1
1
1
1
1
1
1
1
1
1
1
1
1
1
1
1
1
1
1
1
1
1.15142
2.34383
2.59841
2.59342
2.5961
2.60101
2.60634
2.61165
2.6166
2.62014
2.62147
2.62073
2.61836
2.61424
2.60877
2.60218
2.59494
2.58667
2.57716
2.56489
2.54847
2.5257
2.49367
2.45013
2.38972
2.30541
2.21246
1
1
1
1
1
1
1
1
1
1
1
1
1
1
1
1
1
1
1
1
1
1
1
1
1
1
1
1
1
1
1
1
1
1.00571
2.2012
2.57588
2.57591
2.58063
2.58688
2.59271
2.59729
2.60192
2.60607
2.60881
2.60931
2.60804
2.6046
2.59908
2.59158
2.58265
2.5722
2.56041
2.54629
2.52876
2.50597
2.47481
2.43378
2.37849
2.30608
2.22756
1
1
1
1
1
1
1
1
1
1
1
1
1
1
1
1
1
1
1
1
1
1
1
1
1
1
1
1
1
1
1
1
1
0.999988
1.93005
2.5405
2.57288
2.57659
2.57978
2.58312
2.58586
2.58896
2.59218
2.59508
2.59657
2.59609
2.59366
2.58884
2.58134
2.57149
2.5595
2.54571
2.52971
2.5107
2.4877
2.45726
2.41878
2.36893
2.30757
2.23966
1
1
1
1
1
1
1
1
1
1
1
1
1
1
1
1
1
1
1
1
1
1
1
1
1
1
1
1
1
1
1
1
1
0.999996
1.50134
2.43186
2.56784
2.56943
2.5723
2.57501
2.57605
2.57746
2.57911
2.58103
2.58245
2.58229
2.58067
2.57686
2.57018
2.56054
2.54814
2.53304
2.51556
2.49507
2.47126
2.44133
2.40501
2.35997
2.30789
2.24764
1
1
1
1
1
1
1
1
1
1
1
1
1
1
1
1
1
1
1
1
1
1
1
1
1
1
1
1
1
1
1
1
1
0.999999
1.06923
2.27417
2.56786
2.56183
2.56325
2.56605
2.56662
2.5671
2.5674
2.5679
2.5684
2.56809
2.56671
2.56362
2.55792
2.54915
2.53715
2.52185
2.50352
2.48208
2.4571
2.42793
2.39296
2.35208
2.30696
2.25274
1
1
1
1
1
1
1
1
1
1
1
1
1
1
1
1
1
1
1
1
1
1
1
1
1
1
1
1
1
1
1
1
1
1
1.00101
2.05986
2.52658
2.54365
2.55297
2.55748
2.55743
2.55734
2.55676
2.55597
2.55515
2.55406
2.55221
2.54917
2.54412
2.53637
2.52539
2.51086
2.49278
2.4712
2.44565
2.41706
2.38302
2.34558
2.30448
2.25566
1
1
1
1
1
1
1
1
1
1
1
1
1
1
1
1
1
1
1
1
1
1
1
1
1
1
1
1
1
1
1
1
1
1
0.999993
1.62881
2.43486
2.5374
2.54167
2.54644
2.549
2.54866
2.54743
2.54559
2.54337
2.541
2.5382
2.53464
2.5297
2.52264
2.51273
2.49943
2.48242
2.46144
2.4366
2.40821
2.37522
2.34066
2.30187
2.25791
1
1
1
1
1
1
1
1
1
1
1
1
1
1
1
1
1
1
1
1
1
1
1
1
1
1
1
1
1
1
1
1
1
1
0.999998
1.10875
2.28105
2.53498
2.52821
2.53164
2.53671
2.53785
2.53709
2.53525
2.53238
2.52897
2.52511
2.5207
2.51531
2.50833
2.49907
2.48697
2.47138
2.45167
2.42847
2.4009
2.36952
2.33702
2.29986
2.26005
1
1
1
1
1
1
1
1
1
1
1
1
1
1
1
1
1
1
1
1
1
1
1
1
1
1
1
1
1
1
1
1
1
1
1
1.00273
2.0777
2.49543
2.50542
2.5167
2.52303
2.52536
2.52556
2.52444
2.52175
2.51788
2.51317
2.50779
2.50163
2.49434
2.48525
2.47404
2.45951
2.44128
2.42004
2.3941
2.36495
2.33437
2.29905
2.26257
1
1
1
1
1
1
1
1
1
1
1
1
1
1
1
1
1
1
1
1
1
1
1
1
1
1
1
1
1
1
1
1
1
1
1
0.999986
1.62113
2.40678
2.50266
2.5058
2.50982
2.51303
2.51423
2.51342
2.51113
2.50729
2.50214
2.49603
2.48903
2.48117
2.47176
2.46083
2.44689
2.43018
2.41082
2.38699
2.36073
2.332
2.29905
2.26525
1
1
1
1
1
1
1
1
1
1
1
1
1
1
1
1
1
1
1
1
1
1
1
1
1
1
1
1
1
1
1
1
1
1
1
0.999996
1.10434
2.25173
2.5018
2.49376
2.49497
2.49856
2.50065
2.50056
2.49922
2.49611
2.49125
2.485
2.47749
2.46897
2.4593
2.44791
2.43443
2.4189
2.40088
2.37918
2.35581
2.32893
2.29885
2.26724
1
1
1
1
1
1
1
1
1
1
1
1
1
1
1
1
1
1
1
1
1
1
1
1
1
1
1
1
1
1
1
1
1
1
1
0.999999
1.00235
1.99672
2.46135
2.47097
2.48061
2.48412
2.48622
2.4873
2.48665
2.48439
2.48011
2.47411
2.46648
2.45752
2.44747
2.43589
2.4227
2.40791
2.39074
2.37094
2.34966
2.32487
2.29781
2.26829
1
1
1
1
1
1
1
1
1
1
1
1
1
1
1
1
1
1
1
1
1
1
1
1
1
1
1
1
1
1
1
1
1
1
1
1
0.999991
1.45184
2.35002
2.46957
2.46886
2.4699
2.47199
2.47387
2.47361
2.47199
2.46841
2.46298
2.45566
2.4468
2.43645
2.42493
2.41191
2.39751
2.38088
2.36248
2.34242
2.31971
2.29518
2.26796
1
1
1
1
1
1
1
1
1
1
1
1
1
1
1
1
1
1
1
1
1
1
1
1
1
1
1
1
1
1
1
1
1
1
1
1
0.999998
1.05028
2.18348
2.45908
2.45455
2.45544
2.45733
2.45974
2.45967
2.45833
2.4553
2.45057
2.44405
2.43583
2.42597
2.41462
2.40194
2.38789
2.37183
2.35431
2.33523
2.31422
2.29138
2.26666
1
1
1
1
1
1
1
1
1
1
1
1
1
1
1
1
1
1
1
1
1
1
1
1
1
1
1
1
1
1
1
1
1
1
1
1
1
1.00043
1.77238
2.3935
2.43967
2.44401
2.44699
2.44768
2.44683
2.44485
2.4418
2.43758
2.43188
2.42455
2.41553
2.40476
2.39255
2.3789
2.36343
2.34652
2.32823
2.30837
2.28673
2.26416
1
1
1
1
1
1
1
1
1
1
1
1
1
1
1
1
1
1
1
1
1
1
1
1
1
1
1
1
1
1
1
1
1
1
1
1
1
0.999999
1.16849
2.24398
2.44614
2.43782
2.43764
2.43609
2.43308
2.43009
2.42697
2.42329
2.41855
2.41238
2.40456
2.39488
2.38349
2.3705
2.35572
2.33935
2.32179
2.3027
2.28208
2.26102
1
1
1
1
1
1
1
1
1
1
1
1
1
1
1
1
1
1
1
1
1
1
1
1
1
1
1
1
1
1
1
1
1
1
1
1
1
1
1.00617
1.9806
2.41076
2.42015
2.42284
2.42109
2.4192
2.41658
2.41344
2.40974
2.40529
2.39976
2.39287
2.38428
2.37394
2.36191
2.34797
2.33226
2.31546
2.29714
2.27755
2.25748
1
1
1
1
1
1
1
1
1
1
1
1
1
1
1
1
1
1
1
1
1
1
1
1
1
1
1
1
1
1
1
1
1
1
1
1
1
1
0.999999
1.36664
2.28942
2.42339
2.41488
2.4107
2.40781
2.40512
2.40179
2.39777
2.39309
2.38754
2.38096
2.373
2.36352
2.3525
2.33958
2.32488
2.30911
2.29184
2.27336
2.25407
1
1
1
1
1
1
1
1
1
1
1
1
1
1
1
1
1
1
1
1
1
1
1
1
1
1
1
1
1
1
1
1
1
1
1
1
1
1
0.999999
1.03108
2.11031
2.40515
2.39697
2.39566
2.39452
2.39255
2.38963
2.38582
2.38112
2.37547
2.36888
2.36121
2.35225
2.3421
2.33041
2.31709
2.30251
2.28642
2.26901
2.25053
1
1
1
1
1
1
1
1
1
1
1
1
1
1
1
1
1
1
1
1
1
1
1
1
1
1
1
1
1
1
1
1
1
1
1
1
1
1
1
1.00015
1.59613
2.31555
2.38287
2.38439
2.38389
2.38223
2.37953
2.37581
2.37094
2.36496
2.35802
2.35015
2.34135
2.33171
2.32096
2.30886
2.29547
2.28062
2.26432
2.24685
1
1
1
1
1
1
1
1
1
1
1
1
1
1
1
1
1
1
1
1
1
1
1
1
1
1
1
1
1
1
1
1
1
1
1
1
1
1
1
1
1.09112
2.13757
2.38414
2.37865
2.37526
2.37191
2.3686
2.36479
2.35996
2.35401
2.347
2.33908
2.33033
2.32094
2.31077
2.2996
2.28729
2.2737
2.25868
2.24244
1
1
1
1
1
1
1
1
1
1
1
1
1
1
1
1
1
1
1
1
1
1
1
1
1
1
1
1
1
1
1
1
1
1
1
1
1
1
1
1
1.00161
1.68308
2.30349
2.36237
2.36123
2.35992
2.35778
2.35451
2.34997
2.34416
2.33714
2.32917
2.32043
2.31104
2.30103
2.29032
2.27874
2.2662
2.25243
2.23739
1
1
1
1
1
1
1
1
1
1
1
1
1
1
1
1
1
1
1
1
1
1
1
1
1
1
1
1
1
1
1
1
1
1
1
1
1
1
1
1
1
1.1323
2.1343
2.36186
2.35516
2.35179
2.34891
2.34509
2.34027
2.33438
2.32736
2.31949
2.31085
2.30152
2.29156
2.28104
2.26983
2.25799
2.24528
2.23137
1
1
1
1
1
1
1
1
1
1
1
1
1
1
1
1
1
1
1
1
1
1
1
1
1
1
1
1
1
1
1
1
1
1
1
1
1
1
1
1
1
1.00357
1.71485
2.28631
2.33931
2.3386
2.337
2.33397
2.32963
2.3242
2.31766
2.31015
2.30184
2.29267
2.28276
2.27229
2.26126
2.24979
2.23778
2.22489
1
1
1
1
1
1
1
1
1
1
1
1
1
1
1
1
1
1
1
1
1
1
1
1
1
1
1
1
1
1
1
1
1
1
1
1
1
1
1
1
1
1.00001
1.1524
2.11239
2.33447
2.33118
2.32837
2.32483
2.32027
2.31491
2.30869
2.30149
2.29327
2.28409
2.27421
2.26384
2.25303
2.24187
2.23034
2.21825
1
1
1
1
1
1
1
1
1
1
1
1
1
1
1
1
1
1
1
1
1
1
1
1
1
1
1
1
1
1
1
1
1
1
1
1
1
1
1
1
1
1
1.00479
1.68203
2.25301
2.31809
2.31591
2.31297
2.30901
2.30434
2.29871
2.29197
2.28412
2.27528
2.26574
2.25574
2.24536
2.2346
2.22347
2.21193
1
1
1
1
1
1
1
1
1
1
1
1
1
1
1
1
1
1
1
1
1
1
1
1
1
1
1
1
1
1
1
1
1
1
1
1
1
1
1
1
1
1
1.00001
1.14025
2.07409
2.30818
2.30615
2.30281
2.29893
2.29468
2.28942
2.28303
2.27549
2.267
2.25785
2.24826
2.23832
2.22796
2.21716
2.20595
1
1
1
1
1
1
1
1
1
1
1
1
1
1
1
1
1
1
1
1
1
1
1
1
1
1
1
1
1
1
1
1
1
1
1
1
1
1
1
1
1
1
1
1.00407
1.59178
2.20837
2.29224
2.28767
2.28531
2.28218
2.27793
2.27239
2.26564
2.25795
2.24961
2.24075
2.23135
2.22145
2.21105
2.20004
1
1
1
1
1
1
1
1
1
1
1
1
1
1
1
1
1
1
1
1
1
1
1
1
1
1
1
1
1
1
1
1
1
1
1
1
1
1
1
1
1
1
1
1.00001
1.10131
2.02354
2.28504
2.27775
2.27403
2.27048
2.26661
2.26187
2.25627
2.24976
2.24238
2.23418
2.22512
2.21539
2.20519
2.19439
1
1
1
1
1
1
1
1
1
1
1
1
1
1
1
1
1
1
1
1
1
1
1
1
1
1
1
1
1
1
1
1
1
1
1
1
1
1
1
1
1
1
1
1
1.00215
1.48855
2.16502
2.26343
2.25933
2.25678
2.25331
2.24947
2.24507
2.2398
2.23349
2.22615
2.21781
2.20855
2.19868
2.18843
1
1
1
1
1
1
1
1
1
1
1
1
1
1
1
1
1
1
1
1
1
1
1
1
1
1
1
1
1
1
1
1
1
1
1
1
1
1
1
1
1
1
1
1
1.00001
1.06259
1.93576
2.25361
2.2526
2.24808
2.24283
2.23895
2.23493
2.23026
2.22471
2.21816
2.21067
2.20221
2.19292
2.18316
1
1
1
1
1
1
1
1
1
1
1
1
1
1
1
1
1
1
1
1
1
1
1
1
1
1
1
1
1
1
1
1
1
1
1
1
1
1
1
1
1
1
1
1
1
1.00089
1.36423
2.10918
2.242
2.23432
2.23118
2.22741
2.22333
2.21896
2.21408
2.20843
2.20191
2.19448
2.18612
2.17695
1
1
1
1
1
1
1
1
1
1
1
1
1
1
1
1
1
1
1
1
1
1
1
1
1
1
1
1
1
1
1
1
1
1
1
1
1
1
1
1
1
1
1
1
1
1
1.03123
1.7793
2.19628
2.22992
2.2236
2.21884
2.21447
2.21011
2.20551
2.20031
2.19432
2.18746
2.17968
2.17101
1
1
1
1
1
1
1
1
1
1
1
1
1
1
1
1
1
1
1
1
1
1
1
1
1
1
1
1
1
1
1
1
1
1
1
1
1
1
1
1
1
1
1
1
1
1
1.00031
1.21724
2.0184
2.22154
2.21298
2.20872
2.20489
2.201
2.19666
2.19161
2.18578
2.17918
2.17181
2.1637
1
1
1
1
1
1
1
1
1
1
1
1
1
1
1
1
1
1
1
1
1
1
1
1
1
1
1
1
1
1
1
1
1
1
1
1
1
1
1
1
1
1
1
1
1
1
1
1.01025
1.5617
2.1232
2.20175
2.19754
2.19515
2.19201
2.1878
2.18266
2.17679
2.17038
2.16348
2.15606
1
1
1
1
1
1
1
1
1
1
1
1
1
1
1
1
1
1
1
1
1
1
1
1
1
1
1
1
1
1
1
1
1
1
1
1
1
1
1
1
1
1
1
1
1
1
1
1.00007
1.09386
1.88393
2.18698
2.19103
2.18789
2.1838
2.17902
2.17365
2.16787
2.16178
2.15539
2.14865
1
1
1
1
1
1
1
1
1
1
1
1
1
1
1
1
1
1
1
1
1
1
1
1
1
1
1
1
1
1
1
1
1
1
1
1
1
1
1
1
1
1
1
1
1
1
1
1
1.00206
1.3443
2.03821
2.17942
2.17501
2.17172
2.16762
2.16287
2.15775
2.15233
2.14659
2.14046
1
1
1
1
1
1
1
1
1
1
1
1
1
1
1
1
1
1
1
1
1
1
1
1
1
1
1
1
1
1
1
1
1
1
1
1
1
1
1
1
1
1
1
1
1
1
1
1
1.00001
1.02876
1.6669
2.11498
2.16864
2.16383
2.15921
2.15476
2.14996
2.14475
2.13915
2.13309
1
1
1
1
1
1
1
1
1
1
1
1
1
1
1
1
1
1
1
1
1
1
1
1
1
1
1
1
1
1
1
1
1
1
1
1
1
1
1
1
1
1
1
1
1
1
1
1
1
1.00032
1.1525
1.9066
2.1561
2.1554
2.1506
2.14613
2.14134
2.13618
2.13066
2.12476
1
1
1
1
1
1
1
1
1
1
1
1
1
1
1
1
1
1
1
1
1
1
1
1
1
1
1
1
1
1
1
1
1
1
1
1
1
1
1
1
1
1
1
1
1
1
1
1
1
1
1.00525
1.40403
2.02729
2.14392
2.13984
2.13506
2.13085
2.12634
2.12133
2.11591
1
1
1
1
1
1
1
1
1
1
1
1
1
1
1
1
1
1
1
1
1
1
1
1
1
1
1
1
1
1
1
1
1
1
1
1
1
1
1
1
1
1
1
1
1
1
1
1
1
1
1.00003
1.04304
1.68774
2.09054
2.13534
2.12875
2.12321
2.11855
2.11371
2.10848
1
1
1
1
1
1
1
1
1
1
1
1
1
1
1
1
1
1
1
1
1
1
1
1
1
1
1
1
1
1
1
1
1
1
1
1
1
1
1
1
1
1
1
1
1
1
1
1
1
1
1
1.00062
1.17264
1.88638
2.11841
2.12233
2.11671
2.11139
2.10607
2.10071
1
1
1
1
1
1
1
1
1
1
1
1
1
1
1
1
1
1
1
1
1
1
1
1
1
1
1
1
1
1
1
1
1
1
1
1
1
1
1
1
1
1
1
1
1
1
1
1
1
1
1
1
1.00687
1.39626
1.98968
2.11087
2.10777
2.10262
2.09773
2.09259
1
1
1
1
1
1
1
1
1
1
1
1
1
1
1
1
1
1
1
1
1
1
1
1
1
1
1
1
1
1
1
1
1
1
1
1
1
1
1
1
1
1
1
1
1
1
1
1
1
1
1
1
1.00005
1.04206
1.63697
2.05073
2.103
2.09597
2.08997
2.08507
1
1
1
1
1
1
1
1
1
1
1
1
1
1
1
1
1
1
1
1
1
1
1
1
1
1
1
1
1
1
1
1
1
1
1
1
1
1
1
1
1
1
1
1
1
1
1
1
1
1
1
1
1
1.00063
1.14629
1.82784
2.07319
2.09312
2.08589
2.07914
1
1
1
1
1
1
1
1
1
1
1
1
1
1
1
1
1
1
1
1
1
1
1
1
1
1
1
1
1
1
1
1
1
1
1
1
1
1
1
1
1
1
1
1
1
1
1
1
1
1
1
1
1
1
1.0052
1.32909
1.92473
2.07904
2.07833
2.07259
1
1
1
1
1
1
1
1
1
1
1
1
1
1
1
1
1
1
1
1
1
1
1
1
1
1
1
1
1
1
1
1
1
1
1
1
1
1
1
1
1
1
1
1
1
1
1
1
1
1
1
1
1
1
1.00004
1.02771
1.52921
1.99267
2.06995
2.06571
1
1
1
1
1
1
1
1
1
1
1
1
1
1
1
1
1
1
1
1
1
1
1
1
1
1
1
1
1
1
1
1
1
1
1
1
1
1
1
1
1
1
1
1
1
1
1
1
1
1
1
1
1
1
1
1.00036
1.09304
1.71334
2.02547
2.06262
1
1
1
1
1
1
1
1
1
1
1
1
1
1
1
1
1
1
1
1
1
1
1
1
1
1
1
1
1
1
1
1
1
1
1
1
1
1
1
1
1
1
1
1
1
1
1
1
1
1
1
1
1
1
1
1
1.00241
1.21791
1.83881
2.03478
1
1
1
1
1
1
1
1
1
1
1
1
1
1
1
1
1
1
1
1
1
1
1
1
1
1
1
1
1
1
1
1
1
1
1
1
1
1
1
1
1
1
1
1
1
1
1
1
1
1
1
1
1
1
1
1
1.00001
1.01178
1.38237
1.90671
1
1
1
1
1
1
1
1
1
1
1
1
1
1
1
1
1
1
1
1
1
1
1
1
1
1
1
1
1
1
1
1
1
1
1
1
1
1
1
1
1
1
1
1
1
1
1
1
1
1
1
1
1
1
1
1
1
1.00012
1.04147
1.54441
1
1
1
1
1
1
1
1
1
1
1
1
1
1
1
1
1
1
1
1
1
1
1
1
1
1
1
1
1
1
1
1
1
1
1
1
1
1
1
1
1
1
1
1
1
1
1
1
1
1
1
1
1
1
1
1
1
1
1.00069
1.10647
1
1
1
1
1
1
1
1
1
1
1
1
1
1
1
1
1
1
1
1
1
1
1
1
1
1
1
1
1
1
1
1
1
1
1
1
1
1
1
1
1
1
1
1
1
1
1
1
1
1
1
1
1
1
1
1
1
1
1
1.00316
1
1
1
1
1
1
1
1
1
1
1
1
1
1
1
1
1
1
1
1
1
1
1
1
1
1
1
1
1
1
1
1
1
1
1
1
1
1
1
1
1
1
1
1
1
1
1
1
1
1
1
1
1
1
1
1
1
1
1
1.00002
1
1
1
1
1
1
1
1
1
1
1
1
1
1
1
1
1
1
1
1
1
1
1
1
1
1
1
1
1
1
1
1
1
1
1
1
1
1
1
1
1
1
1
1
1
1
1
1
1
1
1
1
1
1
1
1
1
1
1
1
1
1
1
1
1
1
1
1
1
1
1
1
1
1
1
1
1
1
1
1
1
1
1
1
1
1
1
1
1
1
1
1
1
1
1
1
1
1
1
1
1
1
1
1
1
1
1
1
1
1
1
1
1
1
1
1
1
1
1
1
1
1
1
1
1
1
1
1
1
1
1
1
1
1
1
1
1
1
1
1
1
1
1
1
1
1
1
1
1
1
1
1
1
1
1
1
1
1
1
1
1
1
1
1
1
1
1
1
1
1
1
1
1
1
1
1
1
1
1
1
1
1
1
1
1
1
1
1
1
1
1
1
1
1
1
1
1
1
1
1
1
1
1
1
1
1
1
1
1
1
1
1
1
1
1
1
1
1
1
1
1
1
1
1
1
1
1
1
1
1
1
1
1
1
1
1
1
1
1
1
1
1
1
1
1
1
1
1
1
1
1
1
1
1
1
1
1
1
1
1
1
1
1
1
1
1
1
1
1
1
1
1
1
1
1
1
1
1
1
1
1
1
1
1
1
1
1
1
1
1
1
1
1
1
1
1
1
1
1
1
1
1
1
1
1
1
1
1
1
1
1
1
1
1
1
1
1
1
1
1
1
1
1
1
1
1
1
1
1
1
1
1
1
1
1
1
1
1
1
1
1
1
1
1
1
1
1
1
1
1
1
1
1
1
1
1
1
1
1
1
1
1
1
1
1
1
1
1
1
1
1
1
1
1
1
1
1
1
1
1
1
1
1
1
1
1
1
1
1
1
1
1
1
1
1
1
1
1
1
1
1
1
1
1
1
1
1
1
1
1
1
1
1
1
1
1
1
1
1
1
1
1
1
1
1
1
1
1
1
1
1
1
1
1
1
1
1
1
1
1
1
1
1
1
1
1
1
1
1
1
1
1
1
1
1
1
1
1
1
1
1
1
1
1
1
1
1
1
1
1
1
1
1
1
1
1
1
1
1
1
1
1
1
1
1
1
1
1
1
1
1
1
1
1
1
1
1
1
1
1
1
1
1
1
1
1
1
1
1
1
1
1
1
1
1
1
1
1
1
1
1
1
1
1
1
1
1
1
1
1
1
1
1
1
1
1
1
1
1
1
1
1
1
1
1
1
1
1
1
1
1
1
1
1
1
1
1
1
1
1
1
1
1
1
1
1
1
1
1
1
1
1
1
1
1
1
1
1
1
1
1
1
1
1
1
1
1
1
1
1
1
1
1
1
1
1
1
1
1
1
1
1
1
1
1
1
1
1
1
1
1
1
1
1
1
1
1
1
1
1
1
1
1
1
1
1
1
1
1
1
1
1
1
1
1
1
1
1
1
1
1
1
1
1
1
1
1
1
1
1
1
1
1
1
1
1
1
1
1
1
1
1
1
1
1
1
1
1
1
1
1
1
1
1
1
1
1
1
1
1
1
1
1
1
1
1
1
1
1
1
1
1
1
1
1
1
1
1
1
1
1
1
1
1
1
1
1
1
1
1
1
1
1
1
1
1
1
1
1
1
1
1
1
1
1
1
1
1
1
1
1
1
1
1
1
1
1
1
1
1
1
1
1
1
1
1
1
1
1
1
1
1
1
1
1
1
1
1
1
1
1
1
1
1
1
1
1
1
1
1
1
1
1
1
1
1
1
1
1
1
1
1
1
1
1
1
1
1
1
1
1
1
1
1
1
1
1
1
1
1
1
1
1
1
1
1
1
1
1
1
1
1
1
1
1
1
1
1
1
1
1
1
1
1
1
1
1
1
1
1
1
1
1
1
1
1
1
1
1
1
1
1
1
1
1
1
1
1
1
1
1
1
1
1
1
1
1
1
1
1
1
1
1
1
1
1
1
1
1
1
1
1
1
1
1
1
1
1
1
1
1
1
1
1
1
1
1
1
1
1
1
1
1
1
1
1
1
1
1
1
1
1
1
1
1
1
1
1
1
1
1
1
1
1
1
1
1
1
1
1
1
1
1
1
1
1
1
1
1
1
1
1
1
1
1
1
1
1
1
1
1
1
1
1
1
1
1
1
1
1
1
1
1
1
1
1
1
1
1
1
1
1
1
1
1
1
1
1
1
1
1
1
1
1
1
1
1
1
1
1
1
1
1
1
1
1
1
1
1
1
1
1
1
1
1
1
1
1
1
1
1
1
1
1
1
1
1
1
1
1
1
1
1
1
1
1
1
1
1
1
1
1
1
1
1
1
1
1
1
1
1
1
1
1
1
1
1
1
1
1
1
1
1
1
1
1
1
1
1
1
1
1
1
1
1
1
1
1
1
1
1
1
1
1
1
1
1
1
1
1
1
1
1
1
1
1
1
1
1
1
1
1
1
1
1
1
1
1
1
1
1
1
1
1
1
1
1
1
1
1
1
1
1
1
1
1
1
1
1
1
1
1
1
1
1
1
1
1
1
1
1
1
1
1
1
1
1
1
1
1
1
1
1
1
1
1
1
1
1
1
1
1
1
1
1
1
1
1
1
1
1
1
1
1
1
1
1
1
1
1
1
1
1
1
1
1
1
1
1
1
1
1
1
1
1
1
1
1
1
1
1
1
1
1
1
1
1
1
1
1
1
1
1
1
1
1
1
1
1
1
1.5329
0.927953
0.466144
0.586317
0.90659
0.979999
1.01288
1.07839
1.15981
1.20113
1.21066
1.24012
1.28304
1.32653
1.38357
1.46593
1.54269
1.56135
1.54992
1.53317
1.53813
1.56409
1.61955
1.63337
1.62232
1.59273
1.56475
1.56269
1.5761
1.6102
1.63633
1.64309
1.63965
1.62847
1.61914
1.61742
1.61989
1.63334
1.65605
1.66191
1.66164
1.65608
1.64817
1.6465
1.64617
1.64998
1.66026
1.66384
1.66429
1.66548
1.66912
1.67512
1.67904
1.67922
1.67846
1.67756
1.67807
1.68113
1.68256
1.68223
1.68005
1.67424
1.66766
1.66568
1.66577
1.66738
1.66978
1.67016
1.66907
1.66591
1.66343
1.66307
1.66333
1.66345
1.66315
1.66171
1.6598
1.65845
1.65825
1.65846
1.65916
1.66059
1.66128
1.66007
2.16728
2.81373
2.87825
2.87237
2.86687
2.86077
2.85262
2.84173
2.83043
2.82057
2.81216
2.80364
2.7949
2.78634
2.77744
2.76763
2.75633
2.7435
2.72988
2.71665
2.70466
2.69387
2.68367
2.67341
2.66292
2.65262
2.64316
2.63487
2.62738
2.62013
2.61275
2.605
2.59674
2.58814
2.5792
2.56976
2.55977
2.54945
2.5392
2.52956
2.52098
2.51351
2.5063
2.49794
2.48813
2.47729
2.46599
2.45467
2.44396
2.43451
2.42674
2.42055
2.41494
2.40951
2.40423
2.39914
2.39442
2.39014
2.38634
2.38286
2.37879
2.37362
2.36728
2.35998
2.35154
2.34157
2.33054
2.31934
2.30872
2.29887
2.28978
2.28158
2.27535
2.27187
2.269
2.2647
2.26023
2.25637
2.25323
2.25072
2.24832
2.24515
2.2406
2.23472
2.2262
2.21462
2.20392
2.19529
2.18895
2.18429
2.18056
2.17834
2.17644
2.174
2.17132
2.16787
2.16233
2.15741
2.15605
2.15573
2.15582
2.15634
2.15561
2.1522
2.14601
2.13471
2.11724
2.10052
2.08944
2.08349
2.07997
2.07788
2.07845
2.08337
2.08982
2.09501
2.09736
2.09608
2.09127
2.08434
2.07301
2.05726
2.04423
2.03674
2.03305
2.03081
2.02885
2.02758
2.02786
2.02915
2.02973
2.02788
2.02412
2.01939
2.01118
1.99769
1.98414
1.97543
1.97081
1.96796
1.96582
1.96579
1.96926
1.97257
1.97211
1.96988
1.96607
1.95841
1.94697
1.93728
1.93132
1.92768
1.92538
1.92373
1.92523
1.93056
1.7742
1.40369
1.02032
0.981058
1.03897
1.02665
0.96857
0.914477
0.916517
0.937288
0.963928
0.98991
1.02453
1.06848
1.1236
1.19014
1.25513
1.31126
1.33989
1.36194
1.38967
1.41591
1.45101
1.49083
1.51157
1.51189
1.51432
1.52325
1.53617
1.55774
1.57473
1.57916
1.57978
1.57964
1.58239
1.58504
1.58879
1.59713
1.61253
1.62563
1.62833
1.62786
1.62467
1.62069
1.6207
1.62243
1.63055
1.64083
1.64443
1.64618
1.64805
1.65068
1.65137
1.65151
1.65196
1.65321
1.65628
1.66183
1.66496
1.66482
1.66269
1.6579
1.65234
1.64914
1.64837
1.64933
1.6519
1.65375
1.65394
1.65327
1.65227
1.6522
1.65227
1.6521
1.65137
1.64961
1.64767
1.64684
1.64682
1.64714
1.64854
1.65055
1.65093
1.64955
2.13118
2.78881
2.86291
2.85497
2.84535
2.83668
2.82686
2.81498
2.80295
2.79236
2.78354
2.77537
2.76598
2.75632
2.74668
2.73762
2.72905
2.7201
2.70955
2.69723
2.68418
2.67185
2.66084
2.65098
2.64153
2.63201
2.62232
2.6126
2.60332
2.59521
2.58852
2.58294
2.57762
2.57156
2.56444
2.55641
2.54759
2.53824
2.5287
2.51914
2.50965
2.50045
2.49149
2.48275
2.47406
2.46508
2.45584
2.44652
2.43741
2.42896
2.42164
2.41547
2.40972
2.40335
2.39663
2.39003
2.38371
2.37802
2.37282
2.36812
2.36395
2.35956
2.3542
2.34784
2.34086
2.33343
2.32547
2.31733
2.30906
2.30048
2.29183
2.28363
2.27644
2.27062
2.26575
2.26074
2.25538
2.25015
2.24539
2.24082
2.23623
2.23191
2.22802
2.2239
2.21874
2.2134
2.20721
2.19935
2.19099
2.184
2.17913
2.17536
2.17178
2.16822
2.16502
2.16189
2.15827
2.15481
2.15231
2.15089
2.14988
2.14862
2.14688
2.14401
2.13859
2.12979
2.11911
2.10774
2.09627
2.08671
2.08131
2.07885
2.07889
2.08328
2.08808
2.08865
2.08729
2.08496
2.08131
2.0754
2.06687
2.05782
2.0496
2.04152
2.03448
2.03038
2.02821
2.02684
2.02643
2.02523
2.02221
2.01902
2.01586
2.01154
2.00512
1.99751
1.99005
1.98208
1.97454
1.96938
1.9668
1.96649
1.9669
1.96518
1.96348
1.96169
1.95866
1.95361
1.94737
1.94169
1.93619
1.9313
1.92791
1.92611
1.92698
1.92764
1.84849
1.6351
1.47227
1.29621
1.18456
1.13791
1.10951
1.04125
0.991844
0.993355
0.980653
0.967038
0.968191
0.979104
1.01563
1.05042
1.07045
1.09889
1.15163
1.18276
1.20532
1.23341
1.25755
1.29163
1.33698
1.37584
1.41109
1.44598
1.47251
1.48384
1.48984
1.49281
1.49653
1.50634
1.52369
1.5365
1.54268
1.54712
1.55055
1.55631
1.56442
1.5683
1.56939
1.56933
1.57029
1.5724
1.57672
1.5854
1.59396
1.59709
1.59875
1.59917
1.59916
1.5993
1.60006
1.60301
1.60981
1.6193
1.62287
1.62209
1.61921
1.61495
1.61067
1.60881
1.60886
1.60992
1.613
1.61555
1.61708
1.61814
1.619
1.61967
1.62002
1.6203
1.62035
1.61945
1.61762
1.61651
1.61644
1.61685
1.61848
1.62057
1.62092
1.62215
1.95603
2.67804
2.79773
2.77663
2.76628
2.75946
2.75001
2.73916
2.72819
2.71844
2.71019
2.70416
2.69756
2.68854
2.6787
2.6688
2.65953
2.6512
2.64388
2.63562
2.62458
2.61306
2.60278
2.59437
2.58761
2.58133
2.57459
2.56653
2.5565
2.54589
2.53678
2.53019
2.52613
2.52303
2.51923
2.51406
2.50748
2.49994
2.49227
2.48504
2.47786
2.4692
2.45937
2.44907
2.43887
2.4297
2.42134
2.41399
2.40727
2.40089
2.39522
2.39049
2.38625
2.38118
2.37567
2.36991
2.36313
2.35495
2.34648
2.33983
2.33464
2.32998
2.32564
2.32076
2.31509
2.30923
2.30328
2.29718
2.29092
2.28467
2.2786
2.27287
2.26742
2.26187
2.25575
2.24902
2.24223
2.23518
2.22761
2.22021
2.21426
2.20978
2.20559
2.2017
2.19922
2.19864
2.19637
2.19248
2.18806
2.18211
2.17433
2.16627
2.15986
2.15484
2.15065
2.14754
2.14545
2.14367
2.14171
2.13909
2.13612
2.13367
2.13113
2.12734
2.12212
2.11594
2.11021
2.10424
2.09706
2.08809
2.08058
2.07699
2.07617
2.07714
2.07641
2.07437
2.0716
2.06772
2.0627
2.05746
2.0529
2.04911
2.04561
2.0419
2.03652
2.02977
2.02434
2.02114
2.01828
2.01489
2.01062
2.00548
2.00015
1.99544
1.99146
1.98868
1.98565
1.98204
1.97688
1.9709
1.96573
1.96168
1.95793
1.95396
1.9499
1.94601
1.94283
1.94062
1.93914
1.93679
1.93406
1.93118
1.92898
1.92737
1.92497
1.92094
1.93719
1.75849
1.64052
1.515
1.36098
1.28386
1.26838
1.21428
1.14694
1.1022
1.09414
1.09499
1.07736
1.04441
1.03705
1.03951
1.04541
1.05581
1.06593
1.0754
1.08306
1.09607
1.11596
1.15186
1.2058
1.25453
1.30107
1.34619
1.37712
1.38279
1.38672
1.39911
1.41568
1.43787
1.46434
1.48527
1.48963
1.48906
1.48921
1.49237
1.50414
1.50974
1.51268
1.51408
1.51454
1.51582
1.51915
1.52556
1.53385
1.53717
1.53772
1.53805
1.53893
1.53996
1.54121
1.54439
1.55181
1.56093
1.56278
1.56217
1.56105
1.55921
1.55852
1.55936
1.56167
1.56445
1.56652
1.5683
1.57009
1.57194
1.57332
1.57365
1.5739
1.57424
1.57486
1.5754
1.57588
1.57653
1.57756
1.57869
1.58051
1.58065
1.58344
1.59634
1.75325
2.46162
2.70768
2.6731
2.64722
2.63389
2.62636
2.62096
2.61328
2.60521
2.59764
2.59212
2.58656
2.58045
2.5753
2.56869
2.56203
2.55478
2.54715
2.54053
2.5326
2.52298
2.51512
2.50807
2.50223
2.49669
2.49129
2.48605
2.48014
2.47151
2.4632
2.45617
2.45153
2.4488
2.44736
2.44554
2.44197
2.43676
2.43053
2.4236
2.41704
2.41102
2.40446
2.39775
2.39026
2.38177
2.37382
2.36693
2.36068
2.35504
2.34986
2.34515
2.34041
2.33508
2.33006
2.32536
2.32058
2.31543
2.30962
2.30349
2.29789
2.29306
2.28855
2.28453
2.28079
2.27672
2.27213
2.2672
2.26224
2.25749
2.25313
2.24915
2.24468
2.23853
2.23165
2.22461
2.2174
2.21028
2.20306
2.19541
2.18758
2.18092
2.17665
2.17393
2.17277
2.17319
2.17346
2.17264
2.1702
2.16653
2.16106
2.15337
2.14506
2.13754
2.13135
2.12696
2.12434
2.1227
2.12122
2.11924
2.1161
2.11207
2.10769
2.10319
2.09905
2.0962
2.09391
2.09225
2.08848
2.08375
2.07929
2.07442
2.06854
2.06186
2.05627
2.05253
2.04889
2.04483
2.04049
2.03645
2.0338
2.0332
2.03352
2.03207
2.02985
2.02647
2.02043
2.01201
2.00418
1.99832
1.99287
1.98707
1.98133
1.97683
1.97471
1.97448
1.97572
1.97561
1.97342
1.96985
1.9635
1.95348
1.94347
1.9366
1.9316
1.92782
1.92551
1.92469
1.92524
1.92704
1.92813
1.92831
1.92708
1.92421
1.91926
1.90944
2.00953
1.8517
1.7412
1.65118
1.53013
1.41762
1.36195