/*--------------------------------*- C++ -*----------------------------------*\
  =========                 |
  \\      /  F ield         | OpenFOAM: The Open Source CFD Toolbox
   \\    /   O peration     | Website:  https://openfoam.org
    \\  /    A nd           | Version:  7
     \\/     M anipulation  |
\*---------------------------------------------------------------------------*/
FoamFile
{
    version     2.0;
    format      ascii;
    class       volVectorField;
    location    "3";
    object      U;
}
// * * * * * * * * * * * * * * * * * * * * * * * * * * * * * * * * * * * * * //

dimensions      [0 1 -1 0 0 0 0];

internalField   nonuniform List<vector> 
25200
(
(3 -3.72976e-17 0)
(3 -2.76906e-16 0)
(3 -3.48707e-16 0)
(3 -2.65567e-16 0)
(3 3.63007e-16 0)
(3 3.85754e-16 0)
(3 2.64773e-17 0)
(3 6.95032e-17 0)
(3 -1.3411e-16 0)
(3 1.31203e-16 0)
(3 3.05727e-16 0)
(3 1.56359e-16 0)
(3 1.05467e-16 0)
(3 -6.16339e-17 0)
(3 -5.73338e-16 0)
(3 -1.89812e-16 0)
(3 -1.30678e-15 0)
(3 -9.98271e-16 0)
(3 -5.95886e-16 0)
(3 -4.2188e-17 0)
(3 1.93271e-17 0)
(3 -3.26763e-16 0)
(3 -3.80455e-16 0)
(3 -3.82139e-16 0)
(3 -6.60933e-16 0)
(3 -8.61773e-16 0)
(3 -2.33854e-16 0)
(3 2.98428e-17 0)
(3 -3.89757e-16 0)
(3 5.29025e-16 0)
(2.20366 0.00488244 0)
(0.84455 0.0053432 0)
(0.739727 0.0103917 0)
(0.715587 0.0117181 0)
(0.68669 0.012071 0)
(0.659301 0.0118549 0)
(0.632822 0.0112577 0)
(0.607977 0.010611 0)
(0.584488 0.0103068 0)
(0.561423 0.0105298 0)
(0.537718 0.0110948 0)
(0.513038 0.0115611 0)
(0.487981 0.0116705 0)
(0.463228 0.0116343 0)
(0.438785 0.0117013 0)
(0.414318 0.011844 0)
(0.389621 0.012004 0)
(0.364586 0.0121956 0)
(0.339118 0.0123898 0)
(0.313263 0.0125805 0)
(0.28711 0.0128239 0)
(0.260622 0.0131346 0)
(0.233723 0.0134353 0)
(0.206273 0.013801 0)
(0.177911 0.014314 0)
(0.148265 0.0149342 0)
(0.117192 0.0155918 0)
(0.0847017 0.0162346 0)
(0.0513289 0.0166274 0)
(0.0176116 0.0170642 0)
(3 1.12355e-16 0)
(3 4.19469e-17 0)
(3 -9.76702e-17 0)
(3 1.86978e-16 0)
(3 1.04719e-15 0)
(3 7.48671e-16 0)
(3 -7.03374e-17 0)
(3 -9.18585e-17 0)
(3 -2.08585e-17 0)
(3 3.30127e-16 0)
(3 8.72943e-17 0)
(3 -7.64285e-17 0)
(3 -2.62929e-16 0)
(3 -8.343e-16 0)
(3 -1.77123e-15 0)
(3 -9.4323e-16 0)
(3 -1.33181e-15 0)
(3 -7.67848e-16 0)
(3 -6.57309e-16 0)
(3 -6.77475e-16 0)
(3 -1.41764e-15 0)
(3 -1.23672e-15 0)
(3 -6.56879e-16 0)
(3 -6.96999e-16 0)
(3 -1.03449e-15 0)
(3 -1.52991e-15 0)
(3 -1.51846e-15 0)
(3 -1.09108e-15 0)
(3 -7.87422e-16 0)
(3 1.74203e-16 0)
(2.2189 0.0252923 0)
(0.84123 0.0266603 0)
(0.73089 0.0299473 0)
(0.706828 0.0319139 0)
(0.679099 0.0331807 0)
(0.65284 0.0333218 0)
(0.627149 0.0323766 0)
(0.602587 0.0309927 0)
(0.578988 0.0302533 0)
(0.555695 0.0308885 0)
(0.531842 0.032526 0)
(0.507091 0.0338962 0)
(0.481987 0.0342458 0)
(0.457146 0.034193 0)
(0.43256 0.034443 0)
(0.407955 0.0348927 0)
(0.383186 0.035369 0)
(0.358163 0.0359391 0)
(0.332769 0.0365313 0)
(0.307032 0.0371391 0)
(0.281065 0.0379384 0)
(0.254891 0.0389687 0)
(0.228474 0.0399805 0)
(0.201704 0.0411888 0)
(0.174209 0.042828 0)
(0.145552 0.044791 0)
(0.115486 0.0468812 0)
(0.0838776 0.0489889 0)
(0.0511028 0.0504079 0)
(0.0176639 0.0520401 0)
(3 2.33589e-16 0)
(3 2.04746e-16 0)
(3 1.38462e-16 0)
(3 1.00346e-16 0)
(3 6.16499e-16 0)
(3 2.27385e-16 0)
(3 -3.7267e-16 0)
(3 -4.64435e-16 0)
(3 -1.71884e-16 0)
(3 5.92652e-18 0)
(3 7.2046e-17 0)
(3 2.79572e-16 0)
(3 2.48547e-16 0)
(3 -5.37578e-16 0)
(3 -1.25996e-15 0)
(3 -1.2049e-15 0)
(3 -9.14368e-16 0)
(3 -8.40853e-16 0)
(3 -8.97258e-16 0)
(3 -1.31382e-15 0)
(3 -2.36303e-15 0)
(3 -1.97042e-15 0)
(3 -1.55797e-15 0)
(3 -1.53765e-15 0)
(3 -1.79912e-15 0)
(3 -2.17502e-15 0)
(3 -3.37783e-15 0)
(3 -2.48612e-15 0)
(3 -4.1477e-16 0)
(3 -1.63309e-15 0)
(2.27387 0.0464613 0)
(0.851264 0.0493998 0)
(0.732578 0.0523259 0)
(0.707631 0.0542419 0)
(0.679858 0.055683 0)
(0.653889 0.0557151 0)
(0.62842 0.0543527 0)
(0.603678 0.0524896 0)
(0.579473 0.0515333 0)
(0.555437 0.0525835 0)
(0.53098 0.0551432 0)
(0.505757 0.057256 0)
(0.48024 0.0577551 0)
(0.454944 0.0576435 0)
(0.429814 0.0580352 0)
(0.404617 0.0587427 0)
(0.379272 0.0594775 0)
(0.353721 0.0603466 0)
(0.327825 0.0612131 0)
(0.301591 0.0620467 0)
(0.275155 0.0631401 0)
(0.24861 0.0645835 0)
(0.221999 0.0659822 0)
(0.195298 0.0677126 0)
(0.168219 0.0702064 0)
(0.140345 0.0733461 0)
(0.111367 0.0768234 0)
(0.081034 0.0804896 0)
(0.0494942 0.0831305 0)
(0.0172194 0.0862246 0)
(3 -1.95119e-16 0)
(3 -2.96758e-16 0)
(3 5.16115e-17 0)
(3 -1.14312e-16 0)
(3 -5.13069e-16 0)
(3 -5.40565e-16 0)
(3 -1.75863e-16 0)
(3 -2.57371e-16 0)
(3 -3.26306e-16 0)
(3 -7.69118e-16 0)
(3 -4.47309e-16 0)
(3 -2.49818e-16 0)
(3 -3.728e-16 0)
(3 -1.03688e-16 0)
(3 2.11376e-16 0)
(3 -6.26449e-16 0)
(3 -6.3382e-16 0)
(3 -8.08056e-16 0)
(3 -1.22248e-15 0)
(3 -1.5075e-15 0)
(3 -1.34881e-15 0)
(3 -1.52422e-15 0)
(3 -1.94275e-15 0)
(3 -1.9434e-15 0)
(3 -1.94906e-15 0)
(3 -2.08176e-15 0)
(3 -2.40277e-15 0)
(3 -2.56593e-15 0)
(3 -1.27907e-15 0)
(3 -1.50782e-15 0)
(2.35286 0.0617699 0)
(0.866185 0.0706943 0)
(0.737952 0.0734269 0)
(0.713973 0.0750106 0)
(0.686955 0.0765285 0)
(0.661667 0.0764699 0)
(0.63649 0.0751368 0)
(0.61153 0.0734046 0)
(0.586669 0.0726917 0)
(0.561838 0.0743466 0)
(0.536723 0.077843 0)
(0.510957 0.0807153 0)
(0.484919 0.0814791 0)
(0.459038 0.0814917 0)
(0.433235 0.0822148 0)
(0.407308 0.0833531 0)
(0.381213 0.0844904 0)
(0.35492 0.0857787 0)
(0.328267 0.0870213 0)
(0.301229 0.0881429 0)
(0.273946 0.089523 0)
(0.246549 0.0912907 0)
(0.219123 0.0928956 0)
(0.191727 0.09484 0)
(0.164205 0.0977516 0)
(0.136258 0.101584 0)
(0.107642 0.106 0)
(0.078079 0.110944 0)
(0.0475844 0.114721 0)
(0.0166157 0.119301 0)
(3 -1.25682e-16 0)
(3 -3.35973e-17 0)
(3 1.74985e-17 0)
(3 7.67724e-17 0)
(3 -5.92569e-16 0)
(3 -6.28932e-16 0)
(3 -1.72274e-16 0)
(3 -1.30939e-16 0)
(3 -5.00883e-17 0)
(3 -2.32897e-16 0)
(3 -9.46014e-16 0)
(3 -9.29217e-16 0)
(3 -9.62368e-16 0)
(3 -7.91376e-16 0)
(3 1.23853e-17 0)
(3 -7.72379e-17 0)
(3 -6.87362e-16 0)
(3 -1.19124e-15 0)
(3 -1.45449e-15 0)
(3 -1.18361e-15 0)
(3 -1.09484e-15 0)
(3 -8.40664e-16 0)
(3 -8.44413e-16 0)
(3 -8.68494e-16 0)
(3 -1.9487e-15 0)
(3 -2.84184e-15 0)
(3 -2.81933e-15 0)
(3 -3.39155e-15 0)
(3 -1.05836e-15 0)
(3 -5.45529e-16 0)
(2.44649 0.0724391 0)
(0.882244 0.0920638 0)
(0.739894 0.0941615 0)
(0.717088 0.0956216 0)
(0.69081 0.0972466 0)
(0.666356 0.0973507 0)
(0.641736 0.0964219 0)
(0.616994 0.0951876 0)
(0.592082 0.0948344 0)
(0.567195 0.0968737 0)
(0.542288 0.10093 0)
(0.516923 0.104268 0)
(0.491279 0.105189 0)
(0.465637 0.105328 0)
(0.439893 0.106428 0)
(0.413863 0.108068 0)
(0.38753 0.109677 0)
(0.360918 0.111461 0)
(0.333859 0.113186 0)
(0.306295 0.114721 0)
(0.278356 0.116508 0)
(0.250176 0.118717 0)
(0.221836 0.120636 0)
(0.193439 0.122843 0)
(0.164934 0.12609 0)
(0.136153 0.130373 0)
(0.106974 0.135311 0)
(0.0772076 0.141094 0)
(0.0468221 0.14563 0)
(0.0163706 0.151429 0)
(3 1.93514e-16 0)
(3 2.70597e-16 0)
(3 -1.27157e-16 0)
(3 -1.16505e-16 0)
(3 -1.2106e-16 0)
(3 -2.43195e-16 0)
(3 -3.43553e-16 0)
(3 -6.43311e-17 0)
(3 -1.52386e-16 0)
(3 -1.70216e-16 0)
(3 -7.86438e-16 0)
(3 -7.29971e-16 0)
(3 -4.93121e-16 0)
(3 -2.44757e-16 0)
(3 -1.88186e-16 0)
(3 5.91027e-16 0)
(3 -2.21309e-16 0)
(3 -1.9064e-15 0)
(3 -2.05214e-15 0)
(3 -2.52968e-15 0)
(3 -2.71989e-15 0)
(3 -1.04276e-15 0)
(3 -8.98775e-16 0)
(3 -1.89612e-15 0)
(3 -2.46813e-15 0)
(3 -2.41562e-15 0)
(3 -2.39603e-15 0)
(3 -1.26662e-15 0)
(3 -1.20468e-15 0)
(3 -6.06982e-16 0)
(2.55611 0.0809253 0)
(0.904365 0.115008 0)
(0.742258 0.113878 0)
(0.720012 0.115553 0)
(0.693759 0.117283 0)
(0.669805 0.117555 0)
(0.64575 0.117135 0)
(0.621563 0.116602 0)
(0.597077 0.116756 0)
(0.572545 0.119103 0)
(0.548086 0.123515 0)
(0.523205 0.127249 0)
(0.497884 0.128492 0)
(0.472315 0.129033 0)
(0.446448 0.130782 0)
(0.420151 0.133148 0)
(0.393461 0.135355 0)
(0.366521 0.137682 0)
(0.33921 0.139926 0)
(0.311439 0.141913 0)
(0.283281 0.14414 0)
(0.254808 0.146829 0)
(0.226011 0.149129 0)
(0.196977 0.151673 0)
(0.167716 0.15529 0)
(0.138135 0.159997 0)
(0.108213 0.165286 0)
(0.0778449 0.171678 0)
(0.0470146 0.176655 0)
(0.0164593 0.183417 0)
(3 -5.51429e-17 0)
(3 -1.26715e-16 0)
(3 1.18599e-17 0)
(3 -8.02135e-17 0)
(3 -1.60614e-16 0)
(3 6.66879e-17 0)
(3 3.0164e-16 0)
(3 1.04475e-15 0)
(3 7.38453e-16 0)
(3 2.35061e-16 0)
(3 2.27538e-18 0)
(3 1.51411e-16 0)
(3 2.86454e-16 0)
(3 3.86682e-16 0)
(3 -2.03903e-16 0)
(3 -6.76514e-16 0)
(3 -4.36424e-16 0)
(3 -1.72289e-15 0)
(3 -1.80147e-15 0)
(3 -1.64835e-15 0)
(3 -1.14414e-15 0)
(3 -6.29004e-16 0)
(3 -6.95316e-16 0)
(3 -1.33811e-15 0)
(3 -1.21942e-15 0)
(3 -1.32498e-15 0)
(3 -1.26327e-15 0)
(3 -5.91361e-16 0)
(3 -2.82003e-17 0)
(3 -7.2173e-16 0)
(2.67556 0.0846906 0)
(0.934348 0.139597 0)
(0.745948 0.132957 0)
(0.724107 0.136039 0)
(0.697956 0.137659 0)
(0.674533 0.137891 0)
(0.650882 0.137838 0)
(0.626968 0.138044 0)
(0.602479 0.138869 0)
(0.577687 0.141606 0)
(0.552921 0.14636 0)
(0.527822 0.15054 0)
(0.502329 0.152234 0)
(0.476655 0.153248 0)
(0.450821 0.155632 0)
(0.424657 0.158676 0)
(0.398129 0.161378 0)
(0.37141 0.164115 0)
(0.344377 0.166798 0)
(0.316857 0.169239 0)
(0.288842 0.171967 0)
(0.260341 0.175258 0)
(0.231277 0.178114 0)
(0.201744 0.181178 0)
(0.171814 0.18531 0)
(0.141446 0.190555 0)
(0.110667 0.196141 0)
(0.0795282 0.203067 0)
(0.0478941 0.208299 0)
(0.0167964 0.215861 0)
(3 1.34774e-17 0)
(3 8.94634e-17 0)
(3 3.73208e-16 0)
(3 6.95034e-16 0)
(3 5.83924e-16 0)
(3 2.63585e-16 0)
(3 3.05577e-16 0)
(3 5.80207e-16 0)
(3 1.10007e-15 0)
(3 1.38069e-15 0)
(3 1.6501e-15 0)
(3 5.95981e-16 0)
(3 2.77337e-16 0)
(3 -1.75337e-16 0)
(3 -6.91035e-16 0)
(3 -1.38199e-15 0)
(3 -1.12704e-15 0)
(3 -6.16741e-16 0)
(3 -4.64233e-16 0)
(3 -2.2702e-16 0)
(3 1.5025e-16 0)
(3 1.22622e-16 0)
(3 1.04578e-16 0)
(3 -2.0565e-17 0)
(3 -2.72899e-16 0)
(3 -4.76469e-16 0)
(3 -3.98304e-16 0)
(3 -7.9849e-16 0)
(3 5.52861e-17 0)
(3 1.8889e-16 0)
(2.79682 0.0851635 0)
(0.975032 0.165155 0)
(0.754896 0.150422 0)
(0.73543 0.155552 0)
(0.709577 0.157173 0)
(0.686282 0.157643 0)
(0.662259 0.15824 0)
(0.637801 0.159487 0)
(0.612576 0.161349 0)
(0.586926 0.164695 0)
(0.561407 0.169758 0)
(0.53586 0.174232 0)
(0.51015 0.176218 0)
(0.484361 0.177538 0)
(0.458455 0.180427 0)
(0.432171 0.184125 0)
(0.405373 0.187353 0)
(0.378308 0.190537 0)
(0.350939 0.19374 0)
(0.32308 0.196775 0)
(0.294687 0.200157 0)
(0.265759 0.20421 0)
(0.236169 0.207784 0)
(0.206018 0.211515 0)
(0.175409 0.216268 0)
(0.144316 0.222179 0)
(0.112695 0.228012 0)
(0.0809241 0.235415 0)
(0.0485611 0.24078 0)
(0.0170453 0.249004 0)
(3 8.26675e-17 0)
(3 1.3616e-16 0)
(3 1.93451e-16 0)
(3 5.60536e-16 0)
(3 5.23031e-16 0)
(3 2.38392e-16 0)
(3 -2.69236e-17 0)
(3 -1.59299e-16 0)
(3 -3.75814e-17 0)
(3 4.77798e-16 0)
(3 5.19932e-16 0)
(3 1.3093e-16 0)
(3 -4.49453e-16 0)
(3 -1.29856e-15 0)
(3 -1.42556e-15 0)
(3 -1.36143e-15 0)
(3 -9.66819e-16 0)
(3 -4.30384e-16 0)
(3 -5.72525e-16 0)
(3 -6.56143e-16 0)
(3 -5.99414e-16 0)
(3 1.60461e-17 0)
(3 5.2285e-16 0)
(3 7.28699e-16 0)
(3 2.42478e-17 0)
(3 -4.28143e-16 0)
(3 -4.68878e-16 0)
(3 -6.84117e-16 0)
(3 -4.68047e-16 0)
(3 5.22969e-16 0)
(2.91325 0.0653844 0)
(1.02737 0.185313 0)
(0.768674 0.162484 0)
(0.752049 0.171835 0)
(0.726481 0.175365 0)
(0.702817 0.176924 0)
(0.678103 0.178639 0)
(0.653023 0.181225 0)
(0.627285 0.184304 0)
(0.601168 0.188269 0)
(0.575239 0.193481 0)
(0.549405 0.198094 0)
(0.523396 0.200369 0)
(0.497173 0.202091 0)
(0.470721 0.205615 0)
(0.443788 0.210157 0)
(0.416162 0.214086 0)
(0.388164 0.217785 0)
(0.35988 0.22153 0)
(0.331147 0.22517 0)
(0.301924 0.229183 0)
(0.27224 0.233967 0)
(0.241925 0.238249 0)
(0.211051 0.242679 0)
(0.179685 0.248105 0)
(0.147797 0.254816 0)
(0.115197 0.260901 0)
(0.0826178 0.268726 0)
(0.0493898 0.274111 0)
(0.0173137 0.282824 0)
(3 -7.57258e-17 0)
(3 2.10202e-16 0)
(3 4.02038e-16 0)
(3 1.80676e-16 0)
(3 4.00745e-16 0)
(3 4.10285e-16 0)
(3 3.34779e-16 0)
(3 -3.63933e-16 0)
(3 -4.3798e-16 0)
(3 -3.9355e-16 0)
(3 -5.30187e-16 0)
(3 -2.91638e-16 0)
(3 -7.45614e-16 0)
(3 -1.26058e-15 0)
(3 -1.53375e-15 0)
(3 -1.33902e-15 0)
(3 -9.69979e-16 0)
(3 -6.74648e-16 0)
(3 -6.53905e-16 0)
(3 -5.81324e-16 0)
(3 -3.95885e-16 0)
(3 -4.02748e-16 0)
(3 -8.75303e-16 0)
(3 3.77419e-16 0)
(3 7.22397e-16 0)
(3 4.26308e-16 0)
(3 2.10312e-16 0)
(3 1.52429e-16 0)
(3 -8.3558e-17 0)
(3 -5.02519e-16 0)
(2.98352 0.018488 0)
(1.07873 0.203301 0)
(0.777437 0.173503 0)
(0.763649 0.188382 0)
(0.740333 0.194523 0)
(0.717266 0.196897 0)
(0.69325 0.199025 0)
(0.668964 0.20229 0)
(0.643992 0.206289 0)
(0.618438 0.210908 0)
(0.59283 0.21639 0)
(0.567142 0.221317 0)
(0.541025 0.224154 0)
(0.514405 0.226553 0)
(0.487378 0.230928 0)
(0.459764 0.236545 0)
(0.431239 0.241425 0)
(0.40211 0.245826 0)
(0.37256 0.250255 0)
(0.342491 0.254623 0)
(0.311916 0.25932 0)
(0.280956 0.264847 0)
(0.249432 0.269858 0)
(0.217397 0.275046 0)
(0.184874 0.2812 0)
(0.151878 0.288831 0)
(0.117995 0.295166 0)
(0.0844204 0.303283 0)
(0.0502185 0.308512 0)
(0.0175103 0.317454 0)
(3 6.90952e-17 0)
(3 1.16323e-16 0)
(3 -2.27838e-16 0)
(3 -3.03061e-16 0)
(3 1.41984e-16 0)
(3 4.94235e-16 0)
(3 5.52601e-16 0)
(3 3.97757e-16 0)
(3 5.70094e-16 0)
(3 5.77134e-16 0)
(3 1.09155e-16 0)
(3 -2.79237e-16 0)
(3 -1.04157e-15 0)
(3 -1.08714e-15 0)
(3 -8.63597e-16 0)
(3 -4.92231e-16 0)
(3 1.9418e-16 0)
(3 4.54218e-16 0)
(3 1.00068e-15 0)
(3 1.29991e-15 0)
(3 1.10668e-15 0)
(3 -5.51271e-16 0)
(3 -2.0958e-15 0)
(3 -1.60227e-15 0)
(3 -6.22166e-16 0)
(3 -3.37017e-16 0)
(3 3.53244e-16 0)
(3 5.93593e-16 0)
(3 -6.05468e-16 0)
(3 -7.73893e-16 0)
(3.00286 0.0021153 0)
(1.1542 0.214277 0)
(0.776245 0.184537 0)
(0.759227 0.205429 0)
(0.738127 0.214947 0)
(0.716426 0.218307 0)
(0.694567 0.220678 0)
(0.673063 0.224146 0)
(0.651318 0.228517 0)
(0.628814 0.233489 0)
(0.605569 0.239299 0)
(0.581486 0.244877 0)
(0.556328 0.248686 0)
(0.53022 0.252041 0)
(0.503446 0.257366 0)
(0.475918 0.264156 0)
(0.447151 0.270196 0)
(0.417371 0.275493 0)
(0.386857 0.280719 0)
(0.355636 0.285852 0)
(0.323829 0.291167 0)
(0.291699 0.297313 0)
(0.259076 0.302941 0)
(0.22597 0.308845 0)
(0.192301 0.315725 0)
(0.158131 0.324364 0)
(0.122763 0.331044 0)
(0.0877617 0.339379 0)
(0.0520855 0.344345 0)
(0.0180506 0.353277 0)
(3 1.53339e-16 0)
(3 1.38381e-16 0)
(3 -4.00164e-17 0)
(3 -4.605e-16 0)
(3 -3.5129e-16 0)
(3 3.67864e-16 0)
(3 4.4579e-16 0)
(3 9.53517e-16 0)
(3 8.28455e-16 0)
(3 7.63771e-16 0)
(3 8.64174e-16 0)
(3 1.19623e-16 0)
(3 1.30966e-16 0)
(3 2.88255e-17 0)
(3 7.02159e-17 0)
(3 7.36303e-16 0)
(3 1.34567e-15 0)
(3 2.26772e-15 0)
(3 2.06325e-15 0)
(3 1.12083e-15 0)
(3 3.83388e-16 0)
(3 -1.85235e-16 0)
(3 -9.37673e-16 0)
(3 -1.59351e-15 0)
(3 -1.24954e-15 0)
(3 -8.1681e-16 0)
(3 -4.56588e-16 0)
(3 1.64642e-16 0)
(3 2.33661e-16 0)
(3 -4.17684e-16 0)
(3.00007 4.67392e-06 0)
(1.28182 0.240434 0)
(0.776451 0.203764 0)
(0.745684 0.218619 0)
(0.72584 0.229502 0)
(0.705092 0.234605 0)
(0.68498 0.237612 0)
(0.666013 0.241846 0)
(0.647818 0.24736 0)
(0.629547 0.253472 0)
(0.610636 0.260121 0)
(0.590431 0.266501 0)
(0.568357 0.271361 0)
(0.544518 0.275879 0)
(0.519375 0.28248 0)
(0.493043 0.290862 0)
(0.464959 0.298623 0)
(0.43523 0.305389 0)
(0.404232 0.311868 0)
(0.372134 0.318102 0)
(0.33917 0.324224 0)
(0.305747 0.33111 0)
(0.271715 0.337501 0)
(0.237096 0.344345 0)
(0.201762 0.352149 0)
(0.166007 0.361988 0)
(0.128739 0.369205 0)
(0.0920468 0.377659 0)
(0.0546527 0.382324 0)
(0.0187567 0.391049 0)
(3 5.25783e-17 0)
(3 1.87033e-16 0)
(3 6.87855e-16 0)
(3 3.82661e-16 0)
(3 9.06485e-18 0)
(3 3.05018e-16 0)
(3 6.40339e-16 0)
(3 6.21612e-16 0)
(3 3.82562e-16 0)
(3 1.27878e-16 0)
(3 -3.00042e-17 0)
(3 -3.08169e-16 0)
(3 -3.06143e-16 0)
(3 -6.40306e-16 0)
(3 -3.58013e-16 0)
(3 3.12843e-16 0)
(3 5.67533e-16 0)
(3 1.42958e-15 0)
(3 1.62281e-15 0)
(3 1.41511e-15 0)
(3 1.75619e-15 0)
(3 1.7149e-15 0)
(3 1.17325e-15 0)
(3 -2.01606e-16 0)
(3 -9.25769e-16 0)
(3 3.38405e-16 0)
(3 -4.32958e-16 0)
(3 -6.76031e-16 0)
(3 -4.72247e-16 0)
(3 -9.22745e-16 0)
(3 -6.21798e-09 0)
(1.48004 0.270843 0)
(0.792383 0.234473 0)
(0.738647 0.239537 0)
(0.714002 0.245751 0)
(0.692108 0.249746 0)
(0.671753 0.251744 0)
(0.653101 0.254813 0)
(0.636378 0.26047 0)
(0.620697 0.268093 0)
(0.605194 0.276771 0)
(0.58912 0.285278 0)
(0.571387 0.292118 0)
(0.55172 0.298266 0)
(0.530262 0.306308 0)
(0.506912 0.316511 0)
(0.481019 0.326564 0)
(0.452665 0.33549 0)
(0.422308 0.343802 0)
(0.390218 0.351587 0)
(0.356702 0.358824 0)
(0.322367 0.366644 0)
(0.287193 0.373928 0)
(0.25136 0.381782 0)
(0.214691 0.390517 0)
(0.177563 0.401531 0)
(0.138525 0.409618 0)
(0.0995168 0.418479 0)
(0.0593598 0.423191 0)
(0.0203505 0.431871 0)
(3 -1.13398e-16 0)
(3 -1.68011e-16 0)
(3 -1.19518e-16 0)
(3 7.99599e-17 0)
(3 -8.72641e-17 0)
(3 2.46651e-16 0)
(3 5.43394e-16 0)
(3 3.71687e-16 0)
(3 1.44041e-16 0)
(3 -2.14106e-16 0)
(3 -8.32063e-16 0)
(3 -7.2503e-16 0)
(3 -9.71435e-16 0)
(3 -6.65706e-16 0)
(3 -2.10811e-16 0)
(3 2.76681e-16 0)
(3 2.34702e-16 0)
(3 9.1035e-16 0)
(3 1.46687e-15 0)
(3 1.06536e-15 0)
(3 7.57572e-16 0)
(3 9.67048e-16 0)
(3 1.22243e-15 0)
(3 9.84019e-16 0)
(3 -1.15299e-15 0)
(3 -1.66259e-15 0)
(3 -4.39944e-16 0)
(3 -5.02478e-16 0)
(3 -3.69212e-16 0)
(3 -1.11695e-17 0)
(3 -3.01918e-09 0)
(1.74652 0.2904 0)
(0.820948 0.271001 0)
(0.740431 0.269106 0)
(0.710774 0.268177 0)
(0.686825 0.269618 0)
(0.664917 0.270235 0)
(0.644672 0.271003 0)
(0.626599 0.274287 0)
(0.610488 0.28044 0)
(0.595573 0.28881 0)
(0.581189 0.298496 0)
(0.566063 0.307798 0)
(0.549576 0.316526 0)
(0.532186 0.326914 0)
(0.513684 0.339442 0)
(0.492411 0.352142 0)
(0.467719 0.363863 0)
(0.439928 0.374818 0)
(0.409368 0.384986 0)
(0.376393 0.394046 0)
(0.341846 0.40331 0)
(0.305833 0.411899 0)
(0.26869 0.421149 0)
(0.230194 0.431383 0)
(0.190723 0.444097 0)
(0.149424 0.45366 0)
(0.107624 0.463371 0)
(0.0644437 0.468394 0)
(0.0218542 0.477038 0)
(3 -4.06306e-17 0)
(3 -4.08201e-16 0)
(3 -1.02027e-15 0)
(3 -9.59163e-16 0)
(3 -6.64088e-16 0)
(3 -4.94973e-16 0)
(3 1.04196e-16 0)
(3 3.06469e-16 0)
(3 3.07069e-16 0)
(3 1.02559e-16 0)
(3 8.77644e-17 0)
(3 1.03714e-16 0)
(3 1.07651e-16 0)
(3 1.08716e-16 0)
(3 6.35337e-16 0)
(3 5.15357e-16 0)
(3 4.89637e-16 0)
(3 1.11588e-16 0)
(3 4.87833e-16 0)
(3 2.11517e-15 0)
(3 9.99108e-16 0)
(3 8.04664e-16 0)
(3 1.26555e-15 0)
(3 1.83611e-15 0)
(3 1.09165e-15 0)
(3 3.13007e-17 0)
(3 2.81477e-16 0)
(3 2.13223e-16 0)
(3 4.87612e-16 0)
(3 1.09771e-15 0)
(3 -5.21923e-10 0)
(2.05868 0.304439 0)
(0.847227 0.320117 0)
(0.747552 0.299364 0)
(0.72404 0.292586 0)
(0.698888 0.293692 0)
(0.6741 0.293033 0)
(0.650095 0.291869 0)
(0.628332 0.293452 0)
(0.609224 0.297739 0)
(0.592203 0.304576 0)
(0.576486 0.313316 0)
(0.560974 0.322557 0)
(0.54503 0.331837 0)
(0.529072 0.343116 0)
(0.513574 0.357636 0)
(0.497021 0.373616 0)
(0.477368 0.389026 0)
(0.454098 0.403575 0)
(0.427122 0.417126 0)
(0.396437 0.429041 0)
(0.363001 0.440643 0)
(0.327073 0.451316 0)
(0.289368 0.462563 0)
(0.249767 0.474732 0)
(0.209211 0.489145 0)
(0.166266 0.500449 0)
(0.121377 0.512085 0)
(0.0733626 0.518697 0)
(0.0251928 0.528174 0)
(3 6.09943e-17 0)
(3 -1.62522e-16 0)
(3 -3.70342e-16 0)
(3 -6.52522e-16 0)
(3 -6.41065e-16 0)
(3 -6.32883e-16 0)
(3 -5.18877e-16 0)
(3 -6.55827e-17 0)
(3 5.25603e-16 0)
(3 1.18435e-15 0)
(3 1.45905e-15 0)
(3 9.8452e-16 0)
(3 8.02142e-16 0)
(3 7.32753e-16 0)
(3 9.05986e-16 0)
(3 5.69717e-16 0)
(3 5.55614e-17 0)
(3 -1.03654e-15 0)
(3 -7.11967e-16 0)
(3 1.68622e-16 0)
(3 5.37148e-16 0)
(3 5.52448e-16 0)
(3 5.20448e-16 0)
(3 1.3897e-15 0)
(3 2.31047e-15 0)
(3 3.2331e-15 0)
(3 1.56462e-15 0)
(3 2.31142e-16 0)
(3 9.5006e-16 0)
(3 1.25871e-15 0)
(3 -4.19107e-11 0)
(2.45642 0.303582 0)
(0.919477 0.36569 0)
(0.787408 0.309561 0)
(0.765501 0.312001 0)
(0.736779 0.315697 0)
(0.707028 0.316975 0)
(0.676939 0.315327 0)
(0.648816 0.314772 0)
(0.62369 0.31754 0)
(0.601573 0.323398 0)
(0.581878 0.331535 0)
(0.56361 0.340458 0)
(0.545909 0.349296 0)
(0.528969 0.359738 0)
(0.513533 0.373872 0)
(0.498955 0.391219 0)
(0.483237 0.409876 0)
(0.464637 0.428467 0)
(0.44229 0.446365 0)
(0.415376 0.462463 0)
(0.384659 0.477536 0)
(0.350193 0.491451 0)
(0.312894 0.505454 0)
(0.272747 0.520326 0)
(0.230169 0.537935 0)
(0.183617 0.553093 0)
(0.134388 0.568452 0)
(0.0814909 0.577771 0)
(0.027007 0.587715 0)
(3 -5.67586e-17 0)
(3 -2.59998e-17 0)
(3 2.35584e-16 0)
(3 -1.39228e-17 0)
(3 -1.5871e-16 0)
(3 -3.07021e-16 0)
(3 -4.24756e-16 0)
(3 -4.98951e-18 0)
(3 6.74013e-16 0)
(3 1.11277e-15 0)
(3 5.72869e-16 0)
(3 5.86341e-17 0)
(3 -4.31854e-16 0)
(3 -3.11444e-16 0)
(3 -3.69341e-16 0)
(3 2.69785e-17 0)
(3 1.61573e-16 0)
(3 -7.39209e-16 0)
(3 -1.53057e-15 0)
(3 -1.66889e-15 0)
(3 -7.60968e-16 0)
(3 -5.97914e-16 0)
(3 -7.17136e-16 0)
(3 1.77451e-16 0)
(3 1.34998e-15 0)
(3 2.94185e-15 0)
(3 2.50482e-15 0)
(3 1.39718e-15 0)
(3 1.41785e-16 0)
(3 6.95422e-16 0)
(3 -1.07762e-12 0)
(2.91385 0.151314 0)
(1.05629 0.380675 0)
(0.836771 0.328361 0)
(0.81903 0.327969 0)
(0.786718 0.335873 0)
(0.753783 0.341513 0)
(0.719225 0.342697 0)
(0.685537 0.34188 0)
(0.654052 0.342333 0)
(0.62564 0.345801 0)
(0.600402 0.352365 0)
(0.577669 0.360589 0)
(0.556476 0.368897 0)
(0.536738 0.378205 0)
(0.51929 0.391132 0)
(0.504082 0.408157 0)
(0.4897 0.428146 0)
(0.47418 0.449728 0)
(0.456223 0.471768 0)
(0.433996 0.492601 0)
(0.406862 0.512372 0)
(0.375469 0.530799 0)
(0.339715 0.549181 0)
(0.300041 0.568415 0)
(0.257596 0.590458 0)
(0.210634 0.609543 0)
(0.159769 0.62936 0)
(0.0999441 0.644994 0)
(0.035062 0.658839 0)
(3 8.29382e-17 0)
(3 -9.09148e-17 0)
(3 -1.55456e-16 0)
(3 -2.44892e-16 0)
(3 -5.76587e-16 0)
(3 -6.56522e-16 0)
(3 -7.20043e-16 0)
(3 -3.72876e-16 0)
(3 -3.46018e-16 0)
(3 -3.2571e-16 0)
(3 -8.65008e-16 0)
(3 -8.80971e-16 0)
(3 -9.49526e-16 0)
(3 -1.34844e-15 0)
(3 -1.35169e-15 0)
(3 -1.02643e-15 0)
(3 -1.26229e-15 0)
(3 -1.34512e-15 0)
(3 -9.54409e-16 0)
(3 -7.10265e-16 0)
(3 -1.86367e-16 0)
(3 -1.08683e-15 0)
(3 -1.75404e-15 0)
(3 -1.52196e-15 0)
(3 -3.63781e-16 0)
(3 8.60054e-16 0)
(3 1.09422e-15 0)
(3 1.42571e-15 0)
(3 -4.86845e-17 0)
(3 1.08571e-16 0)
(3 -1.34625e-14 0)
(3.03659 0.0116259 0)
(1.18602 0.35484 0)
(0.84397 0.340347 0)
(0.835512 0.362455 0)
(0.808487 0.36976 0)
(0.782429 0.372063 0)
(0.754703 0.371548 0)
(0.724058 0.371047 0)
(0.692013 0.371686 0)
(0.660486 0.37401 0)
(0.630589 0.3787 0)
(0.602909 0.38522 0)
(0.577259 0.392114 0)
(0.553584 0.399562 0)
(0.532665 0.410401 0)
(0.515114 0.426109 0)
(0.499846 0.446018 0)
(0.485343 0.469041 0)
(0.470313 0.494175 0)
(0.451685 0.519603 0)
(0.429483 0.544763 0)
(0.402053 0.568924 0)
(0.369815 0.592952 0)
(0.332685 0.617146 0)
(0.291464 0.644709 0)
(0.241799 0.672213 0)
(0.183583 0.703622 0)
(0.115333 0.733563 0)
(0.0360495 0.752104 0)
(3 9.58782e-17 0)
(3 3.43609e-16 0)
(3 -1.27498e-16 0)
(3 -3.66317e-16 0)
(3 -5.08256e-16 0)
(3 -5.20121e-16 0)
(3 -6.92501e-16 0)
(3 -9.32993e-16 0)
(3 -1.41511e-15 0)
(3 -1.58085e-15 0)
(3 -1.61029e-15 0)
(3 -1.43467e-15 0)
(3 -8.45287e-16 0)
(3 1.73167e-16 0)
(3 3.39493e-16 0)
(3 -2.98152e-16 0)
(3 -1.56752e-15 0)
(3 -1.40815e-15 0)
(3 -1.12009e-15 0)
(3 -4.14998e-16 0)
(3 -9.19233e-16 0)
(3 -1.62452e-15 0)
(3 -1.18581e-15 0)
(3 -2.29062e-15 0)
(3 -2.567e-15 0)
(3 -1.88137e-15 0)
(3 -2.36091e-16 0)
(3 5.52843e-16 0)
(3 6.45989e-16 0)
(3 8.272e-16 0)
(3 4.36731e-16 0)
(3.00138 1.62836e-05 0)
(1.33816 0.352988 0)
(0.828743 0.35095 0)
(0.817083 0.383619 0)
(0.796008 0.39411 0)
(0.777401 0.396042 0)
(0.760567 0.39664 0)
(0.742921 0.396934 0)
(0.721262 0.39873 0)
(0.695056 0.40214 0)
(0.66632 0.407009 0)
(0.636878 0.412925 0)
(0.607845 0.418918 0)
(0.580244 0.424677 0)
(0.555052 0.432804 0)
(0.533748 0.446098 0)
(0.516006 0.464619 0)
(0.500868 0.487575 0)
(0.486883 0.514363 0)
(0.471544 0.543316 0)
(0.453767 0.573532 0)
(0.431335 0.603777 0)
(0.403964 0.634403 0)
(0.370315 0.665902 0)
(0.331781 0.703178 0)
(0.286204 0.743935 0)
(0.232791 0.786037 0)
(0.166788 0.830018 0)
(0.0632091 0.868832 0)
(3 -7.66746e-17 0)
(3 -2.47386e-16 0)
(3 -1.97584e-16 0)
(3 2.539e-17 0)
(3 6.55711e-16 0)
(3 3.5274e-16 0)
(3 -2.36375e-18 0)
(3 -4.33931e-16 0)
(3 -7.08196e-16 0)
(3 -8.7684e-16 0)
(3 1.47702e-17 0)
(3 -3.44395e-16 0)
(3 -3.91763e-16 0)
(3 -1.7195e-16 0)
(3 3.03963e-16 0)
(3 3.40684e-16 0)
(3 5.88209e-17 0)
(3 -2.79158e-16 0)
(3 -6.36464e-16 0)
(3 -7.15882e-16 0)
(3 -1.31931e-15 0)
(3 -9.43019e-16 0)
(3 -3.25966e-17 0)
(3 -4.9268e-16 0)
(3 -2.09243e-15 0)
(3 -2.45242e-15 0)
(3 -1.45085e-15 0)
(3 2.96731e-16 0)
(3 6.58268e-16 0)
(3 8.95814e-16 0)
(3 8.84968e-16 0)
(3 -1.78502e-07 0)
(1.60354 0.373839 0)
(0.834075 0.368331 0)
(0.785682 0.387386 0)
(0.776087 0.397778 0)
(0.765225 0.402672 0)
(0.754395 0.406678 0)
(0.742257 0.41169 0)
(0.729326 0.419256 0)
(0.712528 0.427077 0)
(0.691548 0.434967 0)
(0.666865 0.442758 0)
(0.639674 0.44934 0)
(0.611622 0.454626 0)
(0.584111 0.460463 0)
(0.559246 0.470431 0)
(0.538397 0.486239 0)
(0.521071 0.507559 0)
(0.506946 0.534434 0)
(0.493437 0.565443 0)
(0.479429 0.599657 0)
(0.462274 0.635755 0)
(0.441149 0.673864 0)
(0.414176 0.713856 0)
(0.38428 0.759221 0)
(0.348214 0.809166 0)
(0.296665 0.876196 0)
(0.206763 0.975715 0)
(0.110751 1.0881 0)
(3 -5.13827e-18 0)
(3 -1.45743e-16 0)
(3 -6.8954e-17 0)
(3 3.95679e-16 0)
(3 6.26396e-16 0)
(3 2.18768e-16 0)
(3 -1.61476e-17 0)
(3 -6.63486e-17 0)
(3 3.84757e-17 0)
(3 1.34558e-16 0)
(3 1.15982e-16 0)
(3 2.42245e-16 0)
(3 3.48539e-16 0)
(3 6.17612e-16 0)
(3 7.92645e-16 0)
(3 1.15739e-15 0)
(3 1.09577e-15 0)
(3 8.35523e-16 0)
(3 4.36113e-16 0)
(3 -3.30817e-16 0)
(3 1.97639e-16 0)
(3 1.16031e-15 0)
(3 9.59248e-16 0)
(3 5.65118e-16 0)
(3 6.07252e-16 0)
(3 6.21591e-16 0)
(3 3.41776e-16 0)
(3 -1.94395e-16 0)
(3 -2.97212e-16 0)
(3 7.96015e-17 0)
(3 4.96287e-16 0)
(3 -1.81753e-07 0)
(2.0123 0.406239 0)
(0.869454 0.431377 0)
(0.782697 0.403114 0)
(0.775043 0.404079 0)
(0.766354 0.411401 0)
(0.755484 0.417906 0)
(0.743474 0.42381 0)
(0.73154 0.432231 0)
(0.719783 0.443349 0)
(0.705882 0.455097 0)
(0.688926 0.466409 0)
(0.66787 0.476045 0)
(0.644118 0.483229 0)
(0.618143 0.489407 0)
(0.592059 0.497217 0)
(0.568659 0.510254 0)
(0.548294 0.528962 0)
(0.532739 0.554436 0)
(0.519781 0.585744 0)
(0.508546 0.62241 0)
(0.496342 0.663304 0)
(0.482715 0.708105 0)
(0.46466 0.755521 0)
(0.444766 0.810091 0)
(0.417539 0.880933 0)
(0.3914 0.993714 0)
(0.379221 1.13974 0)
(0.489073 1.39371 0)
(3 5.54692e-17 0)
(3 2.89027e-17 0)
(3 1.92163e-16 0)
(3 6.178e-17 0)
(3 -1.66031e-16 0)
(3 -5.30046e-16 0)
(3 -3.78247e-16 0)
(3 4.51884e-17 0)
(3 2.93783e-16 0)
(3 2.30322e-16 0)
(3 -2.95993e-16 0)
(3 -3.19227e-16 0)
(3 -5.70565e-18 0)
(3 4.1076e-16 0)
(3 4.93174e-16 0)
(3 9.71481e-16 0)
(3 1.02185e-15 0)
(3 1.2827e-15 0)
(3 5.00509e-16 0)
(3 3.36826e-16 0)
(3 1.01655e-15 0)
(3 1.11104e-15 0)
(3 1.07465e-15 0)
(3 8.13697e-16 0)
(3 1.06092e-15 0)
(3 1.02959e-15 0)
(3 1.04728e-15 0)
(3 7.48594e-16 0)
(3 3.15791e-16 0)
(3 -2.52004e-16 0)
(3 -3.17116e-16 0)
(3 -3.59061e-08 0)
(2.62238 0.338605 0)
(0.98302 0.481715 0)
(0.838972 0.412972 0)
(0.814573 0.414459 0)
(0.790512 0.423565 0)
(0.770777 0.431606 0)
(0.753807 0.43835 0)
(0.738716 0.446403 0)
(0.725983 0.457469 0)
(0.714352 0.470704 0)
(0.702362 0.484764 0)
(0.687834 0.49824 0)
(0.67045 0.509309 0)
(0.649629 0.518625 0)
(0.626164 0.527024 0)
(0.602831 0.538676 0)
(0.580788 0.554559 0)
(0.563304 0.577408 0)
(0.550079 0.607297 0)
(0.540765 0.64435 0)
(0.533006 0.687864 0)
(0.526968 0.737497 0)
(0.519618 0.79224 0)
(0.512675 0.8572 0)
(0.509905 0.944398 0)
(0.518685 1.06478 0)
(0.596958 1.2113 0)
(0.89168 1.4069 0)
(3 3.02165e-17 0)
(3 -5.11282e-17 0)
(3 1.15082e-16 0)
(3 -1.50712e-16 0)
(3 -5.1399e-16 0)
(3 4.6991e-17 0)
(3 3.93132e-16 0)
(3 -7.37181e-17 0)
(3 -3.34108e-16 0)
(3 -1.80327e-16 0)
(3 -5.38321e-17 0)
(3 2.23836e-16 0)
(3 3.2274e-16 0)
(3 -1.78345e-16 0)
(3 -2.65088e-16 0)
(3 -1.23924e-16 0)
(3 6.39941e-16 0)
(3 6.19761e-16 0)
(3 -7.57141e-16 0)
(3 -3.6223e-16 0)
(3 2.26034e-16 0)
(3 4.26475e-16 0)
(3 7.1398e-16 0)
(3 1.34247e-15 0)
(3 9.54269e-16 0)
(3 6.06889e-16 0)
(3 1.82639e-16 0)
(3 5.7567e-16 0)
(3 4.5625e-16 0)
(3 -3.92555e-17 0)
(3 -1.28618e-16 0)
(3 -3.30969e-09 0)
(3.07969 0.0483587 0)
(1.21172 0.45598 0)
(0.896219 0.442315 0)
(0.866866 0.448485 0)
(0.834116 0.449902 0)
(0.802318 0.452015 0)
(0.77699 0.455587 0)
(0.75629 0.461703 0)
(0.73956 0.471529 0)
(0.726483 0.484324 0)
(0.71532 0.498788 0)
(0.704825 0.514018 0)
(0.692763 0.528343 0)
(0.678103 0.541648 0)
(0.659797 0.553269 0)
(0.639599 0.566134 0)
(0.618563 0.580924 0)
(0.600103 0.601139 0)
(0.586138 0.628499 0)
(0.577838 0.664108 0)
(0.573503 0.707875 0)
(0.574173 0.759962 0)
(0.57762 0.819871 0)
(0.58694 0.891035 0)
(0.606043 0.982755 0)
(0.654443 1.09365 0)
(0.799299 1.23017 0)
(1.12838 1.35457 0)
(3 1.62811e-16 0)
(3 1.68844e-16 0)
(3 2.88555e-17 0)
(3 -2.59818e-16 0)
(3 2.32782e-17 0)
(3 3.25008e-16 0)
(3 8.71773e-17 0)
(3 -9.13599e-16 0)
(3 -1.14152e-15 0)
(3 -7.07736e-16 0)
(3 1.87086e-16 0)
(3 8.56436e-16 0)
(3 1.05043e-15 0)
(3 8.08959e-16 0)
(3 5.38673e-16 0)
(3 1.99019e-16 0)
(3 3.37951e-17 0)
(3 -1.38073e-16 0)
(3 -4.42596e-16 0)
(3 4.63933e-16 0)
(3 6.26634e-16 0)
(3 2.76489e-16 0)
(3 4.65455e-16 0)
(3 1.06394e-15 0)
(3 1.57954e-15 0)
(3 1.02942e-15 0)
(3 1.42882e-17 0)
(3 -1.28557e-16 0)
(3 -8.24468e-16 0)
(3 -6.66511e-16 0)
(3 -6.6909e-16 0)
(3 -1.11104e-10 0)
(3.00965 0.000135213 0)
(1.38312 0.43385 0)
(0.88703 0.484525 0)
(0.861519 0.482552 0)
(0.840055 0.481807 0)
(0.818169 0.479843 0)
(0.796125 0.480288 0)
(0.774728 0.483303 0)
(0.755707 0.489769 0)
(0.740283 0.500264 0)
(0.7281 0.513326 0)
(0.718437 0.528649 0)
(0.709483 0.54483 0)
(0.699938 0.561299 0)
(0.687667 0.576949 0)
(0.672957 0.592898 0)
(0.656161 0.609051 0)
(0.6396 0.628017 0)
(0.625903 0.652543 0)
(0.618598 0.685445 0)
(0.616955 0.727122 0)
(0.623586 0.778294 0)
(0.635957 0.839322 0)
(0.661791 0.911212 0)
(0.699188 1.00143 0)
(0.782944 1.10487 0)
(0.949785 1.20971 0)
(1.2367 1.2791 0)
(3 -4.36885e-17 0)
(3 -2.41072e-16 0)
(3 -4.30815e-16 0)
(3 -1.2798e-16 0)
(3 2.54514e-19 0)
(3 -1.54792e-16 0)
(3 -2.21263e-16 0)
(3 -3.1417e-16 0)
(3 -5.93806e-16 0)
(3 -8.07536e-16 0)
(3 1.18697e-16 0)
(3 2.36908e-15 0)
(3 2.76897e-15 0)
(3 2.75708e-15 0)