/*--------------------------------*- C++ -*----------------------------------*\
  =========                 |
  \\      /  F ield         | OpenFOAM: The Open Source CFD Toolbox
   \\    /   O peration     | Website:  https://openfoam.org
    \\  /    A nd           | Version:  9
     \\/     M anipulation  |
\*---------------------------------------------------------------------------*/
FoamFile
{
    format      ascii;
    class       volVectorField;
    location    "35.7";
    object      U;
}
// * * * * * * * * * * * * * * * * * * * * * * * * * * * * * * * * * * * * * //

dimensions      [0 1 -1 0 0 0 0];

internalField   nonuniform List<vector> 
8500
(
(-0.00648943 0.00259378 0)
(-0.0291412 0.00447217 -6.64868e-23)
(-0.0611987 0.00493389 -3.65559e-24)
(-0.0890221 0.00476909 6.9251e-37)
(-0.116449 0.00445201 -1.01858e-23)
(-0.13689 0.00384939 8.48121e-24)
(-0.160822 0.00379653 -5.73967e-23)
(-0.171709 0.00248783 -8.89181e-23)
(-0.192024 0.00351673 -8.12776e-23)
(-0.199172 0.00123899 -4.21984e-24)
(-0.0067832 0.00772936 1.92023e-22)
(-0.0293985 0.0133424 6.21198e-23)
(-0.0610769 0.0147272 2.49295e-22)
(-0.0883433 0.0142377 0)
(-0.115188 0.0132882 0)
(-0.134649 0.0114895 1.70783e-23)
(-0.158013 0.0113244 4.31372e-23)
(-0.167176 0.00740542 9.49067e-23)
(-0.186976 0.0105168 6.11823e-23)
(-0.191897 0.00358283 1.68883e-23)
(-0.00736253 0.0127107 -1.70642e-22)
(-0.0299094 0.0219913 0)
(-0.0608377 0.0242965 -2.34603e-22)
(-0.0869941 0.0234962 0)
(-0.112677 0.0219175 -4.08013e-23)
(-0.130174 0.0189531 3.39732e-23)
(-0.152401 0.0186474 0)
(-0.158072 0.0121548 0)
(-0.176881 0.0174189 0)
(-0.177372 0.00553807 0)
(-0.00821155 0.0174418 3.4303e-22)
(-0.0306663 0.0302768 -2.49444e-22)
(-0.0604895 0.0334949 -5.88278e-23)
(-0.0849916 0.0324051 -3.66768e-22)
(-0.108938 0.0301961 -3.68137e-22)
(-0.123482 0.0261269 3.4256e-23)
(-0.143993 0.0256044 -2.8602e-23)
(-0.144311 0.0166495 3.30788e-22)
(-0.161719 0.0241724 1.78184e-26)
(-0.155574 0.0069047 3.33434e-22)
(-0.0093079 0.0218365 -3.4303e-22)
(-0.0316582 0.0380652 -3.22373e-22)
(-0.0600436 0.0421793 8.84969e-23)
(-0.0823596 0.0408254 4.89464e-22)
(-0.103995 0.0379728 -4.16199e-23)
(-0.1146 0.0329037 5.4468e-22)
(-0.132785 0.0319982 0)
(-0.125753 0.0208317 -3.78836e-22)
(-0.141391 0.0307406 -8.07359e-23)
(-0.126288 0.0075956 -4.63464e-22)
(-0.0106243 0.0258218 8.64663e-23)
(-0.0328708 0.0452341 5.3615e-22)
(-0.0595115 0.0502109 -4.14368e-22)
(-0.0791273 0.0486207 -2.96672e-25)
(-0.0978669 0.0450893 -3.71144e-22)
(-0.103563 0.039183 1.37598e-22)
(-0.118743 0.037583 -5.74639e-23)
(-0.102194 0.0246696 4.73817e-22)
(-0.11568 0.0370698 -8.0906e-23)
(-0.0888569 0.00775734 2.65422e-22)
(-0.0121306 0.0293406 4.33175e-23)
(-0.0342864 0.0516748 0)
(-0.0589023 0.0574565 -1.56811e-24)
(-0.0753249 0.0556579 0)
(-0.0905553 0.0513824 6.58279e-22)
(-0.0904085 0.0448739 -5.45175e-22)
(-0.101777 0.0420578 0)
(-0.0733813 0.0281651 -1.12656e-24)
(-0.0842448 0.0429402 0)
(-0.0418906 0.00800159 0)
(-0.0137956 0.0323529 -6.98458e-22)
(-0.0358843 0.057295 -7.21489e-23)
(-0.0582172 0.0637918 5.34593e-22)
(-0.0709761 0.0618082 9.90871e-23)
(-0.0820248 0.0566903 -6.62145e-22)
(-0.0751589 0.0498999 -4.08342e-22)
(-0.0816697 0.0450609 -5.77544e-23)
(-0.0390261 0.031406 4.70341e-22)
(-0.0466267 0.047621 -8.12166e-23)
(0.0170239 0.0093779 6.71972e-23)
(-0.0155895 0.0348376 7.86302e-22)
(-0.0376398 0.0620198 -5.79983e-22)
(-0.0574447 0.069104 -1.79168e-22)
(-0.0660865 0.0669473 9.88438e-23)
(-0.0721783 0.0608605 6.62077e-22)
(-0.0577895 0.054215 6.1538e-22)
(-0.0579514 0.0461813 -5.78864e-23)
(0.00124442 0.034572 9.41364e-23)
(-0.00262588 0.0503084 -1.62806e-22)
(0.0918742 0.0123958 6.84898e-23)
(-0.0174857 0.0367915 7.06451e-22)
(-0.0395225 0.0657934 5.80303e-22)
(-0.0565527 0.0732959 -8.40759e-22)
(-0.0606277 0.0709553 -9.91535e-23)
(-0.0608186 0.0637514 0)
(-0.0381882 0.0578212 0)
(-0.0298353 0.0452147 0)
(0.0484733 0.0376847 -1.49113e-21)
(0.0474855 0.0501205 -6.81221e-22)
(0.18636 0.0176117 5.21454e-22)
(-0.0194621 0.0382283 -1.41718e-21)
(-0.0414941 0.0685795 0)
(-0.0554803 0.0762901 1.92475e-21)
(-0.0545189 0.0737212 7.96183e-22)
(-0.0476041 0.0652372 8.28583e-23)
(-0.0159606 0.0606536 0)
(0.00367731 0.0423716 -9.46157e-22)
(0.104002 0.0410863 7.44185e-22)
(0.105375 0.0457274 6.81211e-22)
(0.302092 0.0255066 -5.21434e-22)
(-0.0215017 0.0391765 7.99954e-22)
(-0.0435037 0.0703612 -7.32405e-23)
(-0.0541259 0.0780328 -9.64117e-22)
(-0.0476031 0.0751505 -8.96178e-22)
(-0.0320999 0.0653152 0)
(0.00977503 0.0624553 1.09625e-21)
(0.0442945 0.0381474 5.25161e-25)
(0.168643 0.0455796 6.42284e-22)
(0.176331 0.0373651 7.64633e-22)
(0.437469 0.0351953 -5.17166e-22)
(-0.0235925 0.0396761 4.54085e-26)
(-0.0454829 0.0711398 1.25537e-21)
(-0.0523311 0.0784964 -1.21293e-22)
(-0.0395605 0.0751516 6.99623e-22)
(-0.0137831 0.0640785 4.18024e-22)
(0.0402311 0.0630038 2.78438e-22)
(0.0947991 0.0333986 9.43826e-22)
(0.242815 0.0510202 -8.35003e-22)
(0.268632 0.0289759 -5.2065e-22)
(0.586387 0.0454505 3.80469e-22)
(-0.0257265 0.0397748 0)
(-0.047339 0.0709333 -1.03397e-21)
(-0.049881 0.0776867 -1.2179e-22)
(-0.0298782 0.0736607 1.62913e-24)
(0.00817309 0.06161 6.66906e-22)
(0.0769263 0.062208 -9.58414e-22)
(0.158343 0.0297286 9.38403e-22)
(0.327101 0.0559184 -9.55877e-23)
(0.388754 0.0264883 0)
(0.738517 0.0562412 0)
(-0.0278979 0.0395242 9.08609e-23)
(-0.0489447 0.0697751 -1.19333e-21)
(-0.0464833 0.0756518 0)
(-0.0178611 0.0707188 -9.88272e-23)
(0.0349737 0.0580575 8.32651e-23)
(0.121982 0.0599461 0)
(0.237302 0.0291683 -9.40287e-22)
(0.422995 0.0591455 -7.38961e-22)
(0.534433 0.0332682 1.6099e-22)
(0.88168 0.0683097 -1.35293e-22)
(-0.0300979 0.0389716 -9.13045e-23)
(-0.0501326 0.0677169 1.26828e-21)
(-0.0417272 0.0724625 0)
(-0.00260592 0.0664856 -9.03227e-22)
(0.0681773 0.0537487 8.3308e-23)
(0.178072 0.0565443 -1.09804e-21)
(0.332194 0.0330581 -1.13715e-22)
(0.532382 0.0620121 8.34121e-22)
(0.692711 0.0480076 0)
(1.00532 0.0814202 1.02882e-21)
(-0.0323058 0.0381546 -1.38859e-21)
(-0.0506922 0.064823 -7.54208e-23)
(-0.0350599 0.0682119 -1.22243e-22)
(0.0170552 0.0612238 1.01113e-22)
(0.109746 0.0492709 -1.33004e-21)
(0.248034 0.0532575 1.09802e-21)
(0.441222 0.041412 9.24363e-22)
(0.654126 0.067566 7.38879e-22)
(0.84575 0.0669443 1.2777e-21)
(1.10328 0.0941943 -9.00098e-22)
(-0.0344858 0.0371013 1.48047e-21)
(-0.0503565 0.0611601 0)
(-0.0257895 0.063034 1.11037e-21)
(0.0425689 0.0552857 -1.01392e-22)
(0.161925 0.0454457 2.65921e-21)
(0.333879 0.0521013 0)
(0.560497 0.0535164 -9.24344e-22)
(0.781191 0.0774317 -1.85232e-24)
(0.978858 0.0867824 -1.43213e-21)
(1.17441 0.105187 1.29804e-22)
(-0.0365832 0.0358278 0)
(-0.0487967 0.0567953 1.22021e-21)
(-0.0130793 0.0571034 -9.87791e-22)
(0.0756246 0.0491395 0)
(0.226873 0.0433333 -1.32917e-21)
(0.435195 0.0551049 0)
(0.684104 0.0686226 9.09248e-22)
(0.902842 0.0906713 -7.36997e-22)
(1.08459 0.10557 -1.22201e-21)
(1.22161 0.113408 -9.84353e-22)
(-0.0385172 0.0343352 -1.87838e-22)
(-0.0456226 0.0517997 -1.06603e-21)
(0.00405711 0.0506359 0)
(0.11807 0.0434409 0)
(0.305937 0.0441787 0)
(0.548123 0.0632453 -1.35808e-22)
(0.804648 0.085751 -9.1134e-22)
(1.00979 0.105444 -9.31378e-23)
(1.16224 0.122146 1.222e-21)
(1.25026 0.118124 1.10733e-21)
(-0.0401787 0.0326145 0)
(-0.0403812 0.0462475 -1.2377e-21)
(0.0267578 0.0439003 0)
(0.171705 0.039134 0)
(0.398666 0.0491189 0)
(0.665858 0.0760382 1.34913e-22)
(0.915079 0.10355 -1.11306e-21)
(1.09714 0.120386 8.63676e-23)
(1.21548 0.135293 8.71481e-22)
(1.2673 0.118712 9.51122e-22)
(-0.0414443 0.0306616 0)
(-0.0325436 0.0402003 1.2377e-21)
(0.0563073 0.0372627 -1.00879e-21)
(0.237853 0.0374686 0)
(0.502058 0.058653 -1.32682e-21)
(0.780684 0.0919955 0)
(1.01062 0.120827 8.90225e-22)
(1.16413 0.134427 -7.1015e-22)
(1.24999 0.14392 -1.16624e-21)
(1.292 0.1293 -9.46216e-22)
(-0.0421733 0.0284623 1.57565e-21)
(-0.0215125 0.0337094 0)
(0.0940896 0.0312828 8.8377e-22)
(0.316679 0.0397481 1.034e-22)
(0.610806 0.0723014 2.65356e-21)
(0.886246 0.109441 0)
(1.08934 0.136868 -8.68657e-22)
(1.21287 0.14653 -1.40866e-21)
(1.27461 0.152118 -9.76866e-22)
(1.30122 0.13538 -5.30836e-24)
(-0.042193 0.0259895 -1.67352e-21)
(-0.00661568 0.0268412 8.03355e-23)
(0.141422 0.0268249 1.257e-22)
(0.406556 0.0467934 -1.03969e-22)
(0.718719 0.0888523 -1.32674e-21)
(0.978703 0.12707 1.06868e-21)
(1.15155 0.151264 8.68652e-22)
(1.24746 0.157179 6.98512e-22)
(1.28885 0.15856 1.11522e-21)
(1.30444 0.141157 -9.83615e-22)
(-0.0413127 0.0232154 9.91957e-23)
(0.012924 0.0197047 1.2075e-21)
(0.199224 0.0250673 0)
(0.503967 0.0584946 -7.22892e-22)
(0.820434 0.106961 -8.41808e-23)
(1.05661 0.144052 -1.06867e-21)
(1.19909 0.164067 1.04022e-22)
(1.27057 0.166331 5.84895e-22)
(1.29657 0.164257 0)
(1.30444 0.146173 8.75462e-22)
(-0.039325 0.020112 -1.02386e-22)
(0.0379889 0.0125345 -1.28892e-21)
(0.267557 0.0272465 0)
(0.60423 0.0739029 9.69468e-23)
(0.912376 0.125574 -8.44053e-23)
(1.12023 0.159984 0)
(1.23415 0.1754 -8.31264e-22)
(1.28517 0.174346 -6.71965e-22)
(1.29951 0.169255 -1.28156e-22)
(1.30121 0.150707 -1.07804e-22)
(-0.0359925 0.0166512 0)
(0.0695028 0.00581763 -1.4861e-21)
(0.345274 0.03417 1.33203e-22)
(0.702678 0.0917794 -5.21387e-24)
(0.992792 0.144023 -6.61717e-22)
(1.17076 0.174725 -1.16932e-21)
(1.25906 0.185484 9.3763e-22)
(1.2934 0.181454 0)
(1.29908 0.17383 0)
(1.29688 0.155022 0)
(-0.0310212 0.0128131 2.29059e-24)
(0.108278 0.000398014 1.24615e-21)
(0.430015 0.0458445 1.34893e-22)
(0.795591 0.111075 9.3646e-22)
(1.06128 0.16194 5.76865e-22)
(1.20985 0.188291 -1.13889e-22)
(1.27589 0.194543 8.08947e-22)
(1.29702 0.187909 -5.45034e-22)
(1.29649 0.178131 -6.11454e-22)
(1.29136 0.159188 4.90625e-22)
(-0.0240339 0.00860898 7.74936e-22)
(0.154785 -0.00255354 8.71113e-23)
(0.518635 0.0615475 -1.07774e-21)
(0.880564 0.131072 -8.43991e-22)
(1.11829 0.179146 0)
(1.23923 0.20078 1.03019e-21)
(1.28646 0.202802 -1.58159e-23)
(1.29734 0.193908 7.02121e-22)
(1.29235 0.18228 4.27569e-22)
(1.28536 0.163296 -3.8876e-22)
(-0.0145653 0.00411797 -1.78384e-21)
(0.208926 -0.00178047 0)
(0.607829 0.0802568 2.17171e-21)
(0.956376 0.151329 7.41539e-22)
(1.16474 0.195578 8.5036e-23)
(1.26055 0.212335 0)
(1.29222 0.210464 -7.86466e-22)
(1.29529 0.19961 5.9473e-22)
(1.28723 0.186359 4.61215e-22)
(1.2789 0.16739 -3.63019e-22)
(-0.00208908 -0.000469974 9.02771e-22)
(0.269916 0.00367854 7.03424e-22)
(0.694662 0.101059 -1.22733e-21)
(1.02266 0.171608 1.10306e-22)
(1.20175 0.211244 0)
(1.27529 0.223112 0)
(1.29434 0.217702 0)
(1.29156 0.205134 -1.1723e-21)
(1.28137 0.190424 -4.61219e-22)
(1.27217 0.171488 3.63003e-22)
(0.0139135 -0.00481122 8.36688e-22)
(0.336361 0.0141916 -6.9769e-22)
(0.776845 0.123305 7.15947e-23)
(1.07959 0.191792 0)
(1.2305 0.226195 6.42461e-22)
(1.28472 0.233265 4.25703e-22)
(1.29371 0.224661 4.88562e-23)
(1.28661 0.21056 -5.05266e-23)
(1.27501 0.194508 1.10336e-22)
(1.26519 0.175601 -4.45562e-23)
(0.0338253 -0.00837994 -9.49546e-22)
(0.406484 0.0295053 8.82757e-23)
(0.852783 0.146562 5.67013e-22)
(1.12764 0.211817 -1.57838e-22)
(1.25215 0.2405 -4.81911e-22)
(1.2899 0.242935 -6.04849e-22)
(1.29101 0.231448 4.7771e-23)
(1.28076 0.215944 2.89159e-22)
(1.26823 0.198627 0)
(1.25799 0.179721 -3.95536e-23)
(0.0578152 -0.0105172 -6.15611e-23)
(0.478393 0.0489604 0)
(0.921508 0.17053 6.1641e-24)
(1.16745 0.231632 0)
(1.26775 0.254239 6.26099e-22)
(1.29166 0.252243 -4.6365e-22)
(1.2867 0.238142 0)
(1.27421 0.221314 9.69593e-24)
(1.26111 0.202786 0)
(1.25056 0.18384 0)
(0.0858236 -0.0105325 -1.23047e-22)
(0.550278 0.0717919 8.02781e-22)
(0.982566 0.194989 -6.46568e-22)
(1.19971 0.251179 1.06791e-22)
(1.27822 0.267491 -2.86361e-22)
(1.2907 0.261287 -4.9382e-23)
(1.28115 0.244792 0)
(1.26709 0.226685 1.99749e-22)
(1.25366 0.206978 5.12836e-23)
(1.2429 0.187939 1.46142e-22)
(0.117554 -0.00782555 -5.1865e-22)
(0.620523 0.0973235 -3.2394e-22)
(1.03588 0.219777 -1.06487e-22)
(1.22512 0.270399 4.26526e-22)
(1.28437 0.28033 3.50619e-23)
(1.28754 0.270145 4.51873e-22)
(1.27458 0.251424 0)
(1.25946 0.232055 -2.40146e-22)
(1.2459 0.211191 4.4478e-23)
(1.23499 0.191998 -3.21925e-22)
(0.15251 -0.00199539 -5.18649e-22)
(0.687743 0.125019 3.37042e-22)
(1.08164 0.244771 -4.10854e-24)
(1.24438 0.289235 -4.96326e-22)
(1.28688 0.292816 -2.61349e-22)
(1.28258 0.278867 -2.54528e-23)
(1.26717 0.258047 2.1252e-23)
(1.25138 0.237411 2.68051e-22)
(1.23782 0.215406 -2.32369e-24)
(1.22682 0.195994 1.04624e-22)
(0.190048 0.00710807 -2.67291e-22)
(0.75079 0.154447 0)
(1.1202 0.269864 -2.90757e-22)
(1.25815 0.307637 0)
(1.28629 0.304994 -3.28969e-22)
(1.27612 0.287487 2.83312e-23)
(1.25902 0.264652 0)
(1.24284 0.242733 0)
(1.22942 0.219602 0)
(1.21837 0.199899 0)
(0.22943 0.0194071 2.34447e-22)
(0.808753 0.185228 1.13189e-22)
(1.152 0.294949 2.90758e-22)
(1.26703 0.325571 0)
(1.28307 0.316896 0)
(1.26839 0.296014 -1.17466e-23)
(1.25018 0.27122 4.50753e-23)
(1.23387 0.247995 5.13049e-23)
(1.22069 0.223751 4.73029e-23)
(1.20966 0.203682 -7.83601e-24)
(0.269869 0.0346734 -4.24173e-24)
(0.860986 0.216996 -1.05913e-22)
(1.17749 0.31991 4.84877e-24)
(1.27157 0.343018 5.69793e-24)
(1.27756 0.328535 -8.69221e-24)
(1.25953 0.30444 3.29941e-24)
(1.24071 0.277719 -3.92875e-23)
(1.22446 0.253165 -4.79408e-23)
(1.21162 0.22782 -3.5811e-23)
(1.2007 0.20731 1.42285e-24)
(0.310569 0.0526102 0)
(0.90715 0.249407 -1.06813e-22)
(1.19708 0.344625 -3.27132e-24)
(1.27225 0.359964 6.70193e-24)
(1.27006 0.339909 1.19255e-37)
(1.24966 0.312742 -8.34062e-38)
(1.23062 0.284111 -3.51195e-23)
(1.2146 0.258209 -4.16164e-23)
(1.2022 0.231767 -3.26457e-23)
(1.19152 0.210749 0)
(0.350747 0.0729019 3.07363e-22)
(0.947147 0.282167 8.75705e-23)
(1.21114 0.368983 2.89618e-22)
(1.2695 0.376382 -1.30745e-23)
(1.2608 0.351001 0)
(1.23884 0.320882 1.00022e-23)
(1.21992 0.290354 2.29931e-23)
(1.20429 0.263089 4.47768e-23)
(1.19243 0.235545 2.5308e-23)
(1.1821 0.213975 6.16734e-24)
(0.389663 0.0952482 -2.73937e-22)
(0.980976 0.315017 0)
(1.22006 0.392859 -2.73813e-22)
(1.26365 0.392236 0)
(1.24996 0.361775 -2.73305e-23)
(1.22715 0.328813 2.2757e-23)
(1.20862 0.296398 0)
(1.19352 0.267763 0)
(1.18231 0.239111 0)
(1.17241 0.216969 0)
(0.426631 0.119371 5.43035e-22)
(1.00872 0.347716 -3.48031e-22)
(1.22421 0.416131 -6.66008e-23)
(1.25503 0.407482 -2.71459e-22)
(1.23767 0.372185 -2.50457e-22)
(1.2146 0.336477 1.72858e-23)
(1.19672 0.302193 -1.44328e-23)
(1.18227 0.272185 1.18742e-22)
(1.17187 0.242438 2.11932e-24)
(1.16237 0.219706 8.59747e-23)
(0.461035 0.145002 -5.43035e-22)
(1.03052 0.380038 -4.1988e-22)
(1.22394 0.438674 9.26682e-23)
(1.24389 0.422071 3.24321e-22)
(1.22405 0.38217 -1.48878e-23)
(1.20122 0.343812 2.65829e-22)
(1.18422 0.307685 0)
(1.17056 0.276298 -1.35346e-22)
(1.16116 0.245514 -2.06044e-23)
(1.15195 0.222203 -1.0751e-22)
(0.492346 0.171871 1.29201e-22)
(1.04656 0.411766 7.17769e-22)
(1.21956 0.460358 -4.16552e-22)
(1.23048 0.435943 -7.85254e-23)
(1.20918 0.391665 -1.85125e-22)
(1.18704 0.350751 3.85253e-23)
(1.17111 0.312817 -2.37789e-23)
(1.15841 0.280038 1.28761e-22)
(1.15018 0.248325 -2.14522e-23)
(1.14122 0.224494 5.73257e-23)
(0.520123 0.199687 6.54314e-23)
(1.05704 0.442687 0)
(1.21138 0.481052 2.66184e-23)
(1.21498 0.44903 0)
(1.19312 0.400593 3.72671e-22)
(1.17209 0.357223 -2.39526e-22)
(1.15744 0.317528 0)
(1.14589 0.283362 -1.68346e-23)
(1.13883 0.250809 0)
(1.13031 0.226394 0)
(0.544018 0.228139 -1.00447e-21)
(1.06218 0.472583 -7.73433e-23)
(1.19967 0.500621 5.07397e-22)
(1.19757 0.461255 5.72546e-23)
(1.17593 0.408869 -3.81968e-22)
(1.15641 0.363154 -1.31942e-22)
(1.14325 0.321757 -1.81718e-23)
(1.133 0.286245 6.91305e-23)
(1.12711 0.252925 -1.4632e-23)
(1.1192 0.227937 7.3711e-24)
(0.563776 0.256892 1.11793e-21)
(1.06222 0.501233 -6.70939e-22)
(1.18469 0.51893 -1.46464e-22)
(1.17837 0.472536 7.1519e-23)
(1.1577 0.416401 2.99395e-22)
(1.14009 0.368465 2.01086e-22)
(1.12854 0.325447 -1.51905e-23)
(1.11973 0.288653 -2.24412e-23)
(1.11504 0.254628 -1.88315e-23)
(1.10794 0.229061 6.52265e-24)
(0.57923 0.285594 9.25317e-22)
(1.05738 0.528415 6.50647e-22)
(1.16666 0.535829 -6.13904e-22)
(1.15757 0.48278 -6.46671e-23)
(1.13858 0.423118 0)
(1.1231 0.373071 0)
(1.11331 0.328542 0)
(1.10611 0.290545 -1.68257e-22)
(1.10266 0.255887 -3.21569e-23)
(1.09651 0.229749 7.45351e-24)
(0.590297 0.313885 -1.80033e-21)
(1.04793 0.553907 0)
(1.14579 0.551153 1.30731e-21)
(1.13537 0.491889 3.35351e-22)
(1.1186 0.428941 0)
(1.10542 0.3769 0)
(1.09762 0.330976 -7.93985e-23)
(1.09216 0.29188 6.58503e-23)
(1.09001 0.256664 3.21571e-23)
(1.08496 0.229963 -7.45321e-24)
(0.596973 0.341402 9.69581e-22)
(1.03417 0.577511 -7.76273e-23)
(1.12231 0.564731 -6.15222e-22)
(1.1119 0.499747 -3.66353e-22)
(1.09778 0.433787 2.57311e-23)
(1.08714 0.379885 1.08455e-22)
(1.08151 0.332692 5.08824e-23)
(1.0779 0.292618 -9.55911e-24)
(1.07713 0.256928 -2.62968e-23)
(1.0733 0.229677 3.72922e-23)
(0.59933 0.367778 -1.16892e-23)
(1.01642 0.599039 9.34571e-22)
(1.09652 0.576447 -8.14679e-23)
(1.08719 0.506189 1.86992e-22)
(1.07619 0.437581 8.22394e-23)
(1.0683 0.38196 -4.88877e-23)
(1.06502 0.333632 2.24167e-23)
(1.06338 0.292718 1.12887e-23)
(1.06404 0.256643 -3.83813e-23)
(1.06159 0.228862 -2.70192e-23)
(0.597507 0.392646 0)
(0.994963 0.618266 -8.22044e-22)
(1.06865 0.586207 -6.9847e-23)
(1.06134 0.511087 -6.67369e-23)
(1.0539 0.440218 -8.18727e-23)
(1.04897 0.38306 -4.18123e-23)
(1.04821 0.333747 -8.17902e-23)
(1.04863 0.292145 0)
(1.05078 0.255775 0)
(1.04984 0.227482 0)
(0.591705 0.415681 8.03455e-23)
(0.969895 0.634846 -6.54878e-22)
(1.03907 0.593967 0)
(1.03451 0.514362 -7.70139e-23)
(1.031 0.441609 6.52883e-24)
(1.02922 0.383125 0)
(1.03114 0.33299 7.64718e-23)
(1.0337 0.290865 1.2776e-22)
(1.03738 0.254287 -2.64992e-23)
(1.03811 0.225493 2.22577e-23)
(0.582147 0.436665 -5.81674e-23)
(0.941435 0.648479 7.02628e-22)
(1.00804 0.599581 0)
(1.00684 0.515978 -7.4327e-23)
(1.00758 0.441669 -3.06381e-25)
(1.00913 0.382099 1.80844e-22)
(1.01386 0.331318 2.07967e-23)
(1.01863 0.288846 -1.45168e-22)
(1.02387 0.252146 0)
(1.02643 0.222854 -2.53889e-22)
(0.569047 0.455379 -8.02929e-22)
(0.910065 0.659049 -3.87771e-23)
(0.975712 0.60284 -5.03754e-24)
(0.978479 0.515865 4.16693e-24)
(0.983742 0.440325 2.39815e-22)
(0.988772 0.379929 -1.80845e-22)
(0.996441 0.328697 -2.39292e-22)
(1.00345 0.286056 -2.08363e-22)
(1.0103 0.249324 -3.54448e-22)
(1.01493 0.21956 2.22232e-22)
(0.552525 0.471469 8.50172e-22)
(0.876349 0.666545 0)
(0.942323 0.603614 -5.1819e-23)
(0.949571 0.513957 5.8094e-24)
(0.959588 0.437516 -5.85145e-22)
(0.968241 0.376568 0)
(0.978944 0.325094 2.39294e-22)
(0.988205 0.282458 -4.05828e-23)
(0.996764 0.245793 4.02155e-22)
(1.0039 0.215648 -4.00635e-23)
(0.532794 0.484513 0)
(0.84067 0.670812 7.17416e-23)
(0.90807 0.601841 4.47961e-23)
(0.92027 0.510186 0)
(0.93523 0.433191 3.45331e-22)
(0.947624 0.371979 0)
(0.961426 0.320484 -3.49214e-22)
(0.972938 0.278013 2.48949e-22)
(0.983438 0.241514 4.73624e-22)
(0.993642 0.211186 3.74483e-22)
(0.510342 0.494344 -2.25766e-23)
(0.803372 0.671713 -5.32101e-23)
(0.873184 0.59746 0)
(0.890735 0.504491 0)
(0.910785 0.42731 0)
(0.927012 0.36613 5.60639e-23)
(0.943947 0.314847 2.55715e-22)
(0.957743 0.272693 3.908e-23)
(0.970515 0.236427 -4.73627e-22)
(0.984034 0.206122 -4.20568e-22)
(0.485584 0.500792 0)
(0.764799 0.669134 2.4034e-22)
(0.837903 0.590429 0)
(0.861126 0.496821 0)
(0.886375 0.419841 0)
(0.906497 0.359001 -6.49285e-23)
(0.92658 0.308168 5.65611e-22)
(0.942744 0.266505 -1.29899e-22)
(0.958074 0.230545 -4.47505e-22)
(0.974415 0.198959 -4.54125e-22)
(0.458931 0.503723 0)
(0.725311 0.662995 -2.40341e-22)
(0.802471 0.580719 4.7788e-22)
(0.831609 0.487141 0)
(0.862125 0.410764 7.70464e-22)
(0.886174 0.350574 0)
(0.909414 0.300433 -4.58296e-22)
(0.928052 0.25946 4.07719e-22)
(0.945867 0.224325 5.86422e-22)
(0.963513 0.193781 4.5276e-22)
(0.430796 0.503044 -4.29066e-22)
(0.685271 0.653249 0)
(0.767129 0.568322 -4.08306e-22)
(0.802353 0.475428 -5.75526e-23)
(0.838163 0.400068 -1.64516e-21)
(0.866143 0.340842 0)
(0.892542 0.291628 5.64366e-22)
(0.913733 0.251483 3.76593e-23)
(0.934013 0.21705 6.14616e-22)
(0.95304 0.187153 2.43687e-24)
(0.401585 0.498703 4.69748e-22)
(0.645045 0.639879 -3.33936e-23)
(0.732123 0.553244 -8.2007e-23)
(0.77353 0.461676 -6.78344e-23)
(0.814618 0.387756 8.74698e-22)
(0.846505 0.32981 -7.79711e-22)
(0.876046 0.28177 -5.64369e-22)
(0.899793 0.242671 -4.45384e-22)
(0.92235 0.2092 -6.94865e-22)
(0.942549 0.180303 6.44884e-22)
(0.371705 0.490685 -5.37293e-23)
(0.604994 0.622897 -8.22588e-22)
(0.697691 0.535514 0)
(0.74531 0.445896 5.87244e-22)
(0.791618 0.37384 6.48194e-23)
(0.827364 0.317485 7.79716e-22)
(0.860016 0.270861 -7.75377e-23)
(0.886301 0.232976 -4.52466e-22)
(0.911028 0.200568 0)
(0.932359 0.172759 -5.75234e-22)
(0.341552 0.479016 6.19578e-23)
(0.565475 0.602348 8.66696e-22)
(0.664069 0.515175 0)
(0.717864 0.428113 -1.65052e-23)
(0.769295 0.358343 7.16034e-23)
(0.808821 0.303892 0)
(0.844529 0.258927 7.13075e-22)
(0.873293 0.222449 5.17367e-22)
(0.900064 0.191287 9.8828e-23)
(0.922521 0.164678 -8.30128e-23)
(0.311514 0.463756 0)
(0.526836 0.578303 1.30347e-21)
(0.631487 0.49229 -1.15505e-22)
(0.691359 0.408369 6.72189e-23)
(0.747775 0.341303 6.32954e-22)
(0.79098 0.289058 1.09679e-21)
(0.829665 0.24599 -8.08903e-22)
(0.86083 0.211099 0)
(0.889529 0.181335 0)
(0.913116 0.15602 0)
(0.281963 0.445004 2.4169e-24)
(0.489413 0.550862 -1.08163e-21)
(0.600168 0.466941 1.29028e-22)
(0.66596 0.386721 -9.04049e-22)
(0.727184 0.322766 -5.48513e-22)
(0.773939 0.273025 1.83801e-22)
(0.815498 0.232086 -8.10459e-22)
(0.848967 0.198962 5.36294e-22)
(0.879476 0.170751 5.79766e-22)
(0.9042 0.146817 -4.52848e-22)
(0.253258 0.422897 -7.58417e-22)
(0.453526 0.520148 -8.45209e-23)
(0.570326 0.439226 1.1849e-21)
(0.641824 0.36324 9.27425e-22)
(0.707644 0.30279 0)
(0.757794 0.255839 -1.04373e-21)
(0.802103 0.217254 -4.09586e-23)
(0.837758 0.186072 -6.90211e-22)
(0.869958 0.159557 -4.06498e-22)
(0.895819 0.137091 3.60412e-22)
(0.22574 0.397617 1.8165e-21)
(0.419472 0.486301 0)
(0.542167 0.409258 -2.45421e-21)
(0.619105 0.338013 -8.11717e-22)
(0.689274 0.281445 -9.60496e-23)
(0.742637 0.237559 0)
(0.789549 0.201543 8.43312e-22)
(0.82726 0.172468 -6.7102e-22)
(0.861027 0.147783 -5.10524e-22)
(0.888011 0.126871 3.90692e-22)
(0.199721 0.369383 -9.55114e-22)
(0.387527 0.449477 -8.40083e-22)
(0.515889 0.377164 1.42798e-21)
(0.597946 0.311141 -1.31239e-22)
(0.672185 0.25881 0)
(0.728556 0.218249 0)
(0.777904 0.185005 0)
(0.817525 0.158194 1.36705e-21)
(0.852731 0.135464 5.10525e-22)
(0.880813 0.116192 -3.90692e-22)
(0.175473 0.338417 -9.88848e-22)
(0.357961 0.409889 8.37005e-22)
(0.491687 0.343089 8.80803e-23)
(0.578484 0.282738 0)
(0.656484 0.234977 -8.27475e-22)
(0.715633 0.197984 -5.52629e-22)
(0.767231 0.1677 -6.1452e-23)
(0.808602 0.143299 1.07291e-22)
(0.845116 0.122637 -1.35193e-22)
(0.874253 0.105091 5.40027e-23)
(0.153234 0.304923 1.12284e-21)
(0.331027 0.36779 -1.12727e-22)
(0.469733 0.307194 -9.22344e-22)
(0.560847 0.25293 2.05499e-22)
(0.642267 0.210043 6.16187e-22)
(0.703943 0.176844 7.86274e-22)
(0.757586 0.149692 -6.35511e-23)
(0.800539 0.127836 -3.49196e-22)
(0.838227 0.109345 0)
(0.86836 0.0936105 5.08034e-23)
(0.133229 0.269128 7.68616e-23)
(0.306951 0.323443 0)
(0.450182 0.269662 -2.84601e-23)
(0.545151 0.221858 0)
(0.629624 0.184118 -8.83328e-22)
(0.693556 0.154915 6.64869e-22)
(0.749025 0.131053 0)
(0.793379 0.111859 8.96611e-24)
(0.832102 0.0956345 0)
(0.863156 0.0817937 0)
(0.115669 0.231291 1.59291e-22)
(0.285934 0.277117 -1.08623e-21)
(0.433167 0.230684 8.6442e-22)
(0.5315 0.189668 -1.48697e-22)
(0.618635 0.157316 3.82532e-22)
(0.684533 0.132291 1.04425e-22)
(0.741593 0.111857 0)
(0.787162 0.0954306 -2.8731e-22)
(0.826778 0.0815553 -7.65517e-23)
(0.858662 0.0696869 -2.22135e-22)
(0.100739 0.191695 6.80592e-22)
(0.268149 0.229094 -1.61081e-21)
(0.418807 0.190466 1.48567e-22)
(0.519982 0.156519 -6.2095e-22)
(0.609368 0.129761 -6.95895e-23)
(0.676929 0.109069 -6.8036e-22)
(0.735333 0.0921823 0)
(0.781923 0.078615 3.92593e-22)
(0.822287 0.0671602 -7.03656e-23)
(0.854893 0.0573365 5.0666e-22)
(0.0886008 0.150637 -6.80593e-22)
(0.253743 0.179664 5.90712e-22)
(0.4072 0.14922 -1.02598e-22)
(0.510676 0.122574 7.28591e-22)
(0.601883 0.101582 4.00677e-22)
(0.670789 0.0853516 4.16208e-23)
(0.730281 0.0721125 -3.47511e-23)
(0.777693 0.0614798 -4.39711e-22)
(0.818659 0.0525053 3.86259e-24)
(0.851863 0.0447895 -1.68328e-22)
(0.079382 0.108429 3.55874e-22)
(0.242835 0.129129 0)
(0.398424 0.107167 4.21225e-22)
(0.503641 0.0880035 0)
(0.596227 0.0729123 5.6257e-23)
(0.666152 0.0612456 -4.68426e-23)
(0.726466 0.0517323 0)
(0.774497 0.0440942 0)
(0.815915 0.0376481 0)
(0.849581 0.0320936 0)
(0.0731813 0.0653909 -3.11751e-22)
(0.235512 0.0777972 -1.20115e-22)
(0.392539 0.0645338 -4.21225e-22)
(0.498925 0.0529831 0)
(0.592436 0.0438894 0)
(0.663044 0.0368599 2.12265e-23)
(0.72391 0.0311291 -8.47648e-23)
(0.772356 0.0265287 -1.00823e-22)
(0.814075 0.0226465 -9.42842e-23)
(0.848056 0.0192954 1.52291e-23)
(0.0700644 0.0218527 -5.64262e-24)
(0.231836 0.0259858 1.29563e-22)
(0.389587 0.0215502 -5.81459e-24)
(0.496559 0.0176913 2.00408e-23)
(0.590535 0.0146535 -7.90302e-24)
(0.661485 0.0123054 0)
(0.722628 0.0103913 6.70418e-23)
(0.771281 0.00885494 1.00824e-22)
(0.813151 0.00755844 7.16049e-23)
(0.847292 0.00643815 1.07247e-23)
(0.0700644 -0.0218527 -5.64262e-24)
(0.231836 -0.0259859 1.29563e-22)
(0.389587 -0.0215503 -5.81459e-24)
(0.496559 -0.0176913 2.00408e-23)
(0.590535 -0.0146535 -7.90302e-24)
(0.661485 -0.0123054 0)
(0.722628 -0.0103913 5.9049e-23)
(0.771281 -0.00885496 1.07513e-22)
(0.813151 -0.00755846 7.61529e-23)
(0.847292 -0.00643816 0)
(0.0731813 -0.0653909 -3.99996e-22)
(0.235512 -0.0777972 -1.55768e-22)
(0.392539 -0.0645338 -4.4653e-22)
(0.498925 -0.0529831 2.09315e-23)
(0.592436 -0.0438894 0)
(0.663044 -0.0368599 -2.12265e-23)
(0.72391 -0.0311291 -4.93187e-23)
(0.772356 -0.0265287 -1.00823e-22)
(0.814075 -0.0226466 -5.80215e-23)
(0.848056 -0.0192954 -1.52291e-23)
(0.079382 -0.108429 3.55874e-22)
(0.242835 -0.129129 0)
(0.398424 -0.107167 4.21225e-22)
(0.503641 -0.0880036 0)
(0.596227 -0.0729124 5.6257e-23)
(0.666152 -0.0612457 -4.68426e-23)
(0.726466 -0.0517324 0)
(0.774497 -0.0440942 0)
(0.815915 -0.0376481 0)
(0.849581 -0.0320936 0)
(0.0886008 -0.150637 -6.80593e-22)
(0.253743 -0.179664 4.6135e-22)
(0.4072 -0.14922 1.02598e-22)
(0.510676 -0.122574 4.9891e-22)
(0.601883 -0.101582 5.2362e-22)
(0.670789 -0.0853516 -4.16208e-23)
(0.730281 -0.0721125 3.47511e-23)
(0.777693 -0.0614798 -3.45475e-22)
(0.818659 -0.0525053 -3.86259e-24)
(0.851863 -0.0447896 -2.82517e-22)
(0.100739 -0.191695 6.80592e-22)
(0.268149 -0.229094 5.58747e-22)
(0.418807 -0.190466 -1.48567e-22)
(0.519982 -0.156519 -6.06548e-22)
(0.609368 -0.129761 5.10437e-23)
(0.676929 -0.109069 -6.8036e-22)
(0.735333 -0.0921823 0)
(0.781923 -0.078615 3.92593e-22)
(0.822287 -0.0671602 7.03656e-23)
(0.854893 -0.0573365 3.88455e-22)
(0.115669 -0.231291 -1.59291e-22)
(0.285934 -0.277117 1.08623e-21)
(0.433167 -0.230684 6.7642e-22)
(0.5315 -0.189668 1.48697e-22)
(0.618635 -0.157316 4.7838e-22)
(0.684533 -0.132291 -1.53736e-22)
(0.741593 -0.111857 6.70356e-23)
(0.787162 -0.0954306 -4.69832e-22)
(0.826778 -0.0815554 7.65517e-23)
(0.858662 -0.0696869 -2.22135e-22)
(0.133229 -0.269128 -7.68616e-23)
(0.306951 -0.323443 0)
(0.450182 -0.269662 -2.84601e-23)
(0.545151 -0.221858 0)
(0.629624 -0.184118 -8.83328e-22)
(0.693556 -0.154915 6.64869e-22)
(0.749025 -0.131053 0)
(0.793379 -0.111859 8.96611e-24)
(0.832102 -0.0956346 0)
(0.863156 -0.0817937 0)
(0.153234 -0.304923 1.12284e-21)
(0.331027 -0.36779 1.12727e-22)
(0.469733 -0.307194 -6.49079e-22)
(0.560847 -0.25293 -1.33112e-22)
(0.642267 -0.210043 1.03877e-21)
(0.703943 -0.176844 4.66188e-22)
(0.757586 -0.149693 6.35511e-23)
(0.800539 -0.127836 -4.36253e-22)
(0.838227 -0.109345 7.30251e-23)
(0.86836 -0.0936106 -5.08034e-23)
(0.175473 -0.338417 -1.25682e-21)
(0.357961 -0.409889 8.43165e-22)
(0.491687 -0.343089 7.9156e-23)
(0.578484 -0.282738 -1.38334e-22)
(0.656484 -0.234977 -8.27475e-22)
(0.715633 -0.197984 -6.99829e-22)
(0.767231 -0.1677 6.1452e-23)
(0.808602 -0.143299 -6.17547e-23)
(0.845116 -0.122637 1.35193e-22)
(0.874253 -0.105091 -5.40027e-23)
(0.199721 -0.369383 -9.55114e-22)
(0.387527 -0.449477 -8.40083e-22)
(0.515889 -0.377164 1.11066e-21)
(0.597946 -0.311141 1.31239e-22)
(0.672185 -0.258811 0)
(0.728556 -0.218249 0)
(0.777904 -0.185005 0)
(0.817525 -0.158194 1.36705e-21)
(0.852731 -0.135464 5.10525e-22)
(0.880813 -0.116192 -3.90692e-22)
(0.22574 -0.397617 1.8165e-21)
(0.419472 -0.486301 0)
(0.542167 -0.409258 -2.45421e-21)
(0.619105 -0.338013 -9.27428e-22)
(0.689274 -0.281445 0)
(0.742637 -0.237559 0)
(0.789549 -0.201543 8.43312e-22)
(0.82726 -0.172468 -6.7102e-22)
(0.861027 -0.147783 -5.10524e-22)
(0.888011 -0.126871 3.90692e-22)
(0.253258 -0.422897 -9.64348e-22)
(0.453526 -0.520148 8.45209e-23)
(0.570326 -0.439226 1.1849e-21)
(0.641824 -0.36324 1.03636e-21)
(0.707644 -0.30279 -9.04209e-23)
(0.757794 -0.255839 -1.04373e-21)
(0.802103 -0.217254 -4.09586e-23)
(0.837758 -0.186072 -5.39469e-22)
(0.869958 -0.159557 -5.32943e-22)
(0.895819 -0.137091 3.60412e-22)
(0.281963 -0.445004 -2.4169e-24)
(0.489413 -0.550862 -1.24494e-21)
(0.600168 -0.466941 -1.29028e-22)
(0.66596 -0.386721 -7.00588e-22)
(0.727184 -0.322766 -5.59025e-22)
(0.773939 -0.273025 -1.92285e-22)
(0.815498 -0.232086 -7.94234e-22)
(0.848967 -0.198962 6.93381e-22)
(0.879476 -0.170751 3.59671e-22)
(0.9042 -0.146817 -2.67977e-22)
(0.311514 -0.463756 0)
(0.526836 -0.578303 1.02309e-21)
(0.631487 -0.49229 1.15505e-22)
(0.691359 -0.408369 6.72189e-23)
(0.747775 -0.341303 6.32954e-22)
(0.79098 -0.289058 8.67255e-22)
(0.829665 -0.24599 -7.05906e-22)
(0.86083 -0.211099 7.42011e-23)
(0.889529 -0.181335 0)
(0.913116 -0.15602 0)
(0.341553 -0.479016 -6.19578e-23)
(0.565476 -0.602348 8.66696e-22)
(0.664069 -0.515175 0)
(0.717864 -0.428113 1.56017e-22)
(0.769295 -0.358343 -7.16034e-23)
(0.808821 -0.303892 0)
(0.844529 -0.258927 7.13075e-22)
(0.873293 -0.222449 5.17367e-22)
(0.900064 -0.191287 -9.8828e-23)
(0.922521 -0.164678 8.30128e-23)
(0.371705 -0.490686 5.37293e-23)