/*--------------------------------*- C++ -*----------------------------------*\
  =========                 |
  \\      /  F ield         | OpenFOAM: The Open Source CFD Toolbox
   \\    /   O peration     | Website:  https://openfoam.org
    \\  /    A nd           | Version:  9
     \\/     M anipulation  |
\*---------------------------------------------------------------------------*/
FoamFile
{
    format      ascii;
    class       volScalarField;
    location    "7";
    object      p;
}
// * * * * * * * * * * * * * * * * * * * * * * * * * * * * * * * * * * * * * //

dimensions      [0 2 -2 0 0 0 0];

internalField   nonuniform List<scalar> 
8500
(
-0.341016
-0.349302
-0.345225
-0.339359
-0.32976
-0.317642
-0.3041
-0.287429
-0.273892
-0.253093
-0.341902
-0.349896
-0.345745
-0.339783
-0.330133
-0.317965
-0.304407
-0.287588
-0.274227
-0.252783
-0.343665
-0.351078
-0.34678
-0.340624
-0.330871
-0.318605
-0.305031
-0.287954
-0.274834
-0.252166
-0.346285
-0.352835
-0.348315
-0.341869
-0.331961
-0.319549
-0.305967
-0.288512
-0.275699
-0.251254
-0.349737
-0.355149
-0.350331
-0.343499
-0.333381
-0.32077
-0.307039
-0.289328
-0.276839
-0.250069
-0.353984
-0.357996
-0.352806
-0.34549
-0.335107
-0.322262
-0.308355
-0.290259
-0.278225
-0.248637
-0.358988
-0.361348
-0.355712
-0.347815
-0.337108
-0.323987
-0.309894
-0.291291
-0.279818
-0.246997
-0.364701
-0.365178
-0.359018
-0.350444
-0.339354
-0.325905
-0.311608
-0.292417
-0.281572
-0.245193
-0.371074
-0.369453
-0.362694
-0.353349
-0.341819
-0.327988
-0.313459
-0.293622
-0.283433
-0.243283
-0.378068
-0.374129
-0.366711
-0.356501
-0.344471
-0.330209
-0.315412
-0.294893
-0.28534
-0.241331
-0.385658
-0.379161
-0.371033
-0.359872
-0.347284
-0.332542
-0.317434
-0.29622
-0.287225
-0.239412
-0.393706
-0.384584
-0.375636
-0.363441
-0.350235
-0.334966
-0.319494
-0.297597
-0.289014
-0.237609
-0.402227
-0.390319
-0.380494
-0.367186
-0.353307
-0.337466
-0.321565
-0.299023
-0.290627
-0.236001
-0.411179
-0.396338
-0.385586
-0.371094
-0.356484
-0.340029
-0.323622
-0.3005
-0.291979
-0.23467
-0.420511
-0.402621
-0.390894
-0.375152
-0.359758
-0.342646
-0.325645
-0.302031
-0.292988
-0.233707
-0.430184
-0.409148
-0.396403
-0.379353
-0.363122
-0.34531
-0.327615
-0.303614
-0.293572
-0.233207
-0.440159
-0.415895
-0.402099
-0.383689
-0.366573
-0.348015
-0.329519
-0.305247
-0.293626
-0.233127
-0.4504
-0.422842
-0.40797
-0.388157
-0.370105
-0.35075
-0.33135
-0.306939
-0.292996
-0.23316
-0.460867
-0.429967
-0.414003
-0.39275
-0.373711
-0.3535
-0.333108
-0.308699
-0.291611
-0.233995
-0.471522
-0.437248
-0.420184
-0.397458
-0.37738
-0.356241
-0.334786
-0.310449
-0.289858
-0.241084
-0.482321
-0.44466
-0.426494
-0.402266
-0.381092
-0.358935
-0.33634
-0.311916
-0.288465
-0.260616
-0.493215
-0.452172
-0.432909
-0.407151
-0.384815
-0.361533
-0.337704
-0.312889
-0.286887
-0.265883
-0.504147
-0.459748
-0.439399
-0.412083
-0.388508
-0.363978
-0.338812
-0.313248
-0.285048
-0.266347
-0.515054
-0.467347
-0.445924
-0.417018
-0.39212
-0.366206
-0.33959
-0.312966
-0.282961
-0.264796
-0.525861
-0.474917
-0.452432
-0.421904
-0.395582
-0.36814
-0.339958
-0.312022
-0.280492
-0.261679
-0.536483
-0.482397
-0.458864
-0.426671
-0.398817
-0.369698
-0.339835
-0.310392
-0.277534
-0.257362
-0.546823
-0.489717
-0.465143
-0.43124
-0.401733
-0.370789
-0.339136
-0.308052
-0.274011
-0.252156
-0.556774
-0.496794
-0.471184
-0.435517
-0.404228
-0.371316
-0.337778
-0.304974
-0.26987
-0.246255
-0.566214
-0.503536
-0.476887
-0.439395
-0.406192
-0.371181
-0.335684
-0.301132
-0.265071
-0.239769
-0.575011
-0.509838
-0.482138
-0.442756
-0.407506
-0.370284
-0.332781
-0.296502
-0.259586
-0.232752
-0.583023
-0.515584
-0.486813
-0.445473
-0.408048
-0.368526
-0.329005
-0.29106
-0.253398
-0.225227
-0.590097
-0.520649
-0.490778
-0.447412
-0.407696
-0.365815
-0.324296
-0.284786
-0.246495
-0.217197
-0.596072
-0.524895
-0.493888
-0.448431
-0.406327
-0.362062
-0.318606
-0.277662
-0.23887
-0.208654
-0.60078
-0.52818
-0.495992
-0.448388
-0.403822
-0.357188
-0.311893
-0.269676
-0.23052
-0.199589
-0.604049
-0.530352
-0.496934
-0.447141
-0.400069
-0.351124
-0.304123
-0.260817
-0.221447
-0.189991
-0.605705
-0.531257
-0.496556
-0.444551
-0.394966
-0.343808
-0.295272
-0.25108
-0.211654
-0.17985
-0.605575
-0.530738
-0.494701
-0.440485
-0.38842
-0.335194
-0.285324
-0.240465
-0.201144
-0.169163
-0.603486
-0.528636
-0.491217
-0.43482
-0.380353
-0.325244
-0.274269
-0.228973
-0.189925
-0.157928
-0.599275
-0.524796
-0.485957
-0.427442
-0.370698
-0.313932
-0.262106
-0.216612
-0.178007
-0.146146
-0.592783
-0.51907
-0.478784
-0.418255
-0.359403
-0.301243
-0.24884
-0.203391
-0.165402
-0.133826
-0.583866
-0.511317
-0.469576
-0.407177
-0.346434
-0.287175
-0.234482
-0.189326
-0.152125
-0.120979
-0.572392
-0.501406
-0.458225
-0.394141
-0.331769
-0.271734
-0.219052
-0.174433
-0.138191
-0.107621
-0.558247
-0.489223
-0.444641
-0.379103
-0.315404
-0.25494
-0.202575
-0.158736
-0.12362
-0.0937609
-0.541334
-0.474667
-0.428754
-0.362037
-0.29735
-0.236819
-0.185082
-0.142263
-0.108437
-0.0793825
-0.521581
-0.457659
-0.410517
-0.342935
-0.277631
-0.217411
-0.166611
-0.125043
-0.0926977
-0.0644614
-0.498938
-0.438141
-0.389906
-0.321812
-0.256288
-0.196762
-0.147196
-0.107081
-0.0764776
-0.0491016
-0.473378
-0.416077
-0.366921
-0.298701
-0.233375
-0.174927
-0.126877
-0.0884033
-0.0597105
-0.0334828
-0.444904
-0.391457
-0.341587
-0.273656
-0.208959
-0.151962
-0.10572
-0.0692657
-0.0423075
-0.0175419
-0.413546
-0.364297
-0.313953
-0.24675
-0.18312
-0.127938
-0.0838374
-0.0495226
-0.0244643
-0.00128484
-0.379362
-0.334636
-0.28409
-0.218079
-0.155951
-0.10298
-0.0612205
-0.029255
-0.0062316
0.0152499
-0.342437
-0.302544
-0.25211
-0.187746
-0.127554
-0.0771394
-0.0379747
-0.00852764
0.0123476
0.0320147
-0.302888
-0.268126
-0.218179
-0.155825
-0.0980389
-0.0505135
-0.0141794
0.012596
0.0312238
0.048956
-0.26086
-0.231532
-0.182442
-0.122423
-0.0675311
-0.0232073
0.0100832
0.0340473
0.0503438
0.0660136
-0.216531
-0.192924
-0.144674
-0.0880041
-0.0361684
0.00467197
0.0347252
0.0557538
0.0696513
0.0831195
-0.170062
-0.152439
-0.105463
-0.0524585
-0.00408744
0.0330102
0.0596539
0.0776392
0.089086
0.100197
-0.121622
-0.110281
-0.065029
-0.0159758
0.0285633
0.0616894
0.0847726
0.0996246
0.108589
0.117166
-0.0716674
-0.0665733
-0.0235018
0.0212391
0.0616309
0.0905874
0.109981
0.121632
0.128112
0.133923
-0.0203517
-0.0216391
0.0189001
0.0589894
0.0949591
0.119578
0.135175
0.143591
0.147619
0.15027
0.0320587
0.0242546
0.0619369
0.0970749
0.128388
0.148533
0.160251
0.165432
0.167012
0.165867
0.08525
0.0708419
0.105363
0.13529
0.161754
0.17732
0.185107
0.187067
0.186018
0.180431
0.1389
0.117841
0.148927
0.173427
0.194893
0.20581
0.209641
0.208376
0.204296
0.194357
0.192679
0.164957
0.192372
0.211275
0.22764
0.23387
0.233747
0.229248
0.222393
0.209877
0.24625
0.211891
0.235436
0.248626
0.259829
0.261371
0.257318
0.249578
0.239973
0.225522
0.299268
0.258339
0.27786
0.28527
0.291297
0.288183
0.280249
0.269295
0.256949
0.240738
0.351389
0.303994
0.319383
0.321002
0.321883
0.314179
0.302439
0.288326
0.273296
0.255378
0.402269
0.348555
0.35975
0.355621
0.351429
0.339237
0.323788
0.306595
0.288969
0.26939
0.451565
0.39172
0.39871
0.388931
0.379783
0.363235
0.344201
0.32403
0.303913
0.282719
0.498946
0.433197
0.436022
0.42074
0.406797
0.386058
0.363585
0.340559
0.318071
0.295311
0.544085
0.472704
0.471452
0.450869
0.432328
0.407595
0.381853
0.356113
0.331387
0.307117
0.586674
0.509967
0.504776
0.479142
0.456242
0.42774
0.398919
0.370626
0.343809
0.318096
0.626414
0.54473
0.535786
0.505399
0.478414
0.446393
0.414706
0.384037
0.355285
0.32821
0.66303
0.576751
0.564286
0.529486
0.498723
0.463462
0.429138
0.396287
0.365766
0.337422
0.696263
0.605807
0.590094
0.551264
0.517062
0.47886
0.442147
0.40732
0.375206
0.3457
0.72588
0.631694
0.613048
0.570607
0.533333
0.49251
0.453672
0.417088
0.383563
0.353013
0.751669
0.654232
0.633002
0.587402
0.547447
0.504343
0.463657
0.425547
0.390799
0.359333
0.773448
0.673261
0.649828
0.601551
0.559327
0.514298
0.472054
0.432656
0.396882
0.364638
0.791061
0.688648
0.663419
0.612971
0.568911
0.522324
0.478821
0.438385
0.401783
0.368906
0.804382
0.700285
0.67369
0.621595
0.576144
0.528381
0.483925
0.442704
0.405479
0.372122
0.813316
0.708088
0.680573
0.627372
0.580989
0.532436
0.487342
0.445596
0.407953
0.374273
0.8178
0.712004
0.684026
0.630269
0.583418
0.534468
0.489055
0.447045
0.409192
0.37535
0.8178
0.712004
0.684026
0.630269
0.583418
0.534468
0.489055
0.447045
0.409192
0.37535
0.813316
0.708088
0.680573
0.627372
0.580989
0.532436
0.487342
0.445596
0.407953
0.374273
0.804382
0.700285
0.67369
0.621594
0.576144
0.528381
0.483925
0.442704
0.405479
0.372122
0.791061
0.688648
0.663419
0.612971
0.568911
0.522324
0.478821
0.438385
0.401783
0.368906
0.773448
0.673261
0.649828
0.601551
0.559327
0.514298
0.472054
0.432656
0.396882
0.364638
0.751669
0.654232
0.633002
0.587402
0.547447
0.504343
0.463657
0.425547
0.390799
0.359333
0.72588
0.631694
0.613048
0.570607
0.533333
0.49251
0.453672
0.417088
0.383563
0.353013
0.696263
0.605807
0.590094
0.551264
0.517062
0.47886
0.442147
0.40732
0.375206
0.3457
0.66303
0.576751
0.564286
0.529486
0.498723
0.463462
0.429138
0.396287
0.365766
0.337422
0.626414
0.54473
0.535786
0.505399
0.478414
0.446393
0.414706
0.384037
0.355285
0.32821
0.586673
0.509967
0.504776
0.479142
0.456242
0.42774
0.398919
0.370626
0.343809
0.318096
0.544085
0.472704
0.471452
0.450869
0.432328
0.407595
0.381853
0.356113
0.331387
0.307117
0.498946
0.433197
0.436022
0.42074
0.406797
0.386058
0.363585
0.340559
0.318071
0.295311
0.451565
0.39172
0.39871
0.388931
0.379783
0.363235
0.344201
0.32403
0.303913
0.282719
0.402269
0.348555
0.35975
0.355621
0.351429
0.339237
0.323788
0.306595
0.288969
0.26939
0.351389
0.303994
0.319383
0.321002
0.321883
0.314179
0.302439
0.288325
0.273296
0.255378
0.299268
0.258338
0.27786
0.28527
0.291297
0.288183
0.280249
0.269295
0.256949
0.240738
0.246249
0.211891
0.235436
0.248626
0.259829
0.261371
0.257317
0.249578
0.239973
0.225522
0.192679
0.164957
0.192372
0.211275
0.22764
0.23387
0.233747
0.229248
0.222393
0.209877
0.1389
0.117841
0.148927
0.173427
0.194893
0.20581
0.209641
0.208376
0.204296
0.194356
0.0852499
0.0708418
0.105363
0.13529
0.161754
0.17732
0.185107
0.187067
0.186018
0.180431
0.0320586
0.0242545
0.0619369
0.0970748
0.128388
0.148533
0.160251
0.165432
0.167012
0.165867
-0.0203518
-0.0216392
0.0189001
0.0589893
0.094959
0.119578
0.135175
0.143591
0.147619
0.15027
-0.0716675
-0.0665734
-0.0235019
0.021239
0.0616308
0.0905873
0.109981
0.121632
0.128112
0.133922
-0.121622
-0.110281
-0.0650291
-0.0159758
0.0285633
0.0616893
0.0847725
0.0996245
0.108589
0.117166
-0.170062
-0.152439
-0.105463
-0.0524586
-0.00408753
0.0330101
0.0596538
0.0776391
0.0890859
0.100197
-0.216531
-0.192924
-0.144674
-0.0880041
-0.0361685
0.00467188
0.0347251
0.0557537
0.0696512
0.0831194
-0.260861
-0.231532
-0.182442
-0.122423
-0.0675311
-0.0232074
0.0100831
0.0340472
0.0503437
0.0660135
-0.302888
-0.268126
-0.218179
-0.155825
-0.098039
-0.0505136
-0.0141795
0.0125959
0.0312236
0.0489558
-0.342438
-0.302544
-0.25211
-0.187746
-0.127554
-0.0771395
-0.0379748
-0.00852775
0.0123475
0.0320146
-0.379362
-0.334637
-0.28409
-0.21808
-0.155952
-0.10298
-0.0612206
-0.0292552
-0.00623172
0.0152498
-0.413547
-0.364297
-0.313953
-0.24675
-0.18312
-0.127938
-0.0838375
-0.0495227
-0.0244644
-0.00128497
-0.444904
-0.391458
-0.341588
-0.273656
-0.208959
-0.151962
-0.10572
-0.0692658
-0.0423076
-0.017542
-0.473378
-0.416077
-0.366921
-0.298701
-0.233375
-0.174927
-0.126877
-0.0884034
-0.0597106
-0.033483
-0.498938
-0.438141
-0.389906
-0.321812
-0.256288
-0.196762
-0.147196
-0.107081
-0.0764777
-0.0491017
-0.521582
-0.457659
-0.410517
-0.342935
-0.277631
-0.217411
-0.166611
-0.125043
-0.0926979
-0.0644615
-0.541335
-0.474667
-0.428754
-0.362037
-0.29735
-0.236819
-0.185082
-0.142263
-0.108437
-0.0793826
-0.558247
-0.489223
-0.444641
-0.379104
-0.315405
-0.25494
-0.202575
-0.158736
-0.12362
-0.093761
-0.572392
-0.501406
-0.458225
-0.394141
-0.331769
-0.271735
-0.219052
-0.174433
-0.138192
-0.107621
-0.583866
-0.511317
-0.469577
-0.407177
-0.346434
-0.287175
-0.234483
-0.189326
-0.152125
-0.12098
-0.592783
-0.51907
-0.478785
-0.418256
-0.359403
-0.301243
-0.24884
-0.203392
-0.165402
-0.133826
-0.599275
-0.524796
-0.485957
-0.427442
-0.370698
-0.313932
-0.262106
-0.216612
-0.178007
-0.146146
-0.603486
-0.528636
-0.491217
-0.43482
-0.380353
-0.325244
-0.274269
-0.228973
-0.189925
-0.157928
-0.605575
-0.530738
-0.494701
-0.440485
-0.388421
-0.335194
-0.285324
-0.240465
-0.201144
-0.169163
-0.605705
-0.531258
-0.496556
-0.444551
-0.394966
-0.343809
-0.295272
-0.25108
-0.211654
-0.179851
-0.604049
-0.530352
-0.496934
-0.447142
-0.400069
-0.351124
-0.304123
-0.260817
-0.221448
-0.189991
-0.60078
-0.52818
-0.495992
-0.448388
-0.403822
-0.357188
-0.311893
-0.269676
-0.230521
-0.199589
-0.596072
-0.524895
-0.493888
-0.448431
-0.406327
-0.362062
-0.318606
-0.277662
-0.23887
-0.208654
-0.590097
-0.520649
-0.490778
-0.447412
-0.407696
-0.365815
-0.324296
-0.284786
-0.246495
-0.217197
-0.583023
-0.515584
-0.486814
-0.445473
-0.408049
-0.368526
-0.329005
-0.291061
-0.253398
-0.225227
-0.575012
-0.509838
-0.482138
-0.442756
-0.407506
-0.370284
-0.332781
-0.296502
-0.259587
-0.232752
-0.566214
-0.503536
-0.476887
-0.439395
-0.406192
-0.371181
-0.335684
-0.301132
-0.265071
-0.239769
-0.556774
-0.496794
-0.471184
-0.435517
-0.404228
-0.371316
-0.337778
-0.304974
-0.26987
-0.246256
-0.546824
-0.489717
-0.465143
-0.43124
-0.401733
-0.370789
-0.339136
-0.308052
-0.274011
-0.252157
-0.536483
-0.482397
-0.458864
-0.426671
-0.398817
-0.369698
-0.339835
-0.310393
-0.277534
-0.257363
-0.525861
-0.474917
-0.452432
-0.421904
-0.395582
-0.36814
-0.339959
-0.312022
-0.280493
-0.261679
-0.515054
-0.467347
-0.445924
-0.417019
-0.39212
-0.366206
-0.33959
-0.312966
-0.282961
-0.264797
-0.504147
-0.459748
-0.439399
-0.412083
-0.388508
-0.363978
-0.338812
-0.313248
-0.285048
-0.266347
-0.493215
-0.452172
-0.432909
-0.407151
-0.384815
-0.361533
-0.337705
-0.312889
-0.286887
-0.265883
-0.482321
-0.44466
-0.426494
-0.402266
-0.381092
-0.358935
-0.33634
-0.311916
-0.288465
-0.260616
-0.471522
-0.437248
-0.420184
-0.397458
-0.377381
-0.356241
-0.334786
-0.310449
-0.289859
-0.241084
-0.460867
-0.429967
-0.414003
-0.39275
-0.373711
-0.3535
-0.333109
-0.308699
-0.291611
-0.233995
-0.4504
-0.422842
-0.40797
-0.388157
-0.370105
-0.35075
-0.33135
-0.306939
-0.292996
-0.23316
-0.440159
-0.415895
-0.402099
-0.38369
-0.366573
-0.348015
-0.329519
-0.305248
-0.293626
-0.233127
-0.430184
-0.409148
-0.396403
-0.379353
-0.363122
-0.34531
-0.327615
-0.303614
-0.293572
-0.233207
-0.420511
-0.402622
-0.390895
-0.375152
-0.359758
-0.342646
-0.325645
-0.302031
-0.292988
-0.233707
-0.411179
-0.396338
-0.385586
-0.371094
-0.356484
-0.340029
-0.323622
-0.3005
-0.291979
-0.23467
-0.402227
-0.390319
-0.380494
-0.367186
-0.353307
-0.337466
-0.321565
-0.299023
-0.290627
-0.236001
-0.393706
-0.384584
-0.375636
-0.363441
-0.350235
-0.334966
-0.319494
-0.297597
-0.289014
-0.237609
-0.385658
-0.379161
-0.371033
-0.359872
-0.347284
-0.332542
-0.317434
-0.29622
-0.287225
-0.239413
-0.378068
-0.374129
-0.366711
-0.356501
-0.344471
-0.330209
-0.315412
-0.294893
-0.28534
-0.241331
-0.371074
-0.369453
-0.362694
-0.353349
-0.341819
-0.327989
-0.313459
-0.293622
-0.283433
-0.243283
-0.364701
-0.365178
-0.359018
-0.350444
-0.339354
-0.325906
-0.311608
-0.292417
-0.281572
-0.245193
-0.358988
-0.361348
-0.355712
-0.347815
-0.337108
-0.323987
-0.309894
-0.291291
-0.279818
-0.246997
-0.353984
-0.357996
-0.352806
-0.34549
-0.335107
-0.322262
-0.308355
-0.290259
-0.278225
-0.248637
-0.349737
-0.355149
-0.350331
-0.343499
-0.333381
-0.32077
-0.307039
-0.289328
-0.276839
-0.250069
-0.346285
-0.352835
-0.348315
-0.341869
-0.331961
-0.319549
-0.305967
-0.288512
-0.275699
-0.251254
-0.343665
-0.351078
-0.34678
-0.340624
-0.330871
-0.318605
-0.305031
-0.287954
-0.274834
-0.252166
-0.341902
-0.349896
-0.345745
-0.339783
-0.330133
-0.317965
-0.304407
-0.287588
-0.274227
-0.252783
-0.341016
-0.349302
-0.345225
-0.339359
-0.32976
-0.317642
-0.3041
-0.287429
-0.273892
-0.253093
-0.245675
-0.238701
-0.231221
-0.223536
-0.215497
-0.207105
-0.198381
-0.189327
-0.179946
-0.170247
-0.160239
-0.149937
-0.139362
-0.128541
-0.117509
-0.106314
-0.0950149
-0.0836813
-0.0724178
-0.0612979
-0.0505444
-0.0400745
-0.0305756
-0.0210522
-0.0141216
-0.00498275
-0.00349411
0.00856639
-0.00273201
0.0229028
-0.246204
-0.239105
-0.231537
-0.223828
-0.215771
-0.207364
-0.19863
-0.189569
-0.180183
-0.17048
-0.160469
-0.150165
-0.139588
-0.128766
-0.117733
-0.106536
-0.095234
-0.0838967
-0.0726282
-0.0615019
-0.0507404
-0.0402609
-0.0307503
-0.0212156
-0.0142674
-0.00512229
-0.00359903
0.00844122
-0.00276667
0.0227527
-0.247253
-0.239907
-0.232165
-0.224408
-0.216314
-0.207876
-0.199121
-0.190045
-0.180649
-0.170939
-0.160922
-0.150615
-0.140035
-0.129209
-0.118174
-0.106973
-0.095666
-0.0843216
-0.0730436
-0.0619046
-0.0511275
-0.0406291
-0.0310957
-0.0215389
-0.0145558
-0.00539854
-0.00380676
0.00819325
-0.00283512
0.0224548
-0.248799
-0.241095
-0.233096
-0.225267
-0.217115
-0.208629
-0.199843
-0.190746
-0.181333
-0.171611
-0.161586
-0.151272
-0.140688
-0.129859
-0.118819
-0.107613
-0.096299
-0.0849445
-0.073653
-0.0624958
-0.0516962
-0.0411706
-0.0316039
-0.0220151
-0.0149808
-0.00580594
-0.00411315
0.00782707
-0.0029357
0.0220143
-0.250804
-0.242657
-0.234315
-0.226388
-0.21816
-0.209609
-0.200779
-0.191651
-0.182217
-0.172478
-0.162442
-0.15212
-0.141529
-0.130695
-0.119651
-0.108439
-0.097116
-0.0857492
-0.0744408
-0.0632609
-0.0524331
-0.0418728
-0.0322638
-0.022634
-0.0155337
-0.00633652
-0.00451224
0.00734935
-0.00306602
0.0214383
-0.253212
-0.244568
-0.235802
-0.227753
-0.219428
-0.210795
-0.201908
-0.19274
-0.183276
-0.173517
-0.163466
-0.153133
-0.142536
-0.131696
-0.120647
-0.109428
-0.0980959
-0.0867153
-0.0753878
-0.0641818
-0.0533211
-0.0427203
-0.0330613
-0.023383
-0.0162036
-0.00698024
-0.00499651
0.00676847
-0.00322309
0.0207363
-0.255951
-0.246794
-0.23753
-0.229333
-0.220895
-0.21216
-0.203203
-0.193985
-0.184484
-0.174699
-0.16463
-0.154286
-0.14368
-0.132835
-0.121781
-0.110555
-0.0992143
-0.0878194
-0.0764719
-0.0652376
-0.0543409
-0.0436953
-0.0339802
-0.0242475
-0.0169777
-0.0077255
-0.00555721
0.00609424
-0.00340352
0.0199193
-0.258952
-0.249289
-0.239463
-0.231098
-0.22253
-0.213674
-0.204633
-0.195354
-0.185811
-0.175995
-0.165905
-0.155547
-0.144934
-0.134084
-0.123025
-0.111795
-0.100445
-0.0890366
-0.077669
-0.0664057
-0.0554714
-0.0447784
-0.0350028
-0.0252118
-0.0178422
-0.00855955
-0.00618473
0.00533744
-0.00360361
0.019
-0.262145
-0.251994
-0.241557
-0.233008
-0.224295
-0.215303
-0.206164
-0.196816
-0.187222
-0.177371
-0.167259
-0.156887
-0.146266
-0.135412
-0.124351
-0.113117
-0.101761
-0.090341
-0.0789546
-0.0676631
-0.056691
-0.0459496
-0.0361108
-0.0262592
-0.0187826
-0.00946907
-0.00686897
0.0045095
-0.00381959
0.0179921
-0.265395
-0.254832
-0.243759
-0.235015
-0.226148
-0.217007
-0.207758
-0.198333
-0.188683
-0.178794
-0.168658
-0.158274
-0.147647
-0.136791
-0.12573
-0.114496
-0.103137
-0.0917072
-0.0803045
-0.0689867
-0.0579781
-0.047189
-0.0372861
-0.0273731
-0.0197844
-0.0104406
-0.00759966
0.00362206
-0.00404776
0.0169101
-0.268569
-0.257709
-0.246004
-0.237064
-0.228039
-0.21874
-0.209375
-0.199867
-0.190158
-0.180231
-0.170073
-0.159677
-0.149047
-0.138193
-0.127136
-0.115905
-0.104546
-0.093111
-0.0816955
-0.0703546
-0.059312
-0.0484774
-0.0385109
-0.0285375
-0.0208334
-0.011461
-0.00836676
0.00268667
-0.00428461
0.0157688
-0.271534
-0.260513
-0.248217
-0.239092
-0.229913
-0.220456
-0.210973
-0.20138
-0.191613
-0.181649
-0.171471
-0.161068
-0.150439
-0.139592
-0.128543
-0.11732
-0.105966
-0.0945301
-0.0831063
-0.0717465
-0.0606738
-0.0497969
-0.0397688
-0.0297373
-0.0219161
-0.0125177
-0.00916068
0.00171445
-0.00452697
0.0145831
-0.27415
-0.26312
-0.250311
-0.241028
-0.231704
-0.2221
-0.212505
-0.202832
-0.193012
-0.183018
-0.172825
-0.16242
-0.151798
-0.140963
-0.129929
-0.11872
-0.107376
-0.0959449
-0.0845181
-0.0731446
-0.0620462
-0.0511316
-0.0410448
-0.0309587
-0.0230202
-0.0135992
-0.00997255
0.000715868
-0.00477209
0.0133673
-0.276279
-0.265388
-0.252191
-0.242789
-0.233345
-0.223616
-0.213926
-0.204187
-0.194324
-0.184308
-0.17411
-0.163712
-0.153105
-0.142289
-0.131276
-0.120087
-0.10876
-0.0973389
-0.0859149
-0.0745334
-0.0634147
-0.0524675
-0.0423259
-0.0321895
-0.0241347
-0.0146951
-0.0107943
-0.000299413
-0.0050177
0.0121353
-0.277795
-0.267169
-0.253749
-0.244289
-0.234762
-0.224949
-0.215192
-0.205407
-0.195519
-0.185496
-0.175305
-0.164924
-0.15434
-0.143552
-0.132568
-0.121405
-0.110102
-0.0986979
-0.087283
-0.0758996
-0.0647664
-0.0537922
-0.0436004
-0.0334186
-0.0252496
-0.0157959
-0.0116187
-0.00132246
-0.00526196
0.0109002
-0.278614
-0.268329
-0.254887
-0.245437
-0.235877
-0.226036
-0.216255
-0.206454
-0.196566
-0.186555
-0.176386
-0.166035
-0.155487
-0.144736
-0.133789
-0.122662
-0.111389
-0.100009
-0.0886101
-0.0772314
-0.0660897
-0.0550949
-0.0448578
-0.0346365
-0.026356
-0.016893
-0.0124392
-0.00234523
-0.00550349
0.00967382
-0.278667
-0.268717
-0.255481
-0.24611
-0.236589
-0.226804
-0.217061
-0.207291
-0.197438
-0.187466
-0.177341
-0.167037
-0.156538
-0.145836
-0.134936
-0.123853
-0.112619
-0.10127
-0.0898935
-0.0785259
-0.0673817
-0.0563722
-0.0460945
-0.0358392
-0.0274501
-0.0179823
-0.0132526
-0.00336249
-0.00574176
0.00846606
-0.27742
-0.267907
-0.255392
-0.246278
-0.236926
-0.227311
-0.217678
-0.207986
-0.1982
-0.18829
-0.178224
-0.167978
-0.157536
-0.14689
-0.136043
-0.125007
-0.113816
-0.102503
-0.0911521
-0.0797993
-0.068656
-0.0576353
-0.0473199
-0.0370337
-0.0285375
-0.019067
-0.0140615
-0.00437388
-0.00597786
0.00728386
-0.276166
-0.266606
-0.255032
-0.246096
-0.236927
-0.227536
-0.218054
-0.208474
-0.198782
-0.188953
-0.178963
-0.16879
-0.158417
-0.147837
-0.137052
-0.126074
-0.114934
-0.103663
-0.0923467
-0.081016
-0.0698809
-0.0588563
-0.0485097
-0.0381991
-0.0296013
-0.0201327
-0.0148568
-0.00537005
-0.00621209
0.00613836
-0.275539
-0.262584
-0.251877
-0.243174
-0.234542
-0.225778
-0.216787
-0.207592
-0.198208
-0.188632
-0.178854
-0.168862
-0.158649
-0.148211
-0.137551
-0.126684
-0.115642
-0.104455
-0.0932091
-0.0819348
-0.0708391
-0.0598425
-0.049493
-0.0391908
-0.030517
-0.0210823
-0.0155644
-0.00629091
-0.00643483
0.00506404
-0.245049
-0.253937
-0.250642
-0.24253
-0.234179
-0.225605
-0.216717
-0.207601
-0.198291
-0.188783
-0.179072
-0.169145
-0.158996
-0.14862
-0.13802
-0.12721
-0.116218
-0.105078
-0.0938695
-0.0826272
-0.07155
-0.0605733
-0.0502116
-0.0399308
-0.0311841
-0.0218144
-0.016085
-0.00703028
-0.00661263
0.00415775
-0.240271
-0.245634
-0.243835
-0.236874
-0.229474
-0.221668
-0.213378
-0.204752
-0.195855
-0.186704
-0.177306
-0.167661
-0.157768
-0.147627
-0.137246
-0.12664
-0.11584
-0.104878
-0.0938343
-0.0827447
-0.0717997
-0.0609471
-0.0506685
-0.0404867
-0.0317371
-0.0224763
-0.0165692
-0.00775902
-0.0067528
0.00328157
-0.234454
-0.237818
-0.23648
-0.230436
-0.223804
-0.216694
-0.209007
-0.200902
-0.192462
-0.183718
-0.174687
-0.165377
-0.155793
-0.145943
-0.135835
-0.125489
-0.114935
-0.104208
-0.0933864
-0.0825075
-0.0717514
-0.06108
-0.0509366
-0.0409058
-0.0321933
-0.0230847
-0.0170163
-0.00849065
-0.00686875
0.00238312
-0.229005
-0.230565
-0.229262
-0.224001
-0.218026
-0.211537
-0.204426
-0.196835
-0.188857
-0.180529
-0.171876
-0.162915
-0.153656
-0.144109
-0.134288
-0.124214
-0.113919
-0.10344
-0.0928506
-0.0821935
-0.0716367
-0.061157
-0.0511579
-0.0412885
-0.0326201
-0.023674
-0.0174472
-0.00921576
-0.00697537
0.00148234
-0.223374
-0.223395
-0.221899
-0.217318
-0.211961
-0.206065
-0.199531
-0.192471
-0.184976
-0.17709
-0.168843
-0.160256
-0.151344
-0.142123
-0.132609
-0.122825
-0.112806
-0.102588
-0.092245
-0.0818212
-0.0714737
-0.0611949
-0.0513478
-0.041647
-0.0330282
-0.0242498
-0.0178677
-0.00993309
-0.00707747
0.000587597
-0.216944
-0.216063
-0.214295
-0.210295
-0.205531
-0.200209
-0.194249
-0.187734
-0.180746
-0.173329
-0.165516
-0.157332
-0.148796
-0.139927
-0.130745
-0.121274
-0.111551
-0.101615
-0.0915353
-0.0813612
-0.071238
-0.0611735
-0.0514906
-0.0419687
-0.0334091
-0.0248049
-0.018275
-0.0106381
-0.00717663
-0.00029215
-0.209664
-0.208453
-0.206449
-0.202953
-0.198762
-0.193998
-0.188604
-0.18264
-0.176174
-0.169247
-0.161892
-0.154136
-0.146001
-0.137509
-0.128683
-0.119548
-0.110143
-0.100508
-0.0907109
-0.0808036
-0.0709205
-0.0610843
-0.051579
-0.0422467
-0.0337575
-0.0253336
-0.0186664
-0.0113248
-0.00727512
-0.00114622
-0.201638
-0.200498
-0.198365
-0.195323
-0.191691
-0.187471
-0.182633
-0.177221
-0.171286
-0.164865
-0.157987
-0.15068
-0.142969
-0.134877
-0.126428
-0.117651
-0.108584
-0.0992691
-0.0897721
-0.0801478
-0.07052
-0.0609255
-0.0516108
-0.0424779
-0.0340708
-0.0258316
-0.0190404
-0.0119871
-0.00737586
-0.00196352
-0.192987
-0.192178
-0.190052
-0.187438
-0.18435
-0.180667
-0.176375
-0.171511
-0.166111
-0.160205
-0.153818
-0.146979
-0.139711
-0.132038
-0.123987
-0.115587
-0.106877
-0.0979
-0.0887199
-0.0793941
-0.0700361
-0.060696
-0.0515844
-0.0426599
-0.0343471
-0.0262952
-0.0193959
-0.0126195
-0.00748171
-0.00273342
-0.183852
-0.183521
-0.181537
-0.179341
-0.176781
-0.173628
-0.16987
-0.165546
-0.160681
-0.155295
-0.149409
-0.14305
-0.13624
-0.129004
-0.121368
-0.113363
-0.105027
-0.0964044
-0.0875569
-0.078544
-0.0694695
-0.0603953
-0.051499
-0.0427908
-0.0345847
-0.026721
-0.0197319
-0.0132165
-0.00759476
-0.00344661
-0.174383
-0.174592
-0.172864
-0.171085
-0.169034
-0.166399
-0.163164
-0.159371
-0.155035
-0.150168
-0.144789
-0.138918
-0.132577
-0.12579
-0.118584
-0.110988
-0.103042
-0.0947883
-0.0862874
-0.0776004
-0.068822
-0.0600243
-0.0513547
-0.0428694
-0.0347825
-0.0271063
-0.0200477
-0.0137735
-0.00771646
-0.00409499
-0.164731
-0.16548
-0.164094
-0.16273
-0.161165
-0.159033
-0.156308
-0.153031
-0.149215
-0.144863
-0.139989
-0.13461
-0.128745
-0.122417
-0.115651
-0.108477
-0.100932
-0.0930602
-0.0849181
-0.0765682
-0.0680969
-0.0595848
-0.0511523
-0.0428955
-0.03494
-0.0274491
-0.0203425
-0.0142867
-0.00784769
-0.004672
-0.155037
-0.156285
-0.155295
-0.154342
-0.153236
-0.151588
-0.149354
-0.146577
-0.143267
-0.139421
-0.135047
-0.130159
-0.124773
-0.118908
-0.11259
-0.105846
-0.0987117
-0.0912308
-0.0834574
-0.0754539
-0.0672991
-0.05908
-0.0508938
-0.0428697
-0.0350572
-0.0277479
-0.0206157
-0.0147533
-0.00798868
-0.00517302
-0.145432
-0.14711
-0.146542
-0.145987
-0.145311
-0.14412
-0.142356
-0.14006
-0.137239
-0.133885
-0.130002
-0.125599
-0.120689
-0.115289
-0.109421
-0.103112
-0.0963954
-0.0893126
-0.0819152
-0.0742651
-0.0664343
-0.0585141
-0.050582
-0.0427934
-0.0351346
-0.0280022
-0.0208668
-0.0151709
-0.00813882
-0.00559562
-0.136027
-0.138057
-0.137907
-0.137732
-0.137452
-0.136689
-0.13537
-0.133531
-0.131177
-0.128299
-0.124894
-0.120966
-0.116526
-0.111588
-0.10617
-0.100297
-0.0940003
-0.0873195
-0.0803028
-0.0730108
-0.0655092
-0.0578921
-0.0502201
-0.0426687
-0.0351732
-0.0282119
-0.0210953
-0.0155388
-0.00829668
-0.00593968
-0.126914
-0.129214
-0.129463
-0.129643
-0.129723
-0.129352
-0.12845
-0.127041
-0.125132
-0.122708
-0.119763
-0.116297
-0.112317
-0.107833
-0.102861
-0.0974216
-0.0915446
-0.0852666
-0.0786325
-0.0717008
-0.0645316
-0.0572197
-0.0498122
-0.0424981
-0.0351742
-0.0283778
-0.0213006
-0.0158567
-0.00846011
-0.00620733
-0.118166
-0.120659
-0.121272
-0.121776
-0.122179
-0.122165
-0.121647
-0.12064
-0.119148
-0.117155
-0.11465
-0.111629
-0.108095
-0.104054
-0.0995195
-0.0945088
-0.0890476
-0.0831701
-0.0769175
-0.0703458
-0.0635096
-0.056503
-0.0493627
-0.0422849
-0.0351393
-0.0285011
-0.0214821
-0.0161257
-0.00862636
-0.00640278
-0.109838
-0.112458
-0.113392
-0.114186
-0.114875
-0.115181
-0.115012
-0.114377
-0.113273
-0.111685
-0.109596
-0.107
-0.103894
-0.100283
-0.0961739
-0.0915821
-0.0865296
-0.081047
-0.075172
-0.0689571
-0.0624524
-0.0557493
-0.0488765
-0.0420329
-0.0350703
-0.0285836
-0.0216394
-0.0163477
-0.00879225
-0.00653209
-0.101969
-0.104661
-0.105872
-0.106921
-0.10786
-0.108448
-0.108594
-0.108297
-0.107552
-0.10634
-0.104642
-0.102447
-0.0997503
-0.0965502
-0.0928519
-0.0886664
-0.084012
-0.0789156
-0.0734111
-0.0675474
-0.0613697
-0.0549661
-0.0483593
-0.0417461
-0.0349695
-0.0286276
-0.0217719
-0.0165251
-0.00895445
-0.00660269
-0.0945901
-0.0973112
-0.0987544
-0.100024
-0.101178
-0.102012
-0.102438
-0.102447
-0.102029
-0.101163
-0.0998279
-0.0980094
-0.0956978
-0.0928887
-0.0895828
-0.0857877
-0.0815176
-0.0767956
-0.0716515
-0.0661301
-0.0602725
-0.0541621
-0.0478173
-0.0414295
-0.0348397
-0.028636
-0.0218796
-0.0166614
-0.00910968
-0.00662303
-0.0877242
-0.0904417
-0.0920763
-0.093533
-0.0948707
-0.0959167
-0.0965883
-0.0968693
-0.0967462
-0.0961963
-0.0951953
-0.0937254
-0.0917738
-0.0893321
-0.0863976
-0.0829736
-0.0790707
-0.074708
-0.069911
-0.0647204
-0.0591729
-0.0533469
-0.0472579
-0.0410889
-0.0346843
-0.0286122
-0.0219628
-0.0167603
-0.00925496
-0.00660205
-0.0813918
-0.084082
-0.0858718
-0.0874857
-0.0889775
-0.0902038
-0.0910881
-0.091609
-0.0917491
-0.0914832
-0.0907857
-0.0896354
-0.0880161
-0.085916
-0.0833287
-0.0802538
-0.0766979
-0.0726759
-0.0682096
-0.0633348
-0.0580847
-0.0525317
-0.0466895
-0.0407309
-0.0345075
-0.0285602
-0.0220222
-0.016826
-0.00938785
-0.00654872
-0.0756131
-0.0782597
-0.080173
-0.0819169
-0.0835364
-0.0849139
-0.08598
-0.0867092
-0.0870806
-0.0870672
-0.0866421
-0.085781
-0.0844647
-0.082678
-0.0804112
-0.0776602
-0.0744277
-0.0707248
-0.0665691
-0.0619922
-0.0570233
-0.0517292
-0.0461219
-0.0403632
-0.0343146
-0.028485
-0.0220595
-0.0168631
-0.00950661
-0.00647172
-0.0704095
-0.0730021
-0.0750123
-0.0768621
-0.0785856
-0.080088
-0.0813071
-0.0822146
-0.0827865
-0.0829945
-0.0828099
-0.0822064
-0.0811619
-0.0796583
-0.0776825
-0.0752273
-0.0722915
-0.0688826
-0.0650142
-0.0607136
-0.0560065
-0.0509537
-0.0455665
-0.0399951
-0.0341118
-0.0283919
-0.022077
-0.0168765
-0.00961031
-0.00637905
-0.0658058
-0.0683394
-0.0704237
-0.0723583
-0.0741653
-0.075769