/*--------------------------------*- C++ -*----------------------------------*\
  =========                 |
  \\      /  F ield         | OpenFOAM: The Open Source CFD Toolbox
   \\    /   O peration     | Website:  https://openfoam.org
    \\  /    A nd           | Version:  9
     \\/     M anipulation  |
\*---------------------------------------------------------------------------*/
FoamFile
{
    format      ascii;
    class       volVectorField;
    location    "7";
    object      U;
}
// * * * * * * * * * * * * * * * * * * * * * * * * * * * * * * * * * * * * * //

dimensions      [0 1 -1 0 0 0 0];

internalField   nonuniform List<vector> 
8500
(
(-0.00383694 0.0013234 0)
(-0.0145552 0.00196825 -7.1345e-23)
(-0.0274988 0.00175455 -3.95063e-24)
(-0.0358358 0.00107455 7.34341e-37)
(-0.0394553 0.000169146 -1.03335e-23)
(-0.037336 -0.000847659 8.66683e-24)
(-0.0299904 -0.00190137 -5.46713e-23)
(-0.0163333 -0.00296944 -8.15782e-23)
(0.000274861 -0.00379466 -7.00056e-23)
(0.0234793 -0.00465931 -3.5386e-24)
(-0.0039884 0.00393809 1.99962e-22)
(-0.0145543 0.00584714 6.66676e-23)
(-0.0270135 0.00520115 2.67625e-22)
(-0.0347044 0.00316544 0)
(-0.0375402 0.00046006 0)
(-0.0345311 -0.00257489 1.66662e-23)
(-0.0262239 -0.00571773 4.0675e-23)
(-0.0114665 -0.00888707 8.68862e-23)
(0.00615762 -0.0113767 5.29358e-23)
(0.0309567 -0.0139144 1.4156e-23)
(-0.00428346 0.00645732 -1.77686e-22)
(-0.0145391 0.00955452 0)
(-0.0260297 0.0084617 -2.52025e-22)
(-0.0324308 0.00508316 0)
(-0.0337037 0.00061022 -4.14667e-23)
(-0.0289211 -0.00439748 3.47787e-23)
(-0.018694 -0.00958302 0)
(-0.00176102 -0.0147589 0)
(0.0178773 -0.0189135 0)
(0.0458496 -0.0229732 0)
(-0.00470662 0.00882024 3.60792e-22)
(-0.014483 0.0129806 -2.69945e-22)
(-0.0245211 0.011417 -6.3321e-23)
(-0.0289932 0.0067171 -3.92389e-22)
(-0.0279329 0.000530609 -3.82486e-22)
(-0.0205081 -0.00637549 3.35005e-23)
(-0.00741097 -0.0135453 -2.81337e-23)
(0.0127416 -0.0205695 3.0657e-22)
(0.0353511 -0.0263429 2.32988e-24)
(0.0680223 -0.0316935 2.70062e-22)
(-0.00523517 0.0109701 -3.60792e-22)
(-0.0143466 0.0160222 -3.50983e-22)
(-0.022448 0.0139553 9.5266e-23)
(-0.0243589 0.00796398 5.21879e-22)
(-0.0202081 0.000139499 -4.48124e-23)
(-0.00929951 -0.00855759 5.50348e-22)
(0.00760139 -0.0175963 0)
(0.0319956 -0.0263221 -3.49248e-22)
(0.0584616 -0.033617 -6.72225e-23)
(0.0972646 -0.0399271 -3.72202e-22)
(-0.00583972 0.0128556 9.19906e-23)
(-0.0140783 0.0185853 5.81974e-22)
(-0.0197581 0.0159745 -4.52119e-22)
(-0.0184833 0.00873057 1.3346e-24)
(-0.0104998 -0.000635203 -3.85381e-22)
(0.00471332 -0.0109844 1.40706e-22)
(0.0262969 -0.021712 -5.67269e-23)
(0.0559122 -0.0319966 4.37487e-22)
(0.0870728 -0.0406919 -7.24098e-23)
(0.133297 -0.0475177 2.13866e-22)
(-0.00648496 0.0144321 4.65215e-23)
(-0.0136151 0.0205872 0)
(-0.0163862 0.0173856 -4.52078e-24)
(-0.0113103 0.00893665 0)
(0.00122855 -0.00185234 6.85958e-22)
(0.0215407 -0.0136896 -5.53097e-22)
(0.0486382 -0.0259033 0)
(0.084378 -0.0375187 1.30388e-24)
(0.121008 -0.0475043 0)
(0.175767 -0.0542988 0)
(-0.00713056 0.0156628 -7.62797e-22)
(-0.012883 0.021958 -7.88278e-23)
(-0.0122549 0.0181146 5.86128e-22)
(-0.00277189 0.00851826 1.05132e-22)
(0.0150223 -0.00355399 -6.91983e-22)
(0.041193 -0.016687 -4.20098e-22)
(0.0745862 -0.0301576 -5.73479e-23)
(0.117263 -0.0428107 4.42426e-22)
(0.160054 -0.0539722 -7.31007e-23)
(0.224239 -0.0600947 5.45547e-23)
(-0.00773231 0.0165197 8.58774e-22)
(-0.0117989 0.0226422 -6.4806e-22)
(-0.00727476 0.0181051 -1.97035e-22)
(0.00721185 0.00743025 1.09113e-22)
(0.0309362 -0.00576395 6.95094e-22)
(0.0636827 -0.0199691 6.28344e-22)
(0.104095 -0.034435 -5.77021e-23)
(0.154416 -0.0477836 9.02696e-23)
(0.203965 -0.0599923 -1.40775e-22)
(0.278193 -0.0647255 5.67086e-23)
(-0.00824249 0.0169821 7.91774e-22)
(-0.0102718 0.0226024 6.4718e-22)
(-0.00134532 0.0173197 -9.42212e-22)
(0.0187318 0.00564838 -1.10212e-22)
(0.0490341 -0.00848421 0)
(0.0890253 -0.0235071 0)
(0.137112 -0.0386709 0)
(0.195659 -0.052329 -1.4259e-21)
(0.252455 -0.0654347 -5.82741e-22)
(0.337001 -0.068012 4.12364e-22)
(-0.00860732 0.0170317 -1.59976e-21)
(-0.00820604 0.0218236 0)
(0.00564251 0.015743 2.16081e-21)
(0.0318888 0.00317233 8.811e-22)
(0.0693869 -0.0116913 9.02917e-23)
(0.117237 -0.0272477 0)
(0.173574 -0.0427763 -9.15556e-22)
(0.240781 -0.0563178 7.14512e-22)
(0.3052 -0.0701385 5.82736e-22)
(0.399931 -0.0697806 -4.12376e-22)
(-0.00877248 0.0166706 9.08915e-22)
(-0.0054937 0.0203 -8.47324e-23)
(0.0138039 0.0133818 -1.0869e-21)
(0.0467911 2.77124e-05 -9.89881e-22)
(0.09207 -0.0153343 0)
(0.148329 -0.0311107 1.15098e-21)
(0.213401 -0.0466356 -5.93803e-24)
(0.289532 -0.0596037 6.32458e-22)
(0.36182 -0.0739099 6.6462e-22)
(0.466141 -0.0698723 -4.06268e-22)
(-0.00868987 0.0159114 -1.45148e-24)
(-0.00202533 0.0180393 1.45088e-21)
(0.0232633 0.010267 -1.4036e-22)
(0.0635521 -0.0037325 7.89498e-22)
(0.117159 -0.019333 4.55834e-22)
(0.182306 -0.0349879 2.97846e-22)
(0.256488 -0.0501067 9.14638e-22)
(0.341614 -0.0620283 -8.15111e-22)
(0.421875 -0.0765238 -4.55173e-22)
(0.534681 -0.0681539 2.92699e-22)
(-0.00830544 0.0147639 0)
(0.00230724 0.0150768 -1.19906e-21)
(0.0341472 0.00645417 -1.42391e-22)
(0.0822864 -0.00802711 9.70337e-24)
(0.144724 -0.0235775 7.24278e-22)
(0.219155 -0.0387428 -1.01744e-21)
(0.302697 -0.0530235 9.26235e-22)
(0.396677 -0.0634283 -9.44929e-23)
(0.484849 -0.0777299 0)
(0.604493 -0.0645326 0)
(-0.00756537 0.0132478 1.08988e-22)
(0.00761379 0.0114642 -1.41305e-21)
(0.0465817 0.00202272 0)
(0.103105 -0.0127465 -1.01975e-22)
(0.174825 -0.0279281 9.38503e-23)
(0.258836 -0.0422122 0)
(0.351843 -0.0551993 -9.33264e-22)
(0.454306 -0.0636459 -7.32053e-22)
(0.550145 -0.0772653 1.34833e-22)
(0.674438 -0.0589816 -1.13657e-22)
(-0.00641729 0.0113907 -1.08931e-22)
(0.0140032 0.00726932 1.5045e-21)
(0.0606895 -0.00292408 0)
(0.12611 -0.0177532 -1.03227e-21)
(0.2075 -0.0322171 9.48207e-23)
(0.301276 -0.0452099 -1.18671e-21)
(0.403683 -0.0564342 -1.13655e-22)
(0.514023 -0.0625385 8.27619e-22)
(0.617076 -0.074871 0)
(0.743325 -0.0515683 8.00151e-22)
(-0.0048102 0.00922698 -1.7354e-21)
(0.0215807 0.00257577 -9.32901e-23)
(0.0765855 -0.00826018 -1.43172e-22)
(0.151388 -0.0228839 1.19809e-22)
(0.242759 -0.0362523 -1.5034e-21)
(0.346356 -0.0475314 1.1867e-21)
(0.457906 -0.0565241 9.49928e-22)
(0.575287 -0.0599896 7.39947e-22)
(0.684857 -0.070302 1.19402e-21)
(0.80992 -0.0424324 -6.86512e-22)
(-0.00269485 0.00679623 1.84652e-21)
(0.0304454 -0.0025172 0)
(0.0943726 -0.0138383 1.34157e-21)
(0.179002 -0.027952 -1.21395e-22)
(0.280574 -0.0398215 3.02136e-21)
(0.393901 -0.0489615 0)
(0.514124 -0.0552751 -9.49921e-22)
(0.63751 -0.0559203 4.17176e-24)
(0.752621 -0.0633107 -1.32871e-21)
(0.872883 -0.0316981 1.13558e-22)
(-2.42247e-05 0.00414345 0)
(0.040688 -0.00789626 1.50955e-21)
(0.114137 -0.0194922 -1.1965e-21)
(0.208987 -0.0327512 0)
(0.320871 -0.0426987 -1.51795e-21)
(0.443672 -0.0492828 0)
(0.571875 -0.0525216 9.60011e-22)
(0.700087 -0.0502963 -7.44108e-22)
(0.819489 -0.0536435 -1.18352e-21)
(0.931116 -0.0197507 -8.15223e-22)
(0.0032459 0.00131841 -2.36064e-22)
(0.0523884 -0.0134353 -1.31137e-21)
(0.135943 -0.0250392 0)
(0.241341 -0.0370603 0)
(0.36352 -0.044651 0)
(0.495361 -0.0482861 -1.481e-22)
(0.630612 -0.0481421 -9.68205e-22)
(0.762396 -0.0431091 -9.76885e-23)
(0.884649 -0.041264 1.18351e-21)
(0.985142 -0.00913122 9.29228e-22)
(0.00715628 -0.00162464 0)
(0.0656129 -0.0189968 -1.5611e-21)
(0.159829 -0.0302838 0)
(0.276021 -0.0406488 0)
(0.408335 -0.045447 0)
(0.548583 -0.0457793 1.49021e-22)
(0.689718 -0.0420593 -1.2107e-21)
(0.823711 -0.034345 8.36597e-23)
(0.946951 -0.027016 8.77888e-22)
(1.03859 -0.00495451 9.09296e-22)
(0.0117435 -0.0046272 0)
(0.0804118 -0.0244337 1.5611e-21)
(0.185803 -0.0350207 -1.26976e-21)
(0.312933 -0.043283 0)
(0.455062 -0.0448648 -1.57815e-21)
(0.602887 -0.0415959 0)
(0.748525 -0.0342257 9.68832e-22)
(0.883161 -0.0240192 -7.56785e-22)
(1.00421 -0.0127436 -1.17105e-21)
(1.09133 -0.00188491 -9.03487e-22)
(0.017039 -0.0076268 2.11325e-21)
(0.0968167 -0.029591 0)
(0.213838 -0.0390398 1.11454e-21)
(0.351937 -0.0447326 1.29887e-22)
(0.503392 -0.0427011 3.17118e-21)
(0.657766 -0.035603 0)
(0.806363 -0.024625 -9.75091e-22)
(0.939957 -0.0121318 -1.51366e-21)
(1.05616 0.00180011 -1.01555e-21)
(1.13802 0.00681236 -1.34254e-23)
(0.0230684 -0.0105573 -2.24093e-21)
(0.114838 -0.0343082 1.07186e-22)
(0.243871 -0.0421298 1.57318e-22)
(0.392837 -0.0447781 -1.31645e-22)
(0.552954 -0.0387793 -1.59304e-21)
(0.712676 -0.0277115 1.25686e-21)
(0.862582 -0.0132829 9.75087e-22)
(0.993427 0.00124266 7.56873e-22)
(1.10285 0.016775 1.1561e-21)
(1.17798 0.0189778 -1.00664e-21)
(0.0298502 -0.013349 1.30083e-22)
(0.134464 -0.0384208 1.55717e-21)
(0.275798 -0.0440833 0)
(0.435387 -0.0432172 -9.08929e-22)
(0.603332 -0.0329577 -1.04457e-22)
(0.76705 -0.0178819 -1.25686e-21)
(0.916574 -0.000274788 1.17417e-22)
(1.04303 0.0159357 6.53543e-22)
(1.1443 0.032131 0)
(1.21167 0.0328634 9.0341e-22)
(0.0373947 -0.0159294 -1.39046e-22)
(0.155656 -0.0417635 -1.66637e-21)
(0.309476 -0.0447017 0)
(0.479294 -0.0398717 1.14557e-22)
(0.654069 -0.0251355 -1.05488e-22)
(0.820318 -0.00612648 0)
(0.967792 0.0142774 -9.75899e-22)
(1.08838 0.0317275 -7.52278e-22)
(1.18054 0.0477715 -1.36368e-22)
(1.23947 0.0475629 -1.14967e-22)
(0.0457031 -0.0182234 0)
(0.178349 -0.0441723 -1.92527e-21)
(0.344722 -0.0437994 1.73999e-22)
(0.524218 -0.0345931 -1.07745e-23)
(0.704681 -0.0152563 -8.22358e-22)
(0.871929 0.00749246 -1.42239e-21)
(1.01576 0.0302135 1.10376e-21)
(1.1292 0.0483782 0)
(1.21167 0.0635753 0)
(1.26187 0.0625132 0)
(0.0547661 -0.0201543 7.31063e-24)
(0.202453 -0.0454877 1.62126e-21)
(0.381311 -0.0412089 1.76397e-22)
(0.569785 -0.0272674 1.18389e-21)
(0.754673 -0.00330981 7.15025e-22)
(0.921368 0.0228674 -1.52776e-22)
(1.0601 0.0473445 9.79908e-22)
(1.16536 0.0656474 -6.35186e-22)
(1.23789 0.0794063 -6.76039e-22)
(1.27938 0.0773462 5.27943e-22)
(0.0645635 -0.0216446 1.04402e-21)
(0.227845 -0.0455576 1.16785e-22)
(0.418985 -0.0367852 -1.39596e-21)
(0.615589 -0.0178182 -1.07451e-21)
(0.803551 0.0106686 0)
(0.96817 0.0398524 1.2708e-21)
(1.10051 0.0654638 -7.18146e-24)
(1.19684 0.0833072 8.18412e-22)
(1.25944 0.0951303 4.7212e-22)
(1.29255 0.0918312 -4.16956e-22)
(0.0750625 -0.0226168 -2.38368e-21)
(0.254379 -0.04424 0)
(0.457453 -0.030409 2.80636e-21)
(0.661209 -0.00620926 9.44747e-22)
(0.850839 0.0266005 1.08701e-22)
(1.01193 0.0582718 0)
(1.1368 0.0843574 -9.608e-22)
(1.22372 0.101151 7.1016e-22)
(1.27664 0.110626 5.22058e-22)
(1.30189 0.105833 -3.92883e-22)
(0.0862181 -0.0229954 1.20056e-21)
(0.281879 -0.041407 9.01867e-22)
(0.496395 -0.0219907 -1.58047e-21)
(0.706212 0.00755496 1.42311e-22)
(0.89609 0.0443691 0)
(1.05233 0.0779281 0)
(1.16886 0.103812 0)
(1.24614 0.118996 -1.40616e-21)
(1.28983 0.125792 -5.22061e-22)
(1.3079 0.119282 3.92869e-22)
(0.0979717 -0.0227076 1.08525e-21)
(0.310144 -0.036947 -8.90802e-22)
(0.53547 -0.0114726 9.21732e-23)
(0.750168 0.02343 0)
(0.938896 0.0638239 8.30579e-22)
(1.0891 0.0986107 5.48819e-22)
(1.19668 0.123625 6.22034e-23)
(1.26434 0.136687 -6.43922e-23)
(1.29937 0.140549 1.27045e-22)
(1.31103 0.132148 -4.98913e-23)
(0.110252 -0.0216851 -1.22972e-21)
(0.338949 -0.0307686 1.11032e-22)
(0.574322 0.0011689 7.13548e-22)
(0.792661 0.041333 -2.02445e-22)
(0.978899 0.0847875 -6.22935e-22)
(1.12207 0.120103 -7.78423e-22)
(1.22029 0.143603 6.13651e-23)
(1.27856 0.154096 3.4904e-22)
(1.30563 0.154836 0)
(1.31166 0.144429 -4.06786e-23)
(0.122974 -0.019866 -7.78548e-23)
(0.368051 -0.0228027 0)
(0.612586 0.0159225 2.21656e-24)
(0.83329 0.0611459 0)
(1.01579 0.107061 8.20243e-22)
(1.15112 0.14219 -6.06149e-22)
(1.23982 0.163574 0)
(1.28908 0.171116 1.01806e-23)
(1.30895 0.168612 0)
(1.31015 0.156138 0)
(0.136041 -0.0171962 -1.52066e-22)
(0.397188 -0.013005 9.85895e-22)
(0.649896 0.0327417 -8.08795e-22)
(0.871689 0.0827186 1.36791e-22)
(1.04933 0.130432 -3.72678e-22)
(1.1762 0.16466 -6.92014e-23)
(1.25542 0.18338 0)
(1.2962 0.187663 2.47409e-22)
(1.30967 0.181848 6.1627e-23)
(1.3068 0.167291 1.58607e-22)
(0.149345 -0.0136312 -6.27877e-22)
(0.426086 -0.00135866 -4.05788e-22)
(0.685893 0.0515452 -1.32735e-22)
(0.907523 0.105874 5.4676e-22)
(1.07932 0.154678 4.7775e-23)
(1.19733 0.187311 5.94704e-22)
(1.26727 0.202883 0)
(1.30021 0.203667 -2.97064e-22)
(1.30808 0.194525 5.00269e-23)
(1.30188 0.177908 -3.5043e-22)
(0.162766 -0.00913754 -6.27877e-22)
(0.454463 0.0121251 4.06249e-22)
(0.720228 0.0722189 -4.05894e-24)
(0.940496 0.130411 -6.3806e-22)
(1.10562 0.179571 -3.46614e-22)
(1.21456 0.209954 -3.33382e-23)
(1.27558 0.221961 2.79976e-23)
(1.30138 0.219074 3.3059e-22)
(1.30446 0.206632 -4.56179e-24)
(1.29558 0.188005 1.13265e-22)
(0.176178 -0.00369433 -3.11731e-22)
(0.482033 0.0274055 0)
(0.752573 0.0946172 -3.55592e-22)
(0.970359 0.15611 0)
(1.12816 0.204884 -4.37407e-22)
(1.22799 0.23241 3.79062e-23)
(1.28057 0.240506 0)
(1.29998 0.233841 0)
(1.29905 0.218159 0)
(1.2881 0.197596 0)
(0.189445 0.00270551 2.74035e-22)
(0.508512 0.0444121 1.2891e-22)
(0.782623 0.118566 3.55593e-22)
(0.996902 0.182739 0)
(1.14689 0.230393 0)
(1.23775 0.254513 -1.54827e-23)
(1.28248 0.258426 5.89043e-23)
(1.29627 0.247931 6.34585e-23)
(1.29206 0.229099 5.40533e-23)
(1.27959 0.206686 -8.73371e-24)
(0.202428 0.0100543 -4.80116e-24)
(0.533622 0.0630449 -1.20364e-22)
(0.8101 0.143867 5.68714e-24)
(1.01997 0.210053 7.43228e-24)
(1.16183 0.25588 -1.15185e-23)
(1.24398 0.276112 4.43895e-24)
(1.28152 0.275638 -5.1009e-23)
(1.29048 0.261311 -5.91647e-23)
(1.28367 0.239442 -4.12957e-23)
(1.27016 0.215276 1.22031e-24)
(0.214984 0.0183286 0)
(0.557095 0.0831757 -1.16862e-22)
(0.83476 0.170298 -4.4201e-24)
(1.03943 0.237804 8.37765e-24)
(1.17301 0.281133 1.5992e-37)
(1.24687 0.297067 -1.11815e-37)
(1.27793 0.292069 -4.55323e-23)
(1.2828 0.273955 -5.09356e-23)
(1.27404 0.249179 -3.69344e-23)
(1.25993 0.223359 0)
(0.226972 0.0274894 3.29045e-22)
(0.578681 0.104649 9.55158e-23)
(0.856395 0.19762 3.48025e-22)
(1.05522 0.265739 -1.62931e-23)
(1.18051 0.30595 0)
(1.24658 0.317248 1.32044e-23)
(1.27192 0.307654 2.96561e-23)
(1.27344 0.285835 5.49619e-23)
(1.26332 0.258295 2.90633e-23)
(1.24899 0.230928 6.63156e-24)
(0.238249 0.0374814 -2.93038e-22)
(0.598147 0.127285 0)
(0.874832 0.225578 -3.28555e-22)
(1.06731 0.293606 0)
(1.18445 0.330139 -3.65907e-23)
(1.24331 0.336539 3.06893e-23)
(1.26368 0.322334 0)
(1.26256 0.296923 0)
(1.25161 0.266772 0)
(1.23741 0.237966 0)
(0.24868 0.0482333 5.50972e-22)
(0.615284 0.150881 -3.56429e-22)
(0.889936 0.25391 -7.73636e-23)
(1.07568 0.321158 -3.48632e-22)
(1.18495 0.353519 -3.3564e-22)
(1.23726 0.354832 2.27217e-23)
(1.25341 0.336054 -1.90819e-23)
(1.25032 0.307196 1.42476e-22)
(1.23902 0.274589 4.01733e-24)
(1.22524 0.244449 7.93644e-23)
(0.258135 0.0596587 -5.50972e-22)
(0.62991 0.175214 -4.21304e-22)
(0.901612 0.282341 1.08518e-22)
(1.0804 0.34815 4.19233e-22)
(1.18215 0.375918 -1.88642e-23)
(1.2286 0.372027 3.54461e-22)
(1.2413 0.348764 0)
(1.23685 0.316624 -1.61558e-22)
(1.22566 0.281729 -2.01912e-23)
(1.21251 0.250348 -9.33371e-23)
(0.266494 0.0716568 1.25609e-22)
(0.641871 0.200047 7.28478e-22)
(0.909802 0.310597 -4.85722e-22)
(1.08151 0.374347 -9.87797e-23)
(1.17622 0.397176 -2.48356e-22)
(1.21755 0.388031 4.95598e-23)
(1.22751 0.360415 -3.11509e-23)
(1.22228 0.325175 1.4614e-22)
(1.21161 0.288184 -2.35679e-23)
(1.19926 0.255634 4.86803e-23)
(0.273649 0.0841134 6.1345e-23)
(0.651046 0.225127 0)
(0.914487 0.338402 3.51672e-23)
(1.07913 0.399522 0)
(1.16734 0.417144 4.99659e-22)
(1.20428 0.402763 -3.18107e-22)
(1.2122 0.370963 0)
(1.20669 0.332805 -2.28556e-23)
(1.19697 0.293929 0)
(1.18561 0.260272 0)
(0.279503 0.0969029 -8.89972e-22)
(0.657344 0.250193 -8.00673e-23)
(0.915681 0.365483 5.82622e-22)
(1.07338 0.423459 7.40472e-23)
(1.15569 0.435684 -5.08562e-22)
(1.18898 0.416146 -1.72753e-22)
(1.19552 0.380373 -2.33835e-23)
(1.19023 0.339489 6.538e-23)
(1.18173 0.298908 -1.43841e-23)
(1.17162 0.264269 2.90544e-24)
(0.283977 0.109889 9.91153e-22)
(0.660708 0.274978 -6.19144e-22)
(0.913436 0.391573 -1.64702e-22)
(1.0644 0.445954 8.59667e-23)
(1.14146 0.452669 4.00089e-22)
(1.17184 0.428107 2.62474e-22)
(1.17762 0.388595 -1.92484e-23)
(1.17303 0.345213 -3.69779e-23)
(1.16594 0.303095 -1.30262e-23)
(1.15731 0.267579 2.89495e-24)
(0.287005 0.122928 7.48304e-22)
(0.661114 0.299212 6.08313e-22)
(0.907834 0.416411 -6.88454e-22)
(1.05237 0.466816 -7.70441e-23)
(1.12485 0.467983 0)
(1.15303 0.438581 0)
(1.15865 0.395587 0)
(1.15513 0.349943 -1.40903e-22)
(1.14969 0.30647 6.22513e-24)
(1.1427 0.270167 -4.05148e-23)
(0.288543 0.135869 -1.41733e-21)
(0.658572 0.322626 0)
(0.898991 0.43975 1.4651e-21)
(1.03747 0.485866 4.18521e-22)
(1.10606 0.48152 0)
(1.13275 0.447513 0)
(1.13872 0.401312 -7.49736e-23)
(1.13663 0.35365 4.56735e-23)
(1.13305 0.309006 -6.22518e-24)
(1.12785 0.272002 4.05131e-23)
(0.28856 0.148559 7.43288e-22)
(0.653125 0.344954 -6.23475e-23)
(0.887059 0.461359 -6.84582e-22)
(1.0199 0.502936 -4.57681e-22)
(1.0853 0.493184 3.28023e-23)
(1.11115 0.454847 1.26192e-22)
(1.11797 0.405738 6.90857e-23)
(1.11761 0.356307 -4.99186e-23)
(1.11606 0.310676 -8.84694e-23)
(1.11279 0.273053 9.85427e-23)
(0.28705 0.160842 -3.57477e-24)
(0.644853 0.365939 7.75792e-22)
(0.872224 0.481029 -7.58488e-23)
(0.99983 0.517871 2.26933e-22)
(1.06277 0.502886 1.06664e-22)
(1.08841 0.460535 -7.13081e-23)
(1.09652 0.408834 -4.49544e-24)
(1.09815 0.357886 6.28533e-23)
(1.09877 0.311457 -1.12416e-22)
(1.09755 0.27329 -7.37903e-23)
(0.284026 0.172564 0)
(0.633873 0.385332 -6.64781e-22)
(0.854623 0.498538 -6.1943e-23)
(0.977529 0.530564 -8.52286e-23)
(1.0387 0.510546 -1.05822e-22)
(1.06469 0.464538 -3.97989e-23)
(1.07449 0.410574 -1.44949e-22)
(1.07835 0.358368 0)
(1.08123 0.311327 0)
(1.08218 0.272681 0)
(0.279514 0.183568 4.40769e-23)
(0.620314 0.402916 -4.57319e-22)
(0.834434 0.513674 0)
(0.95326 0.540896 -9.67738e-23)
(1.01329 0.516113 7.56479e-24)
(1.04017 0.46682 0)
(1.052 0.410934 1.35678e-22)
(1.05827 0.357732 2.14292e-22)
(1.06349 0.31027 -4.80125e-23)
(1.06672 0.271198 4.04244e-23)
(0.273548 0.193691 -3.01398e-23)
(0.604338 0.418476 4.82623e-22)
(0.811935 0.526296 0)
(0.927239 0.548748 -8.18358e-23)
(0.986737 0.519537 -1.28175e-24)
(1.01499 0.467356 2.60669e-22)
(1.02917 0.409894 3.29881e-23)
(1.03802 0.355966 -2.42033e-22)
(1.0456 0.308271 0)
(1.05118 0.268807 -4.30355e-22)
(0.266201 0.202786 -1.72843e-22)
(0.586118 0.431799 -1.50729e-23)
(0.787381 0.536268 -8.81525e-25)
(0.899704 0.554035 7.377e-25)
(0.959259 0.520774 3.19598e-22)
(0.989324 0.466122 -2.60671e-22)
(1.00612 0.407442 -3.52438e-22)
(1.01767 0.353059 -3.20629e-22)
(1.02762 0.305319 -5.61333e-22)
(1.03561 0.265472 3.75874e-22)
(0.257575 0.210736 1.90797e-22)
(0.565853 0.442701 0)
(0.761024 0.543458 -1.31427e-22)
(0.870902 0.556691 1.15084e-23)
(0.93106 0.519796 -7.75452e-22)
(0.963327 0.463106 0)
(0.982973 0.403566 3.5244e-22)
(0.997318 0.349007 -5.295e-23)
(1.00957 0.301404 6.37105e-22)
(1.02007 0.26115 -6.3785e-23)
(0.247765 0.217417 0)
(0.543773 0.451028 -1.65537e-22)
(0.733129 0.547761 1.17676e-22)
(0.841087 0.556667 0)
(0.902345 0.516584 4.55855e-22)
(0.937153 0.4583 0)
(0.959837 0.398265 -4.96497e-22)
(0.977043 0.343811 3.73584e-22)
(0.991542 0.296515 7.18706e-22)
(1.00468 0.255795 5.93467e-22)
(0.236882 0.222715 4.06783e-23)
(0.520124 0.456652 1.31387e-22)
(0.703971 0.549095 0)
(0.810511 0.553929 0)
(0.873316 0.51113 0)
(0.910955 0.451706 7.746e-23)
(0.936832 0.391541 3.64586e-22)
(0.956939 0.337481 5.6225e-23)
(0.97368 0.290684 -7.18711e-22)
(0.989566 0.249531 -6.67866e-22)
(0.225053 0.226534 0)
(0.495163 0.459463 4.92277e-22)
(0.67383 0.547401 0)
(0.779424 0.548462 0)
(0.844172 0.503438 0)
(0.884883 0.44333 -8.8854e-23)
(0.91407 0.383401 7.87188e-22)
(0.937119 0.330019 -1.87972e-22)
(0.956269 0.283996 -6.62011e-22)
(0.974712 0.242388 -6.91685e-22)
(0.212418 0.22879 0)
(0.469158 0.459377 -4.92279e-22)
(0.642988 0.542645 6.22776e-22)
(0.748077 0.540267 0)
(0.815108 0.493524 9.94951e-22)
(0.859082 0.433189 0)
(0.891658 0.373854 -6.37439e-22)
(0.917702 0.321402 5.78873e-22)
(0.939465 0.276434 8.68678e-22)
(0.960479 0.235924 6.93166e-22)
(0.199125 0.229416 -1.13111e-21)
(0.442383 0.456338 0)
(0.611732 0.534813 -5.34833e-22)
(0.716716 0.529361 -7.3597e-23)
(0.786315 0.481415 -2.11984e-21)
(0.833695 0.421308 0)
(0.869703 0.362918 7.7284e-22)
(0.898748 0.311645 4.84144e-23)
(0.923097 0.267879 8.93006e-22)
(0.946201 0.228857 9.11099e-25)
(0.185334 0.228365 1.20369e-21)
(0.415118 0.450314 -6.09308e-23)
(0.580345 0.523918 -1.02394e-22)
(0.685582 0.51578 -8.56887e-23)
(0.757979 0.46715 1.12489e-21)
(0.808861 0.407718 -1.03119e-21)
(0.848309 0.350618 -7.72844e-22)
(0.880335 0.300775 -6.27294e-22)
(0.90723 0.258377 -1.01167e-21)
(0.932249 0.22095 9.55466e-22)
(0.171206 0.225602 -8.52974e-23)
(0.387645 0.441303 -1.06432e-21)
(0.549108 0.509992 0)
(0.654912 0.499573 7.26406e-22)
(0.73028 0.450778 8.20052e-23)
(0.784715 0.392461 1.03119e-21)
(0.82758 0.336984 -1.06307e-22)
(0.862545 0.288816 -6.29841e-22)
(0.891935 0.247969 0)
(0.918776 0.212215 -8.50715e-22)
(0.15691 0.221115 1.04261e-22)
(0.360246 0.429325 1.13593e-21)
(0.518296 0.49309 0)
(0.624934 0.480809 -2.49536e-23)
(0.703393 0.432362 9.02281e-23)
(0.761387 0.375586 0)
(0.807616 0.322052 9.60358e-22)
(0.845457 0.275794 7.19239e-22)
(0.877275 0.236676 1.42368e-22)
(0.905863 0.202691 -1.1991e-22)
(0.142613 0.214908 0)
(0.333199 0.414431 1.60789e-21)
(0.488178 0.473291 -1.43761e-22)
(0.595867 0.45957 7.9332e-23)
(0.677484 0.411972 8.02748e-22)
(0.739002 0.35715 1.43435e-21)
(0.788514 0.305866 -1.08769e-21)
(0.829145 0.261742 0)
(0.863306 0.224524 0)
(0.893577 0.192401 0)
(0.128485 0.207003 -8.01384e-24)
(0.306778 0.396694 -1.34873e-21)
(0.459013 0.450693 1.58143e-22)
(0.567925 0.435953 -1.11254e-21)
(0.652712 0.389692 -6.97081e-22)
(0.71768 0.337217 2.36628e-22)
(0.770365 0.288477 -1.07989e-21)
(0.81368 0.246701 7.35655e-22)
(0.850085 0.211544 8.17535e-22)
(0.881974 0.181371 -6.48245e-22)
(0.114693 0.197442 -1.03998e-21)
(0.281247 0.376213 -1.11087e-22)
(0.431049 0.425415 1.42117e-21)
(0.541306 0.410071 1.13301e-21)
(0.629229 0.365615 0)
(0.697534 0.315863 -1.35869e-21)
(0.753255 0.269942 -5.08001e-23)
(0.799129 0.230715 -9.46366e-22)
(0.837665 0.197773 -5.73468e-22)
(0.8711 0.169636 5.16504e-22)
(0.101397 0.186281 2.42995e-21)
(0.25686 0.353111 0)
(0.404524 0.397595 -2.936e-21)
(0.516201 0.38205 -9.90367e-22)
(0.607176 0.339844 -1.19494e-22)
(0.678671 0.293168 0)
(0.737267 0.250326 1.12252e-21)
(0.785556 0.213839 -9.12378e-22)
(0.826094 0.183255 -7.11653e-22)
(0.860996 0.157236 5.54124e-22)
(0.0887552 0.173598 -1.25765e-21)
(0.233858 0.327534 -9.76125e-22)
(0.379659 0.367388 1.70462e-21)
(0.492787 0.352029 -1.58824e-22)
(0.586687 0.312493 0)
(0.66119 0.269221 0)
(0.722478 0.229699 0)
(0.773019 0.196128 1.85578e-21)
(0.815419 0.168036 7.11655e-22)
(0.851697 0.144215 -5.54123e-22)
(0.0769147 0.159482 -1.2479e-21)
(0.212467 0.29965 9.64905e-22)
(0.356661 0.334968 1.03885e-22)
(0.471228 0.32016 0)
(0.567884 0.283683 -1.03668e-21)
(0.645184 0.244118 -7.10898e-22)
(0.708957 0.208139 -8.03792e-23)
(0.761574 0.177646 1.43567e-22)
(0.805683 0.152169 -1.86857e-22)
(0.843235 0.130624 7.55277e-23)
(0.0660142 0.144041 1.40923e-21)
(0.192896 0.269644 -1.30213e-22)
(0.33572 0.300523 -1.08871e-21)
(0.451674 0.286605 2.50065e-22)
(0.55088 0.253543 7.72823e-22)
(0.630737 0.217963 1.01217e-21)
(0.696769 0.185727 -8.29441e-23)
(0.751269 0.158461 -4.73204e-22)
(0.796925 0.13571 0)
(0.835639 0.116513 7.18863e-23)
(0.0561808 0.127396 9.40684e-23)
(0.175337 0.237722 0)
(0.317008 0.264258 -3.12321e-23)
(0.43426 0.251538 0)
(0.535774 0.222212 -1.10302e-21)
(0.617925 0.190863 8.53292e-22)
(0.685973 0.162552 0)
(0.74215 0.138646 1.1018e-23)
(0.78918 0.11872 0)
(0.828935 0.101937 0)
(0.0475294 0.109679 1.88883e-22)
(0.159958 0.204106 -1.23224e-21)
(0.300678 0.226388 1.01828e-21)
(0.419106 0.21514 -1.79711e-22)
(0.522657 0.189834 4.7629e-22)
(0.606815 0.162934 1.3145e-22)
(0.676621 0.138705 0)
(0.734258 0.118275 -3.85714e-22)
(0.782481 0.101264 -1.04121e-22)
(0.823145 0.0869546 -3.10355e-22)
(0.0401607 0.0910362 8.10993e-22)
(0.14691 0.16903 -1.82019e-21)
(0.286863 0.18714 1.74367e-22)
(0.406317 0.177603 -7.46743e-22)
(0.511606 0.15656 -8.51548e-23)
(0.597466 0.134294 -8.71946e-22)
(0.668758 0.114283 0)
(0.727626 0.0974291 5.26546e-22)
(0.776855 0.0834068 -9.71257e-23)
(0.818289 0.0716244 7.06616e-22)
(0.0341603 0.0716219 -8.10993e-22)
(0.136318 0.132743 6.66332e-22)
(0.275674 0.146752 -1.19778e-22)
(0.395979 0.139124 8.78713e-22)
(0.502686 0.122545 5.00183e-22)
(0.589927 0.105066 5.36908e-23)
(0.662421 0.0893856 -4.50899e-23)
(0.722285 0.0761903 -5.90184e-22)
(0.772325 0.0652189 4.43427e-24)
(0.814384 0.0560076 -2.3497e-22)
(0.029598 0.0515989 4.19283e-22)
(0.128283 0.0955041 0)
(0.267203 0.105468 4.92883e-22)
(0.388163 0.0999058 0)
(0.49595 0.08795 7.06258e-23)
(0.584238 0.0753785 -5.92357e-23)
(0.657641 0.0641152 0)
(0.718258 0.0546433 0)
(0.768911 0.0467716 0)
(0.811443 0.0401665 0)
(0.0265267 0.0311364 -3.68186e-22)
(0.122884 0.0575786 -1.33729e-22)
(0.261517 0.0635395 -4.92883e-22)
(0.382923 0.0601568 0)
(0.491437 0.0529375 0)
(0.580429 0.04536 2.73462e-23)
(0.654442 0.0385767 -1.10703e-22)
(0.715564 0.0328749 -1.34901e-22)
(0.766627 0.0281379 -1.28922e-22)
(0.809477 0.0241645 2.10074e-23)
(0.0249821 0.0104084 -6.62379e-24)
(0.120171 0.019239 1.45001e-22)
(0.258663 0.0212231 -7.03519e-24)
(0.380295 0.0200879 2.41162e-23)
(0.489174 0.0176738 -9.69844e-24)
(0.578519 0.0151422 0)
(0.652839 0.0128769 8.77378e-23)
(0.714214 0.0109732 1.34901e-22)
(0.765483 0.00939179 9.77256e-23)
(0.808492 0.0080656 1.49404e-23)
(0.0249821 -0.0104084 -6.62379e-24)
(0.120171 -0.019239 1.45001e-22)
(0.258663 -0.0212231 -7.03519e-24)
(0.380295 -0.0200879 2.41162e-23)
(0.489174 -0.0176738 -9.69844e-24)
(0.578519 -0.0151422 0)
(0.652839 -0.0128769 7.7197e-23)
(0.714214 -0.0109732 1.43765e-22)
(0.765483 -0.00939179 1.0398e-22)
(0.808492 -0.0080656 0)
(0.0265267 -0.0311364 -4.70379e-22)
(0.122884 -0.0575786 -1.75281e-22)
(0.261517 -0.0635395 -5.22705e-22)
(0.382923 -0.0601568 2.49564e-23)
(0.491437 -0.0529375 0)
(0.580429 -0.04536 -2.73462e-23)
(0.654442 -0.0385767 -6.47721e-23)
(0.715564 -0.0328749 -1.34901e-22)
(0.766627 -0.0281379 -7.9037e-23)
(0.809477 -0.0241645 -2.10074e-23)
(0.029598 -0.0515989 4.19283e-22)
(0.128283 -0.0955041 0)
(0.267203 -0.105468 4.92883e-22)
(0.388163 -0.0999058 0)
(0.49595 -0.08795 7.06258e-23)
(0.584238 -0.0753785 -5.92357e-23)
(0.657641 -0.0641152 0)
(0.718258 -0.0546433 0)
(0.768911 -0.0467716 0)
(0.811443 -0.0401665 0)
(0.0341603 -0.0716219 -8.10993e-22)
(0.136318 -0.132743 5.19068e-22)
(0.275674 -0.146752 1.19778e-22)
(0.395979 -0.139124 6.00935e-22)
(0.502686 -0.122545 6.5128e-22)
(0.589927 -0.105066 -5.36908e-23)
(0.662421 -0.0893856 4.50899e-23)
(0.722285 -0.0761903 -4.62909e-22)
(0.772325 -0.0652189 -4.43427e-24)
(0.814384 -0.0560076 -3.93948e-22)
(0.0401607 -0.0910362 8.10993e-22)
(0.14691 -0.16903 6.34794e-22)
(0.286863 -0.18714 -1.74367e-22)
(0.406317 -0.177603 -7.32903e-22)
(0.511606 -0.15656 6.3249e-23)
(0.597466 -0.134294 -8.71946e-22)
(0.668758 -0.114283 0)
(0.727626 -0.0974291 5.26546e-22)
(0.776855 -0.0834068 9.71257e-23)
(0.818289 -0.0716244 5.43012e-22)
(0.0475294 -0.109679 -1.88883e-22)
(0.159958 -0.204106 1.23224e-21)
(0.300678 -0.226388 7.95715e-22)
(0.419106 -0.21514 1.79711e-22)
(0.522657 -0.189834 6.00204e-22)
(0.606815 -0.162934 -1.97968e-22)
(0.676621 -0.138705 8.71871e-23)
(0.734258 -0.118275 -6.33033e-22)
(0.782481 -0.101264 1.04121e-22)
(0.823145 -0.0869546 -3.10355e-22)
(0.0561808 -0.127396 -9.40684e-23)
(0.175337 -0.237722 0)
(0.317008 -0.264258 -3.12321e-23)
(0.43426 -0.251538 0)
(0.535774 -0.222212 -1.10302e-21)
(0.617925 -0.190863 8.53292e-22)
(0.685973 -0.162552 0)
(0.74215 -0.138646 1.1018e-23)
(0.78918 -0.11872 0)
(0.828935 -0.101937 0)
(0.0660142 -0.144041 1.40923e-21)
(0.192896 -0.269644 1.30213e-22)
(0.33572 -0.300523 -7.66866e-22)
(0.451674 -0.286605 -1.62988e-22)
(0.55088 -0.253543 1.30055e-21)
(0.630737 -0.217963 6.01054e-22)
(0.696769 -0.185727 8.29441e-23)
(0.751269 -0.158461 -5.9173e-22)
(0.796925 -0.13571 9.97987e-23)
(0.835639 -0.116513 -7.18863e-23)
(0.0769147 -0.159482 -1.57056e-21)
(0.212467 -0.29965 9.87349e-22)
(0.356661 -0.334968 9.55171e-23)
(0.471228 -0.32016 -1.66871e-22)
(0.567884 -0.283683 -1.03668e-21)
(0.645184 -0.244118 -9.02321e-22)
(0.708957 -0.208139 8.03792e-23)
(0.761574 -0.177646 -8.72695e-23)
(0.805683 -0.152169 1.86857e-22)
(0.843235 -0.130624 -7.55277e-23)
(0.0887552 -0.173598 -1.25765e-21)
(0.233858 -0.327534 -9.76125e-22)
(0.379659 -0.367388 1.32505e-21)
(0.492787 -0.352029 1.58824e-22)
(0.586687 -0.312493 0)
(0.66119 -0.269221 0)
(0.722478 -0.229699 0)
(0.773019 -0.196128 1.85578e-21)
(0.815419 -0.168036 7.11655e-22)
(0.851697 -0.144215 -5.54123e-22)
(0.101397 -0.186281 2.42995e-21)
(0.25686 -0.353111 0)
(0.404524 -0.397595 -2.936e-21)
(0.516201 -0.38205 -1.13301e-21)
(0.607176 -0.339844 0)
(0.678671 -0.293168 0)
(0.737267 -0.250326 1.12252e-21)
(0.785556 -0.213839 -9.12378e-22)
(0.826094 -0.183255 -7.11653e-22)
(0.860996 -0.157236 5.54124e-22)
(0.114693 -0.197442 -1.30462e-21)
(0.281247 -0.376213 1.11087e-22)
(0.431049 -0.425415 1.42117e-21)
(0.541306 -0.410071 1.26766e-21)
(0.629229 -0.365615 -1.12805e-22)
(0.697534 -0.315863 -1.35869e-21)
(0.753255 -0.269942 -5.08001e-23)
(0.799129 -0.230715 -7.3816e-22)
(0.837665 -0.197773 -7.48776e-22)
(0.8711 -0.169636 5.16504e-22)
(0.128485 -0.207003 8.01384e-24)
(0.306778 -0.396694 -1.52325e-21)
(0.459013 -0.450693 -1.58143e-22)
(0.567925 -0.435953 -8.60255e-22)
(0.652712 -0.389692 -7.05834e-22)
(0.71768 -0.337217 -2.5466e-22)
(0.770365 -0.288477 -1.06354e-21)
(0.81368 -0.246701 9.48864e-22)
(0.850085 -0.211544 5.04704e-22)
(0.881974 -0.181371 -3.84763e-22)
(0.142613 -0.214908 0)
(0.333199 -0.414431 1.26408e-21)
(0.488178 -0.473291 1.43761e-22)
(0.595867 -0.45957 7.9332e-23)
(0.677484 -0.411972 8.02748e-22)
(0.739002 -0.35715 1.13112e-21)
(0.788514 -0.305866 -9.53327e-22)
(0.829145 -0.261742 1.01153e-22)
(0.863306 -0.224524 0)
(0.893577 -0.192401 0)