/*--------------------------------*- C++ -*----------------------------------*\
  =========                 |
  \\      /  F ield         | OpenFOAM: The Open Source CFD Toolbox
   \\    /   O peration     | Website:  https://openfoam.org
    \\  /    A nd           | Version:  7
     \\/     M anipulation  |
\*---------------------------------------------------------------------------*/
FoamFile
{
    version     2.0;
    format      ascii;
    class       volScalarField;
    location    "3.4";
    object      rho;
}
// * * * * * * * * * * * * * * * * * * * * * * * * * * * * * * * * * * * * * //

dimensions      [1 -3 0 0 0 0 0];

internalField   nonuniform List<scalar> 
1575
(
1.40001
1.40001
1.40001
1.40001
1.40001
1.40001
1.40001
3.05008
5.33657
5.5083
5.59127
5.68518
5.76329
5.83398
5.89245
1.40001
1.40001
1.40001
1.40001
1.40001
1.40001
1.40001
2.9492
5.27177
5.48445
5.56192
5.64536
5.71493
5.77402
5.83223
1.40001
1.40001
1.40001
1.40001
1.40001
1.40001
1.40001
2.73767
5.18092
5.45096
5.52103
5.59909
5.66879
5.72359
5.75234
1.40001
1.40001
1.40001
1.40001
1.40001
1.40001
1.40001
2.44129
5.03868
5.4235
5.46667
5.51452
5.54702
5.55625
5.57999
1.40001
1.40001
1.40001
1.40001
1.40001
1.40001
1.40001
2.0504
4.81305
5.40725
5.41165
5.43361
5.44344
5.40298
5.41043
1.40001
1.40001
1.40001
1.40001
1.40001
1.40001
1.40001
1.62213
4.47638
5.41752
5.35883
5.31401
5.23926
4.94199
4.13557
1.40001
1.40001
1.40001
1.40001
1.40001
1.40001
1.40001
1.41368
3.83412
5.23335
5.19955
5.14184
4.99004
4.66437
3.87683
1.40001
1.40001
1.40001
1.40001
1.40001
1.40001
1.40001
1.39994
2.97581
5.02687
5.10259
5.01719
4.81356
4.48255
3.729
1.40001
1.40001
1.40001
1.40001
1.40001
1.40001
1.40001
1.39999
2.07091
4.73299
5.07533
4.93076
4.70758
4.33763
3.72716
1.40001
1.40001
1.40001
1.40001
1.40001
1.40001
1.40001
1.4
1.49303
3.94651
4.94692
4.79757
4.60629
4.24595
3.75748
1.40001
1.40001
1.40001
1.40001
1.40001
1.40001
1.40001
1.4
1.4006
2.7604
4.7356
4.74843
4.54652
4.2218
3.8084
1.40001
1.40001
1.40001
1.40001
1.40001
1.40001
1.40001
1.40001
1.4
1.69088
4.18119
4.79727
4.53884
4.22481
3.84993
1.40001
1.40001
1.40001
1.40001
1.40001
1.40001
1.40001
1.40001
1.4
1.41068
2.99258
4.62065
4.52496
4.22423
3.8911
1.40001
1.40001
1.40001
1.40001
1.40001
1.40001
1.40001
1.40001
1.4
1.40001
1.77463
4.02344
4.58109
4.27791
3.98049
1.40001
1.40001
1.40001
1.40001
1.40001
1.40001
1.40001
1.40001
1.40001
1.40001
1.41771
2.69974
4.41763
4.33069
4.0531
1.40001
1.40001
1.40001
1.40001
1.40001
1.40001
1.40001
1.40001
1.40001
1.40001
1.40011
1.64774
3.6148
4.41693
4.16073
1.40001
1.40001
1.40001
1.40001
1.40001
1.40001
1.40001
1.40001
1.40001
1.40001
1.40001
1.40794
2.21511
4.0178
4.22534
1.40001
1.40001
1.40001
1.40001
1.40001
1.40001
1.40001
1.40001
1.40001
1.40001
1.40001
1.40006
1.48935
2.88838
4.11173
1.40001
1.40001
1.40001
1.40001
1.40001
1.40001
1.40001
1.40001
1.40001
1.40001
1.40001
1.40001
1.40168
1.73064
3.36386
1.40001
1.40001
1.40001
1.40001
1.40001
1.40001
1.40001
1.40001
1.40001
1.40001
1.40001
1.40001
1.40001
1.41582
2.05428
1.40001
1.40001
1.40001
1.40001
1.40001
1.40001
1.40001
1.40001
1.40001
1.40001
1.40001
1.40001
1.40001
1.40017
1.45859
1.40001
1.40001
1.40001
1.40001
1.40001
1.40001
1.40001
1.40001
1.40001
1.40001
1.40001
1.40001
1.40001
1.40001
1.40102
1.40001
1.40001
1.40001
1.40001
1.40001
1.40001
1.40001
1.40001
1.40001
1.40001
1.40001
1.40001
1.40001
1.40001
1.40001
1.40001
1.40001
1.40001
1.40001
1.40001
1.40001
1.40001
1.40001
1.40001
1.40001
1.40001
1.40001
1.40001
1.40001
1.40001
1.40001
1.40001
1.40001
1.40001
1.40001
1.40001
1.40001
1.40001
1.40001
1.40001
1.40001
1.40001
1.40001
1.40001
1.40001
1.49671
0.655664
0.385364
0.392201
0.420955
0.481614
0.600131
0.761825
0.872699
0.934573
0.975444
1.02201
1.07088
1.10261
1.10263
1.09659
1.08647
1.08067
1.40642
2.68107
3.06063
3.07229
3.05743
3.03345
3.00519
2.99049
2.97859
2.95598
2.92132
2.87659
2.82651
2.77384
2.7191
2.6665
2.6177
2.57517
2.53868
2.49796
2.45513
2.40792
2.35179
2.29378
2.24797
2.20963
2.17737
2.15159
2.12328
2.09292
2.0588
2.01449
1.96046
1.90857
1.86592
1.83049
1.80275
1.77991
1.75935
1.73917
1.71898
1.65717
2.2208
1.45244
1.05053
0.896272
0.812536
0.767917
0.763424
0.756094
0.780928
0.820311
0.86643
0.93007
0.999791
1.06208
1.08146
1.08432
1.08021
1.07843
1.3554
2.75124
3.21694
3.17245
3.10535
3.08453
3.05186
3.03073
3.00399
2.97142
2.9366
2.89547
2.84963
2.80038
2.74768
2.68745
2.62995
2.5855
2.54854
2.51446
2.47505
2.43198
2.38198
2.32361
2.26633
2.22169
2.18548
2.152
2.11928
2.08866
2.05763
2.02156
1.97715
1.93046
1.88658
1.84707
1.81363
1.78524
1.76036
1.7352
1.70939
1.65566
2.66639
2.05377
1.62846
1.3029
1.11998
1.00506
0.924239
0.851855
0.822398
0.843742
0.88938
0.943995
0.994069
1.0411
1.0774
1.09635
1.11444
1.19506
1.57643
2.74089
3.44535
3.3901
3.27817
3.2312
3.19216
3.17201
3.13042
3.08505
3.03914
2.993
2.94597
2.89315
2.84104
2.78285
2.71856
2.65658
2.60402
2.55979
2.51727
2.4742
2.42946
2.38066
2.32812
2.27606
2.22684
2.18146
2.13953
2.09931
2.05922
2.0226
1.98962
1.95749
1.9231
1.88448
1.84408
1.80596
1.77234
1.74014
1.70929
1.65698
3.0115
2.45297
2.06265
1.73248
1.47628
1.31663
1.17613
1.08631
1.00507
0.970198
0.940118
0.928701
0.937709
0.958944
1.00053
1.046
1.12654
1.46954
1.9299
2.33771
2.99243
3.39818
3.42014
3.40219
3.35515
3.30344
3.23124
3.17368
3.12721
3.08328
3.033
2.97929
2.92551
2.8689
2.80808
2.74028
2.67456
2.62004
2.57273
2.52786
2.48339
2.43783
2.38943
2.33681
2.28296
2.23296
2.18713
2.14309
2.09991
2.06099
2.02523
1.99114
1.95737
1.921
1.88103
1.83888
1.79717
1.7552
1.72039
1.6739
3.23229
2.75013
2.37679
2.05957
1.7793
1.59083
1.43131
1.30143
1.19533
1.11072
1.03007
0.976593
0.940771
0.943121
0.955901
1.01595
1.26595
1.7965
2.05511
2.12454
2.32767
2.83858
3.20382
3.38442
3.46832
3.41928
3.31782
3.23422
3.17743
3.13268
3.08576
3.04086
2.99036
2.93686
2.87787
2.80828
2.73551
2.67517
2.62723
2.58332
2.53964
2.49483
2.44691
2.3934
2.33495
2.27623
2.22345
2.18053
2.14402
2.11028
2.0764
2.04181
2.00545
1.96479
1.91815
1.86763
1.81869
1.77297
1.74311
1.7034
3.37837
2.97271
2.61272
2.30739
2.04582
1.82323
1.65867
1.50354
1.38799
1.28948
1.20251
1.12973
1.05055
1.01358
1.03999
1.23679
1.68665
1.92836
2.00906
1.99319
1.99716
2.12735
2.52313
3.0297
3.3391
3.40859
3.34824
3.27902
3.2116
3.153
3.10023
3.06075
3.0207
2.97148
2.9152
2.84811
2.76932
2.70061
2.65165
2.60933
2.56872
2.5281
2.4854
2.43786
2.38326
2.32228
2.26356
2.21746
2.18118
2.14872
2.11674
2.08425
2.04908
2.008
1.95742
1.8983
1.84209
1.79792
1.77334
1.73525
3.47535
3.12007
2.79664
2.50884
2.26204
2.03243
1.85575
1.69995
1.56949
1.4528
1.36061
1.25687
1.18191
1.15286
1.30537
1.74882
2.05951
2.02973
2.00202
1.96588
1.96157
1.9577
1.99653
2.2671
2.74362
3.15336
3.27053
3.29497
3.25702
3.1828
3.12151
3.06873
3.02784
2.98274
2.93219
2.87174
2.79378
2.71789
2.66358
2.62136
2.58373
2.54692
2.50831
2.46506
2.41388
2.35342
2.29233
2.24338
2.20609
2.17406
2.14304
2.11107
2.07568
2.03408
1.9823
1.92111
1.86661
1.82885
1.80636
1.76635
3.5595
3.25378
2.96046
2.68438
2.44539
2.23543
2.03904
1.87115
1.73115
1.61435
1.50076
1.39605
1.35488
1.50728
1.94034
2.25621
2.2325
2.14401
2.0657
2.02712
1.98804
1.96107
1.95575
1.95347
2.04517
2.37602
2.82097
3.12826
3.19602
3.20899
3.15626
3.08236
3.03191
2.98178
2.93778
2.88618
2.81511
2.73931
2.67969
2.63395
2.59512
2.5584
2.52121
2.48059
2.43291
2.37646
2.3177
2.2646
2.22018
2.1841
2.15316
2.12353
2.0911
2.05215
2.00269
1.94152
1.88593
1.85022
1.82912
1.78931
3.67326
3.3846
3.10512
2.84512
2.61352
2.39547
2.20126
2.03592
1.89086
1.74665
1.62817
1.57934
1.75232
2.21011
2.51796
2.47969
2.38037
2.29894
2.23011
2.17103
2.10889
2.04763
1.9915
1.93886
1.92084
1.94069
2.0937
2.47841
2.86999
3.09408
3.12246
3.10308
3.05667
3.00065
2.94983
2.89372
2.83206
2.76775
2.70987
2.66079
2.61622
2.57309
2.53087
2.488
2.44209
2.39234
2.34067
2.28715
2.23502
2.19106
2.15695
2.12801
2.09843
2.06416
2.02116
1.96401
1.90263
1.86111
1.83954
1.80062
3.77368
3.49171
3.21995
2.98431
2.75999
2.54432
2.35266
2.18332
2.01762
1.88065
1.81963
2.01953
2.52551
2.82816
2.76958
2.65132
2.55206
2.48199
2.40667
2.32278
2.23889
2.16066
2.08901
2.02806
1.97397
1.92427
1.91349
1.95455
2.16288
2.53902
2.87144
2.99098
3.0392
3.03551
2.979
2.89601
2.8441
2.79369
2.74434
2.6957
2.64729
2.59555
2.54085
2.48812
2.44106
2.39876
2.35674
2.30939
2.25541
2.20239
2.1596
2.12705
2.09726
2.06683
2.03164
1.98336
1.92213
1.86911
1.83864
1.79708
3.89036
3.61562
3.34895
3.11546
2.8963
2.68758
2.50192
2.31637
2.15571
2.09789
2.34284
2.90778
3.18904
3.09375
2.93479
2.81465
2.73721
2.65486
2.56658
2.48024
2.39354
2.30831
2.22615
2.1512
2.08031
2.01424
1.95478
1.91837
1.89984
1.9501
2.17543
2.51257
2.80434
2.94296
2.94135
2.91608
2.86807
2.82342
2.78267
2.73257
2.67872
2.61661
2.54787
2.49172
2.44929
2.41111
2.37233
2.32834
2.27389
2.21392
2.16395
2.12784
2.09712
2.0683
2.03679
1.995
1.93861
1.88067
1.83986
1.7937
3.98816
3.70915
3.4676
3.24134
3.01701
2.81872
2.62432
2.45254
2.41153
2.7096
3.29865
3.60318
3.48309
3.28445
3.11949
3.00802
2.91522
2.82096
2.72499
2.62989
2.53508
2.44283
2.35354
2.26948
2.19121
2.1127
2.03702
1.9644
1.8989
1.87406
1.8663
1.93539
2.15592
2.47567
2.73575
2.82228
2.84584
2.84761
2.81741
2.765
2.6971
2.6174
2.54977
2.50421
2.46649
2.42746
2.3862
2.33993
2.28475
2.22195
2.169
2.1292
2.09588
2.06665
2.03499
1.99525
1.94474
1.89244
1.84896
1.80303
4.0759
3.8388
3.60232
3.37263
3.15585
2.9543
2.74339
2.78469
3.18637
3.7544
3.9759
3.85675
3.6639
3.49579
3.35231
3.22072
3.09861
2.98602
2.8786
2.7741
2.67005
2.56853
2.47271
2.38289
2.30007
2.21769
2.14038
2.06009
1.97983
1.90603
1.84292
1.81839
1.80993
1.89092
2.13445
2.42085
2.62673
2.76066
2.77797
2.74109
2.66076
2.58759
2.54657
2.51605
2.48346
2.44645
2.405
2.35364
2.28278
2.21296
2.16924
2.13997
2.11649
2.08831
2.05031
2.00148
1.94954
1.89918
1.86088
1.82855
4.07199
3.97605
3.75519
3.49906
3.28409
3.07334
3.18206
3.75714
4.33625
4.45996
4.28716
4.04839
3.87082
3.72367
3.57427
3.42581
3.28527
3.15353
3.02777
2.90791
2.79251
2.67993
2.57266
2.47369
2.38364
2.29608
2.21394
2.13106
2.05039
1.97024
1.89426
1.8294
1.7802
1.75583
1.75298
1.84606
2.06131
2.34601
2.5909
2.6233
2.59955
2.58759
2.56132
2.53916
2.51084
2.46849
2.41696
2.34974
2.26991
2.21153
2.17403
2.13914
2.10217
2.06478
2.02009
1.97771
1.94914
1.92207
1.89393
1.9251
3.60591
4.01803
3.8861
3.63367
3.4188
3.65567
4.36399
4.93221
4.95751
4.76791
4.52366
4.31088
4.12726
3.95485
3.78594
3.61785
3.45167
3.29548
3.151
3.01701
2.89188
2.77259
2.65579
2.54457
2.44894
2.36113
2.27685
2.19168
2.10799
2.0264
1.94634
1.87104
1.80682
1.74891
1.70279
1.6579
1.67238
1.76576
2.01003
2.26192
2.41565
2.51315
2.52612
2.49484
2.45274
2.41409
2.36235
2.30189
2.26899
2.23929
2.19628
2.14692
2.09784
2.05954
2.02204
1.98893
1.96911
1.98178
2.0355
2.25124
2.35382
3.78441
3.87312
3.88251
4.32869
5.10364
5.52759
5.52316
5.27182
4.98635
4.74827
4.53135
4.31829
4.12304
3.93982
3.75994
3.57784
3.40459
3.24709
3.09942
2.96088
2.84094
2.73198
2.61488
2.4973
2.39842
2.308
2.21415
2.13059
2.0586
1.98636
1.91397
1.84351
1.77058
1.69964
1.63387
1.59292
1.56588
1.59323
1.7245
1.93802
2.18697
2.38496
2.40388
2.38524
2.36882
2.32907
2.28845
2.24834
2.20166
2.14799
2.10085
2.06946
2.05054
2.04099
2.05806
2.12198
2.27433
2.46958
2.6893
1.531
2.6967
3.48589
4.97133
5.97422
6.00997
5.90173
5.7405
5.49479
5.21442
4.94736
4.70883
4.46608
4.24071
4.03698
3.85126
3.68331
3.51969
3.35276
3.18972
3.03128
2.87656
2.74725
2.65823
2.57146
2.46558
2.35692
2.25049
2.15356
2.07387
2.0013
1.93089
1.85976
1.78579
1.71674
1.64946
1.59887
1.55534
1.53
1.5126
1.55144
1.68161
1.92668
2.12808
2.21726
2.27478
2.284
2.2698
2.22937
2.17471
2.13592
2.09905
2.08394
2.10293
2.18042
2.34874
2.581
2.77032
2.86219
2.86758
1.40402
1.62955
3.0477
6.32302
6.65222
6.19701
5.93772
5.76314
5.51953
5.23511
4.94806
4.69846
4.47678
4.26255
4.05549
3.85511
3.6616
3.4755
3.30258
3.14849
3.02197
2.90507
2.78768
2.6687
2.54274
2.42047
2.31683
2.24932
2.18483
2.10056
2.02044
1.95471
1.90102
1.84362
1.77912
1.70138
1.62246
1.56253
1.51767
1.48114
1.45565
1.44982
1.49579
1.64568
1.84628
2.01866
2.14957
2.18407
2.17142
2.15482
2.1539
2.18369
2.27828
2.45185
2.66582
2.86913
3.00542
3.03339
3.01583
2.97363
1.40003
1.41034
3.29556
6.16735
6.30174
5.954
5.75474
5.56724
5.35062
5.11348
4.85904
4.64939
4.45596
4.25386
4.05025
3.85043
3.65491
3.46809
3.29871
3.14791
3.01107
2.88552
2.77128
2.65771
2.538
2.42544
2.32701
2.23289
2.14635
2.07366
2.01332
1.95438
1.8918
1.8223
1.75108
1.6838
1.62326
1.57347
1.52659
1.48601
1.44188
1.4119
1.37588
1.38354
1.45029
1.61948
1.83452
2.0263
2.14647
2.28489
2.41947
2.56209
2.7304
2.89005
3.01634
3.06196
3.08063
3.05673
3.01587
2.95131
1.40001
1.40022
3.52697
5.79766
5.91576
5.82104
5.74776
5.59957
5.39602
5.14464
4.89258
4.67046
4.45951
4.25271
4.04836
3.84882
3.655
3.46969
3.29816
3.1419
3.00382
2.88077
2.76556
2.65881
2.55622
2.45374
2.33737
2.21966
2.12967
2.06269
2.00932
1.95367
1.89297
1.82397
1.7466
1.67998
1.62385
1.57978
1.53408
1.48857
1.44497
1.39703
1.35566
1.32569
1.31389
1.34548
1.48268
1.75279
2.16369
2.53084
2.82757
3.07823
3.29613
3.4124
3.40118
3.31608
3.16069
3.012
2.94914
2.9076
)
;

boundaryField
{
    inlet
    {
        type            calculated;
        value           uniform 1.40001;
    }
    outlet
    {
        type            calculated;
        value           nonuniform List<scalar> 
20
(
1.65997
1.65697
1.65766
1.67373
1.70247
1.73419
1.76547
1.78848
1.79987
1.79636
1.79327
1.80283
1.82844
1.92599
2.25328
2.69174
2.8681
2.97227
2.94971
2.90504
)
;
    }
    bottom
    {
        type            symmetryPlane;
    }
    top
    {
        type            symmetryPlane;
    }
    obstacle
    {
        type            calculated;
        value           nonuniform List<scalar> 
65
(
5.89245
5.83223
5.75234
5.57999
5.41043
1.49671
0.655664
0.385364
0.392201
0.420955
0.481614
0.600131
0.761825
0.872699
0.934573
0.975444
1.02201
1.07088
1.10261
1.10263
1.09659
1.08647
1.08067
1.40642
2.68107
3.06063
3.07229
3.05743
3.03345
3.00519
2.99049
2.97859
2.95598
2.92132
2.87659
2.82651
2.77384
2.7191
2.6665
2.6177
2.57517
2.53868
2.49796
2.45513
2.40792
2.35179
2.29378
2.24797
2.20963
2.17737
2.15159
2.12328
2.09292
2.0588
2.01449
1.96046
1.90857
1.86592
1.83049
1.80275
1.77991
1.75935
1.73917
1.71898
1.65717
)
;
    }
    defaultFaces
    {
        type            empty;
    }
}


// ************************************************************************* //
