/*--------------------------------*- C++ -*----------------------------------*\
  =========                 |
  \\      /  F ield         | OpenFOAM: The Open Source CFD Toolbox
   \\    /   O peration     | Website:  https://openfoam.org
    \\  /    A nd           | Version:  7
     \\/     M anipulation  |
\*---------------------------------------------------------------------------*/
FoamFile
{
    version     2.0;
    format      ascii;
    class       volScalarField;
    location    "2.2";
    object      rho;
}
// * * * * * * * * * * * * * * * * * * * * * * * * * * * * * * * * * * * * * //

dimensions      [1 -3 0 0 0 0 0];

internalField   nonuniform List<scalar> 
6300
(
1.40001
1.40001
1.40001
1.40001
1.40001
1.40001
1.40001
1.40001
1.40001
1.40001
1.40001
1.40001
1.40001
1.40001
1.40001
3.28676
5.39089
5.47893
5.51649
5.56618
5.61392
5.66535
5.71896
5.77087
5.81661
5.8518
5.87396
5.88539
5.89316
5.90204
1.40001
1.40001
1.40001
1.40001
1.40001
1.40001
1.40001
1.40001
1.40001
1.40001
1.40001
1.40001
1.40001
1.40001
1.40001
3.22805
5.36422
5.47341
5.5125
5.56234
5.60968
5.66045
5.71316
5.76379
5.80793
5.84135
5.86197
5.87242
5.87951
5.88828
1.40001
1.40001
1.40001
1.40001
1.40001
1.40001
1.40001
1.40001
1.40001
1.40001
1.40001
1.40001
1.40001
1.40001
1.40001
3.10679
5.33259
5.46476
5.50376
5.55351
5.60047
5.65093
5.70325
5.75302
5.79567
5.82691
5.84503
5.85346
5.85872
5.86649
1.40001
1.40001
1.40001
1.40001
1.40001
1.40001
1.40001
1.40001
1.40001
1.40001
1.40001
1.40001
1.40001
1.40001
1.40001
2.92989
5.28493
5.45731
5.49401
5.54203
5.58716
5.63612
5.68711
5.73526
5.77591
5.80468
5.82014
5.82643
5.82956
5.83628
1.40001
1.40001
1.40001
1.40001
1.40001
1.40001
1.40001
1.40001
1.40001
1.40001
1.40001
1.40001
1.40001
1.40001
1.40001
2.70096
5.20621
5.45194
5.48269
5.52666
5.56804
5.61412
5.66304
5.70914
5.7473
5.77306
5.78527
5.78924
5.7907
5.79763
1.40001
1.40001
1.40001
1.40001
1.40001
1.40001
1.40001
1.40001
1.40001
1.40001
1.40001
1.40001
1.40001
1.40001
1.40001
2.42907
5.0843
5.45784
5.47743
5.51485
5.54943
5.58938
5.63354
5.67597
5.71109
5.73384
5.74199
5.74087
5.73606
5.73728
1.40001
1.40001
1.40001
1.40001
1.40001
1.40001
1.40001
1.40001
1.40001
1.40001
1.40001
1.40001
1.40001
1.40001
1.40001
2.12312
4.90964
5.47458
5.48162
5.5087
5.53361
5.56437
5.60081
5.63691
5.66537
5.68053
5.67951
5.67123
5.66096
5.66618
1.40001
1.40001
1.40001
1.40001
1.40001
1.40001
1.40001
1.40001
1.40001
1.40001
1.40001
1.40001
1.40001
1.40001
1.40001
1.80143
4.69214
5.4909
5.47014
5.49444
5.51396
5.53637
5.56347
5.59108
5.61164
5.62037
5.61273
5.59872
5.57529
5.54946
1.40001
1.40001
1.40001
1.40001
1.40001
1.40001
1.40001
1.40001
1.40001
1.40001
1.40001
1.40001
1.40001
1.40001
1.40001
1.48416
4.33643
5.49037
5.46182
5.4777
5.48532
5.49501
5.50998
5.52671
5.53782
5.53557
5.51082
5.46347
5.40871
5.37556
1.40001
1.40001
1.40001
1.40001
1.40001
1.40001
1.40001
1.40001
1.40001
1.40001
1.40001
1.40001
1.40001
1.40001
1.40001
1.40201
3.81559
5.32314
5.36769
5.40937
5.42824
5.43725
5.44334
5.44918
5.44924
5.43047
5.38919
5.32075
5.22806
5.17641
1.40001
1.40001
1.40001
1.40001
1.40001
1.40001
1.40001
1.40001
1.40001
1.40001
1.40001
1.40001
1.40001
1.40001
1.40001
1.4
3.22784
5.17993
5.33192
5.36442
5.37956
5.38095
5.37589
5.36881
5.35021
5.31536
5.24486
5.11059
4.76934
3.90824
1.40001
1.40001
1.40001
1.40001
1.40001
1.40001
1.40001
1.40001
1.40001
1.40001
1.40001
1.40001
1.40001
1.40001
1.40001
1.4
2.60074
4.98145
5.30162
5.32299
5.33334
5.32729
5.31198
5.28983
5.2504
5.19044
5.08108
4.8707
4.50733
3.5835
1.40001
1.40001
1.40001
1.40001
1.40001
1.40001
1.40001
1.40001
1.40001
1.40001
1.40001
1.40001
1.40001
1.40001
1.40001
1.4
1.9562
4.75592
5.32759
5.30199
5.29738
5.2783
5.24781
5.20644
5.14685
5.05953
4.92247
4.67682
4.29591
3.46888
1.40001
1.40001
1.40001
1.40001
1.40001
1.40001
1.40001
1.40001
1.40001
1.40001
1.40001
1.40001
1.40001
1.40001
1.40001
1.40001
1.47529
4.18648
5.30705
5.25011
5.24722
5.22451
5.18259
5.12497
5.0457
4.93668
4.77655
4.53288
4.1248
3.46593
1.40001
1.40001
1.40001
1.40001
1.40001
1.40001
1.40001
1.40001
1.40001
1.40001
1.40001
1.40001
1.40001
1.40001
1.40001
1.40001
1.40058
3.34451
5.10341
5.21406
5.21372
5.17878
5.12514
5.05225
4.95461
4.82853
4.65342
4.41194
4.02126
3.50466
1.40001
1.40001
1.40001
1.40001
1.40001
1.40001
1.40001
1.40001
1.40001
1.40001
1.40001
1.40001
1.40001
1.40001
1.40001
1.40001
1.4
2.37906
4.87747
5.22479
5.18833
5.15085
5.08723
4.99781
4.88034
4.73613
4.55404
4.31606
3.96019
3.54533
1.40001
1.40001
1.40001
1.40001
1.40001
1.40001
1.40001
1.40001
1.40001
1.40001
1.40001
1.40001
1.40001
1.40001
1.40001
1.40001
1.4
1.58564
4.41441
5.26918
5.17856
5.10534
5.02933
4.93419
4.81299
4.66302
4.48015
4.2436
3.93005
3.58584
1.40001
1.40001
1.40001
1.40001
1.40001
1.40001
1.40001
1.40001
1.40001
1.40001
1.40001
1.40001
1.40001
1.40001
1.40001
1.40001
1.4
1.40441
3.51546
5.06657
5.06379
5.02695
4.96106
4.86888
4.74936
4.60694
4.42192
4.19282
3.91953
3.62012
1.40001
1.40001
1.40001
1.40001
1.40001
1.40001
1.40001
1.40001
1.40001
1.40001
1.40001
1.40001
1.40001
1.40001
1.40001
1.40001
1.40001
1.39996
2.36658
4.84992
5.04353
4.99562
4.92638
4.83413
4.71601
4.57196
4.38972
4.17378
3.92792
3.66145
1.40001
1.40001
1.40001
1.40001
1.40001
1.40001
1.40001
1.40001
1.40001
1.40001
1.40001
1.40001
1.40001
1.40001
1.40001
1.40001
1.40001
1.4
1.5566
4.16748
5.03202
4.96474
4.89177
4.79807
4.68221
4.53964
4.36586
4.16576
3.93988
3.69691
1.40001
1.40001
1.40001
1.40001
1.40001
1.40001
1.40001
1.40001
1.40001
1.40001
1.40001
1.40001
1.40001
1.40001
1.40001
1.40001
1.40001
1.4
1.40255
2.98751
4.86041
4.90695
4.85468
4.77683
4.66498
4.52461
4.3572
4.16873
3.95794
3.73392
1.40001
1.40001
1.40001
1.40001
1.40001
1.40001
1.40001
1.40001
1.40001
1.40001
1.40001
1.40001
1.40001
1.40001
1.40001
1.40001
1.40001
1.4
1.39999
1.77462
4.49135
4.97491
4.86775
4.77156
4.64891
4.50856
4.34854
4.17117
3.97561
3.76984
1.40001
1.40001
1.40001
1.40001
1.40001
1.40001
1.40001
1.40001
1.40001
1.40001
1.40001
1.40001
1.40001
1.40001
1.40001
1.40001
1.40001
1.40001
1.4
1.41906
3.38897
4.82742
4.82101
4.74397
4.63042
4.49781
4.34536
4.17558
3.99333
3.80352
1.40001
1.40001
1.40001
1.40001
1.40001
1.40001
1.40001
1.40001
1.40001
1.40001
1.40001
1.40001
1.40001
1.40001
1.40001
1.40001
1.40001
1.40001
1.4
1.40001
1.96891
4.5475
4.89101
4.76152
4.63632
4.50013
4.34814
4.18298
4.01163
3.83531
1.40001
1.40001
1.40001
1.40001
1.40001
1.40001
1.40001
1.40001
1.40001
1.40001
1.40001
1.40001
1.40001
1.40001
1.40001
1.40001
1.40001
1.40001
1.40001
1.4
1.4453
3.51471
4.7861
4.73693
4.62777
4.4975
4.34857
4.19152
4.0303
3.86404
1.40001
1.40001
1.40001
1.40001
1.40001
1.40001
1.40001
1.40001
1.40001
1.40001
1.40001
1.40001
1.40001
1.40001
1.40001
1.40001
1.40001
1.40001
1.40001
1.40001
1.4002
2.0464
4.43733
4.77753
4.64804
4.51163
4.3618
4.21114
4.05779
3.89905
1.40001
1.40001
1.40001
1.40001
1.40001
1.40001
1.40001
1.40001
1.40001
1.40001
1.40001
1.40001
1.40001
1.40001
1.40001
1.40001
1.40001
1.40001
1.40001
1.40001
1.40001
1.45669
3.37351
4.68249
4.63752
4.50936
4.37199
4.2305
4.08546
3.93663
1.40001
1.40001
1.40001
1.40001
1.40001
1.40001
1.40001
1.40001
1.40001
1.40001
1.40001
1.40001
1.40001
1.40001
1.40001
1.40001
1.40001
1.40001
1.40001
1.40001
1.40001
1.40044
1.97011
4.2105
4.66651
4.53209
4.4068
4.26961
4.1266
3.98086
1.40001
1.40001
1.40001
1.40001
1.40001
1.40001
1.40001
1.40001
1.40001
1.40001
1.40001
1.40001
1.40001
1.40001
1.40001
1.40001
1.40001
1.40001
1.40001
1.40001
1.40001
1.40001
1.44218
2.95628
4.56035
4.54759
4.42984
4.29982
4.1611
4.01706
1.40001
1.40001
1.40001
1.40001
1.40001
1.40001
1.40001
1.40001
1.40001
1.40001
1.40001
1.40001
1.40001
1.40001
1.40001
1.40001
1.40001
1.40001
1.40001
1.40001
1.40001
1.40001
1.40041
1.74874
3.87904
4.62288
4.47938
4.34421
4.20339
4.06083
1.40001
1.40001
1.40001
1.40001
1.40001
1.40001
1.40001
1.40001
1.40001
1.40001
1.40001
1.40001
1.40001
1.40001
1.40001
1.40001
1.40001
1.40001
1.40001
1.40001
1.40001
1.40001
1.40001
1.41537
2.43211
4.31791
4.50865
4.37641
4.24061
4.10149
1.40001
1.40001
1.40001
1.40001
1.40001
1.40001
1.40001
1.40001
1.40001
1.40001
1.40001
1.40001
1.40001
1.40001
1.40001
1.40001
1.40001
1.40001
1.40001
1.40001
1.40001
1.40001
1.40001
1.40013
1.54016
3.27465
4.4734
4.42924
4.30001
4.16387
1.40001
1.40001
1.40001
1.40001
1.40001
1.40001
1.40001
1.40001
1.40001
1.40001
1.40001
1.40001
1.40001
1.40001
1.40001
1.40001
1.40001
1.40001
1.40001
1.40001
1.40001
1.40001
1.40001
1.40001
1.40303
1.91962
3.89037
4.46742
4.35576
4.21944
1.40001
1.40001
1.40001
1.40001
1.40001
1.40001
1.40001
1.40001
1.40001
1.40001
1.40001
1.40001
1.40001
1.40001
1.40001
1.40001
1.40001
1.40001
1.40001
1.40001
1.40001
1.40001
1.40001
1.40001
1.40002
1.43435
2.4933
4.20933
4.39282
4.27566
1.40001
1.40001
1.40001
1.40001
1.40001
1.40001
1.40001
1.40001
1.40001
1.40001
1.40001
1.40001
1.40001
1.40001
1.40001
1.40001
1.40001
1.40001
1.40001
1.40001
1.40001
1.40001
1.40001
1.40001
1.40001
1.40043
1.55717
3.12694
4.30477
4.32055
1.40001
1.40001
1.40001
1.40001
1.40001
1.40001
1.40001
1.40001
1.40001
1.40001
1.40001
1.40001
1.40001
1.40001
1.40001
1.40001
1.40001
1.40001
1.40001
1.40001
1.40001
1.40001
1.40001
1.40001
1.40001
1.40001
1.40414
1.83012
3.61384
4.31584
1.40001
1.40001
1.40001
1.40001
1.40001
1.40001
1.40001
1.40001
1.40001
1.40001
1.40001
1.40001
1.40001
1.40001
1.40001
1.40001
1.40001
1.40001
1.40001
1.40001
1.40001
1.40001
1.40001
1.40001
1.40001
1.40001
1.40003
1.42452
2.21646
3.91581
1.40001
1.40001
1.40001
1.40001
1.40001
1.40001
1.40001
1.40001
1.40001
1.40001
1.40001
1.40001
1.40001
1.40001
1.40001
1.40001
1.40001
1.40001
1.40001
1.40001
1.40001
1.40001
1.40001
1.40001
1.40001
1.40001
1.40001
1.4003
1.48638
2.63898
1.40001
1.40001
1.40001
1.40001
1.40001
1.40001
1.40001
1.40001
1.40001
1.40001
1.40001
1.40001
1.40001
1.40001
1.40001
1.40001
1.40001
1.40001
1.40001
1.40001
1.40001
1.40001
1.40001
1.40001
1.40001
1.40001
1.40001
1.40001
1.40175
1.60803
1.40001
1.40001
1.40001
1.40001
1.40001
1.40001
1.40001
1.40001
1.40001
1.40001
1.40001
1.40001
1.40001
1.40001
1.40001
1.40001
1.40001
1.40001
1.40001
1.40001
1.40001
1.40001
1.40001
1.40001
1.40001
1.40001
1.40001
1.40001
1.40001
1.40703
1.40001
1.40001
1.40001
1.40001
1.40001
1.40001
1.40001
1.40001
1.40001
1.40001
1.40001
1.40001
1.40001
1.40001
1.40001
1.40001
1.40001
1.40001
1.40001
1.40001
1.40001
1.40001
1.40001
1.40001
1.40001
1.40001
1.40001
1.40001
1.40001
1.40006
1.40001
1.40001
1.40001
1.40001
1.40001
1.40001
1.40001
1.40001
1.40001
1.40001
1.40001
1.40001
1.40001
1.40001
1.40001
1.40001
1.40001
1.40001
1.40001
1.40001
1.40001
1.40001
1.40001
1.40001
1.40001
1.40001
1.40001
1.40001
1.40001
1.40001
1.40001
1.40001
1.40001
1.40001
1.40001
1.40001
1.40001
1.40001
1.40001
1.40001
1.40001
1.40001
1.40001
1.40001
1.40001
1.40001
1.40001
1.40001
1.40001
1.40001
1.40001
1.40001
1.40001
1.40001
1.40001
1.40001
1.40001
1.40001
1.40001
1.40001
1.40001
1.40001
1.40001
1.40001
1.40001
1.40001
1.40001
1.40001
1.40001
1.40001
1.40001
1.40001
1.40001
1.40001
1.40001
1.40001
1.40001
1.40001
1.40001
1.40001
1.40001
1.40001
1.40001
1.40001
1.40001
1.40001
1.40001
1.40001
1.40001
1.40001
1.40001
1.40001
1.40001
1.40001
1.40001
1.40001
1.40001
1.40001
1.40001
1.40001
1.40001
1.40001
1.40001
1.40001
1.40001
1.40001
1.40001
1.40001
1.40001
1.40001
1.40001
1.40001
1.40001
1.40001
1.40001
1.40001
1.40001
1.40001
1.40001
1.40001
1.40001
1.40001
1.40001
1.40001
1.40001
1.40001
1.40001
1.40001
1.40001
1.40001
1.40001
1.40001
1.40001
1.40001
1.40001
1.40001
1.40001
1.40001
1.40001
1.40001
1.40001
1.40001
1.40001
1.40001
1.40001
1.40001
1.40001
1.40001
1.40001
1.40001
1.40001
1.40001
1.40001
1.40001
1.40001
1.40001
1.40001
1.40001
1.40001
1.40001
1.40001
1.40001
1.40001
1.40001
1.40001
1.40001
1.40001
1.40001
1.40001
1.40001
1.40001
1.40001
1.40001
1.40001
1.40001
1.40001
1.40001
1.40001
1.40001
1.40001
1.40001
1.40001
1.40001
1.40001
1.40001
1.40001
1.40001
1.40001
1.40001
1.40001
1.40001
1.40001
1.40001
1.40001
1.40001
1.40001
1.40001
1.40001
1.40001
1.40001
1.40001
1.40001
1.40001
1.40001
1.40001
1.40001
1.40001
1.40001
1.40001
1.40001
1.40001
1.40001
1.40001
1.40001
1.40001
1.40001
1.40001
1.40001
1.40001
1.40001
1.40001
1.40001
1.40001
1.40001
1.40001
1.40001
1.40001
1.40001
1.40001
1.40001
1.40001
1.40001
1.40001
1.40001
1.40001
1.40001
1.40001
1.40001
1.40001
1.40001
1.40001
1.40001
1.40001
1.40001
1.40001
1.40001
1.40001
1.40001
1.40001
1.40001
1.40001
1.40001
1.40001
1.40001
1.40001
1.40001
1.40001
1.40001
1.40001
1.40001
1.40001
1.40001
1.40001
1.40001
1.40001
1.40001
1.40001
1.40001
1.40001
1.40001
1.27474
0.420675
0.140959
0.145267
0.209533
0.260136
0.295959
0.381273
0.49985
0.586345
0.642553
0.70128
0.753072
0.80022
0.860918
0.905906
0.912113
0.922318
0.947163
0.972025
0.994194
1.00003
0.99731
0.994246
0.999847
1.01827
1.04333
1.051
1.04789
1.04121
1.04267
1.05414
1.07776
1.09269
1.094
1.08752
1.0687
1.05873
1.05871
1.068
1.09011
1.10459
1.10452
1.09735
1.08147
1.07141
1.07023
1.07789
1.16068
1.48373
2.30292
3.36336
3.60009
3.44147
3.34363
3.32034
3.26889
3.18214
3.10355
3.05399
3.0283
3.0217
2.99685
2.95774
2.91145
2.86059
2.82266
2.79427
2.77337
2.75834
2.73198
2.70097
2.66864
2.63197
2.59131
2.55111
2.51773
2.49293
2.47259
2.45948
2.45352
2.44061
2.41914
2.39428
2.35794
2.30641
2.26568
2.24312
2.22559
2.21184
2.20296
2.19041
2.17357
2.15234
2.11257
2.05539
2.01935
2.00031
1.9844
1.97101
1.95937
1.94476
1.92733
1.89883
1.85177
1.81712
1.80285
1.79202
1.78404
1.77966
1.76971
1.75663
1.73745
1.70063
1.66318
1.64696
1.6367
1.62733
1.62461
1.61952
1.8893
1.16907
0.724714
0.560757
0.550216
0.509653
0.472615
0.475468
0.48294
0.503853
0.53561
0.576726
0.640442
0.721702
0.793571
0.846941
0.872924
0.888758
0.913057
0.943398
0.99271
1.02607
1.02946
1.02788
1.02544
1.02782
1.03977
1.06163
1.07319
1.074
1.07349
1.07689
1.08079
1.08903
1.09856
1.09974
1.09774
1.08947
1.08322
1.08296
1.08867
1.09969
1.10832
1.10818
1.10218
1.08696
1.08712
1.14685
1.44566
1.785
2.04974
2.6709
3.24487
3.37285
3.3578
3.33436
3.26289
3.1868
3.13142
3.08628
3.06151
3.04875
3.02424
2.98519
2.9428
2.89528
2.8463
2.80968
2.78095
2.75597
2.73394
2.70968
2.6817
2.65157
2.61887
2.58324
2.54533
2.51126
2.487
2.46782
2.45258
2.4356
2.41617
2.39384
2.36453
2.32776
2.28813
2.25619
2.23605
2.22051
2.20653
2.19064
2.17281
2.15005
2.11679
2.07365
2.03397
2.00633
1.98696
1.97113
1.95607
1.94184
1.9257
1.90282
1.86777
1.83172
1.81002
1.79707
1.78643
1.77768
1.76959
1.75815
1.74102
1.71247
1.67766
1.65486
1.64288
1.63357
1.6292
1.61833
2.35851
1.71513
1.32708
1.05308
0.866638
0.735495
0.649051
0.620072
0.58619
0.566307
0.580684
0.619249
0.66846
0.729642
0.773038
0.81059
0.844603
0.875682
0.907896
0.950441
1.01204
1.07147
1.09295
1.10004
1.09803
1.08532
1.08039
1.09136
1.11176
1.13033
1.13754
1.137
1.12783
1.11647
1.11552
1.12033
1.13133
1.14029
1.14131
1.13646
1.12563
1.12143
1.12368
1.12812
1.13212
1.14623
1.21602
1.50526
1.91643
2.09065
2.07527
2.20586
2.68801
3.24202
3.49645
3.46532
3.36867
3.31018
3.24219
3.18674
3.14594
3.1078
3.07244
3.03564
2.99876
2.96217
2.92181
2.87826
2.8336
2.79412
2.763
2.73335
2.70453
2.67776
2.65222
2.62735
2.60066
2.56804
2.531
2.49849
2.47208
2.44747
2.42188
2.39465
2.37111
2.35084
2.32937
2.30044
2.26745
2.24202
2.22215
2.20219
2.17877
2.14966
2.11969
2.09394
2.0687
2.03965
2.00937
1.98444
1.96454
1.94529
1.92371
1.90048
1.87904
1.85788
1.83701
1.81772
1.8014
1.78779
1.77439
1.75874
1.74016
1.72068
1.70062
1.67986
1.66064
1.64757
1.6389
1.62279
2.72132
2.16473
1.71113
1.44805
1.25471
1.0677
0.911022
0.863157
0.821178
0.744145
0.7235
0.725553
0.713042
0.705583
0.712849
0.729615
0.754523
0.793804
0.842298
0.895727
0.963523
1.0319
1.06049
1.08186
1.11086
1.11702
1.11796
1.13189
1.15573
1.18034
1.18824
1.18614
1.17468
1.15452
1.14651
1.14855
1.15894
1.17508
1.17954
1.17876
1.17136
1.15901
1.15541
1.15778
1.17344
1.28137
1.56869
2.00768
2.18501
2.21882
2.17722
2.1591
2.23026
2.60489
3.14503
3.36928
3.41843
3.41918
3.35474
3.29425
3.23284
3.17658
3.13231
3.09668
3.06602
3.03276
2.9951
2.95152
2.90467
2.85739
2.81487
2.78107
2.75193
2.72424
2.69794
2.67341
2.64915
2.62045
2.58087
2.53642
2.50258
2.47473
2.44709
2.42341
2.40478
2.38979
2.37294
2.35083
2.31787
2.27755
2.24596
2.22026
2.19181
2.16176
2.14013
2.12347
2.10602
2.08385
2.05234
2.01636
1.98639
1.96055
1.93549
1.91395
1.8981
1.88389
1.86851
1.84973
1.82944
1.81063
1.7919
1.7721
1.75358
1.73919
1.72624
1.71147
1.69257
1.67166
1.65798
1.63754
2.95407
2.50945
2.09806
1.77228
1.56168
1.37358
1.19076
1.10349
1.04073
0.952716
0.872292
0.83609
0.799331
0.749689
0.747413
0.758312
0.773558
0.783129
0.786201
0.7983
0.826475
0.880104
0.938912
0.993882
1.05639
1.09937
1.11161
1.12549
1.14828
1.17283
1.18529
1.19238
1.1942
1.1911
1.18113
1.17912
1.18453
1.19666
1.201
1.20105
1.19879
1.19289
1.18789
1.19768
1.2955
1.66535
2.0087
2.24939
2.27211
2.25952
2.22807
2.18747
2.16218
2.19833
2.4448
2.89308
3.22671
3.39485
3.38958
3.37194
3.3192
3.25002
3.18691
3.13407
3.1028
3.07565
3.04337
3.0073
2.96708
2.91829
2.86177
2.81763
2.78934
2.76447
2.74075
2.71619
2.69116
2.66307
2.62442
2.57011
2.52048
2.49139
2.47051
2.45284
2.43995
2.43138
2.41722
2.39804
2.36971
2.32151
2.26773
2.22998
2.20353
2.18544
2.17185
2.15947
2.14374
2.12521
2.0984
2.05736
2.01441
1.98364
1.96145
1.94508
1.93127
1.91744
1.902
1.88233
1.85803
1.83485
1.81458
1.79628
1.78203
1.77033
1.75852
1.74519
1.72758
1.70304
1.68119
1.65433
3.11257
2.73511
2.3668
2.0713
1.85589
1.6398
1.43923
1.32001
1.23318
1.16091
1.0901
1.01834
0.95143
0.880864
0.859941
0.850591
0.83459
0.822751
0.815007
0.797785
0.785818
0.789522
0.806817
0.838437
0.890388
0.973608
1.04791
1.08864
1.12107
1.14637
1.16168
1.17893
1.19126
1.19223
1.19019
1.18839
1.1916
1.19817
1.20541
1.20887
1.20985
1.21046
1.22313
1.31571
1.70624
2.08754
2.2248
2.28602
2.28154
2.25608
2.23302
2.20381
2.16585
2.14189
2.15041
2.27898
2.62116
3.05978
3.28089
3.34461
3.3396
3.28952
3.22277
3.15774
3.11435
3.08726
3.05921
3.03186
3.00181
2.96096
2.90405
2.843
2.80639
2.78104
2.75908
2.73757
2.71274
2.68678
2.65462
2.60534
2.54604
2.51208
2.49277
2.47592
2.4636
2.45504
2.44109
2.42322
2.39836
2.35083
2.28331
2.23979
2.22038
2.20588
2.1948
2.18682
2.17367
2.15755
2.13726
2.09854
2.04377
2.00936
1.9928
1.9791
1.9654
1.95113
1.93504
1.9136
1.88279
1.85139
1.83283
1.82134
1.81146
1.80196
1.79116
1.77904
1.76357
1.73898
1.7069
1.66765
3.23272
2.91087
2.58456
2.29729
2.0795
1.87471
1.69158
1.55511
1.40977
1.30064
1.2512
1.19208
1.12042
1.04391
0.97826
0.935144
0.906069
0.879099
0.862803
0.849927
0.835407
0.81563
0.804566
0.802769
0.809466
0.837845
0.898969
0.963584
1.02088
1.0662
1.08946
1.11002
1.14119
1.17173
1.18622
1.19636
1.19556
1.19203
1.19295
1.1943
1.20386
1.23165
1.37019
1.71658
2.17794
2.25483
2.26418
2.26416
2.27061
2.25066
2.23052
2.20718
2.17414
2.13372
2.10538
2.09727
2.15617
2.40047
2.80161
3.12372
3.27806
3.26944
3.22963
3.17432
3.12241
3.08738
3.0628
3.04377
3.01748
2.98533
2.93841
2.87092
2.81394
2.78277
2.75898
2.74245
2.72273
2.69801
2.67108
2.63367
2.57837
2.53123
2.50867
2.49193
2.48029
2.46919
2.45073
2.42919
2.40156
2.35943
2.30088
2.25716
2.23854
2.22417
2.21206
2.20442
2.19505
2.18154
2.16161
2.12366
2.0723
2.03952
2.02339
2.00948
1.99531
1.9801
1.9622
1.93646
1.89692
1.86311
1.84925
1.83945
1.83195
1.82671
1.81756
1.80576
1.79181
1.76763
1.72663
1.67976
3.32274
3.03645
2.7428
2.49902
2.27338
2.04792
1.8801
1.7506
1.61715
1.4838
1.38802
1.31226
1.24436
1.19115
1.13841
1.07336
1.01518
0.975032
0.949725
0.935195
0.916251
0.887142
0.853371
0.82833
0.82028
0.824856
0.831302
0.845972
0.870162
0.901985
0.946353
0.990891
1.03645
1.08775
1.14807
1.18685
1.19649
1.1964
1.18193
1.18097
1.20128
1.39819
1.78634
2.14843
2.30407
2.28761
2.28237
2.26688
2.25608
2.24014
2.21756
2.19634
2.1718
2.13577
2.09889
2.07789
2.07327
2.09557
2.23028
2.53476
2.90381
3.13473
3.19732
3.17701
3.13934
3.10212
3.07636
3.05471
3.02666
2.99921
2.96089
2.90076
2.82892
2.78488
2.75898
2.73901
2.72628
2.70508
2.68081
2.65288
2.61285
2.56072
2.52025
2.49881
2.48026
2.45966
2.43771
2.41383
2.3877
2.35925
2.32665
2.28912
2.26139
2.24553
2.2316
2.21704
2.20015
2.17957
2.15501
2.12772
2.09483
2.06595
2.04686
2.03274
2.01876
2.00351
1.98455
1.95438
1.9068
1.87318
1.86071
1.85044
1.84269
1.84007
1.83334
1.8223
1.80969
1.78737
1.7434
1.69169
3.40019
3.13804
2.87509
2.64785
2.43266
2.21912
2.05416
1.90449
1.76303
1.64582
1.5538
1.46393
1.35863
1.28742
1.24398
1.19694
1.14712
1.09846
1.04488
0.996747
0.968686
0.944787
0.92101
0.903827
0.886953
0.860472
0.841089
0.838688
0.842754
0.851675
0.861889
0.880736
0.916057
0.968664
1.03091
1.08565
1.14519
1.17725
1.17179
1.19832
1.38049
1.86259
2.13596
2.28818
2.30072
2.28414
2.26306
2.23697
2.2258
2.22065
2.21093
2.19194
2.17238
2.14358
2.10283
2.0802
2.06695
2.06262
2.06609
2.11776
2.29828
2.62746
2.93068
3.09822
3.10008
3.09644
3.09357
3.06417
3.03418
3.00445
2.97023
2.92543
2.86384
2.80077
2.76451
2.7405
2.72165
2.7067
2.68454
2.66186
2.6349
2.59324
2.54146
2.50498
2.48012
2.45705
2.43318
2.40761
2.38248
2.36251
2.34487
2.32205
2.29097
2.2631
2.24239
2.22238
2.2004
2.17577
2.15004
2.12598
2.1054
2.0841
2.06259
2.04582
2.03155
2.01649
1.99787
1.969
1.92453
1.8866
1.87043
1.85999
1.85028
1.84191
1.83599
1.82673
1.81501
1.7982
1.76788
1.71172
3.46143
3.21842
2.98296
2.77522
2.55888
2.35914
2.20702
2.06206
1.90496
1.78344
1.6838
1.5899
1.49445
1.42308
1.35009
1.27644
1.23674
1.20595
1.16611
1.10907
1.0425
1.00865
0.995049
0.98494
0.969673
0.941555
0.899358
0.85761
0.84736
0.847892
0.853855
0.861146
0.865399
0.875087
0.901473
0.93904
0.997541
1.06137
1.13219
1.36011
1.81588
2.14738
2.25698
2.31155
2.31285
2.28656
2.24413
2.22062
2.21471
2.2082
2.20348
2.18892
2.16995
2.14868
2.11802
2.08554
2.0663
2.05315
2.04218
2.04076
2.05349
2.13106
2.35003
2.68522
2.92105
3.0488
3.06934
3.06053
3.04238
3.00572
2.97394
2.93931
2.89717
2.84069
2.78315
2.75063
2.72904
2.71147
2.69226
2.67042
2.6476
2.61655
2.56771
2.51594
2.48337
2.45948
2.43577
2.41305
2.3939
2.37665
2.35895
2.33937
2.31288
2.28004
2.24989
2.22404
2.19916
2.17391
2.1503
2.13118
2.114
2.09463
2.0718
2.05148
2.03605
2.02086
2.00284
1.97835
1.94434
1.90478
1.87865
1.86595
1.85568
1.84746
1.84319
1.83556
1.82389
1.80849
1.78647
1.73599
3.51436
3.29064
3.07413
2.87612
2.67759
2.48951
2.33295
2.1874
2.03043
1.91617
1.81829
1.70704
1.59975
1.53545
1.47002
1.39668
1.3219
1.27626
1.24561
1.20846
1.16091
1.10266
1.05142
1.03344
1.02274
1.00424
0.977761
0.945994
0.906832
0.871587
0.864288
0.86521
0.875452
0.880081
0.874658
0.873845
0.884694
0.924598
1.16116
1.63162
2.00981
2.10314
2.19725
2.24932
2.26429
2.24726
2.22866
2.22703
2.21058
2.19921
2.1953
2.18762
2.16903
2.14908
2.12941
2.10387
2.06909
2.04312
2.02841
2.01858
2.0179
2.022
2.04253
2.15112
2.40175
2.69571
2.92738
3.01752
3.02252
3.00522
2.98693
2.95928
2.92221
2.87842
2.82234
2.77177
2.7428
2.7214
2.70305
2.68357
2.66255
2.63667
2.59591
2.53828
2.49095
2.46555
2.44698
2.43037
2.41412
2.39565
2.37386
2.3485
2.31905
2.28578
2.25358
2.2257
2.20031
2.1774
2.15944
2.14427
2.12813
2.10889
2.0846
2.05845
2.03679
2.01837
2.00052
1.98224
1.96167
1.93621
1.90409
1.8754
1.86092
1.85088
1.84021
1.82737
1.8122
1.79606
1.78395
1.75305
3.56201
3.35294
3.15317
2.96364
2.77566
2.59931
2.44472
2.29951
2.1549
2.03228
1.92757
1.81787
1.71725
1.63919
1.56527
1.49456
1.43401
1.3743
1.303
1.26429
1.24217
1.2069
1.16293
1.11212
1.07073
1.05401
1.04405
1.02676
0.994813
0.949269
0.906171
0.891653
0.893563
0.894049
0.885869
0.882362
0.902321
1.07745
1.48556
1.76914
1.89018
1.94849
1.99029
2.04243
2.09478
2.16019
2.189
2.19423
2.18216
2.1754
2.17437
2.17386
2.1626
2.15016
2.13414
2.11265
2.08005
2.03938
2.01919
2.00791
2.00199
2.00144
2.00649
1.99994
2.03302
2.15542
2.42146
2.69057
2.90399
2.95924
2.97423
2.97487
2.95036
2.90719
2.86383
2.81173
2.76566
2.73527
2.71374
2.69509
2.67603
2.65427
2.62292
2.57486
2.51743
2.48089
2.46245
2.44689
2.43216
2.41516
2.39358
2.36299
2.32083
2.27949
2.25139
2.22901
2.20908
2.19267
2.17695
2.15957
2.14082
2.12028
2.0954
2.06664
2.04187
2.02241
2.00512
1.98981
1.97601
1.96086
1.93783
1.90339
1.87316
1.85436
1.84005
1.8264
1.81154
1.79494
1.78165
1.75872
3.60545
3.4106
3.22571
3.04165
2.8627
2.70272
2.54955
2.39567
2.26281
2.14791
2.03531
1.91743
1.82185
1.74314
1.66251
1.57831
1.52446
1.47634
1.41025
1.33647
1.29212
1.2703
1.24763
1.21479
1.17126
1.11408
1.08014
1.07042
1.05345
1.0268
0.996542
0.958585
0.925699
0.915593
0.908495
0.927592
1.07598
1.49453
1.7543
1.81531
1.81427
1.82179
1.82897
1.84338
1.86693
1.90246
1.95421
2.01212
2.07188
2.09798
2.1155
2.12186
2.13082
2.14164
2.13286
2.11194
2.07981
2.0485
2.02401
2.00554
1.99429
1.98955
1.98893
1.98199
1.97031
1.9578
1.99728
2.14643
2.41699
2.68214
2.86584
2.94061
2.92867
2.91715
2.89685
2.85641
2.81204
2.76726
2.73128
2.70692
2.68346
2.66255
2.63824
2.60378
2.55872
2.51221
2.47756
2.45883
2.44345
2.42655
2.40578
2.37597
2.33102
2.28407
2.25536
2.23888
2.22644
2.21439
2.20027
2.18186
2.15876
2.13103
2.09864
2.06801
2.0462
2.03039
2.01734
2.00565
1.99366
1.98019
1.96265
1.93372
1.89361
1.8619
1.84094
1.82417
1.81007
1.79684
1.78744
1.76901
3.64909
3.46652
3.29198
3.11351
2.94611
2.79321
2.64105
2.4895
2.3655
2.24666
2.13157
2.01438
1.92419
1.84169
1.76116
1.67066
1.60178
1.55223
1.50321
1.44747
1.39383
1.32999
1.2877
1.27587
1.25277
1.20799
1.15338
1.11731
1.09679
1.08098
1.06596
1.0408
0.9995
0.966712
0.976346
1.11687
1.51745
1.84175
1.88988
1.86683
1.83839
1.82037
1.80417
1.79093
1.78171
1.77362
1.77837
1.78798
1.82261
1.87659
1.93337
1.98876
2.02787
2.0619
2.08042
2.07689
2.06573
2.05176
2.03717
2.01305
1.99276
1.98528
1.98002
1.9735
1.96168
1.94695
1.91717
1.91427
1.96981
2.15229
2.41406
2.6953
2.81206
2.88057
2.87989
2.87079
2.84663
2.80465
2.76394
2.73302
2.69902
2.66783
2.64264
2.61635
2.58479
2.54721
2.50695
2.47408
2.45173
2.43189
2.41039
2.38384
2.34844
2.30691
2.27268
2.25571
2.24428
2.23296
2.21989
2.20374
2.18133
2.14866
2.10562
2.06846
2.05031
2.03886
2.02907
2.02139
2.0114
1.99882
1.9833
1.95677
1.91166
1.86811
1.84239
1.82606
1.81402
1.80453
1.79815
1.78145
3.69269
3.5225
3.3519
3.18388
3.02836
2.87698
2.72372
2.58435
2.46029
2.34036
2.22092
2.1151
2.02067
1.92974
1.84622
1.77088
1.7037
1.63227
1.56283
1.52268
1.48624
1.43131
1.36567
1.32325
1.29549
1.26767
1.2348
1.19954
1.1604
1.11973
1.10587
1.09235
1.06464
1.07029
1.21347
1.60005
1.95152
2.01272
1.97202
1.9246
1.88492
1.8621
1.8411
1.82099
1.80095
1.77849
1.76733
1.76121
1.75
1.74219
1.74239
1.75685
1.79495
1.84128
1.89639
1.94082
1.97743
2.00368
2.00151
1.9955
1.98579
1.98067
1.9766
1.96832
1.95337
1.93813
1.91742
1.89533
1.87633
1.88517
1.95481
2.14385
2.39739
2.6642
2.76624
2.81998
2.82335
2.8115
2.79415
2.75827
2.72398
2.68845
2.65202
2.62137
2.59386
2.56564
2.53663
2.50572
2.47375
2.44291
2.41375
2.38688
2.36218
2.33704
2.30949
2.28147
2.26091
2.24757
2.23454
2.21963
2.2
2.16937
2.1208
2.07624
2.05915
2.04808
2.03874
2.0325
2.02407
2.01281
1.99876
1.97405
1.92623
1.87324
1.84716
1.83555
1.82679
1.81754
1.81017
1.79323
3.73861
3.57795
3.4113
3.25325
3.1045
2.95409
2.80348
2.67471
2.54877
2.42773
2.30614
2.20928
2.11323
2.02384
1.92963
1.85636
1.78966
1.72362
1.65652
1.59347
1.54324
1.4995
1.45353
1.4061
1.35797
1.30712
1.28109
1.26394
1.23874
1.193
1.1474
1.12872
1.14452
1.29498
1.70723
2.07016
2.14506
2.10048
2.04313
1.99184
1.95989
1.93334
1.90978
1.88743
1.86237
1.83263
1.80087
1.76936
1.74615
1.73309
1.72908
1.71901
1.70637
1.69494
1.70211
1.72928
1.76885
1.81096
1.84748
1.88417
1.91841
1.94206
1.93972
1.93227
1.93547
1.93117
1.91928
1.90379
1.87134
1.85005
1.84501
1.85614
1.9313
2.11938
2.37177
2.59507
2.73135
2.73933
2.75357
2.75471
2.74418
2.71436
2.67367
2.63008
2.60074
2.57578
2.55501
2.53478
2.50875
2.47077
2.42602
2.39351
2.3739
2.35722
2.33934
2.31583
2.28608
2.26006
2.24331
2.22832
2.21036
2.18553
2.14853
2.10211
2.06989
2.05601
2.04564
2.03677
2.02815
2.01799
2.0048
1.98339
1.94551
1.89402
1.85958
1.84713
1.83897
1.82942
1.82201
1.80501
3.78352
3.62604
3.46906
3.31926
3.17081
3.0206
2.88464
2.75716
2.6313
2.504
2.3965
2.29719
2.199
2.10232
2.01746
1.94625
1.86966
1.79474
1.73226
1.67909
1.6214
1.56039
1.51161
1.47297
1.43036
1.37952
1.33037
1.30918
1.29318
1.26024
1.21261
1.21935
1.38113
1.79944
2.18502
2.25767
2.21162
2.15684
2.1167
2.08282
2.05017
2.01686
1.985
1.95507
1.92235
1.88671
1.85493
1.82623
1.79981
1.77487
1.75052
1.72906
1.70987
1.68696
1.67347
1.66706
1.66115
1.65711
1.66606
1.68456
1.7129
1.75016
1.79509
1.83409
1.86049
1.88055
1.88306
1.87837
1.86118
1.8438
1.82923
1.81721
1.81211
1.82929
1.91297
2.07658
2.32651
2.51911
2.64564
2.7079
2.7238
2.71864
2.69441
2.65312
2.62237
2.59505
2.56846
2.54712
2.52718
2.49615
2.45419
2.41976
2.39442
2.3731
2.35507
2.33672
2.31026
2.27701
2.25219
2.23516
2.21805
2.19827
2.17428
2.14001
2.09351
2.06273
2.05082
2.04132
2.03067
2.0172
2.00086
1.98256
1.96062
1.93055
1.89175
1.86064
1.8471
1.83631
1.82852
1.81225
3.83085
3.67496
3.525
3.38043
3.23256
3.08746
2.96037
2.83447
2.70746
2.58401
2.48228
2.37866
2.28194
2.18129
2.10415
2.02479
1.95085
1.87373
1.80823
1.7489
1.69147
1.63311
1.5789
1.53215
1.48657
1.44711
1.40608
1.36609
1.33149
1.29971
1.31145
1.5005
1.96126
2.31316
2.36677
2.31979
2.26705
2.23471
2.20901
2.17786
2.13968
2.09833
2.05462
2.01481
1.98177
1.95363
1.92828
1.90217
1.87278
1.83899
1.80325
1.76928
1.74009
1.71637
1.69464
1.67142
1.65139
1.64016
1.6301
1.61756
1.60125
1.60301
1.61787
1.64786
1.67947
1.71853
1.74749
1.7674
1.79311
1.80785
1.80556
1.7919
1.78414
1.78124
1.78304
1.80497
1.88037
2.03905
2.25246
2.44508
2.58505
2.66261
2.66854
2.67048
2.6598
2.6342
2.59573
2.54836
2.51993
2.50057
2.47676
2.45486
2.43186
2.40253
2.36958
2.34245
2.31797
2.29065
2.26393
2.24287
2.22588
2.20916
2.19072
2.16647
2.13003
2.08573
2.05329
2.03721
2.02548
2.01355
2.00011
1.98636
1.97357
1.95867
1.93362
1.8898
1.85407
1.84251
1.83804
1.82105
3.86922
3.72133
3.57746
3.43426
3.28947
3.15688
3.03107
2.90554
2.77651
2.66732
2.5617
2.45865
2.35177
2.26361
2.18464
2.10259
2.02362
1.94701
1.88567
1.81896
1.75884
1.69665