/*--------------------------------*- C++ -*----------------------------------*\
  =========                 |
  \\      /  F ield         | OpenFOAM: The Open Source CFD Toolbox
   \\    /   O peration     | Website:  https://openfoam.org
    \\  /    A nd           | Version:  9
     \\/     M anipulation  |
\*---------------------------------------------------------------------------*/
FoamFile
{
    format      ascii;
    class       volVectorField;
    location    "8.7";
    object      U;
}
// * * * * * * * * * * * * * * * * * * * * * * * * * * * * * * * * * * * * * //

dimensions      [0 1 -1 0 0 0 0];

internalField   nonuniform List<vector> 
8500
(
(-0.0121942 0.00469579 0)
(-0.051994 0.00784922 -7.33132e-23)
(-0.108092 0.00897101 -4.04495e-24)
(-0.160618 0.00932889 7.80937e-37)
(-0.215184 0.0096594 -1.18864e-23)
(-0.266122 0.00969843 9.89733e-24)
(-0.322194 0.010441 -7.02722e-23)
(-0.368714 0.00946424 -1.1357e-22)
(-0.425485 0.0109453 -1.0795e-22)
(-0.46532 0.00813812 -5.74603e-24)
(-0.0124896 0.0139304 2.10425e-22)
(-0.0516764 0.0233498 6.85489e-23)
(-0.1065 0.0267169 2.77327e-22)
(-0.157391 0.0277803 0)
(-0.209977 0.0287485 0)
(-0.257944 0.0288196 2.0565e-23)
(-0.311073 0.0310107 5.31012e-23)
(-0.352235 0.0280114 1.21375e-22)
(-0.404655 0.0324329 8.08375e-23)
(-0.436196 0.0239397 2.30326e-23)
(-0.0130642 0.0227032 -1.86973e-22)
(-0.0510658 0.0382635 0)
(-0.103398 0.0438785 -2.6088e-22)
(-0.151082 0.045618 0)
(-0.199819 0.0471524 -4.76764e-23)
(-0.241984 0.0471325 3.9698e-23)
(-0.289497 0.0506442 0)
(-0.320285 0.0454644 0)
(-0.364641 0.0527401 0)
(-0.380626 0.0384035 0)
(-0.0138876 0.0307357 3.77444e-22)
(-0.0502098 0.0522223 -2.75924e-22)
(-0.0989465 0.0600805 -6.56374e-23)
(-0.141975 0.0624505 -4.14133e-22)
(-0.185194 0.0644256 -4.24511e-22)
(-0.219001 0.064157 4.13392e-23)
(-0.258702 0.0687205 -3.45162e-23)
(-0.274733 0.0612379 4.2276e-22)
(-0.308375 0.0711733 -2.48643e-24)
(-0.303319 0.0508941 4.70281e-22)
(-0.0149176 0.0377914 -3.77444e-22)
(-0.049176 0.0648917 -3.57895e-22)
(-0.093374 0.0749692 9.9057e-23)
(-0.130473 0.0779109 5.53852e-22)
(-0.166773 0.0801392 -4.79348e-23)
(-0.190064 0.079488 6.4685e-22)
(-0.22034 0.0846235 0)
(-0.218067 0.0749011 -4.85667e-22)
(-0.239524 0.0871589 -1.11002e-22)
(-0.209995 0.0610988 -6.5773e-22)
(-0.0161056 0.0436888 9.56177e-23)
(-0.0480475 0.075983 5.94278e-22)
(-0.0869601 0.0882206 -4.62878e-22)
(-0.117079 0.0916646 -1.27956e-24)
(-0.145352 0.0938874 -4.3098e-22)
(-0.156479 0.092806 1.63241e-22)
(-0.176301 0.0977475 -6.94046e-23)
(-0.15317 0.0861705 6.09691e-22)
(-0.162004 0.100166 -1.05997e-22)
(-0.106323 0.0692223 3.75705e-22)
(-0.0174006 0.0483104 4.79896e-23)
(-0.0469171 0.0852638 0)
(-0.0800181 0.0995453 -2.30124e-24)
(-0.102365 0.103416 0)
(-0.121789 0.105296 7.61073e-22)
(-0.119705 0.103883 -6.47012e-22)
(-0.128519 0.107483 0)
(-0.0831171 0.0949217 -2.38996e-24)
(-0.0797026 0.109373 0)
(0.00298884 0.0759121 0)
(-0.0187559 0.0516074 -7.7664e-22)
(-0.0458826 0.0925664 -8.04975e-23)
(-0.0728717 0.108695 5.98093e-22)
(-0.0869432 0.112917 1.13322e-22)
(-0.0969292 0.114026 -7.66322e-22)
(-0.0812736 0.112604 -4.81974e-22)
(-0.0787463 0.113188 -6.95033e-23)
(-0.0108149 0.101117 6.00749e-22)
(0.00319358 0.114162 -1.05651e-22)
(0.115451 0.08064 9.71463e-23)
(-0.0201335 0.0536004 8.74426e-22)
(-0.0450393 0.0977937 -6.45572e-22)
(-0.0658294 0.115473 -2.01138e-22)
(-0.071431 0.119971 1.1127e-22)
(-0.0715257 0.119782 7.64184e-22)
(-0.0426673 0.118955 7.28392e-22)
(-0.0285151 0.114618 -6.93715e-23)
(0.0621152 0.104404 1.17865e-22)
(0.0819438 0.114096 -2.15615e-22)
(0.230094 0.0824692 9.28552e-23)
(-0.0215097 0.054374 7.88198e-22)
(-0.0444731 0.100922 6.46161e-22)
(-0.0591564 0.119749 -9.40297e-22)
(-0.0564006 0.12444 -1.11515e-22)
(-0.0462079 0.122418 0)
(-0.00485664 0.122604 0)
(0.0207054 0.112068 0)
(0.134871 0.104973 -1.88754e-21)
(0.154477 0.108128 -8.80268e-22)
(0.347383 0.0815136 7.24146e-22)
(-0.0228774 0.0540678 -1.58184e-21)
(-0.0442517 0.102003 0)
(-0.0530509 0.121477 2.15283e-21)
(-0.0422426 0.126145 8.96684e-22)
(-0.0215907 0.122009 9.41016e-23)
(0.0317523 0.123209 0)
(0.0688711 0.105738 -1.1315e-21)
(0.206778 0.103913 9.39309e-22)
(0.223783 0.0959453 8.80254e-22)
(0.470643 0.0781818 -7.24119e-22)
(-0.0242481 0.0528652 8.93159e-22)
(-0.0444114 0.101159 -8.16848e-23)
(-0.047653 0.120714 -1.07771e-21)
(-0.0290882 0.124959 -1.00982e-21)
(0.00210689 0.118672 0)
(0.0670867 0.120832 1.26947e-21)
(0.117923 0.0960518 9.99606e-24)
(0.277884 0.101833 7.9808e-22)
(0.298987 0.0797363 9.64509e-22)
(0.60367 0.0733505 -7.04396e-22)
(-0.0256499 0.050975 -1.32759e-25)
(-0.0449429 0.0985795 1.396e-21)
(-0.0429756 0.117592 -1.35077e-22)
(-0.0168498 0.120962 7.81769e-22)
(0.0252849 0.112523 4.70638e-22)
(0.101959 0.115512 3.12639e-22)
(0.171602 0.0846082 1.12409e-21)
(0.350079 0.0979519 -1.03584e-21)
(0.392907 0.0645373 -6.5079e-22)
(0.745357 0.0688788 5.26815e-22)
(-0.0271211 0.0486127 0)
(-0.0457853 0.0945044 -1.14979e-21)
(-0.0388462 0.112314 -1.35414e-22)
(-0.00509679 0.114383 -1.63043e-24)
(0.0489994 0.103904 7.53727e-22)
(0.138548 0.107234 -1.10091e-21)
(0.234562 0.0739175 1.09968e-21)
(0.42817 0.0913287 -1.14549e-22)
(0.514576 0.0559863 0)
(0.887356 0.0668 0)
(-0.0287023 0.0459837 1.01325e-22)
(-0.0468132 0.0892079 -1.32361e-21)
(-0.0348838 0.10517 0)
(0.0070653 0.105575 -1.13681e-22)
(0.0750637 0.0934565 9.29671e-23)
(0.180607 0.0963378 0)
(0.311059 0.0663167 -1.09726e-21)
(0.519047 0.0831717 -8.9862e-22)
(0.66072 0.0564594 2.04283e-22)
(1.0176 0.0681055 -1.71673e-22)
(-0.0304255 0.0432672 -1.01455e-22)
(-0.047823 0.0829783 1.40689e-21)
(-0.030476 0.096523 0)
(0.0210491 0.0950217 -1.00286e-21)
(0.106109 0.0820808 9.26336e-23)
(0.23315 0.0840829 -1.23932e-21)
(0.403619 0.0630536 -1.34269e-22)
(0.627422 0.0771199 1.01098e-21)
(0.815431 0.0641064 0)
(1.12604 0.0720709 1.32361e-21)
(-0.0323021 0.0406019 -1.54261e-21)
(-0.0485229 0.0760962 -8.36756e-23)
(-0.0247671 0.0867844 -1.35045e-22)
(0.038773 0.0833395 1.11702e-22)
(0.145477 0.070872 -1.47646e-21)
(0.301277 0.0728483 1.2393e-21)
(0.512064 0.0644058 1.05889e-21)
(0.75015 0.0764807 8.84259e-22)
(0.959296 0.0754165 1.54029e-21)
(1.20805 0.0769136 -1.15862e-21)
(-0.0343106 0.0380768 1.64455e-21)
(-0.0485287 0.0688143 0)
(-0.0166717 0.0763873 1.22352e-21)
(0.062565 0.0712496 -1.11762e-22)
(0.196799 0.0610755 2.94791e-21)
(0.388122 0.0655187 0)
(0.632539 0.0702649 -1.05887e-21)
(0.875971 0.0815029 -9.27318e-24)
(1.07897 0.0877197 -1.72964e-21)
(1.26443 0.0811316 1.59158e-22)
(-0.0363874 0.0357266 0)
(-0.0473692 0.0613401 1.34625e-21)
(-0.00491366 0.065759 -1.0884e-21)
(0.0949905 0.0595837 0)
(0.263195 0.0540941 -1.47144e-21)
(0.49275 0.0642401 0)
(0.757317 0.0800295 1.0329e-21)
(0.991975 0.0901977 -8.74954e-22)
(1.16988 0.0996232 -1.45284e-21)
(1.2994 0.0838156 -1.20654e-21)
(-0.0384224 0.0335352 -2.0747e-22)
(-0.0444986 0.0538243 -1.17596e-21)
(0.0119201 0.0552995 0)
(0.138599 0.0493372 0)
(0.346122 0.0513691 0)
(0.60944 0.0694252 -1.52838e-22)
(0.876947 0.0922901 -1.03232e-21)
(1.08977 0.100627 -1.0728e-22)
(1.23385 0.110255 1.45284e-21)
(1.31844 0.0844595 1.35674e-21)
(-0.0402683 0.031452 0)
(-0.0393096 0.0463477 -1.36345e-21)
(0.0353274 0.045382 0)
(0.195524 0.0417331 0)
(0.444192 0.0539321 0)
(0.729351 0.07978 1.51548e-22)
(0.983741 0.105413 -1.25878e-21)
(1.16664 0.111589 1.0306e-22)
(1.27597 0.1185 1.01907e-21)
(1.32744 0.0827237 1.12925e-21)
(-0.0417537 0.0294006 0)
(-0.0311508 0.0389177 1.36345e-21)
(0.0668423 0.0364105 -1.10853e-21)
(0.266871 0.0381409 0)
(0.55275 0.0618241 -1.46289e-21)
(0.843751 0.0932539 0)
(1.07363 0.118322 1.00599e-21)
(1.2237 0.122086 -8.16785e-22)
(1.30206 0.123526 -1.3659e-21)
(1.34027 0.094121 -1.1237e-21)
(-0.0426819 0.0272807 1.73535e-21)
(-0.0193397 0.031489 0)
(0.107942 0.0289529 9.71213e-22)
(0.351964 0.0396781 1.13572e-22)
(0.664959 0.0739966 2.92596e-21)
(0.946523 0.10805 0)
(1.14581 0.130502 -9.77452e-22)
(1.26397 0.131247 -1.61524e-21)
(1.31896 0.129583 -1.12566e-21)
(1.342 0.0995008 -6.20809e-24)
(-0.0428365 0.0249827 -1.84309e-21)
(-0.00314381 0.0240014 8.84382e-23)
(0.159832 0.0238803 1.38114e-22)
(0.447922 0.0466412 -1.14236e-22)
(0.773966 0.0888992 -1.46308e-21)
(1.03469 0.123009 1.18842e-21)
(1.20154 0.14166 9.77449e-22)
(1.29143 0.13967 7.98457e-22)
(1.32725 0.134344 1.28637e-21)
(1.3395 0.106062 -1.13134e-21)
(-0.0419948 0.0224037 1.09156e-22)
(0.018255 0.016451 1.32909e-21)
(0.223065 0.0223223 0)
(0.55006 0.0582963 -7.94973e-22)
(0.87465 0.105169 -9.26972e-23)
(1.10766 0.137497 -1.18841e-21)
(1.24317 0.151875 1.17268e-22)
(1.30881 0.147148 6.62282e-22)
(1.3302 0.13922 0)
(1.33497 0.111673 1.00696e-21)
(-0.0399258 0.0194532 -1.12573e-22)
(0.0457599 0.00902029 -1.41868e-21)
(0.2971 0.0253019 0)
(0.653076 0.073316 1.06216e-22)
(0.964107 0.121899 -9.29878e-23)
(1.16633 0.151244 0)
(1.27311 0.161209 -9.29358e-22)
(1.31883 0.154059 -7.60439e-22)
(1.32935 0.143743 -1.45567e-22)
(1.3283 0.117185 -1.22448e-22)
(-0.0363694 0.0160584 0)
(0.0802768 0.00223368 -1.63469e-21)
(0.380086 0.0332295 1.46515e-22)
(0.752323 0.090429 -6.01342e-24)
(1.04125 0.138572 -7.29897e-22)
(1.21225 0.164166 -1.29681e-21)
(1.29371 0.169826 1.04771e-21)
(1.32343 0.160481 0)
(1.32592 0.148264 0)
(1.32114 0.12256 0)
(-0.0310015 0.0121765 2.45182e-24)
(0.122531 -0.00295837 1.3707e-21)
(0.469081 0.0456945 1.48361e-22)
(0.844512 0.108735 1.03108e-21)
(1.10617 0.154914 6.36401e-22)
(1.24723 0.176288 -1.25477e-22)
(1.30701 0.177865 9.00301e-22)
(1.32416 0.16662 -6.10368e-22)
(1.32089 0.152751 -6.86347e-22)
(1.31332 0.127881 5.50196e-22)
(-0.0234066 0.00782119 8.50283e-22)
(0.172815 -0.00529153 9.56755e-23)
(0.560628 0.0617484 -1.18606e-21)
(0.927761 0.127678 -9.28836e-22)
(1.15963 0.170793 0)
(1.27306 0.18769 1.14096e-21)
(1.31469 0.185483 -1.9036e-23)
(1.32217 0.172577 7.86029e-22)
(1.31475 0.157299 4.79999e-22)
(1.30537 0.133202 -4.35719e-22)
(-0.013081 0.00310138 -1.95671e-21)
(0.23077 -0.0035277 0)
(0.651407 0.0803842 2.38987e-21)
(1.00129 0.146934 8.16031e-22)
(1.20273 0.186155 9.36298e-23)
(1.29136 0.198479 0)
(1.31812 0.192813 -8.74506e-22)
(1.31824 0.178458 6.62658e-22)
(1.30795 0.16192 5.14307e-22)
(1.29726 0.13853 -4.03733e-22)
(0.00053081 -0.00173781 9.8986e-22)
(0.295333 0.00313171 7.71688e-22)
(0.738665 0.100834 -1.35051e-21)
(1.06505 0.166342 1.21336e-22)
(1.2367 0.201004 0)
(1.30358 0.208771 0)
(1.31834 0.199972 0)
(1.31296 0.184324 -1.30508e-21)
(1.30066 0.16664 -5.14312e-22)
(1.28909 0.143875 4.03714e-22)
(0.0179316 -0.00626714 9.15033e-22)
(0.364884 0.0148239 -7.65608e-22)
(0.820366 0.122598 7.86035e-23)
(1.11941 0.185817 0)
(1.26275 0.215371 7.07014e-22)
(1.3109 0.218679 4.69918e-22)
(1.31615 0.207048 5.40491e-23)
(1.30672 0.190219 -5.53412e-23)
(1.29306 0.171457 1.22549e-22)
(1.28086 0.149228 -4.94488e-23)
(0.039448 -0.0098731 -1.03868e-21)
(0.437516 0.0311075 9.68301e-23)
(0.895176 0.145343 6.22066e-22)
(1.16495 0.205298 -1.73424e-22)
(1.28202 0.229302 -5.30343e-22)
(1.31431 0.228305 -6.67784e-22)
(1.31215 0.214108 5.28152e-23)
(1.29975 0.196163 3.21464e-22)
(1.28518 0.176368 0)
(1.27256 0.154578 -4.35235e-23)
(0.0651806 -0.0118351 -6.71862e-23)
(0.511295 0.0512539 0)
(0.962357 0.168829 5.72121e-24)
(1.20238 0.224718 0)
(1.29556 0.242852 6.88424e-22)
(1.3146 0.237734 -5.11584e-22)
(1.30675 0.221194 0)
(1.29223 0.202162 1.08672e-23)
(1.27709 0.181357 0)
(1.26416 0.159904 0)
(0.0949867 -0.011445 -1.34212e-22)
(0.584431 0.0745303 8.78505e-22)
(1.02164 0.192875 -7.08104e-22)
(1.23242 0.244003 1.17096e-22)
(1.30425 0.256077 -3.14764e-22)
(1.3124 0.247032 -5.4341e-23)
(1.30025 0.228325 0)
(1.28424 0.20821 2.21641e-22)
(1.26877 0.186406 5.68868e-23)
(1.25563 0.165185 1.6149e-22)
(0.128491 -0.00813761 -5.6374e-22)
(0.655357 0.100336 -3.5497e-22)
(1.07308 0.217342 -1.16469e-22)
(1.25579 0.263079 4.67069e-22)
(1.30887 0.269024 3.84355e-23)
(1.30817 0.25625 4.98583e-22)
(1.29286 0.235505 0)
(1.27583 0.214291 -2.6666e-22)
(1.26022 0.19149 4.92674e-23)
(1.24696 0.170396 -3.55981e-22)
(0.165129 -0.00158679 -5.63739e-22)
(0.722749 0.128204 3.68629e-22)
(1.11697 0.242117 -4.46316e-24)
(1.2732 0.281872 -5.43702e-22)
(1.31004 0.281731 -2.87366e-22)
(1.3023 0.265415 -2.81458e-23)
(1.2847 0.242724 2.35006e-23)
(1.26703 0.22038 2.9766e-22)
(1.25144 0.196582 -2.6196e-24)
(1.2381 0.175511 1.15728e-22)
(0.204207 0.00827238 -2.89693e-22)
(0.785521 0.157747 0)
(1.15372 0.267088 -3.16737e-22)
(1.28528 0.300324 0)
(1.30829 0.294225 -3.61728e-22)
(1.29503 0.274539 3.12139e-23)
(1.27587 0.249959 0)
(1.25784 0.226449 0)
(1.2424 0.201653 0)
(1.22904 0.180499 0)
(0.244946 0.021296 2.54071e-22)
(0.842837 0.188605 1.23234e-22)
(1.18381 0.292138 3.16739e-22)
(1.29264 0.318395 0)
(1.30404 0.306516 0)
(1.28657 0.283617 -1.30198e-23)
(1.26641 0.257179 5.01153e-23)
(1.24826 0.232463 5.73052e-23)
(1.23308 0.20667 5.28667e-23)
(1.21978 0.18533 -8.73626e-24)
(0.286536 0.0372227 -4.58904e-24)
(0.894167 0.22042 -1.15345e-22)
(1.20768 0.317137 5.27667e-24)
(1.29582 0.33606 6.25108e-24)
(1.29762 0.318603 -9.56303e-24)
(1.27705 0.292627 3.64219e-24)
(1.25635 0.264343 -4.37313e-23)
(1.23828 0.238386 -5.35504e-23)
(1.22346 0.211594 -4.00441e-23)
(1.21034 0.189968 1.57926e-24)
(0.328162 0.0557446 0)
(0.939287 0.252872 -1.16001e-22)
(1.22571 0.341963 -3.58448e-24)
(1.29527 0.35329 7.30913e-24)
(1.2893 0.33047 1.31372e-37)
(1.26656 0.301533 -9.24967e-38)
(1.24571 0.271407 -3.93301e-23)
(1.22789 0.244177 -4.68918e-23)
(1.21354 0.216379 -3.68804e-23)
(1.20071 0.194376 0)
(0.36904 0.0765547 3.31888e-22)
(0.978142 0.285683 9.5146e-23)
(1.2383 0.366489 3.15033e-22)
(1.29139 0.370044 -1.4261e-23)
(1.27928 0.342086 0)
(1.25516 0.310289 1.11745e-23)
(1.23448 0.278321 2.57714e-23)
(1.21708 0.249795 5.04319e-23)
(1.2033 0.220975 2.85616e-23)
(1.19088 0.198535 6.9919e-24)
(0.408427 0.0993704 -2.95751e-22)
(1.01077 0.3186 0)
(1.24583 0.390585 -2.97795e-22)
(1.28451 0.386277 0)
(1.26773 0.353405 -3.03735e-23)
(1.24291 0.318838 2.52909e-23)
(1.22267 0.285032 0)
(1.20583 0.255197 0)
(1.19276 0.225344 0)
(1.18079 0.202429 0)
(0.445647 0.12393 5.8572e-22)
(1.03728 0.351387 -3.76747e-22)
(1.24868 0.414117 -7.24837e-23)
(1.27493 0.401937 -2.98421e-22)
(1.25478 0.364371 -2.78297e-22)
(1.22982 0.327117 1.95059e-23)
(1.21028 0.291483 -1.62866e-23)
(1.19413 0.26033 1.37092e-22)
(1.18194 0.229462 2.36139e-24)
(1.17037 0.20604 1.00435e-22)
(0.4801 0.149978 -5.85721e-22)
(1.05784 0.383822 -4.54464e-22)
(1.24717 0.436952 1.01049e-22)
(1.26291 0.416965 3.57021e-22)
(1.24053 0.374917 -1.74146e-23)
(1.21592 0.335061 3.01554e-22)
(1.1973 0.29762 0)
(1.18197 0.265127 -1.56212e-22)
(1.17089 0.233314 -2.42691e-23)
(1.15963 0.209371 -1.27272e-22)
(0.511274 0.177245 1.39424e-22)
(1.07264 0.415686 7.77061e-22)
(1.24162 0.458954 -4.54474e-22)
(1.24867 0.431294 -8.65575e-23)
(1.22504 0.384971 -2.10042e-22)
(1.20123 0.342597 4.64328e-23)
(1.18374 0.303385 -2.72918e-23)
(1.16939 0.269522 1.53403e-22)
(1.15956 0.236866 -2.54816e-23)
(1.14864 0.212388 6.86478e-23)
(0.53875 0.205439 7.05561e-23)
(1.08189 0.446761 0)
(1.23232 0.479984 2.79355e-23)
(1.23239 0.444849 0)
(1.20839 0.39445 4.18954e-22)
(1.18579 0.34965 -2.74291e-22)
(1.16963 0.308721 0)
(1.15647 0.273486 -1.72685e-23)
(1.14787 0.24005 0)
(1.13749 0.215047 0)
(0.562206 0.234244 -1.08375e-21)
(1.08581 0.476826 -8.4167e-23)
(1.21955 0.499901 5.54779e-22)
(1.21423 0.457546 6.43482e-23)
(1.19063 0.403265 -4.36809e-22)
(1.16965 0.356143 -1.56475e-22)
(1.155 0.313553 -2.15062e-23)
(1.14321 0.276998 9.23252e-23)
(1.13581 0.242831 -1.84896e-23)
(1.12616 0.217298 9.99999e-24)
(0.581408 0.26332 1.20645e-21)
(1.08463 0.505654 -7.27724e-22)
(1.20354 0.518558 -1.61271e-22)
(1.19432 0.469293 7.9273e-23)
(1.17187 0.411329 3.43059e-22)
(1.15285 0.361994 2.37903e-22)
(1.13986 0.317824 -1.84352e-23)
(1.12959 0.280015 -1.87119e-23)
(1.12342 0.245175 -2.60307e-23)
(1.11467 0.21911 9.39485e-24)
(0.596213 0.292309 1.00026e-21)
(1.07861 0.533017 7.06433e-22)
(1.1845 0.535798 -6.80006e-22)
(1.17284 0.479987 -7.21571e-23)
(1.15223 0.418562 0)
(1.13537 0.367124 0)
(1.12421 0.321474 0)
(1.11562 0.282493 -2.41954e-22)
(1.11074 0.247048 -6.01891e-23)
(1.10303 0.220445 2.8701e-23)
(0.60656 0.320847 -1.94776e-21)
(1.068 0.558696 0)
(1.16266 0.55145 1.45483e-21)
(1.14999 0.489528 3.88611e-22)
(1.13172 0.424879 0)
(1.11722 0.371462 0)
(1.10812 0.32444 -1.25812e-22)
(1.10133 0.284389 1.02323e-22)
(1.09781 0.248415 6.01896e-23)
(1.09126 0.221276 -2.86999e-23)
(0.612464 0.348565 1.05042e-21)
(1.05311 0.582485 -8.44761e-23)
(1.13828 0.565354 -6.87586e-22)
(1.12587 0.497782 -4.25857e-22)
(1.11036 0.430196 3.0914e-23)
(1.09847 0.374933 1.67312e-22)
(1.0916 0.326663 5.19871e-23)
(1.08674 0.285664 2.12271e-23)
(1.08465 0.249242 4.4068e-24)
(1.0794 0.221574 1.65088e-23)
(0.614013 0.375092 -1.22487e-23)
(1.03424 0.604171 1.03381e-21)
(1.11162 0.577399 -9.07742e-23)
(1.10051 0.504594 2.30445e-22)
(1.08824 0.434431 1.15561e-22)
(1.07918 0.377471 -3.5901e-23)
(1.07473 0.328087 6.72876e-23)
(1.07189 0.286278 -2.82769e-23)
(1.0713 0.249495 -4.79294e-24)
(1.06749 0.221314 -1.16606e-23)
(0.61136 0.400073 0)
(1.01162 0.623492 -9.05752e-22)
(1.08296 0.587487 -7.87509e-23)
(1.07403 0.50985 -6.85405e-23)
(1.06544 0.437481 -1.19324e-22)
(1.0594 0.37901 -9.2241e-23)
(1.05754 0.328662 -3.8976e-23)
(1.05682 0.286193 0)
(1.05779 0.24914 0)
(1.05555 0.220463 0)
(0.604713 0.423203 8.82121e-23)
(0.985406 0.640124 -7.403e-22)
(1.05262 0.59553 0)
(1.04659 0.513476 -8.43886e-23)
(1.04203 0.439255 1.11968e-23)
(1.03922 0.37949 0)
(1.04009 0.32834 3.3252e-23)
(1.04158 0.285376 9.46611e-23)
(1.04415 0.24814 -2.02033e-23)
(1.04363 0.218975 1.69693e-23)
(0.594296 0.444256 -6.51203e-23)
(0.95589 0.653813 7.93758e-22)
(1.02082 0.601368 0)
(1.01832 0.515419 -1.25686e-22)
(1.01812 0.43967 4.19908e-24)
(1.01869 0.378852 1.28152e-22)
(1.02245 0.327081 1.57298e-23)
(1.02621 0.283796 -1.07828e-22)
(1.0304 0.246462 0)
(1.03176 0.216812 -2.13933e-22)
(0.580301 0.462971 -9.06977e-22)
(0.923551 0.664449 -4.41995e-23)
(0.98775 0.604816 -1.19649e-23)
(0.989374 0.515608 9.89705e-24)
(0.993789 0.438655 1.74108e-22)
(0.997922 0.377045 -1.28153e-22)
(1.00468 0.324847 -1.98926e-22)
(1.01074 0.281421 -1.76441e-22)
(1.0166 0.244078 -3.03981e-22)
(1.02009 0.213966 1.87176e-22)
(0.562874 0.478976 9.60826e-22)
(0.888902 0.671971 0)
(0.953634 0.605756 9.02507e-24)
(0.959896 0.513972 3.17423e-25)
(0.969158 0.436147 -4.55853e-22)
(0.976983 0.374022 0)
(0.98684 0.321608 1.98928e-22)
(0.995206 0.278215 -4.11418e-23)
(1.00283 0.24096 3.45611e-22)
(1.0089 0.210476 -3.49596e-23)
(0.542299 0.491912 0)
(0.85232 0.676231 1.4145e-22)
(0.91868 0.604118 -9.40889e-24)
(0.930041 0.510442 0)
(0.944334 0.432096 2.81747e-22)
(0.955969 0.369744 0)
(0.968987 0.317338 -3.10571e-22)
(0.979658 0.274138 2.17585e-22)
(0.989286 0.237069 4.24497e-22)
(0.998484 0.206411 3.35471e-22)
(0.519035 0.501596 -3.37769e-23)
(0.814152 0.677092 -1.13725e-22)
(0.88312 0.599844 0)
(0.899968 0.504958 0)
(0.919438 0.426462 0)
(0.934971 0.364183 5.01977e-23)
(0.951183 0.312019 2.26647e-22)
(0.96419 0.269164 3.5165e-23)
(0.976148 0.232348 -4.24499e-22)
(0.988752 0.201719 -3.76743e-22)
(0.4935 0.50786 0)
(0.774748 0.674442 1.77906e-22)
(0.847194 0.59289 0)
(0.86984 0.497468 0)
(0.89459 0.419214 0)
(0.914084 0.357316 -5.91994e-23)
(0.933501 0.305635 5.19173e-22)
(0.948926 0.263302 -1.18694e-22)
(0.963504 0.226816 -4.11573e-22)
(0.979026 0.194916 -4.15304e-22)
(0.466108 0.510574 0)
(0.734469 0.668205 -1.77907e-22)
(0.811145 0.583231 4.33044e-22)
(0.839823 0.487938 0)
(0.869919 0.410332 7.14553e-22)
(0.893402 0.349128 0)
(0.916033 0.298173 -4.21231e-22)
(0.93398 0.256561 3.78348e-22)
(0.9511 0.220926 5.38411e-22)
(0.968006 0.190053 4.14178e-22)
(0.437271 0.509648 -3.52495e-22)
(0.693679 0.658332 0)
(0.775217 0.570856 -3.68812e-22)
(0.810087 0.476347 -5.31339e-23)
(0.845553 0.399808 -1.53504e-21)
(0.873027 0.339613 0)
(0.898871 0.28962 5.2873e-22)
(0.919421 0.248867 3.80876e-23)
(0.939053 0.213961 5.73401e-22)
(0.957385 0.183742 2.21322e-24)
(0.4074 0.505032 3.88787e-22)
(0.652744 0.644809 -2.97904e-23)
(0.739654 0.555776 -7.68906e-23)
(0.780806 0.462691 -6.36022e-23)
(0.82162 0.387643 8.20485e-22)
(0.85306 0.328775 -7.36844e-22)
(0.882098 0.279995 -5.28733e-22)
(0.905251 0.240318 -4.16441e-22)
(0.927208 0.206399 -6.47846e-22)
(0.946755 0.177194 6.02431e-22)
(0.376901 0.496716 -4.96085e-23)
(0.612027 0.62765 -7.76229e-22)
(0.704697 0.538018 0)
(0.752151 0.446979 5.59861e-22)
(0.798253 0.373851 6.15428e-23)
(0.833605 0.316624 7.36848e-22)
(0.865805 0.269297 -7.32519e-23)
(0.891542 0.230866 -4.27891e-22)
(0.91571 0.198036 0)
(0.936425 0.169933 -5.37407e-22)
(0.346171 0.484726 5.7924e-23)
(0.571884 0.606899 8.16954e-22)
(0.670581 0.517627 0)
(0.724293 0.429241 -1.15829e-23)
(0.77558 0.358457 6.84324e-23)
(0.814766 0.303183 0)
(0.850069 0.257555 6.79287e-22)
(0.878328 0.220564 4.89205e-22)
(0.90458 0.189005 9.31691e-23)
(0.926454 0.162119 -7.82591e-23)
(0.315598 0.469129 0)
(0.532664 0.582631 1.2534e-21)
(0.637537 0.494669 -1.10876e-22)
(0.697402 0.409518 6.82467e-23)
(0.753731 0.341499 6.08776e-22)
(0.796645 0.288483 1.0516e-21)
(0.83497 0.244793 -7.70903e-22)
(0.865671 0.209421 0)
(0.893887 0.179286 0)
(0.916923 0.15371 0)
(0.285555 0.450023 2.52137e-24)
(0.494703 0.554947 -1.03972e-21)
(0.605788 0.469226 1.24626e-22)
(0.671641 0.38787 -8.71257e-22)
(0.732833 0.323025 -5.27315e-22)
(0.779343 0.272566 1.79632e-22)
(0.820584 0.231048 -7.77672e-22)
(0.853626 0.197476 5.1256e-22)
(0.883685 0.168919 5.51736e-22)
(0.907889 0.144741 -4.29719e-22)
(0.256399 0.427548 -7.36222e-22)
(0.45832 0.523972 -8.18903e-23)
(0.575548 0.441398 1.15222e-21)
(0.647169 0.36437 9.00052e-22)
(0.713007 0.303095 0)
(0.762954 0.255479 -1.00437e-21)
(0.806985 0.216359 -4.14168e-23)
(0.842249 0.184762 -6.59686e-22)
(0.874028 0.157926 -3.86857e-22)
(0.899397 0.135234 3.41965e-22)
(0.228472 0.401887 1.76732e-21)
(0.423815 0.489848 0)
(0.547024 0.411299 -2.39011e-21)
(0.62414 0.339105 -7.87739e-22)
(0.694373 0.281779 -9.32316e-23)
(0.747573 0.237283 0)
(0.794243 0.200775 8.11016e-22)
(0.831595 0.171319 -6.44397e-22)
(0.864968 0.146341 -4.88402e-22)
(0.891488 0.12522 3.72433e-22)
(0.202086 0.373263 -9.31335e-22)
(0.391463 0.452733 -8.22012e-22)
(0.520413 0.37906 1.39265e-21)
(0.602698 0.312178 -1.28011e-22)
(0.677043 0.259158 0)
(0.733287 0.218043 0)
(0.782426 0.184351 0)
(0.821716 0.157195 1.31404e-21)
(0.856555 0.134197 4.88403e-22)
(0.884196 0.114735 -3.72433e-22)
(0.177513 0.341902 -9.70522e-22)
(0.36153 0.412837 8.18917e-22)
(0.49591 0.344824 8.62432e-23)
(0.582982 0.283706 0)
(0.661123 0.235325 -8.05865e-22)
(0.720178 0.197834 -5.36536e-22)
(0.771596 0.167148 -5.95058e-23)
(0.812664 0.142437 1.0423e-22)
(0.848833 0.121534 -1.29726e-22)
(0.877552 0.103817 5.1718e-23)
(0.154989 0.308008 1.10181e-21)
(0.334271 0.370417 -1.10582e-22)
(0.473689 0.308756 -9.04548e-22)
(0.565117 0.253816 2.00813e-22)
(0.646711 0.210379 5.99914e-22)
(0.708323 0.176739 7.63291e-22)
(0.761813 0.149232 -6.16282e-23)
(0.804485 0.1271 -3.36015e-22)
(0.841848 0.108396 0)
(0.871583 0.092509 4.85661e-23)
(0.134737 0.27181 7.56524e-23)
(0.309912 0.325739 0)
(0.453903 0.271038 -2.88464e-23)
(0.549221 0.222648 0)
(0.633897 0.184431 -8.62401e-22)
(0.69779 0.154845 6.46884e-22)
(0.753129 0.130673 0)
(0.797223 0.11124 9.04813e-24)
(0.835639 0.0948304 0)
(0.866313 0.0808565 0)
(0.116966 0.233567 1.56968e-22)
(0.288653 0.279074 -1.06984e-21)
(0.436689 0.231865 8.48863e-22)
(0.535398 0.190354 -1.4572e-22)
(0.622761 0.157597 3.73305e-22)
(0.688642 0.132246 1.024e-22)
(0.745592 0.11155 0)
(0.790918 0.0949205 -2.77617e-22)
(0.830242 0.080888 -7.38532e-23)
(0.861762 0.0689066 -2.13166e-22)
(0.101862 0.193561 6.71906e-22)
(0.270667 0.230704 -1.5869e-21)
(0.422161 0.191443 1.46042e-22)
(0.523737 0.157092 -6.09345e-22)
(0.613371 0.130002 -6.84489e-23)
(0.680934 0.109043 -6.62548e-22)
(0.739244 0.091941 0)
(0.785606 0.0782069 3.79809e-22)
(0.825691 0.0666231 -6.76881e-23)
(0.857945 0.0567068 4.86492e-22)
(0.0895847 0.152091 -6.71907e-22)
(0.256101 0.180922 5.82253e-22)
(0.41042 0.149987 -1.00963e-22)
(0.514316 0.123026 7.14712e-22)
(0.605787 0.101776 3.91694e-22)
(0.67471 0.0853378 4.05076e-23)
(0.734122 0.0719309 -3.38217e-23)
(0.781317 0.0611682 -4.25332e-22)
(0.822014 0.0520931 3.85934e-24)
(0.854876 0.0443051 -1.6161e-22)
(0.0802622 0.109468 3.51758e-22)
(0.245072 0.13003 0)
(0.401544 0.107719 4.14796e-22)
(0.507195 0.0883306 0)
(0.600057 0.0730545 5.497e-23)
(0.670009 0.0612392 -4.5771e-23)
(0.730253 0.0516059 0)
(0.778077 0.0438747 0)
(0.819233 0.0373567 0)
(0.852566 0.0317504 0)
(0.0739925 0.066015 -3.08154e-22)
(0.237669 0.078339 -1.18544e-22)
(0.395593 0.0648663 -4.14796e-22)
(0.502421 0.0531809 0)
(0.596217 0.0439762 0)
(0.66686 0.0368574 2.06743e-23)
(0.727662 0.0310545 -8.24351e-23)
(0.775905 0.0263982 -9.76514e-23)
(0.817369 0.0224729 -9.09497e-23)
(0.851022 0.0190906 1.46699e-23)
(0.0708412 0.0220608 -5.57949e-24)
(0.233953 0.0261667 1.27891e-22)
(0.392608 0.0216613 -5.70338e-24)
(0.500027 0.0177574 1.96869e-23)
(0.594291 0.0146827 -7.75111e-24)
(0.66528 0.0123048 0)
(0.726362 0.0103667 6.51732e-23)
(0.774816 0.00881167 9.76514e-23)
(0.816433 0.00750076 6.91024e-23)
(0.850248 0.00637009 1.03079e-23)
(0.0708412 -0.0220608 -5.57949e-24)
(0.233953 -0.0261667 1.27891e-22)
(0.392608 -0.0216613 -5.70338e-24)
(0.500027 -0.0177574 1.96869e-23)
(0.594291 -0.0146827 -7.75111e-24)
(0.66528 -0.0123048 0)
(0.726362 -0.0103667 5.74154e-23)
(0.774816 -0.00881167 1.04145e-22)
(0.816433 -0.00750076 7.34841e-23)
(0.850248 -0.00637009 0)
(0.0739925 -0.066015 -3.95362e-22)
(0.237669 -0.078339 -1.53764e-22)
(0.395593 -0.0648663 -4.39686e-22)
(0.502421 -0.0531809 2.05883e-23)
(0.596217 -0.0439762 0)
(0.66686 -0.0368574 -2.06743e-23)
(0.727662 -0.0310545 -4.79112e-23)
(0.775905 -0.0263982 -9.76514e-23)
(0.817369 -0.0224729 -5.60184e-23)
(0.851022 -0.0190906 -1.46699e-23)
(0.0802622 -0.109468 3.51758e-22)
(0.245072 -0.13003 0)
(0.401544 -0.107719 4.14796e-22)
(0.507195 -0.0883306 0)
(0.600057 -0.0730545 5.497e-23)
(0.670009 -0.0612392 -4.5771e-23)
(0.730253 -0.0516059 0)
(0.778077 -0.0438747 0)
(0.819233 -0.0373567 0)
(0.852566 -0.0317504 0)
(0.0895847 -0.152091 -6.71907e-22)
(0.256101 -0.180922 4.54806e-22)
(0.41042 -0.149987 1.00963e-22)
(0.514316 -0.123026 4.89409e-22)
(0.605787 -0.101776 5.12165e-22)
(0.67471 -0.0853378 -4.05076e-23)
(0.734122 -0.0719309 3.38217e-23)
(0.781317 -0.0611682 -3.34288e-22)
(0.822014 -0.0520931 -3.85934e-24)
(0.854876 -0.0443051 -2.71335e-22)
(0.101862 -0.193561 6.71906e-22)
(0.270667 -0.230704 5.49845e-22)
(0.422161 -0.191443 -1.46042e-22)
(0.523737 -0.157092 -5.94774e-22)
(0.613371 -0.130002 4.96836e-23)
(0.680934 -0.109043 -6.62548e-22)
(0.739244 -0.091941 0)
(0.785606 -0.0782069 3.79809e-22)
(0.825691 -0.0666231 6.76881e-23)
(0.857945 -0.0567068 3.72785e-22)
(0.116966 -0.233567 -1.56968e-22)
(0.288653 -0.279074 1.06984e-21)
(0.436689 -0.231865 6.64368e-22)
(0.535398 -0.190354 1.4572e-22)
(0.622761 -0.157597 4.66411e-22)
(0.688642 -0.132246 -1.49108e-22)
(0.745592 -0.11155 6.51506e-23)
(0.790918 -0.0949205 -4.53705e-22)
(0.830242 -0.080888 7.38532e-23)
(0.861762 -0.0689066 -2.13166e-22)
(0.134737 -0.27181 -7.56525e-23)
(0.309912 -0.325739 0)
(0.453903 -0.271038 -2.88464e-23)
(0.549221 -0.222648 0)
(0.633897 -0.184431 -8.62401e-22)
(0.69779 -0.154845 6.46884e-22)
(0.753129 -0.130673 0)
(0.797223 -0.11124 9.04812e-24)
(0.835639 -0.0948304 0)
(0.866313 -0.0808565 0)
(0.154989 -0.308008 1.10181e-21)
(0.334271 -0.370417 1.10582e-22)
(0.473689 -0.308756 -6.36656e-22)
(0.565117 -0.253816 -1.29946e-22)
(0.646711 -0.210379 1.01182e-21)
(0.708323 -0.176739 4.52323e-22)
(0.761813 -0.149232 6.16282e-23)
(0.804485 -0.1271 -4.19819e-22)
(0.841848 -0.108396 7.02965e-23)
(0.871583 -0.092509 -4.85661e-23)
(0.177513 -0.341902 -1.2331e-21)
(0.36153 -0.412837 8.25111e-22)
(0.49591 -0.344824 7.72103e-23)
(0.582982 -0.283706 -1.35205e-22)
(0.661123 -0.235325 -8.05865e-22)
(0.720178 -0.197834 -6.79074e-22)
(0.771596 -0.167148 5.95059e-23)
(0.812664 -0.142437 -5.82668e-23)
(0.848833 -0.121534 1.29726e-22)
(0.877552 -0.103817 -5.1718e-23)
(0.202086 -0.373263 -9.31335e-22)
(0.391463 -0.452733 -8.22012e-22)
(0.520413 -0.37906 1.08314e-21)
(0.602698 -0.312178 1.28011e-22)
(0.677043 -0.259158 0)
(0.733287 -0.218043 0)
(0.782426 -0.184351 0)
(0.821716 -0.157195 1.31404e-21)
(0.856555 -0.134197 4.88404e-22)
(0.884196 -0.114735 -3.72433e-22)
(0.228472 -0.401887 1.76732e-21)
(0.423815 -0.489848 0)
(0.547024 -0.411299 -2.39011e-21)
(0.62414 -0.339105 -9.00056e-22)
(0.694373 -0.281779 0)
(0.747573 -0.237283 0)
(0.794243 -0.200775 8.11016e-22)
(0.831595 -0.171319 -6.44397e-22)
(0.864968 -0.146341 -4.88402e-22)
(0.891488 -0.12522 3.72433e-22)
(0.256399 -0.427548 -9.35744e-22)
(0.45832 -0.523972 8.18903e-23)
(0.575548 -0.441398 1.15222e-21)
(0.647169 -0.36437 1.00549e-21)
(0.713007 -0.303095 -8.75253e-23)
(0.762954 -0.255479 -1.00437e-21)
(0.806985 -0.216359 -4.14168e-23)
(0.842249 -0.184762 -5.15658e-22)
(0.874028 -0.157926 -5.07672e-22)
(0.899397 -0.135234 3.41965e-22)
(0.285555 -0.450023 -2.52137e-24)
(0.494703 -0.554947 -1.19794e-21)
(0.605788 -0.469226 -1.24626e-22)
(0.671641 -0.38787 -6.74977e-22)
(0.732833 -0.323025 -5.37832e-22)
(0.779343 -0.272566 -1.81579e-22)
(0.820584 -0.231048 -7.61513e-22)
(0.853626 -0.197476 6.62779e-22)
(0.883685 -0.168919 3.4279e-22)
(0.907889 -0.144741 -2.54213e-22)
(0.315598 -0.469129 0)
(0.532664 -0.582631 9.84251e-22)
(0.637537 -0.494669 1.10876e-22)
(0.697402 -0.409518 6.82466e-23)
(0.753731 -0.341499 6.08776e-22)
(0.796645 -0.288483 8.32156e-22)
(0.83497 -0.244793 -6.7217e-22)
(0.865671 -0.209421 7.07195e-23)
(0.893887 -0.179286 0)
(0.916923 -0.15371 0)
(0.346171 -0.484726 -5.79241e-23)
(0.571884 -0.606899 8.16955e-22)
(0.670581 -0.517627 0)
(0.724293 -0.429241 1.53299e-22)
(0.77558 -0.358457 -6.84324e-23)
(0.814766 -0.303183 0)
(0.850069 -0.257555 6.79287e-22)
(0.878328 -0.220564 4.89205e-22)
(0.90458 -0.189005 -9.31691e-23)
(0.926454 -0.162119 7.82592e-23)
(0.376901 -0.496716 4.96086e-23)
(0.612027 -0.62765 -8.57673e-22)
(0.704697 -0.538018 0)
(0.752151 -0.446979 7.08143e-22)
(0.798253 -0.373851 -6.15429e-23)