/*--------------------------------*- C++ -*----------------------------------*\
  =========                 |
  \\      /  F ield         | OpenFOAM: The Open Source CFD Toolbox
   \\    /   O peration     | Website:  https://openfoam.org
    \\  /    A nd           | Version:  9
     \\/     M anipulation  |
\*---------------------------------------------------------------------------*/
FoamFile
{
    format      ascii;
    class       volVectorField;
    location    "3.6";
    object      U;
}
// * * * * * * * * * * * * * * * * * * * * * * * * * * * * * * * * * * * * * //

dimensions      [0 1 -1 0 0 0 0];

internalField   nonuniform List<vector> 
8500
(
(-0.0046086 0.00159665 0)
(-0.017562 0.00239817 -7.58648e-23)
(-0.0334527 0.0021947 -4.19871e-24)
(-0.0441534 0.00142715 7.78829e-37)
(-0.049371 0.000352183 -1.08837e-23)
(-0.0475952 -0.000929088 9.12826e-24)
(-0.0388932 -0.00237023 -5.67782e-23)
(-0.0214347 -0.00397949 -8.33718e-23)
(0.00182875 -0.00550847 -6.99636e-23)
(0.0360647 -0.00722877 -3.46757e-24)
(-0.00477928 0.004748 2.12067e-22)
(-0.0175264 0.00712123 7.0904e-23)
(-0.0328061 0.00650441 2.84416e-22)
(-0.0426924 0.00420602 0)
(-0.0469097 0.000993108 0)
(-0.0439782 -0.00283239 1.74142e-23)
(-0.0339983 -0.00713131 4.21537e-23)
(-0.0150746 -0.0119114 8.87313e-23)
(0.00957673 -0.0165051 5.30772e-23)
(0.0458806 -0.0215762 1.3894e-23)
(-0.00511098 0.00777486 -1.88435e-22)
(-0.0174413 0.0116265 0)
(-0.0315031 0.0105772 -2.67852e-22)
(-0.0397689 0.00676067 0)
(-0.0419989 0.00144566 -4.37285e-23)
(-0.0367741 -0.00487012 3.66757e-23)
(-0.0242584 -0.011963 0)
(-0.00245551 -0.0197871 0)
(0.0249242 -0.0274114 0)
(0.0652988 -0.0355908 0)
(-0.0055847 0.0105987 3.83366e-22)
(-0.0172788 0.0157754 -2.87488e-22)
(-0.029524 0.0142621 -6.73454e-23)
(-0.0353795 0.0089485 -4.17091e-22)
(-0.0346603 0.00159089 -4.0521e-22)
(-0.0260436 -0.00712698 3.5104e-23)
(-0.00977587 -0.0169277 -2.94803e-23)
(0.0162434 -0.0275882 3.15875e-22)
(0.0475943 -0.0381332 3.31208e-24)
(0.0938892 -0.0490508 2.62449e-22)
(-0.00617277 0.0131472 -3.83366e-22)
(-0.0169977 0.0194394 -3.74285e-22)
(-0.0268388 0.0174186 1.01386e-22)
(-0.0295168 0.0106372 5.54589e-22)
(-0.0249236 0.00131985 -4.8051e-23)
(-0.0118771 -0.0096741 5.80842e-22)
(0.00929567 -0.0220296 0)
(0.0407818 -0.0353124 -3.59277e-22)
(0.0771974 -0.0486003 -6.68521e-23)
(0.131029 -0.061744 -3.61773e-22)
(-0.00683975 0.0153567 9.79769e-23)
(-0.016544 0.022503 6.2024e-22)
(-0.0234063 0.0199204 -4.82056e-22)
(-0.0221678 0.0117086 1.5242e-24)
(-0.0128199 0.000537002 -4.09623e-22)
(0.00563228 -0.0125714 1.49818e-22)
(0.032751 -0.0272552 -5.97134e-23)
(0.070832 -0.0429359 4.52883e-22)
(0.113267 -0.0587488 -7.43218e-23)
(0.175941 -0.0734697 2.09215e-22)
(-0.00754349 0.0171735 4.96089e-23)
(-0.015852 0.0248673 0)
(-0.0191741 0.021659 -5.39185e-24)
(-0.0133119 0.0120625 0)
(0.00161927 -0.000834997 7.28664e-22)
(0.0263806 -0.0158682 -5.84982e-22)
(0.0603752 -0.0326246 0)
(0.106015 -0.0503817 3.09096e-24)
(0.155262 -0.0684965 0)
(0.227726 -0.0840387 0)
(-0.00823651 0.0185557 -8.15357e-22)
(-0.0148445 0.0264517 -8.41884e-23)
(-0.0140779 0.0225472 6.25545e-22)
(-0.00291794 0.0116211 1.12058e-22)
(0.0183673 -0.00285133 -7.37229e-22)
(0.0502578 -0.0195882 -4.46605e-22)
(0.0919432 -0.0381311 -6.06961e-23)
(0.145924 -0.0575699 4.6434e-22)
(0.202595 -0.0777416 -7.58495e-23)
(0.285398 -0.0932737 5.4077e-23)
(-0.00886744 0.0194735 9.1801e-22)
(-0.0134349 0.027196 -6.93377e-22)
(-0.00804124 0.0225215 -2.10575e-22)
(0.00905694 0.0103316 1.16589e-22)
(0.0374076 -0.00554241 7.40774e-22)
(0.0771564 -0.0237282 6.67556e-22)
(0.127226 -0.0437355 -6.12429e-23)
(0.190138 -0.0644086 9.78421e-23)
(0.254657 -0.0863592 -1.45591e-22)
(0.347916 -0.101008 5.80875e-23)
(-0.00938227 0.0199092 8.48829e-22)
(-0.0115285 0.0270633 6.92401e-22)
(-0.000975135 0.0215436 -1.0088e-21)
(0.0226688 0.00816918 -1.17898e-22)
(0.0587358 -0.00890923 0)
(0.106978 -0.0282567 0)
(0.165996 -0.0493684 0)
(0.238228 -0.0707849 -1.50435e-21)
(0.310831 -0.0941955 -6.08625e-22)
(0.41421 -0.107086 4.22864e-22)
(-0.00972311 0.0198531 -1.71618e-21)
(-0.00902526 0.0260422 0)
(0.00721941 0.0196038 2.31444e-21)
(0.0379873 0.00514018 9.4396e-22)
(0.0823611 -0.01292 9.66507e-23)
(0.139637 -0.0331105 0)
(0.208035 -0.0549295 -9.76818e-22)
(0.289761 -0.0765635 7.55614e-22)
(0.370502 -0.101065 6.0862e-22)
(0.483199 -0.111361 -4.22877e-22)
(-0.00983119 0.0193114 9.75679e-22)
(-0.0058162 0.0241402 -9.0947e-23)
(0.0166499 0.0167218 -1.16476e-21)
(0.0550937 0.0012837 -1.06056e-21)
(0.108305 -0.0175082 0)
(0.175054 -0.0381917 1.23396e-21)
(0.253127 -0.0602851 -9.12074e-24)
(0.344302 -0.081589 6.75379e-22)
(0.433048 -0.106752 7.01028e-22)
(0.553794 -0.113702 -4.25174e-22)
(-0.00965176 0.0183039 -1.65744e-24)
(-0.00178944 0.0213842 1.55768e-21)
(0.0274331 0.0129459 -1.50638e-22)
(0.0740789 -0.0033275 8.4774e-22)
(0.136598 -0.0225711 4.8982e-22)
(0.213158 -0.0433674 3.21978e-22)
(0.301054 -0.065269 9.7835e-22)
(0.401407 -0.0856904 -8.69847e-22)
(0.497837 -0.111015 -4.79862e-22)
(0.624913 -0.113999 3.05424e-22)
(-0.00912917 0.016855 0)
(0.00316674 0.0178266 -1.28737e-21)
(0.0396903 0.00835356 -1.52941e-22)
(0.0950396 -0.00858688 1.14138e-23)
(0.167274 -0.0279701 7.77926e-22)
(0.253874 -0.0484702 -1.09287e-21)
(0.351589 -0.0696856 9.95775e-22)
(0.460617 -0.0886886 -1.01429e-22)
(0.564219 -0.113602 0)
(0.695484 -0.112172 0)
(-0.00820895 0.0149976 1.17386e-22)
(0.00916371 0.0135399 -1.51927e-21)
(0.0535434 0.00305024 0)
(0.118072 -0.014355 -1.08753e-22)
(0.200361 -0.0335323 1.00959e-22)
(0.297116 -0.0533019 0)
(0.404477 -0.0733158 -1.00347e-21)
(0.521448 -0.0904062 -7.88578e-22)
(0.63151 -0.114262 1.43662e-22)
(0.764457 -0.108203 -1.21105e-22)
(-0.00683867 0.0127719 -1.17281e-22)
(0.0163104 0.00861461 1.61773e-21)
(0.0691113 -0.00283234 0)
(0.143267 -0.0204617 -1.11068e-21)
(0.235874 -0.0390541 1.02113e-22)
(0.34277 -0.0576386 -1.2812e-21)
(0.459422 -0.0759262 -1.2258e-22)
(0.583384 -0.090678 8.91649e-22)
(0.698997 -0.112768 0)
(0.830822 -0.102158 8.62045e-22)
(-0.00496831 0.010224 -1.87106e-21)
(0.0247108 0.00315801 -1.00484e-22)
(0.0865047 -0.00913835 -1.54172e-22)
(0.170699 -0.0267093 1.29014e-22)
(0.273801 -0.0443062 -1.62278e-21)
(0.390686 -0.0612386 1.28119e-21)
(0.516079 -0.0772822 1.02697e-21)
(0.645877 -0.0893635 8.00045e-22)
(0.765927 -0.108919 1.27572e-21)
(0.893588 -0.09417 -7.43567e-22)
(-0.00255042 0.00740503 1.99075e-21)
(0.0344613 -0.00270772 0)
(0.105821 -0.0156907 1.44544e-21)
(0.200421 -0.032877 -1.30817e-22)
(0.314097 -0.0490405 3.26297e-21)
(0.440665 -0.0638524 0)
(0.574041 -0.0771636 -1.02696e-21)
(0.708358 -0.0863596 5.24599e-24)
(0.831521 -0.10252 -1.42046e-21)
(0.951752 -0.0843585 1.22032e-22)
(0.000459494 0.00437012 0)
(0.0456486 -0.00884745 1.62605e-21)
(0.12714 -0.0222946 -1.28911e-21)
(0.232456 -0.0387261 0)
(0.356666 -0.0529982 -1.64019e-21)
(0.492447 -0.0652333 0)
(0.632838 -0.0753853 1.04017e-21)
(0.770261 -0.0816077 -8.0528e-22)
(0.895034 -0.0933748 -1.26736e-21)
(1.0045 -0.0731729 -8.79865e-22)
(0.00410256 0.00117795 -2.54431e-22)
(0.0583464 -0.015115 -1.41245e-21)
(0.150517 -0.0287409 0)
(0.266787 -0.0440062 0)
(0.401361 -0.0559191 0)
(0.545707 -0.06515 -1.60532e-22)
(0.69194 -0.0718123 -1.04912e-21)
(0.831029 -0.0750788 -1.05824e-22)
(0.955823 -0.0814968 1.26736e-21)
(1.05235 -0.0629334 9.98221e-22)
(0.00841602 -0.00210964 0)
(0.0726137 -0.0213553 -1.68251e-21)
(0.175979 -0.0348104 0)
(0.303352 -0.0484619 0)
(0.447975 -0.05755 0)
(0.600051 -0.0633967 1.61629e-22)
(0.750758 -0.0663614 -1.31293e-21)
(0.890032 -0.066754 8.95e-23)
(1.01303 -0.0676682 9.39915e-22)
(1.09906 -0.0574921 9.64345e-22)
(0.0134326 -0.00542796 0)
(0.0884916 -0.0274061 1.6825e-21)
(0.203519 -0.0402786 -1.3706e-21)
(0.342043 -0.0518398 0)
(0.496237 -0.0576549 -1.7106e-21)
(0.655026 -0.0598016 0)
(0.808676 -0.058988 1.05075e-21)
(0.946536 -0.0566626 -8.17879e-22)
(1.06493 -0.0535102 -1.25413e-21)
(1.14414 -0.052691 -9.55553e-22)
(0.0191796 -0.0087096 2.27601e-21)
(0.106001 -0.0331001 0)
(0.233096 -0.0449194 1.20286e-21)
(0.382695 -0.053896 1.40366e-22)
(0.545818 -0.0560233 3.43814e-21)
(0.710132 -0.0542351 0)
(0.865087 -0.0496868 -1.05736e-21)
(0.999899 -0.0448375 -1.63504e-21)
(1.11146 -0.0388238 -1.08657e-21)
(1.18359 -0.0426147 -1.63164e-23)
(0.0256782 -0.0118846 -2.41357e-21)
(0.125141 -0.0382669 1.15483e-22)
(0.264627 -0.0485106 1.70072e-22)
(0.425094 -0.0544029 -1.42318e-22)
(0.596338 -0.0524787 -1.72754e-21)
(0.76484 -0.0466175 1.36454e-21)
(0.919415 -0.0384983 1.05736e-21)
(1.0496 -0.0313806 8.17158e-22)
(1.15278 -0.0234904 1.23588e-21)
(1.217 -0.0292476 -1.05689e-21)
(0.0329423 -0.0148806 1.40117e-22)
(0.145887 -0.0427357 1.67913e-21)
(0.297991 -0.050838 0)
(0.468972 -0.0531561 -9.84227e-22)
(0.647369 -0.0468851 -1.13207e-22)
(0.81861 -0.0369226 -1.36454e-21)
(0.971137 -0.0255133 1.26922e-22)
(1.09525 -0.0164763 7.03545e-22)
(1.18904 -0.00758372 0)
(1.24484 -0.0141466 9.49401e-22)
(0.0409774 -0.0176231 -1.49561e-22)
(0.168186 -0.0463368 -1.79676e-21)
(0.333026 -0.0517002 0)
(0.514018 -0.0499807 1.23984e-22)
(0.698453 -0.0391523 -1.14343e-22)
(0.870909 -0.0251782 0)
(1.01979 -0.0108674 -1.05617e-21)
(1.13658 -0.000353703 -8.10274e-22)
(1.22039 0.00877666 -1.44258e-22)
(1.26755 0.00185219 -1.21614e-22)
(0.0497797 -0.0200361 0)
(0.191961 -0.0489046 -2.07589e-21)
(0.369528 -0.0509132 1.87779e-22)
(0.559877 -0.0447353 -1.17349e-23)
(0.749112 -0.0292372 -8.92062e-22)
(0.921233 -0.011462 -1.54239e-21)
(1.065 0.00526725 1.19471e-21)
(1.17344 0.0167423 0)
(1.24701 0.0254492 0)
(1.28559 0.0182162 0)
(0.0593348 -0.0220424 7.62471e-24)
(0.217106 -0.0502802 1.74745e-21)
(0.407258 -0.0483139 1.90352e-22)
(0.606163 -0.0373168 1.28249e-21)
(0.798865 -0.017145 7.75729e-22)
(0.969118 0.00410415 -1.64486e-22)
(1.10646 0.022693 1.05905e-21)
(1.2058 0.0345682 -6.81121e-22)
(1.26914 0.0422819 -7.16961e-22)
(1.29945 0.0345885 5.53877e-22)
(0.069617 -0.0235647 1.12008e-21)
(0.243487 -0.0503139 1.25597e-22)
(0.44594 -0.0437648 -1.50782e-21)
(0.652467 -0.0276622 -1.16363e-21)
(0.847239 -0.00292671 0)
(1.01415 0.021362 1.37724e-21)
(1.14396 0.0411963 -8.83128e-24)
(1.23369 0.0528927 8.77687e-22)
(1.28706 0.0591263 5.0084e-22)
(1.30959 0.0507346 -4.36714e-22)
(0.0805885 -0.0245264 -2.55717e-21)
(0.270944 -0.0488683 0)
(0.485271 -0.0371563 3.03088e-21)
(0.698366 -0.0157497 1.02307e-21)
(0.893782 0.0133243 1.17746e-22)
(1.056 0.0401255 0)
(1.17738 0.0605579 -1.03672e-21)
(1.25725 0.0715045 7.60387e-22)
(1.30108 0.0758482 5.5333e-22)
(1.31646 0.0665047 -4.11401e-22)
(0.0921988 -0.0248532 1.28747e-21)
(0.299291 -0.045821 9.71445e-22)
(0.524923 -0.0284102 -1.70689e-21)
(0.743433 -0.00159904 1.5383e-22)
(0.93808 0.0314774 0)
(1.09437 0.0601892 0)
(1.20666 0.0805604 0)
(1.27665 0.0902154 -1.50501e-21)
(1.31154 0.0923321 -5.53333e-22)
(1.32049 0.0818067 4.11387e-22)
(0.104384 -0.0244741 1.16169e-21)
(0.328315 -0.0410678 -9.60039e-22)
(0.564548 -0.0174813 9.93682e-23)
(0.787248 0.0147304 0)
(0.979757 0.0513704 8.9867e-22)
(1.12908 0.081336 5.92969e-22)
(1.23182 0.100995 6.71056e-23)
(1.29212 0.108862 -6.80662e-23)
(1.31875 0.108483 1.34663e-22)
(1.32204 0.0965872 -5.25914e-23)
(0.117069 -0.0233233 -1.31682e-21)
(0.357785 -0.0345252 1.19653e-22)
(0.603787 -0.0043591 7.69892e-22)
(0.829407 0.0331418 -2.18841e-22)
(1.01849 0.0728157 -6.7417e-22)
(1.15996 0.103344 -8.40772e-22)
(1.25295 0.121666 6.61496e-23)
(1.30392 0.127304 3.73319e-22)
(1.32304 0.124225 0)
(1.32144 0.110818 -4.22675e-23)
(0.130164 -0.0213414 -8.32778e-23)
(0.38745 -0.0261331 0)
(0.642277 0.010932 2.0222e-24)
(0.86953 0.053504 0)
(1.05401 0.0956064 8.86266e-22)
(1.18696 0.125993 -6.53847e-22)
(1.27016 0.142392 0)
(1.31231 0.145424 1.08977e-23)
(1.32473 0.139499 0)
(1.31898 0.124487 0)
(0.143567 -0.0184775 -1.62762e-22)
(0.417043 -0.0158567 1.0601e-21)
(0.679656 0.0283327 -8.72073e-22)
(0.907267 0.0756556 1.47669e-22)
(1.0861 0.119522 -4.03047e-22)
(1.21005 0.149068 -7.43533e-23)
(1.28363 0.163011 0)
(1.31757 0.163123 2.64684e-22)
(1.32409 0.15426 6.56532e-23)
(1.31491 0.137589 1.66853e-22)
(0.157168 -0.0146906 -6.70456e-22)
(0.446288 -0.00368864 -4.36588e-22)
(0.71557 0.0477495 -1.43035e-22)
(0.942306 0.0994091 5.90048e-22)
(1.11459 0.144335 5.13366e-23)
(1.22927 0.172361 6.41155e-22)
(1.29354 0.183375 0)
(1.31995 0.180321 -3.17804e-22)
(1.32139 0.168475 5.29366e-23)
(1.30943 0.150124 -3.69256e-22)
(0.170844 -0.00995104 -6.70456e-22)
(0.474902 0.0103498 4.36701e-22)
(0.749681 0.0690568 -4.27809e-24)
(0.974372 0.124555 -6.886e-22)
(1.13937 0.169813 -3.74082e-22)
(1.24468 0.195679 -3.58831e-23)
(1.3001 0.203353 3.01348e-23)
(1.31971 0.196948 3.53596e-22)
(1.31686 0.182114 -5.0398e-24)
(1.30273 0.162093 1.19381e-22)
(0.184465 -0.00424197 -3.32479e-22)
(0.502599 0.0262083 0)
(0.78167 0.0920989 -3.82652e-22)
(1.00324 0.150868 0)
(1.16039 0.195723 -4.71825e-22)
(1.25639 0.218836 4.08675e-23)
(1.30351 0.222829 0)
(1.3171 0.212948 0)
(1.3107 0.195157 0)
(1.29496 0.173493 0)
(0.197895 0.00243947 2.92223e-22)
(0.529099 0.0438068 1.38373e-22)
(0.811244 0.116693 3.82653e-22)
(1.02871 0.178107 0)
(1.17762 0.221839 0)
(1.26453 0.241663 -1.6678e-23)
(1.30399 0.241702 6.34478e-23)
(1.31235 0.228273 6.82224e-23)
(1.3031 0.207583 5.78757e-23)
(1.28623 0.18432 -9.31821e-24)
(0.210995 0.0100813 -5.11712e-24)
(0.554126 0.0630368 -1.29265e-22)
(0.83814 0.14263 6.11118e-24)
(1.05065 0.206025 8.01302e-24)
(1.19109 0.247937 -1.24203e-23)
(1.26925 0.264001 4.7873e-24)
(1.30175 0.259878 -5.49434e-23)
(1.30564 0.24288 -6.35966e-23)
(1.29421 0.219374 -4.42526e-23)
(1.27665 0.194566 1.28676e-24)
(0.22362 0.0186559 0)
(0.57742 0.0837615 -1.25461e-22)
(0.862126 0.169684 -4.76945e-24)
(1.06895 0.234367 9.01787e-24)
(1.20084 0.273803 1.72494e-37)
(1.27073 0.285704 -1.20656e-37)
(1.29701 0.277277 -4.92394e-23)
(1.29718 0.25673 -5.51372e-23)
(1.28417 0.23051 -3.99706e-23)
(1.26632 0.204221 0)
(0.23563 0.0281199 3.50564e-22)
(0.598734 0.105818 1.02608e-22)
(0.883007 0.197609 3.74262e-22)
(1.08355 0.262877 -1.7539e-23)
(1.20696 0.29923 0)
(1.26914 0.306638 1.42883e-23)
(1.28995 0.293826 3.20695e-23)
(1.28713 0.269789 5.9486e-23)
(1.27309 0.24097 3.14274e-23)
(1.2553 0.213271 7.19769e-24)
(0.246884 0.0384139 -3.12146e-22)
(0.617845 0.129019 0)
(0.900622 0.226146 -3.53304e-22)
(1.09444 0.291302 0)
(1.20957 0.324023 -3.95921e-23)
(1.26465 0.32668 3.32066e-23)
(1.28078 0.309457 0)
(1.27564 0.282022 0)
(1.26109 0.25073 0)
(1.24367 0.221697 0)
(0.257248 0.0494629 5.87065e-22)
(0.634551 0.153157 -3.82838e-22)
(0.91485 0.255025 -8.32425e-23)
(1.10162 0.319389 -3.76637e-22)
(1.20879 0.347997 -3.63654e-22)
(1.25747 0.345716 2.4749e-23)
(1.26966 0.324109 -2.07844e-23)
(1.26285 0.293398 1.5735e-22)
(1.24825 0.259766 4.3349e-24)
(1.23147 0.229472 8.91339e-23)
(0.266595 0.0611769 -5.87065e-22)
(0.648677 0.178004 -4.53171e-22)
(0.925607 0.283973 1.16909e-22)
(1.10514 0.346894 4.53067e-22)
(1.20477 0.370978 -2.1221e-23)
(1.24776 0.363641 3.87862e-22)
(1.25677 0.337727 0)
(1.24889 0.303884 -1.7838e-22)
(1.23466 0.268059 -2.28106e-23)
(1.21869 0.236566 -1.06646e-22)
(0.274807 0.0734517 1.34188e-22)
(0.66008 0.203316 7.83269e-22)
(0.932846 0.312711 -5.23814e-22)
(1.10508 0.373578 -1.06915e-22)
(1.19767 0.392801 -2.72364e-22)
(1.23572 0.38036 5.66415e-23)
(1.24227 0.350257 -3.43312e-23)
(1.23387 0.313441 1.66005e-22)
(1.22043 0.275606 -2.67299e-23)
(1.20541 0.242987 5.64256e-23)
(0.281778 0.0861704 6.54828e-23)
(0.668645 0.22884 0)
(0.936556 0.340961 3.68647e-23)
(1.10154 0.399213 0)
(1.18768 0.413315 5.45126e-22)
(1.22154 0.395784 -3.50301e-22)
(1.2263 0.361652 0)
(1.2179 0.322028 -2.32036e-23)
(1.20558 0.282369 0)
(1.19174 0.248673 0)
(0.287417 0.0992047 -9.52298e-22)
(0.67429 0.25431 -8.64719e-23)
(0.936763 0.368449 6.29578e-22)
(1.09466 0.423581 8.10049e-23)
(1.17497 0.432379 -5.61179e-22)
(1.20538 0.409834 -1.94941e-22)
(1.20901 0.371865 -2.63535e-23)
(1.20107 0.329621 8.39883e-23)
(1.19014 0.2883 -1.74271e-23)
(1.17773 0.253623 4.74429e-24)
(0.291645 0.112416 1.06112e-21)
(0.676967 0.279457 -6.69712e-22)
(0.933524 0.394906 -1.79023e-22)
(1.08458 0.446478 9.36519e-23)
(1.15972 0.449864 4.41916e-22)
(1.18743 0.422434 2.95774e-22)
(1.19055 0.380852 -2.21159e-23)
(1.18351 0.336197 -3.41445e-23)
(1.17418 0.293378 -1.8541e-23)
(1.16338 0.257806 5.02429e-24)
(0.294403 0.12566 8.05261e-22)
(0.676659 0.304011 6.58612e-22)
(0.926932 0.420074 -7.5244e-22)
(1.07147 0.46771 -8.43838e-23)
(1.14215 0.46565 0)
(1.16787 0.433517 0)
(1.17104 0.388568 0)
(1.16527 0.341727 -2.00289e-22)
(1.15776 0.297578 -1.5318e-23)
(1.14874 0.261195 -2.52482e-23)
(0.295648 0.138783 -1.5285e-21)
(0.673382 0.3277 0)
(0.917109 0.443706 1.60707e-21)
(1.05553 0.4871 4.69386e-22)
(1.12244 0.47963 0)
(1.14686 0.443024 0)
(1.1506 0.394975 -1.13883e-22)
(1.14644 0.34618 7.50175e-23)
(1.14095 0.300878 1.53181e-23)
(1.13383 0.263763 2.52472e-23)
(0.295354 0.151631 8.04145e-22)
(0.667188 0.350258 -6.79203e-23)
(0.904207 0.465567 -7.53793e-22)
(1.03695 0.504483 -5.14342e-22)
(1.10081 0.491707 3.76575e-23)
(1.12458 0.450898 1.77352e-22)
(1.12937 0.400041 7.03126e-23)
(1.12711 0.349529 -2.52883e-23)
(1.12379 0.303254 -6.47459e-23)
(1.11871 0.265483 8.34582e-23)
(0.293518 0.164049 -3.53443e-24)
(0.658164 0.37143 8.63708e-22)
(0.88839 0.485436 -8.43037e-23)
(1.01593 0.519709 2.67561e-22)
(1.07745 0.501794 1.36635e-22)
(1.10119 0.457093 -6.06619e-23)
(1.10745 0.403734 3.26074e-23)
(1.10735 0.351752 3.11895e-23)
(1.10633 0.304685 -8.66649e-23)
(1.10341 0.266331 -6.27856e-23)
(0.290158 0.175882 0)
(0.646433 0.390979 -7.38286e-22)
(0.86982 0.503095 -6.99642e-23)
(0.992713 0.532652 -8.77073e-23)
(1.05258 0.509815 -1.39191e-22)
(1.07686 0.461567 -8.32517e-23)
(1.08497 0.406029 -1.1016e-22)
(1.08725 0.352827 0)
(1.08862 0.305153 0)
(1.08796 0.266281 0)
(0.285302 0.18697 4.96525e-23)
(0.632127 0.408679 -5.31514e-22)
(0.848714 0.518362 0)
(0.967549 0.543188 -1.04117e-22)
(1.02641 0.515712 1.17465e-23)
(1.05174 0.464285 0)
(1.06206 0.406901 1.00363e-22)
(1.06689 0.352739 1.88305e-22)
(1.07071 0.304645 -4.32915e-23)
(1.07241 0.265308 3.64492e-23)
(0.278985 0.197151 -3.54358e-23)
(0.615405 0.424311 5.61265e-22)
(0.825334 0.531085 0)
(0.940667 0.551214 -1.27907e-22)
(0.99913 0.519432 2.68616e-24)
(1.026 0.465221 2.17176e-22)
(1.03882 0.406334 2.89694e-23)
(1.04635 0.351477 -2.12667e-22)
(1.05265 0.303151 0)
(1.05679 0.263385 -4.0119e-22)
(0.271287 0.20628 -2.43879e-22)
(0.596453 0.437665 -1.92466e-23)
(0.799925 0.541123 -6.902e-24)
(0.912307 0.556646 5.7759e-24)
(0.970959 0.520935 2.64629e-22)
(0.999797 0.464353 -2.17178e-22)
(1.01537 0.404314 -3.20453e-22)
(1.02572 0.349032 -2.9592e-22)
(1.03448 0.300664 -5.22975e-22)
(1.04112 0.260479 3.50346e-22)
(0.262312 0.214243 2.66805e-22)
(0.575472 0.448561 0)
(0.772741 0.548343 -7.96739e-23)
(0.882719 0.559419 6.76556e-24)
(0.942099 0.520191 -6.68193e-22)
(0.973283 0.461668 0)
(0.991829 0.400834 3.20455e-22)
(1.00509 0.345402 -5.35725e-23)
(1.01626 0.297174 5.94229e-22)
(1.02547 0.256549 -5.99814e-23)
(0.252157 0.220914 0)
(0.552696 0.456848 -1.08138e-22)
(0.744051 0.552644 7.15896e-23)
(0.852153 0.559482 0)
(0.912754 0.517183 4.03566e-22)
(0.946613 0.45716 0)
(0.968319 0.395892 -4.66564e-22)
(0.984548 0.340593 3.49497e-22)
(0.998046 0.292676 6.81842e-22)
(1.00998 0.251551 5.6522e-22)
(0.240934 0.226181 3.25927e-23)
(0.528375 0.462397 8.07753e-23)
(0.71413 0.553946 0)
(0.820861 0.556805 0)
(0.883126 0.511903 0)
(0.919941 0.450832 7.29098e-23)
(0.944952 0.389493 3.42044e-22)
(0.964179 0.334615 5.32238e-23)
(0.98 0.287204 -6.81846e-22)
(0.994781 0.245611 -6.36036e-22)
(0.228773 0.229948 0)
(0.502766 0.465103 4.42517e-22)
(0.683259 0.55219 0)
(0.789096 0.551371 0)
(0.853412 0.504358 0)
(0.893415 0.442692 -8.44711e-23)
(0.921839 0.381646 7.52007e-22)
(0.944096 0.327475 -1.79563e-22)
(0.96241 0.280852 -6.35445e-22)
(0.979888 0.238788 -6.63335e-22)
(0.215816 0.232133 0)
(0.476139 0.464883 -4.42518e-22)
(0.651724 0.547345 5.87638e-22)
(0.757105 0.543183 0)
(0.823808 0.494563 9.5225e-22)
(0.867182 0.432759 0)
(0.89909 0.372362 -6.09404e-22)
(0.924423 0.31915 5.57099e-22)
(0.94543 0.273599 8.33149e-22)
(0.965604 0.232624 6.65089e-22)
(0.202212 0.232671 -1.08325e-21)
(0.448771 0.461683 0)
(0.619809 0.539399 -5.03805e-22)
(0.725136 0.532261 -7.01585e-23)
(0.794504 0.482548 -2.03654e-21)
(0.841382 0.421057 0)
(0.876809 0.361661 7.46534e-22)
(0.905219 0.309657 4.89286e-23)
(0.928883 0.265325 8.62918e-22)
(0.951244 0.225837 6.86389e-25)
(0.188122 0.231513 1.15287e-21)
(0.420943 0.455473 -5.84503e-23)
(0.5878 0.528364 -9.85521e-23)
(0.693429 0.518639 -8.24736e-23)
(0.765685 0.468351 1.08429e-21)
(0.816157 0.40762 -9.99855e-22)
(0.855104 0.349569 -7.46538e-22)
(0.886563 0.299026 -6.06034e-22)
(0.912837 0.25608 -9.77354e-22)
(0.937189 0.21819 9.24701e-22)
(0.17371 0.22863 -8.25828e-23)
(0.392938 0.446252 -1.03015e-21)
(0.555977 0.514276 0)
(0.662221 0.50237 7.06497e-22)
(0.737532 0.452025 7.95961e-23)
(0.79164 0.392492 9.99861e-22)
(0.834078 0.336118 -1.03208e-22)
(0.868539 0.287283 -6.12132e-22)
(0.897365 0.245906 0)
(0.923601 0.2097 -8.23271e-22)
(0.159143 0.224007 1.01874e-22)
(0.365039 0.434045 1.09949e-21)
(0.524616 0.497192 0)
(0.631738 0.483523 -2.08884e-23)
(0.710218 0.433631 8.7949e-23)
(0.767963 0.375722 0)
(0.813832 0.321346 9.36303e-22)
(0.851227 0.274455 6.98923e-22)
(0.882532 0.234828 1.38295e-22)
(0.910567 0.200404 -1.16479e-22)
(0.144593 0.217652 0)
(0.337524 0.418901 1.5731e-21)
(0.493986 0.477191 -1.40492e-22)
(0.602203 0.46218 8.05815e-23)
(0.68391 0.413244 7.86048e-22)
(0.745251 0.357369 1.40282e-21)
(0.794464 0.305298 -1.06065e-21)
(0.834701 0.260577 0)
(0.868397 0.222873 0)
(0.898158 0.190329 0)
(0.130227 0.209587 -8.12363e-24)
(0.310668 0.400896 -1.31971e-21)
(0.464347 0.454373 1.55124e-22)
(0.573825 0.438442 -1.0899e-21)
(0.658769 0.390947 -6.82426e-22)
(0.723623 0.3375 2.34153e-22)
(0.776064 0.288028 -1.05709e-21)
(0.819034 0.245691 7.18961e-22)
(0.855017 0.210075 7.97628e-22)
(0.886433 0.179501 -6.31663e-22)
(0.116214 0.199854 -1.0283e-21)
(0.284735 0.380133 -1.09495e-22)
(0.435946 0.428858 1.4001e-21)
(0.546805 0.412422 1.11503e-21)
(0.634944 0.366835 0)
(0.703194 0.31619 -1.33166e-21)
(0.758722 0.269594 -5.13593e-23)
(0.804294 0.229845 -9.24893e-22)
(0.842445 0.196471 -5.59524e-22)
(0.875441 0.167956 5.03273e-22)
(0.102715 0.188514 2.40411e-21)
(0.259979 0.356734 0)
(0.40902 0.400786 -2.89531e-21)
(0.521333 0.384248 -9.74595e-22)
(0.612578 0.341014 -1.17647e-22)
(0.68407 0.293523 0)
(0.742519 0.250062 1.10029e-21)
(0.790545 0.213092 -8.93919e-22)
(0.830733 0.182107 -6.96102e-22)
(0.865224 0.155735 5.41104e-22)
(0.0898879 0.175641 -1.24539e-21)
(0.236642 0.330848 -9.65077e-22)
(0.383792 0.370315 1.68258e-21)
(0.497586 0.35406 -1.56802e-22)
(0.591804 0.313596 0)
(0.666351 0.269588 0)
(0.727532 0.229505 0)
(0.777846 0.195492 1.81915e-21)
(0.819928 0.167031 6.96104e-22)
(0.85582 0.142885 -5.41104e-22)
(0.0778802 0.161329 -1.23932e-21)
(0.21495 0.302643 9.53741e-22)
(0.360467 0.337618 1.02779e-22)
(0.475727 0.32201 0)
(0.572744 0.284706 -1.02311e-21)
(0.65013 0.244484 -7.00458e-22)
(0.713832 0.208 -7.90859e-23)
(0.766253 0.177109 1.41557e-22)
(0.810072 0.151296 -1.83039e-22)
(0.847262 0.129455 7.39166e-23)
(0.0668307 0.145685 1.39921e-21)
(0.195112 0.272307 -1.28981e-22)
(0.339236 0.302887 -1.07855e-21)
(0.455907 0.288264 2.47236e-22)
(0.555511 0.254474 7.62579e-22)
(0.635491 0.218314 9.97248e-22)
(0.701485 0.185633 -8.16792e-23)
(0.755817 0.158012 -4.64131e-22)
(0.801207 0.13496 0)
(0.839579 0.115499 7.02989e-23)
(0.056867 0.128831 9.35283e-23)
(0.177318 0.240046 0)
(0.320271 0.266325 -3.16774e-23)
(0.43826 0.252996 0)
(0.540206 0.223041 -1.09028e-21)
(0.622511 0.19119 8.41847e-22)
(0.690549 0.162491 0)
(0.746582 0.138274 1.11147e-23)
(0.793367 0.118086 0)
(0.832796 0.101071 0)
(0.0481037 0.110901 1.87831e-22)
(0.16174 0.206084 -1.22352e-21)
(0.303724 0.22815 1.00969e-21)
(0.422907 0.216388 -1.77996e-22)
(0.526917 0.190551 4.7063e-22)
(0.611256 0.163226 1.30296e-22)
(0.681076 0.138668 0)
(0.738589 0.117974 -3.79158e-22)
(0.786586 0.100738 -1.02272e-22)
(0.826939 0.0862308 -3.0403e-22)
(0.0406417 0.0920416 8.07485e-22)
(0.148525 0.170656 -1.80753e-21)
(0.289728 0.188591 1.73001e-22)
(0.409952 0.178634 -7.40242e-22)
(0.515723 0.157157 -8.4556e-23)
(0.601787 0.134543 -8.6071e-22)
(0.673111 0.114263 0)
(0.731874 0.0971921 5.17942e-22)
(0.780891 0.0829845 -9.52611e-23)
(0.822026 0.0710384 6.92418e-22)
(0.0345666 0.072407 -8.07485e-22)
(0.137799 0.134013 6.6194e-22)
(0.278395 0.147885 -1.18914e-22)
(0.399482 0.139932 8.70891e-22)
(0.506689 0.123016 4.9482e-22)
(0.594151 0.105267 5.29841e-23)
(0.666693 0.0893765 -4.44964e-23)
(0.726465 0.0760115 -5.80496e-22)
(0.776306 0.0648952 4.45025e-24)
(0.818075 0.0555556 -2.30235e-22)
(0.0299483 0.0521614 4.17716e-22)
(0.129665 0.0964137 0)
(0.269815 0.106281 4.89624e-22)
(0.391567 0.100486 0)
(0.499867 0.0882898 6.98519e-23)
(0.58839 0.0755256 -5.85866e-23)
(0.661853 0.064112 0)
(0.722388 0.0545186 0)
(0.77285 0.0465429 0)
(0.8151 0.0398457 0)
(0.0268397 0.0314746 -3.66829e-22)
(0.124199 0.0581254 -1.32942e-22)
(0.264057 0.0640285 -4.89624e-22)
(0.386261 0.0605063 0)
(0.495297 0.0531428 0)
(0.584532 0.0454497 2.69981e-23)
(0.658613 0.0385762 -1.09203e-22)
(0.719659 0.0328013 -1.32778e-22)
(0.770538 0.0280016 -1.26625e-22)
(0.813111 0.0239728 2.06182e-23)
(0.0252764 0.0105212 -6.60029e-24)
(0.121453 0.0194214 1.44176e-22)
(0.261167 0.0213863 -6.97537e-24)
(0.383599 0.0202046 2.39234e-23)
(0.493005 0.0177425 -9.61231e-24)
(0.582598 0.0151723 0)
(0.656989 0.0128769 8.653e-23)
(0.718292 0.0109488 1.32778e-22)
(0.76938 0.00934654 9.60051e-23)
(0.812114 0.00800185 1.46474e-23)
(0.0252764 -0.0105212 -6.60029e-24)
(0.121453 -0.0194214 1.44176e-22)
(0.261167 -0.0213863 -6.97537e-24)
(0.383599 -0.0202046 2.39234e-23)
(0.493005 -0.0177425 -9.61231e-24)
(0.582598 -0.0151723 0)
(0.656989 -0.0128769 7.61433e-23)
(0.718292 -0.0109488 1.41512e-22)
(0.76938 -0.00934654 1.02144e-22)
(0.812114 -0.00800185 0)
(0.0268397 -0.0314746 -4.68604e-22)
(0.124199 -0.0581254 -1.74305e-22)
(0.264057 -0.0640285 -5.19229e-22)
(0.386261 -0.0605063 2.47748e-23)
(0.495297 -0.0531428 0)
(0.584532 -0.0454497 -2.69981e-23)
(0.658613 -0.0385762 -6.38567e-23)
(0.719659 -0.0328013 -1.32778e-22)
(0.770538 -0.0280016 -7.76632e-23)
(0.813111 -0.0239728 -2.06182e-23)
(0.0299483 -0.0521614 4.17716e-22)
(0.129665 -0.0964137 0)
(0.269815 -0.106281 4.89624e-22)
(0.391567 -0.100486 0)
(0.499867 -0.0882898 6.98519e-23)
(0.58839 -0.0755256 -5.85866e-23)
(0.661853 -0.064112 0)
(0.722388 -0.0545186 0)
(0.77285 -0.0465429 0)
(0.8151 -0.0398457 0)
(0.0345666 -0.072407 -8.07485e-22)
(0.137799 -0.134013 5.15656e-22)
(0.278395 -0.147885 1.18914e-22)
(0.399482 -0.139932 5.95577e-22)
(0.506689 -0.123016 6.44488e-22)
(0.594151 -0.105267 -5.29841e-23)
(0.666693 -0.0893765 4.44964e-23)
(0.726465 -0.0760115 -4.55389e-22)
(0.776306 -0.0648952 -4.45025e-24)
(0.818075 -0.0555556 -3.86078e-22)
(0.0406417 -0.0920416 8.07485e-22)
(0.148525 -0.170656 6.2993e-22)
(0.289728 -0.188591 -1.73001e-22)
(0.409952 -0.178634 -7.26224e-22)
(0.515723 -0.157157 6.23851e-23)
(0.601787 -0.134543 -8.6071e-22)
(0.673111 -0.114263 0)
(0.731874 -0.0971921 5.17942e-22)
(0.780891 -0.0829845 9.52611e-23)
(0.822026 -0.0710384 5.31956e-22)
(0.0481037 -0.110901 -1.87831e-22)
(0.16174 -0.206084 1.22352e-21)
(0.303724 -0.22815 7.8908e-22)
(0.422907 -0.216388 1.77996e-22)
(0.526917 -0.190551 5.92796e-22)
(0.611256 -0.163226 -1.94943e-22)
(0.681076 -0.138668 8.59683e-23)
(0.738589 -0.117974 -6.22084e-22)
(0.786586 -0.100738 1.02272e-22)
(0.826939 -0.0862308 -3.0403e-22)
(0.056867 -0.128831 -9.35283e-23)
(0.177318 -0.240046 0)
(0.320271 -0.266325 -3.16774e-23)
(0.43826 -0.252996 0)
(0.540206 -0.223041 -1.09028e-21)
(0.622511 -0.19119 8.41847e-22)
(0.690549 -0.162491 0)
(0.746582 -0.138274 1.11147e-23)
(0.793367 -0.118086 0)
(0.832796 -0.101071 0)
(0.0668307 -0.145685 1.39921e-21)
(0.195112 -0.272307 1.28981e-22)
(0.339236 -0.302887 -7.5984e-22)
(0.455907 -0.288264 -1.61059e-22)
(0.555511 -0.254474 1.28365e-21)
(0.635491 -0.218314 5.92016e-22)
(0.701485 -0.185633 8.16792e-23)
(0.755817 -0.158012 -5.80419e-22)
(0.801207 -0.13496 9.79144e-23)
(0.839579 -0.115499 -7.02989e-23)
(0.0778802 -0.161329 -1.55911e-21)
(0.21495 -0.302643 9.76417e-22)
(0.360467 -0.337618 9.43475e-23)
(0.475727 -0.32201 -1.64966e-22)
(0.572744 -0.284706 -1.02311e-21)
(0.65013 -0.244484 -8.88801e-22)
(0.713832 -0.208 7.90859e-23)
(0.766253 -0.177109 -8.47529e-23)
(0.810072 -0.151296 1.83039e-22)
(0.847262 -0.129455 -7.39166e-23)
(0.0898879 -0.175641 -1.24539e-21)
(0.236642 -0.330848 -9.65077e-22)
(0.383792 -0.370315 1.30784e-21)
(0.497586 -0.35406 1.56802e-22)
(0.591804 -0.313596 0)
(0.666351 -0.269588 0)
(0.727532 -0.229505 0)
(0.777846 -0.195492 1.81915e-21)
(0.819928 -0.167031 6.96104e-22)
(0.85582 -0.142885 -5.41104e-22)
(0.102715 -0.188514 2.40411e-21)
(0.259979 -0.356734 0)
(0.40902 -0.400786 -2.89531e-21)
(0.521333 -0.384248 -1.11503e-21)
(0.612578 -0.341014 0)
(0.68407 -0.293523 0)
(0.742519 -0.250062 1.10029e-21)
(0.790545 -0.213092 -8.93919e-22)
(0.830733 -0.182107 -6.96102e-22)
(0.865224 -0.155735 5.41104e-22)
(0.116214 -0.199854 -1.28914e-21)
(0.284735 -0.380133 1.09495e-22)
(0.435946 -0.428858 1.4001e-21)
(0.546805 -0.412422 1.24737e-21)
(0.634944 -0.366835 -1.10863e-22)
(0.703194 -0.31619 -1.33166e-21)
(0.758722 -0.269594 -5.13593e-23)
(0.804294 -0.229845 -7.21405e-22)
(0.842445 -0.196471 -7.3086e-22)
(0.875441 -0.167956 5.03273e-22)
(0.130227 -0.209587 8.12363e-24)
(0.310668 -0.400896 -1.49051e-21)
(0.464347 -0.454373 -1.55124e-22)
(0.573825 -0.438442 -8.42506e-22)
(0.658769 -0.390947 -6.91175e-22)
(0.723623 -0.3375 -2.46836e-22)
(0.776064 -0.288028 -1.04076e-21)
(0.819034 -0.245691 9.27331e-22)
(0.855017 -0.210075 4.92752e-22)
(0.886433 -0.179501 -3.74883e-22)
(0.144593 -0.217652 0)
(0.337524 -0.418901 1.23711e-21)
(0.493986 -0.477191 1.40492e-22)
(0.602203 -0.46218 8.05815e-23)
(0.68391 -0.413244 7.86048e-22)
(0.745251 -0.357369 1.10668e-21)
(0.794464 -0.305298 -9.29303e-22)
(0.834701 -0.260577 9.86758e-23)
(0.868397 -0.222873 0)
(0.898158 -0.190329 0)
(0.159143 -0.224007 -1.01874e-22)