/*--------------------------------*- C++ -*----------------------------------*\
  =========                 |
  \\      /  F ield         | OpenFOAM: The Open Source CFD Toolbox
   \\    /   O peration     | Website:  https://openfoam.org
    \\  /    A nd           | Version:  9
     \\/     M anipulation  |
\*---------------------------------------------------------------------------*/
FoamFile
{
    format      ascii;
    class       volVectorField;
    location    "8";
    object      U;
}
// * * * * * * * * * * * * * * * * * * * * * * * * * * * * * * * * * * * * * //

dimensions      [0 1 -1 0 0 0 0];

internalField   nonuniform List<vector> 
8500
(
(-0.00378848 0.00130665 0)
(-0.0143721 0.00194262 -6.93546e-23)
(-0.0271418 0.00172846 -3.83994e-24)
(-0.0353386 0.00105271 7.13467e-37)
(-0.0388533 0.000154288 -1.0032e-23)
(-0.0366807 -0.000852914 8.41399e-24)
(-0.0293398 -0.00189366 -5.30244e-23)
(-0.0157792 -0.00294445 -7.90592e-23)
(0.000673325 -0.00374936 -6.78093e-23)
(0.0235416 -0.00458852 -3.42626e-24)
(-0.0039387 0.00388845 1.94317e-22)
(-0.0143735 0.00577126 6.4809e-23)
(-0.0266672 0.00512404 2.60107e-22)
(-0.0342291 0.00310118 0)
(-0.0369748 0.000416811 0)
(-0.0339309 -0.00258924 1.61699e-23)
(-0.0256514 -0.00569308 3.94449e-23)
(-0.0110201 -0.00881065 8.4202e-23)
(0.00641489 -0.0112392 5.12793e-23)
(0.0308274 -0.0137009 1.37062e-23)
(-0.00423141 0.00637658 -1.7267e-22)
(-0.0143631 0.00943139 0)
(-0.0257047 0.00833698 -2.44947e-22)
(-0.0319988 0.00498015 0)
(-0.0332105 0.000542502 -4.02581e-23)
(-0.0284294 -0.00441679 3.3765e-23)
(-0.0182752 -0.00953719 0)
(-0.00152551 -0.0146278 0)
(0.0178587 -0.018678 0)
(0.0453475 -0.022614 0)
(-0.00465134 0.0087113 3.50689e-22)
(-0.0143143 0.0128151 -2.62472e-22)
(-0.0242276 0.0112503 -6.15475e-23)
(-0.0286252 0.00658137 -3.81305e-22)
(-0.0275457 0.000444803 -3.7148e-22)
(-0.0201752 -0.00639309 3.25037e-23)
(-0.00721627 -0.0134721 -2.72966e-23)
(0.0126716 -0.0203766 2.97078e-22)
(0.0349349 -0.0260001 2.28229e-24)
(0.0669863 -0.0311838 2.61266e-22)
(-0.00517608 0.0108368 -3.50689e-22)
(-0.014188 0.0158208 -3.4133e-22)
(-0.022196 0.013754 9.26015e-23)
(-0.0240741 0.00780361 5.07116e-22)
(-0.0199581 4.41955e-05 -4.35535e-23)
(-0.0091713 -0.00856449 5.34161e-22)
(0.00750918 -0.0174861 0)
(0.0315375 -0.0260572 -3.38425e-22)
(0.0575435 -0.0331564 -6.50648e-23)
(0.0955619 -0.0392608 -3.59948e-22)
(-0.00577665 0.0127026 8.94438e-23)
(-0.0139329 0.0183559 5.65921e-22)
(-0.0195571 0.0157478 -4.39598e-22)
(-0.0182995 0.00855547 1.32088e-24)
(-0.0104151 -0.000729549 -3.7431e-22)
(0.00459678 -0.0109695 1.36594e-22)
(0.0258639 -0.0215525 -5.50406e-23)
(0.0549975 -0.0316491 4.23863e-22)
(0.0855696 -0.0401006 -7.01429e-23)
(0.13083 -0.0466872 2.06816e-22)
(-0.00641819 0.0142647 4.52414e-23)
(-0.0134862 0.0203388 0)
(-0.0162451 0.017144 -4.46806e-24)
(-0.0112435 0.00875814 0)
(0.00112364 -0.0019337 6.66284e-22)
(0.0211457 -0.0136405 -5.3685e-22)
(0.0478209 -0.0256819 0)
(0.0829543 -0.037076 1.23854e-24)
(0.11886 -0.046768 0)
(0.172475 -0.0532948 0)
(-0.00706084 0.0154865 -7.42106e-22)
(-0.0127744 0.0217004 -7.66722e-23)
(-0.0121822 0.0178694 5.69973e-22)
(-0.00283629 0.00834867 1.02163e-22)
(0.014707 -0.00360934 -6.72193e-22)
(0.0404925 -0.0165902 -4.07799e-22)
(0.0733519 -0.029861 -5.56464e-23)
(0.115295 -0.0422603 4.28559e-22)
(0.157226 -0.0530767 -7.08034e-23)
(0.220103 -0.0589068 5.27501e-23)
(-0.00766082 0.0163402 8.35493e-22)
(-0.0117147 0.0223857 -6.30645e-22)
(-0.00727866 0.0178682 -1.91629e-22)
(0.0070038 0.00728243 1.06104e-22)
(0.0303938 -0.00577993 6.75273e-22)
(0.0626564 -0.019811 6.09924e-22)
(0.102422 -0.0340498 -5.59923e-23)
(0.151886 -0.0471133 8.73708e-23)
(0.200446 -0.0589251 -1.36241e-22)
(0.27323 -0.0633426 5.48368e-23)
(-0.00817095 0.0168052 7.70769e-22)
(-0.0102165 0.022357 6.29775e-22)
(-0.00143352 0.0171031 -9.16752e-22)
(0.0183693 0.0055352 -1.07191e-22)
(0.0482513 -0.00844751 0)
(0.0876593 -0.0232742 0)
(0.134989 -0.0381845 0)
(0.192565 -0.0515279 -1.38117e-21)
(0.248256 -0.0641865 -5.64229e-22)
(0.331265 -0.066423 3.97636e-22)
(-0.00853849 0.016864 -1.55759e-21)
(-0.00818417 0.021598 0)
(0.00546266 0.0155583 2.10254e-21)
(0.0313627 0.00310619 8.56894e-22)
(0.0683539 -0.0115893 8.77748e-23)
(0.115523 -0.0269278 0)
(0.171 -0.0421774 -8.88074e-22)
(0.237135 -0.0553769 6.92071e-22)
(0.300353 -0.0687043 5.64224e-22)
(0.393505 -0.067975 -3.97647e-22)
(-0.00870954 0.0165168 8.85111e-22)
(-0.00551116 0.0201032 -8.2516e-23)
(0.0135256 0.0132398 -1.0577e-21)
(0.0460934 2.00422e-05 -9.62658e-22)
(0.09078 -0.0151557 0)
(0.146266 -0.0306931 1.11759e-21)
(0.210383 -0.045915 -5.78766e-24)
(0.285362 -0.0585164 6.12503e-22)
(0.356376 -0.0722901 6.4349e-22)
(0.459136 -0.0678415 -3.91135e-22)
(-0.00863521 0.0157746 -1.4342e-24)
(-0.00208842 0.0178802 1.41318e-21)
(0.0228795 0.0101776 -1.3667e-22)
(0.062676 -0.00367172 7.68117e-22)
(0.115608 -0.0190682 4.4315e-22)
(0.179897 -0.034464 2.8932e-22)
(0.253042 -0.049258 8.87064e-22)
(0.336959 -0.0607903 -7.89463e-22)
(0.415902 -0.0747243 -4.41025e-22)
(0.527222 -0.0658919 2.81459e-22)
(-0.00826205 0.0146477 0)
(0.00219243 0.0149626 -1.16798e-21)
(0.0336509 0.00642526 -1.38683e-22)
(0.0812262 -0.00788974 9.59645e-24)
(0.142911 -0.0232193 7.04036e-22)
(0.216406 -0.0381067 -9.88072e-22)
(0.298846 -0.0520431 8.98366e-22)
(0.391585 -0.0620384 -9.15901e-23)
(0.47843 -0.0757614 0)
(0.596719 -0.0620368 0)
(-0.0075366 0.0131552 1.06275e-22)
(0.00744098 0.0114004 -1.37715e-21)
(0.0459661 0.0020607 0)
(0.101856 -0.0125265 -9.90281e-23)
(0.172749 -0.0274717 9.12895e-23)
(0.255759 -0.0414613 0)
(0.347617 -0.0540872 -9.05341e-22)
(0.448835 -0.0621055 -7.0884e-22)
(0.543374 -0.0751416 1.30131e-22)
(0.666489 -0.056253 -1.09693e-22)
(-0.00640655 0.011324 -1.06224e-22)
(0.0137659 0.00725977 1.46633e-21)
(0.059948 -0.00281482 0)
(0.124668 -0.0174472 -1.00457e-21)
(0.205165 -0.0316609 9.22483e-23)
(0.297887 -0.0443446 -1.15268e-21)
(0.399119 -0.0551936 -1.10165e-22)
(0.508239 -0.0608518 8.01472e-22)
(0.610059 -0.072607 0)
(0.735341 -0.048612 7.68321e-22)
(-0.00482095 0.00918751 -1.69396e-21)
(0.0212723 0.00262299 -9.10032e-23)
(0.0757117 -0.00807734 -1.39445e-22)
(0.149749 -0.0224908 1.1669e-22)
(0.240169 -0.0355974 -1.46218e-21)
(0.342674 -0.0465555 1.15267e-21)
(0.453044 -0.0551613 9.21611e-22)
(0.56926 -0.0581635 7.1651e-22)
(0.677707 -0.0679112 1.15568e-21)
(0.802029 -0.0392571 -6.58501e-22)
(-0.00273053 0.00678467 1.80236e-21)
(0.0300594 -0.00241234 0)
(0.0933605 -0.0135817 1.30761e-21)
(0.177165 -0.0274734 -1.18261e-22)
(0.277737 -0.0390719 2.93871e-21)
(0.389949 -0.0478816 0)
(0.509013 -0.0537991 -9.21604e-22)
(0.631315 -0.0539645 4.09859e-24)
(0.745453 -0.0608031 -1.28559e-21)
(0.865194 -0.0283153 1.09523e-22)
(-8.81871e-05 0.00415975 0)
(0.0402182 -0.00773442 1.4729e-21)
(0.112981 -0.0191638 -1.16629e-21)
(0.206952 -0.0321911 0)
(0.317797 -0.041861 -1.47654e-21)
(0.439478 -0.0481083 0)
(0.566565 -0.0509435 9.31489e-22)
(0.693801 -0.0482234 -7.20598e-22)
(0.812419 -0.0510237 -1.14508e-21)
(0.923704 -0.0161715 -7.83046e-22)
(0.0031504 0.00136186 -2.3052e-22)
(0.0518288 -0.0132186 -1.27937e-21)
(0.134639 -0.0246429 0)
(0.239109 -0.0364251 0)
(0.360223 -0.0437343 0)
(0.490954 -0.0470283 -1.43812e-22)
(0.62516 -0.0464745 -9.39621e-22)
(0.756099 -0.0409345 -9.4713e-23)
(0.877789 -0.0385292 1.14507e-21)
(0.978136 -0.00535673 8.93417e-22)
(0.00702617 -0.00155529 0)
(0.064958 -0.0187287 -1.52406e-21)
(0.158373 -0.0298253 0)
(0.273594 -0.0399469 0)
(0.404828 -0.044462 0)
(0.543998 -0.044451 1.44721e-22)
(0.684178 -0.0403159 -1.17489e-21)
(0.817478 -0.0320854 8.08384e-23)
(0.940392 -0.0241695 8.49135e-22)
(1.03201 -0.00121495 8.78228e-22)
(0.0115759 -0.00453373 0)
(0.079657 -0.0241188 1.52406e-21)
(0.184193 -0.0345073 -1.23892e-21)
(0.310318 -0.0425242 0)
(0.451366 -0.0438235 -1.53598e-21)
(0.598161 -0.0402101 0)
(0.742954 -0.0324199 9.4018e-22)
(0.877062 -0.021691 -7.33288e-22)
(0.998 -0.00980872 -1.1327e-21)
(1.08535 0.00182002 -8.72538e-22)
(0.0168313 -0.00751142 2.06755e-21)
(0.0959581 -0.0292351 0)
(0.212074 -0.03848 1.08754e-21)
(0.349141 -0.043928 1.26674e-22)
(0.499528 -0.041616 3.0867e-21)
(0.652939 -0.0341729 0)
(0.800815 -0.0227694 -9.46406e-22)
(0.934052 -0.00974891 -1.46673e-21)
(1.05034 0.00480194 -9.82194e-22)
(1.13265 0.010508 -1.32474e-23)
(0.0228184 -0.0104226 -2.1924e-21)
(0.113873 -0.0339178 1.04811e-22)
(0.241954 -0.0415332 1.53459e-22)
(0.389871 -0.0439394 -1.28417e-22)
(0.548947 -0.037663 -1.55071e-21)
(0.707787 -0.0262492 1.22189e-21)
(0.857108 -0.011389 9.46402e-22)
(0.987765 0.00366844 7.33442e-22)
(1.09745 0.0198243 1.11808e-21)
(1.1732 0.0226762 -9.72729e-22)
(0.0295558 -0.0131979 1.27241e-22)
(0.13339 -0.0380033 1.52179e-21)
(0.273732 -0.0434602 0)
(0.432265 -0.0423565 -8.86322e-22)
(0.599209 -0.0318225 -1.01778e-22)
(0.76214 -0.0163984 -1.22188e-21)
(0.91122 0.00164753 1.13892e-22)
(1.03765 0.0183941 6.33272e-22)
(1.13932 0.0352096 0)
(1.20743 0.0365607 8.73211e-22)
(0.0370544 -0.015765 -1.36158e-22)
(0.154473 -0.0413266 -1.62861e-21)
(0.307266 -0.0440626 0)
(0.47603 -0.0390009 1.11444e-22)
(0.649858 -0.0239925 -1.02801e-22)
(0.815425 -0.00463134 0)
(0.962597 0.0162194 -9.47371e-22)
(1.08331 0.0342088 -7.29043e-22)
(1.17598 0.0508627 -1.31813e-22)
(1.23573 0.0512483 -1.11127e-22)
(0.0453158 -0.0180492 0)
(0.177058 -0.0437243 -1.88246e-21)
(0.342375 -0.0431551 1.70044e-22)
(0.520831 -0.0337235 -1.06939e-23)
(0.700412 -0.0141154 -8.0099e-22)
(0.867091 0.00899106 -1.38312e-21)
(1.01076 0.0321673 1.07162e-21)
(1.12445 0.0508729 0)
(1.20752 0.0666637 0)
(1.25857 0.0661721 0)
(0.0543312 -0.0199739 7.27956e-24)
(0.201055 -0.0450368 1.58551e-21)
(0.378837 -0.0405699 1.72427e-22)
(0.566294 -0.0264094 1.15469e-21)
(0.750375 -0.00217986 6.96357e-22)
(0.916616 0.0243626 -1.48546e-22)
(1.05531 0.0493032 9.51482e-22)
(1.16093 0.068146 -6.15293e-22)
(1.23412 0.0824775 -6.5324e-22)
(1.27648 0.0809615 5.09494e-22)
(0.0640807 -0.0214615 1.02357e-21)
(0.226345 -0.0451121 1.14365e-22)
(0.416395 -0.0361613 -1.36422e-21)
(0.612016 -0.0169813 -1.04842e-21)
(0.799254 0.0117803 0)
(0.963533 0.0413385 1.23591e-21)
(1.09595 0.0674207 -7.03267e-24)
(1.19273 0.0857997 7.92815e-22)
(1.25603 0.0981705 4.56148e-22)
(1.28999 0.0953856 -4.02289e-22)
(0.0745324 -0.0224348 -2.33699e-21)
(0.252782 -0.043808 0)
(0.454759 -0.0298096 2.74281e-21)
(0.657575 -0.00540158 9.21885e-22)
(0.84657 0.0276881 1.05997e-22)
(1.00744 0.0597438 0)
(1.13248 0.086306 -9.32653e-22)
(1.21992 0.103627 6.87666e-22)
(1.27356 0.113622 5.04031e-22)
(1.29963 0.10931 -3.78406e-22)
(0.0856414 -0.0228182 1.17719e-21)
(0.28019 -0.0409963 8.82611e-22)
(0.493611 -0.0214242 -1.54471e-21)
(0.70254 0.0083265 1.39011e-22)
(0.891873 0.0454277 0)
(1.04799 0.0793817 0)
(1.16479 0.105746 0)
(1.24264 0.121445 -1.36134e-21)
(1.28704 0.128732 -5.04034e-22)
(1.30589 0.122666 3.78393e-22)
(0.0973501 -0.0225388 1.06476e-21)
(0.30837 -0.036565 -8.71583e-22)
(0.532612 -0.0109465 9.01693e-23)
(0.746479 0.0241598 0)
(0.934754 0.0648498 8.09345e-22)
(1.08493 0.100042 5.33768e-22)
(1.19285 0.125537 6.04322e-23)
(1.2611 0.1391 -6.18423e-23)
(1.29684 0.143421 1.22576e-22)
(1.30922 0.135426 -4.80531e-23)
(0.109587 -0.0215284 -1.20633e-21)
(0.3371 -0.0304219 1.08634e-22)
(0.571405 0.00164839 6.97647e-22)
(0.788976 0.0420167 -1.97582e-22)
(0.97485 0.0857778 -6.06996e-22)
(1.11808 0.121508 -7.56984e-22)
(1.2167 0.145488 5.96051e-23)
(1.27557 0.156463 3.37877e-22)
(1.30332 0.157631 0)
(1.31003 0.147591 -3.89433e-23)
(0.122269 -0.0197247 -7.63948e-23)
(0.366135 -0.0224973 0)
(0.609628 0.0163501 2.23405e-24)
(0.82963 0.0617803 0)
(1.01185 0.108014 7.99196e-22)
(1.14731 0.143565 -5.89205e-22)
(1.23646 0.165424 0)
(1.28632 0.173428 1.01e-23)
(1.30684 0.17132 0)
(1.30867 0.159175 0)
(0.135299 -0.0170735 -1.49161e-22)
(0.395216 -0.0127463 9.65413e-22)
(0.646912 0.0331134 -7.90914e-22)
(0.868071 0.0833017 1.33552e-22)
(1.04551 0.131345 -3.63332e-22)
(1.17258 0.166002 -6.7164e-23)
(1.25227 0.185189 0)
(1.29365 0.189911 2.39153e-22)
(1.30773 0.184462 5.93862e-23)
(1.30545 0.170197 1.51557e-22)
(0.14857 -0.01353 -6.16273e-22)
(0.424068 -0.00115096 -3.97331e-22)
(0.6829 0.0518582 -1.29778e-22)
(0.903962 0.106404 5.33828e-22)
(1.07563 0.15555 4.65128e-23)
(1.19389 0.188616 5.77881e-22)
(1.26431 0.204645 0)
(1.29783 0.205845 -2.863e-22)
(1.30629 0.197039 4.78938e-23)
(1.30063 0.18068 -3.3456e-22)
(0.161961 -0.00906035 -6.16273e-22)
(0.452411 0.0122783 3.97825e-22)
(0.717241 0.0724712 -4.03715e-24)
(0.937009 0.130888 -6.22785e-22)
(1.10208 0.180401 -3.3754e-22)
(1.2113 0.211219 -3.23207e-23)
(1.27281 0.22367 2.7143e-23)
(1.29917 0.221176 3.18512e-22)
(1.3028 0.209041 -4.51697e-24)
(1.29442 0.190642 1.07995e-22)
(0.175348 -0.00364337 -3.05981e-22)
(0.479958 0.0275016 0)
(0.749607 0.094808 -3.47744e-22)
(0.966956 0.156534 0)
(1.12476 0.205671 -4.25825e-22)
(1.22491 0.233631 3.68502e-23)
(1.27797 0.242158 0)
(1.29792 0.235861 0)
(1.2975 0.220461 0)
(1.28701 0.200096 0)
(0.188594 0.00272845 2.69001e-22)
(0.506425 0.0444495 1.26233e-22)
(0.779691 0.118696 3.47744e-22)
(0.993596 0.18311 0)
(1.14363 0.231136 0)
(1.23483 0.255687 -1.49819e-23)
(1.28004 0.260016 5.68472e-23)
(1.29434 0.249864 6.08189e-23)
(1.2906 0.231291 5.13874e-23)
(1.27856 0.20905 -8.28988e-24)
(0.201562 0.0100478 -4.71213e-24)
(0.531534 0.0630228 -1.1784e-22)
(0.807215 0.143936 5.56433e-24)
(1.01676 0.210373 7.23936e-24)
(1.15871 0.256578 -1.12021e-23)
(1.24122 0.277237 4.30914e-24)
(1.27923 0.277162 -4.91725e-23)
(1.28866 0.263156 -5.66932e-23)
(1.2823 0.241524 -3.92877e-23)
(1.26919 0.217507 1.11727e-24)
(0.214107 0.0182919 0)
(0.555017 0.0830942 -1.14367e-22)
(0.831934 0.170307 -4.30465e-24)
(1.03634 0.238074 8.17894e-24)
(1.17004 0.281786 1.55448e-37)
(1.24426 0.29814 -1.08228e-37)
(1.27577 0.293524 -4.37209e-23)
(1.28109 0.275709 -4.84931e-23)
(1.27275 0.25115 -3.4811e-23)
(1.259 0.22546 0)
(0.226089 0.0274219 3.22757e-22)
(0.576623 0.104509 9.34602e-23)
(0.853637 0.197572 3.39928e-22)
(1.05224 0.26596 -1.5899e-23)
(1.17769 0.306558 0)
(1.24411 0.318268 1.27155e-23)
(1.26988 0.309039 2.84539e-23)
(1.27182 0.287497 5.23524e-23)
(1.26209 0.260157 2.74618e-23)
(1.2481 0.232903 6.19186e-24)
(0.237365 0.037383 -2.87451e-22)
(0.596118 0.127088 0)
(0.872151 0.225477 -3.20929e-22)
(1.06445 0.293781 0)
(1.18176 0.330702 -3.53854e-23)
(1.24098 0.337504 2.96783e-23)
(1.26175 0.323647 0)
(1.26103 0.298494 0)
(1.25044 0.268526 0)
(1.23655 0.239818 0)
(0.2478 0.0481045 5.40011e-22)
(0.613294 0.15063 -3.48399e-22)
(0.887339 0.253757 -7.54875e-23)
(1.07295 0.321287 -3.38824e-22)
(1.18239 0.354036 -3.24699e-22)
(1.23505 0.35574 2.1759e-23)
(1.25159 0.337294 -1.82734e-23)
(1.24886 0.308674 1.33465e-22)
(1.2379 0.276238 3.98598e-24)
(1.22441 0.246185 7.07577e-23)
(0.257264 0.0595003 -5.40012e-22)
(0.627966 0.174912 -4.11186e-22)
(0.899106 0.28214 1.05747e-22)
(1.07778 0.348237 4.07224e-22)
(1.17973 0.37639 -1.77267e-23)
(1.22651 0.372878 3.38984e-22)
(1.23957 0.349931 0)
(1.23546 0.318011 -1.51277e-22)
(1.22458 0.283275 -1.81195e-23)
(1.21171 0.251973 -8.13384e-23)
(0.265637 0.0714699 1.22915e-22)
(0.639982 0.199696 7.11449e-22)
(0.907391 0.310352 -4.72891e-22)
(1.07902 0.374393 -9.58092e-23)
(1.17392 0.397604 -2.37822e-22)
(1.21557 0.388826 4.58247e-23)
(1.22587 0.361509 -2.95582e-23)
(1.22095 0.326473 1.3345e-22)
(1.21058 0.289628 -2.14434e-23)
(1.1985 0.257154 4.18152e-23)
(0.272809 0.0838996 6.00128e-23)
(0.649216 0.224731 0)
(0.912175 0.338117 3.49981e-23)
(1.07676 0.39953 0)
(1.16516 0.417528 4.80649e-22)
(1.2024 0.403501 -3.02758e-22)
(1.21064 0.371986 0)
(1.20543 0.334019 -2.28064e-23)
(1.19597 0.295274 0)
(1.18487 0.261689 0)
(0.278684 0.0966639 -8.69051e-22)
(0.65558 0.249757 -7.78862e-23)
(0.913471 0.365162 5.66327e-22)
(1.07112 0.423432 7.11954e-23)
(1.15362 0.436025 -4.85233e-22)
(1.1872 0.416827 -1.61457e-22)
(1.19404 0.381323 -2.18137e-23)
(1.18903 0.340623 5.28186e-23)
(1.18076 0.300162 -1.22754e-23)
(1.1709 0.265585 1.19973e-24)
(0.283182 0.109627 9.67633e-22)
(0.659014 0.274506 -6.01772e-22)
(0.91133 0.391219 -1.59406e-22)
(1.06226 0.445893 8.30423e-23)
(1.1395 0.452968 3.81452e-22)
(1.17015 0.428734 2.45522e-22)
(1.17621 0.389474 -1.76898e-23)
(1.17188 0.346266 -3.94063e-23)
(1.16501 0.304263 -8.86605e-24)
(1.15661 0.268801 1.16161e-24)
(0.286238 0.122645 7.27928e-22)
(0.659494 0.298708 5.90967e-22)
(0.905833 0.416029 -6.64018e-22)
(1.05034 0.466724 -7.41547e-23)
(1.123 0.468242 0)
(1.15144 0.439156 0)
(1.15731 0.396399 0)
(1.15403 0.350919 -1.00758e-22)
(1.1488 0.307555 2.28158e-23)
(1.14203 0.271301 -5.41832e-23)
(0.287805 0.135568 -1.37685e-21)
(0.657029 0.322094 0)
(0.897094 0.439344 1.40966e-21)
(1.03555 0.485745 3.96223e-22)
(1.10432 0.481739 0)
(1.13124 0.448035 0)
(1.13745 0.402059 -5.07406e-23)
(1.13557 0.354553 2.56362e-23)
(1.13219 0.310012 -2.2816e-23)
(1.1272 0.273053 5.4181e-23)
(0.287855 0.148241 7.20693e-22)
(0.651661 0.344399 -6.02511e-23)
(0.885265 0.460933 -6.57028e-22)
(1.01808 0.502792 -4.32651e-22)
(1.08365 0.493365 3.05138e-23)
(1.10972 0.455319 9.6885e-23)
(1.11676 0.406423 6.89561e-23)
(1.11659 0.357138 -6.73433e-23)
(1.11523 0.311606 -1.07066e-22)
(1.11216 0.274025 1.12184e-22)
(0.286379 0.160511 -3.57799e-24)
(0.643469 0.365365 7.40844e-22)
(0.870524 0.480583 -7.24175e-23)
(0.998128 0.517709 2.07903e-22)
(1.06122 0.503032 9.10404e-23)
(1.08705 0.46096 -7.84215e-23)
(1.09536 0.40946 -2.85425e-23)
(1.09718 0.358651 8.52583e-23)
(1.09797 0.312316 -1.33017e-22)
(1.09694 0.274187 -8.3989e-23)
(0.283389 0.172221 0)
(0.632567 0.384745 -6.35911e-22)
(0.853016 0.498073 -5.85626e-23)
(0.975935 0.530383 -8.50333e-23)
(1.03724 0.510662 -8.80469e-23)
(1.06341 0.464917 -1.42889e-23)
(1.07339 0.411144 -1.68759e-22)
(1.07742 0.359068 0)
(1.08046 0.312118 0)
(1.08159 0.27351 0)
(0.278914 0.183216 4.16877e-23)
(0.619088 0.40232 -4.25277e-22)
(0.832928 0.513198 0)
(0.951763 0.540694 -9.391e-23)
(1.01191 0.5162 5.3453e-24)
(1.03895 0.467157 0)
(1.05095 0.41145 1.59539e-22)
(1.05738 0.358373 2.33995e-22)
(1.06275 0.310996 -5.20874e-23)
(1.06614 0.271961 4.38554e-23)
(0.272985 0.193334 -2.77787e-23)
(0.603189 0.417876 4.48599e-22)
(0.810526 0.525814 0)
(0.925834 0.548529 -5.78923e-23)
(0.985439 0.519597 -3.48031e-24)
(1.01384 0.467652 2.89213e-22)
(1.02817 0.410361 3.5932e-23)
(1.03717 0.35655 -2.64212e-22)
(1.04489 0.308937 0)
(1.05063 0.269508 -4.57528e-22)
(0.265677 0.202428 -1.38281e-22)
(0.585046 0.431198 -1.31177e-23)
(0.786067 0.535782 2.2935e-24)
(0.898387 0.553801 -1.91931e-24)
(0.958037 0.520809 3.53952e-22)
(0.988236 0.466381 -2.89215e-22)
(1.00517 0.407862 -3.75973e-22)
(1.01685 0.35359 -3.40211e-22)
(1.02693 0.305929 -5.94012e-22)
(1.03508 0.266116 3.99642e-22)
(0.257088 0.210378 1.53906e-22)
(0.564856 0.442103 0)
(0.7598 0.542972 -1.59776e-22)
(0.869671 0.556447 1.41358e-23)
(0.929912 0.519809 -8.43894e-22)
(0.962298 0.46333 0)
(0.982067 0.403943 3.75975e-22)
(0.996535 0.349489 -5.28925e-23)
(1.00891 0.30196 6.7384e-22)
(1.01955 0.261741 -6.71994e-23)
(0.247314 0.217061 0)
(0.54285 0.450437 -1.95897e-22)
(0.731992 0.547277 1.42885e-22)
(0.839937 0.556414 0)
(0.901266 0.516576 4.89943e-22)
(0.93618 0.458492 0)
(0.958976 0.398601 -5.19837e-22)
(0.976294 0.344247 3.93109e-22)
(0.990906 0.297021 7.51248e-22)
(1.00418 0.256337 6.20562e-22)
(0.236467 0.222364 4.51502e-23)
(0.519273 0.456071 1.57993e-22)
(0.702916 0.548616 0)
(0.809438 0.553671 0)
(0.872303 0.511104 0)
(0.910036 0.451867 8.0943e-23)
(0.936013 0.391839 3.82101e-22)
(0.956223 0.337873 5.86649e-23)
(0.973068 0.291143 -7.51252e-22)
(0.989082 0.250028 -6.98359e-22)
(0.224673 0.226189 0)
(0.494381 0.458894 5.21878e-22)
(0.672854 0.546931 0)
(0.778425 0.5482 0)
(0.843222 0.503396 0)
(0.884015 0.443465 -9.23213e-23)
(0.913291 0.383664 8.16157e-22)
(0.936433 0.330371 -1.95237e-22)
(0.955681 0.28441 -6.86325e-22)
(0.974234 0.242839 -7.18844e-22)
(0.212072 0.228453 0)
(0.468442 0.458824 -5.21879e-22)
(0.642087 0.542185 6.46888e-22)
(0.747147 0.540004 0)
(0.814218 0.493469 1.02811e-21)
(0.858263 0.4333 0)
(0.890919 0.374086 -6.60604e-22)
(0.917047 0.321717 5.98191e-22)
(0.938899 0.276807 9.01104e-22)
(0.960007 0.236333 7.20301e-22)
(0.198812 0.22909 -1.1652e-21)
(0.441729 0.455803 0)
(0.610902 0.534366 -5.5596e-22)
(0.715852 0.5291 -7.60957e-23)
(0.785481 0.481349 -2.18596e-21)
(0.832922 0.421397 0)
(0.869 0.363121 7.95848e-22)
(0.898122 0.311926 4.83689e-23)
(0.922552 0.268215 9.21293e-22)
(0.945738 0.229229 9.32485e-25)
(0.185052 0.22805 1.23991e-21)
(0.414523 0.449801 -6.27176e-23)
(0.579581 0.523486 -1.05354e-22)
(0.684781 0.515522 -8.81657e-23)
(0.757198 0.467075 1.15785e-21)
(0.808132 0.407789 -1.05858e-21)
(0.847642 0.350795 -7.95852e-22)
(0.879737 0.301026 -6.46566e-22)
(0.906704 0.258679 -1.044e-21)
(0.931798 0.221286 9.85943e-22)
(0.170954 0.225301 -8.74023e-23)
(0.387107 0.440812 -1.09084e-21)
(0.548407 0.509577 0)
(0.654169 0.499321 7.43494e-22)
(0.729549 0.450697 8.40529e-23)
(0.784026 0.392515 1.05858e-21)
(0.826946 0.337137 -1.09166e-22)
(0.861974 0.289038 -6.46626e-22)
(0.89143 0.24824 0)
(0.918338 0.212519 -8.77815e-22)
(0.156686 0.220829 1.06333e-22)
(0.35976 0.428859 1.16422e-21)
(0.517653 0.492694 0)
(0.624244 0.480565 -2.75108e-23)
(0.702708 0.432275 9.22635e-23)
(0.760737 0.375625 0)
(0.807014 0.322183 9.83164e-22)
(0.844911 0.27599 7.38428e-22)
(0.876789 0.236918 1.4639e-22)
(0.905438 0.202965 -1.23298e-22)
(0.142416 0.214637 0)
(0.332763 0.41399 1.63912e-21)
(0.487589 0.472916 -1.46665e-22)
(0.595229 0.459335 7.92141e-23)
(0.676843 0.411883 8.1889e-22)
(0.738388 0.357177 1.46483e-21)
(0.787942 0.305978 -1.11334e-21)
(0.828623 0.261915 0)
(0.86284 0.22474 0)
(0.893167 0.192646 0)
(0.128312 0.206749 -8.00221e-24)
(0.306387 0.396281 -1.37475e-21)
(0.458475 0.45034 1.61023e-22)
(0.567333 0.435729 -1.13423e-21)
(0.652111 0.389602 -7.1121e-22)
(0.7171 0.337234 2.39922e-22)
(0.76982 0.288572 -1.10258e-21)
(0.813181 0.246852 7.5235e-22)
(0.849637 0.211735 8.37603e-22)
(0.881578 0.18159 -6.65131e-22)
(0.114542 0.197206 -1.054e-21)
(0.280898 0.375829 -1.12788e-22)
(0.430558 0.425085 1.44392e-21)
(0.540757 0.409859 1.15209e-21)
(0.628665 0.365526 0)
(0.696985 0.315871 -1.38569e-21)
(0.752737 0.270022 -5.07503e-23)
(0.798651 0.230848 -9.67831e-22)
(0.837233 0.197943 -5.87516e-22)
(0.870718 0.16983 5.30009e-22)
(0.101267 0.186064 2.46192e-21)
(0.256549 0.352757 0)
(0.404075 0.397289 -2.98137e-21)
(0.515692 0.381852 -1.00707e-21)
(0.606647 0.339758 -1.2149e-22)
(0.678151 0.29317 0)
(0.736773 0.250393 1.14517e-21)
(0.785098 0.213953 -9.31403e-22)
(0.825679 0.183403 -7.27673e-22)
(0.860626 0.157408 5.67609e-22)
(0.0886441 0.173399 -1.27358e-21)
(0.233582 0.327212 -9.8958e-22)
(0.379249 0.367108 1.73006e-21)
(0.492313 0.351846 -1.61187e-22)
(0.586189 0.31241 0)
(0.660696 0.269218 0)
(0.722005 0.229755 0)
(0.772579 0.196227 1.89381e-21)
(0.815018 0.168165 7.27675e-22)
(0.851339 0.144366 -5.67608e-22)
(0.0768203 0.159303 -1.26163e-21)
(0.212222 0.299359 9.78371e-22)
(0.356285 0.334715 1.05287e-22)
(0.470786 0.319993 0)
(0.567414 0.283605 -1.05254e-21)
(0.644714 0.244112 -7.22586e-22)
(0.708503 0.208185 -8.17855e-23)
(0.76115 0.177731 1.45919e-22)
(0.805296 0.152281 -1.90856e-22)
(0.842889 0.130755 7.72118e-23)
(0.0659347 0.143882 1.42494e-21)
(0.192678 0.269386 -1.31881e-22)
(0.335375 0.300299 -1.10265e-21)
(0.45126 0.286455 2.53593e-22)
(0.550434 0.253472 7.84722e-22)
(0.630288 0.217954 1.02887e-21)
(0.696333 0.185765 -8.43478e-23)
(0.750859 0.158533 -4.82703e-22)
(0.79655 0.135806 0)
(0.835303 0.116625 7.35675e-23)
(0.0561144 0.127257 9.50424e-23)
(0.175143 0.237497 0)
(0.316689 0.264062 -3.11907e-23)
(0.433871 0.251406 0)
(0.53535 0.222148 -1.1188e-21)
(0.617494 0.190853 8.66607e-22)
(0.685553 0.162582 0)
(0.741754 0.138705 1.10093e-23)
(0.788816 0.118801 0)
(0.828607 0.102033 0)
(0.0474741 0.109562 1.90829e-22)
(0.159785 0.203915 -1.24625e-21)
(0.300382 0.226221 1.03077e-21)
(0.418739 0.215027 -1.82046e-22)
(0.522251 0.189779 4.83202e-22)
(0.6064 0.162923 1.33089e-22)
(0.676214 0.138729 0)
(0.733872 0.118324 -3.92816e-22)
(0.782126 0.10133 -1.06115e-22)
(0.822825 0.0870338 -3.17079e-22)
(0.0401145 0.0909398 8.18711e-22)
(0.146753 0.168873 -1.84078e-21)
(0.286585 0.187003 1.76444e-22)
(0.405967 0.17751 -7.56053e-22)
(0.511216 0.156513 -8.6123e-23)
(0.597064 0.134284 -8.85242e-22)
(0.668362 0.114301 0)
(0.72725 0.0974677 5.36003e-22)
(0.776507 0.0834601 -9.91207e-23)
(0.817976 0.0716881 7.21742e-22)
(0.0341215 0.0715467 -8.18711e-22)
(0.136175 0.132621 6.73729e-22)
(0.275412 0.146644 -1.21157e-22)
(0.395643 0.139051 8.8978e-22)
(0.502308 0.122508 5.07069e-22)
(0.589536 0.105058 5.45224e-23)
(0.662034 0.089399 -4.57884e-23)
(0.721917 0.0762195 -6.00824e-22)
(0.771984 0.0652597 4.43303e-24)
(0.814076 0.0560564 -2.40012e-22)
(0.0295647 0.0515451 4.23124e-22)
(0.12815 0.0954166 0)
(0.266951 0.105391 4.98384e-22)
(0.387838 0.0998534 0)
(0.495581 0.0879232 7.16106e-23)
(0.583855 0.0753722 -6.00616e-23)
(0.657261 0.0641243 0)
(0.717896 0.0546638 0)
(0.768575 0.0468004 0)
(0.811139 0.040201 0)
(0.026497 0.0311041 -3.71546e-22)
(0.122757 0.057526 -1.35161e-22)
(0.261273 0.0634933 -4.98384e-22)
(0.382605 0.0601252 0)
(0.491074 0.0529213 0)
(0.58005 0.0453561 2.77616e-23)
(0.654066 0.0385821 -1.12451e-22)
(0.715205 0.0328871 -1.37263e-22)
(0.766294 0.028155 -1.31413e-22)
(0.809175 0.024185 2.14271e-23)
(0.0249543 0.0103976 -6.68372e-24)
(0.120048 0.0192215 1.46534e-22)
(0.258423 0.0212077 -7.12207e-24)
(0.37998 0.0200773 2.44062e-23)
(0.488814 0.0176684 -9.82046e-24)
(0.578143 0.0151408 0)
(0.652465 0.0128786 8.91369e-23)
(0.713856 0.0109772 1.37263e-22)
(0.765151 0.00939747 9.95937e-23)
(0.808192 0.00807243 1.52552e-23)
(0.0249543 -0.0103976 -6.68372e-24)
(0.120048 -0.0192215 1.46534e-22)
(0.258423 -0.0212077 -7.12207e-24)
(0.37998 -0.0200773 2.44062e-23)
(0.488814 -0.0176684 -9.82046e-24)
(0.578143 -0.0151408 0)
(0.652465 -0.0128786 7.84209e-23)
(0.713856 -0.0109772 1.46274e-22)
(0.765151 -0.00939747 1.05972e-22)
(0.808192 -0.00807243 0)
(0.026497 -0.0311041 -4.74703e-22)
(0.122757 -0.0575261 -1.77119e-22)
(0.261273 -0.0634933 -5.28551e-22)
(0.382605 -0.0601252 2.52452e-23)
(0.491074 -0.0529213 0)
(0.58005 -0.0453561 -2.77616e-23)
(0.654066 -0.0385821 -6.58224e-23)
(0.715205 -0.0328871 -1.37263e-22)
(0.766294 -0.028155 -8.05313e-23)
(0.809175 -0.024185 -2.14271e-23)
(0.0295647 -0.0515451 4.23124e-22)
(0.12815 -0.0954166 0)
(0.266951 -0.105391 4.98384e-22)
(0.387838 -0.0998534 0)
(0.495581 -0.0879232 7.16106e-23)
(0.583855 -0.0753722 -6.00616e-23)
(0.657261 -0.0641243 0)
(0.717896 -0.0546638 0)
(0.768575 -0.0468004 0)
(0.811139 -0.040201 0)
(0.0341215 -0.0715467 -8.18711e-22)
(0.136175 -0.132621 5.2482e-22)
(0.275412 -0.146644 1.21157e-22)
(0.395643 -0.139051 6.08507e-22)
(0.502308 -0.122508 6.60123e-22)
(0.589536 -0.105058 -5.45224e-23)
(0.662034 -0.089399 4.57884e-23)
(0.721917 -0.0762195 -4.71183e-22)
(0.771984 -0.0652597 -4.43303e-24)
(0.814076 -0.0560564 -4.02349e-22)
(0.0401145 -0.0909398 8.18711e-22)
(0.146753 -0.168873 6.42235e-22)
(0.286585 -0.187003 -1.76444e-22)
(0.405967 -0.17751 -7.42232e-22)
(0.511216 -0.156513 6.42409e-23)
(0.597064 -0.134284 -8.85242e-22)
(0.668362 -0.114301 0)
(0.72725 -0.0974677 5.36003e-22)
(0.776507 -0.0834601 9.91207e-23)
(0.817976 -0.0716881 5.54778e-22)
(0.0474741 -0.109562 -1.90829e-22)
(0.159785 -0.203915 1.24625e-21)
(0.300382 -0.226221 8.05427e-22)
(0.418739 -0.215027 1.82046e-22)
(0.522251 -0.189779 6.09104e-22)
(0.6064 -0.162923 -2.01311e-22)
(0.676214 -0.138729 8.85868e-23)
(0.733872 -0.118324 -6.44872e-22)
(0.782126 -0.10133 1.06115e-22)
(0.822825 -0.0870338 -3.17079e-22)
(0.0561144 -0.127257 -9.50424e-23)
(0.175143 -0.237497 0)
(0.316689 -0.264062 -3.11907e-23)
(0.433871 -0.251406 0)
(0.53535 -0.222148 -1.1188e-21)
(0.617494 -0.190853 8.66607e-22)
(0.685553 -0.162582 0)
(0.741754 -0.138705 1.10093e-23)
(0.788816 -0.118801 0)
(0.828607 -0.102033 0)
(0.0659347 -0.143882 1.42494e-21)
(0.192678 -0.269386 1.31881e-22)
(0.335375 -0.300299 -7.76614e-22)
(0.45126 -0.286455 -1.65345e-22)
(0.550434 -0.253472 1.32037e-21)
(0.630288 -0.217954 6.11081e-22)
(0.696333 -0.185765 8.43478e-23)
(0.750859 -0.158533 -6.03601e-22)
(0.79655 -0.135806 1.01796e-22)
(0.835303 -0.116625 -7.35675e-23)
(0.0768203 -0.159303 -1.58826e-21)
(0.212222 -0.299359 1.00079e-21)
(0.356285 -0.334715 9.69262e-23)
(0.470786 -0.319993 -1.69224e-22)
(0.567414 -0.283605 -1.05254e-21)
(0.644714 -0.244112 -9.17358e-22)
(0.708503 -0.208185 8.17855e-23)
(0.76115 -0.177731 -8.96664e-23)
(0.805296 -0.152281 1.90856e-22)
(0.842889 -0.130755 -7.72118e-23)
(0.0886441 -0.173399 -1.27358e-21)
(0.233582 -0.327212 -9.8958e-22)
(0.379249 -0.367108 1.34484e-21)
(0.492313 -0.351846 1.61187e-22)
(0.586189 -0.31241 0)
(0.660696 -0.269218 0)
(0.722005 -0.229755 0)
(0.772579 -0.196227 1.89381e-21)
(0.815018 -0.168165 7.27675e-22)
(0.851339 -0.144366 -5.67608e-22)
(0.101267 -0.186064 2.46192e-21)
(0.256549 -0.352757 0)
(0.404075 -0.397289 -2.98137e-21)
(0.515692 -0.381852 -1.15209e-21)
(0.606647 -0.339758 0)
(0.678151 -0.29317 0)
(0.736773 -0.250393 1.14517e-21)
(0.785098 -0.213953 -9.31403e-22)
(0.825679 -0.183403 -7.27673e-22)
(0.860626 -0.157408 5.67609e-22)
(0.114542 -0.197206 -1.32269e-21)
(0.280898 -0.375829 1.12788e-22)
(0.430558 -0.425085 1.44392e-21)
(0.540757 -0.409859 1.28914e-21)
(0.628665 -0.365526 -1.14809e-22)
(0.696985 -0.315871 -1.38569e-21)
(0.752737 -0.270022 -5.07503e-23)
(0.798651 -0.230848 -7.54861e-22)
(0.837233 -0.197943 -7.66837e-22)
(0.870718 -0.16983 5.30009e-22)
(0.128312 -0.206749 8.00221e-24)
(0.306387 -0.396281 -1.55273e-21)
(0.458475 -0.45034 -1.61023e-22)
(0.567333 -0.435729 -8.77139e-22)
(0.652111 -0.389602 -7.19962e-22)
(0.7171 -0.337234 -2.61507e-22)
(0.76982 -0.288572 -1.08624e-21)
(0.813181 -0.246852 9.70335e-22)
(0.849637 -0.211735 5.16745e-22)
(0.881578 -0.18159 -3.94889e-22)
(0.142416 -0.214637 0)
(0.332763 -0.41399 1.28836e-21)
(0.487589 -0.472916 1.46665e-22)
(0.595229 -0.459335 7.92141e-23)
(0.676843 -0.411883 8.1889e-22)
(0.738388 -0.357177 1.15482e-21)
(0.787942 -0.305978 -9.76131e-22)
(0.828623 -0.261915 1.03546e-22)
(0.86284 -0.22474 0)
(0.893167 -0.192646 0)