/*--------------------------------*- C++ -*----------------------------------*\
  =========                 |
  \\      /  F ield         | OpenFOAM: The Open Source CFD Toolbox
   \\    /   O peration     | Website:  https://openfoam.org
    \\  /    A nd           | Version:  9
     \\/     M anipulation  |
\*---------------------------------------------------------------------------*/
FoamFile
{
    format      ascii;
    class       volScalarField;
    location    "1.3";
    object      p;
}
// * * * * * * * * * * * * * * * * * * * * * * * * * * * * * * * * * * * * * //

dimensions      [0 2 -2 0 0 0 0];

internalField   nonuniform List<scalar> 
8500
(
-0.339902
-0.34641
-0.330398
-0.305816
-0.269764
-0.225002
-0.174799
-0.122926
-0.0772465
-0.0360186
-0.341756
-0.347816
-0.331816
-0.307276
-0.271376
-0.2268
-0.17677
-0.124953
-0.0793311
-0.0376656
-0.345436
-0.350608
-0.334629
-0.310168
-0.274562
-0.230349
-0.180654
-0.128944
-0.0834312
-0.0409082
-0.350887
-0.354744
-0.338789
-0.314424
-0.27926
-0.235557
-0.186339
-0.134775
-0.0894129
-0.0456468
-0.35803
-0.360165
-0.344229
-0.319963
-0.285367
-0.242293
-0.193666
-0.142269
-0.0970841
-0.0517392
-0.366763
-0.366796
-0.350863
-0.326696
-0.292744
-0.250394
-0.202435
-0.151207
-0.106206
-0.0590088
-0.376967
-0.374555
-0.358592
-0.334505
-0.301242
-0.259673
-0.212419
-0.16134
-0.116505
-0.0672533
-0.38851
-0.383345
-0.367306
-0.343259
-0.310703
-0.269929
-0.223371
-0.172399
-0.127688
-0.0762539
-0.40126
-0.393035
-0.376914
-0.352829
-0.32096
-0.280952
-0.235038
-0.184112
-0.139454
-0.0857847
-0.415101
-0.403532
-0.387274
-0.363084
-0.331847
-0.292536
-0.247169
-0.196211
-0.151507
-0.0956207
-0.429806
-0.414787
-0.398285
-0.373896
-0.343205
-0.304481
-0.259525
-0.208441
-0.163568
-0.105545
-0.445283
-0.426658
-0.409844
-0.385149
-0.354884
-0.316603
-0.271884
-0.220572
-0.175379
-0.115353
-0.461401
-0.439047
-0.421853
-0.396734
-0.366747
-0.328732
-0.284046
-0.232398
-0.18671
-0.124858
-0.478028
-0.451869
-0.434223
-0.408551
-0.378673
-0.340718
-0.295835
-0.243743
-0.197359
-0.133899
-0.495044
-0.465044
-0.446874
-0.420513
-0.39055
-0.35243
-0.307102
-0.254466
-0.207159
-0.14236
-0.512339
-0.478496
-0.459732
-0.432542
-0.402284
-0.363752
-0.317722
-0.264454
-0.215969
-0.150157
-0.529811
-0.492152
-0.472728
-0.444565
-0.413788
-0.374585
-0.327596
-0.273625
-0.223637
-0.157112
-0.547365
-0.505945
-0.485799
-0.456514
-0.424983
-0.384843
-0.336651
-0.281932
-0.229939
-0.162889
-0.564911
-0.519811
-0.498882
-0.468326
-0.435796
-0.394451
-0.344848
-0.289357
-0.234705
-0.167975
-0.582359
-0.533682
-0.511913
-0.479932
-0.446156
-0.403343
-0.35216
-0.295871
-0.238334
-0.176021
-0.599624
-0.547492
-0.524826
-0.491265
-0.455989
-0.411454
-0.358555
-0.301389
-0.241827
-0.191469
-0.616614
-0.561169
-0.537547
-0.502248
-0.465223
-0.418724
-0.363998
-0.305853
-0.244686
-0.199668
-0.633237
-0.574635
-0.549997
-0.512801
-0.473781
-0.425096
-0.368456
-0.309225
-0.246921
-0.204262
-0.649392
-0.587807
-0.562088
-0.522833
-0.48158
-0.430515
-0.371904
-0.311517
-0.248501
-0.206818
-0.664972
-0.60059
-0.573721
-0.532249
-0.488537
-0.434928
-0.374317
-0.312756
-0.249355
-0.207836
-0.679862
-0.612885
-0.58479
-0.540943
-0.494565
-0.438282
-0.375676
-0.312965
-0.249436
-0.207632
-0.693935
-0.624579
-0.595175
-0.548803
-0.499574
-0.440529
-0.375963
-0.312169
-0.248718
-0.20642
-0.707059
-0.635552
-0.604752
-0.555713
-0.503473
-0.441619
-0.375162
-0.310386
-0.247182
-0.204331
-0.71909
-0.645675
-0.613385
-0.561549
-0.506174
-0.441506
-0.373259
-0.30763
-0.244818
-0.201444
-0.729879
-0.65481
-0.620932
-0.566188
-0.507588
-0.440148
-0.370242
-0.30391
-0.241618
-0.197803
-0.739267
-0.662814
-0.627249
-0.569505
-0.507631
-0.437504
-0.3661
-0.299233
-0.237578
-0.193432
-0.747093
-0.669536
-0.632185
-0.571377
-0.506224
-0.433539
-0.360822
-0.293602
-0.232696
-0.188341
-0.753192
-0.674823
-0.635591
-0.571684
-0.503293
-0.428222
-0.354401
-0.287019
-0.226972
-0.182535
-0.757396
-0.67852
-0.637318
-0.570314
-0.498773
-0.421525
-0.34683
-0.279486
-0.220405
-0.176014
-0.75954
-0.68047
-0.637222
-0.56716
-0.492605
-0.413428
-0.338106
-0.271003
-0.212997
-0.168779
-0.759463
-0.680521
-0.635166
-0.562127
-0.484743
-0.403915
-0.328228
-0.261575
-0.204752
-0.160832
-0.757009
-0.678526
-0.63102
-0.55513
-0.475147
-0.392976
-0.317198
-0.251203
-0.195675
-0.152176
-0.75203
-0.674342
-0.624667
-0.546097
-0.463789
-0.38061
-0.305021
-0.239895
-0.185775
-0.142817
-0.744392
-0.667838
-0.616003
-0.534972
-0.450654
-0.36682
-0.291707
-0.227659
-0.175064
-0.132766
-0.73397
-0.658896
-0.604938
-0.52171
-0.435735
-0.351617
-0.277271
-0.214506
-0.163555
-0.122039
-0.720658
-0.647409
-0.591401
-0.506285
-0.419038
-0.335018
-0.261731
-0.200452
-0.151261
-0.110654
-0.704368
-0.633289
-0.57534
-0.488688
-0.400581
-0.317049
-0.245111
-0.185515
-0.138205
-0.0986025
-0.68503
-0.616466
-0.556721
-0.468923
-0.380392
-0.297743
-0.227438
-0.169714
-0.124453
-0.0858517
-0.662597
-0.596889
-0.535534
-0.447013
-0.358512
-0.27714
-0.20874
-0.153064
-0.110079
-0.0724762
-0.637045
-0.574531
-0.511786
-0.422999
-0.334994
-0.255286
-0.189057
-0.135614
-0.0949149
-0.0586771
-0.608375
-0.549387
-0.485512
-0.396936
-0.309898
-0.232229
-0.168448
-0.117505
-0.0790293
-0.0443565
-0.576613
-0.521475
-0.456763
-0.368899
-0.283298
-0.208029
-0.146988
-0.0986819
-0.0625398
-0.0295415
-0.54181
-0.490837
-0.425617
-0.338979
-0.255277
-0.182809
-0.124675
-0.0791964
-0.0454941
-0.0142742
-0.504044
-0.457543
-0.392181
-0.307278
-0.225924
-0.156602
-0.101611
-0.0591052
-0.0279367
0.00139884
-0.46342
-0.421695
-0.356588
-0.273887
-0.195348
-0.129495
-0.0778646
-0.0384674
-0.00991646
0.0174272
-0.420073
-0.383433
-0.318952
-0.238911
-0.163677
-0.101584
-0.0535105
-0.0173469
0.00851438
0.0337562
-0.374169
-0.342947
-0.279225
-0.202641
-0.131018
-0.0729655
-0.0286294
0.00418779
0.0273003
0.0503264
-0.325881
-0.300413
-0.237684
-0.165138
-0.0975018
-0.043746
-0.00330714
0.0260643
0.0463828
0.0670726
-0.275352
-0.25573
-0.194851
-0.126546
-0.0632663
-0.0140354
0.0223653
0.0482064
0.0657002
0.0839212
-0.222847
-0.209377
-0.150704
-0.0870437
-0.0284555
0.0160516
0.0482926
0.070534
0.085187
0.100789
-0.16877
-0.161461
-0.105442
-0.0468195
0.00678263
0.0463956
0.0743756
0.0929644
0.104778
0.117587
-0.113277
-0.112283
-0.0593049
-0.0060653
0.0422958
0.0768738
0.100511
0.115416
0.124427
0.134217
-0.0566419
-0.0621135
-0.0125307
0.0350221
0.0779276
0.10736
0.126594
0.137816
0.144108
0.150495
0.000821929
-0.0112231
0.0346375
0.0762418
0.113519
0.137724
0.152516
0.160094
0.163731
0.166032
0.0587941
0.0401038
0.0819501
0.117389
0.148908
0.167836
0.178173
0.182158
0.182962
0.180306
0.116947
0.0915738
0.129152
0.158259
0.183933
0.197565
0.203464
0.20388
0.201357
0.193428
0.174946
0.142887
0.175987
0.198645
0.218432
0.226783
0.228284
0.225149
0.219604
0.208477
0.23245
0.193741
0.222196
0.238343
0.252242
0.255361
0.252527
0.245859
0.237344
0.223883
0.289116
0.24383
0.267524
0.27715
0.285206
0.283171
0.276089
0.265936
0.254476
0.238996
0.344602
0.292853
0.311715
0.314866
0.317165
0.310089
0.298867
0.285311
0.270979
0.253616
0.398567
0.34051
0.354523
0.351297
0.347967
0.335994
0.320762
0.303905
0.286809
0.267661
0.450679
0.386506
0.395704
0.386254
0.377464
0.360767
0.34168
0.321646
0.301908
0.281055
0.500611
0.430557
0.435026
0.419553
0.405512
0.384295
0.361528
0.338461
0.316218
0.293731
0.54805
0.472389
0.472263
0.451021
0.431976
0.40647
0.380219
0.35428
0.329682
0.305632
0.592693
0.511738
0.507204
0.480492
0.456725
0.427189
0.397669
0.369037
0.342244
0.31671
0.634258
0.548357
0.539646
0.50781
0.479637
0.446354
0.413801
0.382669
0.353852
0.326921
0.672476
0.582014
0.569405
0.53283
0.500599
0.463875
0.42854
0.395118
0.364455
0.336227
0.707102
0.612495
0.596308
0.555419
0.519506
0.479668
0.441819
0.406329
0.374006
0.344591
0.73791
0.639607
0.6202
0.575457
0.536264
0.493659
0.453578
0.416252
0.382462
0.351983
0.764702
0.663177
0.640942
0.592837
0.550789
0.50578
0.463761
0.424843
0.389784
0.358372
0.787301
0.683054
0.658415
0.607466
0.563007
0.515971
0.472321
0.432064
0.39594
0.363735
0.805561
0.69911
0.672516
0.619264
0.572856
0.524185
0.479219
0.43788
0.4009
0.368051
0.819362
0.711244
0.683165
0.628169
0.580287
0.530381
0.48442
0.442266
0.40464
0.371303
0.828614
0.719376
0.690299
0.634132
0.585263
0.534528
0.487902
0.445201
0.407143
0.373479
0.833255
0.723456
0.693876
0.637122
0.587756
0.536607
0.489647
0.446672
0.408398
0.374568
0.833255
0.723456
0.693876
0.637122
0.587756
0.536607
0.489647
0.446672
0.408398
0.374568
0.828614
0.719376
0.690299
0.634132
0.585263
0.534528
0.487902
0.445201
0.407143
0.373479
0.819362
0.711244
0.683165
0.628169
0.580287
0.530381
0.48442
0.442266
0.40464
0.371303
0.805561
0.69911
0.672516
0.619264
0.572856
0.524185
0.479219
0.43788
0.4009
0.368051
0.787301
0.683054
0.658415
0.607466
0.563007
0.515971
0.472321
0.432064
0.39594
0.363735
0.764702
0.663177
0.640942
0.592837
0.550789
0.50578
0.463761
0.424843
0.389784
0.358372
0.73791
0.639607
0.6202
0.575457
0.536264
0.493659
0.453578
0.416252
0.382462
0.351983
0.707102
0.612495
0.596308
0.555419
0.519506
0.479668
0.441819
0.406329
0.374006
0.344591
0.672476
0.582014
0.569405
0.53283
0.500599
0.463875
0.42854
0.395118
0.364455
0.336227
0.634258
0.548357
0.539646
0.50781
0.479637
0.446354
0.413801
0.382669
0.353852
0.326921
0.592693
0.511738
0.507204
0.480492
0.456725
0.427189
0.397669
0.369037
0.342244
0.31671
0.54805
0.472389
0.472263
0.451021
0.431976
0.40647
0.380219
0.35428
0.329682
0.305632
0.500611
0.430557
0.435026
0.419553
0.405512
0.384295
0.361528
0.338461
0.316218
0.293731
0.450679
0.386506
0.395704
0.386254
0.377464
0.360767
0.34168
0.321646
0.301908
0.281055
0.398567
0.34051
0.354523
0.351297
0.347967
0.335994
0.320762
0.303905
0.286809
0.267661
0.344602
0.292853
0.311715
0.314866
0.317165
0.310089
0.298867
0.285311
0.270979
0.253616
0.289116
0.24383
0.267524
0.27715
0.285206
0.283171
0.276089
0.265936
0.254476
0.238996
0.23245
0.193741
0.222196
0.238343
0.252242
0.255361
0.252527
0.245859
0.237344
0.223883
0.174946
0.142887
0.175987
0.198645
0.218432
0.226783
0.228284
0.225149
0.219604
0.208477
0.116947
0.0915738
0.129152
0.158259
0.183933
0.197565
0.203464
0.20388
0.201357
0.193428
0.0587941
0.0401039
0.0819501
0.117389
0.148908
0.167836
0.178173
0.182158
0.182962
0.180306
0.000821934
-0.0112231
0.0346375
0.0762418
0.113519
0.137724
0.152516
0.160094
0.163731
0.166032
-0.0566418
-0.0621135
-0.0125307
0.0350221
0.0779276
0.10736
0.126594
0.137816
0.144108
0.150495
-0.113277
-0.112283
-0.0593049
-0.0060653
0.0422958
0.0768738
0.100511
0.115416
0.124427
0.134217
-0.16877
-0.161461
-0.105442
-0.0468195
0.00678263
0.0463956
0.0743756
0.0929644
0.104778
0.117587
-0.222847
-0.209377
-0.150704
-0.0870437
-0.0284555
0.0160516
0.0482926
0.070534
0.085187
0.100789
-0.275352
-0.25573
-0.194851
-0.126546
-0.0632663
-0.0140353
0.0223653
0.0482064
0.0657002
0.0839212
-0.325881
-0.300413
-0.237684
-0.165138
-0.0975018
-0.043746
-0.00330714
0.0260643
0.0463828
0.0670726
-0.374169
-0.342947
-0.279225
-0.202641
-0.131018
-0.0729655
-0.0286294
0.0041878
0.0273003
0.0503264
-0.420073
-0.383433
-0.318952
-0.238911
-0.163677
-0.101584
-0.0535105
-0.0173469
0.00851438
0.0337562
-0.46342
-0.421695
-0.356588
-0.273887
-0.195348
-0.129495
-0.0778646
-0.0384674
-0.00991645
0.0174272
-0.504044
-0.457543
-0.392181
-0.307278
-0.225924
-0.156602
-0.101611
-0.0591052
-0.0279367
0.00139884
-0.54181
-0.490837
-0.425617
-0.338979
-0.255277
-0.182809
-0.124675
-0.0791964
-0.0454941
-0.0142742
-0.576613
-0.521475
-0.456763
-0.368899
-0.283298
-0.208029
-0.146988
-0.0986819
-0.0625398
-0.0295415
-0.608375
-0.549387
-0.485512
-0.396936
-0.309898
-0.232229
-0.168448
-0.117505
-0.0790293
-0.0443565
-0.637045
-0.574531
-0.511786
-0.422999
-0.334994
-0.255286
-0.189057
-0.135614
-0.0949149
-0.0586771
-0.662597
-0.596889
-0.535534
-0.447013
-0.358512
-0.27714
-0.20874
-0.153064
-0.110079
-0.0724762
-0.68503
-0.616466
-0.556721
-0.468923
-0.380392
-0.297743
-0.227438
-0.169714
-0.124453
-0.0858517
-0.704368
-0.633289
-0.57534
-0.488688
-0.400581
-0.317049
-0.245111
-0.185515
-0.138205
-0.0986025
-0.720658
-0.647409
-0.591401
-0.506285
-0.419038
-0.335018
-0.261731
-0.200452
-0.151261
-0.110654
-0.73397
-0.658896
-0.604938
-0.52171
-0.435735
-0.351617
-0.277271
-0.214506
-0.163555
-0.122039
-0.744392
-0.667838
-0.616003
-0.534972
-0.450654
-0.36682
-0.291707
-0.227659
-0.175064
-0.132766
-0.75203
-0.674342
-0.624667
-0.546097
-0.463789
-0.38061
-0.305021
-0.239895
-0.185775
-0.142817
-0.757009
-0.678526
-0.63102
-0.55513
-0.475147
-0.392976
-0.317198
-0.251203
-0.195675
-0.152176
-0.759463
-0.680521
-0.635166
-0.562127
-0.484743
-0.403915
-0.328228
-0.261575
-0.204752
-0.160832
-0.75954
-0.68047
-0.637222
-0.56716
-0.492605
-0.413428
-0.338106
-0.271003
-0.212997
-0.168779
-0.757396
-0.67852
-0.637318
-0.570314
-0.498773
-0.421525
-0.34683
-0.279486
-0.220405
-0.176014
-0.753192
-0.674823
-0.635591
-0.571684
-0.503293
-0.428222
-0.354401
-0.287019
-0.226972
-0.182535
-0.747093
-0.669536
-0.632185
-0.571377
-0.506224
-0.433539
-0.360822
-0.293602
-0.232696
-0.188341
-0.739267
-0.662814
-0.627249
-0.569505
-0.507631
-0.437504
-0.3661
-0.299233
-0.237578
-0.193432
-0.729879
-0.65481
-0.620932
-0.566188
-0.507588
-0.440148
-0.370242
-0.30391
-0.241618
-0.197803
-0.71909
-0.645675
-0.613385
-0.561549
-0.506174
-0.441506
-0.373259
-0.30763
-0.244818
-0.201444
-0.707059
-0.635552
-0.604752
-0.555713
-0.503473
-0.441619
-0.375162
-0.310386
-0.247182
-0.204331
-0.693935
-0.624579
-0.595175
-0.548803
-0.499574
-0.440529
-0.375963
-0.312169
-0.248718
-0.20642
-0.679862
-0.612885
-0.58479
-0.540943
-0.494565
-0.438282
-0.375676
-0.312965
-0.249436
-0.207632
-0.664972
-0.60059
-0.573721
-0.532249
-0.488537
-0.434928
-0.374317
-0.312756
-0.249355
-0.207836
-0.649392
-0.587807
-0.562088
-0.522833
-0.48158
-0.430515
-0.371904
-0.311517
-0.248501
-0.206818
-0.633237
-0.574635
-0.549997
-0.512801
-0.473781
-0.425096
-0.368456
-0.309225
-0.246921
-0.204262
-0.616614
-0.561169
-0.537547
-0.502248
-0.465223
-0.418724
-0.363998
-0.305853
-0.244686
-0.199668
-0.599624
-0.547492
-0.524826
-0.491265
-0.455989
-0.411454
-0.358555
-0.301389
-0.241827
-0.191469
-0.582359
-0.533682
-0.511913
-0.479932
-0.446156
-0.403343
-0.35216
-0.295871
-0.238334
-0.176021
-0.564911
-0.519811
-0.498882
-0.468326
-0.435796
-0.394451
-0.344848
-0.289357
-0.234705
-0.167975
-0.547365
-0.505945
-0.485799
-0.456514
-0.424983
-0.384843
-0.336651
-0.281932
-0.229939
-0.162889
-0.529811
-0.492152
-0.472728
-0.444564
-0.413788
-0.374585
-0.327596
-0.273625
-0.223637
-0.157112
-0.512339
-0.478496
-0.459732
-0.432542
-0.402284
-0.363752
-0.317722
-0.264454
-0.215969
-0.150157
-0.495044
-0.465044
-0.446874
-0.420513
-0.39055
-0.35243
-0.307102
-0.254466
-0.207159
-0.14236
-0.478028
-0.451869
-0.434223
-0.408551
-0.378673
-0.340718
-0.295835
-0.243743
-0.197359
-0.133899
-0.461401
-0.439047
-0.421853
-0.396734
-0.366747
-0.328732
-0.284046
-0.232398
-0.18671
-0.124858
-0.445283
-0.426658
-0.409844
-0.385149
-0.354884
-0.316603
-0.271884
-0.220572
-0.175379
-0.115353
-0.429806
-0.414787
-0.398285
-0.373896
-0.343205
-0.304481
-0.259525
-0.208441
-0.163568
-0.105545
-0.415101
-0.403532
-0.387274
-0.363084
-0.331847
-0.292536
-0.247169
-0.196211
-0.151507
-0.0956207
-0.40126
-0.393035
-0.376914
-0.352829
-0.32096
-0.280952
-0.235038
-0.184112
-0.139454
-0.0857847
-0.38851
-0.383345
-0.367306
-0.343259
-0.310703
-0.269929
-0.223371
-0.172399
-0.127688
-0.0762539
-0.376967
-0.374555
-0.358592
-0.334505
-0.301242
-0.259673
-0.212419
-0.16134
-0.116505
-0.0672533
-0.366763
-0.366796
-0.350863
-0.326696
-0.292744
-0.250394
-0.202435
-0.151207
-0.106206
-0.0590088
-0.35803
-0.360165
-0.344229
-0.319963
-0.285367
-0.242293
-0.193666
-0.142269
-0.0970841
-0.0517392
-0.350887
-0.354744
-0.338789
-0.314424
-0.27926
-0.235557
-0.186339
-0.134775
-0.0894129
-0.0456468
-0.345436
-0.350608
-0.334629
-0.310168
-0.274562
-0.230349
-0.180654
-0.128944
-0.0834312
-0.0409082
-0.341756
-0.347816
-0.331816
-0.307276
-0.271376
-0.2268
-0.17677
-0.124953
-0.0793311
-0.0376656
-0.339902
-0.34641
-0.330398
-0.305816
-0.269764
-0.225002
-0.174799
-0.122926
-0.0772465
-0.0360186
-0.0208641
-0.0105851
-0.00140488
0.00578009
0.0111827
0.015021
0.0174551
0.0186997
0.018999
0.0185877
0.0176765
0.0164436
0.0150306
0.0135433
0.0120575
0.0106241
0.00927555
0.0080308
0.00689825
0.00588072
0.00497226
0.00417263
0.00345846
0.00285655
0.00228914
0.00186523
0.00134377
0.00115741
0.000462469
0.000770307
-0.022824
-0.0122636
-0.00274884
0.00466965
0.0102662
0.0142756
0.016854
0.0182179
0.0186153
0.0182839
0.0174372
0.0162558
0.0148837
0.0134288
0.0119684
0.010555
0.00922206
0.00798947
0.00686636
0.00585617
0.00495341
0.00415817
0.00344712
0.00284815
0.00228279
0.00186042
0.00134036
0.00115474
0.000461322
0.0007684
-0.0266814
-0.0155691
-0.00540333
0.00247128
0.00844927
0.0127961
0.0156592
0.0172592
0.0178511
0.0176786
0.0169599
0.0158811
0.0145905
0.0132002
0.0117906
0.010417
0.0091152
0.00790688
0.00680265
0.00580712
0.00491577
0.0041293
0.00342451
0.00283139
0.00227011
0.00185082
0.00133357
0.00114941
0.000459034
0.000764597
-0.0323141
-0.0204023
-0.00930363
-0.000770703
0.00576388
0.0106046
0.0138857
0.0158335
0.0167131
0.0167757
0.0162473
0.0153211
0.0141521
0.0128581
0.0115244
0.0102104
0.00895522
0.00778322
0.00670724
0.00573366
0.00485941
0.00408614
0.00339036
0.00280634
0.00225112
0.00183644
0.00132341
0.00114143
0.000455614
0.000758918
-0.0395453
-0.0266214
-0.0143563
-0.00499151
0.00225662
0.00773343
0.0115552
0.0139554
0.0152106
0.0155814
0.0153034
0.0145786
0.0135702
0.0124037
0.0111707
0.00993574
0.00874245
0.00761874
0.00658033
0.00563595
0.00478447
0.00402896
0.00334338
0.00277302
0.00222589
0.00181734
0.00130991
0.00113082
0.000451075
0.000751395
-0.0481523
-0.0340503
-0.0204434
-0.010108
-0.00201262
0.00422423
0.0086958
0.0116436
0.0133562
0.0141038
0.0141333
0.0136566
0.012847
0.0118384
0.0107303
0.00959364
0.00847736
0.00741377
0.00642216
0.00551416
0.00469104
0.00395832
0.00330891
0.00273178
0.00219443
0.00179354
0.00129311
0.00111763
0.000445437
0.00074207
-0.0578776
-0.0424867
-0.0274268
-0.0160213
-0.00697244
0.000126759
0.00534149
0.00892099
0.0111649
0.0123529
0.0127431
0.0125593
0.0119849
0.0111639
0.0102044
0.00918489
0.00816049
0.00716871
0.00623305
0.00536853
0.00457924
0.00387279
0.00323825
0.00268185
0.00215678
0.00176512
0.00127307
0.0011019
0.000438721
0.000730994
-0.0684416
-0.0517107
-0.0351531
-0.02262
-0.0125419
-0.00450224
0.00153113
0.00581378
0.00865409
0.0103401
0.0111403
0.0112913
0.0109871
0.0103822
0.00959431
0.00871037
0.00779248
0.00688404
0.00601334
0.00519934
0.00444927
0.003773
0.00315909
0.00262412
0.00211305
0.00173213
0.00124985
0.00108367
0.000430954
0.000718231
-0.0795561
-0.0614931
-0.043459
-0.0297833
-0.0186327
-0.00960031
-0.00269207
0.00235134
0.00584339
0.00807809
0.00933358
0.0098578
0.00985686
0.00949541
0.00890151
0.0081711
0.00737405
0.00656028
0.00576344
0.0050069
0.0043014
0.00365952
0.00307115
0.00255817
0.0020632
0.00169468
0.00122351
0.001063
0.000422167
0.000703856
-0.0909369
-0.0716037
-0.0521757
-0.0373842
-0.0251509
-0.0151005
-0.00728137
-0.00143438
0.00275411
0.00558094
0.00733198
0.00826488
0.00859779
0.00850597
0.00812757
0.00756815
0.00690597
0.006198
0.0054838
0.00479157
0.00413596
0.00353269
0.00297358
0.00248354
0.00200711
0.00165285
0.00119415
0.00103996
0.000412391
0.000687952
-0.102316
-0.0818185
-0.0611338
-0.0452928
-0.0319992
-0.0209324
-0.0121871
-0.00550914
-0.000590715
0.00286384
0.00514533
0.0065194
0.00721409
0.00741644
0.00727421
0.00690273
0.00638907
0.00579783
0.00517489
0.00455375
0.00395328
0.00339272
0.0028664
0.00240423
0.00194493
0.00160674
0.00116187
0.00101462
0.000401662
0.000670615
-0.11345
-0.0919264
-0.070167
-0.0533784
-0.0390781
-0.0270229
-0.0173568
-0.00983644
-0.00416629
-5.6702e-05
0.00278443
0.00462821
0.00571077
0.00622973
0.00634331
0.0061761
0.00582427
0.00536044
0.00483726
0.00429388
0.00375374
0.00323992
0.00274932
0.00231298
0.00187715
0.00155644
0.00112674
0.000987054
0.000390018
0.000651954
-0.124128
-0.101733
-0.0791151
-0.0615113
-0.0462868
-0.0332968
-0.0227359
-0.0143778
-0.00794636
-0.00316324
0.000260566
0.00259836
0.00409243
0.0049488
0.00533651
0.00538932
0.0052123
0.00488638
0.00447133
0.00401231
0.00353765
0.00307452
0.00262285
0.00221678
0.00180854
0.00150176
0.00108885
0.000957351
0.000377498
0.000632085
-0.134179
-0.11107
-0.0878286
-0.069567
-0.0535273
-0.0396804
-0.0282709
-0.019096
-0.0119062
-0.00644008
-0.00241673
0.000435357
0.0023619
0.00357572
0.00425466
0.00454269
0.00455331
0.00437576
0.00407723
0.00370919
0.00330518
0.00289675
0.00248729
0.00211456
0.00173185
0.00144284
0.0010482
0.000925584
0.000364142
0.000611137
-0.143493
-0.119807
-0.096182
-0.0774344
-0.0607098
-0.0461051
-0.0339111
-0.0239552
-0.0160214
-0.00987099
-0.00523684
-0.00185379
0.000523938
0.00211376
0.00310079
0.00363823
0.00384876
0.00382971
0.00365587
0.00338528
0.00305696
0.00270712
0.00234293
0.00200548
0.00164913
0.00138531
0.00100496
0.000891802
0.000349995
0.000589258
-0.151996
-0.127833
-0.104042
-0.0849795
-0.0677159
-0.0524705
-0.0395724
-0.0288863
-0.020236
-0.013411
-0.00816396
-0.00424073
-0.00139917
0.000580251
0.00188856
0.00268681
0.00310687
0.00325444
0.0032119
0.00304405
0.00279557
0.00250755
0.00219111
0.00189059
0.00156266
0.00131993
0.000960039
0.000856161
0.000335118
0.000566616
-0.159552
-0.134945
-0.111202
-0.0920096
-0.0743748
-0.0586286
-0.0451287
-0.0337856
-0.0244673
-0.0169967
-0.0111511
-0.00669194
-0.00338434
-0.0010095
0.000627555
0.0016946
0.00233172
0.00265269
0.00274723
0.00268685
0.00252199
0.00229873
0.00203229
0.00177035
0.00147252
0.00125149
0.000913234
0.000819039
0.000319567
0.000543347
-0.166391
-0.141361
-0.11789
-0.0987354
-0.0808951
-0.0647943
-0.0508003
-0.0388735
-0.0289298
-0.0208298
-0.0143817
-0.00936887
-0.00556948
-0.00277034
-0.000775955
0.000586269
0.00146365
0.00197806
0.00222648
0.0022872
0.00221674
0.00206657
0.0018565
0.00163783
0.00137375
0.00117734
0.000861724
0.000779515
0.000303172
0.000519396
-0.173902
-0.148212
-0.124858
-0.105719
-0.0878261
-0.0715246
-0.0571383
-0.0446813
-0.0341186
-0.0253556
-0.0182422
-0.0125958
-0.00821889
-0.00491268
-0.0024864
-0.000764757
0.000406421
0.00115773
0.00159502
0.00180469
0.00185041
0.00179004
0.00164904
0.00148303
0.00125975
0.00109304
0.000803835
0.000735286
0.000284665
0.000494825
-0.177942
-0.150203
-0.127632
-0.108921
-0.091415
-0.0753559
-0.0609921
-0.0484041
-0.0375932
-0.0284984
-0.0210047
-0.0149619
-0.0101997
-0.00653858
-0.00379918
-0.00181017
-0.000416342
0.000516765
0.00110006
0.00142529
0.00156126
0.00157064
0.00148327
0.00135797
0.00116654
0.00102257
0.000754911
0.00069614
0.000268063
0.00047213
-0.162836
-0.143955
-0.12328
-0.104297
-0.0865886
-0.0704585
-0.0561625
-0.0437738
-0.0332946
-0.0246407
-0.0176566
-0.0121433
-0.0078865
-0.00467688
-0.00232276
-0.000654281
0.000475921
0.00119383
0.00160349
0.00179104
0.00182013
0.00174816
0.00160033
0.00143038
0.00120806
0.00104058
0.000761837
0.000689119
0.000266395
0.000456913
-0.152189
-0.136899
-0.118609
-0.101182
-0.0847334
-0.0695274
-0.0558944
-0.0439751
-0.0338033
-0.0253267
-0.0184215
-0.0129173
-0.00862334
-0.00534882
-0.0029157
-0.00116408
4.65864e-05
0.000838062
0.00131237
0.00155508
0.00163043
0.00159647
0.00148016
0.00133504
0.00113446
0.000981817
0.000720826
0.000653624
0.000252644
0.00043553
-0.143823
-0.129936
-0.113506
-0.0978018
-0.0828066
-0.0687358
-0.0559553
-0.0446438
-0.0348644
-0.0266024
-0.0197747
-0.0142503
-0.00987251
-0.00647778
-0.00390779
-0.00201613
-0.000671047
0.000243764
0.000827411
0.00116428
0.00131915
0.00135077
0.00128869
0.00118645
0.00102244
0.000895603
0.000661942
0.000606004
0.000234043
0.000410017
-0.136071
-0.123299
-0.108306
-0.0940863
-0.0803952
-0.0673904
-0.0554463
-0.0447599
-0.0354148
-0.0274255
-0.0207417
-0.0152647
-0.0108667
-0.00740778
-0.00474823
-0.00275517
-0.00130648
-0.000292353
0.000382339
0.000799795
0.0010244
0.00111475
0.00110231
0.0010399
0.000910711
0.000808496
0.000602044
0.000556765
0.000215061
0.000382603
-0.128492
-0.116806
-0.103066
-0.0901901
-0.0777227
-0.0657448
-0.054626
-0.0445741
-0.0356875
-0.0280037
-0.0215007
-0.016108
-0.0117241
-0.0082314
-0.00550795
-0.00343453
-0.00189902
-0.000798688
-4.2898e-05
0.000447808
0.000736917
0.000882395
0.000917215
0.000893101
0.000797938
0.000719831
0.000540729
0.000505824
0.000195514
0.000353317
-0.120865
-0.110339
-0.0977843
-0.0861583
-0.0748656
-0.0638966
-0.0536043
-0.044202
-0.0357978
-0.0284473
-0.0221532
-0.016871
-0.012524
-0.00901629
-0.00624382
-0.00410131
-0.00248715
-0.00130616
-0.000472758
8.92793e-05
0.000442106
0.00064267
0.000725213
0.000740104
0.000679885
0.000626712
0.000476071
0.00045204
0.000174752
0.000322003
-0.113161
-0.103859
-0.0924592
-0.0820002
-0.0718278
-0.0618435
-0.0523731
-0.0436311
-0.0357308
-0.0287409
-0.0226846
-0.0175408
-0.0132556
-0.00975397
-0.0069495
-0.00475105
-0.00306789
-0.00181297
-0.000906307
-0.000275461
0.000139896
0.000395284
0.00052589
0.000580479
0.000556124
0.000528807
0.000407754
0.00039526
0.000152552
0.000288742
-0.105429
-0.0973555
-0.0870941
-0.0777284
-0.0686174
-0.0595865
-0.0509266
-0.042849
-0.0354691
-0.0288643
-0.0230739
-0.0180968
-0.0139
-0.0104278
-0.00761087
-0.00537205
-0.00363184
-0.00231174
-0.0013379
-0.000642202
-0.000166659
0.000142396
0.000320718
0.000415215
0.00042726
0.000426515
0.000335937
0.000335646
0.000128819
0.000253708
-0.097724
-0.0908366
-0.0816967
-0.0733605
-0.0652511
-0.0571379
-0.0492717
-0.0418571
-0.0350092
-0.0288101
-0.0233114
-0.0185284
-0.0144464
-0.0110277
-0.00821873
-0.00595641
-0.00417243
-0.00279718
-0.00176341
-0.00100782
-0.000475263
-0.000114349
0.000110826
0.000245077
0.000293755
0.000320153
0.000260728
0.000273348
0.000103436
0.000217098
-0.0901019
-0.0843274
-0.0762803
-0.068915
-0.0617477
-0.0545128
-0.0474191
-0.0406613
-0.0343522
-0.0285755
-0.0233911
-0.0188279
-0.0148865
-0.0115451
-0.00876533
-0.00649728
-0.00468387
-0.00326456
-0.0021791
-0.00136945
-0.000783797
-0.000373425
-0.000102733
7.07835e-05
0.000156047
0.000210027
0.000182232
0.000208518
7.62787e-05
0.000179137
-0.0826159
-0.0778604
-0.0708624
-0.0644121
-0.0581276
-0.0517282
-0.0453816
-0.0392696
-0.0335013
-0.0281594
-0.0233089
-0.0189887
-0.0152124
-0.011972
-0.00924289
-0.00698761
-0.00516004
-0.0037088
-0.00258088
-0.0017239
-0.00108984
-0.000633051
-0.000318699
-0.000106785
1.46976e-05
9.65302e-05
0.000100615
0.000141357
4.72491e-05
0.000140079
-0.0753106
-0.0714701
-0.0654646
-0.059873
-0.0544127
-0.0488033
-0.0431746
-0.0376931
-0.0324627
-0.0275636
-0.0230627
-0.0190062
-0.0154177
-0.0123012
-0.00964405
-0.00742045
-0.00559472
-0.00412454
-0.00296434
-0.00206765
-0.00139067
-0.000891188
-0.000535589
-0.000286571
-0.000129586
-1.98345e-05
1.61299e-05
7.2121e-05
1.62818e-05
0.000100211
-0.068222
-0.065191
-0.0601105
-0.0553206
-0.0506265
-0.0457595
-0.0408162
-0.0359457
-0.031246
-0.0267931
-0.0226536
-0.0188781
-0.015498
-0.0125268
-0.00996237
-0.00778936
-0.00598191
-0.00450649
-0.00332497
-0.00239702
-0.00168338
-0.00114559
-0.000751731
-0.000467352
-0.000275961
-0.000138463
-7.08907e-05
1.11892e-06
-1.66452e-05
5.98414e-05
-0.0613784
-0.0590549
-0.0548256
-0.0507791
-0.0467937
-0.0426203
-0.0383267
-0.0340443
-0.0298637
-0.025856
-0.0220855
-0.0186049
-0.015451
-0.0126447
-0.0101926
-0.00808871
-0.00631608
-0.00484955
-0.0036583
-0.00270824
-0.00196491
-0.00139385
-0.000965289
-0.00064776
-0.000423451
-0.000258648
-0.000160022
-7.1287e-05
-5.15014e-05
1.92936e-05
-0.0548021
-0.0530912
-0.049636
-0.0462738
-0.0429407
-0.039411
-0.0357292
-0.0320085
-0.0283315
-0.0247635
-0.0213655
-0.0181899
-0.0152767
-0.0126526
-0.0103311
-0.00831393
-0.00659239
-0.00514901
-0.00396004
-0.00299758
-0.00223214
-0.00163346
-0.00117429
-0.000826295
-0.000570952
-0.000379583
-0.000250747
-0.00014468
-8.8194e-05
-2.10993e-05
-0.0485112
-0.0473264
-0.0445679
-0.0418309
-0.0390945
-0.0361585
-0.0330484
-0.0298602
-0.0266678
-0.0235301
-0.0205036
-0.0176391
-0.014978
-0.0125506
-0.0103758
-0.00846182
-0.00680695
-0.00540079
-0.00422628
-0.00326149
-0.00248198
-0.00186185
-0.00137667
-0.00100134
-0.000717245
-0.000500363
-0.000342451
-0.000218587
-0.000126559
-6.10041e-05
-0.0425211
-0.0417845
-0.0396475
-0.0374771
-0.0352832
-0.032891
-0.0303114
-0.0276241
-0.0248938
-0.0221731
-0.0195131
-0.0169618
-0.0145604
-0.0123411
-0.0103268
-0.00853075
-0.00695707
-0.00560168
-0.00445362
-0.00349672
-0.00271152
-0.00207649
-0.00157034
-0.00117122
-0.000861014
-0.000619997
-0.000434426
-0.000292486
-0.000166354
-0.000100095
-0.0368451
-0.0364877
-0.0349002
-0.0332397
-0.0315356
-0.0296378
-0.0275467
-0.0253265
-0.0230331
-0.0207126
-0.0184102
-0.0161702
-0.0140323
-0.0120294
-0.0101865
-0.00852097
-0.00704155
-0.00574952
-0.00463945
-0.00370052
-0.00291809
-0.00227499
-0.00175321
-0.00133422
-0.00100088
-0.000737422
-0.000525879
-0.000365801
-0.000207262
-0.000138053
-0.031496
-0.0314566
-0.0303513
-0.0291456
-0.0278806
-0.0264292
-0.0247839
-0.0229957
-0.0211117
-0.0191712
-0.0172138
-0.0152794
-0.013405
-0.011623
-0.00995975
-0.00843482
-0.00706084
-0.00584347
-0.00478211
-0.00387081
-0.0030995
-0.00245521
-0.00192333
-0.00148865
-0.00113542
-0.000851523
-0.000615941
-0.00043791
-0.000248887
-0.000174567
-0.0264858
-0.0267108
-0.0260251
-0.025222
-0.0243475
-0.0232956
-0.0220539
-0.0206617
-0.0191574
-0.0175742
-0.0159458
-0.0143073
-0.0126927
-0.0111327
-0.00965376
-0.00827687
-0.00701728
-0.00588421
-0.00488111
-0.00400635
-0.00325408
-0.00261536
-0.00207895
-0.00163291
-0.00126325
-0.000961158
-0.000703686
-0.00050815
-0.000290768
-0.000209339
-0.0218269
-0.0222692
-0.0219455
-0.0214955
-0.0209654
-0.0202681
-0.0193885
-0.0183554
-0.0171998
-0.0159486
-0.0146302
-0.0132747
-0.0119124
-0.0105718
-0.00927854
-0.00805406
-0.0069153
-0.00587412
-0.0049373
-0.00410691
-0.00338094
-0.00275414
-0.00221862
-0.00176556
-0.00138301
-0.00106519
-0.000788149
-0.000575823
-0.000332377
-0.000242076
-0.0175314