/*--------------------------------*- C++ -*----------------------------------*\
  =========                 |
  \\      /  F ield         | OpenFOAM: The Open Source CFD Toolbox
   \\    /   O peration     | Website:  https://openfoam.org
    \\  /    A nd           | Version:  9
     \\/     M anipulation  |
\*---------------------------------------------------------------------------*/
FoamFile
{
    format      ascii;
    class       surfaceScalarField;
    location    "1.3";
    object      phi;
}
// * * * * * * * * * * * * * * * * * * * * * * * * * * * * * * * * * * * * * //

dimensions      [0 3 -1 0 0 0 0];

internalField   nonuniform List<scalar> 
16735
(
-0.00230337
0.00230337
2.91571e-10
-0.00515252
0.00284916
3.33973e-10
-0.00612918
0.000976657
2.73077e-10
-0.00281472
-0.00331446
3.2959e-10
0.00708349
-0.00989821
4.78772e-10
0.0257965
-0.018713
5.68215e-10
0.0552233
-0.0294268
6.52719e-10
0.0966324
-0.0414091
6.94896e-10
0.150044
-0.0534118
6.44452e-10
-0.0646184
5.21602e-10
0.214663
-0.00224135
0.00454471
-0.00495531
0.00556312
-0.00573478
0.00175612
-0.00217113
-0.00687811
0.00801309
-0.0200824
0.0270266
-0.0377265
0.0567302
-0.0591304
0.0983423
-0.0830212
0.151845
-0.106914
-0.129174
0.2164
-0.0021189
0.00666361
-0.00456544
0.00800966
-0.00495473
0.00214542
-0.000896349
-0.0109365
0.00985071
-0.0308295
0.0294556
-0.0573314
0.0597019
-0.0893768
0.101708
-0.125027
0.155381
-0.160587
-0.193597
0.219804
-0.0019391
0.00860271
-0.00399176
0.0100623
-0.00380637
0.00196003
0.000973969
-0.0157168
0.0125536
-0.0424091
0.0330229
-0.0778007
0.0640562
-0.12041
0.106625
-0.167596
0.160528
-0.214491
-0.2578
0.224731
-0.0017064
0.0103091
-0.00324697
0.0116029
-0.00231422
0.00102728
0.00340338
-0.0214344
0.0160605
-0.0550663
0.0376407
-0.0993808
0.069674
-0.152443
0.11294
-0.210862
0.167105
-0.268656
-0.321675
0.23098
-0.00142633
0.0117354
-0.00234703
0.0125236
-0.000509197
-0.000810559
0.00634384
-0.0282875
0.0202939
-0.0690163
0.0431979
-0.122285
0.0764052
-0.185651
0.120463
-0.25492
0.174884
-0.323077
-0.385089
0.238298
-0.00110529
0.0128407
-0.00131039
0.0127287
0.00157254
-0.00369349
0.00973352
-0.0364485
0.0251627
-0.0844455
0.0495647
-0.146687
0.0840744
-0.22016
0.128971
-0.299816
0.1836
-0.377706
-0.447881
0.246393
-0.0007504
0.0135911
-0.000154604
0.0121329
0.00389118
-0.00773928
0.013506
-0.0460633
0.0305665
-0.101506
0.0565976
-0.172718
0.0924879
-0.256051
0.138219
-0.345547
0.192965
-0.432452
-0.509866
0.254949
-0.000370273
0.0139614
0.00108794
0.0106747
0.00640446
-0.0130558
0.0175914
-0.0572503
0.0363988
-0.120313
0.0641446
-0.200464
0.101442
-0.293348
0.147951
-0.392057
0.202678
-0.487178
-0.570829
0.263641
4.11686e-05
0.0139202
0.0024106
0.00830526
0.00907053
-0.0197157
0.0219186
-0.0700984
0.0425508
-0.140946
0.0720502
-0.229963
0.110727
-0.332025
0.15791
-0.439239
0.212441
-0.541709
-0.630538
0.27215
0.000452886
0.0134673
0.00378561
0.00497254
0.0118478
-0.0277779
0.0264174
-0.0846679
0.0489146
-0.163443
0.0801605
-0.261209
0.12014
-0.372005
0.167842
-0.486942
0.221966
-0.595833
-0.688745
0.280173
0.000876083
0.0125913
0.00519478
0.000653842
0.0146968
-0.0372799
0.0310202
-0.100991
0.0553859
-0.187808
0.0883263
-0.294149
0.129483
-0.413161
0.177512
-0.53497
0.23099
-0.649311
-0.745192
0.287436
0.00130198
0.0112893
0.00662087
-0.00466504
0.0175811
-0.0482401
0.0356637
-0.119074
0.0618658
-0.214011
0.096407
-0.328691
0.138572
-0.455326
0.186701
-0.583099
0.239276
-0.701886
-0.799618
0.293702
0.00172599
0.00956329
0.0080487
-0.0109878
0.0204679
-0.0606593
0.0402895
-0.138896
0.0682626
-0.241984
0.104272
-0.3647
0.14724
-0.498294
0.195219
-0.631078
0.246626
-0.753292
-0.851766
0.298774
0.00214463
0.00741866
0.00946537
-0.0183085
0.0233281
-0.074522
0.044845
-0.160413
0.0744924
-0.271631
0.111804
-0.402012
0.155338
-0.541829
0.202906
-0.678645
0.252876
-0.803262
-0.901392
0.302502
0.00255538
0.00486328
0.0108602
-0.0266134
0.0261364
-0.0897982
0.0492827
-0.183559
0.0804791
-0.302827
0.118895
-0.440428
0.162738
-0.585672
0.209628
-0.725535
0.2579
-0.851535
-0.948276
0.304784
0.00295648
0.0019068
0.0122247
-0.0358816
0.028871
-0.106445
0.0535603
-0.208248
0.0861546
-0.335422
0.125453
-0.479726
0.169332
-0.629551
0.215286
-0.771488
0.261604
-0.897853
-0.992252
0.305581
0.0033469
-0.0014401
0.0135519
-0.0460865
0.0315128
-0.124405
0.0576398
-0.234375
0.0914574
-0.369239
0.131396
-0.519665
0.175033
-0.673188
0.219813
-0.816269
0.263919
-0.941959
-1.03322
0.304887
0.00372608
-0.00516618
0.0148361
-0.0571965
0.034045
-0.143614
0.0614868
-0.261817
0.0963329
-0.404085
0.136654
-0.559986
0.179778
-0.716312
0.22318
-0.85967
0.26481
-0.983589
-1.07122
0.302809
0.0040938
-0.00925998
0.0160726
-0.0691753
0.0364524
-0.163994
0.0650698
-0.290434
0.100732
-0.439747
0.141167
-0.600421
0.183516
-0.758661
0.225363
-0.901517
0.264396
-1.02262
-1.10673
0.299905
0.00444999
-0.01371
0.0172571
-0.0819825
0.0387206
-0.185458
0.0683593
-0.320073
0.104609
-0.475997
0.144884
-0.640696
0.1862
-0.799978
0.226289
-0.941606
0.263393
-1.05973
-1.14763
0.304293
0.00479455
-0.0185045
0.0183853
-0.0955733
0.0408357
-0.207908
0.0713275
-0.350565
0.107926
-0.512595
0.147764
-0.680534
0.187796
-0.84001
0.225927
-0.979737
0.260768
-1.09457
-1.1838
0.296937
0.00512722
-0.0236317
0.0194526
-0.109899
0.0427834
-0.231239
0.0739483
-0.38173
0.110649
-0.549295
0.149777
-0.719662
0.188289
-0.878522
0.224279
-1.01573
0.256783
-1.12707
-1.21603
0.289013
0.00544745
-0.0290792
0.0204539
-0.124905
0.0445497
-0.255335
0.0761972
-0.413377
0.112749
-0.585847
0.150905
-0.757818
0.187684
-0.915301
0.2214
-1.04944
0.251539
-1.15721
-1.24493
0.280447
0.00575434
-0.0348335
0.0213832
-0.140534
0.0461198
-0.280071
0.0780513
-0.445309
0.114204
-0.622
0.151142
-0.794756
0.186
-0.950159
0.217349
-1.08079
0.245098
-1.18496
-1.27095
0.271111
0.0060466
-0.0408801
0.0222341
-0.156722
0.047479
-0.305316
0.0794904
-0.47732
0.114999
-0.657509
0.15049
-0.830246
0.18327
-0.982939
0.212192
-1.10971
0.237547
-1.21031
-1.29436
0.260954
0.00632252
-0.0472026
0.0229994
-0.173398
0.0486126
-0.330929
0.0804966
-0.509204
0.115125
-0.692137
0.148962
-0.864083
0.179534
-1.01351
0.205996
-1.13618
0.228973
-1.23329
-1.31536
0.249979
0.00658002
-0.0537827
0.0236714
-0.19049
0.0495067
-0.356764
0.0810555
-0.540753
0.114579
-0.725661
0.146581
-0.896085
0.174844
-1.04177
0.198834
-1.16017
0.219465
-1.25392
-1.33411
0.238216
0.00681669
-0.0605994
0.024242
-0.207915
0.0501479
-0.38267
0.0811564
-0.571762
0.113366
-0.757871
0.143375
-0.926094
0.169256
-1.06766
0.190781
-1.18169
0.209107
-1.27225
-1.35072
0.225712
0.00702985
-0.0676292
0.0247033
-0.225589
0.0505246
-0.408492
0.0807927
-0.60203
0.111496
-0.788574
0.139382
-0.95398
0.162831
-1.0911
0.181913
-1.20077
0.197982
-1.28832
-1.36526
0.212523
0.00721665
-0.0748459
0.0250472
-0.243419
0.0506267
-0.434071
0.0799621
-0.631365
0.108987
-0.817599
0.134644
-0.979638
0.155633
-1.11209
0.172307
-1.21745
0.18617
-1.30218
-1.3778
0.198709
0.00737411
-0.08222
0.0252663
-0.261311
0.0504464
-0.459251
0.0786669
-0.659586
0.105862
-0.844794
0.129209
-1.00298
0.14773
-1.13061
0.162036
-1.23175
0.173746
-1.31389
-1.38838
0.184331
0.0074993
-0.0897193
0.025354
-0.279166
0.0499785
-0.483876
0.0769138
-0.686521
0.102148
-0.870029
0.123125
-1.02396
0.139187
-1.14668
0.151175
-1.24374
0.160782
-1.3235
-1.39705
0.16945
0.00758933
-0.0973086
0.0253043
-0.296881
0.0492204
-0.507792
0.0747138
-0.712014
0.0978783
-0.893194
0.116447
-1.04253
0.130073
-1.1603
0.139794
-1.25346
0.147347
-1.33105
-1.40383
0.154123
0.00764148
-0.10495
0.0251125
-0.314352
0.0481723
-0.530852
0.0720821
-0.735924
0.0930875
-0.914199
0.109229
-1.05867
0.120451
-1.17152
0.12796
-1.26097
0.133502
-1.33659
-1.40873
0.138408
0.00765329
-0.112603
0.0247752
-0.331474
0.0468372
-0.552914
0.0690373
-0.758124
0.0878144
-0.932976
0.101525
-1.07238
0.110385
-1.18038
0.115736
-1.26632
0.119308
-1.34016
-1.41178
0.122358
0.00762257
-0.120226
0.0242903
-0.348142
0.0452209
-0.573844
0.0656011
-0.778504
0.0820993
-0.949474
0.0933895
-1.08367
0.0999354
-1.18693
0.103182
-1.26957
0.104821
-1.3418
-1.41299
0.106025
0.00754753
-0.127773
0.0236572
-0.364251
0.0433318
-0.593519
0.0617982
-0.796971
0.0759835
-0.96366
0.0848757
-1.09256
0.0891592
-1.19121
0.0903531
-1.27076
0.0900916
-1.34154
-1.41235
0.0894585
0.00742674
-0.1352
0.0228766
-0.379701
0.0411806
-0.611823
0.0576552
-0.813445
0.0695093
-0.975514
0.0760355
-1.09909
0.078111
-1.19329
0.0773013
-1.26995
0.0751684
-1.33941
-1.40989
0.0727041
0.00725922
-0.142459
0.0219507
-0.394393
0.0387803
-0.628653
0.0532003
-0.827865
0.0627187
-0.985032
0.0669185
-1.10329
0.0668418
-1.19321
0.0640747
-1.26719
0.0600964
-1.33543
-1.4056
0.0558068
0.00704446
-0.149504
0.0208832
-0.408231
0.0361457
-0.643915
0.048463
-0.840183
0.0556532
-0.992222
0.0575725
-1.10521
0.0553994
-1.19104
0.0507179
-1.26251
0.0449176
-1.32963
-1.39949
0.0388094
0.00678239
-0.156286
0.019679
-0.421128
0.0332932
-0.657529
0.0434735
-0.850363
0.0483536
-0.997102
0.0480426
-1.1049
0.0438285
-1.18682
0.0372724
-1.25595
0.0296676
-1.32202
-1.39157
0.0217449
0.00647342
-0.16276
0.018344
-0.432999
0.0302405
-0.669426
0.0382622
-0.858385
0.0408592
-0.999699
0.0383716
-1.10241
0.0321704
-1.18062
0.0237777
-1.24756
0.0143915
-1.31264
-1.38179
0.00461503
0.00611843
-0.168878
0.0168856
-0.443766
0.0270062
-0.679546
0.0328596
-0.864238
0.0332083
-1.00005
0.0285998
-1.0978
0.0204627
-1.17249
0.0102621
-1.23736
-0.0008121
-1.30156
-1.37016
-0.0124466
0.00571873
-0.174597
0.0153117
-0.453359
0.0236097
-0.687844
0.0272958
-0.867924
0.0254372
-0.998189
0.0187653
-1.09113
0.00874205
-1.16246
-0.00325076
-1.22536
-0.0160936
-1.28872
-1.35679
-0.0294655
0.00527608
-0.179873
0.0136312
-0.461714
0.020071
-0.694284
0.0216003
-0.869454
0.0175806
-0.99417
0.0089029
-1.08245
-0.00295597
-1.1506
-0.0166439
-1.21167
-0.0312572
-1.27411
-1.34163
-0.0464149
0.00479261
-0.184666
0.0118536
-0.468775
0.0164102
-0.698841
0.015802
-0.868845
0.00967127
-0.988039
-0.000963489
-1.07182
-0.0145904
-1.13698
-0.0299809
-1.19628
-0.0463156
-1.25777
-1.32469
-0.0632563
0.00427087
-0.188936
0.00998886
-0.474493
0.0126475
-0.701499
0.00992869
-0.866127
0.00174174
-0.979852
-0.0107692
-1.05931
-0.0261448
-1.1216
-0.0432087
-1.17922
-0.0612431
-1.23974
-1.30597
-0.0799581
0.00371373
-0.19265
0.00804726
-0.478826
0.00880338
-0.702256
0.00400885
-0.861332
-0.00618004
-0.969663
-0.0205203
-1.04497
-0.0375882
-1.10453
-0.0562964
-1.16051
-0.0760122
-1.22002
-1.28549
-0.0964906
0.00312444
-0.195775
0.00604193
-0.481744
0.00489873
-0.701112
-0.00193319
-0.8545
-0.0140668
-0.957529
-0.0301792
-1.02885
-0.0488937
-1.08582
-0.069216
-1.14019
-0.0905952
-1.19864
-1.26326
-0.112825
0.00250661
-0.198281
0.00398538
-0.483223
0.000968294
-0.698095
-0.00788272
-0.845649
-0.0218937
-0.943519
-0.0397199
-1.01103
-0.0600359
-1.0655
-0.081941
-1.11829
-0.104965
-1.17562
-1.23929
-0.128934
0.00186501
-0.200146
0.00189255
-0.48325
-0.00303173
-0.693171
-0.0138059
-0.834875
-0.0296357
-0.927689
-0.0491187
-0.991545
-0.0709909
-1.04363
-0.0944458
-1.09483
-0.119094
-1.15097
-1.2136
-0.144791
0.00120382
-0.20135
-0.000194908
-0.481851
-0.00702455
-0.686341
-0.0196844
-0.822215
-0.0372708
-0.910102
-0.0583535
-0.970463
-0.081736
-1.02025
-0.106705
-1.06986
-0.132954
-1.12472
-1.18618
-0.160369
0.00051195
-0.201862
-0.00238769
-0.478952
-0.011004
-0.677725
-0.0254975
-0.807721
-0.0447781
-0.890822
-0.0674037
-0.947837
-0.0922499
-0.995402
-0.118695
-1.04342
-0.146519
-1.0969
-1.15706
-0.175641
-0.000206661
-0.201655
-0.00456077
-0.474598
-0.0149558
-0.66733
-0.0312266
-0.791451
-0.0521381
-0.86991
-0.0762502
-0.923725
-0.102512
-0.96914
-0.130392
-1.01554
-0.15976
-1.06753
-1.12624
-0.190582
-0.000907216
-0.200748
-0.0067297
-0.468775
-0.0188656
-0.655194
-0.036854
-0.773462
-0.0593331
-0.847431
-0.0848754
-0.898183
-0.112505
-0.941511
-0.141773
-0.986268
-0.172649
-1.03665
-1.09373
-0.20516
-0.00162176
-0.199126
-0.00888749
-0.461509
-0.0227194
-0.641362
-0.0423631
-0.753818
-0.0663466
-0.823448
-0.0932632
-0.871266
-0.12221
-0.912564
-0.152816
-0.955662
-0.185158
-1.00431
-1.05954
-0.219349
-0.00234042
-0.196786
-0.0110252
-0.452825
-0.0265035
-0.625884
-0.0477388
-0.732583
-0.0731634
-0.798023
-0.101399
-0.843031
-0.131612
-0.882351
-0.163504
-0.92377
-0.197264
-0.970552
-1.02368
-0.233118
-0.00305841
-0.193728
-0.0131338
-0.442749
-0.0302053
-0.608812
-0.0529669
-0.709822
-0.0797698
-0.77122
-0.109268
-0.813532
-0.140695
-0.850923
-0.173819
-0.890647
-0.208929
-0.935442
-0.986244
-0.246367
-0.0037717
-0.189956
-0.0152046
-0.431316
-0.0338127
-0.590204
-0.0580344
-0.6856
-0.0861528
-0.743102
-0.116859
-0.782826
-0.149449
-0.818333
-0.183744
-0.856352
-0.220091
-0.899095
-0.947271
-0.259065
-0.00447647
-0.185479
-0.0172293
-0.418564
-0.0373145
-0.570119
-0.0629294
-0.659985
-0.0923009
-0.71373
-0.12416
-0.750967
-0.157868
-0.784626
-0.193275
-0.820945
-0.230296
-0.862073
-0.908801
-0.268766
-0.00516909
-0.18031
-0.0191998
-0.404533
-0.0407001
-0.548619
-0.0676406
-0.633045
-0.098203
-0.683168
-0.131162
-0.718008
-0.165941
-0.749846
-0.202433
-0.784452
-0.240645
-0.823862
-0.868908
-0.280537
-0.00584611
-0.174464
-0.0211088
-0.38927
-0.0439597
-0.525768
-0.072158
-0.604846
-0.103849
-0.651477
-0.137854
-0.684003
-0.173657
-0.714043
-0.211192
-0.746917
-0.250531
-0.784523
-0.82766
-0.291779
-0.00650421
-0.16796
-0.0229492
-0.372825
-0.0470842
-0.501633
-0.0764721
-0.575458
-0.10923
-0.618718
-0.144226
-0.649007
-0.181004
-0.677266
-0.219533
-0.708388
-0.259932
-0.744125
-0.785188
-0.302404
-0.00714025
-0.16082
-0.0247143
-0.355251
-0.0500653
-0.476282
-0.0805741
-0.54495
-0.114338
-0.584954
-0.150271
-0.613074
-0.187971
-0.639566
-0.227446
-0.668913
-0.268848
-0.702723
-0.741601
-0.312435
-0.00775125
-0.153068
-0.026398
-0.336604
-0.0528952
-0.449785
-0.0844563
-0.513388
-0.119164
-0.550247
-0.155978
-0.57626
-0.194551
-0.600993
-0.234922
-0.628542
-0.277273
-0.660371
-0.696979
-0.321895
-0.0083344
-0.144734
-0.0279946
-0.316944
-0.0555669
-0.422213
-0.0881112
-0.480844
-0.123701
-0.514657
-0.161342
-0.538618
-0.200736
-0.561599
-0.241952
-0.587326
-0.285199
-0.617124
-0.651393
-0.330785
-0.00888705
-0.135847
-0.0294987
-0.296333
-0.0580738
-0.393637
-0.0915321
-0.447386
-0.127942
-0.478247
-0.166356
-0.500205
-0.206517
-0.521437
-0.248527
-0.545316
-0.292616
-0.573035
-0.604906
-0.339104
-0.00940674
-0.12644
-0.0309054
-0.274834
-0.0604099
-0.364133
-0.0947131
-0.413083
-0.131882
-0.441078
-0.171011
-0.461076
-0.211888
-0.48056
-0.254639
-0.502566
-0.299516
-0.528159
-0.557578
-0.346844
-0.00989121
-0.116549
-0.0322104
-0.252515
-0.0625699
-0.333773
-0.0976483
-0.378004
-0.135515
-0.403212
-0.175303
-0.421288
-0.216841
-0.439022
-0.260279
-0.459128
-0.305886
-0.482551
-0.509468
-0.353996
-0.0103383
-0.106211
-0.0334095
-0.229443
-0.0645488
-0.302634
-0.100333
-0.34222
-0.138834
-0.36471
-0.179225
-0.380897
-0.221369
-0.396879
-0.265438
-0.415059
-0.311718
-0.436271
-0.46064
-0.360547
-0.0107462
-0.0954644
-0.034499
-0.205691
-0.0663422
-0.270791
-0.102762
-0.305801
-0.141836
-0.325636
-0.182772
-0.339961
-0.225464
-0.354186
-0.270107
-0.370416
-0.317
-0.389377
-0.411155
-0.366485
-0.0111132
-0.0843513
-0.0354757
-0.181328
-0.0679462
-0.23832
-0.104931
-0.268815
-0.144516
-0.286052
-0.185938
-0.298539
-0.229122
-0.311002
-0.274279
-0.325259
-0.321723
-0.341933
-0.36108
-0.371798
-0.0114376
-0.0729136
-0.0363366
-0.156429
-0.0693572
-0.2053
-0.106838
-0.231335
-0.146869
-0.246021
-0.188719
-0.25669
-0.232335
-0.267385
-0.277947
-0.279647
-0.325877
-0.294003
-0.310483
-0.376474
-0.0117182
-0.0611954
-0.0370793
-0.131068
-0.0705722
-0.171807
-0.108478
-0.193429
-0.148893
-0.205605
-0.19111
-0.214473
-0.2351
-0.223395
-0.281103
-0.233644
-0.329454
-0.245652
-0.259434
-0.380502
-0.0119538
-0.0492416
-0.0377014
-0.105321
-0.0715887
-0.13792
-0.109849
-0.155169
-0.150585
-0.164869
-0.193109
-0.171949
-0.237411
-0.179093
-0.283743
-0.187313
-0.332446
-0.196948
-0.208007
-0.383874
-0.0121435
-0.0370981
-0.0382013
-0.0792627
-0.0724044
-0.103716
-0.110948
-0.116625
-0.151941
-0.123877
-0.194712
-0.129178
-0.239264
-0.13454
-0.28586
-0.140717
-0.334848
-0.147961
-0.156274
-0.386581
-0.0122864
-0.0248118
-0.0385774
-0.0529716
-0.0730177
-0.0692762
-0.111774
-0.0778684
-0.15296
-0.0826918
-0.195916
-0.0862216
-0.240657
-0.0897985
-0.287452
-0.093922
-0.336653
-0.0987598
-0.104311
-0.388616
-0.0123819
-0.0124298
-0.0388288
-0.0265248
-0.0734273
-0.0346776
-0.112326
-0.0389697
-0.15364
-0.0413781
-0.19672
-0.0431417
-0.241587
-0.0449308
-0.288515
-0.0469943
-0.337859
-0.0494157
-0.0521941
-0.389976
-0.0124298
1.91516e-10
-0.0389547
2.77868e-10
-0.0736323
2.84446e-10
-0.112602
2.05516e-10
-0.15398
1.23862e-10
-0.197122
3.29454e-11
-0.242053
-4.19343e-11
-0.289047
-9.99649e-11
-0.338463
-1.39814e-10
-1.59459e-10
-0.390657
-0.0124298
0.0124298
-0.0389547
0.0265248
-0.0736323
0.0346776
-0.112602
0.0389697
-0.15398
0.0413781
-0.197122
0.0431417
-0.242053
0.0449308
-0.289047
0.0469943
-0.338463
0.0494157
0.0521941
-0.390657
-0.0123819
0.0248118
-0.0388288
0.0529716
-0.0734273
0.0692762
-0.112326
0.0778684
-0.15364
0.0826918
-0.19672
0.0862216
-0.241587
0.0897985
-0.288515
0.093922
-0.337859
0.0987598
0.104311
-0.389976
-0.0122864
0.0370981
-0.0385774
0.0792627
-0.0730177
0.103716
-0.111774
0.116625
-0.15296
0.123877
-0.195916
0.129178
-0.240657
0.13454
-0.287452
0.140717
-0.336653
0.147961
0.156274
-0.388616
-0.0121435
0.0492416
-0.0382013
0.105321
-0.0724044
0.13792
-0.110948
0.155169
-0.151941
0.164869
-0.194712
0.171949
-0.239264
0.179093
-0.28586
0.187313
-0.334848
0.196948
0.208007
-0.386581
-0.0119538
0.0611954
-0.0377014
0.131068
-0.0715887
0.171807
-0.109849
0.193429
-0.150585
0.205605
-0.193109
0.214473
-0.237411
0.223395
-0.283743
0.233644
-0.332446
0.245652
0.259434
-0.383874
-0.0117182
0.0729136
-0.0370793
0.156429
-0.0705722
0.2053
-0.108478
0.231335
-0.148893
0.246021
-0.19111
0.25669
-0.2351
0.267385
-0.281103
0.279647
-0.329454
0.294003
0.310483
-0.380502
-0.0114376
0.0843513
-0.0363366
0.181328
-0.0693572
0.23832
-0.106838
0.268815
-0.146869
0.286052
-0.188719
0.298539
-0.232335
0.311002
-0.277947
0.325259
-0.325877
0.341933
0.36108
-0.376474
-0.0111132
0.0954644
-0.0354757
0.205691
-0.0679462
0.270791
-0.104931
0.305801
-0.144516
0.325636
-0.185938
0.339961
-0.229122
0.354186
-0.274279
0.370416
-0.321723
0.389377
0.411155
-0.371798
-0.0107462
0.106211
-0.034499
0.229443
-0.0663422
0.302634
-0.102762
0.34222
-0.141836
0.36471
-0.182772
0.380897
-0.225464
0.396879
-0.270107
0.415059
-0.317
0.436271
0.46064
-0.366485
-0.0103383
0.116549
-0.0334095
0.252515
-0.0645488
0.333773
-0.100333
0.378004
-0.138834
0.403212
-0.179225
0.421288
-0.221369
0.439022
-0.265438
0.459128
-0.311718
0.482551
0.509468
-0.360547
-0.00989121
0.12644
-0.0322104
0.274834
-0.0625699
0.364133
-0.0976483
0.413083
-0.135515
0.441078
-0.175303
0.461076
-0.216841
0.48056
-0.260279
0.502566
-0.305886
0.528159
0.557578
-0.353996
-0.00940674
0.135847
-0.0309054
0.296333
-0.0604099
0.393637
-0.0947131
0.447386
-0.131882
0.478247
-0.171011
0.500205
-0.211888
0.521437
-0.254639
0.545316
-0.299516
0.573035
0.604906
-0.346844
-0.00888705
0.144734
-0.0294987
0.316944
-0.0580738
0.422213
-0.0915321
0.480844
-0.127942
0.514657
-0.166356
0.538618
-0.206517
0.561599
-0.248527
0.587326
-0.292616
0.617124
0.651393
-0.339104
-0.0083344
0.153068
-0.0279946
0.336604
-0.0555669
0.449785
-0.0881112
0.513388
-0.123701
0.550247
-0.161342
0.57626
-0.200736
0.600993
-0.241952
0.628542
-0.285199
0.660371
0.696979
-0.330785
-0.00775125
0.16082
-0.026398
0.355251
-0.0528952
0.476282
-0.0844563
0.54495
-0.119164
0.584954
-0.155978
0.613074
-0.194551
0.639566
-0.234922
0.668913
-0.277273
0.702723
0.741601
-0.321895
-0.00714025
0.16796
-0.0247143
0.372825
-0.0500653
0.501633
-0.0805741
0.575458
-0.114338
0.618718
-0.150271
0.649007
-0.187971
0.677266
-0.227446
0.708388
-0.268848
0.744125
0.785188
-0.312435
-0.00650421
0.174464
-0.0229492
0.38927
-0.0470842
0.525768
-0.0764721
0.604846
-0.10923
0.651477
-0.144226
0.684003
-0.181004
0.714043
-0.219533
0.746917
-0.259932
0.784523
0.82766
-0.302404
-0.00584611
0.18031
-0.0211088
0.404533
-0.0439597
0.548619
-0.072158
0.633045
-0.103849
0.683168
-0.137854
0.718008
-0.173657
0.749846
-0.211192
0.784452
-0.250531
0.823862
0.868908
-0.291779
-0.00516909
0.185479
-0.0191998
0.418564
-0.0407001
0.570119
-0.0676406
0.659985
-0.098203
0.71373
-0.131162
0.750967
-0.165941
0.784626
-0.202433
0.820945
-0.240645
0.862073
0.908801
-0.280537
-0.00447647
0.189956
-0.0172293
0.431316
-0.0373145
0.590204
-0.0629294
0.6856
-0.0923009
0.743102
-0.12416
0.782826
-0.157868
0.818333
-0.193275
0.856352
-0.230296
0.899095
0.947271
-0.268766
-0.0037717
0.193728
-0.0152046
0.442749
-0.0338127
0.608812
-0.0580344
0.709822
-0.0861528
0.77122
-0.116859
0.813532
-0.149449
0.850923
-0.183744
0.890647
-0.220091
0.935442
0.986244
-0.259065
-0.00305841
0.196786
-0.0131338
0.452825
-0.0302053
0.625884
-0.0529669
0.732583
-0.0797698
0.798023
-0.109268
0.843031
-0.140695
0.882351
-0.173819
0.92377
-0.208929
0.970552
1.02368
-0.246367
-0.00234042
0.199126
-0.0110252
0.461509
-0.0265035
0.641362
-0.0477388
0.753818
-0.0731634
0.823448
-0.101399
0.871266
-0.131612
0.912564
-0.163504
0.955662
-0.197264
1.00431
1.05954
-0.233118
-0.00162176
0.200748
-0.00888749
0.468775
-0.0227194
0.655194
-0.0423631
0.773462
-0.0663466
0.847431
-0.0932632
0.898183
-0.12221
0.941511
-0.152816
0.986268
-0.185158
1.03665
1.09373
-0.219349
-0.000907216
0.201655
-0.0067297
0.474598
-0.0188656
0.66733
-0.036854
0.791451
-0.0593331
0.86991
-0.0848754
0.923725
-0.112505
0.96914
-0.141773
1.01554
-0.172649
1.06753
1.12624
-0.20516
-0.000206661
0.201862
-0.00456077
0.478952
-0.0149558
0.677725
-0.0312266
0.807721
-0.0521381
0.890822
-0.0762502
0.947837
-0.102512
0.995402
-0.130392
1.04342
-0.15976
1.0969
1.15706
-0.190582
0.00051195
0.20135
-0.00238769
0.481851
-0.011004
0.686341
-0.0254975
0.822215
-0.0447781
0.910102
-0.0674037
0.970463
-0.0922499
1.02025
-0.118695
1.06986
-0.146519
1.12472
1.18618
-0.175641
0.00120382
0.200146
-0.000194908
0.48325
-0.00702455
0.693171
-0.0196844
0.834875
-0.0372708
0.927689
-0.0583535
0.991545
-0.081736
1.04363
-0.106705
1.09483
-0.132954
1.15097
1.2136
-0.160369
0.00186501
0.198281
0.00189255
0.483223
-0.00303173
0.698095
-0.0138059
0.845649
-0.0296357
0.943519
-0.0491187
1.01103
-0.0709909
1.0655
-0.0944458
1.11829
-0.119094
1.17562
1.23929
-0.144791
0.00250661
0.195775
0.00398538
0.481744
0.000968294
0.701112
-0.00788272
0.8545
-0.0218937
0.957529
-0.0397199
1.02885
-0.0600359
1.08582
-0.081941
1.14019
-0.104965
1.19864
1.26326
-0.128934
0.00312444
0.19265
0.00604193
0.478826
0.00489873
0.702256
-0.00193319
0.861332
-0.0140668
0.969663
-0.0301792
1.04497
-0.0488937
1.10453
-0.069216
1.16051
-0.0905952
1.22002
1.28549
-0.112825
0.00371373
0.188936
0.00804726
0.474493
0.00880338
0.701499
0.00400885
0.866127
-0.00618004
0.979852
-0.0205203
1.05931
-0.0375882
1.1216
-0.0562964
1.17922
-0.0760122
1.23974
1.30597
-0.0964906
0.00427087
0.184666
0.00998886
0.468775
0.0126475
0.698841
0.00992869
0.868845
0.00174174
0.988039
-0.0107692
1.07182
-0.0261448
1.13698
-0.0432087
1.19628
-0.0612431
1.25777
1.32469
-0.0799581
0.00479261
0.179873
0.0118536
0.461714
0.0164102
0.694284
0.015802
0.869454
0.00967127
0.99417
-0.000963489
1.08245
-0.0145904
1.1506
-0.0299809
1.21167
-0.0463156
1.27411
1.34163
-0.0632563
0.00527608
0.174597
0.0136312
0.453359
0.020071
0.687844
0.0216003
0.867924
0.0175806
0.998189
0.0089029
1.09113
-0.00295597
1.16246
-0.0166439
1.22536
-0.0312572
1.28872
1.35679
-0.0464149
0.00571873
0.168878
0.0153117
0.443766
0.0236097
0.679546
0.0272958
0.864238
0.0254372
1.00005
0.0187653
1.0978
0.00874205
1.17249
-0.00325076
1.23736
-0.0160936
1.30156
1.37016
-0.0294655
0.00611843
0.16276
0.0168856
0.432999
0.0270062
0.669426
0.0328596
0.858385
0.0332083
0.999699
0.0285998
1.10241
0.0204627
1.18062
0.0102621
1.24756
-0.0008121
1.31264
1.38179
-0.0124466
0.00647342
0.156286
0.018344
0.421128
0.0302405
0.657529
0.0382622
0.850363
0.0408592
0.997102
0.0383716
1.1049
0.0321704
1.18682
0.0237777
1.25595
0.0143915
1.32202
1.39157
0.00461503
0.00678239
0.149504
0.019679
0.408231
0.0332932
0.643915
0.0434735
0.840183
0.0483536
0.992222
0.0480426
1.10521
0.0438285
1.19104
0.0372724
1.26251
0.0296676
1.32963
1.39949
0.0217449
0.00704446
0.142459
0.0208832
0.394393
0.0361457
0.628653
0.048463
0.827865
0.0556532
0.985032
0.0575725
1.10329
0.0553994
1.19321
0.0507179
1.26719
0.0449176
1.33543
1.4056
0.0388094
0.00725922
0.1352
0.0219507
0.379701
0.0387803
0.611823
0.0532003
0.813445
0.0627187
0.975514
0.0669185
1.09909
0.0668418
1.19329
0.0640747
1.26995
0.0600965
1.33941
1.40989
0.0558068
0.00742674
0.127773
0.0228766
0.364251
0.0411806
0.593519
0.0576552
0.796971
0.0695093
0.96366
0.0760355
1.09256
0.078111
1.19121
0.0773013
1.27076
0.0751684
1.34154
1.41235
0.0727041
0.00754753
0.120226
0.0236572
0.348142
0.0433318
0.573844
0.0617982
0.778504
0.0759835
0.949474
0.0848757
1.08367
0.0891592
1.18693
0.0903531
1.26957
0.0900916
1.3418
1.41299
0.0894585
0.00762257
0.112603
0.0242903
0.331474
0.0452209
0.552914
0.0656011
0.758124
0.0820993
0.932976
0.0933895
1.07238
0.0999354
1.18038
0.103182
1.26632
0.104821
1.34016
1.41178
0.106025
0.00765329
0.10495
0.0247752
0.314352
0.0468372
0.530852
0.0690373
0.735924
0.0878144
0.914199
0.101525
1.05867
0.110385
1.17152
0.115736
1.26097
0.119308
1.33659
1.40873
0.122358
0.00764148
0.0973086
0.0251125
0.296881
0.0481723
0.507792
0.0720821
0.712014
0.0930875
0.893194
0.109229
1.04253
0.120451
1.1603
0.12796
1.25346
0.133502
1.33105
1.40383
0.138408
0.00758933
0.0897193
0.0253043
0.279166
0.0492204
0.483876
0.0747138
0.686521
0.0978783
0.870029
0.116447
1.02396
0.130073
1.14668
0.139794
1.24374
0.147347
1.3235
1.39705
0.154123
0.0074993
0.08222
0.025354
0.261311
0.0499785
0.459251
0.0769138
0.659586
0.102148
0.844794
0.123125
1.00298
0.139187
1.13061
0.151175
1.23175
0.160782
1.31389
1.38838
0.16945
0.00737411
0.0748459
0.0252663
0.243419
0.0504464
0.434071
0.0786669
0.631365
0.105862
0.817599
0.129209
0.979638
0.14773
1.11209
0.162036
1.21745
0.173746
1.30218
1.3778
0.184331
0.00721665
0.0676292
0.0250472
0.225589
0.0506267
0.408492
0.0799621
0.60203
0.108987
0.788574
0.134644
0.95398
0.155633
1.0911
0.172307
1.20077
0.18617
1.28832
1.36526
0.198709
0.00702985
0.0605994
0.0247033
0.207915
0.0505246
0.38267
0.0807927
0.571762
0.111496
0.757871
0.139382
0.926094
0.162831
1.06766
0.181913
1.18169
0.197982
1.27225
1.35072
0.212523
0.00681669
0.0537827
0.024242
0.19049
0.0501479
0.356764
0.0811564
0.540753
0.113366
0.725661
0.143375
0.896085
0.169256
1.04177
0.190781
1.16017
0.209107
1.25392
1.33411
0.225712
0.00658002
0.0472026
0.0236714
0.173398
0.0495067
0.330929
0.0810555
0.509204
0.114579
0.692137
0.146581
0.864083
0.174844
1.01351
0.198834
1.13618
0.219465
1.23329
1.31536
0.238216
0.00632252
0.0408801
0.0229994
0.156722
0.0486126
0.305316
0.0804966
0.47732
0.115125
0.657509
0.148962
0.830246
0.179534
0.982939
0.205996
1.10971
0.228973
1.21031
1.29436
0.249979
0.0060466
0.0348335
0.0222341
0.140534
0.047479
0.280071
0.0794904
0.445309
0.114999
0.622
0.15049
0.794756
0.18327
0.950159
0.212192
1.08079
0.237547
1.18496
1.27095
0.260954
0.00575434
0.0290792
0.0213832
0.124905
0.0461198
0.255335
0.0780513
0.413377
0.114204
0.585847
0.151142
0.757818
0.186
0.915301
0.217349
1.04944
0.245098
1.15721
1.24493
0.271111
0.00544745
0.0236317
0.0204539
0.109899
0.0445497
0.231239
0.0761972
0.38173
0.112749
0.549295
0.150905
0.719662
0.187684
0.878522
0.2214
1.01573
0.251539
1.12707
1.21603
0.280447
0.00512722
0.0185045
0.0194526
0.0955733
0.0427834
0.207908
0.0739483
0.350565
0.110649
0.512595
0.149777
0.680534
0.188289
0.84001
0.224279
0.979737
0.256783
1.09457
1.1838
0.289013
0.00479455
0.01371
0.0183853
0.0819825
0.0408357
0.185458
0.0713275
0.320073
0.107926
0.475997
0.147764
0.640696
0.187796
0.799978
0.225927
0.941606
0.260768
1.05973
1.14763
0.296937
0.00444999
0.00925998
0.0172571
0.0691753
0.0387206
0.163994
0.0683593
0.290434
0.104609
0.439747
0.144884
0.600421
0.1862
0.758661
0.226289
0.901517
0.263393
1.02262
1.10673
0.304293
0.0040938
0.00516618
0.0160726
0.0571965
0.0364524
0.143614
0.0650698
0.261817
0.100732
0.404085
0.141167
0.559986
0.183516
0.716312
0.225363
0.85967
0.264396
0.983589
1.07122
0.299905
0.00372608
0.0014401
0.0148361
0.0460865
0.034045
0.124405
0.0614868
0.234375
0.0963329
0.369239
0.136654
0.519665
0.179778
0.673188
0.22318
0.816269
0.26481
0.941959
1.03322
0.302809
0.0033469
-0.0019068
0.0135519
0.0358816
0.0315128
0.106445
0.0576398
0.208248
0.0914574
0.335422
0.131396
0.479726
0.175033
0.629551
0.219813
0.771488
0.263919
0.897853
0.992252
0.304887
0.00295648
-0.00486328
0.0122247
0.0266134
0.028871
0.0897982
0.0535603
0.183559
0.0861546
0.302827
0.125453
0.440428
0.169332
0.585672
0.215286
0.725535
0.261604
0.851535
0.948276
0.305581
0.00255538
-0.00741866
0.0108602
0.0183085
0.0261364
0.074522
0.0492827
0.160413
0.0804791
0.271631
0.118895
0.402012
0.162738
0.541829
0.209628
0.678645
0.2579
0.803262
0.901392
0.304784
0.00214463
-0.00956329
0.00946537
0.0109878
0.0233281
0.0606593
0.044845
0.138896
0.0744924
0.241984
0.111804
0.3647
0.155338
0.498294
0.202906
0.631078
0.252876
0.753292
0.851766
0.302502
0.00172599
-0.0112893
0.0080487
0.00466504
0.0204679
0.0482401
0.0402895
0.119074
0.0682626
0.214011
0.104272
0.328691
0.14724
0.455326
0.195219
0.583099
0.246626
0.701886
0.799618
0.298774
0.00130198
-0.0125913
0.00662087
-0.000653842
0.0175811
0.0372799
0.0356637
0.100991
0.0618658
0.187808
0.096407
0.294149
0.138572
0.413161
0.186701
0.53497
0.239276
0.649311
0.745192
0.293702
0.000876084
-0.0134673
0.00519478
-0.00497254
0.0146968
0.0277779
0.0310202
0.0846679
0.0553859
0.163443
0.0883263
0.261209
0.129483
0.372005
0.177512
0.486942
0.23099
0.595833
0.688745
0.287436
0.000452887
-0.0139202
0.00378561
-0.00830526
0.0118478
0.0197157
0.0264174
0.0700984
0.0489146
0.140946
0.0801605
0.229963
0.12014
0.332025
0.167842
0.439239
0.221966
0.541709
0.630538
0.280173
4.11687e-05