/*--------------------------------*- C++ -*----------------------------------*\
  =========                 |
  \\      /  F ield         | OpenFOAM: The Open Source CFD Toolbox
   \\    /   O peration     | Website:  https://openfoam.org
    \\  /    A nd           | Version:  7
     \\/     M anipulation  |
\*---------------------------------------------------------------------------*/
FoamFile
{
    version     2.0;
    format      ascii;
    class       surfaceScalarField;
    location    "1";
    object      phi;
}
// * * * * * * * * * * * * * * * * * * * * * * * * * * * * * * * * * * * * * //

dimensions      [0 3 -1 0 0 0 0];

internalField   nonuniform List<scalar> 
21785
(
-1.37711e-13
1.44415e-13
-2.89107e-13
2.61854e-13
-3.97416e-13
2.09296e-13
-3.64898e-13
6.72573e-14
-1.49339e-13
-1.13055e-13
2.61341e-13
-3.01452e-13
8.6364e-13
-4.83313e-13
1.84281e-12
-6.62628e-13
2.94416e-12
-8.81339e-13
4.10149e-12
-1.07446e-12
5.43926e-12
-1.24096e-12
6.93424e-12
-1.38826e-12
8.5745e-12
-1.51663e-12
1.0348e-11
-1.62334e-12
1.22316e-11
-1.70998e-12
1.43904e-11
-1.80726e-12
1.66313e-11
-1.97128e-12
1.87712e-11
-2.07183e-12
2.09925e-11
-2.10907e-12
2.32935e-11
-2.14378e-12
2.56632e-11
-2.19576e-12
2.80699e-11
-2.25074e-12
3.04777e-11
-2.28335e-12
3.2863e-11
-2.27663e-12
3.55184e-11
-2.23377e-12
3.80381e-11
-2.24716e-12
4.041e-11
-2.24257e-12
4.27765e-11
-2.22786e-12
4.51048e-11
-2.19653e-12
4.73792e-11
-2.14737e-12
4.95835e-11
-2.07792e-12
5.16957e-11
-1.98291e-12
5.39922e-11
-1.86785e-12
5.61134e-11
-1.81894e-12
5.79848e-11
-1.75775e-12
5.97887e-11
-1.67974e-12
6.14963e-11
-1.58593e-12
6.30931e-11
-1.47851e-12
6.45654e-11
-1.35674e-12
6.58942e-11
-1.2156e-12
6.73096e-11
-1.05894e-12
6.8531e-11
-9.62129e-13
6.94801e-11
-8.60463e-13
7.03203e-11
-7.46636e-13
-6.21633e-13
7.10306e-11
-1.80018e-13
4.34138e-13
-3.18471e-13
6.03426e-13
-2.62681e-13
3.44372e-13
1.51319e-13
-1.57693e-13
1.01739e-12
-7.86454e-13
2.38224e-12
-1.47114e-12
4.26198e-12
-2.17198e-12
6.83953e-12
-2.88245e-12
9.88387e-12
-3.5772e-12
1.32278e-11
-4.23746e-12
1.70204e-11
-4.84195e-12
2.12338e-11
-5.39404e-12
2.58473e-11
-5.89175e-12
3.08371e-11
-6.33758e-12
3.61665e-11
-6.74934e-12
4.19772e-11
-7.21193e-12
4.80479e-11
-7.64403e-12
5.4121e-11
-7.99191e-12
6.03867e-11
-8.19729e-12
6.68458e-11
-8.37286e-12
7.34714e-11
-8.55081e-12
8.02031e-11
-8.71087e-12
8.69829e-11
-8.81851e-12
9.37834e-11
-8.85849e-12
1.00854e-10
-8.83844e-12
1.07854e-10
-8.80073e-12
1.14587e-10
-8.72801e-12
1.21245e-10
-8.63084e-12
1.2779e-10
-8.49159e-12
1.34195e-10
-8.30751e-12
1.40435e-10
-8.07806e-12
1.46494e-10
-7.80586e-12
1.52602e-10
-7.5079e-12
1.58455e-10
-7.20825e-12
1.63815e-10
-6.89157e-12
1.68915e-10
-6.5477e-12
1.73726e-10
-6.17083e-12
1.7823e-10
-5.76222e-12
1.82409e-10
-5.32322e-12
1.86255e-10
-4.85652e-12
1.89962e-10
-4.37912e-12
1.93297e-10
-3.913e-12
1.96052e-10
-3.44557e-12
1.98436e-10
-2.96409e-12
-2.46472e-12
2.00435e-10
-9.53946e-14
6.31418e-13
-1.03985e-14
7.1296e-13
4.34438e-13
8.15552e-14
1.43064e-12
-9.73569e-13
3.09581e-12
-2.27128e-12
5.49284e-12
-3.68954e-12
8.64828e-12
-5.15349e-12
1.27725e-11
-6.63165e-12
1.76152e-11
-8.06886e-12
2.30097e-11
-9.44833e-12
2.9086e-11
-1.07332e-11
3.58065e-11
-1.19188e-11
4.31358e-11
-1.29971e-11
5.10208e-11
-1.39756e-11
5.94026e-11
-1.48891e-11
6.85354e-11
-1.58792e-11
7.80262e-11
-1.67482e-11
8.77108e-11
-1.75226e-11
9.76429e-11
-1.80363e-11
1.07832e-10
-1.84403e-11
1.18277e-10
-1.87924e-11
1.28915e-10
-1.90905e-11
1.39662e-10
-1.93036e-11
1.50459e-10
-1.94142e-11
1.6151e-10
-1.94166e-11
1.72502e-10
-1.93374e-11
1.83167e-10
-1.91713e-11
1.93711e-10
-1.89373e-11
2.04083e-10
-1.86229e-11
2.14239e-10
-1.82273e-11
2.24144e-10
-1.77514e-11
2.33764e-10
-1.72002e-11
2.43311e-10
-1.65846e-11
2.52482e-10
-1.59188e-11
2.61001e-10
-1.51986e-11
2.69094e-10
-1.44226e-11
2.76726e-10
-1.35887e-11
2.83872e-10
-1.26997e-11
2.90509e-10
-1.17594e-11
2.9662e-10
-1.07748e-11
3.02387e-10
-9.75983e-12
3.07581e-10
-8.72617e-12
3.11965e-10
-7.67206e-12
3.15748e-10
-6.59092e-12
-5.48337e-12
3.18912e-10
5.24978e-14
6.80592e-13
4.86971e-13
4.75298e-13
1.46231e-12
-7.0777e-13
3.17457e-12
-2.5008e-12
5.74535e-12
-4.65896e-12
9.24034e-12
-7.01125e-12
1.36889e-11
-9.44357e-12
1.93407e-11
-1.1892e-11
2.59091e-11
-1.42803e-11
3.32572e-11
-1.65822e-11
4.14918e-11
-1.87498e-11
5.05622e-11
-2.07688e-11
6.04085e-11
-2.26254e-11
7.09287e-11
-2.43285e-11
8.20372e-11
-2.59157e-11
9.42421e-11
-2.75463e-11
1.06815e-10
-2.89341e-11
1.19857e-10
-3.02444e-11
1.33171e-10
-3.12045e-11
1.46762e-10
-3.19471e-11
1.60664e-10
-3.25535e-11
1.74839e-10
-3.30385e-11
1.89186e-10
-3.33829e-11
2.03614e-10
-3.35755e-11
2.18288e-10
-3.36053e-11
2.329e-10
-3.3476e-11
2.47133e-10
-3.32002e-11
2.61209e-10
-3.27869e-11
2.75061e-10
-3.22385e-11
2.88631e-10
-3.15593e-11
3.01867e-10
-3.07523e-11
3.14721e-10
-2.9823e-11
3.27391e-10
-2.87789e-11
3.39568e-10
-2.76301e-11
3.50952e-10
-2.6377e-11
3.61765e-10
-2.50222e-11
3.71962e-10
-2.35742e-11
3.81509e-10
-2.204e-11
3.90376e-10
-2.04262e-11
3.98535e-10
-1.87421e-11
4.06166e-10
-1.70003e-11
4.1303e-10
-1.52078e-11
4.18883e-10
-1.33694e-11
4.23927e-10
-1.14818e-11
-9.55515e-12
4.28142e-10
2.30982e-13
5.54457e-13
1.08896e-12
-1.78472e-13
2.68441e-12
-2.11006e-12
5.2014e-12
-4.82411e-12
8.7544e-12
-8.02261e-12
1.34026e-11
-1.1489e-11
1.91724e-11
-1.50692e-11
2.63468e-11
-1.86585e-11
3.46058e-11
-2.21699e-11
4.38432e-11
-2.55581e-11
5.41448e-11
-2.87812e-11
6.54454e-11
-3.18272e-11
7.76536e-11
-3.46786e-11
9.06092e-11
-3.73284e-11
1.04208e-10
-3.9769e-11
1.19291e-10
-4.20632e-11
1.3466e-10
-4.38935e-11
1.50831e-10
-4.57451e-11
1.67291e-10
-4.72766e-11
1.84054e-10
-4.85665e-11
2.0113e-10
-4.94998e-11
2.1854e-10
-5.02392e-11
2.36173e-10
-5.07525e-11
2.53922e-10
-5.10449e-11
2.71925e-10
-5.11096e-11
2.89839e-10
-5.08968e-11
3.07342e-10
-5.05059e-11
3.2465e-10
-4.98802e-11
3.41685e-10
-4.90458e-11
3.58376e-10
-4.80145e-11
3.74657e-10
-4.67934e-11
3.90467e-10
-4.53917e-11
4.05992e-10
-4.38178e-11
4.20915e-10
-4.20772e-11
4.34918e-10
-4.01768e-11
4.48216e-10
-3.81097e-11
4.60754e-10
-3.59039e-11
4.72491e-10
-3.35726e-11
4.83389e-10
-3.11247e-11
4.93411e-10
-2.85726e-11
5.02737e-10
-2.59294e-11
5.11117e-10
-2.31998e-11
5.18304e-10
-2.03971e-11
5.24491e-10
-1.75139e-11
-1.4576e-11
5.29654e-10
4.23013e-13
2.46079e-13
1.74811e-12
-1.29061e-12
4.01335e-12
-4.17855e-12
7.39042e-12
-8.00225e-12
1.19778e-11
-1.24173e-11
1.78247e-11
-1.71665e-11
2.4951e-11
-2.20566e-11
3.3651e-11
-2.69328e-11
4.35775e-11
-3.16967e-11
5.46634e-11
-3.63472e-11
6.69536e-11
-4.07691e-11
8.03823e-11
-4.50198e-11
9.48341e-11
-4.90781e-11
1.10112e-10
-5.28913e-11
1.26107e-10
-5.63491e-11
1.43863e-10
-5.92202e-11
1.61848e-10
-6.15239e-11
1.80894e-10
-6.37841e-11
2.00265e-10
-6.59961e-11
2.20042e-10
-6.78758e-11
2.40059e-10
-6.91649e-11
2.60475e-10
-7.02023e-11
2.81143e-10
-7.09214e-11
3.01949e-10
-7.13392e-11
3.2307e-10
-7.14898e-11
3.43977e-10
-7.13059e-11
3.64526e-10
-7.08461e-11
3.84822e-10
-6.99671e-11
4.04791e-10
-6.87993e-11
4.24355e-10
-6.73534e-11
4.4344e-10
-6.56401e-11
4.61972e-10
-6.36778e-11
4.80132e-10
-6.14793e-11
4.97567e-10
-5.9022e-11
5.13998e-10
-5.64029e-11
5.29581e-10
-5.34859e-11
5.44269e-10
-5.03887e-11
5.58016e-10
-4.71206e-11
5.70776e-10
-4.36899e-11
5.82507e-10
-4.01144e-11
5.93389e-10
-3.64093e-11
6.03142e-10
-3.25575e-11
6.11562e-10
-2.86524e-11
6.18789e-10
-2.45847e-11
-2.04569e-11
6.24812e-10
6.12188e-13
-2.33813e-13
2.44639e-12
-2.66682e-12
5.39578e-12
-6.72162e-12
9.65935e-12
-1.18517e-11
1.53117e-11
-1.76488e-11
2.2394e-11
-2.38236e-11
3.09231e-11
-3.01669e-11
4.11721e-11
-3.65257e-11
5.27263e-11
-4.28403e-11
6.56344e-11
-4.87616e-11
7.97796e-11
-5.44653e-11
9.51916e-11
-5.99323e-11
1.11785e-10
-6.5106e-11
1.29416e-10
-6.99353e-11
1.48048e-10
-7.4365e-11
1.68532e-10
-7.79207e-11
1.88812e-10
-8.21045e-11
2.10191e-10
-8.47773e-11
2.32247e-10
-8.74368e-11
2.55031e-10
-8.95654e-11
2.77795e-10
-9.1583e-11
3.01003e-10
-9.29901e-11
3.24496e-10
-9.39299e-11
3.48114e-10
-9.4449e-11
3.72107e-10
-9.46029e-11
3.95824e-10
-9.45455e-11
4.1931e-10
-9.37152e-11
4.42392e-10
-9.25095e-11
4.65095e-10
-9.09735e-11
4.8733e-10
-8.90721e-11
5.09012e-10
-8.68128e-11
5.3006e-10
-8.42205e-11
5.50686e-10
-8.13536e-11
5.70402e-10
-7.82392e-11
5.8916e-10
-7.45753e-11
6.06844e-10
-7.06791e-11
6.23518e-10
-6.65847e-11
6.39122e-10
-6.22618e-11
6.536e-10
-5.77214e-11
6.66904e-10
-5.29889e-11
6.79246e-10
-4.81163e-11
6.90223e-10
-4.31352e-11
6.99836e-10
-3.78057e-11
7.07998e-10
-3.23901e-11
-2.69264e-11
7.14802e-10
9.30076e-13
-5.41866e-13
3.16879e-12
-4.39032e-12
6.79964e-12
-9.96187e-12
1.1969e-11
-1.66225e-11
1.87105e-11
-2.39859e-11
2.7045e-11
-3.17467e-11
3.69717e-11
-3.96718e-11
4.86837e-11
-4.75698e-11
6.20838e-11
-5.53169e-11
7.67214e-11
-6.27714e-11
9.26903e-11
-7.00133e-11
1.10064e-10
-7.68993e-11
1.28788e-10
-8.34379e-11
1.48838e-10
-8.95878e-11
1.70044e-10
-9.52306e-11
1.91874e-10
-1.00053e-10
2.15664e-10
-1.04119e-10
2.39373e-10
-1.07862e-10
2.6389e-10
-1.1141e-10
2.88921e-10
-1.145e-10
3.14495e-10
-1.16931e-10
3.40462e-10
-1.18701e-10
3.6664e-10
-1.19892e-10
3.9291e-10
-1.20523e-10
4.1938e-10
-1.20593e-10
4.46146e-10
-1.20047e-10
4.72255e-10
-1.19058e-10
4.97912e-10
-1.17658e-10
5.23175e-10
-1.15729e-10
5.47914e-10
-1.13309e-10
5.72025e-10
-1.10424e-10
5.95401e-10
-1.07095e-10
6.18242e-10
-1.03337e-10
6.40405e-10
-9.91693e-11
6.61203e-10
-9.46328e-11
6.80819e-10
-8.9823e-11
6.99342e-10
-8.46424e-11
7.16676e-10
-7.91426e-11
7.32751e-10
-7.33565e-11
7.47497e-10
-6.73078e-11
7.61114e-10
-6.10094e-11
7.73486e-10
-5.45074e-11
7.84097e-10
-4.78097e-11
7.93102e-10
-4.10418e-11
-3.41123e-11
8.00621e-10
1.07286e-12
-1.37975e-12
3.79007e-12
-6.89515e-12
8.17543e-12
-1.41436e-11
1.42814e-11
-2.25282e-11
2.21355e-11
-3.16293e-11
3.17481e-11
-4.11264e-11
4.31015e-11
-5.07771e-11
5.63784e-11
-6.04012e-11
7.14975e-11
-6.97858e-11
8.7812e-11
-7.89684e-11
1.05631e-10
-8.77294e-11
1.24914e-10
-9.60136e-11
1.4566e-10
-1.03807e-10
1.67935e-10
-1.11107e-10
1.91678e-10
-1.17879e-10
2.16059e-10
-1.24081e-10
2.4199e-10
-1.29401e-10
2.67811e-10
-1.34255e-10
2.94668e-10
-1.38429e-10
3.2234e-10
-1.41974e-10
3.50555e-10
-1.44809e-10
3.7912e-10
-1.46958e-10
4.07888e-10
-1.48412e-10
4.3675e-10
-1.49165e-10
4.65864e-10
-1.49205e-10
4.95099e-10
-1.48534e-10
5.23633e-10
-1.47352e-10
5.51809e-10
-1.4556e-10
5.79519e-10
-1.43158e-10
6.06648e-10
-1.40169e-10
6.33078e-10
-1.36609e-10
6.58705e-10
-1.32495e-10
6.83712e-10
-1.27836e-10
7.07941e-10
-1.22645e-10
7.30628e-10
-1.17107e-10
7.52155e-10
-1.11117e-10
7.72444e-10
-1.04699e-10
7.91423e-10
-9.78935e-11
8.09021e-10
-9.07345e-11
8.2517e-10
-8.32492e-11
8.40033e-10
-7.54548e-11
8.53537e-10
-6.73708e-11
8.65034e-10
-5.91641e-11
8.74898e-10
-5.07504e-11
-4.21607e-11
8.83103e-10
1.17755e-12
-2.43567e-12
4.40267e-12
-9.8751e-12
9.53522e-12
-1.90523e-11
1.65915e-11
-2.93664e-11
2.55708e-11
-4.03877e-11
3.64593e-11
-5.17857e-11
4.92288e-11
-6.33106e-11
6.41214e-11
-7.47936e-11
8.0815e-11
-8.6019e-11
9.89601e-11
-9.69329e-11
1.18696e-10
-1.07344e-10
1.39942e-10
-1.1717e-10
1.62693e-10
-1.26369e-10
1.87026e-10
-1.34942e-10
2.12914e-10
-1.42911e-10
2.39636e-10
-1.50357e-10
2.67845e-10
-1.5695e-10
2.96075e-10
-1.628e-10
3.2534e-10
-1.67685e-10
3.55444e-10
-1.71782e-10
3.86116e-10
-1.7511e-10
4.17165e-10
-1.7766e-10
4.48442e-10
-1.79375e-10
4.79819e-10
-1.80255e-10
5.11461e-10
-1.80312e-10
5.42995e-10
-1.79568e-10
5.73933e-10
-1.78069e-10
6.04481e-10
-1.75849e-10
6.34521e-10
-1.72911e-10
6.63932e-10
-1.69282e-10
6.92589e-10
-1.6498e-10
7.20379e-10
-1.60019e-10
7.47489e-10
-1.54417e-10
7.73559e-10
-1.48214e-10
7.98141e-10
-1.41469e-10
8.21459e-10
-1.34202e-10
8.43427e-10
-1.26428e-10
8.63973e-10
-1.18195e-10
8.83021e-10
-1.09541e-10
9.00504e-10
-1.00501e-10
9.16592e-10
-9.11116e-11
9.31038e-10
-8.14035e-11
9.43473e-10
-7.1445e-11
9.5413e-10
-6.12505e-11
-5.08527e-11
9.6298e-10
1.32558e-12
-3.62689e-12
5.02223e-12
-1.33143e-11
1.08857e-11
-2.4676e-11
1.88868e-11
-3.71334e-11
2.89913e-11
-5.02644e-11
4.11522e-11
-6.37344e-11
5.53204e-11
-7.72846e-11
7.17925e-11
-9.07325e-11
9.0128e-11
-1.03876e-10
1.10098e-10
-1.1662e-10
1.31763e-10
-1.28797e-10
1.54997e-10
-1.403e-10
1.7976e-10
-1.51058e-10
2.06097e-10
-1.6105e-10
2.34007e-10
-1.70302e-10
2.63061e-10
-1.78936e-10
2.9348e-10
-1.86669e-10
3.2416e-10
-1.93503e-10
3.55806e-10
-1.99205e-10
3.88249e-10
-2.0395e-10
4.21278e-10
-2.07783e-10
4.54722e-10
-2.10699e-10
4.88458e-10
-2.12713e-10
5.2227e-10
-2.13688e-10
5.56326e-10
-2.13776e-10
5.90186e-10
-2.12882e-10
6.23426e-10
-2.11114e-10
6.56248e-10
-2.08448e-10
6.88517e-10
-2.04923e-10
7.20113e-10
-2.00588e-10
7.50903e-10
-1.95469e-10
7.80762e-10
-1.89586e-10
8.09861e-10
-1.82967e-10
8.37803e-10
-1.75629e-10
8.64185e-10
-1.67633e-10
8.89211e-10
-1.59002e-10
9.12782e-10
-1.4977e-10
9.34819e-10
-1.39995e-10
9.55245e-10
-1.29727e-10
9.73988e-10
-1.19011e-10
9.91223e-10
-1.07898e-10
1.00665e-09
-9.64011e-11
1.01997e-09
-8.45961e-11
1.03138e-09
-7.24982e-11
-6.01578e-11
1.04083e-09
1.48698e-12
-4.9755e-12
5.64167e-12
-1.72002e-11
1.22223e-11
-3.1e-11
2.11562e-11
-4.58152e-11
3.23796e-11
-6.12491e-11
4.58137e-11
-7.69669e-11
6.13839e-11
-9.2697e-11
7.94217e-11
-1.08226e-10
9.94109e-11
-1.23372e-10
1.21189e-10
-1.38033e-10
1.4478e-10
-1.52068e-10
1.70014e-10
-1.65356e-10
1.96807e-10
-1.77813e-10
2.25153e-10
-1.89368e-10
2.55051e-10
-1.99999e-10
2.86367e-10
-2.09798e-10
3.18988e-10
-2.18634e-10
3.52094e-10
-2.26466e-10
3.86088e-10
-2.33064e-10
4.20826e-10
-2.38497e-10
4.56167e-10
-2.42811e-10
4.91938e-10
-2.4606e-10
5.28111e-10
-2.48223e-10
5.64219e-10
-2.49275e-10
6.00672e-10
-2.49419e-10
6.36794e-10
-2.48376e-10
6.72305e-10
-2.46382e-10
7.07346e-10
-2.43282e-10
7.41772e-10
-2.39154e-10
7.7547e-10
-2.34063e-10
8.08311e-10
-2.28053e-10
8.40157e-10
-2.2116e-10
8.71188e-10
-2.13428e-10
9.00966e-10
-2.04852e-10
9.29098e-10
-1.95525e-10
9.55781e-10
-1.85456e-10
9.80897e-10
-1.74681e-10
1.00437e-09
-1.6327e-10
1.02611e-09
-1.51279e-10
1.04605e-09
-1.38762e-10
1.06439e-09
-1.25782e-10
1.08079e-09
-1.12349e-10
1.09496e-09
-9.85711e-11
1.10709e-09
-8.44529e-11
-7.00477e-11
1.11712e-09
1.65151e-12
-6.4823e-12
6.24458e-12
-2.15121e-11
1.35429e-11
-3.80277e-11
2.3393e-11
-5.54042e-11
3.57231e-11
-7.33337e-11
5.04323e-11
-9.14761e-11
6.74243e-11
-1.09543e-10
8.70243e-11
-1.27281e-10
1.08666e-10
-1.44508e-10
1.32213e-10
-1.61174e-10
1.57723e-10
-1.77207e-10
1.84947e-10
-1.92362e-10
2.13785e-10
-2.06639e-10
2.44173e-10
-2.19893e-10
2.76091e-10
-2.32007e-10
3.09537e-10
-2.42928e-10
3.44375e-10
-2.52493e-10
3.79875e-10
-2.61156e-10
4.16259e-10
-2.68668e-10
4.5335e-10
-2.74922e-10
4.90941e-10
-2.79857e-10
5.29003e-10
-2.83443e-10
5.67481e-10
-2.85684e-10
6.05762e-10
-2.86995e-10
6.44594e-10
-2.87128e-10
6.82862e-10
-2.86096e-10
7.20647e-10
-2.83806e-10
7.57931e-10
-2.80329e-10
7.94476e-10
-2.75566e-10
8.30224e-10
-2.69686e-10
8.65054e-10
-2.62719e-10
8.98827e-10
-2.54729e-10
9.31754e-10
-2.45771e-10
9.633e-10
-2.35818e-10
9.9313e-10
-2.25065e-10
1.02145e-09
-2.13535e-10
1.04808e-09
-2.01121e-10
1.07293e-09
-1.87992e-10
1.09595e-09
-1.7418e-10
1.11705e-09
-1.59744e-10
1.13648e-09
-1.4475e-10
1.15379e-09
-1.29209e-10
1.16878e-09
-1.13316e-10
1.18163e-09
-9.71035e-11
-8.04963e-11
1.19223e-09
1.81857e-12
-8.14327e-12
6.80858e-12
-2.62143e-11
1.48661e-11
-4.5448e-11
2.55915e-11
-6.55734e-11
3.90042e-11
-8.61824e-11
5.4988e-11
-1.06898e-10
7.34319e-11
-1.27446e-10
9.46248e-11
-1.47598e-10
1.17884e-10
-1.67252e-10
1.43129e-10
-1.86048e-10
1.70547e-10
-2.03928e-10
1.99685e-10
-2.20883e-10
2.30577e-10
-2.36885e-10
2.63118e-10
-2.51767e-10
2.97251e-10
-2.65426e-10
3.33077e-10
-2.77675e-10
3.69875e-10
-2.88718e-10
4.07564e-10
-2.98249e-10
4.46236e-10
-3.06693e-10
4.85652e-10
-3.13726e-10
5.25642e-10
-3.1927e-10
5.66082e-10
-3.23375e-10
6.06496e-10
-3.26148e-10
6.46957e-10
-3.27495e-10
6.87948e-10
-3.27414e-10
7.2854e-10
-3.26052e-10
7.68529e-10
-3.23312e-10
8.08105e-10
-3.19093e-10
8.46753e-10
-3.13565e-10
8.84553e-10
-3.06863e-10
9.21346e-10
-2.98934e-10
9.57003e-10
-2.89834e-10
9.91805e-10
-2.79644e-10
1.02502e-09
-2.68452e-10
1.05646e-09
-2.56182e-10
1.08645e-09
-2.42828e-10
1.11453e-09
-2.28611e-10
1.14077e-09
-2.13656e-10
1.16505e-09
-1.97943e-10
1.1873e-09
-1.81526e-10
1.2078e-09
-1.64478e-10
1.22595e-09
-1.4692e-10
1.2417e-09
-1.28792e-10
1.2553e-09
-1.10181e-10
-9.122e-11
1.26643e-09
1.99692e-12
-9.60803e-12
7.55697e-12
-3.08472e-11
1.62123e-11
-5.33321e-11
2.77668e-11
-7.65989e-11
4.22439e-11
-1.00119e-10
5.94808e-11
-1.23593e-10
7.93286e-11
-1.46756e-10
1.02004e-10
-1.69372e-10
1.27038e-10
-1.91338e-10
1.54123e-10
-2.12296e-10
1.83371e-10
-2.32261e-10
2.14396e-10
-2.5137e-10
2.47317e-10
-2.69322e-10
2.82015e-10
-2.86023e-10
3.18358e-10
-3.01305e-10
3.56249e-10
-3.14859e-10
3.95464e-10
-3.27112e-10
4.35184e-10
-3.37717e-10
4.76065e-10
-3.47067e-10
5.17815e-10
-3.54932e-10
5.60099e-10
-3.61213e-10
6.02692e-10
-3.65866e-10
6.45389e-10
-3.68902e-10
6.88115e-10
-3.70254e-10
7.3122e-10
-3.69824e-10
7.74025e-10
-3.68013e-10
8.16346e-10
-3.6449e-10
8.58068e-10
-3.59651e-10
8.98711e-10
-3.5364e-10
9.38515e-10
-3.46111e-10
9.77261e-10
-3.37141e-10
1.01477e-09
-3.26807e-10
1.05132e-09
-3.1517e-10
1.0863e-09
-3.02487e-10
1.11951e-09
-2.88468e-10
1.15103e-09
-2.73395e-10
1.18048e-09
-2.57539e-10
1.20804e-09
-2.4071e-10
1.23357e-09
-2.22992e-10
1.25694e-09
-2.04448e-10
1.27841e-09
-1.85115e-10
1.29753e-09
-1.65271e-10
1.31411e-09
-1.44708e-10
1.32837e-09
-1.23674e-10
-1.02435e-10
1.33996e-09
2.18971e-12
-1.14373e-11
8.17855e-12
-3.63007e-11
1.74078e-11
-6.23092e-11
2.98736e-11
-8.88031e-11
4.54283e-11
-1.15392e-10
6.39291e-11
-1.4177e-10
8.52149e-11
-1.67692e-10
1.09381e-10
-1.92961e-10
1.36228e-10
-2.17293e-10
1.65099e-10
-2.40683e-10
1.95969e-10
-2.62994e-10
2.28901e-10
-2.84044e-10
2.63841e-10
-3.03775e-10
3.00757e-10
-3.22143e-10
3.39502e-10
-3.39046e-10
3.79387e-10
-3.54209e-10
4.20946e-10
-3.67806e-10
4.62678e-10
-3.79559e-10
5.05695e-10
-3.89778e-10
5.49699e-10
-3.98389e-10
5.94294e-10
-4.05322e-10
6.39211e-10
-4.1048e-10
6.84287e-10
-4.13788e-10
7.29395e-10
-4.15188e-10
7.74528e-10
-4.14593e-10
8.19709e-10
-4.12228e-10
8.64046e-10
-4.08232e-10
9.07559e-10
-4.02873e-10
9.5035e-10
-3.95932e-10
9.92235e-10
-3.87418e-10
1.03298e-09
-3.77362e-10
1.07239e-09
-3.65804e-10
1.11058e-09
-3.52809e-10
1.14743e-09
-3.38423e-10
1.18225e-09
-3.22787e-10
1.21507e-09
-3.06031e-10
1.24599e-09
-2.8814e-10
1.27491e-09
-2.69216e-10
1.30172e-09
-2.49351e-10
1.32627e-09
-2.286e-10
1.34862e-09
-2.07008e-10
1.36877e-09
-1.84644e-10
1.38612e-09
-1.6168e-10
1.40082e-09
-1.38269e-10
-1.14404e-10
1.41297e-09
2.30106e-12
-1.35883e-11
8.64804e-12
-4.23348e-11
1.85834e-11
-7.19537e-11
3.19538e-11
-1.0189e-10
4.85933e-11
-1.31737e-10
6.83385e-11
-1.61196e-10
9.10228e-11
-1.90041e-10
1.16827e-10
-2.18128e-10
1.45278e-10
-2.45162e-10
1.75851e-10
-2.71071e-10
2.08621e-10
-2.95633e-10
2.43479e-10
-3.18732e-10
2.80386e-10
-3.40309e-10
3.19394e-10
-3.60359e-10
3.60405e-10
-3.7886e-10
4.02373e-10
-3.9572e-10
4.463e-10
-4.10875e-10
4.90129e-10
-4.23965e-10
5.35245e-10
-4.3505e-10
5.8143e-10
-4.44253e-10
6.28302e-10
-4.51595e-10
6.75582e-10
-4.5703e-10
7.23084e-10
-4.60485e-10
7.70644e-10
-4.61934e-10
8.18053e-10
-4.61422e-10
8.65305e-10
-4.59076e-10
9.11481e-10
-4.54604e-10
9.57039e-10
-4.48349e-10
1.00187e-09
-4.40345e-10
1.04576e-09
-4.30698e-10
1.08848e-09
-4.19434e-10
1.12979e-09
-4.06571e-10
1.16985e-09
-3.92235e-10
1.20834e-09
-3.76354e-10
1.24465e-09
-3.59031e-10
1.279e-09
-3.40268e-10
1.31133e-09
-3.20227e-10
1.34157e-09
-2.99062e-10
1.3696e-09
-2.76897e-10
1.3953e-09
-2.5381e-10
1.41871e-09
-2.29894e-10
1.4397e-09
-2.05138e-10
1.45771e-09
-1.79654e-10
1.47305e-09
-1.53538e-10
-1.26919e-10
1.48571e-09
2.4209e-12
-1.58339e-11
9.1603e-12
-4.87348e-11
1.97634e-11
-8.22408e-11
3.40236e-11
-1.15843e-10
5.17352e-11
-1.4915e-10
7.26958e-11
-1.8188e-10
9.67209e-11
-2.13815e-10
1.24118e-10
-2.4483e-10
1.54194e-10
-2.74627e-10
1.86594e-10
-3.03144e-10
2.21291e-10
-3.30111e-10
2.58099e-10
-3.55415e-10
2.9696e-10
-3.78975e-10
3.37958e-10
-4.00796e-10
3.81055e-10
-4.20921e-10
4.25194e-10
-4.39541e-10
4.7144e-10
-4.56286e-10
5.17547e-10
-4.70914e-10
5.64831e-10
-4.8294e-10
6.13163e-10
-4.92624e-10
6.62254e-10
-5.00111e-10
7.11858e-10
-5.05506e-10
7.61746e-10
-5.08866e-10
8.11659e-10
-5.10286e-10
8.61366e-10
-5.10059e-10
9.10847e-10
-5.07802e-10
9.59063e-10
-5.03144e-10
1.00664e-09
-4.96071e-10
1.05343e-09
-4.8698e-10
1.09924e-09
-4.76097e-10
1.14384e-09
-4.63502e-10
1.18696e-09
-4.49219e-10
1.2289e-09
-4.3343e-10
1.26908e-09
-4.15883e-10
1.30707e-09
-3.9682e-10
1.34297e-09
-3.76036e-10
1.37668e-09
-3.53806e-10
1.40817e-09
-3.30314e-10
1.43735e-09
-3.05719e-10
1.46411e-09
-2.80137e-10
1.48857e-09
-2.53723e-10
1.51045e-09
-2.26384e-10
1.52923e-09
-1.98296e-10
1.54522e-09
-1.69415e-10
-1.39957e-10
1.55836e-09
2.55576e-12
-1.82076e-11
9.69032e-12
-5.55134e-11
2.09406e-11
-9.31496e-11
3.60772e-11
-1.30649e-10
5.48467e-11
-1.67625e-10
7.70049e-11
-2.03826e-10
1.02343e-10
-2.39028e-10
1.31312e-10
-2.73067e-10
1.63009e-10
-3.05696e-10
1.97266e-10
-3.3688e-10
2.33929e-10
-3.66397e-10
2.72744e-10
-3.94118e-10
3.13578e-10
-4.19915e-10
3.56466e-10
-4.43738e-10
4.01363e-10
-4.65577e-10
4.47528e-10
-4.85748e-10
4.96092e-10
-5.02836e-10
5.44922e-10
-5.18589e-10
5.94764e-10
-5.31781e-10
6.45432e-10
-5.42566e-10
6.96722e-10
-5.50931e-10
7.48449e-10
-5.5693e-10
8.0034e-10
-5.60618e-10
8.52076e-10
-5.62049e-10
9.04052e-10
-5.61737e-10
9.56013e-10
-5.58232e-10
1.00669e-09
-5.53546e-10
1.05642e-09
-5.45823e-10
1.10516e-09
-5.35813e-10
1.15281e-09
-5.23803e-10
1.19918e-09
-5.09873e-10
1.24399e-09
-4.94056e-10
1.28785e-09
-4.76536e-10
1.3297e-09
-4.57045e-10
1.3695e-09
-4.36042e-10
1.40702e-09
-4.13181e-10
1.44213e-09
-3.88846e-10
1.47485e-09
-3.63093e-10
1.50513e-09
-3.36013e-10
1.53285e-09
-3.07766e-10
1.55835e-09
-2.78572e-10
1.58113e-09
-2.48518e-10
1.60074e-09
-2.17534e-10
1.6174e-09
-1.85826e-10
-1.53456e-10
1.63103e-09
2.70225e-12
-2.07221e-11
1.02173e-11
-6.26618e-11
2.20846e-11
-1.0466e-10
3.81016e-11
-1.46324e-10
5.79133e-11
-1.87161e-10
8.12684e-11
-2.27031e-10
1.0794e-10
-2.65676e-10
1.38459e-10
-3.02841e-10
1.71766e-10
-3.38355e-10
2.07824e-10
-3.72248e-10
2.46424e-10
-4.04467e-10
2.873e-10
-4.34897e-10
3.30146e-10
-4.63202e-10
3.74864e-10
-4.89322e-10
4.21494e-10
-5.13013e-10
4.70614e-10
-5.34105e-10
5.20777e-10
-5.52602e-10
5.72073e-10
-5.69214e-10
6.24423e-10
-5.83469e-10
6.77509e-10
-5.95019e-10
7.31095e-10
-6.03831e-10
7.84964e-10
-6.10019e-10
8.38794e-10
-6.13732e-10
8.92371e-10
-6.15104e-10
9.47431e-10
-6.14508e-10
1.00054e-09
-6.11161e-10
1.05401e-09
-6.05567e-10
1.10621e-09
-5.97306e-10
1.15704e-09
-5.8679e-10
1.20652e-09
-5.7383e-10
1.25463e-09
-5.5868e-10
1.3011e-09
-5.41253e-10
1.34689e-09
-5.2164e-10
1.39034e-09
-4.99883e-10
1.43193e-09
-4.76464e-10
1.47114e-09
-4.51661e-10
1.5077e-09
-4.25253e-10
1.5417e-09
-3.97402e-10
1.57309e-09
-3.67887e-10
1.60179e-09
-3.36852e-10
1.62818e-09
-3.0453e-10
1.65192e-09
-2.71707e-10
1.67229e-09
-2.37534e-10
1.68966e-09
-2.02742e-10
-1.67349e-10
1.70379e-09
2.86597e-12
-2.33913e-11
1.07248e-11
-7.01538e-11
2.3143e-11
-1.16722e-10
4.00914e-11
-1.62402e-10
6.0897e-11
-2.072e-10
8.54705e-11
-2.50855e-10
1.13561e-10
-2.93085e-10
1.45649e-10
-3.33632e-10
1.80503e-10
-3.72542e-10
2.18186e-10
-4.09234e-10
2.58488e-10
-4.44183e-10
3.01382e-10
-4.76835e-10
3.46306e-10
-5.07219e-10
3.93327e-10
-5.35368e-10
4.42348e-10
-5.61017e-10
4.93763e-10
-5.83557e-10
5.45665e-10
-6.04312e-10
5.99151e-10
-6.21461e-10
6.53977e-10
-6.36831e-10
7.09577e-10
-6.4963e-10
7.6556e-10
-6.59634e-10
8.2162e-10
-6.66777e-10
8.77372e-10
-6.71028e-10
9.32649e-10
-6.7234e-10
9.89948e-10
-6.70527e-10
1.04535e-09
-6.66126e-10
1.10128e-09
-6.5906e-10
1.15565e-09
-6.50226e-10
1.20865e-09
-6.38924e-10
1.26013e-09
-6.24563e-10
1.3103e-09
-6.07953e-10
1.35875e-09
-5.8894e-10
1.40646e-09
-5.67468e-10
1.45141e-09
-5.44316e-10
1.49443e-09
-5.18214e-10
1.53511e-09
-4.91355e-10
1.57304e-09
-4.62189e-10
1.6086e-09
-4.31757e-10
1.64142e-09
-3.99747e-10
1.67129e-09
-3.66155e-10
1.69817e-09
-3.31122e-10
1.72315e-09
-2.94866e-10
1.74415e-09
-2.58035e-10
1.76205e-09
-2.20107e-10
-1.81608e-10
1.77669e-09
3.06561e-12
-2.57607e-11
1.12173e-11
-7.75655e-11
2.44705e-11
-1.28722e-10
4.21344e-11
-1.79024e-10
6.38718e-11
-2.2824e-10
8.96342e-11
-2.75924e-10
1.19093e-10
-3.21884e-10
1.52541e-10
-3.65863e-10
1.89267e-10
-4.08034e-10
2.2836e-10
-4.47838e-10
2.70624e-10
-4.85221e-10
3.15514e-10
-5.20466e-10
3.62434e-10
-5.53724e-10
4.11779e-10
-5.84386e-10
4.63299e-10
-6.12167e-10
5.16152e-10
-6.36285e-10
5.71253e-10
-6.5783e-10
6.26254e-10
-6.76259e-10
6.82932e-10
-6.92644e-10
7.40814e-10
-7.06448e-10
7.99244e-10
-7.17345e-10
8.57807e-10
-7.25214e-10
9.16104e-10
-7.29903e-10
9.73995e-10
-7.31211e-10
1.03352e-09
-7.2831e-10
1.09104e-09
-7.24218e-10
1.14826e-09
-7.15956e-10
1.20468e-09
-7.05529e-10
1.26041e-09
-6.92533e-10
1.31385e-09
-6.77689e-10
1.36609e-09
-6.59698e-10
1.41664e-09
-6.38879e-10
1.46599e-09
-6.15356e-10
1.5132e-09
-5.9043e-10
1.55679e-09
-5.62546e-10
1.59953e-09
-5.31766e-10
1.63869e-09
-5.00626e-10
1.67552e-09
-4.67818e-10
1.70975e-09
-4.33276e-10
1.74094e-09
-3.96918e-10
1.76894e-09
-3.5891e-10
1.79432e-09
-3.19377e-10
1.81633e-09
-2.79227e-10
1.83471e-09
-2.38006e-10
-1.96139e-10
1.84979e-09
3.18435e-12
-2.84719e-11
1.18784e-11
-8.55293e-11
2.56686e-11
-1.41839e-10
4.3985e-11
-1.9701e-10
6.67623e-11
-2.50593e-10
9.37591e-11
-3.02364e-10
1.24675e-10
-3.5217e-10
1.59426e-10
-3.99913e-10
1.97928e-10
-4.45236e-10
2.38916e-10
-4.88203e-10
2.82742e-10
-5.28578e-10
3.29044e-10
-5.66449e-10
3.7804e-10
-6.01699e-10
4.29887e-10
-6.34293e-10
4.84357e-10
-6.64102e-10
5.39096e-10
-6.90571e-10
5.96645e-10
-7.13956e-10
6.5322e-10
-7.33961e-10
7.11733e-10
-7.51276e-10
7.71762e-10
-7.65785e-10
8.32567e-10
-7.76952e-10
8.93727e-10
-7.84894e-10
9.5508e-10
-7.89602e-10
1.01621e-09
-7.90957e-10
1.07632e-09
-7.88574e-10
1.13722e-09
-7.83118e-10
1.19636e-09
-7.74142e-10
1.25444e-09
-7.62946e-10
1.31133e-09
-7.49078e-10
1.36736e-09
-7.32193e-10
1.42217e-09
-7.1225e-10
1.47505e-09
-6.89614e-10
1.52559e-09
-6.65174e-10
1.5749e-09
-6.38125e-10
1.62092e-09
-6.08511e-10
1.66369e-09
-5.75784e-10
1.70413e-09
-5.41193e-10
1.74251e-09
-5.05045e-10
1.77829e-09
-4.67455e-10
1.81093e-09
-4.2825e-10
1.84017e-09
-3.87386e-10
1.866e-09
-3.44879e-10
1.88889e-09
-3.01132e-10
1.90782e-09
-2.56448e-10
-2.11154e-10
1.92341e-09
3.28373e-12
-3.15592e-11
1.23763e-11
-9.42211e-11
2.66954e-11
-1.55792e-10
4.58857e-11
-2.15831e-10
6.96937e-11
-2.73986e-10
9.78547e-11
-3.30021e-10
1.30085e-10
-3.83833e-10
1.66527e-10
-4.3552e-10
2.06568e-10
-4.84544e-10
2.49333e-10
-5.30991e-10
2.94884e-10
-5.74348e-10
3.43038e-10
-6.14684e-10
3.93904e-10
-6.52019e-10
4.47826e-10
-6.86489e-10
5.04745e-10
-7.18183e-10
5.61601e-10
-7.47038e-10
6.2171e-10
-7.72643e-10
6.80239e-10
-7.94643e-10
7.40703e-10
-8.13054e-10
8.02844e-10
-8.27782e-10
8.65948e-10
-8.38708e-10
9.29585e-10
-8.45923e-10
9.9367e-10
-8.49975e-10
1.05781e-09
-8.51122e-10
1.12063e-09
-8.49961e-10
1.18367e-09
-8.45488e-10
1.24422e-09
-8.36929e-10
1.30407e-09
-8.24267e-10
1.36327e-09
-8.08257e-10
1.42154e-09
-7.89024e-10
1.47825e-09
-7.66861e-10
1.53265e-09
-7.42231e-10
1.58576e-09
-7.1704e-10
1.6365e-09
-6.88519e-10
1.6846e-09
-6.57683e-10
1.72904e-09
-6.22241e-10
1.77065e-09
-5.84134e-10
1.81006e-09
-5.44387e-10
1.84703e-09
-5.03368e-10
1.88098e-09
-4.60934e-10
1.91153e-09
-4.16909e-10
1.93836e-09
-3.7127e-10
1.96199e-09
-3.24248e-10
1.98136e-09
-2.76081e-10
-2.27112e-10
1.99737e-09
3.38874e-12
-3.47194e-11
1.28546e-11
-1.03235e-10
2.77864e-11
-1.70286e-10
4.78388e-11
-2.35458e-10
7.26744e-11
-2.98424e-10
1.01928e-10
-3.58951e-10
1.35289e-10
-4.16958e-10
1.73393e-10
-4.72622e-10
2.1496e-10
-5.25361e-10
2.5973e-10
-5.75363e-10
3.07288e-10
-6.21924e-10
3.57364e-10
-6.65056e-10
4.10045e-10
-7.04783e-10
4.65748e-10
-7.41296e-10
5.24595e-10
-7.74856e-10
5.83761e-10
-8.05994e-10
6.4623e-10
-8.33659e-10
7.07179e-10
-8.58004e-10
7.70057e-10
-8.77784e-10
8.35071e-10
-8.91807e-10
9.00711e-10
-9.03739e-10
9.66423e-10
-9.11665e-10
1.03222e-09
-9.16006e-10
1.09772e-09
-9.16948e-10
1.16288e-09
-9.15869e-10
1.22905e-09
-9.08979e-10
1.29266e-09
-9.01201e-10
1.35499e-09
-8.87507e-10
1.41638e-09
-8.69789e-10
1.47657e-09
-8.48593e-10
1.5345e-09
-8.24402e-10
1.58929e-09
-7.97784e-10
1.6455e-09
-7.71065e-10
1.69736e-09
-7.40072e-10
1.74888e-09
-7.0772e-10
1.79558e-09
-6.69968e-10
1.83834e-09
-6.29016e-10
1.87851e-09
-5.85905e-10
1.91636e-09
-5.41277e-10
1.95142e-09
-4.95213e-10
1.98317e-09
-4.47623e-10
2.01104e-09
-3.98545e-10
2.03556e-09
-3.48001e-10
2.05552e-09
-2.96255e-10
-2.4349e-10
2.07197e-09
3.50904e-12
-3.79912e-11
1.33483e-11
-1.1259e-10
2.88996e-11
-1.85334e-10
4.98048e-11
-2.55876e-10
7.56674e-11
-3.23942e-10
1.05986e-10
-3.89241e-10
1.40397e-10
-4.5167e-10
1.80127e-10
-5.11287e-10
2.23152e-10
-5.67684e-10
2.70011e-10
-6.21146e-10
3.19753e-10
-6.71094e-10
3.71924e-10
-7.17406e-10
4.26486e-10
-7.60137e-10
4.83743e-10
-7.99309e-10
5.439e-10
-8.34991e-10
6.05058e-10
-8.6777e-10
6.69549e-10
-8.94945e-10
7.34022e-10
-9.20108e-10
8.01564e-10
-9.40823e-10
8.67292e-10
-9.58727e-10
9.3533e-10
-9.70453e-10
1.00328e-09
-9.78167e-10
1.0706e-09
-9.82004e-10
1.13737e-09
-9.82566e-10
1.20709e-09
-9.81277e-10
1.27286e-09
-9.75909e-10
1.34066e-09
-9.66881e-10
1.4065e-09
-9.52385e-10
1.47036e-09
-9.33667e-10
1.53235e-09
-9.11553e-10
1.59105e-09
-8.86425e-10
1.64553e-09
-8.58321e-10
1.70531e-09
-8.28324e-10
1.75762e-09
-7.91833e-10
1.8131e-09
-7.56323e-10
1.86269e-09
-7.16871e-10
1.90702e-09
-6.74193e-10
1.94807e-09
-6.28605e-10
1.9867e-09
-5.80771e-10
2.02263e-09
-5.30953e-10
2.05536e-09
-4.79567e-10
2.0843e-09
-4.26791e-10
2.10965e-09
-3.72439e-10
2.13031e-09
-3.16971e-10
-2.60308e-10
2.14725e-09
3.65388e-12
-4.14055e-11
1.3856e-11
-1.22306e-10
2.99829e-11
-2.00957e-10
5.16885e-11
-2.77129e-10
7.8594e-11
-3.50599e-10
1.10016e-10
-4.20918e-10
1.4556e-10
-4.87973e-10
1.86835e-10
-5.515e-10
2.3131e-10
-6.11493e-10
2.80116e-10
-6.68126e-10
3.32006e-10
-7.2151e-10
3.86348e-10
-7.71523e-10
4.42952e-10