/*--------------------------------*- C++ -*----------------------------------*\
  =========                 |
  \\      /  F ield         | OpenFOAM: The Open Source CFD Toolbox
   \\    /   O peration     | Website:  https://openfoam.org
    \\  /    A nd           | Version:  7
     \\/     M anipulation  |
\*---------------------------------------------------------------------------*/
FoamFile
{
    version     2.0;
    format      ascii;
    class       volVectorField;
    location    "1";
    object      U;
}
// * * * * * * * * * * * * * * * * * * * * * * * * * * * * * * * * * * * * * //

dimensions      [0 1 -1 0 0 0 0];

internalField   nonuniform List<vector> 
11050
(
(-3.5091e-11 3.48943e-11 0)
(-1.11338e-10 6.70188e-11 0)
(-1.83056e-10 6.20784e-11 0)
(-2.08384e-10 3.8689e-11 0)
(-1.50047e-10 8.79968e-12 0)
(3.20565e-12 -2.13538e-11 0)
(2.5505e-10 -4.90005e-11 0)
(6.52696e-10 -7.65272e-11 0)
(1.17838e-09 -1.14647e-10 0)
(1.74574e-09 -1.45843e-10 0)
(2.36729e-09 -1.70618e-10 0)
(3.07511e-09 -1.9192e-10 0)
(3.8599e-09 -2.10403e-10 0)
(4.7114e-09 -2.25115e-10 0)
(5.62773e-09 -2.35533e-10 0)
(6.64368e-09 -2.47595e-10 0)
(7.75142e-09 -2.76145e-10 0)
(8.84693e-09 -2.87079e-10 0)
(9.92901e-09 -2.87996e-10 0)
(1.10608e-08 -2.95087e-10 0)
(1.22347e-08 -3.09389e-10 0)
(1.34334e-08 -3.22994e-10 0)
(1.46351e-08 -3.28129e-10 0)
(1.58291e-08 -3.21914e-10 0)
(1.70912e-08 -3.08719e-10 0)
(1.83927e-08 -3.12071e-10 0)
(1.96204e-08 -3.14787e-10 0)
(2.08032e-08 -3.15571e-10 0)
(2.19758e-08 -3.12209e-10 0)
(2.3128e-08 -3.04412e-10 0)
(2.42456e-08 -2.91665e-10 0)
(2.53226e-08 -2.72825e-10 0)
(2.64281e-08 -2.5101e-10 0)
(2.75401e-08 -2.47798e-10 0)
(2.85416e-08 -2.43408e-10 0)
(2.94569e-08 -2.3492e-10 0)
(3.03336e-08 -2.22457e-10 0)
(3.11613e-08 -2.06639e-10 0)
(3.19266e-08 -1.87165e-10 0)
(3.26247e-08 -1.62655e-10 0)
(3.33134e-08 -1.35497e-10 0)
(3.39788e-08 -1.2489e-10 0)
(3.4524e-08 -1.14471e-10 0)
(3.49676e-08 -1.00917e-10 0)
(3.53539e-08 -8.43204e-11 0)
(-5.00133e-11 1.46195e-10 0)
(-1.42207e-10 2.29479e-10 0)
(-1.79481e-10 1.70826e-10 0)
(-7.67186e-11 3.51058e-11 0)
(2.34723e-10 -1.36941e-10 0)
(7.85869e-10 -3.21742e-10 0)
(1.59189e-09 -5.07115e-10 0)
(2.71024e-09 -6.94341e-10 0)
(4.12763e-09 -8.8905e-10 0)
(5.73009e-09 -1.06892e-09 0)
(7.51165e-09 -1.22893e-09 0)
(9.51295e-09 -1.3734e-09 0)
(1.17225e-08 -1.50263e-09 0)
(1.41228e-08 -1.61603e-09 0)
(1.6704e-08 -1.71681e-09 0)
(1.94973e-08 -1.83076e-09 0)
(2.24876e-08 -1.95371e-09 0)
(2.55305e-08 -2.04194e-09 0)
(2.86011e-08 -2.08645e-09 0)
(3.17805e-08 -2.13104e-09 0)
(3.50624e-08 -2.18505e-09 0)
(3.84126e-08 -2.23559e-09 0)
(4.17912e-08 -2.26574e-09 0)
(4.51789e-08 -2.26811e-09 0)
(4.86523e-08 -2.2484e-09 0)
(5.21878e-08 -2.24438e-09 0)
(5.56286e-08 -2.23085e-09 0)
(5.89735e-08 -2.21082e-09 0)
(6.2274e-08 -2.17717e-09 0)
(6.55152e-08 -2.12864e-09 0)
(6.86751e-08 -2.06448e-09 0)
(7.17441e-08 -1.98417e-09 0)
(7.47938e-08 -1.89484e-09 0)
(7.78024e-08 -1.82669e-09 0)
(8.06107e-08 -1.75359e-09 0)
(8.322e-08 -1.67028e-09 0)
(8.56964e-08 -1.5753e-09 0)
(8.80282e-08 -1.46946e-09 0)
(9.01972e-08 -1.35272e-09 0)
(9.21976e-08 -1.22434e-09 0)
(9.40917e-08 -1.09063e-09 0)
(9.58675e-08 -9.78517e-10 0)
(9.73934e-08 -8.6647e-10 0)
(9.86716e-08 -7.48072e-10 0)
(9.97651e-08 -6.22301e-10 0)
(-3.66598e-11 2.77071e-10 0)
(-6.24835e-11 3.61603e-10 0)
(4.85648e-11 1.61932e-10 0)
(3.91048e-10 -2.02739e-10 0)
(1.04542e-09 -6.57126e-10 0)
(2.05312e-09 -1.15363e-09 0)
(3.43388e-09 -1.66445e-09 0)
(5.2555e-09 -2.18121e-09 0)
(7.51102e-09 -2.68489e-09 0)
(1.00792e-08 -3.16498e-09 0)
(1.29453e-08 -3.60807e-09 0)
(1.61449e-08 -4.01495e-09 0)
(1.9663e-08 -4.38342e-09 0)
(2.34717e-08 -4.71565e-09 0)
(2.75379e-08 -5.02418e-09 0)
(3.19122e-08 -5.36592e-09 0)
(3.65969e-08 -5.67319e-09 0)
(4.14195e-08 -5.93111e-09 0)
(4.63095e-08 -6.09065e-09 0)
(5.13282e-08 -6.22307e-09 0)
(5.64956e-08 -6.34922e-09 0)
(6.17816e-08 -6.46079e-09 0)
(6.71336e-08 -6.53878e-09 0)
(7.25161e-08 -6.57427e-09 0)
(7.79869e-08 -6.56762e-09 0)
(8.35188e-08 -6.53949e-09 0)
(8.89413e-08 -6.48316e-09 0)
(9.42409e-08 -6.40694e-09 0)
(9.9472e-08 -6.302e-09 0)
(1.0461e-07 -6.16689e-09 0)
(1.09626e-07 -6.00169e-09 0)
(1.14502e-07 -5.80849e-09 0)
(1.19303e-07 -5.59403e-09 0)
(1.24005e-07 -5.36992e-09 0)
(1.28435e-07 -5.12922e-09 0)
(1.32582e-07 -4.86958e-09 0)
(1.36513e-07 -4.58848e-09 0)
(1.40212e-07 -4.28654e-09 0)
(1.43656e-07 -3.96503e-09 0)
(1.46838e-07 -3.62636e-09 0)
(1.49814e-07 -3.27795e-09 0)
(1.52572e-07 -2.93006e-09 0)
(1.54972e-07 -2.5772e-09 0)
(1.57007e-07 -2.21501e-09 0)
(1.58741e-07 -1.84223e-09 0)
(-1.06954e-11 3.45495e-10 0)
(7.54313e-11 3.43436e-10 0)
(4.05541e-10 -8.54588e-11 0)
(1.06004e-09 -7.74649e-10 0)
(2.11938e-09 -1.61538e-09 0)
(3.62818e-09 -2.5342e-09 0)
(5.60535e-09 -3.48406e-09 0)
(8.12906e-09 -4.44216e-09 0)
(1.11976e-08 -5.37555e-09 0)
(1.46881e-08 -6.27314e-09 0)
(1.85837e-08 -7.11288e-09 0)
(2.29119e-08 -7.89002e-09 0)
(2.76514e-08 -8.59884e-09 0)
(3.27584e-08 -9.2442e-09 0)
(3.81592e-08 -9.84767e-09 0)
(4.3958e-08 -1.04933e-08 0)
(5.01856e-08 -1.1057e-08 0)
(5.66508e-08 -1.15684e-08 0)
(6.32342e-08 -1.19182e-08 0)
(6.99363e-08 -1.21913e-08 0)
(7.68125e-08 -1.2418e-08 0)
(8.38485e-08 -1.26071e-08 0)
(9.09889e-08 -1.27446e-08 0)
(9.81842e-08 -1.28202e-08 0)
(1.05473e-07 -1.28274e-08 0)
(1.12818e-07 -1.27727e-08 0)
(1.20037e-07 -1.26635e-08 0)
(1.27112e-07 -1.25064e-08 0)
(1.34098e-07 -1.22979e-08 0)
(1.40962e-07 -1.20382e-08 0)
(1.47666e-07 -1.17281e-08 0)
(1.54185e-07 -1.13699e-08 0)
(1.60577e-07 -1.0968e-08 0)
(1.66813e-07 -1.0528e-08 0)
(1.72712e-07 -1.005e-08 0)
(1.78257e-07 -9.53477e-09 0)
(1.8351e-07 -8.98319e-09 0)
(1.88451e-07 -8.3973e-09 0)
(1.93055e-07 -7.77963e-09 0)
(1.97306e-07 -7.13426e-09 0)
(2.01261e-07 -6.46767e-09 0)
(2.04904e-07 -5.78391e-09 0)
(2.0809e-07 -5.08444e-09 0)
(2.10808e-07 -4.36695e-09 0)
(2.1312e-07 -3.63365e-09 0)
(2.08456e-11 3.27868e-10 0)
(2.43759e-10 1.24076e-10 0)
(8.36005e-10 -6.28636e-10 0)
(1.84924e-09 -1.73198e-09 0)
(3.35619e-09 -3.04879e-09 0)
(5.39986e-09 -4.48145e-09 0)
(7.99506e-09 -5.96282e-09 0)
(1.12275e-08 -7.45162e-09 0)
(1.50981e-08 -8.90733e-09 0)
(1.94848e-08 -1.03141e-08 0)
(2.43714e-08 -1.16416e-08 0)
(2.97766e-08 -1.28818e-08 0)
(3.56703e-08 -1.40263e-08 0)
(4.1989e-08 -1.50795e-08 0)
(4.86111e-08 -1.606e-08 0)
(5.57237e-08 -1.7044e-08 0)
(6.33699e-08 -1.78964e-08 0)
(7.13477e-08 -1.86955e-08 0)
(7.95178e-08 -1.93035e-08 0)
(8.77894e-08 -1.97745e-08 0)
(9.62442e-08 -2.01482e-08 0)
(1.04882e-07 -2.04437e-08 0)
(1.13654e-07 -2.06525e-08 0)
(1.22505e-07 -2.07713e-08 0)
(1.31462e-07 -2.07926e-08 0)
(1.40466e-07 -2.07051e-08 0)
(1.49328e-07 -2.05393e-08 0)
(1.5803e-07 -2.02826e-08 0)
(1.66622e-07 -1.99431e-08 0)
(1.75063e-07 -1.95241e-08 0)
(1.83309e-07 -1.90277e-08 0)
(1.91331e-07 -1.84564e-08 0)
(1.99178e-07 -1.78131e-08 0)
(2.06815e-07 -1.71016e-08 0)
(2.14056e-07 -1.63292e-08 0)
(2.20878e-07 -1.54897e-08 0)
(2.27339e-07 -1.45934e-08 0)
(2.33414e-07 -1.36453e-08 0)
(2.39074e-07 -1.26491e-08 0)
(2.44299e-07 -1.161e-08 0)
(2.49145e-07 -1.0534e-08 0)
(2.53591e-07 -9.42316e-09 0)
(2.5749e-07 -8.28662e-09 0)
(2.60828e-07 -7.11638e-09 0)
(2.63663e-07 -5.92295e-09 0)
(5.42728e-11 2.14944e-10 0)
(4.27302e-10 -3.20292e-10 0)
(1.30644e-09 -1.49782e-09 0)
(2.70591e-09 -3.10789e-09 0)
(4.68796e-09 -4.9893e-09 0)
(7.29093e-09 -7.0229e-09 0)
(1.05255e-08 -9.12098e-09 0)
(1.44782e-08 -1.12188e-08 0)
(1.91462e-08 -1.32726e-08 0)
(2.44121e-08 -1.52621e-08 0)
(3.02595e-08 -1.71566e-08 0)
(3.66967e-08 -1.89612e-08 0)
(4.36876e-08 -2.06659e-08 0)
(5.11561e-08 -2.2259e-08 0)
(5.89495e-08 -2.3716e-08 0)
(6.73176e-08 -2.50301e-08 0)
(7.62803e-08 -2.60186e-08 0)
(8.56386e-08 -2.70804e-08 0)
(9.52865e-08 -2.80035e-08 0)
(1.05036e-07 -2.8792e-08 0)
(1.14964e-07 -2.93207e-08 0)
(1.25093e-07 -2.97562e-08 0)
(1.35377e-07 -3.00591e-08 0)
(1.45752e-07 -3.02346e-08 0)
(1.56252e-07 -3.02897e-08 0)
(1.66788e-07 -3.01991e-08 0)
(1.77165e-07 -2.99889e-08 0)
(1.87376e-07 -2.96167e-08 0)
(1.97448e-07 -2.91212e-08 0)
(2.07342e-07 -2.8509e-08 0)
(2.17009e-07 -2.77848e-08 0)
(2.26413e-07 -2.69544e-08 0)
(2.35601e-07 -2.60229e-08 0)
(2.44526e-07 -2.49896e-08 0)
(2.53005e-07 -2.38709e-08 0)
(2.61007e-07 -2.26393e-08 0)
(2.68576e-07 -2.13287e-08 0)
(2.75692e-07 -1.99451e-08 0)
(2.8232e-07 -1.84929e-08 0)
(2.88439e-07 -1.69793e-08 0)
(2.94102e-07 -1.54114e-08 0)
(2.9928e-07 -1.37891e-08 0)
(3.03833e-07 -1.21302e-08 0)
(3.07741e-07 -1.04129e-08 0)
(3.1105e-07 -8.66671e-09 0)
(8.80075e-11 1.8533e-11 0)
(6.19592e-10 -9.40749e-10 0)
(1.79868e-09 -2.64606e-09 0)
(3.59555e-09 -4.85852e-09 0)
(6.06717e-09 -7.39025e-09 0)
(9.24578e-09 -1.01032e-08 0)
(1.31411e-08 -1.28951e-08 0)
(1.78318e-08 -1.5687e-08 0)
(2.33011e-08 -1.8434e-08 0)
(2.94321e-08 -2.10608e-08 0)
(3.61937e-08 -2.35799e-08 0)
(4.35891e-08 -2.60081e-08 0)
(5.16055e-08 -2.83246e-08 0)
(6.0191e-08 -3.04949e-08 0)
(6.92145e-08 -3.24624e-08 0)
(7.90152e-08 -3.40023e-08 0)
(8.92236e-08 -3.55863e-08 0)
(9.96596e-08 -3.67624e-08 0)
(1.1057e-07 -3.79862e-08 0)
(1.21768e-07 -3.90025e-08 0)
(1.33162e-07 -3.98355e-08 0)
(1.44654e-07 -4.04456e-08 0)
(1.56349e-07 -4.0858e-08 0)
(1.6813e-07 -4.10937e-08 0)
(1.80046e-07 -4.11797e-08 0)
(1.92007e-07 -4.11276e-08 0)
(2.0383e-07 -4.08149e-08 0)
(2.15472e-07 -4.02986e-08 0)
(2.26925e-07 -3.96258e-08 0)
(2.3817e-07 -3.87939e-08 0)
(2.49156e-07 -3.78082e-08 0)
(2.59839e-07 -3.66805e-08 0)
(2.70268e-07 -3.54289e-08 0)
(2.80385e-07 -3.40503e-08 0)
(2.90022e-07 -3.24924e-08 0)
(2.99129e-07 -3.08013e-08 0)
(3.07721e-07 -2.90155e-08 0)
(3.15798e-07 -2.71322e-08 0)
(3.23321e-07 -2.51558e-08 0)
(3.30263e-07 -2.30974e-08 0)
(3.3668e-07 -2.09738e-08 0)
(3.42534e-07 -1.87849e-08 0)
(3.47695e-07 -1.64947e-08 0)
(3.52132e-07 -1.41416e-08 0)
(3.55871e-07 -1.17614e-08 0)
(1.51925e-10 -1.71835e-10 0)
(8.51035e-10 -1.70335e-09 0)
(2.30334e-09 -4.07712e-09 0)
(4.50015e-09 -6.99845e-09 0)
(7.47265e-09 -1.0267e-08 0)
(1.12365e-08 -1.37328e-08 0)
(1.57932e-08 -1.72839e-08 0)
(2.12103e-08 -2.08294e-08 0)
(2.75088e-08 -2.43238e-08 0)
(3.45329e-08 -2.76487e-08 0)
(4.21866e-08 -3.08715e-08 0)
(5.05179e-08 -3.39579e-08 0)
(5.95444e-08 -3.68967e-08 0)
(6.92251e-08 -3.96574e-08 0)
(7.95949e-08 -4.218e-08 0)
(9.03713e-08 -4.42107e-08 0)
(1.01796e-07 -4.62341e-08 0)
(1.13681e-07 -4.7777e-08 0)
(1.25716e-07 -4.93455e-08 0)
(1.38136e-07 -5.06577e-08 0)
(1.50797e-07 -5.17919e-08 0)
(1.63708e-07 -5.2585e-08 0)
(1.76755e-07 -5.31143e-08 0)
(1.89861e-07 -5.34013e-08 0)
(2.03062e-07 -5.34617e-08 0)
(2.16407e-07 -5.33146e-08 0)
(2.29648e-07 -5.28674e-08 0)
(2.42597e-07 -5.22196e-08 0)
(2.55332e-07 -5.13587e-08 0)
(2.67846e-07 -5.02839e-08 0)
(2.80065e-07 -4.9004e-08 0)
(2.91934e-07 -4.75328e-08 0)
(3.03503e-07 -4.58897e-08 0)
(3.14787e-07 -4.40789e-08 0)
(3.25546e-07 -4.20446e-08 0)
(3.3565e-07 -3.98791e-08 0)
(3.45186e-07 -3.75744e-08 0)
(3.54158e-07 -3.51338e-08 0)
(3.62514e-07 -3.2568e-08 0)
(3.70213e-07 -2.98899e-08 0)
(3.77314e-07 -2.7116e-08 0)
(3.83836e-07 -2.42605e-08 0)
(3.89595e-07 -2.12742e-08 0)
(3.94495e-07 -1.82452e-08 0)
(3.98621e-07 -1.51664e-08 0)
(1.70956e-10 -4.55024e-10 0)
(1.00775e-09 -2.75352e-09 0)
(2.7721e-09 -5.92718e-09 0)
(5.39841e-09 -9.6625e-09 0)
(8.88635e-09 -1.37555e-08 0)
(1.32477e-08 -1.80496e-08 0)
(1.84844e-08 -2.24253e-08 0)
(2.46469e-08 -2.67883e-08 0)
(3.17734e-08 -3.10584e-08 0)
(3.96537e-08 -3.51971e-08 0)
(4.81852e-08 -3.91802e-08 0)
(5.74575e-08 -4.29528e-08 0)
(6.74574e-08 -4.6518e-08 0)
(7.81825e-08 -4.98704e-08 0)
(8.97241e-08 -5.29738e-08 0)
(1.01874e-07 -5.5761e-08 0)
(1.14478e-07 -5.80588e-08 0)
(1.27332e-07 -6.02336e-08 0)
(1.40484e-07 -6.21575e-08 0)
(1.5417e-07 -6.38231e-08 0)
(1.68174e-07 -6.51253e-08 0)
(1.82391e-07 -6.60996e-08 0)
(1.96731e-07 -6.67582e-08 0)
(2.11136e-07 -6.71013e-08 0)
(2.25645e-07 -6.7123e-08 0)
(2.40269e-07 -6.68192e-08 0)
(2.54737e-07 -6.62758e-08 0)
(2.68919e-07 -6.54853e-08 0)
(2.82897e-07 -6.44125e-08 0)
(2.96623e-07 -6.30687e-08 0)
(3.10022e-07 -6.14645e-08 0)
(3.23033e-07 -5.96099e-08 0)
(3.35706e-07 -5.75119e-08 0)
(3.4805e-07 -5.51836e-08 0)
(3.59801e-07 -5.26745e-08 0)
(3.70854e-07 -4.99899e-08 0)
(3.81307e-07 -4.71075e-08 0)
(3.91135e-07 -4.40474e-08 0)
(4.00284e-07 -4.08266e-08 0)
(4.08716e-07 -3.74574e-08 0)
(4.16478e-07 -3.39476e-08 0)
(4.23597e-07 -3.03184e-08 0)
(4.29861e-07 -2.66075e-08 0)
(4.35196e-07 -2.28327e-08 0)
(4.39708e-07 -1.89745e-08 0)
(1.78331e-10 -9.30169e-10 0)
(1.14903e-09 -4.13147e-09 0)
(3.23358e-09 -8.20747e-09 0)
(6.2921e-09 -1.28555e-08 0)
(1.03026e-08 -1.7862e-08 0)
(1.52672e-08 -2.30637e-08 0)
(2.11768e-08 -2.8338e-08 0)
(2.80971e-08 -3.3601e-08 0)
(3.60202e-08 -3.87408e-08 0)
(4.47536e-08 -4.37577e-08 0)
(5.423e-08 -4.85357e-08 0)
(6.44784e-08 -5.30414e-08 0)
(7.54709e-08 -5.7263e-08 0)
(8.72078e-08 -6.12065e-08 0)
(9.97855e-08 -6.48783e-08 0)
(1.13057e-07 -6.83024e-08 0)
(1.26828e-07 -7.13284e-08 0)
(1.40863e-07 -7.40091e-08 0)
(1.55221e-07 -7.62561e-08 0)
(1.70109e-07 -7.81468e-08 0)
(1.85336e-07 -7.96811e-08 0)
(2.00788e-07 -8.08565e-08 0)
(2.16378e-07 -8.16564e-08 0)
(2.32044e-07 -8.20647e-08 0)
(2.47818e-07 -8.20822e-08 0)
(2.63651e-07 -8.17175e-08 0)
(2.7929e-07 -8.10473e-08 0)
(2.94662e-07 -8.00527e-08 0)
(3.09819e-07 -7.87273e-08 0)
(3.24701e-07 -7.70832e-08 0)
(3.39229e-07 -7.51271e-08 0)
(3.53342e-07 -7.28657e-08 0)
(3.67081e-07 -7.03057e-08 0)
(3.80412e-07 -6.74645e-08 0)
(3.93095e-07 -6.4404e-08 0)
(4.05068e-07 -6.11053e-08 0)
(4.16393e-07 -5.75728e-08 0)
(4.27033e-07 -5.38286e-08 0)
(4.36936e-07 -4.98909e-08 0)
(4.46067e-07 -4.57742e-08 0)
(4.54469e-07 -4.14911e-08 0)
(4.6213e-07 -3.70571e-08 0)
(4.68863e-07 -3.2532e-08 0)
(4.74628e-07 -2.78996e-08 0)
(4.79503e-07 -2.31714e-08 0)
(1.96683e-10 -1.49564e-09 0)
(1.30427e-09 -5.74163e-09 0)
(3.69453e-09 -1.08452e-08 0)
(7.17876e-09 -1.65112e-08 0)
(1.1711e-08 -2.25253e-08 0)
(1.72799e-08 -2.87201e-08 0)
(2.38576e-08 -3.49691e-08 0)
(3.15196e-08 -4.11873e-08 0)
(4.02459e-08 -4.727e-08 0)
(4.98483e-08 -5.31759e-08 0)
(6.02702e-08 -5.88127e-08 0)
(7.15048e-08 -6.4132e-08 0)
(8.35042e-08 -6.91046e-08 0)
(9.625e-08 -7.37278e-08 0)
(1.09816e-07 -7.80199e-08 0)
(1.2415e-07 -8.20419e-08 0)
(1.39069e-07 -8.56351e-08 0)
(1.54303e-07 -8.88005e-08 0)
(1.69874e-07 -9.14333e-08 0)
(1.85926e-07 -9.36378e-08 0)
(2.02319e-07 -9.54348e-08 0)
(2.1896e-07 -9.6818e-08 0)
(2.35769e-07 -9.77471e-08 0)
(2.52664e-07 -9.82144e-08 0)
(2.69656e-07 -9.82454e-08 0)
(2.86673e-07 -9.78319e-08 0)
(3.03465e-07 -9.70088e-08 0)
(3.19981e-07 -9.57887e-08 0)
(3.36265e-07 -9.41785e-08 0)
(3.5225e-07 -9.21966e-08 0)
(3.67859e-07 -8.98519e-08 0)
(3.83026e-07 -8.7151e-08 0)
(3.97783e-07 -8.41056e-08 0)
(4.12078e-07 -8.0729e-08 0)
(4.25677e-07 -7.70545e-08 0)
(4.38529e-07 -7.30904e-08 0)
(4.50684e-07 -6.88511e-08 0)
(4.62097e-07 -6.43629e-08 0)
(4.72718e-07 -5.96475e-08 0)
(4.8251e-07 -5.47241e-08 0)
(4.91515e-07 -4.96145e-08 0)
(4.99708e-07 -4.43289e-08 0)
(5.06907e-07 -3.89043e-08 0)
(5.13081e-07 -3.33461e-08 0)
(5.18295e-07 -2.76774e-08 0)
(2.19786e-10 -2.13173e-09 0)
(1.46443e-09 -7.5752e-09 0)
(4.15197e-09 -1.38372e-08 0)
(8.05495e-09 -2.06288e-08 0)
(1.3104e-08 -2.77458e-08 0)
(1.92754e-08 -3.50202e-08 0)
(2.65236e-08 -4.23199e-08 0)
(3.49262e-08 -4.95471e-08 0)
(4.44556e-08 -5.66064e-08 0)
(5.49241e-08 -6.34476e-08 0)
(6.6283e-08 -6.99943e-08 0)
(7.85052e-08 -7.61793e-08 0)
(9.1522e-08 -8.19644e-08 0)
(1.05288e-07 -8.73302e-08 0)
(1.19838e-07 -9.22865e-08 0)
(1.35201e-07 -9.68971e-08 0)
(1.51244e-07 -1.01058e-07 0)
(1.67673e-07 -1.04726e-07 0)
(1.84445e-07 -1.07791e-07 0)
(2.0164e-07 -1.10329e-07 0)
(2.19171e-07 -1.12367e-07 0)
(2.36986e-07 -1.13903e-07 0)
(2.54995e-07 -1.14955e-07 0)
(2.73065e-07 -1.15457e-07 0)
(2.91225e-07 -1.15518e-07 0)
(3.09412e-07 -1.1504e-07 0)
(3.27349e-07 -1.14101e-07 0)
(3.44984e-07 -1.12659e-07 0)
(3.6236e-07 -1.10744e-07 0)
(3.79408e-07 -1.08392e-07 0)
(3.96056e-07 -1.05621e-07 0)
(4.12235e-07 -1.0244e-07 0)
(4.27974e-07 -9.88659e-08 0)
(4.43211e-07 -9.48987e-08 0)
(4.57707e-07 -9.05786e-08 0)
(4.71413e-07 -8.59153e-08 0)
(4.8437e-07 -8.09211e-08 0)
(4.96526e-07 -7.56343e-08 0)
(5.07835e-07 -7.00827e-08 0)
(5.18255e-07 -6.42907e-08 0)
(5.27837e-07 -5.82862e-08 0)
(5.36548e-07 -5.20718e-08 0)
(5.44203e-07 -4.56926e-08 0)
(5.50775e-07 -3.91555e-08 0)
(5.56315e-07 -3.24825e-08 0)
(2.44439e-10 -2.85091e-09 0)
(1.62224e-09 -9.63681e-09 0)
(4.60202e-09 -1.71855e-08 0)
(8.91935e-09 -2.5207e-08 0)
(1.44768e-08 -3.35238e-08 0)
(2.12461e-08 -4.19674e-08 0)
(2.91716e-08 -5.03972e-08 0)
(3.83231e-08 -5.86956e-08 0)
(4.86557e-08 -6.67727e-08 0)
(5.99775e-08 -7.45964e-08 0)
(7.22592e-08 -8.20974e-08 0)
(8.54629e-08 -8.91997e-08 0)
(9.94968e-08 -9.58708e-08 0)
(1.14297e-07 -1.02058e-07 0)
(1.29855e-07 -1.0773e-07 0)
(1.46233e-07 -1.12912e-07 0)
(1.63356e-07 -1.1751e-07 0)
(1.80958e-07 -1.21653e-07 0)
(1.98943e-07 -1.25176e-07 0)
(2.17315e-07 -1.28083e-07 0)
(2.36011e-07 -1.30377e-07 0)
(2.54946e-07 -1.32069e-07 0)
(2.74101e-07 -1.33164e-07 0)
(2.933e-07 -1.33757e-07 0)
(3.12581e-07 -1.33846e-07 0)
(3.31903e-07 -1.33353e-07 0)
(3.50957e-07 -1.323e-07 0)
(3.69733e-07 -1.30651e-07 0)
(3.88193e-07 -1.2843e-07 0)
(4.0628e-07 -1.25688e-07 0)
(4.23937e-07 -1.22449e-07 0)
(4.41094e-07 -1.18739e-07 0)
(4.57791e-07 -1.14581e-07 0)
(4.73945e-07 -1.09965e-07 0)
(4.89309e-07 -1.04961e-07 0)
(5.03854e-07 -9.95676e-08 0)
(5.17598e-07 -9.37801e-08 0)
(5.30477e-07 -8.7653e-08 0)
(5.42451e-07 -8.12123e-08 0)
(5.53479e-07 -7.44873e-08 0)
(5.63621e-07 -6.75114e-08 0)
(5.72832e-07 -6.0288e-08 0)
(5.80923e-07 -5.28917e-08 0)
(5.87883e-07 -4.53197e-08 0)
(5.93745e-07 -3.75817e-08 0)
(2.68829e-10 -3.64624e-09 0)
(1.77418e-09 -1.18936e-08 0)
(5.0465e-09 -2.08002e-08 0)
(9.77397e-09 -3.01472e-08 0)
(1.5823e-08 -3.97574e-08 0)
(2.31819e-08 -4.94527e-08 0)
(3.17933e-08 -5.90902e-08 0)
(4.17126e-08 -6.85455e-08 0)
(5.28474e-08 -7.77497e-08 0)
(6.50034e-08 -8.65957e-08 0)
(7.81849e-08 -9.507e-08 0)
(9.2334e-08 -1.03095e-07 0)
(1.07362e-07 -1.10669e-07 0)
(1.23225e-07 -1.17703e-07 0)
(1.3988e-07 -1.24134e-07 0)
(1.57422e-07 -1.29902e-07 0)
(1.75612e-07 -1.3504e-07 0)
(1.94227e-07 -1.39581e-07 0)
(2.13351e-07 -1.43574e-07 0)
(2.32896e-07 -1.46886e-07 0)
(2.52766e-07 -1.49484e-07 0)
(2.72904e-07 -1.51396e-07 0)
(2.93138e-07 -1.52634e-07 0)
(3.1334e-07 -1.53313e-07 0)
(3.33708e-07 -1.53355e-07 0)
(3.54154e-07 -1.52777e-07 0)
(3.74356e-07 -1.5154e-07 0)
(3.94259e-07 -1.49629e-07 0)
(4.13812e-07 -1.47056e-07 0)
(4.32943e-07 -1.43912e-07 0)
(4.51603e-07 -1.40189e-07 0)
(4.69721e-07 -1.35922e-07 0)
(4.87354e-07 -1.31147e-07 0)
(5.04391e-07 -1.25874e-07 0)
(5.20584e-07 -1.20131e-07 0)
(5.3595e-07 -1.13926e-07 0)
(5.50471e-07 -1.07279e-07 0)
(5.64064e-07 -1.00268e-07 0)
(5.76701e-07 -9.28972e-08 0)
(5.88331e-07 -8.51945e-08 0)
(5.99028e-07 -7.71983e-08 0)
(6.08715e-07 -6.89388e-08 0)
(6.17211e-07 -6.04473e-08 0)
(6.2455e-07 -5.17591e-08 0)
(6.30726e-07 -4.28799e-08 0)
(2.99993e-10 -4.4202e-09 0)
(1.97489e-09 -1.42117e-08 0)
(5.54115e-09 -2.46093e-08 0)
(1.06306e-08 -3.54266e-08 0)
(1.71523e-08 -4.64355e-08 0)
(2.50895e-08 -5.74643e-08 0)
(3.43693e-08 -6.83768e-08 0)
(4.50144e-08 -7.90502e-08 0)
(5.69811e-08 -8.94344e-08 0)
(7.00348e-08 -9.93524e-08 0)
(8.41243e-08 -1.08806e-07 0)
(9.92047e-08 -1.17822e-07 0)
(1.15199e-07 -1.26322e-07 0)
(1.32106e-07 -1.34229e-07 0)
(1.4989e-07 -1.41462e-07 0)
(1.68516e-07 -1.47878e-07 0)
(1.87818e-07 -1.53672e-07 0)
(2.07516e-07 -1.58688e-07 0)
(2.27679e-07 -1.63149e-07 0)
(2.48394e-07 -1.66883e-07 0)
(2.69437e-07 -1.69837e-07 0)
(2.90677e-07 -1.72014e-07 0)
(3.1201e-07 -1.73471e-07 0)
(3.33347e-07 -1.74146e-07 0)
(3.54824e-07 -1.74018e-07 0)
(3.76359e-07 -1.73231e-07 0)
(3.97672e-07 -1.71675e-07 0)
(4.18702e-07 -1.69431e-07 0)
(4.39303e-07 -1.66561e-07 0)
(4.59432e-07 -1.63011e-07 0)
(4.79086e-07 -1.58788e-07 0)
(4.9815e-07 -1.53932e-07 0)
(5.16682e-07 -1.48478e-07 0)
(5.34607e-07 -1.42513e-07 0)
(5.51675e-07 -1.35949e-07 0)
(5.67863e-07 -1.28862e-07 0)
(5.83114e-07 -1.21362e-07 0)
(5.97378e-07 -1.13435e-07 0)
(6.10661e-07 -1.05091e-07 0)
(6.22885e-07 -9.63609e-08 0)
(6.34105e-07 -8.7273e-08 0)
(6.44282e-07 -7.793e-08 0)
(6.53219e-07 -6.82682e-08 0)
(6.60929e-07 -5.8377e-08 0)
(6.67394e-07 -4.8345e-08 0)
(3.33119e-10 -5.23665e-09 0)
(2.14806e-09 -1.67222e-08 0)
(5.96777e-09 -2.88114e-08 0)
(1.14306e-08 -4.12249e-08 0)
(1.84506e-08 -5.37294e-08 0)
(2.6974e-08 -6.61714e-08 0)
(3.69311e-08 -7.84241e-08 0)
(4.83165e-08 -9.03754e-08 0)
(6.1109e-08 -1.01929e-07 0)
(7.50734e-08 -1.13001e-07 0)
(9.00166e-08 -1.23548e-07 0)
(1.05965e-07 -1.33582e-07 0)
(1.22935e-07 -1.43003e-07 0)
(1.40886e-07 -1.51778e-07 0)
(1.59843e-07 -1.59832e-07 0)
(1.79626e-07 -1.67e-07 0)
(2.00011e-07 -1.7342e-07 0)
(2.20745e-07 -1.78998e-07 0)
(2.41931e-07 -1.83899e-07 0)
(2.63758e-07 -1.88041e-07 0)
(2.85954e-07 -1.91367e-07 0)
(3.08357e-07 -1.93831e-07 0)
(3.30857e-07 -1.95415e-07 0)
(3.53406e-07 -1.96094e-07 0)
(3.75993e-07 -1.95811e-07 0)
(3.9862e-07 -1.94748e-07 0)
(4.21027e-07 -1.92865e-07 0)
(4.42986e-07 -1.90333e-07 0)
(4.64577e-07 -1.87127e-07 0)
(4.85782e-07 -1.83136e-07 0)
(5.06457e-07 -1.78389e-07 0)
(5.26499e-07 -1.7292e-07 0)
(5.45916e-07 -1.66757e-07 0)
(5.64717e-07 -1.59985e-07 0)
(5.82661e-07 -1.52575e-07 0)
(5.99568e-07 -1.44629e-07 0)
(6.15504e-07 -1.3622e-07 0)
(6.30482e-07 -1.27307e-07 0)
(6.44428e-07 -1.1793e-07 0)
(6.57273e-07 -1.08119e-07 0)
(6.69012e-07 -9.78918e-08 0)
(6.79661e-07 -8.73437e-08 0)
(6.8905e-07 -7.64741e-08 0)
(6.97059e-07 -6.53775e-08 0)
(7.03767e-07 -5.41269e-08 0)
(3.44652e-10 -6.23373e-09 0)
(2.26064e-09 -1.95994e-08 0)
(6.34704e-09 -3.34773e-08 0)
(1.22174e-08 -4.75602e-08 0)
(1.97409e-08 -6.1644e-08 0)
(2.88496e-08 -7.55798e-08 0)
(3.94663e-08 -8.92501e-08 0)
(5.16079e-08 -1.02573e-07 0)
(6.52172e-08 -1.15401e-07 0)
(8.00152e-08 -1.27709e-07 0)
(9.58619e-08 -1.39416e-07 0)
(1.12771e-07 -1.50436e-07 0)
(1.30709e-07 -1.60751e-07 0)
(1.49654e-07 -1.70354e-07 0)
(1.69702e-07 -1.79212e-07 0)
(1.90604e-07 -1.87213e-07 0)
(2.12126e-07 -1.94369e-07 0)
(2.33961e-07 -2.00539e-07 0)
(2.56168e-07 -2.0586e-07 0)
(2.79058e-07 -2.10347e-07 0)
(3.02371e-07 -2.13971e-07 0)
(3.25941e-07 -2.16674e-07 0)
(3.49643e-07 -2.18398e-07 0)
(3.73427e-07 -2.1911e-07 0)
(3.97223e-07 -2.18791e-07 0)
(4.20931e-07 -2.17526e-07 0)
(4.44283e-07 -2.15388e-07 0)
(4.67202e-07 -2.125e-07 0)
(4.89822e-07 -2.08788e-07 0)
(5.12045e-07 -2.04276e-07 0)
(5.33723e-07 -1.98969e-07 0)
(5.54738e-07 -1.92875e-07 0)
(5.75096e-07 -1.86042e-07 0)
(5.94774e-07 -1.78471e-07 0)
(6.13507e-07 -1.70228e-07 0)
(6.31166e-07 -1.6136e-07 0)
(6.47833e-07 -1.51894e-07 0)
(6.63489e-07 -1.41894e-07 0)
(6.7807e-07 -1.3141e-07 0)
(6.91515e-07 -1.2047e-07 0)
(7.03813e-07 -1.09104e-07 0)
(7.14939e-07 -9.73305e-08 0)
(7.24698e-07 -8.52244e-08 0)
(7.33026e-07 -7.28594e-08 0)
(7.40024e-07 -6.02553e-08 0)
(3.58316e-10 -7.33779e-09 0)
(2.38434e-09 -2.2718e-08 0)
(6.73707e-09 -3.84709e-08 0)
(1.30039e-08 -5.43281e-08 0)
(2.10237e-08 -7.00901e-08 0)
(3.07106e-08 -8.56126e-08 0)
(4.19636e-08 -1.00785e-07 0)
(5.48295e-08 -1.15547e-07 0)
(6.92442e-08 -1.29748e-07 0)
(8.49151e-08 -1.43346e-07 0)
(1.0171e-07 -1.56211e-07 0)
(1.19596e-07 -1.6829e-07 0)
(1.38512e-07 -1.79552e-07 0)
(1.58431e-07 -1.90005e-07 0)
(1.79482e-07 -1.99659e-07 0)
(2.01442e-07 -2.08524e-07 0)
(2.24117e-07 -2.16534e-07 0)
(2.47131e-07 -2.23444e-07 0)
(2.70432e-07 -2.29197e-07 0)
(2.94377e-07 -2.33915e-07 0)
(3.1877e-07 -2.37648e-07 0)
(3.43478e-07 -2.40397e-07 0)
(3.68371e-07 -2.42137e-07 0)
(3.93361e-07 -2.42867e-07 0)
(4.18321e-07 -2.42652e-07 0)
(4.43161e-07 -2.41507e-07 0)
(4.67583e-07 -2.39157e-07 0)
(4.91506e-07 -2.35807e-07 0)
(5.15111e-07 -2.31536e-07 0)
(5.38299e-07 -2.2642e-07 0)
(5.6094e-07 -2.20476e-07 0)
(5.82884e-07 -2.13708e-07 0)
(6.04149e-07 -2.06196e-07 0)
(6.24723e-07 -1.97859e-07 0)
(6.44317e-07 -1.8877e-07 0)
(6.62788e-07 -1.78885e-07 0)
(6.80181e-07 -1.68316e-07 0)
(6.96487e-07 -1.5716e-07 0)
(7.11666e-07 -1.45489e-07 0)
(7.25665e-07 -1.33346e-07 0)
(7.38488e-07 -1.2079e-07 0)
(7.50105e-07 -1.07795e-07 0)
(7.60288e-07 -9.4407e-08 0)
(7.68971e-07 -8.06644e-08 0)
(7.76246e-07 -6.66533e-08 0)
(3.76734e-10 -8.4942e-09 0)
(2.51805e-09 -2.60151e-08 0)
(7.13124e-09 -4.37722e-08 0)
(1.37851e-08 -6.1523e-08 0)
(2.22948e-08 -7.90664e-08 0)
(3.2553e-08 -9.62718e-08 0)
(4.44314e-08 -1.13032e-07 0)
(5.80079e-08 -1.29282e-07 0)
(7.32174e-08 -1.44884e-07 0)
(8.97663e-08 -1.59802e-07 0)
(1.07529e-07 -1.73905e-07 0)
(1.26418e-07 -1.8713e-07 0)
(1.46342e-07 -1.99416e-07 0)
(1.67235e-07 -2.10774e-07 0)
(1.8919e-07 -2.21245e-07 0)
(2.12036e-07 -2.31019e-07 0)
(2.35794e-07 -2.39577e-07 0)
(2.60151e-07 -2.47229e-07 0)
(2.84801e-07 -2.53499e-07 0)
(3.0995e-07 -2.58542e-07 0)
(3.3546e-07 -2.62425e-07 0)
(3.61244e-07 -2.65211e-07 0)
(3.87182e-07 -2.66946e-07 0)
(4.13135e-07 -2.67674e-07 0)
(4.39019e-07 -2.67616e-07 0)
(4.65076e-07 -2.66252e-07 0)
(4.90847e-07 -2.63959e-07 0)
(5.15903e-07 -2.60228e-07 0)
(5.40509e-07 -2.55414e-07 0)
(5.64625e-07 -2.49653e-07 0)
(5.88175e-07 -2.43012e-07 0)
(6.1098e-07 -2.35507e-07 0)
(6.33127e-07 -2.27232e-07 0)
(6.546e-07 -2.18035e-07 0)
(6.75097e-07 -2.08056e-07 0)
(6.94446e-07 -1.97156e-07 0)
(7.12588e-07 -1.85483e-07 0)
(7.29542e-07 -1.73141e-07 0)
(7.45296e-07 -1.6022e-07 0)
(7.59801e-07 -1.4679e-07 0)
(7.73112e-07 -1.32937e-07 0)
(7.85219e-07 -1.18616e-07 0)
(7.95859e-07 -1.03897e-07 0)
(8.04926e-07 -8.87518e-08 0)
(8.12482e-07 -7.32993e-08 0)
(4.00007e-10 -9.72111e-09 0)
(2.65602e-09 -2.95062e-08 0)
(7.51661e-09 -4.93924e-08 0)
(1.45508e-08 -6.91571e-08 0)
(2.35469e-08 -8.85866e-08 0)
(3.43692e-08 -1.07581e-07 0)
(4.68799e-08 -1.2602e-07 0)
(6.11748e-08 -1.43804e-07 0)
(7.71702e-08 -1.60826e-07 0)
(9.45709e-08 -1.77094e-07 0)
(1.13275e-07 -1.92514e-07 0)
(1.33176e-07 -2.07022e-07 0)
(1.54136e-07 -2.20517e-07 0)
(1.76029e-07 -2.32959e-07 0)
(1.98802e-07 -2.44307e-07 0)
(2.2279e-07 -2.54674e-07 0)
(2.47684e-07 -2.63596e-07 0)
(2.73064e-07 -2.71783e-07 0)
(2.99037e-07 -2.7864e-07 0)
(3.25419e-07 -2.84163e-07 0)
(3.52109e-07 -2.88363e-07 0)
(3.78998e-07 -2.91312e-07 0)
(4.05977e-07 -2.93095e-07 0)
(4.32788e-07 -2.93791e-07 0)
(4.59869e-07 -2.93682e-07 0)
(4.86975e-07 -2.92121e-07 0)
(5.138e-07 -2.89672e-07 0)
(5.40284e-07 -2.85646e-07 0)
(5.65965e-07 -2.80426e-07 0)
(5.91033e-07 -2.7415e-07 0)
(6.15478e-07 -2.66855e-07 0)
(6.3912e-07 -2.58547e-07 0)
(6.62146e-07 -2.49309e-07 0)
(6.84499e-07 -2.39046e-07 0)
(7.05875e-07 -2.28034e-07 0)
(7.26119e-07 -2.16077e-07 0)
(7.45037e-07 -2.03396e-07 0)
(7.62672e-07 -1.89969e-07 0)
(7.7902e-07 -1.75799e-07 0)
(7.94029e-07 -1.60978e-07 0)
(8.07816e-07 -1.45619e-07 0)
(8.20369e-07 -1.29945e-07 0)
(8.3144e-07 -1.1369e-07 0)
(8.40912e-07 -9.70998e-08 0)
(8.48762e-07 -8.01691e-08 0)
(4.29054e-10 -1.10217e-08 0)
(2.7939e-09 -3.31792e-08 0)
(7.88088e-09 -5.52942e-08 0)
(1.529e-08 -7.71052e-08 0)
(2.4764e-08 -9.84947e-08 0)
(3.61394e-08 -1.19359e-07 0)
(4.93149e-08 -1.39562e-07 0)
(6.43711e-08 -1.58968e-07 0)
(8.11441e-08 -1.77548e-07 0)
(9.93282e-08 -1.9518e-07 0)
(1.1887e-07 -2.11983e-07 0)
(1.3969e-07 -2.27783e-07 0)
(1.61666e-07 -2.42479e-07 0)
(1.84671e-07 -2.56058e-07 0)
(2.08646e-07 -2.68363e-07 0)
(2.33843e-07 -2.79168e-07 0)
(2.59683e-07 -2.88948e-07 0)
(2.85989e-07 -2.97349e-07 0)
(3.13172e-07 -3.04788e-07 0)
(3.40834e-07 -3.10904e-07 0)
(3.68765e-07 -3.15618e-07 0)
(3.96807e-07 -3.18938e-07 0)
(4.24834e-07 -3.20901e-07 0)
(4.52516e-07 -3.21551e-07 0)
(4.80499e-07 -3.21002e-07 0)
(5.08742e-07 -3.19086e-07 0)
(5.36832e-07 -3.15975e-07 0)
(5.64524e-07 -3.11737e-07 0)
(5.91252e-07 -3.06322e-07 0)
(6.17327e-07 -2.99474e-07 0)
(6.42805e-07 -2.91546e-07 0)
(6.6746e-07 -2.82435e-07 0)
(6.91481e-07 -2.72147e-07 0)
(7.14658e-07 -2.60878e-07 0)
(7.36789e-07 -2.48467e-07 0)
(7.57757e-07 -2.35656e-07 0)
(7.77329e-07 -2.21779e-07 0)
(7.9574e-07 -2.07241e-07 0)
(8.12862e-07 -1.91859e-07 0)
(8.28537e-07 -1.75681e-07 0)
(8.42688e-07 -1.58815e-07 0)
(8.55682e-07 -1.41561e-07 0)
(8.67231e-07 -1.23809e-07 0)
(8.7697e-07 -1.05662e-07 0)
(8.85108e-07 -8.72119e-08 0)
(4.63903e-10 -1.22752e-08 0)
(2.94359e-09 -3.6888e-08 0)
(8.31299e-09 -6.12861e-08 0)
(1.61068e-08 -8.52558e-08 0)
(2.59928e-08 -1.08737e-07 0)
(3.78893e-08 -1.3156e-07 0)
(5.17138e-08 -1.53595e-07 0)
(6.74705e-08 -1.74694e-07 0)
(8.50709e-08 -1.94927e-07 0)
(1.0407e-07 -2.14019e-07 0)
(1.24417e-07 -2.32106e-07 0)
(1.46224e-07 -2.49118e-07 0)
(1.69187e-07 -2.65082e-07 0)
(1.93234e-07 -2.79834e-07 0)
(2.18524e-07 -2.93197e-07 0)
(2.4476e-07 -3.04763e-07 0)
(2.71759e-07 -3.15223e-07 0)
(2.99163e-07 -3.24033e-07 0)
(3.27088e-07 -3.32006e-07 0)
(3.55852e-07 -3.38722e-07 0)
(3.84984e-07 -3.44023e-07 0)
(4.14267e-07 -3.47839e-07 0)
(4.43558e-07 -3.50107e-07 0)
(4.72525e-07 -3.50747e-07 0)
(5.01821e-07 -3.49426e-07 0)
(5.31148e-07 -3.4719e-07 0)
(5.59965e-07 -3.43308e-07 0)
(5.88436e-07 -3.38579e-07 0)
(6.16426e-07 -3.32627e-07 0)
(6.4372e-07 -3.25427e-07 0)
(6.70159e-07 -3.16837e-07 0)
(6.9591e-07 -3.06889e-07 0)
(7.2086e-07 -2.95533e-07 0)
(7.45122e-07 -2.83396e-07 0)
(7.67841e-07 -2.69826e-07 0)
(7.8937e-07 -2.55496e-07 0)
(8.09852e-07 -2.40539e-07 0)
(8.28845e-07 -2.24823e-07 0)
(8.46701e-07 -2.08221e-07 0)
(8.63078e-07 -1.90723e-07 0)
(8.7784e-07 -1.72437e-07 0)
(8.9119e-07 -1.53447e-07 0)
(9.03077e-07 -1.34213e-07 0)
(9.13184e-07 -1.14432e-07 0)
(9.21551e-07 -9.43677e-08 0)
(4.80411e-10 -1.35353e-08 0)
(3.1087e-09 -4.07084e-08 0)
(8.75171e-09 -6.75424e-08 0)
(1.68491e-08 -9.38795e-08 0)
(2.71525e-08 -1.19557e-07 0)
(3.96066e-08 -1.44405e-07 0)
(5.41164e-08 -1.68333e-07 0)
(7.0577e-08 -1.91236e-07 0)
(8.89546e-08 -2.13071e-07 0)
(1.08881e-07 -2.33726e-07 0)
(1.30093e-07 -2.53138e-07 0)
(1.52616e-07 -2.71404e-07 0)
(1.7642e-07 -2.88555e-07 0)
(2.01576e-07 -3.04405e-07 0)
(2.28266e-07 -3.18836e-07 0)
(2.55877e-07 -3.31468e-07 0)
(2.83965e-07 -3.42598e-07 0)
(3.12231e-07 -3.52179e-07 0)
(3.40967e-07 -3.60606e-07 0)
(3.70751e-07 -3.6772e-07 0)
(4.01024e-07 -3.73351e-07 0)
(4.31538e-07 -3.77439e-07 0)
(4.62182e-07 -3.79894e-07 0)
(4.92899e-07 -3.80578e-07 0)
(5.23213e-07 -3.79062e-07 0)
(5.53485e-07 -3.7642e-07 0)
(5.8355e-07 -3.71985e-07 0)
(6.12811e-07 -3.66642e-07 0)