/*--------------------------------*- C++ -*----------------------------------*\
  =========                 |
  \\      /  F ield         | OpenFOAM: The Open Source CFD Toolbox
   \\    /   O peration     | Website:  https://openfoam.org
    \\  /    A nd           | Version:  9
     \\/     M anipulation  |
\*---------------------------------------------------------------------------*/
FoamFile
{
    format      ascii;
    class       surfaceScalarField;
    location    "24.2";
    object      phi;
}
// * * * * * * * * * * * * * * * * * * * * * * * * * * * * * * * * * * * * * //

dimensions      [0 3 -1 0 0 0 0];

internalField   nonuniform List<scalar> 
16735
(
-0.00300706
0.00300707
-7.84538e-09
-0.00902882
0.00602177
-1.47623e-08
-0.0169423
0.00791347
-1.81108e-08
-0.0260237
0.00908145
-1.9907e-08
-0.0361711
0.0101474
-2.1497e-08
-0.0468093
0.0106382
-2.24969e-08
-0.0590477
0.0122384
-2.26544e-08
-0.070195
0.0111474
-1.97942e-08
-0.0852196
0.0150246
-1.29014e-08
0.0114605
1.05434e-09
-0.0966801
-0.00295504
0.00596211
-0.00887993
0.0119467
-0.0166547
0.0156882
-0.0255461
0.0179729
-0.0354382
0.0200395
-0.0457227
0.0209228
-0.0575013
0.024017
-0.06798
0.0216261
-0.0822506
0.0292952
0.0216081
-0.0923982
-0.00285324
0.00881535
-0.0085874
0.0176808
-0.0160878
0.0231886
-0.0246027
0.0264877
-0.0339859
0.0294227
-0.0435707
0.0305075
-0.0544228
0.0348692
-0.0635799
0.0307831
-0.0763616
0.0420769
0.0291929
-0.0839464
-0.00270607
0.0115214
-0.00816145
0.0231362
-0.0152583
0.0302855
-0.0232171
0.0344465
-0.0318413
0.0380469
-0.0403941
0.0390602
-0.0498382
0.0443134
-0.057044
0.0379889
-0.0676254
0.0526583
0.0330795
-0.0715119
-0.00251988
0.0140413
-0.00761693
0.0282332
-0.0141902
0.0368587
-0.0214232
0.0416796
-0.0290434
0.045667
-0.0362517
0.0462686
-0.0437814
0.051843
-0.0484249
0.0426324
-0.0560859
0.0603193
0.0322753
-0.0552817
-0.00230272
0.016344
-0.00697261
0.0329031
-0.0129124
0.0427986
-0.0192639
0.0480311
-0.0256416
0.0520448
-0.0312175
0.0518445
-0.0362895
0.056915
-0.037768
0.0441109
-0.0416831
0.0642343
0.0259191
-0.0353269
-0.00206392
0.0184079
-0.00625038
0.0370896
-0.0114593
0.0480075
-0.0167884
0.0533602
-0.0216924
0.0569488
-0.025375
0.0555271
-0.0273976
0.0589377
-0.025122
0.0418353
-0.0241663
0.0632786
0.0132734
-0.0115206
-0.00181368
0.0202216
-0.00547413
0.0407501
-0.00986858
0.052402
-0.0140482
0.0575398
-0.0172525
0.060153
-0.018806
0.0570806
-0.017122
0.0572537
-0.0105966
0.0353099
-0.00290825
0.0555902
-0.00698454
0.0173497
-0.00156254
0.0217842
-0.0046684
0.0438559
-0.00817847
0.055912
-0.0110925
0.0604539
-0.0123701
0.0614306
-0.0115728
0.0562832
-0.0053876
0.0510685
0.00593765
0.0239846
0.0213391
0.0401888
-0.0379645
0.0523191
-0.00132073
0.0231049
-0.00385674
0.0463919
-0.0064251
0.0584804
-0.00796125
0.06199
-0.00706923
0.0605386
-0.00371326
0.0529273
0.0075074
0.0398479
0.0248626
0.00662945
0.0499279
0.0151234
-0.0820861
0.0940495
-0.00109751
0.0242024
-0.00305989
0.0483543
-0.00463882
0.0600593
-0.00467976
0.062031
-0.00130171
0.0571605
0.0051266
0.0464989
0.0218574
0.0231171
0.045702
-0.0172152
0.0830608
-0.0222354
-0.141901
0.142875
-0.000900507
0.0251029
-0.00229358
0.0497474
-0.00283945
0.0606052
-0.00126339
0.0604549
0.00474783
0.0511493
0.0151358
0.0361109
0.0382668
-1.38729e-05
0.0693495
-0.0482979
0.121004
-0.0738896
-0.218565
0.197668
-0.000734971
0.0258379
-0.00156638
0.0505788
-0.00102672
0.0600655
0.00239744
0.0570307
0.0113739
0.0421729
0.0265428
0.020942
0.0570705
-0.0305416
0.0971743
-0.0884017
0.164091
-0.140807
-0.310019
0.255545
-0.000603343
0.0264412
-0.000878019
0.0508535
0.000801569
0.0583859
0.00632158
0.0515107
0.0187658
0.0297286
0.0399077
-0.000199918
0.0786321
-0.069266
0.13023
-0.14
0.211886
-0.222462
-0.410464
0.312331
-0.000505916
0.0269471
-0.000215474
0.050563
0.00268714
0.0554833
0.0106029
0.043595
0.0271617
0.0131698
0.055742
-0.0287802
0.103322
-0.116846
0.168096
-0.204773
0.261869
-0.316236
-0.512137
0.363543
-0.000433172
0.0273803
0.000439911
0.0496899
0.00472736
0.0511959
0.0154377
0.0328847
0.0369056
-0.00829813
0.0743481
-0.0662226
0.131353
-0.173851
0.208642
-0.282063
0.309377
-0.416971
-0.608214
0.405454
-0.000374272
0.0277546
0.00113027
0.0481854
0.00702616
0.0453
0.0210871
0.0188237
0.0484521
-0.0356632
0.0957056
-0.113476
0.162183
-0.240329
0.248649
-0.368528
0.34949
-0.517812
-0.694614
0.435891
-0.000316634
0.0280712
0.00190734
0.0459614
0.00972058
0.0374867
0.0278597
0.000684671
0.0622404
-0.0700439
0.119425
-0.170661
0.194063
-0.314966
0.284586
-0.459051
0.379114
-0.612341
-0.769987
0.454487
-0.000243263
0.0283145
0.00283141
0.0428867
0.0129716
0.0273465
0.0360641
-0.0224077
0.0784543
-0.112434
0.144589
-0.236796
0.224415
-0.394792
0.313532
-0.548168
0.397586
-0.696395
-0.834904
0.462503
-0.000133758
0.0284482
0.00396924
0.0387838
0.0169567
0.0143591
0.0459376
-0.0513886
0.0967777
-0.163274
0.169655
-0.309673
0.250764
-0.475901
0.333979
-0.631383
0.405993
-0.768409
-0.891459
0.462548
3.30362e-05
0.0284152
0.00539153
0.0334253
0.0218564
-0.00210581
0.0575478
-0.08708
0.116315
-0.222042
0.192755
-0.386113
0.271418
-0.554564
0.345929
-0.705894
0.407367
-0.829847
-0.947205
0.463113
0.000251598
0.0281636
0.00717298
0.0265039
0.0278287
-0.0227615
0.0706824
-0.129934
0.135746
-0.287106
0.212276
-0.462643
0.285675
-0.627963
0.350535
-0.770753
0.405258
-0.884571
-0.995569
0.453622
0.000559603
0.027604
0.00939135
0.0176721
0.0349568
-0.048327
0.0847934
-0.17977
0.153651
-0.355964
0.227253
-0.536244
0.293728
-0.694439
0.349983
-0.827009
0.397489
-0.932076
-1.03666
0.438577
0.000967395
0.0266366
0.0121239
0.00651559
0.0431822
-0.0793853
0.0990553
-0.235643
0.168868
-0.425776
0.237419
-0.604795
0.29645
-0.753469
0.344954
-0.875513
0.386359
-0.973481
-1.07345
0.423154
0.00148632
0.0251503
0.0154373
-0.00743537
0.0522623
-0.11621
0.112531
-0.295912
0.180705
-0.49395
0.243039
-0.66713
0.29473
-0.80516
0.336619
-0.917402
0.373016
-1.00988
-1.10626
0.405821
0.00213036
0.0230199
0.0193606
-0.0246656
0.061789
-0.158639
0.124376
-0.358499
0.188946
-0.55852
0.244622
-0.722805
0.289518
-0.850056
0.325814
-0.953698
0.357985
-1.04205
-1.13599
0.387714
0.00292114
0.0200988
0.0238546
-0.0455991
0.0712502
-0.206034
0.133999
-0.421247
0.193713
-0.618235
0.24279
-0.771883
0.281608
-0.888874
0.313204
-0.985294
0.341885
-1.07073
-1.16303
0.368931
0.00389172
0.0162071
0.028799
-0.0705065
0.0800986
-0.257334
0.141117
-0.482266
0.195328
-0.672445
0.238165
-0.81472
0.271662
-0.92237
0.299308
-1.01294
0.32499
-1.09641
-1.18768
0.349639
0.00508236
0.0111247
0.0340083
-0.0994324
0.0878358
-0.311161
0.145709
-0.540139
0.194199
-0.720935
0.231312
-0.851833
0.260204
-0.951262
0.28449
-1.03723
0.307549
-1.11947
-1.21012
0.329988
0.00652413
0.00460058
0.0392639
-0.132172
0.0941065
-0.366004
0.147919
-0.593952
0.190757
-0.763773
0.222719
-0.883795
0.247638
-0.976181
0.269022
-1.05861
0.289705
-1.14015
-1.23044
0.310025
0.00821621
-0.00361563
0.044343
-0.168299
0.0987371
-0.420398
0.147975
-0.643189
0.185414
-0.801212
0.212791
-0.911173
0.234271
-0.997661
0.253091
-1.07743
0.271565
-1.15863
-1.2487
0.289823
0.0101136
-0.0137292
0.0490295
-0.207215
0.101703
-0.473071
0.146142
-0.687628
0.178538
-0.833608
0.201858
-0.934493
0.220331
-1.01613
0.236833
-1.09393
0.253202
-1.175
-1.26492
0.269418
0.0121353
-0.0258645
0.0531205
-0.2482
0.103076
-0.523027
0.142689
-0.727241
0.170449
-0.861369
0.19018
-0.954224
0.205989
-1.03194
0.220345
-1.10829
0.234672
-1.18932
-1.2791
0.248852
0.014186
-0.0400505
0.0564449
-0.290459
0.102982
-0.569563
0.137874
-0.762134
0.161416
-0.884911
0.177962
-0.97077
0.191369
-1.04535
0.203696
-1.12062
0.216017
-1.20164
-1.29124
0.228157
0.0161784
-0.0562288
0.0588857
-0.333166
0.101574
-0.612252
0.131934
-0.792493
0.151658
-0.904635
0.165362
-0.984473
0.176562
-1.05655
0.186935
-1.13099
0.197274
-1.21198
-1.30133
0.207367
0.0180416
-0.0742704
0.060388
-0.375513
0.0990166
-0.650881
0.125082
-0.818559
0.141357
-0.92091
0.1525
-0.995616
0.16164
-1.06569
0.170107
-1.13946
0.178475
-1.22035
-1.30937
0.186515
0.0197174
-0.0939878
0.0609529
-0.416748
0.0954713
-0.685399
0.117507
-0.840595
0.130661
-0.934064
0.13947
-1.00443
0.146654
-1.07287
0.153246
-1.14605
0.159649
-1.22675
-1.31535
0.165633
0.0211528
-0.115141
0.0606206
-0.456216
0.0910902
-0.715869
0.109371
-0.858875
0.11969
-0.944384
0.126345
-1.01108
0.131648
-1.07818
0.136384
-1.15078
0.140825
-1.23119
-1.31928
0.144753
0.0222977
-0.137438
0.0594492
-0.493368
0.0860115
-0.742431
0.100813
-0.873677
0.108542
-0.952113
0.11318
-1.01572
0.116655
-1.08165
0.119547
-1.15368
0.122032
-1.23368
-1.32116
0.123911
0.0231089
-0.160547
0.0575269
-0.527786
0.0803615
-0.765265
0.0919498
-0.885265
0.0972947
-0.957458
0.100022
-1.01844
0.101705
-1.08333
0.102761
-1.15473
0.103298
-1.23422
-1.32101
0.103148
0.0235579
-0.184105
0.0550324
-0.55926
0.0742583
-0.784491
0.0828761
-0.893883
0.0860095
-0.960591
0.0869052
-1.01934
0.0868228
-1.08325
0.0860494
-1.15396
0.084652
-1.23282
-1.31887
0.0825163
0.0236331
-0.207738
0.0520306
-0.587658
0.0678062
-0.800267
0.0736708
-0.899747
0.074736
-0.961657
0.073861
-1.01847
0.0720328
-1.08142
0.0694344
-1.15136
0.0661145
-1.2295
-1.31474
0.0619816
0.02334
-0.231078
0.0485933
-0.612911
0.0610955
-0.812769
0.0644002
-0.903052
0.0635139
-0.96077
0.0609146
-1.01587
0.0573564
-1.07787
0.0529424
-1.14695
0.0477038
-1.22426
-1.3086
0.0415607
0.0227001
-0.253778
0.0447944
-0.635005
0.0542055
-0.82218
0.0551185
-0.903965
0.0523751
-0.958027
0.0480884
-1.01158
0.0428135
-1.07259
0.0365988
-1.14073
0.029464
-1.21712
-1.30041
0.0212797
0.0217468
-0.275525
0.0407041
-0.653963
0.0471871
-0.828663
0.0458693
-0.902647
0.0413464
-0.953504
0.0354023
-1.00564
0.0284229
-1.06561
0.0204171
-1.13273
0.0114591
-1.20817
-1.29003
0.00107404
0.020521
-0.296046
0.0363881
-0.66983
0.0400979
-0.832373
0.0366889
-0.899238
0.0304505
-0.947265
0.0228737
-0.998058
0.0142026
-1.05694
0.00437328
-1.1229
-0.00630304
-1.19749
-1.27768
-0.0186507
0.0190662
-0.315112
0.0319067
-0.68267
0.0329907
-0.833457
0.0276082
-0.893856
0.0197055
-0.939363
0.0105123
-0.988865
0.000132579
-1.04656
-0.0113264
-1.11144
-0.0239433
-1.18487
-1.26351
-0.0381185
0.0174249
-0.332537
0.0273141
-0.692559
0.0259091
-0.832052
0.0186534
-0.8866
0.00911761
-0.929827
-0.00167623
-0.978071
-0.0135952
-1.03464
-0.0267759
-1.09826
-0.041286
-1.17036
-1.24747
-0.0573181
0.0156371
-0.348174
0.0226587
-0.699581
0.0188891
-0.828282
0.00984508
-0.877556
-0.00132186
-0.91866
-0.013547
-0.965846
-0.0271278
-1.02106
-0.0419947
-1.08339
-0.0583333
-1.15402
-1.2296
-0.0762045
0.0137394
-0.361914
0.0179829
-0.703824
0.0119584
-0.822258
0.00117373
-0.866771
-0.0113878
-0.906099
-0.0252292
-0.952005
-0.0404128
-1.00588
-0.0569486
-1.06686
-0.0750662
-1.13591
-1.20991
-0.0947579
0.0117653
-0.373679
0.0133236
-0.705383
0.00512762
-0.814062
-0.00721069
-0.854433
-0.0212904
-0.892019
-0.0366776
-0.936618
-0.0534335
-0.989121
-0.0716131
-1.04868
-0.091469
-1.11605
-1.18843
-0.11295
0.00974472
-0.383424
0.00871611
-0.704354
-0.00157407
-0.803772
-0.0154215
-0.840586
-0.0309754
-0.876465
-0.0478737
-0.919719
-0.0661734
-0.970822
-0.0859666
-1.02888
-0.107523
-1.09449
-1.16519
-0.13076
0.00770275
-0.391126
0.00420041
-0.700852
-0.00796277
-0.791608
-0.02343
-0.825118
-0.0404255
-0.859469
-0.0588033
-0.901342
-0.0786175
-0.951007
-0.0999909
-1.00751
-0.123211
-1.07127
-1.14024
-0.148165
0.0056582
-0.396785
-0.000130937
-0.695063
-0.0142203
-0.777519
-0.0312212
-0.808118
-0.0496302
-0.84106
-0.069454
-0.881518
-0.0907511
-0.92971
-0.113669
-0.984591
-0.138517
-1.04643
-1.11361
-0.165144
0.00362942
-0.400414
-0.00468434
-0.686749
-0.0203156
-0.761888
-0.0387809
-0.789652
-0.0585778
-0.821263
-0.079814
-0.860282
-0.10256
-0.906964
-0.126988
-0.960163
-0.153423
-1.01999
-1.08537
-0.181671
0.00165274
-0.402067
-0.00898601
-0.67611
-0.0262305
-0.744643
-0.0461001
-0.769783
-0.0672581
-0.800105
-0.0898722
-0.837668
-0.114032
-0.882805
-0.139931
-0.934264
-0.167912
-0.99201
-1.05556
-0.197718
-0.00023988
-0.401827
-0.01312
-0.66323
-0.0319552
-0.725808
-0.053174
-0.748564
-0.0756613
-0.777618
-0.0996174
-0.813711
-0.125153
-0.857269
-0.15249
-0.906927
-0.181968
-0.962532
-1.02424
-0.213292
-0.00236537
-0.399461
-0.0171026
-0.648493
-0.0374771
-0.705434
-0.0599967
-0.726044
-0.0837783
-0.753836
-0.109039
-0.788451
-0.135916
-0.830391
-0.164665
-0.878178
-0.195584
-0.931614
-0.99146
-0.22836
-0.00434428
-0.395117
-0.0209323
-0.631905
-0.0427847
-0.683581
-0.0665624
-0.702267
-0.0916006
-0.728798
-0.118127
-0.761924
-0.146312
-0.802206
-0.17645
-0.84804
-0.208713
-0.899351
-0.95749
-0.242683
-0.00623668
-0.388881
-0.0246064
-0.613535
-0.0478719
-0.660316
-0.0728657
-0.677273
-0.0991201
-0.702544
-0.126873
-0.734172
-0.156331
-0.772748
-0.187798
-0.816573
-0.221366
-0.865783
-0.922723
-0.256133
-0.00804884
-0.380832
-0.0281214
-0.593463
-0.0527341
-0.635703
-0.0789011
-0.651106
-0.10633
-0.675115
-0.135267
-0.705234
-0.165956
-0.742059
-0.198656
-0.783873
-0.233073
-0.831366
-0.885762
-0.270034
-0.00978106
-0.371051
-0.0314742
-0.571769
-0.0573677
-0.60981
-0.0846639
-0.62381
-0.113223
-0.646557
-0.143303
-0.675154
-0.175166
-0.710197
-0.208983
-0.750056
-0.24466
-0.795689
-0.847212
-0.283209
-0.011432
-0.359619
-0.0346619
-0.548539
-0.0617699
-0.582701
-0.0901494
-0.59543
-0.119793
-0.616914
-0.150971
-0.643975
-0.18396
-0.677208
-0.21892
-0.715096
-0.255973
-0.758635
-0.807327
-0.295859
-0.0129996
-0.346619
-0.0376818
-0.523857
-0.0659384
-0.554445
-0.0953534
-0.566015
-0.126033
-0.586234
-0.15826
-0.611748
-0.192315
-0.643154
-0.228361
-0.67905
-0.266636
-0.72036
-0.766176
-0.307786
-0.0144818
-0.332137
-0.0405313
-0.497808
-0.0698709
-0.525105
-0.100272
-0.535614
-0.131939
-0.554566
-0.165165
-0.578523
-0.200236
-0.608082
-0.237341
-0.641946
-0.276772
-0.680929
-0.723881
-0.319067
-0.0158763
-0.316261
-0.0432084
-0.470476
-0.0735653
-0.494748
-0.104901
-0.504278
-0.137504
-0.521963
-0.171674
-0.544353
-0.207709
-0.572047
-0.245817
-0.603838
-0.286323
-0.640422
-0.680513
-0.329691
-0.0171805
-0.29908
-0.0457113
-0.441945
-0.07702
-0.46344
-0.109238
-0.472061
-0.142723
-0.488478
-0.177783
-0.509292
-0.214726
-0.535104
-0.253783
-0.564781
-0.295296
-0.59891
-0.636145
-0.339664
-0.0183916
-0.280689
-0.0480384
-0.412298
-0.080233
-0.431245
-0.113278
-0.439016
-0.14759
-0.454166
-0.183484
-0.473398
-0.22128
-0.497308
-0.261226
-0.524834
-0.303674
-0.556463
-0.590843
-0.348976
-0.0195056
-0.261183
-0.0501881
-0.381616
-0.0832031
-0.39823
-0.117019
-0.4052
-0.152101
-0.419085
-0.188771
-0.436728
-0.22736
-0.458719
-0.268134
-0.484061
-0.311448
-0.513148
-0.544673
-0.357618
-0.0205158
-0.240667
-0.0521586
-0.349973
-0.085929
-0.36446
-0.120458
-0.370671
-0.156251
-0.383292
-0.193638
-0.399341
-0.232961
-0.419395
-0.274499
-0.442523
-0.31861
-0.469037
-0.497703
-0.36558
-0.0214076
-0.21926
-0.0539488
-0.317432
-0.0884104
-0.329998
-0.123593
-0.335488
-0.160037
-0.346848
-0.198079
-0.361299
-0.238074
-0.3794
-0.280311
-0.400286
-0.325149
-0.424199
-0.450003
-0.37285
-0.0222261
-0.197034
-0.0555608
-0.284097
-0.0906469
-0.294912
-0.126421
-0.299714
-0.163455
-0.309814
-0.20209
-0.322665
-0.242694
-0.338796
-0.285564
-0.357416
-0.331057
-0.378706
-0.401643
-0.379416
-0.022971
-0.174063
-0.0569954
-0.250072
-0.0926379
-0.259269
-0.12894
-0.263413
-0.166501
-0.272252
-0.205666
-0.2835
-0.246815
-0.297647
-0.29025
-0.313981
-0.336325
-0.332631
-0.352697
-0.385271
-0.02363
-0.150433
-0.0582522
-0.21545
-0.0943823
-0.223139
-0.131147
-0.226648
-0.169173
-0.234227
-0.208803
-0.24387
-0.25043
-0.256019
-0.294363
-0.270048
-0.340947
-0.286047
-0.303241
-0.390403
-0.0241985
-0.126234
-0.0593306
-0.180318
-0.0958794
-0.186591
-0.133043
-0.189484
-0.171467
-0.195802
-0.211498
-0.203839
-0.253537
-0.21398
-0.297896
-0.225689
-0.344916
-0.239028
-0.25335
-0.394807
-0.0246741
-0.10156
-0.06023
-0.144762
-0.0971282
-0.149692
-0.134624
-0.151988
-0.173383
-0.157044
-0.213748
-0.163474
-0.256131
-0.171597
-0.300844
-0.180976
-0.348224
-0.191648
-0.203098
-0.398475
-0.0250556
-0.0765046
-0.0609501
-0.108868
-0.0981281
-0.112514
-0.135891
-0.114225
-0.174917
-0.118018
-0.215551
-0.122841
-0.258209
-0.128939
-0.303206
-0.135979
-0.350871
-0.143983
-0.152563
-0.401406
-0.0253421
-0.0511625
-0.0614905
-0.0727194
-0.0988785
-0.0751264
-0.136842
-0.0762614
-0.176069
-0.0787906
-0.216904
-0.0820058
-0.259769
-0.0860742
-0.304978
-0.09077
-0.352855
-0.0961054
-0.101821
-0.403598
-0.0255334
-0.0256291
-0.0618508
-0.036402
-0.099379
-0.0375983
-0.137476
-0.0381642
-0.176838
-0.0394289
-0.217807
-0.0410366
-0.26081
-0.0430716
-0.30616
-0.0454202
-0.354177
-0.0480876
-0.0509431
-0.405055
-0.0256291
-1.33009e-09
-0.062031
-1.80639e-09
-0.0996293
-1.75701e-09
-0.137793
-1.66003e-09
-0.177222
-1.57685e-09
-0.218259
-1.49769e-09
-0.26133
-1.42642e-09
-0.306751
-1.36151e-09
-0.354838
-1.30216e-09
-1.24265e-09
-0.405781
-0.0256291
0.0256291
-0.062031
0.036402
-0.0996293
0.0375982
-0.137793
0.0381642
-0.177222
0.0394289
-0.218259
0.0410365
-0.26133
0.0430715
-0.306751
0.0454202
-0.354838
0.0480876
0.0509431
-0.405781
-0.0255334
0.0511625
-0.0618508
0.0727194
-0.099379
0.0751264
-0.137476
0.0762614
-0.176838
0.0787906
-0.217807
0.0820058
-0.26081
0.0860742
-0.30616
0.0907699
-0.354177
0.0961054
0.101821
-0.405055
-0.0253421
0.0765046
-0.0614905
0.108868
-0.0988785
0.112514
-0.136842
0.114225
-0.176069
0.118018
-0.216904
0.122841
-0.259769
0.128939
-0.304978
0.135979
-0.352855
0.143983
0.152563
-0.403598
-0.0250556
0.10156
-0.0609501
0.144762
-0.0981281
0.149692
-0.135891
0.151988
-0.174917
0.157044
-0.215551
0.163474
-0.258209
0.171597
-0.303206
0.180976
-0.350871
0.191648
0.203098
-0.401406
-0.0246741
0.126234
-0.06023
0.180318
-0.0971282
0.186591
-0.134624
0.189484
-0.173383
0.195802
-0.213748
0.203839
-0.256131
0.21398
-0.300844
0.225689
-0.348224
0.239028
0.25335
-0.398475
-0.0241985
0.150433
-0.0593306
0.21545
-0.0958794
0.223139
-0.133043
0.226648
-0.171467
0.234227
-0.211498
0.24387
-0.253537
0.256019
-0.297896
0.270048
-0.344916
0.286047
0.303241
-0.394807
-0.02363
0.174063
-0.0582522
0.250072
-0.0943823
0.259269
-0.131147
0.263413
-0.169173
0.272252
-0.208803
0.2835
-0.25043
0.297647
-0.294363
0.313981
-0.340947
0.332631
0.352697
-0.390403
-0.022971
0.197034
-0.0569954
0.284097
-0.0926379
0.294912
-0.12894
0.299714
-0.166501
0.309814
-0.205666
0.322665
-0.246815
0.338796
-0.29025
0.357416
-0.336325
0.378706
0.401643
-0.385271
-0.0222261
0.21926
-0.0555608
0.317432
-0.0906469
0.329998
-0.126421
0.335488
-0.163455
0.346848
-0.20209
0.361299
-0.242694
0.3794
-0.285564
0.400286
-0.331057
0.424199
0.450003
-0.379416
-0.0214076
0.240667
-0.0539488
0.349973
-0.0884104
0.36446
-0.123593
0.370671
-0.160037
0.383292
-0.198079
0.399341
-0.238074
0.419395
-0.280311
0.442523
-0.325149
0.469037
0.497703
-0.37285
-0.0205158
0.261183
-0.0521586
0.381616
-0.085929
0.39823
-0.120458
0.4052
-0.156251
0.419085
-0.193638
0.436728
-0.232961
0.458719
-0.274499
0.484061
-0.31861
0.513148
0.544673
-0.36558
-0.0195056
0.280689
-0.0501881
0.412298
-0.0832031
0.431245
-0.117019
0.439016
-0.152101
0.454166
-0.188771
0.473398
-0.22736
0.497308
-0.268134
0.524834
-0.311448
0.556463
0.590843
-0.357618
-0.0183916
0.29908
-0.0480384
0.441945
-0.080233
0.46344
-0.113278
0.472061
-0.14759
0.488478
-0.183484
0.509292
-0.22128
0.535104
-0.261226
0.564781
-0.303674
0.59891
0.636145
-0.348976
-0.0171805
0.316261
-0.0457113
0.470476
-0.07702
0.494748
-0.109238
0.504278
-0.142723
0.521963
-0.177783
0.544353
-0.214726
0.572047
-0.253783
0.603838
-0.295296
0.640422
0.680513
-0.339664
-0.0158763
0.332137
-0.0432084
0.497808
-0.0735653
0.525105
-0.104901
0.535614
-0.137504
0.554566
-0.171674
0.578523
-0.207709
0.608082
-0.245817
0.641946
-0.286323
0.680929
0.723881
-0.329691
-0.0144818
0.346619
-0.0405313
0.523857
-0.0698709
0.554445
-0.100272
0.566015
-0.131939
0.586234
-0.165165
0.611748
-0.200236
0.643154
-0.237341
0.67905
-0.276772
0.72036
0.766176
-0.319067
-0.0129996
0.359619
-0.0376818
0.548539
-0.0659384
0.582701
-0.0953534
0.59543
-0.126033
0.616914
-0.15826
0.643975
-0.192315
0.677208
-0.228361
0.715096
-0.266636
0.758635
0.807327
-0.307786
-0.011432
0.371051
-0.0346619
0.571769
-0.0617699
0.609809
-0.0901494
0.62381
-0.119793
0.646557
-0.150971
0.675154
-0.18396
0.710197
-0.21892
0.750056
-0.255973
0.795689
0.847212
-0.295859
-0.00978106
0.380832
-0.0314742
0.593463
-0.0573677
0.635703
-0.0846639
0.651106
-0.113223
0.675115
-0.143303
0.705234
-0.175166
0.742059
-0.208983
0.783873
-0.24466
0.831366
0.885762
-0.283209
-0.00804884
0.388881
-0.0281214
0.613535
-0.0527341
0.660316
-0.0789011
0.677273
-0.10633
0.702544
-0.135267
0.734172
-0.165956
0.772748
-0.198656
0.816573
-0.233073
0.865783
0.922723
-0.270034
-0.00623668
0.395117
-0.0246064
0.631905
-0.0478719
0.683581
-0.0728657
0.702267
-0.0991201
0.728798
-0.126873
0.761924
-0.156331
0.802206
-0.187798
0.84804
-0.221366
0.899351
0.95749
-0.256133
-0.00434428
0.399461
-0.0209323
0.648493
-0.0427847
0.705434
-0.0665624
0.726044
-0.0916006
0.753836
-0.118127
0.788451
-0.146312
0.830391
-0.17645
0.878178
-0.208713
0.931614
0.99146
-0.242683
-0.00236537
0.401827
-0.0171026
0.66323
-0.0374771
0.725808
-0.0599967
0.748564
-0.0837783
0.777618
-0.109039
0.813711
-0.135916
0.857269
-0.164665
0.906927
-0.195584
0.962532
1.02424
-0.22836
-0.00023988
0.402067
-0.01312
0.67611
-0.0319552
0.744643
-0.053174
0.769783
-0.0756613
0.800105
-0.0996174
0.837668
-0.125153
0.882805
-0.15249
0.934264
-0.181968
0.99201
1.05556
-0.213292
0.00165274
0.400414
-0.00898601
0.686749
-0.0262305
0.761888
-0.0461001
0.789652
-0.0672581
0.821263
-0.0898722
0.860282
-0.114032
0.906964
-0.139931
0.960163
-0.167912
1.01999
1.08537
-0.197718
0.00362942
0.396785
-0.00468434
0.695063
-0.0203156
0.777519
-0.0387809
0.808118
-0.0585778
0.84106
-0.079814
0.881518
-0.10256
0.92971
-0.126988
0.984591
-0.153423
1.04643
1.11361
-0.181671
0.0056582
0.391126
-0.000130937
0.700852
-0.0142203
0.791608
-0.0312212
0.825118
-0.0496302
0.859469
-0.069454
0.901342
-0.0907511
0.951007
-0.113669
1.00751
-0.138517
1.07127
1.14024
-0.165144
0.00770275
0.383424
0.00420041
0.704354
-0.00796277
0.803772
-0.02343
0.840586
-0.0404255
0.876465
-0.0588033
0.919719
-0.0786175
0.970822
-0.0999909
1.02888
-0.123211
1.09449
1.16519
-0.148165
0.00974472
0.373679
0.00871611
0.705383
-0.00157407
0.814062
-0.0154215
0.854433
-0.0309754
0.892019
-0.0478736
0.936618
-0.0661734
0.989121
-0.0859666
1.04868
-0.107523
1.11605
1.18843
-0.13076
0.0117653
0.361914
0.0133236
0.703824
0.00512762
0.822258
-0.00721069
0.866771
-0.0212904
0.906099
-0.0366776
0.952005
-0.0534335
1.00588
-0.0716131
1.06686
-0.091469
1.13591
1.20991
-0.11295
0.0137394
0.348174
0.0179829
0.699581
0.0119584
0.828282
0.00117373
0.877556
-0.0113878
0.91866
-0.0252292
0.965846
-0.0404128
1.02106
-0.0569486
1.08339
-0.0750662
1.15402
1.2296
-0.0947579
0.0156371
0.332537
0.0226587
0.692559
0.0188891
0.832052
0.00984508
0.8866
-0.00132186
0.929827
-0.013547
0.978071
-0.0271278
1.03464
-0.0419947
1.09826
-0.0583333
1.17036
1.24747
-0.0762045
0.0174249
0.315112
0.0273141
0.68267
0.0259091
0.833457
0.0186534
0.893856
0.00911761
0.939363
-0.00167623
0.988865
-0.0135952
1.04656
-0.0267759
1.11144
-0.041286
1.18487
1.26351
-0.0573181
0.0190662
0.296046
0.0319067
0.66983
0.0329907
0.832373
0.0276082
0.899238
0.0197055
0.947265
0.0105123
0.998058
0.00013258
1.05694
-0.0113264
1.1229
-0.0239433
1.19749
1.27768
-0.0381185
0.020521
0.275525
0.0363881
0.653963
0.0400979
0.828663
0.0366889
0.902647
0.0304505
0.953504
0.0228737
1.00564
0.0142026
1.06561
0.00437328
1.13273
-0.00630304
1.20817
1.29003
-0.0186507
0.0217468
0.253778
0.0407041
0.635005
0.0471871
0.82218
0.0458693
0.903965
0.0413464
0.958027
0.0354023
1.01158
0.0284229
1.07259
0.0204171
1.14073
0.0114591
1.21712
1.30041
0.00107405
0.0227001
0.231078
0.0447944
0.612911
0.0542055
0.812769
0.0551185
0.903052
0.0523751
0.96077
0.0480884
1.01587
0.0428135
1.07787
0.0365988
1.14695
0.029464
1.22426
1.3086
0.0212797
0.02334
0.207738
0.0485933
0.587658
0.0610955
0.800267
0.0644002
0.899747
0.0635139
0.961657
0.0609146
1.01847
0.0573564
1.08142
0.0529424
1.15136
0.0477038
1.2295
1.31474
0.0415607
0.0236331
0.184105
0.0520306
0.55926
0.0678062
0.784491
0.0736708
0.893883
0.074736
0.960591
0.073861
1.01934
0.0720328
1.08325
0.0694344
1.15396
0.0661145
1.23282
1.31887
0.0619816
0.0235579
0.160547
0.0550324
0.527786
0.0742583
0.765265
0.0828761
0.885265
0.0860095
0.957458
0.0869052
1.01844
0.0868228
1.08333
0.0860494
1.15473
0.084652
1.23422
1.32101
0.0825163
0.0231089
0.137438
0.0575269
0.493368
0.0803615
0.742431
0.0919498
0.873677
0.0972947
0.952113
0.100022
1.01572
0.101705
1.08165
0.102761
1.15368
0.103298
1.23368
1.32116
0.103148
0.0222977
0.115141
0.0594492
0.456216
0.0860115
0.715869
0.100813
0.858875
0.108542
0.944384
0.11318
1.01108
0.116655
1.07818
0.119547
1.15078
0.122032
1.23119
1.31928
0.123911
0.0211528
0.0939878
0.0606206
0.416748
0.0910902
0.685399
0.109371
0.840595
0.11969
0.934064
0.126345
1.00443
0.131648
1.07287
0.136384
1.14605
0.140825
1.22675
1.31535
0.144753
0.0197174
0.0742704
0.0609529
0.375513
0.0954713
0.650881
0.117507
0.818559
0.130661
0.92091
0.13947
0.995616
0.146654
1.06569
0.153246
1.13946
0.159649
1.22035
1.30937
0.165633
0.0180416
0.0562288
0.060388
0.333166
0.0990166
0.612252
0.125082
0.792493
0.141357
0.904635
0.1525
0.984473
0.16164
1.05655
0.170107
1.13099
0.178475
1.21198
1.30133
0.186515
0.0161784
0.0400505
0.0588857
0.290459
0.101574
0.569563
0.131934
0.762134
0.151658
0.884911
0.165362
0.97077
0.176562
1.04535
0.186935
1.12062
0.197274
1.20164
1.29124
0.207367
0.014186
0.0258645
0.0564449
0.2482
0.102982
0.523027
0.137874
0.727241
0.161416
0.861369
0.177962
0.954224
0.191369
1.03194
0.203696
1.10829
0.216017
1.18932
1.2791
0.228157
0.0121353
0.0137292
0.0531205
0.207215
0.103076
0.473071
0.142689
0.687628
0.170449
0.833608
0.19018
0.934492
0.205989
1.01613
0.220345
1.09393
0.234672
1.175
1.26492
0.248852
0.0101136
0.00361563
0.0490295
0.168299
0.101703
0.420398
0.146142
0.643189
0.178538
0.801212
0.201858
0.911173
0.220331
0.997661
0.236833
1.07743
0.253202
1.15863
1.2487
0.269418
0.00821621
-0.00460058
0.044343
0.132172
0.0987371
0.366004
0.147975
0.593952
0.185414
0.763773
0.212791
0.883795
0.234271
0.976181
0.253091
1.05861
0.271565
1.14015
1.23044
0.289823
0.00652413
-0.0111247
0.0392639
0.0994324
0.0941065
0.311161
0.147919
0.540139
0.190757
0.720935
0.222719
0.851833
0.247638
0.951262
0.269022
1.03723
0.289705
1.11947
1.21012
0.310025
0.00508236
-0.0162071
0.0340083
0.0705065
0.0878358
0.257334
0.145709
0.482266
0.194199
0.672445
0.231312
0.81472
0.260204
0.92237
0.28449
1.01294
0.307549
1.09641
1.18768
0.329988
0.00389172
-0.0200988
0.028799
0.0455991
0.0800986
0.206034
0.141117
0.421247
0.195328
0.618235
0.238165
0.771883
0.271662
0.888874
0.299308
0.985294
0.32499
1.07073
1.16303
0.349639
0.00292114
-0.0230199
0.0238546
0.0246656
0.0712502
0.158639
0.133999
0.358499
0.193713
0.55852
0.24279
0.722805
0.281608
0.850056
0.313204
0.953698
0.341885
1.04205
1.13599
0.368931
0.00213036
-0.0251503
0.0193606
0.00743537
0.061789
0.11621
0.124376
0.295912
0.188946
0.49395
0.244622
0.66713
0.289518
0.80516
0.325814
0.917402
0.357985
1.00988
1.10626
0.387714
0.00148632
-0.0266366
0.0154373
-0.00651559
0.0522623
0.0793853
0.112531
0.235643
0.180705
0.425776
0.243039
0.604795
0.29473
0.753469
0.336619
0.875513
0.373016
0.973481
1.07345
0.405821
0.000967395
-0.027604
0.0121239
-0.0176721
0.0431822
0.048327
0.0990553
0.17977
0.168868
0.355964
0.237419
0.536244
0.29645
0.694439
0.344954
0.827009
0.386359
0.932076
1.03666
0.423154
0.000559603
-0.0281636
0.00939135
-0.0265039
0.0349568
0.0227615
0.0847934
0.129934
0.153651
0.287106
0.227253
0.462643
0.293728
0.627963
0.349983
0.770753
0.397489
0.884571
0.995569
0.438577
0.000251598
-0.0284152
0.00717298
-0.0334253
0.0278287
0.00210581
0.0706824
0.08708
0.135746
0.222042
0.212276
0.386113
0.285675
0.554564
0.350535
0.705894
0.405258
0.829847
0.947205
0.453622
3.30361e-05
-0.0284482
0.00539153
-0.0387838
0.0218564
-0.0143591
0.0575478
0.0513886
0.116315
0.163274
0.192755
0.309673
0.271418
0.475901
0.345929
0.631383
0.407367
0.768409
0.891459
0.463113
-0.000133759
-0.0283145
0.00396924
-0.0428867
0.0169567
-0.0273465
0.0459376
0.0224077
0.0967777
0.112434
0.169655
0.236796
0.250764
0.394792
0.333979
0.548168
0.405993
0.696395
0.834904
0.462548
-0.000243263
-0.0280712
0.00283141
-0.0459614
0.0129716
-0.0374867
0.0360641
-0.000684666
0.0784543
0.0700439
0.144589
0.170661
0.224415
0.314966
0.313532
0.459051
0.397586
0.612341
0.769987
0.462503
-0.000316635
-0.0277546
0.00190734
-0.0481854
0.00972058
-0.0453
0.0278596
-0.0188237
0.0622404
0.0356632
0.119425
0.113476
0.194063
0.240329
0.284586
0.368528
0.379114
0.517812
0.694614
0.454487
-0.000374273
-0.0273803
0.00113027
-0.0496899
0.00702616
-0.0511959
0.0210871
-0.0328847
0.0484521
0.00829814
0.0957056
0.0662227
0.162183
0.173851
0.248649
0.282063
0.34949
0.416971
0.608214
0.435891
-0.000433172
-0.0269471
0.000439909
-0.050563
0.00472736
-0.0554833
0.0154377
-0.043595
0.0369056
-0.0131698
0.0743481
0.0287802
0.131353
0.116846
0.208642
0.204773
0.309377
0.316236
0.512137
0.405454
-0.000505917
-0.0264412
-0.000215477
-0.0508535
0.00268713
-0.0583859
0.0106029
-0.0515107
0.0271617
-0.0297286
0.055742
0.00019993
0.103322
0.069266
0.168096
0.14
0.261869
0.222462
0.410463
0.363543
-0.000603344
-0.0258379
-0.000878022
-0.0505788
0.000801563
-0.0600655
0.00632157
-0.0570307
0.0187658
-0.0421729
0.0399077
-0.0209419
0.0786321
0.0305416
0.13023
0.0884017
0.211886
0.140806
0.310019
0.312331
-0.000734972
-0.0251029
-0.00156638
-0.0497474
-0.00102673
-0.0606052
0.00239743
-0.0604549
0.0113739
-0.0511493
0.0265428
-0.0361109
0.0570705
1.38904e-05
0.0971743
0.0482979
0.164091
0.0738896
0.218565
0.255545
-0.000900508
-0.0242024
-0.00229358
-0.0483543
-0.00283945
-0.0600593
-0.00126339
-0.0620309
0.00474782
-0.0571605
0.0151358
-0.0464989
0.0382667
-0.023117
0.0693495
0.0172152
0.121004
0.0222354
0.141901
0.197668
-0.00109751
-0.0231049
-0.0030599
-0.0463919
-0.00463882
-0.0584804