/*--------------------------------*- C++ -*----------------------------------*\
  =========                 |
  \\      /  F ield         | OpenFOAM: The Open Source CFD Toolbox
   \\    /   O peration     | Website:  https://openfoam.org
    \\  /    A nd           | Version:  7
     \\/     M anipulation  |
\*---------------------------------------------------------------------------*/
FoamFile
{
    version     2.0;
    format      ascii;
    class       volScalarField;
    location    "0.7";
    object      rho;
}
// * * * * * * * * * * * * * * * * * * * * * * * * * * * * * * * * * * * * * //

dimensions      [1 -3 0 0 0 0 0];

internalField   nonuniform List<scalar> 
6300
(
1.40001
1.40001
1.40001
1.40001
1.40001
1.40001
1.40001
1.40001
1.40001
1.40001
1.40001
1.40001
1.40001
1.40001
1.40001
1.40001
1.40001
1.74501
4.68083
5.57774
5.54889
5.61504
5.68496
5.74072
5.77709
5.79673
5.75387
5.59403
5.38174
5.27842
1.40001
1.40001
1.40001
1.40001
1.40001
1.40001
1.40001
1.40001
1.40001
1.40001
1.40001
1.40001
1.40001
1.40001
1.40001
1.40001
1.40001
1.70742
4.61015
5.5562
5.55314
5.61802
5.68626
5.73653
5.7684
5.78546
5.74058
5.57786
5.36504
5.26192
1.40001
1.40001
1.40001
1.40001
1.40001
1.40001
1.40001
1.40001
1.40001
1.40001
1.40001
1.40001
1.40001
1.40001
1.40001
1.40001
1.40001
1.62935
4.48516
5.54345
5.55447
5.61943
5.68113
5.72379
5.75217
5.76776
5.71981
5.55273
5.33863
5.23636
1.40001
1.40001
1.40001
1.40001
1.40001
1.40001
1.40001
1.40001
1.40001
1.40001
1.40001
1.40001
1.40001
1.40001
1.40001
1.40001
1.40001
1.51798
4.28073
5.54032
5.56049
5.61754
5.6656
5.69825
5.72468
5.74021
5.6911
5.52098
5.30589
5.20335
1.40001
1.40001
1.40001
1.40001
1.40001
1.40001
1.40001
1.40001
1.40001
1.40001
1.40001
1.40001
1.40001
1.40001
1.40001
1.40001
1.40001
1.40805
4.00812
5.52821
5.55247
5.60376
5.64233
5.66449
5.68674
5.70006
5.65294
5.48403
5.26929
5.16639
1.40001
1.40001
1.40001
1.40001
1.40001
1.40001
1.40001
1.40001
1.40001
1.40001
1.40001
1.40001
1.40001
1.40001
1.40001
1.40001
1.40001
1.40007
3.63586
5.46288
5.53134
5.58014
5.61449
5.62683
5.64595
5.65776
5.6142
5.44613
5.22546
5.11427
1.40001
1.40001
1.40001
1.40001
1.40001
1.40001
1.40001
1.40001
1.40001
1.40001
1.40001
1.40001
1.40001
1.40001
1.40001
1.40001
1.40001
1.40001
3.21507
5.35606
5.50735
5.55927
5.58835
5.593
5.6031
5.60601
5.56051
5.39325
5.16694
5.05301
1.40001
1.40001
1.40001
1.40001
1.40001
1.40001
1.40001
1.40001
1.40001
1.40001
1.40001
1.40001
1.40001
1.40001
1.40001
1.40001
1.40001
1.40001
2.75745
5.22246
5.498
5.53899
5.55248
5.54785
5.54922
5.54705
5.5031
5.33893
5.10397
4.95494
1.40001
1.40001
1.40001
1.40001
1.40001
1.40001
1.40001
1.40001
1.40001
1.40001
1.40001
1.40001
1.40001
1.40001
1.40001
1.40001
1.40001
1.40001
2.25737
5.04045
5.5149
5.51202
5.50865
5.49304
5.47921
5.46444
5.41199
5.23519
4.9758
4.81686
1.40001
1.40001
1.40001
1.40001
1.40001
1.40001
1.40001
1.40001
1.40001
1.40001
1.40001
1.40001
1.40001
1.40001
1.40001
1.40001
1.40001
1.40001
1.77122
4.74088
5.56776
5.51721
5.47485
5.42533
5.38465
5.35159
5.2969
5.14147
4.85406
4.67078
1.40001
1.40001
1.40001
1.40001
1.40001
1.40001
1.40001
1.40001
1.40001
1.40001
1.40001
1.40001
1.40001
1.40001
1.40001
1.40001
1.40001
1.40001
1.43412
4.1636
5.44345
5.43282
5.41049
5.36221
5.30955
5.25273
5.17492
4.98438
4.52568
3.55205
1.40001
1.40001
1.40001
1.40001
1.40001
1.40001
1.40001
1.40001
1.40001
1.40001
1.40001
1.40001
1.40001
1.40001
1.40001
1.40001
1.40001
1.40001
1.40033
3.32839
5.24519
5.35344
5.33712
5.30012
5.24245
5.15369
5.03525
4.78958
4.34018
3.36633
1.40001
1.40001
1.40001
1.40001
1.40001
1.40001
1.40001
1.40001
1.40001
1.40001
1.40001
1.40001
1.40001
1.40001
1.40001
1.40001
1.40001
1.40001
1.40001
2.43333
4.99783
5.30666
5.27303
5.22419
5.15342
5.04287
4.89786
4.63585
4.20946
3.343
1.40001
1.40001
1.40001
1.40001
1.40001
1.40001
1.40001
1.40001
1.40001
1.40001
1.40001
1.40001
1.40001
1.40001
1.40001
1.40001
1.40001
1.40001
1.40001
1.62377
4.51409
5.30787
5.23327
5.16488
5.07226
4.9398
4.76507
4.51565
4.07369
3.3979
1.40001
1.40001
1.40001
1.40001
1.40001
1.40001
1.40001
1.40001
1.40001
1.40001
1.40001
1.40001
1.40001
1.40001
1.40001
1.40001
1.40001
1.40001
1.40001
1.40766
3.50398
5.12847
5.18088
5.1285
5.0334
4.88292
4.68332
4.41982
4.00262
3.47294
1.40001
1.40001
1.40001
1.40001
1.40001
1.40001
1.40001
1.40001
1.40001
1.40001
1.40001
1.40001
1.40001
1.40001
1.40001
1.40001
1.40001
1.40001
1.40001
1.4
2.29227
4.91913
5.17435
5.07683
4.97552
4.81363
4.6155
4.3316
3.96617
3.53767
1.40001
1.40001
1.40001
1.40001
1.40001
1.40001
1.40001
1.40001
1.40001
1.40001
1.40001
1.40001
1.40001
1.40001
1.40001
1.40001
1.40001
1.40001
1.40001
1.4
1.52283
4.15388
5.10856
5.01183
4.91905
4.75594
4.5531
4.28436
3.96681
3.60006
1.40001
1.40001
1.40001
1.40001
1.40001
1.40001
1.40001
1.40001
1.40001
1.40001
1.40001
1.40001
1.40001
1.40001
1.40001
1.40001
1.40001
1.40001
1.40001
1.40001
1.40178
2.78764
4.96576
5.00461
4.89001
4.71365
4.50717
4.25036
3.95802
3.63901
1.40001
1.40001
1.40001
1.40001
1.40001
1.40001
1.40001
1.40001
1.40001
1.40001
1.40001
1.40001
1.40001
1.40001
1.40001
1.40001
1.40001
1.40001
1.40001
1.40001
1.40001
1.65449
4.34856
5.01073
4.86203
4.68661
4.48149
4.23594
3.96337
3.67976
1.40001
1.40001
1.40001
1.40001
1.40001
1.40001
1.40001
1.40001
1.40001
1.40001
1.40001
1.40001
1.40001
1.40001
1.40001
1.40001
1.40001
1.40001
1.40001
1.40001
1.40001
1.40749
2.92675
4.83838
4.84826
4.69035
4.48902
4.2443
3.98422
3.72492
1.40001
1.40001
1.40001
1.40001
1.40001
1.40001
1.40001
1.40001
1.40001
1.40001
1.40001
1.40001
1.40001
1.40001
1.40001
1.40001
1.40001
1.40001
1.40001
1.40001
1.40001
1.40002
1.69642
4.22198
4.86343
4.69226
4.49381
4.26205
4.0155
3.77039
1.40001
1.40001
1.40001
1.40001
1.40001
1.40001
1.40001
1.40001
1.40001
1.40001
1.40001
1.40001
1.40001
1.40001
1.40001
1.40001
1.40001
1.40001
1.40001
1.40001
1.40001
1.40001
1.40974
2.6737
4.65855
4.7143
4.53216
4.31637
4.07761
3.83907
1.40001
1.40001
1.40001
1.40001
1.40001
1.40001
1.40001
1.40001
1.40001
1.40001
1.40001
1.40001
1.40001
1.40001
1.40001
1.40001
1.40001
1.40001
1.40001
1.40001
1.40001
1.40001
1.40004
1.60134
3.80172
4.69906
4.55679
4.3522
4.12434
3.89337
1.40001
1.40001
1.40001
1.40001
1.40001
1.40001
1.40001
1.40001
1.40001
1.40001
1.40001
1.40001
1.40001
1.40001
1.40001
1.40001
1.40001
1.40001
1.40001
1.40001
1.40001
1.40001
1.40001
1.4044
2.22021
4.35887
4.63465
4.42467
4.21455
3.9828
1.40001
1.40001
1.40001
1.40001
1.40001
1.40001
1.40001
1.40001
1.40001
1.40001
1.40001
1.40001
1.40001
1.40001
1.40001
1.40001
1.40001
1.40001
1.40001
1.40001
1.40001
1.40001
1.40001
1.40002
1.47926
3.04885
4.47585
4.45291
4.24902
4.04626
1.40001
1.40001
1.40001
1.40001
1.40001
1.40001
1.40001
1.40001
1.40001
1.40001
1.40001
1.40001
1.40001
1.40001
1.40001
1.40001
1.40001
1.40001
1.40001
1.40001
1.40001
1.40001
1.40001
1.40001
1.40107
1.75302
3.67586
4.47518
4.34118
4.1254
1.40001
1.40001
1.40001
1.40001
1.40001
1.40001
1.40001
1.40001
1.40001
1.40001
1.40001
1.40001
1.40001
1.40001
1.40001
1.40001
1.40001
1.40001
1.40001
1.40001
1.40001
1.40001
1.40001
1.40001
1.40001
1.41429
2.17517
4.0255
4.41149
4.24782
1.40001
1.40001
1.40001
1.40001
1.40001
1.40001
1.40001
1.40001
1.40001
1.40001
1.40001
1.40001
1.40001
1.40001
1.40001
1.40001
1.40001
1.40001
1.40001
1.40001
1.40001
1.40001
1.40001
1.40001
1.40001
1.4001
1.46908
2.6248
4.16784
4.31248
1.40001
1.40001
1.40001
1.40001
1.40001
1.40001
1.40001
1.40001
1.40001
1.40001
1.40001
1.40001
1.40001
1.40001
1.40001
1.40001
1.40001
1.40001
1.40001
1.40001
1.40001
1.40001
1.40001
1.40001
1.40001
1.40001
1.40098
1.58263
2.98058
4.18365
1.40001
1.40001
1.40001
1.40001
1.40001
1.40001
1.40001
1.40001
1.40001
1.40001
1.40001
1.40001
1.40001
1.40001
1.40001
1.40001
1.40001
1.40001
1.40001
1.40001
1.40001
1.40001
1.40001
1.40001
1.40001
1.40001
1.40001
1.40467
1.72399
3.22092
1.40001
1.40001
1.40001
1.40001
1.40001
1.40001
1.40001
1.40001
1.40001
1.40001
1.40001
1.40001
1.40001
1.40001
1.40001
1.40001
1.40001
1.40001
1.40001
1.40001
1.40001
1.40001
1.40001
1.40001
1.40001
1.40001
1.40001
1.40003
1.41281
1.86343
1.40001
1.40001
1.40001
1.40001
1.40001
1.40001
1.40001
1.40001
1.40001
1.40001
1.40001
1.40001
1.40001
1.40001
1.40001
1.40001
1.40001
1.40001
1.40001
1.40001
1.40001
1.40001
1.40001
1.40001
1.40001
1.40001
1.40001
1.40001
1.40009
1.42518
1.40001
1.40001
1.40001
1.40001
1.40001
1.40001
1.40001
1.40001
1.40001
1.40001
1.40001
1.40001
1.40001
1.40001
1.40001
1.40001
1.40001
1.40001
1.40001
1.40001
1.40001
1.40001
1.40001
1.40001
1.40001
1.40001
1.40001
1.40001
1.40001
1.40024
1.40001
1.40001
1.40001
1.40001
1.40001
1.40001
1.40001
1.40001
1.40001
1.40001
1.40001
1.40001
1.40001
1.40001
1.40001
1.40001
1.40001
1.40001
1.40001
1.40001
1.40001
1.40001
1.40001
1.40001
1.40001
1.40001
1.40001
1.40001
1.40001
1.40001
1.40001
1.40001
1.40001
1.40001
1.40001
1.40001
1.40001
1.40001
1.40001
1.40001
1.40001
1.40001
1.40001
1.40001
1.40001
1.40001
1.40001
1.40001
1.40001
1.40001
1.40001
1.40001
1.40001
1.40001
1.40001
1.40001
1.40001
1.40001
1.40001
1.40001
1.40001
1.40001
1.40001
1.40001
1.40001
1.40001
1.40001
1.40001
1.40001
1.40001
1.40001
1.40001
1.40001
1.40001
1.40001
1.40001
1.40001
1.40001
1.40001
1.40001
1.40001
1.40001
1.40001
1.40001
1.40001
1.40001
1.40001
1.40001
1.40001
1.40001
1.40001
1.40001
1.40001
1.40001
1.40001
1.40001
1.40001
1.40001
1.40001
1.40001
1.40001
1.40001
1.40001
1.40001
1.40001
1.40001
1.40001
1.40001
1.40001
1.40001
1.40001
1.40001
1.40001
1.40001
1.40001
1.40001
1.40001
1.40001
1.40001
1.40001
1.40001
1.40001
1.40001
1.40001
1.40001
1.40001
1.40001
1.40001
1.40001
1.40001
1.40001
1.40001
1.40001
1.40001
1.40001
1.40001
1.40001
1.40001
1.40001
1.40001
1.40001
1.40001
1.40001
1.40001
1.40001
1.40001
1.40001
1.40001
1.40001
1.40001
1.40001
1.40001
1.40001
1.40001
1.40001
1.40001
1.40001
1.40001
1.40001
1.40001
1.40001
1.40001
1.40001
1.40001
1.40001
1.40001
1.40001
1.40001
1.40001
1.40001
1.40001
1.40001
1.40001
1.40001
1.40001
1.40001
1.40001
1.40001
1.40001
1.40001
1.40001
1.40001
1.40001
1.40001
1.40001
1.40001
1.40001
1.40001
1.40001
1.40001
1.40001
1.40001
1.40001
1.40001
1.40001
1.40001
1.40001
1.40001
1.40001
1.40001
1.40001
1.40001
1.40001
1.40001
1.40001
1.40001
1.40001
1.40001
1.40001
1.40001
1.40001
1.40001
1.40001
1.40001
1.40001
1.40001
1.40001
1.40001
1.40001
1.40001
1.40001
1.40001
1.40001
1.40001
1.40001
1.40001
1.40001
1.40001
1.40001
1.40001
1.40001
1.40001
1.40001
1.40001
1.40001
1.40001
1.40001
1.40001
1.40001
1.40001
1.40001
1.40001
1.40001
1.40001
1.40001
1.40001
1.40001
1.40001
1.40001
1.40001
1.40001
1.40001
1.40001
1.40001
1.40001
1.40001
1.40001
1.40001
1.40001
1.40001
1.40001
1.40001
1.40001
1.40001
1.40001
1.40001
1.40001
1.40001
1.40001
1.40001
1.40001
1.40001
1.40001
1.40001
1.40001
1.40001
1.40001
1.40001
1.40001
1.40001
1.40001
1.40001
1.40001
1.40001
1.40001
1.40001
1.40001
1.40001
1.40001
1.40001
1.40001
1.40001
1.40001
1.40001
1.40001
1.40001
1.40001
1.40001
1.40001
1.40001
1.40001
1.40001
1.40001
1.40001
1.40001
1.40001
1.40001
1.40001
1.40001
1.40001
1.40001
1.40001
1.40001
1.40001
1.40001
1.40001
1.40001
1.40001
1.40001
1.40001
1.40001
1.40001
1.40001
1.40001
1.40001
1.40001
1.40001
1.40001
1.40001
1.40001
1.40001
1.40001
1.40001
1.40001
1.40001
1.40001
1.40001
1.40001
1.40001
1.40001
1.40001
1.40001
1.40001
1.40001
1.40001
1.40001
1.40001
1.40001
1.40001
1.40001
1.40001
1.40001
1.40001
1.40001
1.40001
1.40001
1.40001
1.40001
1.40001
1.40001
1.40001
1.40001
1.40001
1.40001
1.40001
1.40001
1.40001
1.40001
1.40001
1.40001
1.40001
1.40001
1.40001
1.40001
1.40001
1.40001
1.40001
1.40001
1.40001
1.40001
1.40001
1.40001
1.40001
1.40001
1.40001
1.40001
1.40001
1.40001
1.40001
1.40001
1.40001
1.40001
1.40001
1.40001
1.40001
1.40001
1.40001
1.40001
1.40001
1.40001
1.40001
1.40001
1.40001
1.40001
1.40001
1.40001
1.40001
1.40001
1.40001
1.40001
1.40001
1.40001
1.40001
1.40001
1.40001
1.40001
1.40001
1.40001
1.40001
1.40001
1.40001
1.40001
1.40001
1.40001
1.40001
1.40001
1.40001
1.40001
1.40001
1.40001
1.40001
1.40001
1.40001
1.40001
1.40001
1.40001
1.40001
1.40001
1.40001
1.40001
1.40001
1.40001
1.40001
1.40001
1.40001
1.40001
1.40001
1.40001
1.40001
1.40001
1.40001
1.40001
1.40001
1.40001
1.40001
1.40001
1.40001
1.40001
1.40001
1.40001
1.40001
1.40001
1.40001
1.40001
1.40001
1.40001
1.40001
1.40001
1.40001
1.40001
1.40001
1.40001
1.40001
1.40001
1.40001
1.40001
1.40001
1.40001
1.40001
1.40001
1.40001
1.40001
1.40001
1.40001
1.40001
1.40001
1.40001
1.40001
1.40001
1.40001
1.40001
1.40001
1.40001
1.40001
1.40001
1.40001
1.40001
1.40001
1.40001
1.40001
1.40001
1.40001
1.40001
1.40001
1.40001
1.40001
1.40001
1.40001
1.40001
1.40001
1.08129
0.409821
0.230844
0.133
0.112025
0.131591
0.197858
0.282331
0.383797
0.467539
0.548407
0.606728
0.616524
0.633378
0.650919
0.65762
0.664656
0.684464
0.709642
0.728448
0.73165
0.728031
0.724174
0.716481
0.710601
0.708309
0.70716
0.705834
0.702032
0.69705
0.69596
0.697128
0.697492
0.69302
0.688047
0.686872
0.686631
0.686946
0.687053
0.686613
0.685319
0.68288
0.680084
0.677905
0.675477
0.672169
0.668312
0.663759
0.657516
0.649526
0.642873
0.640436
0.63935
0.638693
0.638687
0.640342
0.642365
0.642996
0.643441
0.643312
0.641378
0.641264
0.642439
0.643513
0.644606
0.646041
0.648393
0.651756
0.656724
0.663916
0.669297
0.671726
0.672545
0.671668
0.672393
0.674941
0.678746
0.684793
0.695719
0.715917
0.74732
0.767393
0.769427
0.767397
0.760183
0.755994
0.756346
0.759939
0.770243
0.789205
0.815472
0.847044
0.885916
0.935926
1.00698
1.11528
1.23787
1.32028
1.3759
1.42746
1.44771
1.44345
1.43462
1.42669
1.42043
1.41673
1.41429
1.41235
1.41157
1.41591
1.42431
1.42561
1.4244
1.42326
1.42221
1.42066
1.41733
1.41087
1.40622
1.40576
1.72979
0.985947
0.699979
0.535293
0.399445
0.365197
0.384298
0.391288
0.39348
0.405746
0.435192
0.485318
0.536258
0.577674
0.609156
0.632869
0.650898
0.671058
0.697051
0.729198
0.737973
0.738121
0.741847
0.741692
0.738684
0.735587
0.733621
0.731428
0.726329
0.719772
0.715412
0.715341
0.716796
0.713893
0.708058
0.705378
0.703802
0.702077
0.699119
0.694261
0.688645
0.685222
0.684241
0.684078
0.685363
0.68414
0.680608
0.676692
0.671482
0.663976
0.653385
0.645877
0.644283
0.643671
0.643628
0.645096
0.646772
0.647157
0.647487
0.647449
0.646773
0.647763
0.649638
0.65138
0.652548
0.653
0.652316
0.65418
0.658172
0.663305
0.669602
0.675859
0.679176
0.680771
0.681167
0.682325
0.685077
0.689904
0.699532
0.717587
0.742506
0.762918
0.769631
0.770434
0.770335
0.768029
0.766988
0.770255
0.779386
0.79469
0.816609
0.846502
0.88365
0.930837
0.999663
1.10757
1.23189
1.31275
1.36369
1.41055
1.43388
1.4322
1.42652
1.42083
1.41602
1.41244
1.41016
1.40853
1.40767
1.41007
1.41836
1.4229
1.42232
1.42115
1.42023
1.41915
1.41672
1.41169
1.40623
1.40524
2.23547
1.55975
1.13118
0.891764
0.726756
0.636301
0.598561
0.552454
0.478753
0.474092
0.485796
0.507633
0.546183
0.584982
0.613027
0.638061
0.660074
0.685879
0.714448
0.750274
0.773316
0.786979
0.802009
0.819372
0.82007
0.811498
0.804496
0.800849
0.792054
0.7806
0.768944
0.758681
0.753366
0.748526
0.742787
0.740412
0.7407
0.741277
0.74073
0.737691
0.729982
0.719784
0.711708
0.708413
0.706974
0.706288
0.702699
0.698929
0.695607
0.690761
0.681088
0.669198
0.665297
0.66462
0.66461
0.665522
0.665611
0.66507
0.663675
0.660696
0.659
0.660246
0.663179
0.667672
0.671661
0.67394
0.675709
0.675773
0.6726
0.672568
0.675602
0.680183
0.687333
0.694255
0.698139
0.701007
0.704596
0.710256
0.719042
0.731316
0.745948
0.759023
0.769426
0.778406
0.785252
0.788729
0.790267
0.793035
0.800206
0.813089
0.832629
0.860456
0.897273
0.944756
1.01201
1.11608
1.24563
1.33493
1.38236
1.41561
1.43083
1.43074
1.42884
1.42625
1.423
1.41876
1.41481
1.41275
1.41142
1.41229
1.41894
1.42343
1.42297
1.42173
1.42062
1.41935
1.41731
1.41346
1.40785
1.40572
2.60787
2.00774
1.61493
1.30654
1.05619
0.924498
0.850147
0.771697
0.685909
0.659046
0.633686
0.591083
0.574864
0.581949
0.590597
0.601015
0.61707
0.65096
0.686258
0.721429
0.751987
0.775463
0.794525
0.827109
0.840629
0.837374
0.843051
0.855953
0.85827
0.85324
0.840074
0.821969
0.806484
0.797493
0.788794
0.783762
0.783743
0.785417
0.787076
0.786135
0.780975
0.771602
0.759451
0.749366
0.745207
0.741681
0.736366
0.731781
0.728911
0.725163
0.717414
0.705626
0.698444
0.696766
0.696323
0.696089
0.695574
0.694685
0.69265
0.688689
0.686088
0.686596
0.688361
0.691662
0.695005
0.69728
0.699573
0.701038
0.700025
0.699487
0.700846
0.703971
0.710376
0.716976
0.721277
0.724525
0.727571
0.732114
0.739248
0.748755
0.759579
0.770316
0.782161
0.795361
0.806742
0.814713
0.81968
0.824336
0.831559
0.843806
0.862544
0.888501
0.921752
0.963661
1.0224
1.11343
1.23485
1.34116
1.39949
1.42038
1.42364
1.42315
1.42297
1.42327
1.42074
1.41776
1.41439
1.41279
1.41212
1.41289
1.41845
1.4224
1.42161
1.42045
1.41959
1.41867
1.41747
1.41497
1.4099
1.40604
2.87876
2.35795
1.96335
1.66455
1.40056
1.23818
1.11043
0.98201
0.86602
0.820282
0.779293
0.720181
0.660271
0.654535
0.651147
0.632452
0.634354
0.640898
0.649408
0.657447
0.67567
0.703921
0.735068
0.781509
0.818321
0.831307
0.840975
0.857275
0.870469
0.871915
0.86397
0.858557
0.857309
0.852476
0.842095
0.831193
0.824627
0.823653
0.824157
0.822684
0.818791
0.814443
0.80707
0.795198
0.786821
0.782827
0.777527
0.770802
0.764699
0.758033
0.74784
0.73685
0.732594
0.730815
0.729751
0.729015
0.728333
0.726925
0.723458
0.71913
0.717958
0.718579
0.720698
0.724918
0.727684
0.728908
0.729555
0.728828
0.727788
0.728839
0.730511
0.734915
0.744806
0.753331
0.757104
0.759428
0.761177
0.762772
0.765293
0.769077
0.775287
0.785946
0.801467
0.818866
0.834714
0.847722
0.857975
0.867435
0.879423
0.896628
0.920043
0.949671
0.983945
1.02169
1.06699
1.13492
1.23799
1.35015
1.41125
1.42097
1.41932
1.41655
1.41526
1.4159
1.42
1.42026
1.4174
1.41511
1.41493
1.41489
1.41597
1.4187
1.42101
1.4212
1.4208
1.42023
1.41914
1.41694
1.41198
1.40647
3.06107
2.62823
2.27931
1.9641
1.67845
1.5009
1.35942
1.22166
1.08723
1.01041
0.943521
0.871873
0.808054
0.794826
0.777433
0.739107
0.696707
0.690368
0.687746
0.672772
0.657613
0.660576
0.671784
0.696582
0.728954
0.761369
0.787928
0.815539
0.849296
0.869167
0.867472
0.861558
0.865498
0.868741
0.865953
0.86194
0.860475
0.858958
0.854946
0.849418
0.845788
0.844383
0.840551
0.830455
0.818356
0.812706
0.807707
0.800303
0.791447
0.781586
0.769728
0.762527
0.760048
0.758263
0.75766
0.757704
0.757469
0.755841
0.750866
0.746719
0.74601
0.746149
0.747433
0.751771
0.756511
0.75809
0.758809
0.758793
0.760256
0.762305
0.76403
0.768388
0.778464
0.787268
0.790595
0.792949
0.796282
0.799181
0.800171
0.800613
0.803545
0.811571
0.825174
0.842402
0.860235
0.876866
0.892305
0.907925
0.925954
0.94841
0.977608
1.01429
1.0547
1.09335
1.13155
1.18215
1.26525
1.3695
1.41316
1.41467
1.41166
1.41014
1.41056
1.41595
1.42352
1.42417
1.42171
1.41611
1.41382
1.41359
1.41368
1.4156
1.41902
1.42083
1.42146
1.42143
1.42082
1.41893
1.41399
1.40704
3.19982
2.81754
2.49571
2.2117
1.94557
1.74305
1.57856
1.4111
1.28045
1.19766
1.12187
1.03314
0.953815
0.922926
0.887891
0.842706
0.786293
0.757718
0.742524
0.720602
0.692128
0.680808
0.686499
0.691196
0.687188
0.691531
0.70119
0.722838
0.755737
0.794771
0.837379
0.847429
0.858528
0.873579
0.874541
0.870286
0.870689
0.872077
0.873952
0.874121
0.873177
0.870958
0.867049
0.858463
0.843868
0.82903
0.819703
0.812582
0.805286
0.797999
0.791369
0.788204
0.786147
0.784254
0.782678
0.781152
0.778825
0.77415
0.769491
0.767898
0.767449
0.767525
0.769199
0.774021
0.779695
0.782329
0.783663
0.785515
0.78851
0.792225
0.795105
0.798882
0.80724
0.816826
0.820233
0.822597
0.826267
0.830911
0.833165
0.834711
0.838143
0.845399
0.856642
0.870709
0.886146
0.902853
0.921352
0.941933
0.96643
0.998608
1.0411
1.09013
1.13454
1.16717
1.19578
1.23539
1.30551
1.38735
1.41158
1.41302
1.41166
1.41046
1.41144
1.41981
1.42709
1.42633
1.42216
1.41542
1.41149
1.41057
1.41019
1.41131
1.41614
1.42125
1.42282
1.42295
1.42261
1.42083
1.41546
1.40714
3.29679
2.96403
2.67799
2.40322
2.14422
1.94957
1.78496
1.61289
1.46469
1.36032
1.2721
1.18375
1.11351
1.06944
1.01943
0.96558
0.908181
0.866617
0.833255
0.807055
0.781248
0.754005
0.738178
0.725431
0.711256
0.691404
0.674773
0.673909
0.680562
0.701244
0.742799
0.789388
0.819739
0.849339
0.873142
0.873344
0.868198
0.871194
0.875467
0.881438
0.890017
0.89213
0.889837
0.879912
0.861575
0.840559
0.828492
0.823211
0.818323
0.814187
0.811938
0.811281
0.809902
0.806688
0.801548
0.795833
0.789343
0.78523
0.784411
0.784127
0.784145
0.785449
0.789168
0.794193
0.798683
0.802073
0.804851
0.807944
0.81137
0.81608
0.820491
0.824477
0.832619
0.842187
0.84634
0.849528
0.853684
0.859366
0.864573
0.86823
0.872706
0.87961
0.889199
0.901012
0.914443
0.930398
0.950548
0.976445
1.01176
1.05975
1.11258
1.15621
1.18718
1.21132
1.23764
1.27942
1.3477
1.39968
1.40851
1.40979
1.4095
1.40945
1.41251
1.42245
1.42707
1.42553
1.42043
1.41245
1.409
1.40867
1.409
1.41154
1.41717
1.42277
1.42457
1.42472
1.4244
1.42252
1.41665
1.40698
3.3787
3.07593
2.81096
2.56494
2.32357
2.12361
1.94767
1.77117
1.6402
1.53835
1.44034
1.32173
1.24186
1.18925
1.13507
1.08112
1.02862
0.981413
0.931513
0.88042
0.84912
0.826953
0.798018
0.765652
0.741904
0.724571
0.703588
0.682021
0.680838
0.683929
0.694874
0.717762
0.743199
0.768927
0.799633
0.833615
0.842309
0.850801
0.865099
0.874758
0.887264
0.895529
0.895921
0.891049
0.876421
0.855284
0.842106
0.838457
0.83508
0.832002
0.830979
0.829452
0.826437
0.81975
0.8106
0.804198
0.800771
0.799666
0.799664
0.800523
0.802223
0.805346
0.809039
0.811154
0.813097
0.816251
0.820519
0.825476
0.831171
0.838134
0.845932
0.852608
0.860276
0.865917
0.869021
0.872689
0.877583
0.884318
0.892232
0.899325
0.906087
0.913861
0.923438
0.933936
0.94465
0.95872
0.980728
1.01592
1.06857
1.12564
1.16342
1.18638
1.20719
1.23146
1.26688
1.32669
1.38659
1.4021
1.40446
1.40497
1.40539
1.40677
1.41205
1.42258
1.42558
1.42382
1.41789
1.40912
1.40585
1.4057
1.40655
1.41101
1.4191
1.42497
1.42633
1.42643
1.42606
1.4239
1.41729
1.40659
3.44652
3.17533
2.93314
2.69561
2.46741
2.27964
2.10881
1.93383
1.78392
1.67484
1.57888
1.47699
1.39422
1.32157
1.24505
1.16635
1.11967
1.0858
1.04363
0.986884
0.931075
0.90988
0.882438
0.838385
0.803176
0.789264
0.770258
0.736343
0.704413
0.70034
0.704916
0.702548
0.698491
0.705488
0.71562
0.739492
0.767803
0.791312
0.826419
0.863161
0.879155
0.891269
0.896824
0.895183
0.8881
0.873386
0.863256
0.860416
0.858275
0.853479
0.849105
0.844743
0.836462
0.824151
0.818317
0.815918
0.814539
0.81499
0.818803
0.821705
0.823145
0.824114
0.824295
0.823402
0.824236
0.827602
0.833925
0.84256
0.852073
0.861448
0.871522
0.880476
0.885569
0.887989
0.890469
0.894577
0.900406
0.908059
0.917741
0.927742
0.937602
0.947801
0.957398
0.965012
0.972959
0.987447
1.01742
1.06938
1.12934
1.1677
1.18756
1.20412
1.22268
1.25091
1.3063
1.37577
1.40045
1.40272
1.40181
1.39831
1.39919
1.40288
1.41148
1.42123
1.42304
1.42159
1.41634
1.4087
1.40555
1.40542
1.4068
1.41278
1.42204
1.42691
1.42769
1.42774
1.42725
1.42468
1.41723
1.40567
3.51376
3.26571
3.03946
2.81867
2.60351
2.41376
2.24042
2.0741
1.94093
1.82694
1.70792
1.59148
1.51522
1.44439
1.37084
1.27901
1.20973
1.17222
1.13074
1.08013
1.01936
0.987816
0.958173
0.915379
0.863102
0.835036
0.818867
0.793626
0.75468
0.725103
0.723051
0.716344
0.705322
0.707041
0.719715
0.717949
0.7199
0.724729
0.744682
0.788964
0.827664
0.850835
0.878028
0.893849
0.89201
0.883105
0.88189
0.88346
0.884533
0.878782
0.869685
0.858714
0.843066
0.831987
0.829384
0.828168
0.828179
0.833235
0.840787
0.842769
0.842758
0.841536
0.836899
0.834528
0.835716
0.840375
0.8505
0.863041
0.873747
0.883499
0.892585
0.900378
0.904986
0.908332
0.912884
0.919658
0.927385
0.935534
0.945407
0.957537
0.969668
0.978311
0.983706
0.988806
0.998028
1.02063
1.06951
1.13202
1.17048
1.18998
1.20654
1.22407
1.24763
1.2943
1.36374
1.39691
1.40076
1.40149
1.39486
1.39058
1.39213
1.39943
1.41202
1.41929
1.41963
1.41794
1.41299
1.40801
1.40654
1.40667
1.40925
1.41665
1.42538
1.42864
1.42899
1.42897
1.4282
1.42502
1.41636
1.40425
3.5939
3.361
3.14225
2.92659
2.72349
2.54258
2.37074
2.20341
2.06248
1.94731
1.83185
1.72148
1.63332
1.55313
1.47119
1.37694
1.30918
1.26686
1.22603
1.17536
1.10964
1.0661
1.03085
0.988799
0.933665
0.897603
0.882883
0.863135
0.829153
0.787718
0.774289
0.764391
0.744174
0.728555
0.729253
0.728809
0.717845
0.699739
0.698052
0.710078
0.740038
0.775348
0.8127
0.858459
0.883743
0.882799
0.885429
0.894776
0.897047
0.894225
0.886443
0.872656
0.854545
0.846866
0.844878
0.8437
0.844587
0.851895
0.858035
0.858465
0.857992
0.854262
0.848871
0.848491
0.850362
0.85846
0.87485
0.886334
0.892682
0.900754
0.90762
0.913252
0.91966
0.928045
0.939686
0.950742
0.959835
0.969213
0.979441
0.99138
1.00004
1.00391
1.00735
1.01399
1.03077
1.07285
1.13885
1.17772
1.19326
1.20863
1.22627
1.24833
1.28849
1.3531
1.39129
1.39669
1.39759
1.39164
1.38336
1.3841
1.38947
1.40119
1.41321
1.41566
1.41575
1.41362
1.4101
1.40876
1.40861
1.40933
1.41292
1.42071
1.42837
1.4305
1.43072
1.43058
1.42919
1.42475
1.41438
1.4025
3.66466
3.44406
3.23584
3.03467
2.8385
2.65564
2.48689
2.33123
2.19425
2.0697
1.94032
1.82188
1.73277
1.66001
1.58379
1.49351
1.39621
1.33846
1.30526
1.26321
1.20645
1.15947
1.11547
1.06367
0.995199
0.955048
0.94358
0.926224
0.896021
0.857723
0.834491
0.816768
0.792294
0.76106
0.749225
0.743351
0.730899
0.715798
0.707999
0.703874
0.704848
0.714297
0.736371
0.771668
0.826693
0.864391
0.879621
0.897241
0.901814
0.900729
0.893811
0.883092
0.872387
0.867275
0.865649
0.865293
0.866445
0.870713
0.872325
0.871343
0.869334
0.863988
0.86243
0.863918
0.868019
0.880414
0.899481
0.906116
0.909617
0.917047
0.92224
0.926248
0.934731
0.952504
0.974515
0.987713
0.995501
1.0043
1.01273
1.0201
1.02497
1.02902
1.03496
1.04829
1.08123
1.14003
1.1845
1.19914
1.21139
1.22762
1.24885
1.28436
1.34324
1.38268
1.38984
1.39072
1.38515
1.37629
1.37692
1.38125
1.39125
1.40654
1.4131
1.41395
1.41414
1.41213
1.40909
1.40859
1.40914
1.4108
1.41498
1.42337
1.4308
1.43252
1.43278
1.43261
1.43051
1.42384
1.4106
1.40022
3.76168
3.55035
3.3411
3.13656
2.94704
2.77032
2.59889
2.43865
2.29967
2.1762
2.05706
1.9414
1.83026
1.7374
1.66858
1.59983
1.51877
1.44213
1.38506
1.32597
1.26583
1.22958
1.19786
1.15344
1.08198
1.02265
1.00763
0.989964
0.960908
0.92077
0.89646
0.878424
0.854533
0.818344
0.8001
0.792219
0.77928
0.756434
0.734812
0.719855
0.711181
0.708533
0.710087
0.718811
0.748061
0.802025
0.848086
0.87847
0.898999
0.900879
0.894891
0.884044
0.882072
0.883292
0.888508
0.894781
0.893321
0.891552
0.889239
0.884429
0.878358
0.875145
0.875956
0.878908
0.88527
0.898298
0.914267
0.9208
0.9252
0.933027
0.939616
0.944329
0.955587
0.984066
1.01517
1.02752
1.03253
1.03545
1.03839
1.0423
1.04805
1.05598
1.06868
1.09414
1.13989
1.1852
1.20466
1.21519
1.22861
1.24831
1.27945
1.32701
1.36847
1.38247
1.38387
1.38074
1.37154
1.37136
1.37526
1.38476
1.40115
1.41088
1.4123
1.41285
1.41218
1.41017
1.40888
1.40863
1.40919
1.41139
1.41695
1.42686
1.43372
1.43482
1.43495
1.43438
1.43092
1.42113
1.40536
1.39791
3.84192
3.64301
3.44505
3.24967
3.06326
2.8845
2.71482
2.56185
2.42257
2.28878
2.16245
2.04896
1.93873
1.83863
1.75516
1.68036
1.6005
1.52601
1.4706
1.41535
1.34087
1.28157
1.25427
1.21884
1.16321
1.10808
1.08481
1.06371
1.0324
0.98171
0.943786
0.922663
0.901135
0.869201
0.84886
0.84258
0.830217
0.806179
0.775421
0.751547
0.731181
0.715258
0.714176
0.71906
0.73045
0.75193
0.788627
0.816062
0.84241
0.868494
0.874856
0.877165
0.881461
0.88832
0.900118
0.912117
0.914417
0.912578
0.908157
0.899732
0.891283
0.88978
0.890393
0.893187
0.90061
0.912703
0.923468
0.930232
0.93651
0.944923
0.955941
0.967197
0.984402
1.0186
1.05388
1.06428
1.06561
1.06441
1.064
1.06723
1.07591
1.08983
1.11062
1.14249
1.18098
1.20837
1.22313
1.23559
1.25265
1.2807
1.32053
1.35316
1.36374
1.36454
1.36436
1.36635
1.37056
1.37478
1.38381
1.40067
1.41179
1.41344
1.41368
1.41048
1.40641
1.40668
1.40739
1.4083
1.4102
1.41412
1.42283
1.43375
1.43771
1.43809
1.43785
1.4355
1.42831
1.41449
1.40035
1.39767
3.91749
3.72523
3.53241
3.33419
3.1518
2.98835
2.82613
2.66817
2.52833
2.40298
2.28432
2.16678
2.04856
1.93302
1.84999
1.77935
1.70085
1.61678
1.54726
1.48766
1.41502
1.35444
1.32284
1.28755
1.23204
1.17227
1.14925
1.1321
1.10179
1.05356
1.00985
0.979334
0.952269
0.914347
0.893173
0.891055
0.882504
0.858999
0.829603
0.807142
0.787692
0.762414
0.745696
0.744704
0.74804
0.756172
0.759421
0.764637
0.775809
0.796568
0.825837
0.851067
0.869282
0.887031
0.903243
0.913444
0.918114
0.919927
0.920296
0.917692
0.912769
0.912051
0.912559
0.915003
0.921032
0.928837
0.934823
0.94021
0.947127
0.955973
0.968817
0.987039
1.01068
1.0439
1.07212
1.08714
1.09275
1.09269
1.0924
1.09547
1.10505
1.12127
1.14476
1.17529
1.20648
1.23102
1.25034
1.26904
1.29204
1.32018
1.34053
1.34594
1.34573
1.34858
1.35473
1.36178
1.37108
1.3855
1.40258
1.41195
1.41398
1.41444
1.41248
1.40528
1.40145
1.40192
1.40387
1.40622
1.40983
1.41827
1.43204
1.44088
1.44241
1.44263
1.4414
1.43554
1.42268
1.40542
1.39675
1.397
4.02949
3.82372
3.62724
3.43665
3.24973
3.07854
2.92809
2.78226
2.63527
2.4972
2.37749
2.27113
2.16766
2.04893
1.94774
1.86588
1.78468
1.70803
1.64442
1.57954
1.49281
1.41636
1.38918
1.35913
1.31161
1.25441
1.2194
1.19467
1.15782
1.11082
1.0738
1.04528
1.0152
0.968561
0.938521
0.93438
0.927056
0.90471
0.876054
0.856559
0.839454
0.815031
0.784949
0.777933
0.779067
0.776126
0.764152
0.763936
0.766691
0.769491
0.778312
0.800508
0.831374
0.86411
0.893177
0.909377
0.915275
0.918331
0.922544
0.924993
0.925863
0.927953
0.932861
0.940143
0.947134
0.951002
0.953183
0.956621
0.963156
0.972998
0.986732
1.00597
1.03019
1.05661
1.07782
1.09233
1.10423
1.1112
1.11417
1.11894
1.1285
1.14448
1.16935
1.20233
1.23498
1.26223
1.28373
1.30003
1.31346
1.32833
1.33394
1.33326
1.3357
1.34398
1.35567
1.37094
1.39045
1.40634
1.41163
1.41263
1.41268
1.40962
1.40251
1.39949
1.40016
1.40088
1.40234
1.40599
1.41441
1.43015
1.44325
1.44605
1.44645
1.44638
1.44262
1.43145
1.41259
1.39876
1.39617
1.39707
4.15029
3.93768
3.74083
3.54547
3.35818
3.19062
3.03252
2.881
2.74443
2.61635
2.48044
2.35652