/*--------------------------------*- C++ -*----------------------------------*\
  =========                 |
  \\      /  F ield         | OpenFOAM: The Open Source CFD Toolbox
   \\    /   O peration     | Website:  https://openfoam.org
    \\  /    A nd           | Version:  9
     \\/     M anipulation  |
\*---------------------------------------------------------------------------*/
FoamFile
{
    format      ascii;
    class       surfaceScalarField;
    location    "2.7";
    object      phi;
}
// * * * * * * * * * * * * * * * * * * * * * * * * * * * * * * * * * * * * * //

dimensions      [0 3 -1 0 0 0 0];

internalField   nonuniform List<scalar> 
16735
(
-0.0188294
0.0188294
-9.71475e-10
-0.0490713
0.0302419
-1.44481e-09
-0.0842246
0.0351533
-1.46392e-09
-0.120409
0.0361846
-1.22363e-09
-0.153162
0.0327525
-7.36641e-10
-0.174856
0.0216939
8.24963e-11
-0.176122
0.00126615
1.00145e-09
-0.150019
-0.0261031
1.96184e-09
-0.0978114
-0.0522073
2.55104e-09
-0.0849214
2.75131e-09
-0.0128899
-0.0180948
0.0369242
-0.0473834
0.0595305
-0.0813972
0.0691672
-0.116156
0.0709433
-0.147149
0.063746
-0.166752
0.0412965
-0.165487
1.43897e-06
-0.136694
-0.0548968
-0.0814082
-0.107493
-0.170304
0.00397388
-0.0166636
0.0535878
-0.0440846
0.0869515
-0.0758712
0.100954
-0.107863
0.102935
-0.135486
0.0913691
-0.151151
0.0569616
-0.145337
-0.00581301
-0.111847
-0.0883859
-0.0515276
-0.167813
-0.256849
0.0350177
-0.0146101
0.0681978
-0.0393251
0.111667
-0.0678933
0.129522
-0.0959273
0.130969
-0.118816
0.114258
-0.129141
0.0672869
-0.117343
-0.0176117
-0.0781255
-0.127603
-0.0121509
-0.233787
-0.343474
0.0744746
-0.0120417
0.0802395
-0.0333207
0.132946
-0.0578123
0.154014
-0.0808893
0.154046
-0.0979608
0.131329
-0.101933
0.0712594
-0.0833313
-0.0362137
-0.0381561
-0.172778
0.0320128
-0.303956
-0.429683
0.118221
-0.00909438
0.0893339
-0.026344
0.150195
-0.0460612
0.173731
-0.0633986
0.171383
-0.0738576
0.141788
-0.0707853
0.068187
-0.0449362
-0.0620628
0.00586394
-0.223578
0.078929
-0.377021
-0.51393
0.163176
-0.005927
0.0952609
-0.0187125
0.162981
-0.0331429
0.188161
-0.0441956
0.182436
-0.047547
0.14514
-0.0370008
0.0576409
-0.00345442
-0.0956092
0.051954
-0.278987
0.126604
-0.451671
-0.594532
0.207206
-0.00271501
0.0979759
-0.0107904
0.171056
-0.0196159
0.196987
-0.0240985
0.186919
-0.020196
0.141237
-0.00211056
0.0395554
0.0381231
-0.135843
0.0983174
-0.339181
0.172972
-0.526326
-0.670175
0.248615
0.000378603
0.0975973
-0.00297671
0.174411
-0.00608545
0.200095
-0.004016
0.184849
0.00709209
0.130129
0.0330219
0.0136255
0.0795013
-0.182322
0.14317
-0.40285
0.216297
-0.599453
-0.739926
0.286048
0.00315182
0.0944454
0.00439286
0.17317
0.00695614
0.197532
0.0154792
0.176326
0.0335163
0.112092
0.0665934
-0.0194515
0.119095
-0.234823
0.184976
-0.468731
0.255185
-0.669662
-0.803256
0.318516
0.00547241
0.088973
0.0109568
0.167686
0.018873
0.189616
0.0332763
0.161923
0.0575984
0.0877698
0.0976874
-0.0595406
0.155716
-0.292852
0.222551
-0.535566
0.28867
-0.735782
-0.859998
0.345412
0.00721307
0.08176
0.0163647
0.158534
0.0290492
0.176931
0.0486085
0.142364
0.0786804
0.0576979
0.125732
-0.106593
0.188608
-0.355727
0.255114
-0.602073
0.31623
-0.796898
-0.910282
0.366515
0.00829711
0.0734629
0.0203746
0.146457
0.0370618
0.160244
0.0609453
0.11848
0.0965022
0.0221409
0.150633
-0.160724
0.217388
-0.422482
0.282252
-0.666937
0.337731
-0.852377
-0.954485
0.381934
0.0087033
0.0647595
0.0228486
0.132311
0.0426317
0.140461
0.0701133
0.0909986
0.111401
-0.0191468
0.172685
-0.222008
0.241928
-0.491724
0.303852
-0.72886
0.35335
-0.901875
-0.993161
0.392026
0.0084688
0.0562907
0.0237824
0.116998
0.0457262
0.118517
0.0764925
0.0602322
0.124283
-0.0669376
0.192323
-0.290047
0.262202
-0.561603
0.320017
-0.786675
0.363486
-0.945345
-1.02698
0.39731
0.00768693
0.0486038
0.0233256
0.101359
0.0466636
0.0951794
0.0810831
0.0258127
0.136342
-0.122197
0.209798
-0.363503
0.278199
-0.630005
0.331016
-0.839492
0.368676
-0.983005
-1.0567
0.398388
0.00649993
0.0421039
0.0217906
0.0860685
0.0461809
0.0707892
0.0853276
-0.013334
0.148558
-0.185428
0.225007
-0.439952
0.289932
-0.694929
0.337255
-0.886815
0.369527
-1.01528
-1.08305
0.395877
0.00508703
0.0370169
0.0196452
0.0715103
0.0453906
0.0450438
0.0906821
-0.0586256
0.161221
-0.255967
0.23762
-0.51635
0.297512
-0.754821
0.339253
-0.928557
0.366676
-1.0427
-1.10675
0.390378
0.00364678
0.0333701
0.017475
0.057682
0.0455483
0.0169706
0.098078
-0.111155
0.173818
-0.331706
0.24726
-0.589793
0.301214
-0.808775
0.337608
-0.964951
0.360781
-1.06587
-1.12823
0.382259
0.00237271
0.0309974
0.0158887
0.044166
0.0476926
-0.0148333
0.107579
-0.171042
0.18535
-0.409477
0.253672
-0.658115
0.301459
-0.856562
0.332955
-0.996446
0.352437
-1.08536
-1.1478
0.372015
0.00142488
0.0295725
0.0154234
0.0301675
0.0522914
-0.0517013
0.118408
-0.237158
0.19486
-0.48593
0.25686
-0.720114
0.29873
-0.898432
0.32593
-1.02365
0.343286
-1.10271
-1.16852
0.363999
0.000904946
0.0286675
0.0164386
0.0146339
0.059156
-0.0944187
0.129316
-0.307318
0.201776
-0.55839
0.257048
-0.775386
0.293476
-0.93486
0.316955
-1.04712
0.334988
-1.12074
-1.18814
0.354608
0.000850093
0.0278174
0.0190371
-0.00355313
0.0676283
-0.14301
0.139104
-0.378794
0.205943
-0.625228
0.254594
-0.824037
0.286139
-0.966405
0.306846
-1.06783
0.323602
-1.1375
-1.20538
0.340839
0.00125594
0.0265615
0.023036
-0.0253332
0.0767756
-0.19675
0.146977
-0.448996
0.207485
-0.685736
0.249899
-0.866451
0.277199
-0.993705
0.295495
-1.08613
0.311463
-1.15347
-1.2222
0.328286
0.00209959
0.0244619
0.0280537
-0.0512872
0.0856698
-0.254366
0.152599
-0.515925
0.206655
-0.739792
0.243369
-0.903166
0.266982
-1.01732
0.283371
-1.10252
0.298388
-1.16849
-1.23771
0.313895
0.0033518
0.0211101
0.0336656
-0.081601
0.0935619
-0.314262
0.155958
-0.578321
0.203752
-0.787586
0.235362
-0.934776
0.255817
-1.03777
0.270556
-1.11726
0.284657
-1.18259
-1.25253
0.299479
0.00497532
0.0161348
0.0394856
-0.116111
0.0999636
-0.37474
0.157214
-0.635571
0.199092
-0.829464
0.226192
-0.961876
0.24393
-1.05551
0.257253
-1.13058
0.270441
-1.19578
-1.26636
0.284275
0.00691226
0.00922253
0.045154
-0.154353
0.104652
-0.434238
0.156587
-0.687506
0.192981
-0.865858
0.21612
-0.985014
0.231515
-1.07091
0.243556
-1.14262
0.255789
-1.20801
-1.2793
0.268732
0.00907465
0.000147879
0.0504195
-0.195698
0.107691
-0.491509
0.154318
-0.734133
0.185694
-0.897234
0.205363
-1.00468
0.21871
-1.08425
0.229558
-1.15347
0.240807
-1.21926
-1.29123
0.252735
0.0113542
-0.0112063
0.0550644
-0.239408
0.10918
-0.545625
0.150637
-0.775589
0.177468
-0.924066
0.194094
-1.02131
0.205622
-1.09578
0.215321
-1.16317
0.225528
-1.22947
-1.3021
0.236397
0.0136545
-0.0248607
0.0589144
-0.284668
0.109251
-0.595962
0.14576
-0.812098
0.168507
-0.946812
0.182453
-1.03526
0.192331
-1.10566
0.200893
-1.17173
0.210006
-1.23858
-1.31182
0.219728
0.0158912
-0.040752
0.0618526
-0.330629
0.108054
-0.642163
0.139888
-0.843932
0.158978
-0.965902
0.170548
-1.04683
0.178896
-1.11401
0.186312
-1.17915
0.194269
-1.24654
-1.32033
0.202773
0.0180049
-0.0587569
0.0638275
-0.376452
0.105744
-0.68408
0.133199
-0.871387
0.149015
-0.981718
0.158458
-1.05627
0.165362
-1.12091
0.171609
-1.18539
0.178348
-1.25328
-1.32754
0.185562
0.019948
-0.0787048
0.0648418
-0.421346
0.102475
-0.721713
0.125856
-0.894768
0.13873
-0.994593
0.146245
-1.06378
0.151761
-1.12643
0.156805
-1.19044
0.162269
-1.25874
-1.3334
0.168126
0.0216728
-0.100378
0.0649344
-0.464607
0.0983867
-0.755165
0.117997
-0.914378
0.12822
-1.00482
0.133959
-1.06952
0.138118
-1.13058
0.141916
-1.19423
0.146055
-1.26288
-1.33784
0.150496
0.0231279
-0.123506
0.0641562
-0.505636
0.0936079
-0.784617
0.109743
-0.930513
0.11756
-1.01263
0.121642
-1.07361
0.124455
-1.1334
0.126965
-1.19675
0.129729
-1.26564
-1.34081
0.132701
0.024263
-0.147768
0.0625839
-0.543957
0.0882543
-0.810288
0.101198
-0.943457
0.106814
-1.01825
0.109324
-1.07612
0.11079
-1.13486
0.111972
-1.19793
0.113314
-1.26698
-1.34227
0.114772
0.0250402
-0.172809
0.0604311
-0.579348
0.0824374
-0.832294
0.092444
-0.953463
0.0960309
-1.02184
0.0970294
-1.07711
0.0971403
-1.13497
0.0969569
-1.19774
0.0968363
-1.26686
-1.34217
0.0967372
0.0254375
-0.198246
0.0577516
-0.611662
0.0762562
-0.850798
0.083553
-0.96076
0.0852514
-1.02353
0.0847801
-1.07664
0.0835218
-1.13372
0.0819373
-1.19616
0.0803204
-1.26525
-1.34048
0.0786299
0.0254498
-0.223696
0.0546092
-0.640821
0.0697954
-0.865985
0.074584
-0.965549
0.074507
-1.02346
0.0725933
-1.07473
0.06995
-1.13107
0.0669321
-1.19314
0.0637905
-1.2621
-1.33717
0.0604874
0.02509
-0.248786
0.0510733
-0.666804
0.0631308
-0.878042
0.0655846
-0.968002
0.0638232
-1.0217
0.0604845
-1.07139
0.0564405
-1.12703
0.051961
-1.18866
0.0472677
-1.25741
-1.33227
0.0423607
0.0243866
-0.273173
0.0472119
-0.68963
0.0563208
-0.887151
0.0565947
-0.968276
0.0532209
-1.01832
0.0484678
-1.06664
0.0430084
-1.12157
0.0370449
-1.1827
0.0307561
-1.25112
-1.3257
0.0241903
0.0233784
-0.296551
0.0430889
-0.70934
0.049404
-0.893466
0.0476465
-0.966519
0.0427179
-1.01339
0.0365574
-1.06048
0.0296675
-1.11468
0.0222002
-1.17523
0.0143522
-1.24327
-1.31733
0.00598284
0.0221091
-0.31866
0.0387638
-0.725995
0.0424352
-0.897137
0.0387679
-0.962852
0.0323297
-1.00695
0.0247657
-1.05291
0.0164301
-1.10634
0.00741747
-1.16622
-0.00187761
-1.23398
-1.30715
-0.0120617
0.0206226
-0.339283
0.0342912
-0.739664
0.0354592
-0.898305
0.029983
-0.957375
0.0220692
-0.999041
0.0130991
-1.04394
0.00329796
-1.09654
-0.00718374
-1.15574
-0.0181409
-1.22302
-1.29534
-0.029949
0.0189603
-0.358243
0.0297202
-0.750423
0.0285132
-0.897098
0.0213125
-0.950175
0.0119416
-0.98967
0.00153529
-1.03354
-0.00962079
-1.08539
-0.0215679
-1.14379
-0.0342215
-1.21037
-1.28185
-0.047707
0.01716
-0.375403
0.025094
-0.758357
0.021628
-0.893632
0.0127732
-0.94132
0.00191603
-0.978813
-0.00974082
-1.02188
-0.0223755
-1.07275
-0.0358258
-1.13034
-0.0501287
-1.19606
-1.26668
-0.065304
0.0152557
-0.390659
0.0204507
-0.763553
0.0148282
-0.88801
0.00436958
-0.930861
-0.00778528
-0.966658
-0.0208761
-1.00879
-0.03496
-1.05867
-0.0499198
-1.11538
-0.065847
-1.18014
-1.24981
-0.0827153
0.0132783
-0.403937
0.0158232
-0.766097
0.00812672
-0.880313
-0.00383848
-0.918896
-0.0173237
-0.953173
-0.0318381
-0.994274
-0.0473574
-1.04315
-0.0638251
-1.09891
-0.0813612
-1.1626
-1.23126
-0.0999167
0.0112556
-0.415192
0.0112424
-0.766084
0.0014948
-0.870566
-0.0118345
-0.905567
-0.0266915
-0.938316
-0.0426059
-0.97836
-0.0595523
-1.0262
-0.0775207
-1.08094
-0.0966529
-1.14347
-1.21102
-0.116887
0.00921108
-0.424404
0.00674103
-0.763614
-0.00482763
-0.858997
-0.019666
-0.890728
-0.035868
-0.922114
-0.0531659
-0.961062
-0.0715296
-1.00784
-0.0909872
-1.06149
-0.111703
-1.12275
-1.18912
-0.133605
0.00716279
-0.431566
0.00236071
-0.758812
-0.0109917
-0.845645
-0.0273098
-0.87441
-0.0448426
-0.904581
-0.0635058
-0.942399
-0.0832742
-0.988071
-0.104206
-1.04055
-0.126492
-1.10047
-1.16557
-0.150046
0.0051266
-0.436693
-0.00201321
-0.751672
-0.0170174
-0.830641
-0.0347542
-0.856673
-0.053605
-0.88573
-0.073614
-0.92239
-0.094771
-0.966914
-0.117159
-1.01817
-0.140999
-1.07663
-1.14038
-0.166185
0.00312467
-0.439818
-0.00637592
-0.742172
-0.0228883
-0.814128
-0.0419902
-0.837572
-0.0621452
-0.865575
-0.0834795
-0.901056
-0.106005
-0.944388
-0.12983
-0.994341
-0.155204
-1.05125
-1.11359
-0.181991
0.00119624
-0.441014
-0.0105509
-0.730425
-0.0285931
-0.796086
-0.0490119
-0.817153
-0.0704537
-0.844133
-0.0930909
-0.878418
-0.116963
-0.920516
-0.142201
-0.969103
-0.169084
-1.02437
-1.08524
-0.197432
-0.000751803
-0.440262
-0.0145679
-0.716609
-0.0341226
-0.776531
-0.0558148
-0.79546
-0.0785212
-0.821427
-0.102437
-0.854503
-0.127629
-0.895324
-0.154257
-0.942475
-0.182618
-0.99601
-1.05539
-0.212475
-0.00282355
-0.437438
-0.0184399
-0.700992
-0.0394652
-0.755506
-0.0623939
-0.772532
-0.0863391
-0.797482
-0.111507
-0.829335
-0.137992
-0.868839
-0.165985
-0.914482
-0.195787
-0.966207
-1.02405
-0.227121
-0.00477506
-0.432663
-0.0221676
-0.6836
-0.0446117
-0.733062
-0.0687438
-0.7484
-0.093899
-0.772326
-0.120289
-0.802944
-0.148041
-0.841087
-0.177382
-0.885141
-0.208584
-0.935006
-0.991298
-0.241339
-0.00664217
-0.426021
-0.02575
-0.664492
-0.0495568
-0.709255
-0.0748594
-0.723097
-0.101193
-0.745993
-0.128774
-0.775364
-0.157766
-0.812095
-0.188447
-0.854459
-0.22097
-0.902483
-0.957383
-0.254885
-0.00843144
-0.41759
-0.0291853
-0.643738
-0.0542967
-0.684144
-0.0807356
-0.696658
-0.108213
-0.718516
-0.136951
-0.746625
-0.167155
-0.781891
-0.199122
-0.822492
-0.232952
-0.868653
-0.922772
-0.267564
-0.0101442
-0.407446
-0.0324712
-0.621411
-0.0588284
-0.657786
-0.0863674
-0.669119
-0.114951
-0.689932
-0.144812
-0.716765
-0.176192
-0.75051
-0.209342
-0.789342
-0.243912
-0.834083
-0.885926
-0.280758
-0.01178
-0.395666
-0.0356057
-0.597585
-0.0631494
-0.630243
-0.09175
-0.640519
-0.121402
-0.66028
-0.152349
-0.685818
-0.184854
-0.718005
-0.219077
-0.755119
-0.254907
-0.798252
-0.847454
-0.293379
-0.0133377
-0.382328
-0.0385862
-0.572337
-0.0672574
-0.601571
-0.0968788
-0.610897
-0.127559
-0.629601
-0.159553
-0.653823
-0.19314
-0.684418
-0.228469
-0.71979
-0.265663
-0.761058
-0.807624
-0.305493
-0.0148158
-0.367512
-0.0414104
-0.545742
-0.0711501
-0.571832
-0.101749
-0.580298
-0.133414
-0.597936
-0.166411
-0.620826
-0.201025
-0.649804
-0.237413
-0.683402
-0.275821
-0.722651
-0.766527
-0.316918
-0.0162127
-0.351299
-0.0440762
-0.517879
-0.0748255
-0.541082
-0.106358
-0.548766
-0.138962
-0.565332
-0.172916
-0.586872
-0.208514
-0.614206
-0.245939
-0.645977
-0.285496
-0.683094
-0.724279
-0.327744
-0.0175266
-0.333773
-0.0465816
-0.488824
-0.0782813
-0.509383
-0.110699
-0.516348
-0.144196
-0.531836
-0.179058
-0.552009
-0.21559
-0.577673
-0.254001
-0.607566
-0.294631
-0.642464
-0.680951
-0.337959
-0.0187552
-0.315018
-0.048925
-0.458654
-0.0815154
-0.476792
-0.11477
-0.483093
-0.149109
-0.497497
-0.18483
-0.516289
-0.222247
-0.540257
-0.261593
-0.56822
-0.303228
-0.600829
-0.636612
-0.347567
-0.0198961
-0.295122
-0.0511048
-0.427445
-0.0845259
-0.443371
-0.118567
-0.449052
-0.153698
-0.462366
-0.190223
-0.479763
-0.228472
-0.502009
-0.268697
-0.527994
-0.311269
-0.558257
-0.591328
-0.356554
-0.0209456
-0.274176
-0.0531194
-0.395271
-0.0873107
-0.40918
-0.122086
-0.414276
-0.157955
-0.426498
-0.195231
-0.442487
-0.234256
-0.462984
-0.275302
-0.486948
-0.318744
-0.514815
-0.545164
-0.364907
-0.0218979
-0.252278
-0.0549669
-0.362202
-0.0898685
-0.374278
-0.125324
-0.378821
-0.161875
-0.389947
-0.199846
-0.404516
-0.239591
-0.423239
-0.281396
-0.445143
-0.325639
-0.470573
-0.498189
-0.372614
-0.0227386
-0.229539
-0.0566459
-0.328295
-0.0921983
-0.338726
-0.128277
-0.342741
-0.165455
-0.35277
-0.204062
-0.365908
-0.244467
-0.382833
-0.286968
-0.402642
-0.331942
-0.425599
-0.450473
-0.379659
-0.0234944
-0.206045
-0.0581575
-0.293632
-0.0942995
-0.302584
-0.130944
-0.306097
-0.168689
-0.315025
-0.207873
-0.326724
-0.248878
-0.341828
-0.29201
-0.359509
-0.337643
-0.379966
-0.402087
-0.386029
-0.0241919
-0.181853
-0.0595036
-0.25832
-0.0961712
-0.265917
-0.13332
-0.268948
-0.171573
-0.276772
-0.211273
-0.287024
-0.252815
-0.300286
-0.296513
-0.315812
-0.342733
-0.333746
-0.353106
-0.391714
-0.024812
-0.157041
-0.0606837
-0.222449
-0.0978122
-0.228788
-0.135405
-0.231355
-0.174105
-0.238072
-0.214259
-0.24687
-0.256274
-0.258272
-0.300468
-0.271618
-0.347202
-0.287012
-0.303607
-0.396701
-0.0253481
-0.131693
-0.0616968
-0.1861
-0.0992213
-0.191263
-0.137195
-0.193381
-0.176281
-0.198986
-0.216826
-0.206326
-0.259247
-0.21585
-0.303867
-0.226997
-0.351041
-0.239838
-0.253666
-0.400982
-0.0257972
-0.105896
-0.0625423
-0.149355
-0.100397
-0.153408
-0.13869
-0.155088
-0.178098
-0.159578
-0.21897
-0.165454
-0.261731
-0.173089
-0.306706
-0.182022
-0.354243
-0.192301
-0.203359
-0.40455
-0.0261577
-0.0797381
-0.0632195
-0.112293
-0.101339
-0.115288
-0.139887
-0.11654
-0.179555
-0.119911
-0.220688
-0.124321
-0.263722
-0.130056
-0.30898
-0.136764
-0.356806
-0.144475
-0.152763
-0.407402
-0.0264286
-0.0533095
-0.0637278
-0.0749937
-0.102047
-0.0769696
-0.140787
-0.0778004
-0.180648
-0.0800487
-0.221979
-0.0829901
-0.265217
-0.0868176
-0.310688
-0.0912938
-0.358728
-0.096435
-0.101955
-0.409535
-0.0266095
-0.0267
-0.0640668
-0.0375364
-0.102518
-0.038518
-0.141387
-0.0389323
-0.181378
-0.0400569
-0.222841
-0.041528
-0.266215
-0.0434429
-0.311827
-0.0456822
-0.360009
-0.0482528
-0.0510111
-0.410953
-0.0267
-2.12804e-10
-0.0642364
-2.88301e-10
-0.102754
-2.85011e-10
-0.141687
-2.75245e-10
-0.181744
-2.6737e-10
-0.223272
-2.60229e-10
-0.266714
-2.53984e-10
-0.312397
-2.48672e-10
-0.360649
-2.44219e-10
-2.40089e-10
-0.411661
-0.0267
0.0267
-0.0642364
0.0375364
-0.102754
0.038518
-0.141687
0.0389323
-0.181744
0.0400569
-0.223272
0.041528
-0.266714
0.0434429
-0.312397
0.0456822
-0.360649
0.0482528
0.0510111
-0.411661
-0.0266095
0.0533095
-0.0640668
0.0749937
-0.102518
0.0769696
-0.141387
0.0778004
-0.181378
0.0800487
-0.222841
0.0829901
-0.266215
0.0868176
-0.311827
0.0912938
-0.360009
0.096435
0.101955
-0.410953
-0.0264286
0.0797381
-0.0637278
0.112293
-0.102047
0.115288
-0.140787
0.11654
-0.180648
0.119911
-0.221979
0.124321
-0.265217
0.130056
-0.310688
0.136764
-0.358728
0.144475
0.152763
-0.409535
-0.0261577
0.105896
-0.0632195
0.149355
-0.101339
0.153408
-0.139887
0.155088
-0.179555
0.159578
-0.220688
0.165454
-0.263722
0.173089
-0.30898
0.182022
-0.356806
0.192301
0.203359
-0.407402
-0.0257972
0.131693
-0.0625423
0.1861
-0.100397
0.191263
-0.13869
0.193381
-0.178098
0.198986
-0.21897
0.206326
-0.261731
0.21585
-0.306706
0.226997
-0.354243
0.239838
0.253666
-0.40455
-0.0253481
0.157041
-0.0616968
0.222449
-0.0992213
0.228788
-0.137195
0.231355
-0.176281
0.238072
-0.216826
0.24687
-0.259247
0.258272
-0.303867
0.271618
-0.351041
0.287012
0.303607
-0.400982
-0.024812
0.181853
-0.0606837
0.25832
-0.0978122
0.265917
-0.135405
0.268948
-0.174105
0.276772
-0.214259
0.287024
-0.256274
0.300286
-0.300468
0.315812
-0.347202
0.333746
0.353106
-0.396701
-0.0241919
0.206045
-0.0595036
0.293632
-0.0961712
0.302584
-0.13332
0.306097
-0.171573
0.315025
-0.211273
0.326724
-0.252815
0.341828
-0.296513
0.359509
-0.342733
0.379966
0.402087
-0.391714
-0.0234944
0.229539
-0.0581575
0.328295
-0.0942995
0.338726
-0.130944
0.342741
-0.168689
0.35277
-0.207873
0.365908
-0.248878
0.382833
-0.29201
0.402642
-0.337643
0.425599
0.450473
-0.386029
-0.0227386
0.252278
-0.0566459
0.362202
-0.0921983
0.374278
-0.128277
0.378821
-0.165455
0.389947
-0.204062
0.404516
-0.244467
0.423239
-0.286968
0.445143
-0.331942
0.470573
0.498189
-0.379659
-0.0218979
0.274176
-0.0549669
0.395271
-0.0898685
0.40918
-0.125324
0.414276
-0.161875
0.426498
-0.199846
0.442487
-0.239591
0.462984
-0.281396
0.486948
-0.325639
0.514815
0.545164
-0.372614
-0.0209456
0.295122
-0.0531194
0.427445
-0.0873107
0.443371
-0.122086
0.449052
-0.157955
0.462366
-0.195231
0.479763
-0.234256
0.502009
-0.275302
0.527994
-0.318744
0.558257
0.591328
-0.364907
-0.0198961
0.315018
-0.0511048
0.458654
-0.0845259
0.476792
-0.118567
0.483093
-0.153698
0.497497
-0.190223
0.516289
-0.228472
0.540257
-0.268697
0.56822
-0.311269
0.600829
0.636612
-0.356554
-0.0187552
0.333773
-0.048925
0.488824
-0.0815154
0.509383
-0.11477
0.516348
-0.149109
0.531836
-0.18483
0.552009
-0.222247
0.577673
-0.261593
0.607566
-0.303228
0.642464
0.680951
-0.347567
-0.0175266
0.351299
-0.0465816
0.517879
-0.0782813
0.541082
-0.110699
0.548766
-0.144196
0.565332
-0.179058
0.586872
-0.21559
0.614206
-0.254001
0.645977
-0.294631
0.683094
0.724279
-0.337959
-0.0162127
0.367512
-0.0440762
0.545742
-0.0748255
0.571832
-0.106358
0.580298
-0.138962
0.597936
-0.172916
0.620826
-0.208514
0.649804
-0.245939
0.683402
-0.285496
0.722651
0.766527
-0.327744
-0.0148158
0.382328
-0.0414104
0.572337
-0.0711501
0.601571
-0.101749
0.610897
-0.133414
0.629601
-0.166411
0.653823
-0.201025
0.684418
-0.237413
0.71979
-0.275821
0.761058
0.807624
-0.316918
-0.0133377
0.395666
-0.0385862
0.597585
-0.0672574
0.630243
-0.0968788
0.640519
-0.127559
0.66028
-0.159553
0.685818
-0.19314
0.718005
-0.228469
0.755119
-0.265663
0.798252
0.847454
-0.305493
-0.01178
0.407446
-0.0356057
0.621411
-0.0631494
0.657786
-0.09175
0.669119
-0.121402
0.689932
-0.152349
0.716765
-0.184854
0.75051
-0.219077
0.789342
-0.254907
0.834083
0.885926
-0.293379
-0.0101442
0.41759
-0.0324712
0.643738
-0.0588284
0.684144
-0.0863674
0.696658
-0.114951
0.718516
-0.144812
0.746625
-0.176192
0.781891
-0.209342
0.822492
-0.243912
0.868653
0.922772
-0.280758
-0.00843144
0.426021
-0.0291853
0.664492
-0.0542967
0.709255
-0.0807356
0.723097
-0.108213
0.745993
-0.136951
0.775364
-0.167155
0.812095
-0.199122
0.854459
-0.232952
0.902483
0.957383
-0.267564
-0.00664217
0.432663
-0.02575
0.6836
-0.0495568
0.733062
-0.0748594
0.7484
-0.101193
0.772326
-0.128774
0.802944
-0.157766
0.841087
-0.188447
0.885141
-0.22097
0.935006
0.991298
-0.254885
-0.00477506
0.437438
-0.0221676
0.700992
-0.0446117
0.755506
-0.0687438
0.772532
-0.093899
0.797482
-0.120289
0.829335
-0.148041
0.868839
-0.177382
0.914482
-0.208584
0.966207
1.02405
-0.241339
-0.00282355
0.440262
-0.0184399
0.716609
-0.0394652
0.776531
-0.0623939
0.79546
-0.0863391
0.821427
-0.111507
0.854503
-0.137992
0.895324
-0.165985
0.942475
-0.195787
0.99601
1.05539
-0.227121
-0.000751803
0.441014
-0.0145679
0.730425
-0.0341226
0.796086
-0.0558148
0.817153
-0.0785212
0.844133
-0.102437
0.878418
-0.127629
0.920516
-0.154257
0.969103
-0.182618
1.02437
1.08524
-0.212475
0.00119624
0.439818
-0.0105509
0.742172
-0.0285931
0.814128
-0.0490119
0.837572
-0.0704537
0.865575
-0.0930909
0.901056
-0.116963
0.944388
-0.142201
0.994341
-0.169084
1.05125
1.11359
-0.197432
0.00312467
0.436693
-0.00637592
0.751672
-0.0228883
0.830641
-0.0419902
0.856673
-0.0621452
0.88573
-0.0834795
0.92239
-0.106005
0.966914
-0.12983
1.01817
-0.155204
1.07663
1.14038
-0.181991
0.0051266
0.431566
-0.00201321
0.758812
-0.0170174
0.845645
-0.0347542
0.87441
-0.053605
0.904581
-0.073614
0.942399
-0.094771
0.988071
-0.117159
1.04055
-0.140999
1.10047
1.16557
-0.166185
0.00716279
0.424404
0.00236071
0.763614
-0.0109917
0.858997
-0.0273098
0.890728
-0.0448426
0.922114
-0.0635058
0.961062
-0.0832742
1.00784
-0.104206
1.06149
-0.126492
1.12275
1.18912
-0.150046
0.00921108
0.415192
0.00674103
0.766084
-0.00482763
0.870566
-0.019666
0.905567
-0.035868
0.938316
-0.0531659
0.97836
-0.0715296
1.0262
-0.0909872
1.08094
-0.111703
1.14347
1.21102
-0.133605
0.0112556
0.403937
0.0112424
0.766097
0.0014948
0.880313
-0.0118345
0.918896
-0.0266915
0.953173
-0.0426059
0.994274
-0.0595523
1.04315
-0.0775207
1.09891
-0.0966529
1.1626
1.23126
-0.116887
0.0132783
0.390659
0.0158232
0.763553
0.00812672
0.88801
-0.00383848
0.930861
-0.0173237
0.966658
-0.0318381
1.00879
-0.0473574
1.05867
-0.0638251
1.11538
-0.0813612
1.18014
1.24981
-0.0999167
0.0152557
0.375403
0.0204507
0.758357
0.0148282
0.893632
0.00436958
0.94132
-0.00778528
0.978813
-0.0208761
1.02188
-0.03496
1.07275
-0.0499198
1.13034
-0.065847
1.19606
1.26668
-0.0827153
0.01716
0.358243
0.025094
0.750423
0.021628
0.897098
0.0127732
0.950175
0.00191603
0.98967
-0.00974082
1.03354
-0.0223755
1.08539
-0.0358258
1.14379
-0.0501287
1.21037
1.28185
-0.065304
0.0189603
0.339283
0.0297202
0.739664
0.0285132
0.898305
0.0213125
0.957375
0.0119416
0.999041
0.00153529
1.04394
-0.00962079
1.09654
-0.0215679
1.15574
-0.0342215
1.22302
1.29534
-0.047707
0.0206226
0.31866
0.0342912
0.725995
0.0354592
0.897137
0.029983
0.962852
0.0220692
1.00695
0.0130991
1.05291
0.00329796
1.10634
-0.00718374
1.16622
-0.0181409
1.23398
1.30715
-0.029949
0.0221091
0.296551
0.0387638
0.70934
0.0424352
0.893466
0.0387679
0.966519
0.0323297
1.01339
0.0247657
1.06048
0.0164301
1.11468
0.00741747
1.17523
-0.00187761
1.24327
1.31733
-0.0120617
0.0233784
0.273173
0.0430889
0.68963
0.049404
0.887151
0.0476465
0.968276
0.0427179
1.01832
0.0365574
1.06664
0.0296675
1.12157
0.0222002
1.1827
0.0143522
1.25112
1.3257
0.00598284
0.0243866
0.248786
0.0472119
0.666804
0.0563208
0.878042
0.0565947
0.968002
0.0532209
1.0217
0.0484678
1.07139
0.0430084
1.12703
0.0370449
1.18866
0.0307561
1.25741
1.33227
0.0241903
0.02509
0.223696
0.0510733
0.640821
0.0631308
0.865985
0.0655846
0.965549
0.0638232
1.02346
0.0604845
1.07473
0.0564405
1.13107
0.051961
1.19314
0.0472677
1.2621
1.33717
0.0423607
0.0254498
0.198246
0.0546092
0.611662
0.0697954
0.850798
0.074584
0.96076
0.074507
1.02353
0.0725933
1.07664
0.06995
1.13372
0.0669321
1.19616
0.0637905
1.26525
1.34048
0.0604874
0.0254375
0.172809
0.0577516
0.579348
0.0762562
0.832294
0.083553
0.953463
0.0852514
1.02184
0.0847801
1.07711
0.0835218
1.13497
0.0819373
1.19774
0.0803204
1.26686
1.34217
0.0786299
0.0250402
0.147768
0.0604311
0.543957
0.0824374
0.810288
0.092444
0.943457
0.0960309
1.01825
0.0970294
1.07612
0.0971403
1.13486
0.0969569
1.19793
0.0968363
1.26698
1.34227
0.0967372
0.024263
0.123506
0.0625839
0.505636
0.0882543
0.784617
0.101198
0.930513
0.106814
1.01263
0.109324
1.07361
0.11079
1.1334
0.111972
1.19675
0.113314
1.26564
1.34081
0.114772
0.0231279
0.100378
0.0641562
0.464607
0.0936079
0.755165
0.109743
0.914378
0.11756
1.00482
0.121642
1.06952
0.124455
1.13058
0.126965
1.19423
0.129729
1.26288
1.33784
0.132701
0.0216728
0.0787048
0.0649344
0.421346
0.0983867
0.721713
0.117997
0.894768
0.12822
0.994593
0.133959
1.06378
0.138118
1.12643
0.141916
1.19044
0.146055
1.25874
1.3334
0.150496
0.019948
0.0587569
0.0648418
0.376452
0.102475
0.68408
0.125856
0.871387
0.13873
0.981718
0.146245
1.05627
0.151761
1.12091
0.156805
1.18539
0.162269
1.25328
1.32754
0.168126
0.0180049
0.040752
0.0638275
0.330629
0.105744
0.642163
0.133199
0.843932
0.149015
0.965902
0.158458
1.04683
0.165362
1.11401
0.171609
1.17915
0.178348
1.24654
1.32033
0.185562
0.0158912
0.0248607
0.0618526
0.284668
0.108054
0.595962
0.139888
0.812098
0.158978
0.946812
0.170548
1.03526
0.178896
1.10566
0.186312
1.17173
0.194269
1.23858
1.31182
0.202773
0.0136545
0.0112063
0.0589144
0.239408
0.109251
0.545625
0.14576
0.775589
0.168507
0.924066
0.182453
1.02131
0.192331
1.09578
0.200893
1.16317
0.210006
1.22947
1.3021
0.219728
0.0113542
-0.000147879
0.0550644
0.195698
0.10918
0.491509
0.150637
0.734133
0.177468
0.897234
0.194094
1.00468
0.205622
1.08425
0.215321
1.15347
0.225528
1.21926
1.29123
0.236397
0.00907465
-0.00922253
0.0504195
0.154353
0.107691
0.434238
0.154318
0.687506
0.185694
0.865858
0.205363
0.985014
0.21871
1.07091
0.229558
1.14262
0.240807
1.20801
1.2793
0.252735
0.00691226
-0.0161348
0.045154
0.116111
0.104652
0.37474
0.156587
0.635571
0.192981
0.829464
0.21612
0.961876
0.231515
1.05551
0.243556
1.13058
0.255789
1.19578
1.26636
0.268732
0.00497532
-0.0211101
0.0394856
0.081601
0.0999636
0.314262
0.157214
0.578321
0.199092
0.787586
0.226192
0.934776
0.24393
1.03777
0.257253
1.11726
0.270441
1.18259
1.25253
0.284275
0.0033518
-0.0244619
0.0336656
0.0512872
0.0935619
0.254366
0.155958
0.515925
0.203752
0.739792
0.235362
0.903166
0.255817
1.01732
0.270556
1.10252
0.284657
1.16849
1.23771
0.299479
0.00209959
-0.0265615
0.0280537
0.0253332
0.0856698
0.19675
0.152599
0.448996
0.206655
0.685736
0.243369
0.866451
0.266982
0.993705
0.283371
1.08613
0.298388
1.15347
1.2222
0.313895
0.00125594
-0.0278174
0.023036
0.00355313
0.0767756
0.14301
0.146977
0.378794
0.207485
0.625228
0.249899
0.824037
0.277199
0.966405
0.295495
1.06783
0.311463
1.1375
1.20538
0.328286
0.000850093
-0.0286675
0.0190371
-0.0146339
0.0676283
0.0944187
0.139104
0.307318
0.205943
0.55839
0.254594
0.775386
0.286139
0.93486
0.306846
1.04712
0.323602
1.12074
1.18814
0.340839
0.000904946
-0.0295725
0.0164386
-0.0301675
0.059156
0.0517013
0.129316
0.237158
0.201776
0.48593
0.257048
0.720114
0.293476
0.898432
0.316955
1.02365
0.334988
1.10271
1.16852
0.354608
0.00142488
-0.0309974
0.0154234
-0.044166
0.0522914
0.0148333
0.118408
0.171042
0.19486
0.409477
0.25686
0.658115
0.29873
0.856562
0.32593
0.996446
0.343286
1.08536
1.1478
0.363999
0.00237271
-0.0333701
0.0158887
-0.057682
0.0476926
-0.0169706
0.107579
0.111155
0.18535
0.331706
0.253672
0.589792
0.301459
0.808775
0.332955
0.964951
0.352437
1.06587
1.12823
0.372015
0.00364678
-0.0370169
0.017475
-0.0715103
0.0455483
-0.0450438
0.098078
0.0586256
0.173818
0.255967
0.24726
0.51635
0.301214
0.754821
0.337608
0.928557
0.360781
1.0427
1.10675
0.382259
0.00508703
-0.0421039
0.0196452
-0.0860685
0.0453906
-0.0707892
0.0906821
0.013334
0.161221
0.185428
0.23762
0.439952
0.297512
0.694929
0.339253
0.886815
0.366676
1.01528
1.08305
0.390378
0.00649993
-0.0486038
0.0217906
-0.101359
0.0461809
-0.0951794
0.0853276
-0.0258127
0.148558
0.122197
0.225007
0.363503
0.289932
0.630005
0.337255
0.839492
0.369527
0.983005
1.0567
0.395877
0.00768693
-0.0562907
0.0233256
-0.116998
0.0466636
-0.118517
0.0810831
-0.0602322
0.136342
0.0669376
0.209798
0.290047
0.278199
0.561603
0.331016
0.786675
0.368676
0.945345
1.02698
0.398388
0.0084688
-0.0647595
0.0237824
-0.132311
0.0457262
-0.140461
0.0764925
-0.0909986
0.124283
0.0191468
0.192323
0.222008
0.262202
0.491724
0.320017
0.72886
0.363486
0.901875
0.993161
0.39731
0.0087033
-0.0734629
0.0228486
-0.146457
0.0426317
-0.160244
0.0701133
-0.11848
0.111401
-0.0221409
0.172685
0.160724
0.241928
0.422482
0.303852
0.666937
0.35335
0.852377
0.954485
0.392026
0.00829711
-0.08176
0.0203746
-0.158534
0.0370618
-0.176931
0.0609453
-0.142364
0.0965022
-0.0576979
0.150633
0.106593
0.217388
0.355727
0.282252
0.602073
0.337731
0.796898
0.910282
0.381934
0.00721307
-0.088973
0.0163647
-0.167686
0.0290492
-0.189616
0.0486085
-0.161923
0.0786804
-0.0877698
0.125732
0.0595405
0.188608
0.292852
0.255114
0.535566
0.31623
0.735782
0.859998
0.366515
0.00547241
-0.0944454
0.0109568
-0.17317
0.018873
-0.197532
0.0332763
-0.176326
0.0575984
-0.112092
0.0976874
0.0194515
0.155716
0.234823
0.222551
0.468731
0.28867
0.669662
0.803256
0.345412
0.00315182
-0.0975973
0.00439286
-0.174411
0.00695613
-0.200095
0.0154792
-0.184849
0.0335163
-0.130129
0.0665934
-0.0136255
0.119095
0.182322
0.184976
0.40285
0.255185
0.599453
0.739926
0.318516
0.000378603
-0.0979759
-0.00297671
-0.171056
-0.00608545
-0.196987
-0.004016
-0.186919
0.00709209
-0.141237
0.0330219
-0.0395554