/*--------------------------------*- C++ -*----------------------------------*\
  =========                 |
  \\      /  F ield         | OpenFOAM: The Open Source CFD Toolbox
   \\    /   O peration     | Website:  https://openfoam.org
    \\  /    A nd           | Version:  7
     \\/     M anipulation  |
\*---------------------------------------------------------------------------*/
FoamFile
{
    version     2.0;
    format      ascii;
    class       volScalarField;
    location    "2.3";
    object      p;
}
// * * * * * * * * * * * * * * * * * * * * * * * * * * * * * * * * * * * * * //

dimensions      [0 2 -2 0 0 0 0];

internalField   nonuniform List<scalar> 
306000
(
-0.352382
-0.360337
-0.362974
-0.366829
-0.369642
-0.37261
-0.375534
-0.378668
-0.382038
-0.385701
-0.389664
-0.393919
-0.398439
-0.403188
-0.408116
-0.41317
-0.418286
-0.4234
-0.428438
-0.433326
-0.437985
-0.442333
-0.446286
-0.449758
-0.452662
-0.45491
-0.456416
-0.457095
-0.456864
-0.455645
-0.453364
-0.449954
-0.445357
-0.439522
-0.432409
-0.423991
-0.414254
-0.403196
-0.390832
-0.377192
-0.362323
-0.346289
-0.329167
-0.311055
-0.292061
-0.272311
-0.251939
-0.231092
-0.209924
-0.188594
-0.167265
-0.146097
-0.12525
-0.104879
-0.0851299
-0.0661398
-0.0480345
-0.030915
-0.014898
5.78497e-05
-0.352479
-0.360423
-0.363058
-0.366909
-0.36972
-0.372686
-0.375609
-0.378742
-0.382111
-0.385775
-0.389738
-0.393993
-0.398514
-0.403264
-0.408194
-0.41325
-0.418369
-0.423484
-0.428526
-0.433417
-0.43808
-0.442433
-0.44639
-0.449868
-0.452777
-0.455032
-0.456544
-0.45723
-0.457006
-0.455795
-0.453522
-0.450121
-0.445532
-0.439705
-0.432601
-0.424192
-0.414463
-0.403414
-0.391058
-0.377425
-0.362564
-0.346535
-0.32942
-0.311312
-0.292323
-0.272575
-0.252205
-0.23136
-0.210192
-0.188862
-0.16753
-0.14636
-0.125509
-0.105134
-0.0853796
-0.0663833
-0.0482709
-0.0311433
-0.0151197
-0.000148496
-0.352674
-0.360596
-0.363225
-0.367068
-0.369875
-0.372838
-0.375758
-0.37889
-0.382259
-0.385922
-0.389885
-0.394141
-0.398665
-0.403417
-0.40835
-0.413409
-0.418533
-0.423654
-0.428702
-0.4336
-0.438271
-0.442632
-0.446599
-0.450087
-0.453008
-0.455274
-0.4568
-0.4575
-0.457291
-0.456095
-0.453838
-0.450453
-0.445881
-0.440072
-0.432985
-0.424594
-0.414882
-0.403848
-0.391508
-0.377891
-0.363044
-0.347028
-0.329924
-0.311826
-0.292845
-0.273103
-0.252738
-0.231895
-0.210727
-0.189395
-0.16806
-0.146885
-0.126027
-0.105643
-0.0858782
-0.0668695
-0.0487432
-0.0315993
-0.0155625
-0.000560698
-0.352966
-0.360855
-0.363476
-0.367307
-0.370108
-0.373065
-0.375982
-0.379111
-0.382479
-0.386142
-0.390106
-0.394364
-0.39889
-0.403645
-0.408583
-0.413648
-0.418779
-0.423908
-0.428965
-0.433874
-0.438556
-0.44293
-0.446912
-0.450415
-0.453353
-0.455638
-0.457183
-0.457903
-0.457716
-0.456543
-0.45431
-0.45095
-0.446404
-0.44062
-0.43356
-0.425194
-0.415507
-0.404499
-0.392183
-0.378588
-0.363762
-0.347765
-0.330678
-0.312595
-0.293625
-0.273893
-0.253534
-0.232695
-0.211528
-0.190193
-0.168853
-0.14767
-0.126802
-0.106405
-0.0866239
-0.0675968
-0.0494497
-0.0322816
-0.0162252
-0.00117778
-0.353353
-0.361199
-0.36381
-0.367624
-0.370417
-0.373367
-0.376279
-0.379406
-0.382771
-0.386434
-0.390399
-0.394659
-0.399188
-0.403949
-0.408893
-0.413966
-0.419105
-0.424245
-0.429314
-0.434237
-0.438935
-0.443326
-0.447327
-0.450851
-0.453811
-0.45612
-0.457692
-0.45844
-0.458282
-0.457139
-0.454938
-0.451611
-0.447098
-0.441348
-0.434322
-0.42599
-0.416338
-0.405362
-0.393078
-0.379514
-0.364715
-0.348744
-0.331679
-0.313616
-0.294662
-0.274942
-0.254592
-0.233757
-0.212591
-0.191253
-0.169907
-0.148713
-0.127831
-0.107416
-0.0876146
-0.068563
-0.0503884
-0.0331884
-0.0171062
-0.0019983
-0.353836
-0.361628
-0.364225
-0.36802
-0.370802
-0.373743
-0.37665
-0.379772
-0.383136
-0.386798
-0.390764
-0.395027
-0.39956
-0.404327
-0.409279
-0.414361
-0.419511
-0.424664
-0.429749
-0.434689
-0.439406
-0.443819
-0.447843
-0.451393
-0.454381
-0.45672
-0.458324
-0.459106
-0.458984
-0.45788
-0.455718
-0.452432
-0.44796
-0.442253
-0.43527
-0.426981
-0.417371
-0.406436
-0.394191
-0.380664
-0.3659
-0.349961
-0.332925
-0.314885
-0.295952
-0.276247
-0.255907
-0.235078
-0.213913
-0.192572
-0.171217
-0.15001
-0.129111
-0.108674
-0.0888469
-0.0697652
-0.0515566
-0.0343172
-0.0182032
-0.00302034
-0.354413
-0.36214
-0.364722
-0.368492
-0.371262
-0.374192
-0.377092
-0.38021
-0.383571
-0.387232
-0.391199
-0.395466
-0.400004
-0.404778
-0.409739
-0.414832
-0.419996
-0.425165
-0.430267
-0.435228
-0.439968
-0.444406
-0.448459
-0.452039
-0.455061
-0.457436
-0.459078
-0.459901
-0.459822
-0.458763
-0.456648
-0.45341
-0.448989
-0.443333
-0.4364
-0.428162
-0.418602
-0.407717
-0.395519
-0.382036
-0.367314
-0.351413
-0.33441
-0.316399
-0.297489
-0.277803
-0.257476
-0.236654
-0.21549
-0.194144
-0.172779
-0.151557
-0.130637
-0.110175
-0.0903171
-0.0711995
-0.0529508
-0.0356645
-0.0195131
-0.00424151
-0.355083
-0.362735
-0.365298
-0.36904
-0.371796
-0.374714
-0.377605
-0.380717
-0.384075
-0.387736
-0.391705
-0.395975
-0.400519
-0.405301
-0.410272
-0.415378
-0.420558
-0.425745
-0.430868
-0.435852
-0.440619
-0.445087
-0.449172
-0.452788
-0.455848
-0.458265
-0.459951
-0.460821
-0.460793
-0.459786
-0.457725
-0.454544
-0.45018
-0.444583
-0.437709
-0.42953
-0.420028
-0.409199
-0.397056
-0.383625
-0.368951
-0.353094
-0.33613
-0.318153
-0.29927
-0.279605
-0.259293
-0.238479
-0.217316
-0.195965
-0.174588
-0.153348
-0.132405
-0.111914
-0.0920204
-0.0728618
-0.0545672
-0.0372265
-0.0210326
-0.00565897
-0.355844
-0.363411
-0.365952
-0.369663
-0.372402
-0.375305
-0.378188
-0.381294
-0.384648
-0.388308
-0.392278
-0.396552
-0.401103
-0.405894
-0.410877
-0.415998
-0.421195
-0.426402
-0.431549
-0.43656
-0.441357
-0.445858
-0.44998
-0.453636
-0.45674
-0.459204
-0.46094
-0.461864
-0.461892
-0.460944
-0.458946
-0.455828
-0.45153
-0.445998
-0.439192
-0.43108
-0.421643
-0.410879
-0.398798
-0.385426
-0.370806
-0.354998
-0.338078
-0.320139
-0.301288
-0.281648
-0.261352
-0.240547
-0.219386
-0.198029
-0.176639
-0.155379
-0.134409
-0.113884
-0.0939515
-0.0747468
-0.0564007
-0.0389993
-0.0227576
-0.00726941
-0.356695
-0.364166
-0.366684
-0.370359
-0.373079
-0.375967
-0.378838
-0.381937
-0.385288
-0.388946
-0.392918
-0.397197
-0.401755
-0.406556
-0.411552
-0.416689
-0.421906
-0.427136
-0.432308
-0.437349
-0.442179
-0.446717
-0.45088
-0.454581
-0.457733
-0.46025
-0.462042
-0.463026
-0.463117
-0.462235
-0.460305
-0.457258
-0.453033
-0.447575
-0.440844
-0.432806
-0.423443
-0.41275
-0.400738
-0.387431
-0.372872
-0.35712
-0.34025
-0.322353
-0.303537
-0.283923
-0.263646
-0.242852
-0.221693
-0.200329
-0.178925
-0.157643
-0.136643
-0.116081
-0.0961045
-0.076849
-0.058446
-0.0409777
-0.0246835
-0.00906908
-0.357633
-0.364999
-0.36749
-0.371127
-0.373826
-0.376695
-0.379556
-0.382646
-0.385992
-0.38965
-0.393624
-0.397907
-0.402473
-0.407285
-0.412295
-0.41745
-0.422687
-0.427942
-0.433144
-0.438217
-0.443083
-0.447662
-0.45187
-0.45562
-0.458826
-0.461399
-0.463253
-0.464302
-0.464462
-0.463652
-0.461798
-0.458829
-0.454684
-0.449308
-0.442658
-0.434702
-0.42542
-0.414806
-0.40287
-0.389635
-0.375143
-0.359452
-0.342636
-0.324786
-0.306009
-0.286425
-0.266169
-0.245385
-0.224228
-0.202858
-0.181438
-0.160131
-0.139099
-0.118497
-0.0984728
-0.079162
-0.0606973
-0.0431562
-0.0268055
-0.0110538
-0.358657
-0.365908
-0.36837
-0.371964
-0.37464
-0.37749
-0.380338
-0.383419
-0.38676
-0.390416
-0.394392
-0.39868
-0.403254
-0.408078
-0.413104
-0.418277
-0.423538
-0.42882
-0.434052
-0.43916
-0.444067
-0.44869
-0.452946
-0.456749
-0.460012
-0.462648
-0.464569
-0.465689
-0.465924
-0.465193
-0.46342
-0.460536
-0.456478
-0.45119
-0.44463
-0.436763
-0.427568
-0.41704
-0.405186
-0.39203
-0.377611
-0.361986
-0.345229
-0.32743
-0.308695
-0.289144
-0.26891
-0.24814
-0.226985
-0.205608
-0.18417
-0.162838
-0.14177
-0.121125
-0.101049
-0.081679
-0.0631482
-0.0455291
-0.0291181
-0.0132188
-0.359764
-0.36689
-0.369321
-0.372868
-0.37552
-0.378349
-0.381182
-0.384254
-0.38759
-0.391243
-0.395221
-0.399514
-0.404097
-0.408934
-0.413976
-0.41917
-0.424455
-0.429765
-0.435031
-0.440177
-0.445126
-0.449796
-0.454104
-0.457965
-0.46129
-0.463993
-0.465986
-0.467182
-0.467497
-0.466851
-0.465166
-0.462373
-0.458408
-0.453216
-0.446751
-0.43898
-0.42988
-0.419445
-0.407679
-0.394607
-0.380267
-0.364714
-0.348022
-0.330278
-0.311588
-0.292072
-0.271863
-0.251106
-0.229955
-0.208569
-0.187114
-0.165753
-0.144648
-0.123956
-0.103826
-0.0843925
-0.0657916
-0.0480897
-0.0316151
-0.015559
-0.360952
-0.367944
-0.370342
-0.373838
-0.376463
-0.379269
-0.382087
-0.385148
-0.388478
-0.392129
-0.396108
-0.400407
-0.405
-0.409849
-0.414909
-0.420124
-0.425435
-0.430776
-0.436077
-0.441263
-0.446257
-0.450978
-0.455341
-0.459263
-0.462654
-0.465428
-0.467497
-0.468775
-0.469176
-0.46862
-0.46703
-0.464334
-0.460469
-0.455378
-0.449016
-0.441347
-0.432348
-0.422011
-0.410341
-0.39736
-0.383103
-0.367628
-0.351003
-0.333319
-0.314677
-0.295199
-0.275017
-0.254275
-0.233127
-0.211733
-0.190259
-0.168868
-0.147724
-0.126983
-0.106794
-0.0872945
-0.0686202
-0.0508311
-0.0342901
-0.0180688
-0.362217
-0.369068
-0.371429
-0.374872
-0.377468
-0.380249
-0.383051
-0.3861
-0.389423
-0.393072
-0.397052
-0.401356
-0.405958
-0.410822
-0.415899
-0.421137
-0.426476
-0.431849
-0.437187
-0.442415
-0.447457
-0.452231
-0.456653
-0.460639
-0.4641
-0.46695
-0.4691
-0.470463
-0.470956
-0.470495
-0.469004
-0.466412
-0.462652
-0.457669
-0.451416
-0.443855
-0.434964
-0.424732
-0.413163
-0.400277
-0.38611
-0.370716
-0.354165
-0.336543
-0.317954
-0.298516
-0.278362
-0.257636
-0.236492
-0.21509
-0.193596
-0.172174
-0.150988
-0.130196
-0.109947
-0.0903767
-0.071626
-0.0537459
-0.0371361
-0.0207423
-0.363558
-0.370258
-0.37258
-0.375966
-0.378532
-0.381286
-0.384071
-0.387107
-0.390423
-0.394068
-0.39805
-0.40236
-0.406971
-0.411849
-0.416945
-0.422207
-0.427574
-0.432981
-0.438357
-0.44363
-0.448722
-0.453552
-0.458036
-0.462089
-0.465624
-0.468552
-0.470787
-0.472241
-0.472829
-0.472469
-0.471083
-0.468599
-0.464951
-0.460081
-0.453942
-0.446496
-0.437718
-0.427597
-0.416134
-0.40335
-0.389278
-0.37397
-0.357496
-0.339941
-0.321407
-0.302012
-0.281889
-0.26118
-0.24004
-0.21863
-0.197115
-0.17566
-0.154431
-0.133585
-0.113273
-0.0936308
-0.0748008
-0.0568263
-0.0401459
-0.0235729
-0.364971
-0.371512
-0.373793
-0.377119
-0.379652
-0.382378
-0.385144
-0.388167
-0.391474
-0.395116
-0.399099
-0.403414
-0.408036
-0.412928
-0.418044
-0.42333
-0.428726
-0.434168
-0.439585
-0.444904
-0.450048
-0.454935
-0.459484
-0.463607
-0.467219
-0.47023
-0.472554
-0.474103
-0.474791
-0.474536
-0.47326
-0.470889
-0.467358
-0.462607
-0.456588
-0.449262
-0.440602
-0.430597
-0.419246
-0.406568
-0.392595
-0.377379
-0.360986
-0.343501
-0.325025
-0.305676
-0.285584
-0.264894
-0.243759
-0.222341
-0.200805
-0.179317
-0.158043
-0.137142
-0.116764
-0.0970472
-0.0781358
-0.0600641
-0.0433116
-0.0265538
-0.366454
-0.372827
-0.375065
-0.378327
-0.380826
-0.383522
-0.386268
-0.389277
-0.392575
-0.396213
-0.400196
-0.404516
-0.409148
-0.414055
-0.419191
-0.424502
-0.429929
-0.435406
-0.440865
-0.446232
-0.45143
-0.456378
-0.460993
-0.46519
-0.468881
-0.471978
-0.474394
-0.476041
-0.476833
-0.476688
-0.475526
-0.473274
-0.469864
-0.465237
-0.459343
-0.452142
-0.443606
-0.433722
-0.422488
-0.409921
-0.396053
-0.380931
-0.364623
-0.347212
-0.328797
-0.309496
-0.289439
-0.268768
-0.247639
-0.226213
-0.204655
-0.183133
-0.161813
-0.140855
-0.12041
-0.100616
-0.081622
-0.0634507
-0.0466252
-0.0296778
-0.368002
-0.374201
-0.376394
-0.379589
-0.382051
-0.384716
-0.38744
-0.390433
-0.393722
-0.397355
-0.401338
-0.405664
-0.410306
-0.415228
-0.420384
-0.42572
-0.431178
-0.436693
-0.442195
-0.447611
-0.452864
-0.457875
-0.462558
-0.46683
-0.470604
-0.47379
-0.476302
-0.478051
-0.47895
-0.478918
-0.477875
-0.475745
-0.472461
-0.467963
-0.462198
-0.455127
-0.44672
-0.436962
-0.42585
-0.413399
-0.399638
-0.384616
-0.368396
-0.351062
-0.332712
-0.313461
-0.293439
-0.27279
-0.251668
-0.230233
-0.208653
-0.187097
-0.16573
-0.144713
-0.124201
-0.104329
-0.08525
-0.0669773
-0.0500783
-0.0329374
-0.369613
-0.37563
-0.377775
-0.380901
-0.383325
-0.385956
-0.388658
-0.391634
-0.394912
-0.39854
-0.402524
-0.406854
-0.411505
-0.416442
-0.421619
-0.426981
-0.432471
-0.438023
-0.44357
-0.449036
-0.454346
-0.45942
-0.464175
-0.468524
-0.472382
-0.475661
-0.47827
-0.480124
-0.481135
-0.481219
-0.480298
-0.478294
-0.475141
-0.470775
-0.465145
-0.458208
-0.449934
-0.440306
-0.42932
-0.416989
-0.40334
-0.388421
-0.372294
-0.35504
-0.336756
-0.317558
-0.297574
-0.276948
-0.255833
-0.234391
-0.212789
-0.191198
-0.169783
-0.148707
-0.128126
-0.108174
-0.0890103
-0.0706346
-0.053662
-0.0363247
-0.371283
-0.377111
-0.379207
-0.38226
-0.384644
-0.38724
-0.389918
-0.392877
-0.396144
-0.399766
-0.403748
-0.408082
-0.412744
-0.417696
-0.422893
-0.428281
-0.433803
-0.439394
-0.444985
-0.450503
-0.455871
-0.46101
-0.465837
-0.470266
-0.474211
-0.477582
-0.480293
-0.482254
-0.483379
-0.483584
-0.482787
-0.480914
-0.477894
-0.473665
-0.468173
-0.461374
-0.453238
-0.443744
-0.432888
-0.42068
-0.407148
-0.392335
-0.376303
-0.359132
-0.340918
-0.321775
-0.301831
-0.281228
-0.260122
-0.238673
-0.21705
-0.195423
-0.173961
-0.152825
-0.132174
-0.112142
-0.0928928
-0.0744133
-0.0573674
-0.0398314
-0.373009
-0.378642
-0.380687
-0.383664
-0.386006
-0.388566
-0.391218
-0.394158
-0.397412
-0.401028
-0.405008
-0.409347
-0.414017
-0.418984
-0.424201
-0.429617
-0.435171
-0.4408
-0.446436
-0.452006
-0.457434
-0.462639
-0.467539
-0.472049
-0.476082
-0.47955
-0.482363
-0.484434
-0.485676
-0.486003
-0.485335
-0.483594
-0.480711
-0.476622
-0.471272
-0.464615
-0.456619
-0.447264
-0.436541
-0.424461
-0.411048
-0.396345
-0.380412
-0.363327
-0.345185
-0.326099
-0.306196
-0.285619
-0.264522
-0.243068
-0.221424
-0.199762
-0.178251
-0.157056
-0.136334
-0.116222
-0.0968874
-0.0783037
-0.0611853
-0.0434492
-0.374786
-0.380219
-0.38221
-0.385108
-0.387407
-0.389929
-0.392555
-0.395475
-0.398716
-0.402323
-0.406302
-0.410644
-0.415323
-0.420304
-0.425542
-0.430983
-0.43657
-0.442238
-0.44792
-0.453542
-0.45903
-0.464302
-0.469277
-0.473869
-0.477991
-0.481556
-0.484474
-0.486657
-0.488017
-0.488469
-0.487932
-0.486327
-0.483584
-0.479638
-0.474432
-0.467921
-0.460069
-0.450854
-0.440269
-0.428319
-0.415029
-0.40044
-0.384608
-0.367612
-0.349544
-0.330517
-0.310658
-0.290108
-0.269022
-0.247562
-0.225898
-0.204201
-0.182642
-0.161387
-0.140595
-0.120403
-0.100984
-0.0822958
-0.0651061
-0.0471694
-0.376612
-0.381838
-0.383774
-0.386592
-0.388845
-0.391327
-0.393925
-0.396824
-0.40005
-0.403649
-0.407625
-0.411969
-0.416657
-0.421652
-0.426909
-0.432377
-0.437996
-0.443703
-0.449431
-0.455106
-0.460653
-0.465993
-0.471043
-0.475718
-0.479932
-0.483595
-0.486619
-0.488915
-0.490395
-0.490974
-0.49057
-0.489103
-0.486502
-0.482701
-0.477643
-0.47128
-0.463575
-0.454505
-0.444059
-0.432243
-0.419079
-0.404605
-0.388878
-0.371972
-0.353982
-0.335016
-0.315202
-0.294681
-0.273607
-0.252143
-0.23046
-0.208729
-0.187123
-0.165808
-0.144947
-0.124675
-0.105171
-0.0863797
-0.0691203
-0.0509832
-0.378483
-0.383497
-0.385376
-0.38811
-0.390316
-0.392756
-0.395326
-0.398202
-0.401413
-0.405003
-0.408975
-0.413321
-0.418016
-0.423024
-0.428301
-0.433794
-0.439445
-0.445191
-0.450964
-0.456692
-0.4623
-0.467708
-0.472833
-0.477592
-0.481897
-0.485659
-0.48879
-0.491201
-0.492803
-0.49351
-0.49324
-0.491913
-0.489457
-0.485803
-0.480895
-0.474682
-0.467126
-0.458203
-0.4479
-0.436221
-0.423185
-0.408829
-0.393208
-0.376397
-0.358485
-0.339583
-0.319816
-0.299325
-0.278265
-0.256799
-0.235097
-0.213332
-0.19168
-0.170307
-0.149377
-0.129026
-0.10944
-0.0905452
-0.073218
-0.0548816
-0.380394
-0.385192
-0.387012
-0.38966
-0.391818
-0.394215
-0.396754
-0.399606
-0.402801
-0.40638
-0.410347
-0.414694
-0.419396
-0.424417
-0.429712
-0.43523
-0.440912
-0.446697
-0.452515
-0.458296
-0.463964
-0.46944
-0.474641
-0.479484
-0.48388
-0.487742
-0.490981
-0.493507
-0.495231
-0.496068
-0.495934
-0.494749
-0.492438
-0.488934
-0.484176
-0.478116
-0.470712
-0.461938
-0.45178
-0.440239
-0.427333
-0.413098
-0.397587
-0.380871
-0.36304
-0.344204
-0.324486
-0.304027
-0.282982
-0.261515
-0.239795
-0.218
-0.196302
-0.174872
-0.153874
-0.133445
-0.113778
-0.0947821
-0.0773895
-0.0588556
-0.382342
-0.38692
-0.388679
-0.391239
-0.393347
-0.395699
-0.398206
-0.401034
-0.40421
-0.407778
-0.411739
-0.416086
-0.420793
-0.425826
-0.431139
-0.436681
-0.442395
-0.448217
-0.45408
-0.459913
-0.465641
-0.471184
-0.476461
-0.481387
-0.485875
-0.489837
-0.493184
-0.495825
-0.497673
-0.498641
-0.498643
-0.4976
-0.495436
-0.492082
-0.487478
-0.481571
-0.474321
-0.465697
-0.455686
-0.444286
-0.431513
-0.417401
-0.402001
-0.385382
-0.367635
-0.348865
-0.329198
-0.308774
-0.287746
-0.266278
-0.244544
-0.222718
-0.200976
-0.17949
-0.158426
-0.137922
-0.118176
-0.0990802
-0.0816248
-0.0628958
-0.384323
-0.388677
-0.390374
-0.392844
-0.394899
-0.397205
-0.399679
-0.40248
-0.405638
-0.409193
-0.413147
-0.417493
-0.422205
-0.427248
-0.432578
-0.438143
-0.443887
-0.449746
-0.455653
-0.461538
-0.467325
-0.472935
-0.478287
-0.483296
-0.487876
-0.491938
-0.495392
-0.498149
-0.500121
-0.501218
-0.501358
-0.500457
-0.498441
-0.495239
-0.490789
-0.485037
-0.477941
-0.46947
-0.459607
-0.448349
-0.435711
-0.421723
-0.406436
-0.389918
-0.372255
-0.353555
-0.333941
-0.313552
-0.292543
-0.271077
-0.249329
-0.227474
-0.205691
-0.18415
-0.163023
-0.142445
-0.122622
-0.103429
-0.085914
-0.0669932
-0.386334
-0.390459
-0.392093
-0.39447
-0.396473
-0.398731
-0.40117
-0.403944
-0.407081
-0.410621
-0.414568
-0.418911
-0.423627
-0.428679
-0.434025
-0.439613
-0.445385
-0.45128
-0.45723
-0.463165
-0.46901
-0.474687
-0.480113
-0.485205
-0.489876
-0.494037
-0.497598
-0.500471
-0.502565
-0.503793
-0.50407
-0.503312
-0.501444
-0.498394
-0.494098
-0.488502
-0.481562
-0.473245
-0.463531
-0.452417
-0.439915
-0.426053
-0.410881
-0.394464
-0.376889
-0.358259
-0.3387
-0.318349
-0.29736
-0.275898
-0.254138
-0.232257
-0.210433
-0.188841
-0.167653
-0.147003
-0.127107
-0.107819
-0.0902472
-0.0711387
-0.388369
-0.392265
-0.393833
-0.396116
-0.398064
-0.400273
-0.402676
-0.405421
-0.408537
-0.412061
-0.415997
-0.420337
-0.425055
-0.430116
-0.435476
-0.441084
-0.446884
-0.452814
-0.458806
-0.46479
-0.470693
-0.476434
-0.481934
-0.487107
-0.491868
-0.496127
-0.499795
-0.502783
-0.505
-0.506358
-0.50677
-0.506156
-0.504435
-0.501537
-0.497396
-0.491957
-0.485173
-0.477009
-0.467446
-0.456477
-0.444112
-0.430378
-0.415322
-0.399008
-0.381521
-0.362965
-0.343462
-0.32315
-0.302184
-0.280729
-0.258959
-0.237053
-0.215192
-0.193551
-0.172303
-0.151585
-0.131619
-0.112239
-0.0946146
-0.0753229
-0.390426
-0.394089
-0.395591
-0.397779
-0.399669
-0.401828
-0.404193
-0.406907
-0.41
-0.413508
-0.417433
-0.421768
-0.426486
-0.431554
-0.436927
-0.442555
-0.448381
-0.454343
-0.460376
-0.466409
-0.472366
-0.478172
-0.483743
-0.488997
-0.493846
-0.498202
-0.501976
-0.505077
-0.507416
-0.508903
-0.509451
-0.508979
-0.507406
-0.504659
-0.500673
-0.49539
-0.488762
-0.480753
-0.471341
-0.460518
-0.448291
-0.434686
-0.419747
-0.403538
-0.386141
-0.36766
-0.348214
-0.327944
-0.307003
-0.285556
-0.263778
-0.241851
-0.219956
-0.198268
-0.176965
-0.156181
-0.136148
-0.11668
-0.0990065
-0.079537
-0.392501
-0.395928
-0.397363
-0.399453
-0.401286
-0.403392
-0.405719
-0.408401
-0.41147
-0.414959
-0.418872
-0.423199
-0.427917
-0.43299
-0.438374
-0.44402
-0.44987
-0.455864
-0.461936
-0.468015
-0.474027
-0.479894
-0.485536
-0.490868
-0.495804
-0.500256
-0.504134
-0.507347
-0.509806
-0.51142
-0.512104
-0.511773
-0.510346
-0.507751
-0.503919
-0.498792
-0.49232
-0.484466
-0.475205
-0.464527
-0.452439
-0.438964
-0.424143
-0.40804
-0.390735
-0.37233
-0.352945
-0.332718
-0.311804
-0.290367
-0.268585
-0.246639
-0.224712
-0.202981
-0.181625
-0.160779
-0.140684
-0.121132
-0.103413
-0.083772
-0.394589
-0.39778
-0.399147
-0.401138
-0.402912
-0.404964
-0.40725
-0.409899
-0.412941
-0.41641
-0.420309
-0.424628
-0.429343
-0.434419
-0.439814
-0.445475
-0.451349
-0.457372
-0.463481
-0.469604
-0.475668
-0.481595
-0.487305
-0.492714
-0.497736
-0.502282
-0.506262
-0.509585
-0.512162
-0.513903
-0.51472
-0.514528
-0.513247
-0.510802
-0.507123
-0.502151
-0.495835
-0.488135
-0.479026
-0.468494
-0.456545
-0.4432
-0.4285
-0.412503
-0.395291
-0.376964
-0.357641
-0.33746
-0.316574
-0.295151
-0.273367
-0.251405
-0.229449
-0.207678
-0.186275
-0.165371
-0.145217
-0.125585
-0.107825
-0.0880191
-0.396688
-0.399641
-0.400938
-0.402829
-0.404543
-0.40654
-0.408784
-0.411398
-0.414413
-0.41786
-0.421743
-0.426051
-0.430762
-0.43584
-0.441241
-0.446917
-0.452811
-0.458862
-0.465006
-0.471171
-0.477285
-0.483271
-0.489047
-0.494531
-0.499635
-0.504272
-0.508352
-0.511785
-0.514478
-0.516343
-0.517292
-0.517238
-0.516101
-0.513804
-0.510277
-0.505459
-0.499298
-0.491752
-0.482793
-0.472408
-0.460599
-0.447384
-0.432804
-0.416916
-0.399797
-0.38155
-0.36229
-0.342157
-0.321302
-0.299895
-0.278112
-0.256137
-0.234157
-0.21235
-0.190902
-0.169944
-0.149737
-0.130029
-0.112234
-0.0922698
-0.398792
-0.401508
-0.402734
-0.404524
-0.406176
-0.408116
-0.410317
-0.412895
-0.41588
-0.419304
-0.423169
-0.427465
-0.43217
-0.437247
-0.442654
-0.448342
-0.454254
-0.460331
-0.466507
-0.472712
-0.478874
-0.484915
-0.490755
-0.496311
-0.501496
-0.506222
-0.5104
-0.513938
-0.516746
-0.518733
-0.519811
-0.519893
-0.518898
-0.516747
-0.513371
-0.508706
-0.502699
-0.495306
-0.486498
-0.476258
-0.464588
-0.451504
-0.437045
-0.421265
-0.404242
-0.386075
-0.366881
-0.346797
-0.325977
-0.304589
-0.28281
-0.260826
-0.238824
-0.216986
-0.195498
-0.174491
-0.154234
-0.134456
-0.11663
-0.0965156
-0.4009
-0.403377
-0.404532
-0.40622
-0.407808
-0.409691
-0.411847
-0.414387
-0.417341
-0.420739
-0.424585
-0.428867
-0.433563
-0.438637
-0.444048
-0.449745
-0.455674
-0.461774
-0.467979
-0.474222
-0.480429
-0.486523
-0.492424
-0.498049
-0.503312
-0.508125
-0.512398
-0.516039
-0.518959
-0.521065
-0.52227
-0.522486
-0.52163
-0.519625
-0.516397
-0.511883
-0.506028
-0.498787
-0.490128
-0.480034
-0.468502
-0.45555
-0.441211
-0.425541
-0.408615
-0.39053
-0.371403
-0.351371
-0.330587
-0.30922
-0.287449
-0.265459
-0.24344
-0.221575
-0.200052
-0.179001
-0.1587
-0.138857
-0.121004
-0.100748
-0.403006
-0.405246
-0.406329
-0.407914
-0.409438
-0.411262
-0.413371
-0.415871
-0.418792
-0.422163
-0.425987
-0.430253
-0.434938
-0.440008
-0.445419
-0.451124
-0.457066
-0.463186
-0.469419
-0.475697
-0.481946
-0.48809
-0.494049
-0.499741
-0.505079
-0.509975
-0.51434
-0.518082
-0.52111
-0.523333
-0.524662
-0.525009
-0.52429
-0.522427
-0.519346
-0.514981
-0.509277
-0.502186
-0.493675
-0.483725
-0.472332
-0.459511
-0.445293
-0.429733
-0.412904
-0.394903
-0.375845
-0.355867
-0.335122
-0.313779
-0.292019
-0.270028
-0.247996
-0.226108
-0.204554
-0.183464
-0.163126
-0.143223
-0.125349
-0.104961
-0.405108
-0.407111
-0.408122
-0.409603
-0.411062
-0.412825
-0.414886
-0.417345
-0.420231
-0.423573
-0.427373
-0.431621
-0.436293
-0.441355
-0.446765
-0.452474
-0.458427
-0.464564
-0.470822
-0.477131
-0.48342
-0.489611
-0.495626
-0.501381
-0.50679
-0.511767
-0.51622
-0.520059
-0.523193
-0.52553
-0.526979
-0.527454
-0.52687
-0.525147
-0.52221
-0.517992
-0.512436
-0.505494
-0.49713
-0.487323
-0.476068
-0.463377
-0.449281
-0.433831
-0.4171
-0.399184
-0.380196
-0.360274
-0.339571
-0.318256
-0.29651
-0.274521
-0.252481
-0.230575
-0.208997
-0.187873
-0.167502
-0.147547
-0.129656
-0.109144
-0.407202
-0.408969
-0.409907
-0.411284
-0.412676
-0.414378
-0.41639
-0.418806
-0.421656
-0.424966
-0.42874
-0.432967
-0.437624
-0.442676
-0.448081
-0.453792
-0.459753
-0.465905
-0.472184
-0.478522
-0.484847
-0.491082
-0.497148
-0.502963
-0.508441
-0.513494
-0.518033
-0.521966
-0.525202
-0.527648
-0.529216
-0.529816
-0.529363
-0.527776
-0.524981
-0.520908
-0.515498
-0.508703
-0.500484
-0.490819
-0.479701
-0.46714
-0.453165
-0.437825
-0.421194
-0.403363
-0.384448
-0.364584
-0.343925
-0.322641
-0.300913
-0.278931
-0.256887
-0.234968
-0.213371
-0.192219
-0.171822
-0.151819
-0.133918
-0.113293
-0.409285
-0.410818
-0.411683
-0.412955
-0.41428
-0.415919
-0.417881
-0.420251
-0.423063
-0.42634
-0.430085
-0.434289
-0.438927
-0.443967
-0.449365
-0.455075
-0.461041
-0.467204
-0.473502
-0.479865
-0.486222
-0.492497
-0.498612
-0.504483
-0.510026
-0.515153
-0.519773
-0.523796
-0.52713
-0.529683
-0.531365
-0.532087
-0.531762
-0.530309
-0.527652
-0.523721
-0.518455
-0.511804
-0.503729
-0.494205
-0.483223
-0.47079
-0.456936
-0.441707
-0.425175
-0.407431
-0.38859
-0.368787
-0.348175
-0.326925
-0.305219
-0.283247
-0.261205
-0.239279
-0.217668
-0.196494
-0.176077
-0.156034
-0.138128
-0.117399
-0.411353
-0.412655
-0.413446
-0.414613
-0.41587
-0.417445
-0.419354
-0.421679
-0.424449
-0.427691
-0.431406
-0.435584
-0.440201
-0.445225
-0.450614
-0.456319
-0.462287
-0.468459
-0.474771
-0.481156
-0.487542
-0.493854
-0.500013
-0.505937
-0.511541
-0.516737
-0.521435
-0.525544
-0.528973
-0.531629
-0.533421
-0.534261
-0.53406
-0.532738
-0.530216
-0.526424
-0.5213
-0.514791
-0.506858
-0.497472
-0.486625
-0.47432
-0.460586
-0.445469
-0.429036
-0.41138
-0.392615
-0.372874
-0.352311
-0.331099
-0.309419
-0.287463
-0.265427
-0.243499
-0.22188
-0.200691
-0.18026
-0.160183
-0.142278
-0.121456
-0.413404
-0.414477
-0.415194
-0.416256
-0.417445
-0.418955
-0.42081
-0.423086
-0.425814
-0.429018
-0.4327
-0.436849
-0.441443
-0.446448
-0.451824
-0.457521
-0.463488
-0.469664
-0.475988
-0.482391
-0.488803
-0.495148
-0.501348
-0.50732
-0.512981
-0.518242
-0.523014
-0.527205
-0.530724
-0.533479
-0.535378
-0.536332
-0.536253
-0.535057
-0.532667
-0.529012
-0.524026
-0.517657
-0.509863
-0.500615
-0.4899
-0.477723
-0.464108
-0.449101
-0.432769
-0.415202
-0.396513
-0.376837
-0.356327
-0.335155
-0.313505
-0.291569
-0.269545
-0.247621
-0.226
-0.204803
-0.184364
-0.164261
-0.146362
-0.125458
-0.415435
-0.416282
-0.416925
-0.417882
-0.419001
-0.420445
-0.422245
-0.424471
-0.427154
-0.430318
-0.433964
-0.438082
-0.44265
-0.447634
-0.452993
-0.45868
-0.464641
-0.470819
-0.47715
-0.483568
-0.490001
-0.496375
-0.502611
-0.508629
-0.514342
-0.519664
-0.524505
-0.528775
-0.53238
-0.53523
-0.537232
-0.538295
-0.538333
-0.537261
-0.535
-0.531477
-0.526627
-0.520395
-0.512738
-0.503625
-0.493041
-0.48099
-0.467495
-0.452598
-0.436367
-0.41889
-0.400279
-0.380669
-0.360215
-0.339087
-0.317471
-0.29556
-0.273553
-0.251638
-0.230023
-0.208823
-0.188384
-0.168262
-0.150375
-0.1294
-0.417442
-0.418066
-0.418636
-0.419489
-0.420537
-0.421914
-0.423657
-0.425831
-0.428468
-0.431589
-0.435197
-0.439282
-0.443819
-0.448778
-0.454118
-0.45979
-0.465743
-0.471919
-0.478254
-0.484682
-0.491133
-0.497532
-0.5038
-0.509858
-0.51562
-0.520999
-0.525905
-0.530248
-0.533936
-0.536876
-0.538976
-0.540146
-0.540297
-0.539345
-0.537209
-0.533815
-0.529098
-0.523
-0.515477
-0.506497
-0.496043
-0.484117
-0.47074
-0.455953
-0.439822
-0.422436
-0.403905
-0.384364
-0.363967
-0.342887
-0.321309
-0.299428
-0.277443
-0.255544
-0.23394
-0.212745
-0.192312
-0.172179
-0.15431
-0.133275
-0.419424
-0.419829
-0.420325
-0.421073
-0.422051
-0.42336
-0.425045
-0.427165
-0.429754
-0.43283
-0.436397
-0.440444
-0.44495
-0.44988
-0.455197
-0.460852
-0.466792
-0.472961
-0.479296
-0.485731
-0.492195
-0.498615
-0.504912
-0.511005
-0.516811
-0.522242
-0.527209
-0.531622
-0.535388
-0.538414
-0.540608
-0.54188
-0.54214
-0.541303
-0.539288
-0.536021
-0.531433
-0.525467
-0.518076
-0.509226
-0.4989
-0.487097
-0.473837
-0.45916
-0.44313
-0.425834
-0.407385
-0.387914
-0.367578
-0.346549
-0.325014
-0.303167
-0.28121
-0.259333
-0.237747
-0.216563
-0.196145
-0.176008
-0.158163
-0.137079
-0.421377
-0.421566
-0.42199
-0.422635
-0.423541
-0.424781
-0.426406
-0.428472
-0.431009
-0.434038
-0.437561
-0.441569
-0.446038
-0.450938
-0.456227
-0.461861
-0.467785
-0.473944
-0.480275
-0.486712
-0.493185
-0.499621
-0.505942
-0.512067
-0.517913
-0.523391
-0.528415
-0.532892
-0.536731
-0.539839
-0.542123
-0.543492
-0.543858
-0.543132
-0.541235
-0.53809
-0.533628
-0.527791
-0.520529
-0.511807
-0.501607
-0.489926
-0.476782
-0.462214
-0.446284
-0.429081
-0.410713
-0.391315
-0.371043
-0.350069
-0.32858
-0.306773
-0.284849
-0.263001
-0.241439
-0.220274
-0.199877
-0.179743
-0.161929
-0.140808
-0.423299
-0.423278
-0.423629
-0.424171
-0.425005
-0.426175
-0.42774
-0.429748
-0.432233
-0.435212
-0.438689
-0.442653
-0.447084
-0.451948
-0.457208
-0.462816
-0.46872
-0.474864
-0.481187
-0.487622
-0.494101
-0.500548
-0.506889
-0.513041
-0.518921
-0.524443
-0.529518
-0.534056
-0.537963
-0.541148
-0.543518
-0.54498
-0.545446
-0.544829
-0.543046
-0.540019
-0.53568
-0.529968
-0.522832
-0.514237
-0.50416
-0.492599
-0.479569
-0.46511
-0.449281
-0.432169
-0.413885
-0.394562
-0.374356
-0.35344
-0.332002
-0.310239
-0.288355
-0.266541
-0.245012
-0.223872
-0.203503
-0.183382
-0.165603
-0.144458
-0.425188
-0.424961
-0.42524
-0.42568
-0.426442
-0.427542
-0.429044
-0.430994
-0.433423
-0.43635
-0.439777
-0.443696
-0.448084
-0.45291
-0.458135
-0.463714
-0.469595
-0.475721
-0.482031
-0.48846
-0.494939
-0.501394
-0.507749
-0.513923
-0.519834
-0.525395
-0.530517
-0.53511
-0.539081
-0.542338
-0.544789
-0.546341
-0.546903
-0.54639
-0.544716
-0.541805
-0.537585
-0.531995
-0.524983
-0.516511
-0.506556
-0.495113
-0.482196
-0.467844
-0.452116
-0.435097
-0.416897
-0.39765
-0.377513
-0.356658
-0.335276
-0.313563
-0.291724
-0.269951
-0.24846
-0.227354
-0.20702
-0.186919
-0.169182
-0.148024
-0.427042
-0.426614
-0.426822
-0.42716
-0.427851
-0.428879
-0.430318
-0.432207
-0.434579
-0.43745
-0.440826
-0.444695
-0.449037
-0.453822
-0.459009
-0.464555
-0.470407
-0.476511
-0.482804
-0.489222
-0.495697
-0.502155
-0.508521
-0.514713
-0.520649
-0.526244
-0.531408
-0.536052
-0.540082
-0.543408
-0.545935
-0.547571
-0.548226
-0.547812
-0.546245
-0.543445
-0.539341
-0.533869
-0.526978
-0.518626
-0.50879
-0.497464
-0.484659
-0.470413
-0.454785
-0.437859
-0.419745
-0.400576
-0.38051
-0.35972
-0.338397
-0.316739
-0.294952
-0.273226
-0.251781
-0.230715
-0.210425
-0.190352
-0.172663
-0.151503
-0.428858
-0.428234
-0.428372
-0.428611
-0.429229
-0.430185
-0.43156
-0.433386
-0.435698
-0.438513
-0.441833
-0.44565
-0.449943