/*--------------------------------*- C++ -*----------------------------------*\
  =========                 |
  \\      /  F ield         | OpenFOAM: The Open Source CFD Toolbox
   \\    /   O peration     | Website:  https://openfoam.org
    \\  /    A nd           | Version:  9
     \\/     M anipulation  |
\*---------------------------------------------------------------------------*/
FoamFile
{
    format      ascii;
    class       surfaceScalarField;
    location    "32";
    object      phi;
}
// * * * * * * * * * * * * * * * * * * * * * * * * * * * * * * * * * * * * * //

dimensions      [0 3 -1 0 0 0 0];

internalField   nonuniform List<scalar> 
16735
(
-0.00299414
0.00299416
-2.16371e-08
-0.00899126
0.00599717
-4.86037e-08
-0.0168699
0.00787867
-6.88198e-08
-0.0259055
0.00903577
-8.61649e-08
-0.0359915
0.0100861
-1.06911e-07
-0.0465495
0.0105581
-1.30914e-07
-0.0586742
0.0121249
-1.61885e-07
-0.0696745
0.0110005
-1.9057e-07
-0.0844767
0.0148024
-2.17861e-07
0.0111682
-2.32098e-07
-0.0956446
-0.00294272
0.00593688
-0.00884408
0.0118985
-0.0165857
0.0156203
-0.0254341
0.0178842
-0.0352692
0.0199213
-0.045481
0.0207699
-0.0571582
0.0238021
-0.0675099
0.0213521
-0.0815905
0.028883
0.0210726
-0.0914949
-0.00284209
0.00877896
-0.00855482
0.0176113
-0.0160254
0.0230909
-0.0245026
0.0263613
-0.0338373
0.029256
-0.0433631
0.0302956
-0.0541367
0.0345757
-0.0632033
0.0304187
-0.0758534
0.0415331
0.0285016
-0.0832823
-0.00269656
0.0114755
-0.0081335
0.0230482
-0.0152052
0.0301625
-0.0231335
0.0342897
-0.0317208
0.0378434
-0.040233
0.0388078
-0.0496287
0.0439714
-0.0567904
0.0375804
-0.0673133
0.0520559
0.0323378
-0.0711495
-0.00251237
0.0139879
-0.00759464
0.0281305
-0.0141484
0.0367163
-0.0213596
0.0415009
-0.0289566
0.0454403
-0.036145
0.0459962
-0.0436596
0.0514861
-0.0483081
0.0422289
-0.0559856
0.0597334
0.0315864
-0.0552342
-0.00229743
0.0162853
-0.00695664
0.0327897
-0.0128832
0.0426428
-0.0192224
0.0478401
-0.0255913
0.0518093
-0.0311679
0.0515728
-0.0362579
0.056576
-0.0377865
0.0437575
-0.0417855
0.0637324
0.0253674
-0.0355665
-0.00206091
0.0183462
-0.00624097
0.0369697
-0.0114432
0.0478451
-0.0167694
0.0531662
-0.0216789
0.0567189
-0.0253809
0.0552747
-0.0274513
0.0586465
-0.0252619
0.0415681
-0.0244465
0.0629169
0.0129135
-0.0119925
-0.00181287
0.0201591
-0.00547112
0.040628
-0.00986527
0.0522392
-0.014051
0.0573519
-0.0172741
0.059942
-0.0188625
0.0568632
-0.0172518
0.0570358
-0.0108351
0.0351514
-0.00334817
0.05543
-0.00710439
0.0166697
-0.0015637
0.0217228
-0.00467126
0.0437356
-0.00818697
0.0557549
-0.0111151
0.06028
-0.0124232
0.0612501
-0.0116728
0.0561128
-0.00558464
0.0509476
0.00560251
0.0239642
0.0208144
0.0402182
-0.0377786
0.0514886
-0.00132353
0.0230463
-0.00386465
0.0462767
-0.00644385
0.0583341
-0.00800085
0.061837
-0.00714956
0.0603988
-0.00384759
0.0528108
0.00726993
0.0398301
0.0244731
0.006761
0.0493097
0.0153816
-0.0815578
0.0930889
-0.00110154
0.0241479
-0.00307181
0.0482469
-0.00466588
0.0599282
-0.00473317
0.0619043
-0.00140666
0.0570723
0.00495358
0.0464506
0.0215727
0.0232109
0.0452634
-0.0169297
0.0823632
-0.0217182
-0.140997
0.141802
-0.000905305
0.0250532
-0.00230834
0.04965
-0.00287271
0.0604926
-0.00132662
0.0603582
0.0046307
0.051115
0.0149373
0.0361439
0.0379406
0.000207638
0.068855
-0.0478441
0.120227
-0.0730901
-0.217281
0.196511
-0.000740077
0.0257933
-0.00158284
0.0504928
-0.00106433
0.0599741
0.00232423
0.0569697
0.0112418
0.0421974
0.0263174
0.0210684
0.0567048
-0.0301798
0.0966063
-0.0877455
0.16323
-0.139714
-0.308406
0.254355
-0.000608328
0.0264016
-0.000895127
0.0507796
0.000762415
0.0583165
0.00624323
0.0514888
0.0186214
0.0298192
0.0396523
3.74816e-05
0.0782243
-0.0687518
0.129579
-0.1391
0.210954
-0.221089
-0.408629
0.311176
-0.00051039
0.026912
-0.000232515
0.0505017
0.00264649
0.0554375
0.0105199
0.0436154
0.0270051
0.0133341
0.0554521
-0.0284095
0.102866
-0.116165
0.167377
-0.203611
0.26092
-0.314633
-0.510203
0.362494
-0.00043708
0.0273491
0.00042373
0.0496409
0.00468579
0.0511754
0.0153489
0.0329523
0.0367326
-0.00804966
0.0740212
-0.065698
0.130843
-0.172988
0.207894
-0.280662
0.308491
-0.41523
-0.60628
0.404569
-0.000377442
0.0277265
0.00111478
0.0481486
0.00698318
0.045307
0.0209895
0.018946
0.0482558
-0.035316
0.095341
-0.112783
0.161632
-0.239279
0.247927
-0.366956
0.348739
-0.516042
-0.692736
0.435195
-0.000319078
0.0280456
0.00189234
0.0459372
0.00967482
0.0375246
0.0277489
0.000871982
0.0620135
-0.0695807
0.119027
-0.169797
0.193502
-0.313753
0.283944
-0.457398
0.378531
-0.61063
-0.768182
0.453977
-0.000245132
0.0282907
0.00281627
0.0428758
0.012921
0.0274199
0.0359351
-0.0221422
0.0781935
-0.111839
0.144172
-0.235775
0.223884
-0.393466
0.31301
-0.546524
0.397169
-0.694788
-0.833167
0.462154
-0.000135332
0.028426
0.00395305
0.0387874
0.0168982
0.0144747
0.0457863
-0.0510302
0.0964874
-0.16254
0.169241
-0.308529
0.2503
-0.474525
0.333591
-0.629815
0.405719
-0.766916
-0.889781
0.462333
3.16775e-05
0.0283944
0.00537312
0.033446
0.021787
-0.00193918
0.0573724
-0.0866156
0.116008
-0.221176
0.192372
-0.384893
0.271044
-0.553196
0.345664
-0.704435
0.407196
-0.828447
-0.945686
0.463101
0.000249835
0.0281445
0.00715097
0.0265449
0.0277452
-0.0225334
0.0704854
-0.129356
0.135441
-0.286132
0.211945
-0.461397
0.285394
-0.626646
0.35037
-0.769411
0.405196
-0.883274
-0.994189
0.4537
0.000557181
0.0275874
0.00936425
0.0177378
0.0348574
-0.0480266
0.0845822
-0.179081
0.153367
-0.354917
0.226986
-0.535017
0.293535
-0.693194
0.349901
-0.825777
0.397506
-0.930879
-1.03539
0.438705
0.000964032
0.0266233
0.0120902
0.00661158
0.043067
-0.0790034
0.0988409
-0.234855
0.168619
-0.424695
0.237217
-0.603614
0.296332
-0.752309
0.344938
-0.874384
0.386432
-0.972373
-1.07228
0.423323
0.00148176
0.0251416
0.0153956
-0.00730227
0.0521342
-0.115742
0.112326
-0.295046
0.1805
-0.492869
0.242898
-0.666012
0.294675
-0.804086
0.336654
-0.916363
0.373131
-1.00885
-1.10517
0.406022
0.00212432
0.0230172
0.0193103
-0.0244883
0.0616533
-0.158085
0.12419
-0.357583
0.188786
-0.557465
0.244534
-0.72176
0.289512
-0.849065
0.325888
-0.952739
0.358131
-1.04109
-1.13498
0.387937
0.00291324
0.020104
0.023796
-0.045371
0.0711133
-0.205402
0.13384
-0.420309
0.193598
-0.617223
0.242748
-0.77091
0.281641
-0.887958
0.313308
-0.984406
0.342053
-1.06984
-1.16209
0.369172
0.00388142
0.0162226
0.0287335
-0.0702231
0.0799674
-0.256636
0.140988
-0.48133
0.195252
-0.671486
0.23816
-0.813818
0.271725
-0.921523
0.299434
-1.01211
0.325175
-1.09558
-1.18681
0.349892
0.00506905
0.0111535
0.033938
-0.099092
0.0877165
-0.310415
0.14561
-0.539224
0.194157
-0.720033
0.231337
-0.850998
0.26029
-0.950476
0.284633
-1.03646
0.307746
-1.11869
-1.20932
0.33025
0.00650735
0.00464618
0.0391913
-0.131776
0.0940032
-0.365227
0.147848
-0.593068
0.190744
-0.76293
0.222767
-0.883021
0.247741
-0.97545
0.269177
-1.05789
0.289912
-1.13943
-1.2297
0.310293
0.00819595
-0.00354978
0.0442709
-0.167851
0.0986519
-0.419608
0.147929
-0.642345
0.185425
-0.800426
0.212858
-0.910454
0.234387
-0.99698
0.253254
-1.07676
0.271778
-1.15795
-1.24801
0.290095
0.0100903
-0.0136401
0.0489603
-0.206721
0.101636
-0.472283
0.146118
-0.686827
0.178569
-0.832877
0.201939
-0.933825
0.220457
-1.0155
0.237003
-1.09331
0.253419
-1.17437
-1.26429
0.269692
0.0121101
-0.0257502
0.0530566
-0.247667
0.103026
-0.522253
0.142685
-0.726485
0.170496
-0.860688
0.190272
-0.953602
0.206122
-1.03135
0.220519
-1.1077
0.234891
-1.18874
-1.27852
0.249125
0.0141597
-0.0399099
0.0563885
-0.289896
0.102948
-0.568813
0.137886
-0.761423
0.161475
-0.884277
0.178062
-0.970189
0.191506
-1.04479
0.203873
-1.12007
0.216237
-1.2011
-1.29071
0.228427
0.016152
-0.0560619
0.058838
-0.332582
0.101555
-0.61153
0.131959
-0.791827
0.151727
-0.904044
0.165468
-0.98393
0.176703
-1.05603
0.187113
-1.13048
0.197493
-1.21148
-1.30085
0.207634
0.0180158
-0.0740777
0.0603498
-0.374916
0.0990109
-0.650192
0.125119
-0.817934
0.141433
-0.920358
0.15261
-0.995107
0.161783
-1.0652
0.170285
-1.13898
0.178692
-1.21989
-1.30894
0.186776
0.0196927
-0.0937704
0.0609243
-0.416148
0.0954767
-0.684744
0.117552
-0.84001
0.130742
-0.933548
0.139583
-1.00395
0.146798
-1.07242
0.153423
-1.14561
0.159862
-1.22633
-1.31496
0.165888
0.0211299
-0.1149
0.0606013
-0.455619
0.091105
-0.715248
0.109423
-0.858328
0.119776
-0.943901
0.126459
-1.01063
0.131791
-1.07775
0.136559
-1.15037
0.141034
-1.23081
-1.31893
0.145001
0.0222772
-0.137178
0.059439
-0.492781
0.0860344
-0.741843
0.100871
-0.873165
0.10863
-0.95166
0.113295
-1.0153
0.116797
-1.08125
0.11972
-1.1533
0.122237
-1.23332
-1.32084
0.124152
0.0230912
-0.160269
0.057524
-0.527214
0.080391
-0.76471
0.0920118
-0.884786
0.0973844
-0.957033
0.100137
-1.01805
0.101846
-1.08296
0.102931
-1.15438
0.103498
-1.23389
-1.32073
0.103381
0.0235434
-0.183812
0.0550356
-0.558706
0.0742932
-0.783968
0.082941
-0.893433
0.0861001
-0.960192
0.0870196
-1.01897
0.0869619
-1.0829
0.0862152
-1.15363
0.0848462
-1.23252
-1.31862
0.0827412
0.023622
-0.207434
0.0520393
-0.587123
0.0678453
-0.799774
0.0737378
-0.899326
0.0748268
-0.961281
0.0739742
-1.01812
0.0721694
-1.0811
0.0695963
-1.15106
0.0663029
-1.22923
-1.31452
0.0621983
0.0233324
-0.230767
0.0486068
-0.612398
0.0611378
-0.812305
0.0644684
-0.902656
0.0636044
-0.960417
0.0610263
-1.01554
0.0574902
-1.07756
0.0530998
-1.14667
0.0478858
-1.22401
-1.3084
0.0417694
0.0226958
-0.253463
0.0448119
-0.634514
0.0542503
-0.821743
0.0551874
-0.903594
0.0524648
-0.957694
0.0481981
-1.01127
0.0429443
-1.07231
0.0367515
-1.14048
0.0296392
-1.2169
-1.30024
0.0214803
0.0217456
-0.275208
0.040725
-0.653493
0.0472339
-0.828252
0.0459383
-0.902298
0.041435
-0.953191
0.03551
-1.00535
0.0285503
-1.06535
0.0205652
-1.13249
0.0116271
-1.20796
-1.28989
0.0012709
0.0205226
-0.295731
0.0364117
-0.669382
0.0401459
-0.831986
0.0367577
-0.89891
0.0305377
-0.946971
0.0229791
-0.997787
0.0143263
-1.05669
0.00451765
-1.12268
-0.00613944
-1.19731
-1.27755
-0.0184732
0.01907
-0.314801
0.0319323
-0.682244
0.0330395
-0.833093
0.0276762
-0.893546
0.019791
-0.939086
0.0106153
-0.988611
0.000255864
-1.04633
-0.0111894
-1.11124
-0.0237871
-1.18471
-1.26339
-0.037948
0.0174307
-0.332231
0.0273414
-0.692155
0.0259582
-0.83171
0.0187205
-0.886309
0.00920155
-0.929567
-0.0015776
-0.977832
-0.0134799
-1.03443
-0.0266437
-1.09807
-0.0411367
-1.17022
-1.24737
-0.0571554
0.0156446
-0.347876
0.0226871
-0.699197
0.0189381
-0.827961
0.00991097
-0.877282
-0.00124213
-0.918414
-0.0134504
-0.965624
-0.0270163
-1.02087
-0.0418674
-1.08322
-0.0581908
-1.15389
-1.22951
-0.0760492
0.0137482
-0.361624
0.0180119
-0.703461
0.0120072
-0.821957
0.00123918
-0.866514
-0.0113089
-0.905866
-0.0251356
-0.951797
-0.0403051
-1.0057
-0.0568264
-1.0667
-0.0749302
-1.13579
-1.20983
-0.0946102
0.011775
-0.373399
0.013353
-0.705039
0.00517603
-0.81378
-0.00714813
-0.854189
-0.0212137
-0.8918
-0.036587
-0.936424
-0.0533296
-0.988953
-0.0714959
-1.04854
-0.0913394
-1.11595
-1.18836
-0.112809
0.00975514
-0.383154
0.00874533
-0.704029
-0.00152824
-0.803506
-0.0153605
-0.840357
-0.030901
-0.87626
-0.0477862
-0.919539
-0.0660734
-0.970666
-0.0858544
-1.02876
-0.1074
-1.0944
-1.16514
-0.130626
0.00771375
-0.390868
0.00422908
-0.700545
-0.00791726
-0.79136
-0.0233706
-0.824904
-0.0403535
-0.859277
-0.058719
-0.901173
-0.0785214
-0.950864
-0.0998835
-1.00739
-0.123093
-1.07119
-1.14019
-0.148039
0.00566957
-0.396538
-9.62949e-05
-0.694779
-0.0141757
-0.77728
-0.0311636
-0.807916
-0.0495606
-0.84088
-0.0693728
-0.881361
-0.0906589
-0.929578
-0.113567
-0.984485
-0.138405
-1.04635
-1.11357
-0.165025
0.00364078
-0.400178
-0.00465543
-0.686483
-0.0202721
-0.761664
-0.0387253
-0.789463
-0.0585106
-0.821094
-0.0797359
-0.860136
-0.102472
-0.906842
-0.126889
-0.960068
-0.153317
-1.01992
-1.08533
-0.181557
0.00166375
-0.401842
-0.00895787
-0.675861
-0.0261882
-0.744433
-0.0460463
-0.769605
-0.0671933
-0.799947
-0.0897971
-0.837532
-0.113947
-0.882692
-0.139838
-0.934177
-0.167811
-0.991951
-1.05553
-0.197611
-0.000226088
-0.401616
-0.0130925
-0.662995
-0.0319143
-0.725612
-0.053122
-0.748397
-0.0755989
-0.777471
-0.0995453
-0.813586
-0.125072
-0.857165
-0.152401
-0.906848
-0.181872
-0.96248
-1.02421
-0.213191
-0.00235336
-0.399263
-0.0170759
-0.648272
-0.0374376
-0.70525
-0.0599466
-0.725888
-0.0837183
-0.753699
-0.10897
-0.788334
-0.135839
-0.830296
-0.16458
-0.878106
-0.195492
-0.931568
-0.991442
-0.228264
-0.00433255
-0.39493
-0.0209064
-0.631698
-0.0427466
-0.68341
-0.0665142
-0.70212
-0.0915429
-0.72867
-0.118061
-0.761816
-0.146238
-0.802119
-0.176369
-0.847976
-0.208626
-0.89931
-0.957475
-0.242592
-0.00622519
-0.388705
-0.0245812
-0.613342
-0.0478352
-0.660156
-0.0728192
-0.677136
-0.0990646
-0.702425
-0.126809
-0.734072
-0.15626
-0.772669
-0.187721
-0.816515
-0.221283
-0.865748
-0.922711
-0.256047
-0.00803761
-0.380667
-0.028097
-0.593283
-0.0526986
-0.635554
-0.0788564
-0.650979
-0.106276
-0.675005
-0.135206
-0.705142
-0.165888
-0.741987
-0.198582
-0.783821
-0.232995
-0.831335
-0.885752
-0.269954
-0.00977011
-0.370897
-0.0314507
-0.571602
-0.0573336
-0.609671
-0.0846209
-0.623691
-0.113171
-0.646454
-0.143244
-0.675069
-0.175101
-0.71013
-0.208913
-0.750009
-0.244586
-0.795662
-0.847206
-0.283133
-0.0114213
-0.359476
-0.0346392
-0.548384
-0.0617371
-0.582573
-0.090108
-0.59532
-0.119743
-0.616819
-0.150915
-0.643897
-0.183898
-0.677148
-0.218853
-0.715054
-0.255903
-0.758611
-0.807322
-0.295786
-0.0129893
-0.346487
-0.0376598
-0.523714
-0.0659068
-0.554326
-0.0953135
-0.565914
-0.125986
-0.586146
-0.158207
-0.611677
-0.192256
-0.643098
-0.228297
-0.679012
-0.266569
-0.72034
-0.766174
-0.307717
-0.0144718
-0.332015
-0.0405101
-0.497676
-0.0698404
-0.524996
-0.100233
-0.535521
-0.131894
-0.554486
-0.165113
-0.578458
-0.20018
-0.608032
-0.23728
-0.641912
-0.276708
-0.680912
-0.723881
-0.319002
-0.0158665
-0.316148
-0.0431879
-0.470354
-0.0735359
-0.494648
-0.104864
-0.504192
-0.13746
-0.52189
-0.171625
-0.544293
-0.207654
-0.572002
-0.245759
-0.603808
-0.286263
-0.640407
-0.680514
-0.329629
-0.0171711
-0.298977
-0.0456915
-0.441834
-0.0769916
-0.463348
-0.109202
-0.471982
-0.14268
-0.488411
-0.177735
-0.509238
-0.214674
-0.535063
-0.253728
-0.564754
-0.295238
-0.598898
-0.636147
-0.339605
-0.0183824
-0.280595
-0.0480193
-0.412197
-0.0802057
-0.431161
-0.113243
-0.438944
-0.147549
-0.454106
-0.183438
-0.473349
-0.22123
-0.497271
-0.261173
-0.524811
-0.303619
-0.556452
-0.590845
-0.34892
-0.0194967
-0.261098
-0.0501696
-0.381524
-0.0831766
-0.398154
-0.116986
-0.405135
-0.152061
-0.41903
-0.188727
-0.436684
-0.227312
-0.458686
-0.268083
-0.48404
-0.311396
-0.513139
-0.544676
-0.357565
-0.0205071
-0.240591
-0.0521407
-0.34989
-0.0859034
-0.364392
-0.120426
-0.370613
-0.156213
-0.383243
-0.193595
-0.399302
-0.232915
-0.419367
-0.27445
-0.442505
-0.31856
-0.469029
-0.497706
-0.365529
-0.0213992
-0.219192
-0.0539314
-0.317358
-0.0883855
-0.329938
-0.123562
-0.335437
-0.16
-0.346804
-0.198038
-0.361265
-0.23803
-0.379375
-0.280264
-0.40027
-0.325101
-0.424192
-0.450006
-0.372801
-0.0222179
-0.196974
-0.0555438
-0.284032
-0.0906228
-0.294859
-0.12639
-0.299669
-0.163419
-0.309775
-0.20205
-0.322634
-0.242651
-0.338773
-0.285518
-0.357403
-0.33101
-0.3787
-0.401646
-0.37937
-0.022963
-0.174011
-0.0569789
-0.250017
-0.0926143
-0.259223
-0.12891
-0.263373
-0.166466
-0.272219
-0.205627
-0.283474
-0.246773
-0.297628
-0.290206
-0.313969
-0.33628
-0.332626
-0.352701
-0.385226
-0.0236223
-0.150389
-0.0582361
-0.215403
-0.0943593
-0.2231
-0.131119
-0.226614
-0.169139
-0.234199
-0.208765
-0.243848
-0.250389
-0.256003
-0.29432
-0.270038
-0.340903
-0.286044
-0.303244
-0.39036
-0.0241909
-0.126198
-0.0593148
-0.180279
-0.0958568
-0.186558
-0.133014
-0.189456
-0.171434
-0.195779
-0.211461
-0.203821
-0.253497
-0.213967
-0.297854
-0.225681
-0.344873
-0.239025
-0.253352
-0.394765
-0.0246666
-0.101531
-0.0602145
-0.144731
-0.097106
-0.149666
-0.134597
-0.151966
-0.17335
-0.157026
-0.213712
-0.16346
-0.256092
-0.171587
-0.300804
-0.180969
-0.348183
-0.191646
-0.203101
-0.398434
-0.0250482
-0.0764829
-0.0609348
-0.108844
-0.0981062
-0.112495
-0.135864
-0.114208
-0.174885
-0.118004
-0.215515
-0.12283
-0.25817
-0.128931
-0.303166
-0.135974
-0.35083
-0.143981
-0.152565
-0.401365
-0.0253349
-0.051148
-0.0614753
-0.0727039
-0.0988568
-0.0751135
-0.136815
-0.0762504
-0.176038
-0.0787815
-0.216869
-0.0819987
-0.259731
-0.0860691
-0.304938
-0.0907669
-0.352815
-0.0961044
-0.101822
-0.403558
-0.0255262
-0.0256219
-0.0618358
-0.0363942
-0.0993575
-0.0375918
-0.137449
-0.0381587
-0.176806
-0.0394244
-0.217772
-0.041033
-0.260772
-0.043069
-0.30612
-0.0454187
-0.354138
-0.0480872
-0.0509437
-0.405016
-0.0256219
-3.79488e-09
-0.0620161
-5.5383e-09
-0.0996079
-5.58788e-09
-0.137767
-5.45902e-09
-0.177191
-5.39055e-09
-0.218224
-5.32784e-09
-0.261293
-5.28156e-09
-0.306712
-5.23291e-09
-0.354799
-5.17802e-09
-5.09489e-09
-0.405742
-0.0256219
0.0256219
-0.0620161
0.0363942
-0.0996079
0.0375918
-0.137767
0.0381587
-0.177191
0.0394244
-0.218224
0.041033
-0.261293
0.043069
-0.306712
0.0454187
-0.354799
0.0480872
0.0509437
-0.405742
-0.0255262
0.051148
-0.0618358
0.0727039
-0.0993575
0.0751135
-0.137449
0.0762504
-0.176806
0.0787815
-0.217772
0.0819987
-0.260772
0.0860691
-0.30612
0.0907669
-0.354138
0.0961044
0.101822
-0.405016
-0.0253349
0.0764829
-0.0614753
0.108844
-0.0988568
0.112495
-0.136815
0.114208
-0.176038
0.118004
-0.216869
0.12283
-0.259731
0.128931
-0.304938
0.135974
-0.352815
0.143981
0.152565
-0.403558
-0.0250482
0.101531
-0.0609348
0.144731
-0.0981062
0.149666
-0.135864
0.151966
-0.174885
0.157026
-0.215515
0.16346
-0.25817
0.171587
-0.303166
0.180969
-0.35083
0.191646
0.203101
-0.401365
-0.0246666
0.126198
-0.0602145
0.180279
-0.097106
0.186558
-0.134597
0.189456
-0.17335
0.195779
-0.213712
0.203821
-0.256092
0.213967
-0.300804
0.225681
-0.348183
0.239025
0.253352
-0.398434
-0.0241909
0.150389
-0.0593148
0.215403
-0.0958568
0.2231
-0.133014
0.226614
-0.171434
0.234199
-0.211461
0.243848
-0.253497
0.256003
-0.297854
0.270038
-0.344873
0.286044
0.303244
-0.394765
-0.0236223
0.174011
-0.0582361
0.250017
-0.0943593
0.259223
-0.131119
0.263373
-0.169139
0.272219
-0.208765
0.283474
-0.250389
0.297628
-0.29432
0.313969
-0.340903
0.332626
0.352701
-0.39036
-0.022963
0.196974
-0.0569789
0.284032
-0.0926143
0.294859
-0.12891
0.299669
-0.166466
0.309775
-0.205627
0.322634
-0.246773
0.338773
-0.290206
0.357403
-0.33628
0.3787
0.401646
-0.385226
-0.0222179
0.219192
-0.0555438
0.317358
-0.0906228
0.329938
-0.12639
0.335437
-0.163419
0.346804
-0.20205
0.361265
-0.242651
0.379375
-0.285518
0.40027
-0.33101
0.424192
0.450006
-0.37937
-0.0213992
0.240591
-0.0539314
0.34989
-0.0883855
0.364392
-0.123562
0.370613
-0.16
0.383243
-0.198038
0.399302
-0.23803
0.419367
-0.280264
0.442505
-0.325101
0.469029
0.497706
-0.372801
-0.0205071
0.261098
-0.0521407
0.381524
-0.0859034
0.398154
-0.120426
0.405135
-0.156213
0.41903
-0.193595
0.436684
-0.232915
0.458686
-0.27445
0.48404
-0.31856
0.513139
0.544676
-0.365529
-0.0194967
0.280595
-0.0501696
0.412197
-0.0831766
0.431161
-0.116986
0.438944
-0.152061
0.454106
-0.188727
0.473349
-0.227312
0.497271
-0.268083
0.524811
-0.311396
0.556452
0.590845
-0.357565
-0.0183824
0.298977
-0.0480193
0.441834
-0.0802057
0.463348
-0.113243
0.471982
-0.147549
0.488411
-0.183438
0.509238
-0.22123
0.535063
-0.261173
0.564754
-0.303619
0.598897
0.636147
-0.34892
-0.0171711
0.316148
-0.0456915
0.470354
-0.0769916
0.494648
-0.109202
0.504192
-0.14268
0.52189
-0.177735
0.544293
-0.214674
0.572002
-0.253728
0.603808
-0.295238
0.640407
0.680514
-0.339605
-0.0158665
0.332015
-0.0431879
0.497676
-0.0735359
0.524996
-0.104864
0.535521
-0.13746
0.554486
-0.171625
0.578458
-0.207654
0.608032
-0.245759
0.641912
-0.286263
0.680912
0.723881
-0.329629
-0.0144718
0.346487
-0.0405101
0.523714
-0.0698404
0.554326
-0.100233
0.565914
-0.131894
0.586146
-0.165113
0.611677
-0.20018
0.643098
-0.23728
0.679012
-0.276708
0.72034
0.766174
-0.319002
-0.0129893
0.359476
-0.0376598
0.548384
-0.0659068
0.582573
-0.0953135
0.59532
-0.125986
0.616819
-0.158207
0.643897
-0.192256
0.677148
-0.228297
0.715054
-0.266569
0.758611
0.807322
-0.307717
-0.0114213
0.370897
-0.0346392
0.571602
-0.0617371
0.609671
-0.090108
0.623691
-0.119743
0.646454
-0.150915
0.675069
-0.183898
0.71013
-0.218853
0.750009
-0.255903
0.795662
0.847206
-0.295786
-0.00977011
0.380667
-0.0314507
0.593283
-0.0573336
0.635554
-0.0846209
0.650979
-0.113171
0.675005
-0.143244
0.705142
-0.175101
0.741987
-0.208913
0.783821
-0.244586
0.831335
0.885752
-0.283133
-0.00803761
0.388705
-0.028097
0.613342
-0.0526986
0.660156
-0.0788564
0.677136
-0.106276
0.702425
-0.135206
0.734072
-0.165888
0.772669
-0.198582
0.816515
-0.232995
0.865748
0.922711
-0.269954
-0.00622519
0.39493
-0.0245812
0.631698
-0.0478352
0.68341
-0.0728192
0.70212
-0.0990646
0.72867
-0.126809
0.761816
-0.15626
0.802119
-0.187721
0.847976
-0.221283
0.89931
0.957475
-0.256047
-0.00433255
0.399263
-0.0209064
0.648272
-0.0427466
0.70525
-0.0665142
0.725888
-0.0915429
0.753699
-0.118061
0.788334
-0.146238
0.830296
-0.176369
0.878106
-0.208626
0.931568
0.991442
-0.242592
-0.00235336
0.401616
-0.0170759
0.662995
-0.0374376
0.725612
-0.0599466
0.748397
-0.0837183
0.777471
-0.10897
0.813586
-0.135839
0.857165
-0.16458
0.906848
-0.195492
0.96248
1.02421
-0.228264
-0.000226088
0.401842
-0.0130925
0.675861
-0.0319143
0.744433
-0.053122
0.769605
-0.0755989
0.799947
-0.0995453
0.837532
-0.125072
0.882692
-0.152401
0.934177
-0.181872
0.991951
1.05553
-0.213191
0.00166375
0.400178
-0.00895787
0.686483
-0.0261882
0.761664
-0.0460463
0.789463
-0.0671933
0.821094
-0.0897971
0.860136
-0.113947
0.906842
-0.139838
0.960068
-0.167811
1.01992
1.08533
-0.197611
0.00364078
0.396538
-0.00465543
0.694779
-0.0202721
0.77728
-0.0387253
0.807916
-0.0585106
0.84088
-0.0797359
0.881361
-0.102472
0.929578
-0.126889
0.984485
-0.153317
1.04635
1.11357
-0.181557
0.00566957
0.390868
-9.62959e-05
0.700545
-0.0141757
0.79136
-0.0311636
0.824904
-0.0495606
0.859277
-0.0693728
0.901173
-0.0906589
0.950864
-0.113567
1.00739
-0.138405
1.07119
1.14019
-0.165025
0.00771375
0.383154
0.00422908
0.704029
-0.00791726
0.803506
-0.0233706
0.840357
-0.0403535
0.87626
-0.058719
0.919539
-0.0785214
0.970666
-0.0998835
1.02876
-0.123093
1.0944
1.16514
-0.148039
0.00975514
0.373399
0.00874533
0.705039
-0.00152824
0.81378
-0.0153605
0.854189
-0.030901
0.8918
-0.0477862
0.936424
-0.0660734
0.988953
-0.0858544
1.04854
-0.1074
1.11595
1.18836
-0.130626
0.011775
0.361624
0.013353
0.703461
0.00517602
0.821957
-0.00714814
0.866514
-0.0212137
0.905866
-0.036587
0.951797
-0.0533296
1.0057
-0.0714959
1.0667
-0.0913394
1.13579
1.20983
-0.112809
0.0137482
0.347876
0.0180119
0.699197
0.0120072
0.827961
0.00123918
0.877282
-0.0113089
0.918414
-0.0251356
0.965624
-0.0403051
1.02087
-0.0568264
1.08322
-0.0749302
1.15389
1.22951
-0.0946102
0.0156446
0.332231
0.0226871
0.692155
0.0189381
0.83171
0.00991097
0.886309
-0.00124213
0.929567
-0.0134504
0.977832
-0.0270163
1.03443
-0.0418674
1.09807
-0.0581908
1.17022
1.24737
-0.0760492
0.0174307
0.314801
0.0273413
0.682244
0.0259582
0.833093
0.0187205
0.893546
0.00920155
0.939086
-0.0015776
0.988611
-0.0134799
1.04633
-0.0266437
1.11124
-0.0411367
1.18471
1.26339
-0.0571554
0.01907
0.295731
0.0319323
0.669382
0.0330395
0.831986
0.0276762
0.89891
0.019791
0.946971
0.0106153
0.997787
0.000255863
1.05669
-0.0111894
1.12268
-0.0237871
1.19731
1.27755
-0.037948
0.0205226
0.275208
0.0364117
0.653493
0.0401459
0.828252
0.0367577
0.902298
0.0305377
0.953191
0.0229791
1.00535
0.0143263
1.06535
0.00451765
1.13249
-0.00613944
1.20796
1.28989
-0.0184732
0.0217456
0.253463
0.040725
0.634514
0.0472339
0.821743
0.0459383
0.903594
0.041435
0.957694
0.03551
1.01127
0.0285503
1.07231
0.0205652
1.14048
0.0116271
1.2169
1.30024
0.0012709
0.0226958
0.230767
0.0448119
0.612398
0.0542503
0.812305
0.0551874
0.902656
0.0524648
0.960417
0.0481981
1.01554
0.0429443
1.07756
0.0367515
1.14667
0.0296392
1.22401
1.3084
0.0214803
0.0233324
0.207434
0.0486068
0.587123
0.0611378
0.799774
0.0644684
0.899326
0.0636044
0.961281
0.0610263
1.01812
0.0574902
1.0811
0.0530998
1.15106
0.0478858
1.22923
1.31452
0.0417694
0.023622
0.183812
0.0520393
0.558706
0.0678453
0.783968
0.0737378
0.893433
0.0748268
0.960192
0.0739742
1.01897
0.0721694
1.0829
0.0695963
1.15363
0.0663029
1.23252
1.31862
0.0621983
0.0235434
0.160269
0.0550356
0.527214
0.0742932
0.76471
0.082941
0.884786
0.0861001
0.957033
0.0870196
1.01805
0.0869619
1.08296
0.0862152
1.15438
0.0848462
1.23389
1.32073
0.0827412
0.0230912
0.137178
0.057524
0.492781
0.080391
0.741843
0.0920118
0.873165
0.0973844
0.95166
0.100137
1.0153
0.101846
1.08125
0.102931
1.1533
0.103498
1.23332
1.32084
0.103381
0.0222772
0.1149
0.059439
0.455619
0.0860344
0.715248
0.100871
0.858328
0.10863
0.943901
0.113295
1.01063
0.116797
1.07775
0.11972
1.15037
0.122237
1.23081
1.31893
0.124152
0.0211299
0.0937705
0.0606013
0.416148
0.091105
0.684744
0.109423
0.84001
0.119776
0.933548
0.126459
1.00395
0.131791
1.07242
0.136559
1.14561
0.141034
1.22633
1.31496
0.145001
0.0196927
0.0740777
0.0609243
0.374916
0.0954766
0.650192
0.117552
0.817934
0.130742
0.920358
0.139583
0.995107
0.146798
1.0652
0.153423
1.13898
0.159862
1.21989
1.30894
0.165888
0.0180158
0.0560619
0.0603498
0.332582
0.0990109
0.61153
0.125119
0.791827
0.141433
0.904044
0.15261
0.98393
0.161783
1.05603
0.170285
1.13048
0.178692
1.21148
1.30085
0.186776
0.016152
0.0399099
0.058838
0.289896
0.101555
0.568813
0.131959
0.761423
0.151727
0.884277
0.165468
0.970189
0.176703
1.04479
0.187113
1.12007
0.197493
1.2011
1.29071
0.207634
0.0141597
0.0257502
0.0563885
0.247668
0.102948
0.522253
0.137886
0.726485
0.161475
0.860688
0.178062
0.953602
0.191506
1.03135
0.203873
1.1077
0.216237
1.18874
1.27852
0.228427
0.0121101
0.0136401
0.0530566
0.206721
0.103026
0.472283
0.142685
0.686827
0.170496
0.832877
0.190272
0.933825
0.206122
1.0155
0.220519
1.09331
0.234891
1.17437
1.26429
0.249125
0.0100903
0.00354978
0.0489603
0.167851
0.101636
0.419608
0.146118
0.642345
0.178569
0.800426
0.201939
0.910454
0.220457
0.99698
0.237003
1.07676
0.253419
1.15795
1.24801
0.269692
0.00819595
-0.00464617
0.0442709
0.131776
0.0986519
0.365227
0.147929
0.593068
0.185425
0.76293
0.212858
0.883021
0.234387
0.97545
0.253254
1.05789
0.271778
1.13943
1.2297
0.290095
0.00650735
-0.0111535
0.0391913
0.0990921
0.0940032
0.310415
0.147848
0.539224
0.190744
0.720033
0.222767
0.850998
0.247741
0.950476
0.269177
1.03646
0.289912
1.11869
1.20932
0.310293
0.00506905
-0.0162226
0.033938
0.0702231
0.0877165
0.256636
0.14561
0.48133
0.194157
0.671486
0.231337
0.813818
0.26029
0.921523
0.284633
1.01211
0.307746
1.09558
1.18681
0.33025
0.00388142
-0.020104
0.0287335
0.045371
0.0799674
0.205402
0.140988
0.420309
0.195251
0.617223
0.23816
0.77091
0.271725
0.887958
0.299434
0.984406
0.325175
1.06984
1.16209
0.349892
0.00291324
-0.0230172
0.023796
0.0244883
0.0711133
0.158085
0.13384
0.357583
0.193598
0.557465
0.242748
0.72176
0.281641
0.849065
0.313308
0.952739
0.342053
1.04109
1.13498
0.369172
0.00212432
-0.0251416
0.0193103
0.00730228
0.0616533
0.115742
0.12419
0.295046
0.188786
0.492869
0.244534
0.666012
0.289512
0.804086
0.325888
0.916363
0.358131
1.00885
1.10517
0.387937
0.00148176
-0.0266233
0.0153956
-0.00661158
0.0521342
0.0790034
0.112326
0.234855
0.1805
0.424695
0.242898
0.603614
0.294675
0.752309
0.336654
0.874384
0.373131
0.972373
1.07228
0.406022
0.000964033
-0.0275874
0.0120902
-0.0177378
0.043067
0.0480266
0.0988409
0.179081
0.168619
0.354917
0.237217
0.535017
0.296332
0.693194
0.344938
0.825777
0.386432
0.930879
1.03539
0.423323
0.000557182
-0.0281445
0.00936425
-0.0265449
0.0348574
0.0225335
0.0845822
0.129356
0.153367
0.286132
0.226986
0.461398
0.293535
0.626646
0.349901
0.769411
0.397506
0.883274
0.994189
0.438705
0.000249836
-0.0283944
0.00715097
-0.033446
0.0277452
0.00193919
0.0704854
0.0866157
0.135441
0.221176
0.211945
0.384894
0.285394
0.553196
0.35037
0.704436
0.405196
0.828447
0.945686
0.4537
3.16784e-05
-0.028426
0.00537312
-0.0387874
0.021787
-0.0144747
0.0573724
0.0510303
0.116008
0.16254
0.192372
0.308529
0.271044
0.474525
0.345664
0.629815
0.407196
0.766916
0.889781
0.463101
-0.000135332
-0.0282907
0.00395305
-0.0428758
0.0168982
-0.0274199
0.0457863
0.0221422
0.0964874
0.111839
0.169241
0.235775
0.2503
0.393466
0.333591
0.546524
0.405719
0.694788
0.833167
0.462333
-0.000245132
-0.0280456
0.00281627
-0.0459372
0.012921
-0.0375246
0.0359351
-0.000871952
0.0781935
0.0695807
0.144172
0.169797
0.223884
0.313753
0.31301
0.457398
0.397169
0.61063
0.768182
0.462154
-0.000319078
-0.0277265
0.00189234
-0.0481486
0.00967482
-0.045307
0.0277489
-0.018946
0.0620135
0.035316
0.119027
0.112783
0.193502
0.239279
0.283944
0.366956
0.378531
0.516042
0.692736
0.453977
-0.000377442
-0.0273491
0.00111478
-0.0496409
0.00698317
-0.0511754
0.0209895
-0.0329523
0.0482558
0.00804971
0.095341
0.0656981
0.161632
0.172988
0.247927
0.280662
0.348739
0.41523
0.60628
0.435195
-0.000437082
-0.026912
0.000423725
-0.0505017
0.00468578
-0.0554375
0.0153489
-0.0436154
0.0367326
-0.013334
0.0740211
0.0284096
0.130843
0.116166
0.207894
0.203611
0.308491
0.314633
0.510203
0.404568
-0.000510392
-0.0264016
-0.000232522
-0.0507795
0.00264648
-0.0583165
0.0105199
-0.0514888
0.0270051
-0.0298192
0.055452
-3.74035e-05
0.102866
0.068752
0.167377
0.1391
0.26092
0.22109
0.408629
0.362494
-0.00060833
-0.0257933
-0.000895135
-0.0504927
0.000762399
-0.059974
0.0062432
-0.0569696
0.0186214
-0.0421973
0.0396523
-0.0210683
0.0782243
0.0301799
0.129579
0.0877457
0.210954
0.139714
0.308407
0.311176
-0.00074008
-0.0250532
-0.00158285
-0.04965
-0.00106435
-0.0604925
0.0023242
-0.0603582
0.0112418
-0.0511149
0.0263173
-0.0361438
0.0567048
-0.000207507
0.0966062
0.0478442
0.16323
0.0730902
0.217281
0.254355
-0.000905308
-0.0241479
-0.00230836
-0.0482469
-0.00287273
-0.0599281
-0.00132665
-0.0619042
0.00463066
-0.0570722
0.0149373
-0.0464504
0.0379406
-0.0232108
0.0688549
0.0169299
0.120227
0.0217184
0.140997
0.196511
-0.00110155
-0.0230463
-0.00307182
-0.0462766
-0.00466591
-0.058334
-0.0047332
-0.0618369
-0.00140671