/*--------------------------------*- C++ -*----------------------------------*\
  =========                 |
  \\      /  F ield         | OpenFOAM: The Open Source CFD Toolbox
   \\    /   O peration     | Website:  https://openfoam.org
    \\  /    A nd           | Version:  9
     \\/     M anipulation  |
\*---------------------------------------------------------------------------*/
FoamFile
{
    format      ascii;
    class       volVectorField;
    location    "32";
    object      U;
}
// * * * * * * * * * * * * * * * * * * * * * * * * * * * * * * * * * * * * * //

dimensions      [0 1 -1 0 0 0 0];

internalField   nonuniform List<vector> 
8500
(
(-0.0064942 0.00259563 0)
(-0.0291602 0.00447521 -6.72756e-23)
(-0.0612378 0.00493749 -3.69892e-24)
(-0.0890807 0.0047731 7.00667e-37)
(-0.11653 0.00445665 -1.03051e-23)
(-0.136993 0.00385461 8.58053e-24)
(-0.160956 0.00380306 -5.80618e-23)
(-0.17187 0.00249473 -8.99623e-23)
(-0.192226 0.00352622 -8.2215e-23)
(-0.199411 0.00124823 -4.26911e-24)
(-0.00678804 0.00773463 1.94329e-22)
(-0.0294172 0.013351 6.28562e-23)
(-0.0611149 0.0147372 2.52243e-22)
(-0.0883998 0.0142489 0)
(-0.115266 0.0133011 0)
(-0.134747 0.0115039 1.72772e-23)
(-0.158139 0.0113425 4.36362e-23)
(-0.167325 0.00742439 9.60206e-23)
(-0.187161 0.0105433 6.18854e-23)
(-0.192112 0.00360832 1.70853e-23)
(-0.00736749 0.0127192 -1.72691e-22)
(-0.0299275 0.0220051 0)
(-0.0608738 0.0243127 -2.37377e-22)
(-0.0870469 0.0235142 0)
(-0.112749 0.0219381 -4.12785e-23)
(-0.130262 0.018976 3.43706e-23)
(-0.152513 0.018676 0)
(-0.158198 0.0121846 0)
(-0.177037 0.0174605 0)
(-0.177542 0.00557757 0)
(-0.00821667 0.0174531 3.4713e-22)
(-0.0306835 0.0302954 -2.5239e-22)
(-0.0605228 0.0335168 -5.95215e-23)
(-0.0850388 0.0324292 -3.71074e-22)
(-0.109001 0.0302235 -3.72431e-22)
(-0.123556 0.0261573 3.4654e-23)
(-0.144085 0.0256418 -2.89342e-23)
(-0.144405 0.0166881 3.34684e-22)
(-0.161833 0.0242264 1.682e-26)
(-0.155683 0.00695476 3.37376e-22)
(-0.00931322 0.0218502 -3.47129e-22)
(-0.0316744 0.0380879 -3.26162e-22)
(-0.0600733 0.0422061 8.95377e-23)
(-0.0823999 0.0408548 4.95206e-22)
(-0.104047 0.038006 -4.20973e-23)
(-0.114656 0.0329401 5.5104e-22)
(-0.132852 0.0320421 0)
(-0.125807 0.0208767 -3.8329e-22)
(-0.141454 0.0308034 -8.1674e-23)
(-0.126325 0.00765209 -4.68981e-22)
(-0.0106298 0.0258375 8.74917e-23)
(-0.0328857 0.0452602 5.42464e-22)
(-0.0595372 0.0502418 -4.19225e-22)
(-0.0791598 0.0486544 -2.97151e-25)
(-0.0979064 0.0451268 -3.7544e-22)
(-0.103598 0.0392239 1.39189e-22)
(-0.118783 0.0376306 -5.81286e-23)
(-0.102205 0.024718 4.79385e-22)
(-0.115689 0.0371373 -8.1842e-23)
(-0.0888155 0.00781627 2.68575e-22)
(-0.0121363 0.0293575 4.38303e-23)
(-0.0342999 0.0517036 0)
(-0.0589236 0.0574905 -1.56902e-24)
(-0.0753489 0.0556948 0)
(-0.0905812 0.0514227 6.65915e-22)
(-0.0904228 0.0449175 -5.51535e-22)
(-0.101788 0.0421058 0)
(-0.0733469 0.0282141 -1.12803e-24)
(-0.0841966 0.0430072 0)
(-0.0417672 0.00806028 0)
(-0.0138015 0.0323706 -7.06666e-22)
(-0.0358964 0.0573255 -7.29913e-23)
(-0.058234 0.0638279 5.4084e-22)
(-0.0709912 0.0618471 1.00236e-22)
(-0.0820366 0.0567317 -6.69783e-22)
(-0.0751514 0.0499445 -4.1311e-22)
(-0.0816501 0.0451061 -5.84191e-23)
(-0.0389467 0.0314532 4.75905e-22)
(-0.0465233 0.0476794 -8.21523e-23)
(0.0172328 0.00943482 6.79862e-23)
(-0.0155956 0.0348555 7.95536e-22)
(-0.0376505 0.0620511 -5.86722e-22)
(-0.057457 0.069141 -1.81251e-22)
(-0.0660929 0.0669868 9.99924e-23)
(-0.0721758 0.0609013 6.69714e-22)
(-0.0577609 0.054259 6.22535e-22)
(-0.0579017 0.0462198 -5.85511e-23)
(0.00136752 0.034614 9.52502e-23)
(-0.00247232 0.0503516 -1.64679e-22)
(0.0921778 0.0124466 6.92778e-23)
(-0.0174919 0.036809 7.14664e-22)
(-0.039532 0.0658247 5.87043e-22)
(-0.0565607 0.0733328 -8.50479e-22)
(-0.0606257 0.0709942 -1.00302e-22)
(-0.0608021 0.0637899 0)
(-0.0381395 0.0578633 0)
(-0.0297555 0.045244 0)
(0.0486411 0.0377189 -1.50892e-21)
(0.0476824 0.0501424 -6.88717e-22)
(0.186763 0.0176508 5.27751e-22)
(-0.0194683 0.0382451 -1.4336e-21)
(-0.0415024 0.0686099 0)
(-0.0554843 0.0763257 1.94697e-21)
(-0.0545091 0.0737582 8.05373e-22)
(-0.0475734 0.0652715 8.38123e-23)
(-0.0158922 0.060692 0)
(0.00378751 0.0423912 -9.56794e-22)
(0.104214 0.041113 7.5308e-22)
(0.10562 0.0457202 6.88707e-22)
(0.302592 0.0255275 -5.27731e-22)
(-0.0215079 0.0391923 8.09195e-22)
(-0.043511 0.0703899 -7.40834e-23)
(-0.0541261 0.0780662 -9.75226e-22)
(-0.047586 0.0751845 -9.06517e-22)
(-0.0320553 0.0653439 0)
(0.00986424 0.0624874 1.10897e-21)
(0.0444387 0.0381573 5.30661e-25)
(0.168898 0.0455982 6.50066e-22)
(0.176646 0.0373319 7.73041e-22)
(0.438049 0.0351879 -5.23467e-22)
(-0.0235988 0.0396906 4.5252e-26)
(-0.0454894 0.0711663 1.2697e-21)
(-0.0523278 0.0785266 -1.22682e-22)
(-0.0395364 0.0751812 7.07663e-22)
(-0.0137247 0.0641007 4.22792e-22)
(0.0403427 0.0630277 2.81612e-22)
(0.0949852 0.0333996 9.54458e-22)
(0.243113 0.0510245 -8.45009e-22)
(0.269046 0.0289334 -5.26254e-22)
(0.587017 0.0454087 3.85197e-22)
(-0.0257328 0.0397878 0)
(-0.0473447 0.0709571 -1.04577e-21)
(-0.0498742 0.077713 -1.23179e-22)
(-0.0298466 0.0736847 1.62821e-24)
(0.00824628 0.0616249 6.74535e-22)
(0.0770619 0.0622234 -9.69533e-22)
(0.158579 0.0297238 9.49022e-22)
(0.327445 0.0558996 -9.66995e-23)
(0.389279 0.0264519 0)
(0.739154 0.0561675 0)
(-0.0279044 0.0395358 9.18884e-23)
(-0.0489495 0.0697957 -1.20682e-21)
(-0.0464731 0.0756738 0)
(-0.017821 0.0707365 -9.99767e-23)
(0.0350649 0.0580646 8.42183e-23)
(0.122149 0.0599485 0)
(0.237593 0.0291612 -9.50904e-22)
(0.423393 0.0591012 -7.47858e-22)
(0.535043 0.0332376 1.62855e-22)
(0.882279 0.0682085 -1.3686e-22)
(-0.0301045 0.0389817 -9.23319e-23)
(-0.0501366 0.0677341 1.28261e-21)
(-0.0417129 0.0724796 0)
(-0.00255578 0.0664966 -9.13562e-22)
(0.0682901 0.0537476 8.42612e-23)
(0.178279 0.0565311 -1.11073e-21)
(0.332542 0.0330487 -1.15042e-22)
(0.532842 0.0619505 8.44129e-22)
(0.693346 0.0479691 0)
(1.00585 0.0812935 1.04136e-21)
(-0.0323125 0.0381635 -1.40401e-21)
(-0.0506949 0.0648368 -7.62642e-23)
(-0.0350406 0.0682238 -1.23632e-22)
(0.0171183 0.0612278 1.02262e-22)
(0.109886 0.0492622 -1.34528e-21)
(0.248289 0.0532334 1.11072e-21)
(0.441621 0.0413969 9.3496e-22)
(0.654635 0.0674971 7.47762e-22)
(0.846345 0.0668845 1.29252e-21)
(1.10373 0.0940426 -9.11079e-22)
(-0.0344927 0.037109 1.49692e-21)
(-0.0503576 0.0611705 0)
(-0.0257636 0.0630405 1.12287e-21)
(0.042649 0.0552827 -1.0254e-22)
(0.1621 0.0454309 2.6897e-21)
(0.334189 0.0520716 0)
(0.560935 0.0534924 -9.3494e-22)
(0.781715 0.0773567 -1.86297e-24)
(0.979373 0.0866951 -1.4488e-21)
(1.17478 0.105013 1.31362e-22)
(-0.0365901 0.0358344 0)
(-0.0487954 0.0568022 1.2337e-21)
(-0.0130446 0.0571047 -9.98901e-22)
(0.0757269 0.0491299 0)
(0.22709 0.0433145 -1.34442e-21)
(0.435557 0.0550734 0)
(0.684561 0.0685878 9.19824e-22)
(0.903338 0.0905852 -7.45869e-22)
(1.08502 0.105455 -1.23677e-21)
(1.22192 0.113215 -9.96764e-22)
(-0.0385241 0.0343409 -1.89895e-22)
(-0.045618 0.0518033 -1.07783e-21)
(0.00410323 0.0506319 0)
(0.118201 0.0434257 0)
(0.306202 0.0441583 0)
(0.548523 0.0632125 -1.37392e-22)
(0.805099 0.0857031 -9.21916e-22)
(1.01023 0.105343 -9.42439e-23)
(1.16258 0.122008 1.23676e-21)
(1.25053 0.11792 1.12129e-21)
(-0.0401854 0.0326193 0)
(-0.0403722 0.0462479 -1.2512e-21)
(0.0268189 0.0438912 0)
(0.171871 0.039115 0)
(0.398977 0.0490987 0)
(0.666276 0.0760015 1.36496e-22)
(0.915502 0.103487 -1.12625e-21)
(1.09751 0.120269 8.7465e-23)
(1.21576 0.135137 8.82511e-22)
(1.26753 0.118503 9.63463e-22)
(-0.0414506 0.0306656 0)
(-0.0325288 0.0401973 1.2512e-21)
(0.0563875 0.037249 -1.01991e-21)
(0.238058 0.0374487 0)
(0.502404 0.0586327 -1.34206e-21)
(0.781095 0.0919511 0)
(1.011 0.120748 9.00778e-22)
(1.16445 0.134297 -7.18952e-22)
(1.25022 0.143754 -1.18096e-21)
(1.29218 0.129092 -9.58548e-22)
(-0.0421789 0.0284655 1.59213e-21)
(-0.0214902 0.0337032 0)
(0.0941937 0.0312656 8.935e-22)
(0.316925 0.0397301 1.04549e-22)
(0.611172 0.0722785 2.68403e-21)
(0.886634 0.109387 0)
(1.08967 0.136773 -8.79186e-22)
(1.21313 0.146389 -1.42625e-21)
(1.2748 0.151947 -9.89694e-22)
(1.30137 0.135171 -5.31734e-24)
(-0.0421975 0.0259918 -1.69103e-21)
(-0.00658383 0.0268315 8.11806e-23)
(0.141555 0.0268061 1.2709e-22)
(0.406839 0.0467784 -1.05118e-22)
(0.719088 0.0888234 -1.34198e-21)
(0.979058 0.127004 1.08132e-21)
(1.15184 0.151157 8.79181e-22)
(1.24768 0.157031 7.07296e-22)
(1.28901 0.158386 1.12987e-21)
(1.30457 0.140951 -9.97388e-22)
(-0.0413157 0.0232167 1.00226e-22)
(0.0129677 0.0196915 1.22018e-21)
(0.199388 0.0250497 0)
(0.504275 0.058481 -7.30935e-22)
(0.82079 0.106924 -8.51335e-23)
(1.05693 0.143975 -1.08131e-21)
(1.19934 0.16395 1.05333e-22)
(1.27076 0.166179 5.92549e-22)
(1.29672 0.164084 0)
(1.30454 0.145972 8.87708e-22)
(-0.0393261 0.0201123 -1.03418e-22)
(0.0380472 0.0125179 -1.30244e-21)
(0.267755 0.0272327 0)
(0.604553 0.0738877 9.80924e-23)
(0.912711 0.125527 -8.53579e-23)
(1.12051 0.159897 0)
(1.23437 0.175277 -8.41752e-22)
(1.28533 0.174193 -6.80716e-22)
(1.29963 0.169083 -1.29976e-22)
(1.3013 0.150512 -1.09334e-22)
(-0.0359911 0.01665 0)
(0.0695787 0.00579851 -1.50133e-21)
(0.345501 0.0341613 1.34596e-22)
(0.703001 0.0917598 -5.21431e-24)
(0.993102 0.143968 -6.6932e-22)
(1.17101 0.174631 -1.1835e-21)
(1.25925 0.185357 9.49432e-22)
(1.29355 0.181302 0)
(1.2992 0.173661 0)
(1.29697 0.154834 0)
(-0.0310165 0.0128103 2.29153e-24)
(0.108374 0.000378247 1.25885e-21)
(0.430266 0.0458398 1.36287e-22)
(0.795906 0.11105 9.468e-22)
(1.06156 0.161876 5.83516e-22)
(1.21007 0.188191 -1.15446e-22)
(1.27606 0.194414 8.19414e-22)
(1.29715 0.187758 -5.52653e-22)
(1.29659 0.177967 -6.20536e-22)
(1.29144 0.159006 4.98232e-22)
(-0.024025 0.00860425 7.82178e-22)
(0.154903 -0.00257128 8.79589e-23)
(0.518903 0.0615444 -1.08889e-21)
(0.880866 0.13104 -8.53179e-22)
(1.11855 0.179076 0)
(1.23942 0.200677 1.04278e-21)
(1.28661 0.202673 -1.58291e-23)
(1.29746 0.193761 7.11917e-22)
(1.29245 0.18212 4.33926e-22)
(1.28543 0.163121 -3.94841e-22)
(-0.0145509 0.00411121 -1.80039e-21)
(0.209067 -0.00179343 0)
(0.608105 0.0802529 2.19402e-21)
(0.95666 0.151292 7.49581e-22)
(1.16497 0.195503 8.59869e-23)
(1.26073 0.21223 0)
(1.29236 0.210336 -7.96913e-22)
(1.2954 0.199468 6.03419e-22)
(1.28732 0.186205 4.68465e-22)
(1.27897 0.167223 -3.69085e-22)
(-0.00206764 -0.00047865 9.11053e-22)
(0.270078 0.00367218 7.10202e-22)
(0.69494 0.101053 -1.23988e-21)
(1.02293 0.171565 1.11456e-22)
(1.20196 0.211166 0)
(1.27546 0.223006 0)
(1.29447 0.217577 0)
(1.29166 0.204996 -1.18967e-21)
(1.28146 0.190275 -4.68469e-22)
(1.27224 0.171328 3.69068e-22)
(0.0139434 -0.00482125 8.43947e-22)
(0.336541 0.0141922 -7.04466e-22)
(0.777119 0.123295 7.22925e-23)
(1.07984 0.191745 0)
(1.2307 0.226115 6.5003e-22)
(1.28488 0.23316 4.31189e-22)
(1.29383 0.224539 4.9509e-23)
(1.28671 0.210427 -5.15986e-23)
(1.27509 0.194365 1.12146e-22)
(1.26525 0.175448 -4.53152e-23)
(0.0338648 -0.0083903 -9.57839e-22)
(0.40668 0.0295119 8.91229e-23)
(0.853048 0.146549 5.72587e-22)
(1.12787 0.211768 -1.59556e-22)
(1.25233 0.240419 -4.87589e-22)
(1.29004 0.242832 -6.12684e-22)
(1.29112 0.23133 4.84232e-23)
(1.28085 0.215816 2.93498e-22)
(1.26831 0.19849 0)
(1.25805 0.179575 -4.03077e-23)
(0.0578651 -0.0105265 -6.20796e-23)
(0.4786 0.0489713 0)
(0.921763 0.170514 6.16041e-24)
(1.16766 0.231581 0)
(1.26792 0.254158 6.33653e-22)
(1.29179 0.252142 -4.69904e-22)
(1.28681 0.238028 0)
(1.2743 0.221192 9.70009e-24)
(1.26118 0.202655 0)
(1.25062 0.183701 0)
(0.0858842 -0.0105394 -1.24084e-22)
(0.550492 0.0718057 8.09999e-22)
(0.982809 0.19497 -6.52836e-22)
(1.19991 0.251127 1.07936e-22)
(1.27838 0.267411 -2.89675e-22)
(1.29082 0.26119 -5.01592e-23)
(1.28125 0.244682 0)
(1.26718 0.226568 2.02997e-22)
(1.25373 0.206853 5.21883e-23)
(1.24296 0.187807 1.49162e-22)
(0.117625 -0.00782877 -5.22798e-22)
(0.620739 0.0973391 -3.26912e-22)
(1.03611 0.219757 -1.0753e-22)
(1.22531 0.270346 4.31101e-22)
(1.28452 0.280252 3.5531e-23)
(1.28766 0.270051 4.58121e-22)
(1.27468 0.25132 0)
(1.25955 0.231943 -2.44465e-22)
(1.24597 0.211071 4.53778e-23)
(1.23504 0.191873 -3.28719e-22)
(0.152591 -0.00199415 -5.22797e-22)
(0.68796 0.125036 3.40016e-22)
(1.08186 0.244749 -4.11091e-24)
(1.24456 0.289183 -5.01753e-22)
(1.28702 0.29274 -2.64646e-22)
(1.28269 0.278778 -2.58417e-23)
(1.26727 0.257947 2.15768e-23)
(1.25146 0.237304 2.72908e-22)
(1.23789 0.215292 -2.32573e-24)
(1.22687 0.195876 1.06887e-22)
(0.190138 0.00711403 -2.69363e-22)
(0.751005 0.154465 0)
(1.1204 0.269842 -2.93532e-22)
(1.25831 0.307586 0)
(1.28642 0.304922 -3.33204e-22)
(1.27623 0.287401 2.87218e-23)
(1.25911 0.264557 0)
(1.24292 0.242632 0)
(1.22949 0.219493 0)
(1.21842 0.199787 0)
(0.229528 0.0194176 2.3626e-22)
(0.808964 0.185246 1.14144e-22)
(1.15219 0.294927 2.93534e-22)
(1.26718 0.325522 0)
(1.28319 0.316826 0)
(1.26849 0.295932 -1.19407e-23)
(1.25027 0.27113 4.58838e-23)
(1.23395 0.247899 5.23821e-23)
(1.22076 0.223648 4.84274e-23)
(1.20971 0.203577 -8.0248e-24)
(0.269974 0.034688 -4.2741e-24)
(0.86119 0.217015 -1.06815e-22)
(1.17768 0.319889 4.89227e-24)
(1.27171 0.342971 5.76885e-24)
(1.27768 0.328469 -8.80961e-24)
(1.25963 0.304363 3.34814e-24)
(1.24079 0.277634 -4.00145e-23)
(1.22453 0.253075 -4.89506e-23)
(1.21168 0.227722 -3.66549e-23)
(1.20075 0.207211 1.46963e-24)
(0.310678 0.0526285 0)
(0.907348 0.249426 -1.07713e-22)
(1.19725 0.344605 -3.31407e-24)
(1.27239 0.359919 6.77323e-24)
(1.27018 0.339847 1.20922e-37)
(1.24975 0.312669 -8.47868e-38)
(1.2307 0.284031 -3.58454e-23)
(1.21467 0.258124 -4.26249e-23)
(1.20226 0.231674 -3.35448e-23)
(1.19157 0.210655 0)
(0.350861 0.0729235 3.09689e-22)
(0.947338 0.282187 8.83116e-23)
(1.2113 0.368964 2.92552e-22)
(1.26963 0.376339 -1.3217e-23)
(1.26091 0.350942 0)
(1.23894 0.320814 1.01958e-23)
(1.22 0.290278 2.34769e-23)
(1.20436 0.263008 4.58527e-23)
(1.19249 0.235457 2.59828e-23)
(1.18215 0.213887 6.35587e-24)
(0.389779 0.0952726 -2.76005e-22)
(0.981159 0.315037 0)
(1.22021 0.392842 -2.76575e-22)
(1.26378 0.392196 0)
(1.25006 0.36172 -2.77973e-23)
(1.22724 0.328749 2.31457e-23)
(1.2087 0.296327 0)
(1.19358 0.267686 0)
(1.18237 0.239028 0)
(1.17245 0.216887 0)
(0.426748 0.119398 5.47164e-22)
(1.0089 0.347737 -3.50985e-22)
(1.22436 0.416116 -6.72905e-23)
(1.25515 0.407445 -2.75137e-22)
(1.23777 0.372134 -2.54663e-22)
(1.21469 0.336417 1.76724e-23)
(1.1968 0.302127 -1.47556e-23)
(1.18234 0.272113 1.22502e-22)
(1.17193 0.24236 2.12096e-24)
(1.16241 0.219629 8.97332e-23)
(0.461153 0.145032 -5.47165e-22)
(1.03069 0.380059 -4.23662e-22)
(1.22408 0.438661 9.36999e-23)
(1.24401 0.422037 3.28845e-22)
(1.22414 0.382123 -1.53519e-23)
(1.20131 0.343756 2.72019e-22)
(1.18429 0.307623 0)
(1.17062 0.276231 -1.39641e-22)
(1.16122 0.245441 -2.15006e-23)
(1.15199 0.222131 -1.12769e-22)
(0.492462 0.171903 1.3023e-22)
(1.04672 0.411789 7.24084e-22)
(1.2197 0.460347 -4.21359e-22)
(1.23059 0.435912 -7.96553e-23)
(1.20927 0.391622 -1.89312e-22)
(1.18712 0.350699 4.0067e-23)
(1.17118 0.312759 -2.44234e-23)
(1.15847 0.279975 1.34124e-22)
(1.15023 0.248256 -2.23512e-23)
(1.14126 0.224424 6.03312e-23)
(0.520237 0.199722 6.59461e-23)
(1.05719 0.44271 0)
(1.21151 0.481043 2.66268e-23)
(1.21509 0.449002 0)
(1.19321 0.400554 3.80129e-22)
(1.17216 0.357175 -2.4571e-22)
(1.1575 0.317474 0)
(1.14594 0.283303 -1.68364e-23)
(1.13888 0.250745 0)
(1.13034 0.226328 0)
(0.544129 0.228176 -1.01269e-21)
(1.06233 0.472607 -7.81784e-23)
(1.19979 0.500615 5.13569e-22)
(1.19767 0.461231 5.83787e-23)
(1.17601 0.408833 -3.91273e-22)
(1.15649 0.36311 -1.36571e-22)
(1.14331 0.321707 -1.88154e-23)
(1.13305 0.286189 7.44873e-23)
(1.12715 0.252865 -1.55303e-23)
(1.11924 0.227875 8.12182e-24)
(0.563883 0.256931 1.12717e-21)
(1.06235 0.501259 -6.77633e-22)
(1.1848 0.518926 -1.48515e-22)
(1.17847 0.472515 7.26474e-23)
(1.15778 0.416369 3.06838e-22)
(1.14017 0.368424 2.0803e-22)
(1.1286 0.325401 -1.58336e-23)
(1.11979 0.288602 -2.13748e-23)
(1.11508 0.254572 -2.06249e-23)
(1.10797 0.229003 7.27499e-24)
(0.579333 0.285634 9.33507e-22)
(1.05751 0.528442 6.57335e-22)
(1.16676 0.535827 -6.23457e-22)
(1.15766 0.482761 -6.57938e-23)
(1.13866 0.423089 0)
(1.12317 0.373034 0)
(1.11337 0.328499 0)
(1.10617 0.290497 -1.85397e-22)
(1.10271 0.255835 -3.93267e-23)
(1.09655 0.229695 1.34622e-23)
(0.590396 0.313927 -1.81669e-21)
(1.04805 0.553936 0)
(1.14589 0.551153 1.32912e-21)
(1.13546 0.491873 3.44323e-22)
(1.11868 0.428915 0)
(1.10549 0.376866 0)
(1.09768 0.330937 -8.9655e-23)
(1.09221 0.291836 7.44185e-23)
(1.09006 0.256616 3.9327e-23)
(1.08499 0.229913 -1.34617e-23)
(0.597067 0.341445 9.78773e-22)
(1.03428 0.57754 -7.84625e-23)
(1.12241 0.564734 -6.2612e-22)
(1.11199 0.499734 -3.76444e-22)
(1.09786 0.433764 2.66599e-23)
(1.08721 0.379855 1.20762e-22)
(1.08157 0.332655 5.08883e-23)
(1.07795 0.292576 -2.06763e-24)
(1.07717 0.256883 -1.82341e-23)
(1.07334 0.22963 3.12855e-23)
(0.599419 0.367822 -1.16926e-23)
(1.01653 0.59907 9.48661e-22)
(1.09661 0.576452 -8.28319e-23)
(1.08727 0.506178 1.94823e-22)
(1.07626 0.437562 8.87231e-23)
(1.06836 0.381932 -4.58206e-23)
(1.06508 0.333599 3.26645e-23)
(1.06343 0.29268 1.65683e-24)
(1.06408 0.256601 -2.9426e-23)
(1.06162 0.228818 -2.25159e-23)
(0.597591 0.39269 0)
(0.995062 0.618297 -8.3366e-22)
(1.06874 0.586215 -7.12084e-23)
(1.06141 0.511078 -6.67477e-23)
(1.05396 0.440201 -8.92786e-23)
(1.04903 0.383035 -5.25756e-23)
(1.04826 0.333717 -7.15537e-23)
(1.04868 0.29211 0)
(1.05082 0.255736 0)
(1.04987 0.227441 0)
(0.591783 0.415725 8.13599e-23)
(0.969987 0.634877 -6.68088e-22)
(1.03915 0.593976 0)
(1.03459 0.514356 -7.81396e-23)
(1.03106 0.441594 7.45454e-24)
(1.02928 0.383103 0)
(1.03119 0.332962 6.62324e-23)
(1.03375 0.290833 1.1921e-22)
(1.03742 0.254251 -2.47104e-23)
(1.03814 0.225455 2.07553e-23)
(0.58222 0.436711 -5.91761e-23)
(0.941521 0.64851 7.16666e-22)
(1.00811 0.599591 0)
(1.00691 0.515974 -8.4369e-23)
(1.00764 0.441656 6.18357e-25)
(1.00918 0.382079 1.68571e-22)
(1.01391 0.331293 1.95188e-23)
(1.01867 0.288816 -1.35548e-22)
(1.02391 0.252113 0)
(1.02646 0.222819 -2.41884e-22)
(0.569114 0.455425 -8.18058e-22)
(0.910146 0.659081 -3.96033e-23)
(0.975784 0.602852 -6.38685e-24)
(0.978544 0.515863 5.28305e-24)
(0.983802 0.440314 2.25058e-22)
(0.988825 0.379911 -1.68573e-22)
(0.996488 0.328674 -2.29069e-22)
(1.0035 0.286029 -1.99819e-22)
(1.01034 0.249293 -3.40135e-22)
(1.01496 0.219528 2.11727e-22)
(0.552587 0.471514 8.66308e-22)
(0.876424 0.666577 0)
(0.942391 0.603627 -3.96836e-23)
(0.949632 0.513957 4.69475e-24)
(0.959645 0.437507 -5.55645e-22)
(0.968293 0.376553 0)
(0.97899 0.325073 2.29071e-22)
(0.988246 0.282433 -4.05859e-23)
(0.996799 0.245765 3.86054e-22)
(1.00393 0.215618 -3.85621e-23)
(0.532851 0.484557 0)
(0.84074 0.670844 8.48584e-23)
(0.908134 0.601855 3.40083e-23)
(0.920329 0.510187 0)
(0.935284 0.433185 3.30587e-22)
(0.947674 0.371965 0)
(0.96147 0.320465 -3.39001e-22)
(0.972977 0.27799 2.40408e-22)
(0.983472 0.241488 4.59318e-22)
(0.99367 0.211158 3.62483e-22)
(0.510394 0.494387 -2.45775e-23)
(0.803436 0.671746 -6.46845e-23)
(0.873244 0.597474 0)
(0.89079 0.504493 0)
(0.910836 0.427305 0)
(0.927059 0.366119 5.45342e-23)
(0.943989 0.31483 2.48055e-22)
(0.957781 0.272673 3.80122e-23)
(0.970548 0.236403 -4.59321e-22)
(0.984061 0.206096 -4.0707e-22)
(0.485631 0.500834 0)
(0.764858 0.669166 2.27268e-22)
(0.837959 0.590443 0)
(0.861178 0.496825 0)
(0.886424 0.419837 0)
(0.906542 0.35899 -6.33996e-23)
(0.92662 0.308153 5.52855e-22)
(0.94278 0.266486 -1.26699e-22)
(0.958106 0.230523 -4.3678e-22)
(0.974442 0.198935 -4.42122e-22)
(0.458974 0.503764 0)
(0.725365 0.663026 -2.27269e-22)
(0.802522 0.580734 4.6715e-22)
(0.831658 0.487145 0)
(0.862171 0.410761 7.55766e-22)
(0.886217 0.350565 0)
(0.909453 0.300419 -4.48091e-22)
(0.928086 0.259443 3.99189e-22)
(0.945898 0.224305 5.72122e-22)
(0.963539 0.193759 4.40759e-22)
(0.430834 0.503084 -4.13137e-22)
(0.685321 0.653279 0)
(0.767178 0.568337 -3.98916e-22)
(0.802399 0.475433 -5.64445e-23)
(0.838207 0.400067 -1.61578e-21)
(0.866184 0.340835 0)
(0.892579 0.291616 5.5417e-22)
(0.913767 0.251467 3.76618e-23)
(0.934042 0.217032 6.02107e-22)
(0.953065 0.187133 2.43538e-24)
(0.40162 0.498741 4.52827e-22)
(0.645091 0.639908 -3.25784e-23)
(0.732168 0.55326 -8.06688e-23)
(0.773573 0.461682 -6.67274e-23)
(0.814659 0.387755 8.60011e-22)
(0.846544 0.329803 -7.67497e-22)
(0.876082 0.28176 -5.54173e-22)
(0.899825 0.242658 -4.36856e-22)
(0.922378 0.209184 -6.80569e-22)
(0.942574 0.180285 6.31389e-22)
(0.371736 0.490721 -5.27378e-23)
(0.605036 0.622925 -8.10407e-22)
(0.697732 0.535529 0)
(0.745351 0.445902 5.79509e-22)
(0.791658 0.37384 6.39021e-23)
(0.827401 0.31748 7.67502e-22)
(0.860051 0.270852 -7.62643e-23)
(0.886332 0.232963 -4.45009e-22)
(0.911055 0.200553 0)
(0.932383 0.172742 -5.63238e-22)
(0.34158 0.47905 6.09669e-23)
(0.565514 0.602375 8.53701e-22)
(0.664108 0.515189 0)
(0.717902 0.42812 -1.53941e-23)
(0.769332 0.358344 7.06867e-23)
(0.808857 0.303888 0)
(0.844562 0.258919 7.0289e-22)
(0.873323 0.222438 5.08844e-22)
(0.900091 0.191274 9.70424e-23)
(0.922544 0.164663 -8.15129e-23)
(0.311538 0.463788 0)
(0.526871 0.578328 1.28889e-21)
(0.631523 0.492304 -1.14169e-22)
(0.691395 0.408376 6.72252e-23)
(0.74781 0.341304 6.25629e-22)
(0.791014 0.289055 1.08307e-21)
(0.829696 0.245983 -7.97445e-22)
(0.860859 0.211089 0)
(0.889555 0.181323 0)
(0.913139 0.156006 0)
(0.281985 0.445034 2.41753e-24)
(0.489445 0.550886 -1.06947e-21)
(0.600201 0.466954 1.27694e-22)
(0.665994 0.386728 -8.94119e-22)
(0.727217 0.322767 -5.42103e-22)
(0.773971 0.273022 1.82282e-22)
(0.815528 0.23208 -8.0028e-22)
(0.848994 0.198954 5.28842e-22)
(0.879501 0.170741 5.7084e-22)
(0.904222 0.146805 -4.45353e-22)
(0.253277 0.422925 -7.51517e-22)
(0.453554 0.520171 -8.37116e-23)
(0.570357 0.439239 1.17424e-21)
(0.641856 0.363247 9.18609e-22)
(0.707676 0.302792 0)
(0.757824 0.255837 -1.03153e-21)
(0.802132 0.217249 -4.09614e-23)
(0.837785 0.186064 -6.8063e-22)
(0.869982 0.159547 -4.00249e-22)
(0.89584 0.13708 3.54416e-22)
(0.225756 0.397642 1.80073e-21)
(0.419498 0.486322 0)
(0.542196 0.40927 -2.43291e-21)
(0.619135 0.33802 -8.04003e-22)
(0.689304 0.281447 -9.51351e-23)
(0.742666 0.237557 0)
(0.789577 0.201539 8.33136e-22)
(0.827286 0.172461 -6.62506e-22)
(0.86105 0.147775 -5.03384e-22)
(0.888032 0.126861 3.84698e-22)
(0.199735 0.369406 -9.47238e-22)
(0.387551 0.449497 -8.33627e-22)
(0.515916 0.377176 1.416e-21)
(0.597974 0.311147 -1.30138e-22)
(0.672214 0.258813 0)
(0.728584 0.218248 0)
(0.777931 0.185001 0)
(0.81755 0.158188 1.35002e-21)
(0.852753 0.135456 5.03385e-22)
(0.880833 0.116183 -3.84697e-22)
(0.175486 0.338438 -9.81972e-22)
(0.357983 0.409907 8.30549e-22)
(0.491712 0.343099 8.74155e-23)
(0.578511 0.282743 0)
(0.656512 0.234979 -8.20165e-22)
(0.71566 0.197984 -5.47302e-22)
(0.767257 0.167697 -6.08164e-23)
(0.808626 0.143294 1.06229e-22)
(0.845139 0.12263 -1.33408e-22)
(0.874273 0.105084 5.32533e-23)
(0.153245 0.304941 1.11498e-21)
(0.331046 0.367805 -1.11921e-22)
(0.469757 0.307204 -9.15701e-22)
(0.560873 0.252936 2.03849e-22)
(0.642294 0.210045 6.10704e-22)
(0.703969 0.176843 7.78663e-22)
(0.757612 0.14969 -6.29156e-23)
(0.800563 0.127831 -3.4494e-22)
(0.838248 0.109339 0)
(0.868379 0.0936041 5.00544e-23)
(0.133238 0.269144 7.63711e-23)
(0.306968 0.323456 0)
(0.450204 0.26967 -2.84625e-23)
(0.545176 0.221863 0)
(0.62965 0.18412 -8.76022e-22)
(0.693581 0.154915 6.58783e-22)
(0.749049 0.131051 0)
(0.793402 0.111855 8.96661e-24)
(0.832123 0.0956298 0)
(0.863175 0.0817882 0)
(0.115676 0.231305 1.5831e-22)
(0.28595 0.277129 -1.07939e-21)
(0.433188 0.230691 8.58443e-22)
(0.531523 0.189673 -1.47597e-22)
(0.61866 0.157318 3.79335e-22)
(0.684558 0.13229 1.03666e-22)
(0.741617 0.111855 0)
(0.787185 0.0954276 -2.84119e-22)
(0.826798 0.0815514 -7.56595e-23)
(0.858681 0.0696823 -2.19139e-22)
(0.100746 0.191706 6.76674e-22)
(0.268164 0.229104 -1.60075e-21)
(0.418827 0.190472 1.47572e-22)
(0.520005 0.156522 -6.16555e-22)
(0.609392 0.129763 -6.91339e-23)
(0.676953 0.109069 -6.74275e-22)
(0.735357 0.0921809 0)
(0.781945 0.0786126 3.88339e-22)
(0.822308 0.067157 -6.94737e-23)
(0.854912 0.0573328 4.99918e-22)
(0.0886066 0.150646 -6.76674e-22)
(0.253758 0.179672 5.87091e-22)
(0.407219 0.149225 -1.01934e-22)
(0.510697 0.122577 7.23371e-22)
(0.601906 0.101583 3.97482e-22)
(0.670813 0.0853516 4.12405e-23)
(0.730304 0.0721114 -3.44336e-23)
(0.777715 0.061478 -4.34926e-22)
(0.818679 0.0525028 3.86253e-24)
(0.851881 0.0447867 -1.66081e-22)
(0.0793873 0.108435 3.53916e-22)
(0.242848 0.129134 0)
(0.398442 0.107171 4.18571e-22)
(0.503662 0.0880055 0)
(0.59625 0.0729132 5.58005e-23)
(0.666175 0.0612456 -4.64625e-23)
(0.726489 0.0517316 0)
(0.774519 0.0440929 0)
(0.815935 0.0376464 0)
(0.849599 0.0320916 0)
(0.0731862 0.0653946 -3.10038e-22)
(0.235525 0.0778004 -1.19412e-22)
(0.392558 0.0645358 -4.18572e-22)
(0.498946 0.0529843 0)
(0.592459 0.04389 0)
(0.663067 0.0368599 2.10364e-23)
(0.723932 0.0311286 -8.39709e-23)
(0.772377 0.0265279 -9.97601e-23)
(0.814095 0.0226455 -9.31693e-23)
(0.848074 0.0192942 1.50418e-23)
(0.0700691 0.021854 -5.61203e-24)
(0.231849 0.025987 1.28809e-22)
(0.389605 0.0215509 -5.77307e-24)
(0.49658 0.0176917 1.99035e-23)
(0.590557 0.0146537 -7.84601e-24)
(0.661508 0.0123054 0)
(0.72265 0.0103912 6.64067e-23)
(0.771303 0.0088547 9.97602e-23)
(0.813171 0.00755811 7.07687e-23)
(0.84731 0.00643776 1.05842e-23)
(0.0700691 -0.021854 -5.61203e-24)
(0.231849 -0.0259869 1.28809e-22)
(0.389605 -0.0215509 -5.77307e-24)
(0.49658 -0.0176917 1.99035e-23)
(0.590557 -0.0146537 -7.84601e-24)
(0.661508 -0.0123054 0)
(0.72265 -0.0103912 5.84933e-23)
(0.771303 -0.00885469 1.06384e-22)
(0.813171 -0.0075581 7.52609e-23)
(0.84731 -0.00643775 0)
(0.0731862 -0.0653946 -3.97793e-22)
(0.235525 -0.0778004 -1.54863e-22)
(0.392558 -0.0645358 -4.4371e-22)
(0.498946 -0.0529843 2.07943e-23)
(0.592459 -0.0438899 0)
(0.663067 -0.0368599 -2.10364e-23)
(0.723932 -0.0311286 -4.88424e-23)
(0.772377 -0.0265279 -9.97601e-23)
(0.814095 -0.0226455 -5.73525e-23)
(0.848074 -0.0192941 -1.50418e-23)
(0.0793873 -0.108435 3.53916e-22)
(0.242848 -0.129134 0)
(0.398442 -0.107171 4.18571e-22)
(0.503662 -0.0880055 0)
(0.59625 -0.0729132 5.58005e-23)
(0.666175 -0.0612456 -4.64625e-23)
(0.726489 -0.0517316 0)
(0.774519 -0.0440929 0)
(0.815935 -0.0376464 0)
(0.849599 -0.0320916 0)
(0.0886066 -0.150646 -6.76674e-22)
(0.253758 -0.179672 4.58534e-22)
(0.407219 -0.149225 1.01934e-22)
(0.510697 -0.122577 4.95338e-22)
(0.601906 -0.101583 5.19513e-22)
(0.670813 -0.0853515 -4.12405e-23)
(0.730304 -0.0721114 3.44336e-23)
(0.777715 -0.061478 -3.41753e-22)
(0.818679 -0.0525028 -3.86253e-24)
(0.851881 -0.0447867 -2.78772e-22)
(0.100746 -0.191706 6.76674e-22)
(0.268164 -0.229104 5.55123e-22)
(0.418827 -0.190472 -1.47572e-22)
(0.520005 -0.156522 -6.02152e-22)
(0.609392 -0.129763 5.05867e-23)
(0.676953 -0.109069 -6.74275e-22)
(0.735357 -0.0921809 0)
(0.781945 -0.0786126 3.88339e-22)
(0.822308 -0.067157 6.94737e-23)
(0.854912 -0.0573328 3.83212e-22)
(0.115676 -0.231305 -1.5831e-22)
(0.28595 -0.277129 1.07939e-21)
(0.433188 -0.230691 6.71772e-22)
(0.531523 -0.189673 1.47597e-22)
(0.61866 -0.157318 4.74269e-22)
(0.684558 -0.13229 -1.52214e-22)
(0.741617 -0.111855 6.64003e-23)
(0.787185 -0.0954276 -4.64514e-22)
(0.826798 -0.0815514 7.56595e-23)
(0.858681 -0.0696823 -2.19139e-22)
(0.133238 -0.269144 -7.63711e-23)
(0.306968 -0.323456 0)
(0.450204 -0.26967 -2.84625e-23)
(0.545176 -0.221863 0)
(0.62965 -0.18412 -8.76022e-22)
(0.693581 -0.154915 6.58783e-22)
(0.749049 -0.131051 0)
(0.793402 -0.111855 8.96661e-24)
(0.832123 -0.0956298 0)
(0.863175 -0.0817882 0)
(0.153245 -0.304941 1.11498e-21)
(0.331046 -0.367805 1.11921e-22)
(0.469757 -0.307204 -6.44429e-22)
(0.560873 -0.252936 -1.32011e-22)
(0.642294 -0.210045 1.02963e-21)
(0.703969 -0.176843 4.61621e-22)
(0.757612 -0.14969 6.29156e-23)
(0.800563 -0.127831 -4.30933e-22)
(0.838248 -0.109339 7.21327e-23)
(0.868379 -0.093604 -5.00544e-23)
(0.175485 -0.338438 -1.24798e-21)
(0.357983 -0.409907 8.36709e-22)
(0.491712 -0.343099 7.84907e-23)
(0.578511 -0.282743 -1.37234e-22)
(0.656512 -0.234979 -8.20165e-22)
(0.71566 -0.197984 -6.92979e-22)
(0.767257 -0.167697 6.08164e-23)
(0.808626 -0.143294 -6.06895e-23)
(0.845139 -0.12263 1.33408e-22)
(0.874273 -0.105084 -5.32533e-23)
(0.199735 -0.369406 -9.47238e-22)
(0.387551 -0.449497 -8.33627e-22)
(0.515916 -0.377176 1.10134e-21)
(0.597974 -0.311147 1.30138e-22)
(0.672214 -0.258813 0)
(0.728584 -0.218248 0)
(0.777931 -0.185001 0)
(0.81755 -0.158188 1.35002e-21)
(0.852753 -0.135456 5.03385e-22)
(0.880833 -0.116183 -3.84697e-22)
(0.225756 -0.397642 1.80073e-21)
(0.419498 -0.486322 0)
(0.542196 -0.40927 -2.43291e-21)
(0.619135 -0.33802 -9.18613e-22)
(0.689304 -0.281447 0)
(0.742666 -0.237557 0)
(0.789577 -0.201539 8.33136e-22)
(0.827286 -0.172461 -6.62506e-22)
(0.86105 -0.147775 -5.03384e-22)
(0.888032 -0.126861 3.84698e-22)
(0.253277 -0.422925 -9.55476e-22)
(0.453554 -0.520171 8.37116e-23)
(0.570357 -0.439239 1.17424e-21)
(0.641856 -0.363247 1.02644e-21)
(0.707676 -0.302792 -8.95059e-23)
(0.757824 -0.255837 -1.03153e-21)
(0.802132 -0.217249 -4.09614e-23)
(0.837785 -0.186064 -5.32016e-22)
(0.869982 -0.159547 -5.24909e-22)
(0.89584 -0.13708 3.54416e-22)
(0.281985 -0.445034 -2.41753e-24)
(0.489445 -0.550886 -1.23116e-21)
(0.600201 -0.466954 -1.27694e-22)
(0.665994 -0.386728 -6.92864e-22)
(0.727217 -0.322767 -5.52615e-22)
(0.773971 -0.273022 -1.89231e-22)
(0.815528 -0.23208 -7.84056e-22)
(0.848994 -0.198954 6.83799e-22)
(0.879501 -0.170741 3.54314e-22)
(0.904222 -0.146805 -2.6348e-22)
(0.311538 -0.463788 0)
(0.526871 -0.578328 1.01174e-21)
(0.631523 -0.492304 1.14169e-22)
(0.691395 -0.408376 6.72252e-23)
(0.74781 -0.341304 6.25629e-22)
(0.791014 -0.289055 8.56582e-22)
(0.829696 -0.245983 -6.95722e-22)
(0.860859 -0.211089 7.31359e-23)
(0.889555 -0.181323 0)
(0.913139 -0.156006 0)
(0.34158 -0.47905 -6.09669e-23)
(0.565514 -0.602375 8.53701e-22)
(0.664108 -0.515189 0)
(0.717902 -0.42812 1.54919e-22)
(0.769332 -0.358344 -7.06867e-23)
(0.808857 -0.303888 0)
(0.844562 -0.258919 7.0289e-22)
(0.873323 -0.222438 5.08844e-22)
(0.900091 -0.191274 -9.70424e-23)
(0.922544 -0.164663 8.15129e-23)