/*--------------------------------*- C++ -*----------------------------------*\
  =========                 |
  \\      /  F ield         | OpenFOAM: The Open Source CFD Toolbox
   \\    /   O peration     | Website:  https://openfoam.org
    \\  /    A nd           | Version:  9
     \\/     M anipulation  |
\*---------------------------------------------------------------------------*/
FoamFile
{
    format      ascii;
    class       volVectorField;
    location    "20.3";
    object      U;
}
// * * * * * * * * * * * * * * * * * * * * * * * * * * * * * * * * * * * * * //

dimensions      [0 1 -1 0 0 0 0];

internalField   nonuniform List<vector> 
8500
(
(-0.00658837 0.00263066 0)
(-0.0295429 0.00453355 -6.8787e-23)
(-0.0620446 0.00501009 -3.78211e-24)
(-0.090334 0.00485893 7.16492e-37)
(-0.118323 0.0045628 -1.05412e-23)
(-0.139391 0.00398471 8.77717e-24)
(-0.164167 0.00398088 -5.94248e-23)
(-0.176017 0.00272106 -9.21505e-23)
(-0.197789 0.00386101 -8.42792e-23)
(-0.206651 0.00169419 -4.38049e-24)
(-0.00688257 0.00783806 1.98723e-22)
(-0.0297903 0.0135238 6.42677e-23)
(-0.0618948 0.0149525 2.5792e-22)
(-0.0896015 0.0145029 0)
(-0.116973 0.0136143 0)
(-0.137001 0.011886 1.76793e-23)
(-0.161131 0.0118623 4.46635e-23)
(-0.171108 0.00808283 9.83589e-23)
(-0.192186 0.0115145 6.34274e-23)
(-0.198494 0.00490507 1.75299e-23)
(-0.00746261 0.0128858 -1.76597e-22)
(-0.0302821 0.0222855 0)
(-0.0616015 0.0246624 -2.42719e-22)
(-0.088149 0.0239255 0)
(-0.114292 0.0224422 -4.22235e-23)
(-0.132243 0.0195856 3.51575e-23)
(-0.155091 0.019497 0)
(-0.161305 0.0132153 0)
(-0.181073 0.018972 0)
(-0.182368 0.00760504 0)
(-0.00831243 0.0176748 3.54969e-22)
(-0.031012 0.0306721 -2.58048e-22)
(-0.061177 0.0339877 -6.086e-23)
(-0.0860008 0.0329806 -3.79434e-22)
(-0.110316 0.0308933 -3.80881e-22)
(-0.12516 0.0269572 3.54581e-23)
(-0.146106 0.0267021 -2.96056e-23)
(-0.146617 0.0180013 3.42749e-22)
(-0.16458 0.0261333 -2.92482e-26)
(-0.15854 0.00952996 3.46309e-22)
(-0.00940935 0.0221165 -3.54969e-22)
(-0.0319705 0.0385464 -3.33459e-22)
(-0.0606373 0.0427808 9.15498e-23)
(-0.083191 0.041524 5.06369e-22)
(-0.105088 0.0388091 -4.30358e-23)
(-0.115817 0.0338851 5.63699e-22)
(-0.134234 0.0332661 0)
(-0.127023 0.0223649 -3.92548e-22)
(-0.142801 0.0329337 -8.37499e-23)
(-0.127135 0.0105527 -4.81379e-22)
(-0.0107258 0.026136 8.94602e-23)
(-0.0331454 0.045783 5.54609e-22)
(-0.0600002 0.0508995 -4.28615e-22)
(-0.0797608 0.0494155 -3.08933e-25)
(-0.098647 0.0460267 -3.83925e-22)
(-0.104286 0.0402658 1.42344e-22)
(-0.119506 0.0389382 -5.94688e-23)
(-0.102438 0.0262711 4.90886e-22)
(-0.115699 0.0393174 -8.3819e-23)
(-0.0878069 0.0108121 2.75603e-22)
(-0.0122313 0.0296754 4.48162e-23)
(-0.0345211 0.0522716 0)
(-0.0592808 0.0582082 -1.58129e-24)
(-0.0757526 0.0565201 0)
(-0.0910161 0.0523807 6.80967e-22)
(-0.0906449 0.0460102 -5.6417e-22)
(-0.101887 0.0434214 0)
(-0.0727028 0.0297355 -1.19084e-24)
(-0.083067 0.0450783 0)
(-0.0393606 0.010954 0)
(-0.0138945 0.032695 -7.225e-22)
(-0.0360793 0.0579189 -7.46193e-23)
(-0.0584867 0.0645812 5.52928e-22)
(-0.0712022 0.0627081 1.02486e-22)
(-0.0821778 0.0577097 -6.84836e-22)
(-0.0749438 0.0510466 -4.22512e-22)
(-0.0811972 0.0463626 -5.97521e-23)
(-0.0375863 0.0328732 4.87198e-22)
(-0.0445159 0.0494902 -8.40957e-23)
(0.0205742 0.0120876 6.9757e-23)
(-0.0156855 0.0351745 8.13352e-22)
(-0.0377971 0.0626505 -5.99741e-22)
(-0.0576117 0.0699055 -1.85288e-22)
(-0.0661257 0.0678555 1.02221e-22)
(-0.0720489 0.061863 6.84749e-22)
(-0.0571813 0.0553366 6.36693e-22)
(-0.056979 0.047358 -5.9879e-23)
(0.0032849 0.0358651 9.74564e-23)
(0.00012442 0.0518441 -1.68587e-22)
(0.0962108 0.0147109 7.09459e-23)
(-0.0175779 0.0371123 7.30563e-22)
(-0.0396462 0.0664118 6.00065e-22)
(-0.0566282 0.0740848 -8.69314e-22)
(-0.060503 0.071844 -1.02531e-22)
(-0.0604406 0.0647005 0)
(-0.0372595 0.0588918 0)
(-0.0284565 0.0462329 0)
(0.0510257 0.0387592 -1.54476e-21)
(0.05059 0.0513164 -7.0417e-22)
(0.19136 0.0194481 5.41076e-22)
(-0.0195498 0.0385245 -1.46543e-21)
(-0.0415892 0.0691685 0)
(-0.0554781 0.0770435 1.99002e-21)
(-0.0542588 0.0745646 8.23187e-22)
(-0.0470112 0.0660964 8.56713e-23)
(-0.0147729 0.0616441 0)
(0.00537145 0.0432267 -9.78032e-22)
(0.106995 0.0419608 7.70951e-22)
(0.108752 0.0465328 7.0416e-22)
(0.307734 0.0268888 -5.41055e-22)
(-0.0215845 0.0394422 8.27109e-22)
(-0.0435764 0.0709064 -7.57163e-23)
(-0.0540608 0.0787307 -9.96751e-22)
(-0.0472391 0.0759263 -9.26564e-22)
(-0.03133 0.0660603 0)
(0.0111856 0.0633273 1.13378e-21)
(0.0462769 0.0388306 6.51344e-25)
(0.172018 0.0462797 6.65546e-22)
(0.180134 0.0378157 7.90077e-22)
(0.443746 0.0361218 -5.36735e-22)
(-0.0236708 0.0399079 4.20469e-26)
(-0.0455394 0.0716302 1.29743e-21)
(-0.0522171 0.0791222 -1.2537e-22)
(-0.039117 0.075838 7.23197e-22)
(-0.0128738 0.064698 4.32041e-22)
(0.0418408 0.0637254 2.87736e-22)
(0.0971152 0.0339122 9.75605e-22)
(0.246545 0.0515143 -8.64939e-22)
(0.273177 0.0292354 -5.37553e-22)
(0.593158 0.0459302 3.95225e-22)
(-0.0258013 0.0399719 0)
(-0.0473849 0.0713611 -1.06861e-21)
(-0.0497311 0.0782292 -1.25866e-22)
(-0.0293683 0.0742382 1.59686e-24)
(0.00920721 0.0620908 6.89345e-22)
(0.0787384 0.0627481 -9.91146e-22)
(0.161083 0.0301088 9.69928e-22)
(0.331215 0.0561371 -9.88989e-23)
(0.39428 0.0267291 0)
(0.745468 0.0563121 0)
(-0.0279706 0.0396882 9.38851e-23)
(-0.0489837 0.0701359 -1.23293e-21)
(-0.0463065 0.0761042 0)
(-0.0172893 0.0711775 -1.02224e-22)
(0.0361445 0.0583914 8.60583e-23)
(0.124039 0.060287 0)
(0.240556 0.0294651 -9.71777e-22)
(0.427599 0.059068 -7.65516e-22)
(0.540817 0.0335239 1.66672e-22)
(0.888426 0.0680248 -1.40068e-22)
(-0.0301703 0.0391053 -9.43248e-23)
(-0.050167 0.0680102 1.31035e-21)
(-0.041524 0.0728202 0)
(-0.00196204 0.0668227 -9.33473e-22)
(0.0695284 0.0539421 8.60973e-23)
(0.180467 0.0566885 -1.13518e-21)
(0.336012 0.0332865 -1.17653e-22)
(0.537582 0.0617206 8.63972e-22)
(0.699456 0.0481686 0)
(1.01151 0.0807966 1.06774e-21)
(-0.0323793 0.0382621 -1.434e-21)
(-0.0507216 0.0650512 -7.79005e-23)
(-0.0348226 0.0684739 -1.26306e-22)
(0.0178013 0.0614407 1.04474e-22)
(0.111351 0.0493408 -1.37461e-21)
(0.250895 0.0532349 1.13517e-21)
(0.445595 0.0415517 9.5552e-22)
(0.659846 0.0671658 7.65341e-22)
(0.852244 0.0668745 1.3215e-21)
(1.10874 0.0932272 -9.34155e-22)
(-0.0345618 0.0371873 1.5289e-21)
(-0.050377 0.061327 0)
(-0.0255014 0.0632033 1.14697e-21)
(0.0434673 0.0553875 -1.04751e-22)
(0.163881 0.0454178 2.74832e-21)
(0.33731 0.0519748 0)
(0.565335 0.0535439 -9.555e-22)
(0.787103 0.0769454 -1.93181e-24)
(0.984661 0.0863978 -1.48151e-21)
(1.17914 0.103893 1.34496e-22)
(-0.0366623 0.0358968 0)
(-0.0488006 0.056906 1.25984e-21)
(-0.012714 0.0571856 -1.02033e-21)
(0.0767437 0.0491363 0)
(0.229284 0.0432407 -1.37371e-21)
(0.439209 0.0549334 0)
(0.689211 0.0685198 9.40174e-22)
(0.908522 0.0900542 -7.63379e-22)
(1.08954 0.104845 -1.26549e-21)
(1.22574 0.111832 -1.02211e-21)
(-0.0385992 0.0343915 -1.93889e-22)
(-0.0455989 0.0518601 -1.10069e-21)
(0.00453572 0.050638 0)
(0.119492 0.0433508 0)
(0.308878 0.0440574 0)
(0.552599 0.0630494 -1.40432e-22)
(0.809755 0.0854904 -9.42242e-22)
(1.01493 0.104655 -9.6388e-23)
(1.16638 0.121096 1.26548e-21)
(1.25394 0.116338 1.1498e-21)
(-0.0402627 0.0326615 0)
(-0.0403151 0.0462628 -1.2774e-21)
(0.0273957 0.0438307 0)
(0.173518 0.038986 0)
(0.402139 0.0489956 0)
(0.670572 0.0757964 1.39529e-22)
(0.919932 0.103102 -1.1515e-21)
(1.1016 0.119411 8.96062e-23)
(1.21898 0.133965 9.03708e-22)
(1.27061 0.11684 9.87701e-22)
(-0.0415279 0.0307015 0)
(-0.032417 0.0401745 1.2774e-21)
(0.0571592 0.0371323 -1.04142e-21)
(0.240126 0.0373025 0)
(0.505968 0.0585292 -1.37129e-21)
(0.785383 0.0916667 0)
(1.01506 0.120181 9.20947e-22)
(1.16795 0.133271 -7.35839e-22)
(1.25302 0.142415 -1.20933e-21)
(1.29468 0.12732 -9.82816e-22)
(-0.0422529 0.028496 1.62438e-21)
(-0.0213042 0.0336449 0)
(0.0952165 0.0311082 9.12326e-22)
(0.319439 0.0396016 1.06766e-22)
(0.614979 0.0721505 2.74249e-21)
(0.890729 0.108991 0)
(1.0933 0.136033 -8.99174e-22)
(1.21613 0.145225 -1.45984e-21)
(1.2772 0.15049 -1.01399e-21)
(1.30351 0.133309 -5.31333e-24)
(-0.0422642 0.0260167 -1.72529e-21)
(-0.0063005 0.0267381 8.28322e-23)
(0.142884 0.0266322 1.29774e-22)
(0.409758 0.0466829 -1.07339e-22)
(0.722956 0.0886362 -1.3712e-21)
(0.982852 0.126483 1.10543e-21)
(1.15504 0.150267 8.99169e-22)
(1.25027 0.15576 7.24005e-22)
(1.29111 0.156846 1.15767e-21)
(1.30645 0.139059 -1.02329e-21)
(-0.0413704 0.0232347 1.02244e-22)
(0.0133758 0.0195624 1.24498e-21)
(0.201067 0.0248911 0)
(0.507501 0.0584051 -7.46469e-22)
(0.824568 0.10665 -8.6966e-23)
(1.06038 0.143331 -1.10542e-21)
(1.20215 0.162941 1.07801e-22)
(1.27302 0.16483 6.06861e-22)
(1.29859 0.162498 0)
(1.30623 0.144063 9.1072e-22)
(-0.0393634 0.0201209 -1.05449e-22)
(0.0386115 0.0123549 -1.32889e-21)
(0.269796 0.0271191 0)
(0.607951 0.0738 1.00269e-22)
(0.916301 0.125156 -8.71913e-23)
(1.12362 0.159145 0)
(1.23685 0.174176 -8.6138e-22)
(1.28734 0.172795 -6.97094e-22)
(1.30132 0.167473 -1.33333e-22)
(1.30284 0.148612 -1.12159e-22)
(-0.0360046 0.0166461 0)
(0.0703329 0.00561048 -1.53123e-21)
(0.347881 0.0341056 1.37319e-22)
(0.706441 0.0916303 -5.23137e-24)
(0.996451 0.143499 -6.83851e-22)
(1.1738 0.173788 -1.21022e-21)
(1.26146 0.184192 9.71528e-22)
(1.29535 0.179876 0)
(1.30075 0.172047 0)
(1.29838 0.152957 0)
(-0.0309979 0.0127899 2.30179e-24)
(0.109349 0.000184421 1.2838e-21)
(0.432924 0.0458318 1.39017e-22)
(0.799287 0.11086 9.66796e-22)
(1.06466 0.16132 5.96216e-22)
(1.21258 0.187277 -1.18253e-22)
(1.27805 0.193208 8.38812e-22)
(1.2988 0.186326 -5.66557e-22)
(1.29803 0.176361 -6.36921e-22)
(1.29276 0.157164 5.11839e-22)
(-0.023963 0.00856381 7.9665e-22)
(0.156122 -0.00274259 8.96385e-23)
(0.521756 0.0615584 -1.11076e-21)
(0.88412 0.130784 -8.70949e-22)
(1.12139 0.178445 0)
(1.24169 0.199711 1.06642e-21)
(1.28842 0.201445 -1.59685e-23)
(1.29898 0.192335 7.29802e-22)
(1.2938 0.180536 4.45391e-22)
(1.28666 0.161322 -4.05695e-22)
(-0.0144311 0.00404864 -1.83351e-21)
(0.210535 -0.00191269 0)
(0.611066 0.0802619 2.23783e-21)
(0.959751 0.150972 7.65155e-22)
(1.16757 0.194812 8.78094e-23)
(1.26279 0.21123 0)
(1.29403 0.209102 -8.16129e-22)
(1.29682 0.19806 6.19058e-22)
(1.28859 0.184649 4.81308e-22)
(1.28012 0.165473 -3.79674e-22)
(-0.00187312 -0.000562576 9.27652e-22)
(0.271784 0.00362512 7.2361e-22)
(0.697932 0.101038 -1.26454e-21)
(1.02584 0.17119 1.13702e-22)
(1.20435 0.21043 0)
(1.27735 0.221989 0)
(1.29602 0.216351 0)
(1.29301 0.203616 -1.22082e-21)
(1.28266 0.188756 -4.81312e-22)
(1.27332 0.169633 3.79657e-22)
(0.0142293 -0.00492094 8.58607e-22)
(0.338456 0.0142217 -7.17852e-22)
(0.780081 0.123249 7.3672e-23)
(1.08257 0.191324 0)
(1.2329 0.225348 6.64257e-22)
(1.28663 0.232138 4.41295e-22)
(1.29529 0.223331 5.07035e-23)
(1.28799 0.209082 -5.33808e-23)
(1.27624 0.192886 1.15314e-22)
(1.26628 0.173811 -4.66323e-23)
(0.0342559 -0.00849504 -9.74567e-22)
(0.408766 0.029608 9.07998e-23)
(0.855937 0.146468 5.83552e-22)
(1.13043 0.211313 -1.62848e-22)
(1.25437 0.239635 -4.98262e-22)
(1.29167 0.241815 -6.271e-22)
(1.2925 0.230148 4.96097e-23)
(1.28208 0.214509 3.01249e-22)
(1.2694 0.197056 0)
(1.25902 0.178 -4.15765e-23)
(0.0583709 -0.0106217 -6.31286e-23)
(0.480815 0.0491171 0)
(0.924548 0.170401 6.1262e-24)
(1.17006 0.231102 0)
(1.26981 0.253367 6.47723e-22)
(1.29333 0.251141 -4.81293e-22)
(1.28813 0.236878 0)
(1.27547 0.219928 9.75815e-24)
(1.26222 0.201267 0)
(1.25153 0.182188 0)
(0.0865087 -0.0106092 -1.26175e-22)
(0.552795 0.0719848 8.24436e-22)
(0.985474 0.194829 -6.65138e-22)
(1.20214 0.250632 1.10124e-22)
(1.28015 0.266623 -2.95913e-22)
(1.29228 0.260212 -5.15262e-23)
(1.28251 0.243569 0)
(1.2683 0.225349 2.08704e-22)
(1.25472 0.205515 5.37521e-23)
(1.24382 0.186358 1.54207e-22)
(0.118367 -0.00785918 -5.31192e-22)
(0.623093 0.0975395 -3.32848e-22)
(1.03865 0.219594 -1.09559e-22)
(1.22741 0.269844 4.39807e-22)
(1.28618 0.279475 3.63765e-23)
(1.28904 0.269102 4.69436e-22)
(1.2759 0.250246 0)
(1.26063 0.230771 -2.51928e-22)
(1.24692 0.209784 4.68923e-23)
(1.23587 0.190489 -3.40045e-22)
(0.153445 -0.00197612 -5.31191e-22)
(0.690328 0.12525 3.45987e-22)
(1.08427 0.244572 -4.13525e-24)
(1.24653 0.28868 -5.12035e-22)
(1.28859 0.291982 -2.70715e-22)
(1.28402 0.277862 -2.65336e-23)
(1.26844 0.256916 2.21544e-23)
(1.2525 0.236181 2.81291e-22)
(1.2388 0.214058 -2.34465e-24)
(1.22765 0.194556 1.10648e-22)
(0.191095 0.00718386 -2.73549e-22)
(0.753358 0.154689 0)
(1.12269 0.269657 -2.98898e-22)
(1.26017 0.307089 0)
(1.28792 0.304188 -3.40962e-22)
(1.2775 0.286522 2.94288e-23)
(1.26024 0.26357 0)
(1.24392 0.241557 0)
(1.23036 0.218311 0)
(1.21917 0.198532 0)
(0.230576 0.0195378 2.39924e-22)
(0.811276 0.185477 1.16055e-22)
(1.15436 0.29474 2.989e-22)
(1.26893 0.325035 0)
(1.28462 0.316121 0)
(1.26972 0.295093 -1.22822e-23)
(1.25136 0.270188 4.72902e-23)
(1.23492 0.246873 5.42124e-23)
(1.2216 0.222519 5.02987e-23)
(1.21042 0.202385 -8.33708e-24)
(0.271099 0.0348546 -4.33928e-24)
(0.863444 0.217251 -1.08616e-22)
(1.17974 0.319705 4.97758e-24)
(1.27337 0.3425 5.89918e-24)
(1.27904 0.327796 -9.02254e-24)
(1.26081 0.303564 3.43537e-24)
(1.24185 0.276737 -4.12739e-23)
(1.22547 0.252098 -5.06654e-23)
(1.21249 0.226646 -3.80623e-23)
(1.20143 0.206082 1.54326e-24)
(0.311867 0.0528364 0)
(0.909532 0.249666 -1.09497e-22)
(1.19921 0.344429 -3.39146e-24)
(1.27396 0.359468 6.9074e-24)
(1.27149 0.339209 1.2393e-37)
(1.2509 0.311913 -8.72195e-38)
(1.23172 0.283181 -3.70905e-23)
(1.21557 0.257195 -4.43194e-23)
(1.20304 0.23065 -3.50296e-23)
(1.19221 0.209588 0)
(0.352097 0.073168 3.14347e-22)
(0.949445 0.282431 8.97817e-23)
(1.21316 0.3688 2.98098e-22)
(1.27112 0.375912 -1.34834e-23)
(1.26217 0.350341 0)
(1.24005 0.3201 1.0531e-23)
(1.22099 0.289474 2.43048e-23)
(1.20523 0.262128 4.76621e-23)
(1.19324 0.234483 2.71016e-23)
(1.18277 0.212881 6.66351e-24)
(0.391047 0.0955502 -2.80146e-22)
(0.983185 0.315287 0)
(1.22197 0.392693 -2.818e-22)
(1.26521 0.391795 0)
(1.25127 0.361157 -2.86188e-23)
(1.22831 0.328077 2.38297e-23)
(1.20966 0.295568 0)
(1.19442 0.266854 0)
(1.18309 0.238106 0)
(1.17304 0.215942 0)
(0.428034 0.119706 5.55378e-22)
(1.01084 0.347993 -3.56755e-22)
(1.22603 0.415985 -6.85886e-23)
(1.25651 0.407073 -2.81793e-22)
(1.23893 0.371609 -2.62091e-22)
(1.21572 0.335786 1.83347e-23)
(1.19773 0.301412 -1.53087e-23)
(1.18314 0.271327 1.28743e-22)
(1.17263 0.241488 2.13784e-24)
(1.16297 0.218745 9.57347e-23)
(0.462443 0.145369 -5.55379e-22)
(1.03255 0.380324 -4.3092e-22)
(1.22567 0.43855 9.56163e-23)
(1.24531 0.421695 3.37004e-22)
(1.22527 0.381637 -1.61389e-23)
(1.20231 0.343166 2.82635e-22)
(1.18519 0.306953 0)
(1.1714 0.275489 -1.46767e-22)
(1.16189 0.244621 -2.29456e-23)
(1.15252 0.2213 -1.21131e-22)
(0.493745 0.172268 1.32253e-22)
(1.0485 0.412063 7.36294e-22)
(1.2212 0.460258 -4.30221e-22)
(1.23183 0.435602 -8.16851e-23)
(1.21035 0.391173 -1.9654e-22)
(1.18809 0.350149 4.26521e-23)
(1.17205 0.312131 -2.55164e-23)
(1.15922 0.279277 1.42946e-22)
(1.15088 0.247486 -2.38234e-23)
(1.14177 0.223621 6.51119e-23)
(0.5215 0.200112 6.6958e-23)
(1.05889 0.442995 0)
(1.21294 0.480977 2.6718e-23)
(1.21628 0.448724 0)
(1.19425 0.400143 3.93115e-22)
(1.1731 0.356665 -2.56262e-22)
(1.15834 0.316887 0)
(1.14667 0.282649 -1.68626e-23)
(1.13951 0.250022 0)
(1.13084 0.225574 0)
(0.545363 0.228591 -1.02869e-21)
(1.06394 0.472904 -7.97318e-23)
(1.20115 0.500572 5.24867e-22)
(1.19881 0.460985 6.03436e-23)
(1.17702 0.408459 -4.07303e-22)
(1.1574 0.362638 -1.4438e-22)
(1.14411 0.32116 -1.98958e-23)
(1.13376 0.285576 8.32118e-23)
(1.12776 0.252188 -1.69914e-23)
(1.11973 0.227163 9.30679e-24)
(0.565081 0.257368 1.14513e-21)
(1.06388 0.501568 -6.90209e-22)
(1.18609 0.518907 -1.52213e-22)
(1.17956 0.4723 7.46582e-23)
(1.15875 0.416032 3.19648e-22)
(1.14104 0.367989 2.19742e-22)
(1.12937 0.324893 -1.69079e-23)
(1.12047 0.288028 -1.96962e-23)
(1.11567 0.253939 -2.35101e-23)
(1.10844 0.228338 8.47613e-24)
(0.580488 0.286091 9.49211e-22)
(1.05896 0.528764 6.69844e-22)
(1.16798 0.535831 -6.40505e-22)
(1.15871 0.482577 -6.77859e-23)
(1.13959 0.422788 0)
(1.12401 0.372635 0)
(1.11412 0.328028 0)
(1.10682 0.289961 -2.13276e-22)
(1.10327 0.255243 -5.08146e-23)
(1.097 0.229071 2.29506e-23)
(0.591502 0.314401 -1.84793e-21)
(1.04942 0.554271 0)
(1.14704 0.55118 1.36784e-21)
(1.13646 0.491717 3.59796e-22)
(1.11958 0.428648 0)
(1.1063 0.376502 0)
(1.0984 0.330501 -1.06469e-22)
(1.09284 0.291337 8.83309e-23)
(1.0906 0.256063 5.0815e-23)
(1.08543 0.22933 -2.29497e-23)
(0.598123 0.341932 9.96204e-22)
(1.03558 0.577889 -8.00169e-23)
(1.1235 0.564783 -6.45383e-22)
(1.11294 0.499604 -3.93823e-22)
(1.09872 0.433529 2.82423e-23)
(1.08798 0.379524 1.41132e-22)
(1.08226 0.332254 5.09628e-23)
(1.07856 0.292113 1.00259e-23)
(1.07769 0.256368 -5.36763e-24)
(1.07377 0.229087 2.18289e-23)
(0.60042 0.368319 -1.17306e-23)
(1.01774 0.599429 9.73894e-22)
(1.09764 0.576525 -8.52579e-23)
(1.08818 0.506073 2.08145e-22)
(1.07708 0.437355 9.95987e-23)
(1.06911 0.381633 -4.08457e-23)
(1.06574 0.33323 4.93732e-23)
(1.06402 0.29225 -1.38908e-23)
(1.06459 0.256122 -1.5167e-23)
(1.06203 0.228312 -1.54399e-23)
(0.598537 0.393196 0)
(0.996196 0.61866 -8.54573e-22)
(1.06972 0.586312 -7.36064e-23)
(1.06228 0.510997 -6.68705e-23)
(1.05475 0.440022 -1.01664e-22)
(1.04975 0.382765 -7.03269e-23)
(1.04891 0.333378 -5.49856e-23)
(1.04925 0.291713 0)
(1.05131 0.255291 0)
(1.05028 0.22697 0)
(0.592672 0.416238 8.322e-23)
(0.97104 0.635242 -6.91281e-22)
(1.04008 0.594093 0)
(1.03541 0.514299 -8.01225e-23)
(1.03182 0.441441 9.00141e-24)
(1.02996 0.382862 0)
(1.0318 0.332652 4.96358e-23)
(1.03429 0.290466 1.05534e-22)
(1.03789 0.253839 -2.18883e-23)
(1.03852 0.225017 1.83848e-23)
(0.583049 0.43723 -6.09733e-23)
(0.942504 0.648879 7.41334e-22)
(1.00899 0.599722 0)
(1.0077 0.51594 -1.01191e-22)
(1.00837 0.441527 2.15405e-24)
(1.00984 0.381864 1.48625e-22)
(1.0145 0.331011 1.74677e-23)
(1.0192 0.288479 -1.20155e-22)
(1.02437 0.251732 0)
(1.02683 0.222413 -2.23087e-22)
(0.569882 0.455944 -8.44996e-22)
(0.911065 0.659455 -4.10591e-23)
(0.97661 0.602994 -8.64954e-24)
(0.979291 0.51585 7.15469e-24)
(0.984491 0.440207 2.00929e-22)
(0.989455 0.379721 -1.48626e-22)
(0.997056 0.328418 -2.1267e-22)
(1.004 0.285719 -1.86226e-22)
(1.01077 0.248941 -3.17549e-22)
(1.01532 0.219151 1.95274e-22)
(0.553292 0.472027 8.9502e-22)
(0.877281 0.666952 0)
(0.943167 0.60378 -1.94219e-23)
(0.950341 0.513963 2.83971e-24)
(0.960302 0.43742 -5.07532e-22)
(0.968894 0.376385 0)
(0.979535 0.324842 2.12672e-22)
(0.988731 0.28215 -4.06251e-23)
(0.997221 0.245441 3.60662e-22)
(1.00428 0.215269 -3.62049e-23)
(0.5335 0.485064 0)
(0.841535 0.671219 1.06988e-22)
(0.908861 0.602017 1.5989e-23)
(0.920999 0.51021 0)
(0.935909 0.433115 3.06605e-22)
(0.948248 0.371818 0)
(0.961992 0.320256 -3.22722e-22)
(0.973443 0.277731 2.26854e-22)
(0.983879 0.241189 4.36827e-22)
(0.99401 0.210835 3.43755e-22)
(0.510987 0.494884 -2.7987e-23)
(0.804173 0.672117 -8.40157e-23)
(0.873925 0.597643 0)
(0.891424 0.50453 0)
(0.911431 0.427252 0)
(0.927607 0.365991 5.20912e-23)
(0.944489 0.314642 2.3584e-22)
(0.958228 0.272437 3.63182e-23)
(0.97094 0.236128 -4.36829e-22)
(0.984392 0.205798 -3.86006e-22)
(0.486172 0.501319 0)
(0.765539 0.669533 2.05639e-22)
(0.838596 0.590617 0)
(0.861776 0.496874 0)
(0.886989 0.419799 0)
(0.907065 0.35888 -6.09662e-23)
(0.927098 0.307985 5.32637e-22)
(0.943209 0.266271 -1.21655e-22)
(0.958484 0.230272 -4.19976e-22)
(0.974765 0.198662 -4.23404e-22)
(0.459465 0.504234 0)
(0.725992 0.663386 -2.0564e-22)
(0.803118 0.580911 4.49784e-22)
(0.832222 0.487204 0)
(0.862708 0.410736 7.32319e-22)
(0.886716 0.350471 0)
(0.909911 0.300269 -4.31923e-22)
(0.928498 0.259249 3.85775e-22)
(0.946262 0.224076 5.49709e-22)
(0.963854 0.193507 4.22058e-22)
(0.431277 0.503537 -3.86759e-22)
(0.685897 0.653631 0)
(0.767733 0.568515 -3.83702e-22)
(0.802931 0.4755 -5.46641e-23)
(0.838716 0.400053 -1.569e-21)
(0.866659 0.340755 0)
(0.893017 0.291483 5.38101e-22)
(0.914161 0.251292 3.76919e-23)
(0.934393 0.216823 5.82553e-22)
(0.95337 0.186902 2.41926e-24)
(0.402018 0.499176 4.24827e-22)
(0.645619 0.640249 -3.12474e-23)
(0.732685 0.553437 -7.85321e-23)
(0.774074 0.461755 -6.496e-23)
(0.815142 0.387752 8.36682e-22)
(0.846997 0.329737 -7.48235e-22)
(0.876501 0.281642 -5.38104e-22)
(0.900204 0.2425 -4.23471e-22)
(0.922717 0.208995 -6.58227e-22)
(0.942868 0.180073 6.10419e-22)
(0.372092 0.491136 -5.11348e-23)
(0.605519 0.623254 -7.9097e-22)
(0.698214 0.535704 0)
(0.745821 0.44598 5.67294e-22)
(0.792115 0.373844 6.24517e-23)
(0.827832 0.317425 7.48239e-22)
(0.860452 0.270748 -7.42677e-23)
(0.886696 0.232822 -4.3335e-22)
(0.911382 0.200382 0)
(0.932668 0.17255 -5.44591e-22)
(0.341897 0.479442 5.937e-23)
(0.565953 0.602689 8.32948e-22)
(0.664555 0.515361 0)
(0.718345 0.428201 -1.35788e-23)
(0.769765 0.358355 6.92436e-23)
(0.809267 0.303842 0)
(0.844946 0.258828 6.86951e-22)
(0.873673 0.222312 4.95515e-22)
(0.900406 0.191119 9.42653e-23)
(0.92282 0.164489 -7.91802e-23)
(0.311819 0.464158 0)
(0.527271 0.578628 1.26595e-21)
(0.631939 0.49247 -1.12066e-22)
(0.691811 0.408458 6.72969e-23)
(0.748221 0.341321 6.14169e-22)
(0.791405 0.289018 1.06161e-21)
(0.830064 0.245903 -7.79514e-22)
(0.861196 0.210976 0)
(0.889859 0.181184 0)
(0.913405 0.155849 0)
(0.282231 0.445379 2.42471e-24)
(0.489808 0.551169 -1.05035e-21)
(0.600588 0.467114 1.25607e-22)
(0.666385 0.386809 -8.78583e-22)
(0.727607 0.322788 -5.32072e-22)
(0.774345 0.272993 1.79957e-22)
(0.815881 0.232011 -7.84411e-22)
(0.849318 0.198854 5.17243e-22)
(0.879795 0.170616 5.56971e-22)
(0.90448 0.146663 -4.33735e-22)
(0.253493 0.423245 -7.40755e-22)
(0.453884 0.520435 -8.24477e-23)
(0.570716 0.43939 1.15772e-21)
(0.642225 0.363327 9.04922e-22)
(0.708046 0.302815 0)
(0.758182 0.255815 -1.01252e-21)
(0.802471 0.21719 -4.09936e-23)
(0.838097 0.185976 -6.65715e-22)
(0.870266 0.159437 -3.9054e-22)
(0.896091 0.136953 3.45126e-22)
(0.225944 0.397936 1.77624e-21)
(0.419796 0.486567 0)
(0.54253 0.409412 -2.39996e-21)
(0.619482 0.338097 -7.92025e-22)
(0.689657 0.281472 -9.37167e-23)
(0.743008 0.23754 0)
(0.789903 0.201488 8.17302e-22)
(0.827588 0.172384 -6.49284e-22)
(0.861325 0.147677 -4.9231e-22)
(0.888276 0.126748 3.75421e-22)
(0.199898 0.369673 -9.35049e-22)
(0.387822 0.449722 -8.23722e-22)
(0.516228 0.377308 1.39751e-21)
(0.598302 0.31122 -1.28441e-22)
(0.67255 0.258838 0)
(0.728912 0.218236 0)
(0.778245 0.184958 0)
(0.817842 0.158121 1.3236e-21)
(0.853021 0.13537 4.92312e-22)
(0.88107 0.116083 -3.7542e-22)
(0.175626 0.338678 -9.71478e-22)
(0.358228 0.41011 8.20643e-22)
(0.492003 0.34322 8.63972e-23)
(0.578821 0.282812 0)
(0.656832 0.235005 -8.08885e-22)
(0.715975 0.197975 -5.39061e-22)
(0.76756 0.16766 -5.98317e-23)
(0.808909 0.143236 1.04595e-22)
(0.845398 0.122555 -1.30644e-22)
(0.874504 0.104996 5.20934e-23)
(0.153366 0.305154 1.10298e-21)
(0.331269 0.367987 -1.10691e-22)
(0.47003 0.307312 -9.05558e-22)
(0.561168 0.252998 2.01314e-22)
(0.642601 0.21007 6.02239e-22)
(0.704273 0.176838 7.66891e-22)
(0.757905 0.149659 -6.19325e-23)
(0.800838 0.127782 -3.38338e-22)
(0.838501 0.109275 0)
(0.868605 0.0935285 4.8898e-23)
(0.133342 0.269329 7.56284e-23)
(0.307172 0.323615 0)
(0.450461 0.269766 -2.84895e-23)
(0.545457 0.221918 0)
(0.629946 0.184142 -8.64789e-22)
(0.693875 0.154911 6.49393e-22)
(0.749335 0.131026 0)
(0.79367 0.111814 8.97237e-24)
(0.83237 0.095575 0)
(0.863396 0.0817239 0)
(0.115766 0.231462 1.56832e-22)
(0.286137 0.277264 -1.06906e-21)
(0.433432 0.230773 8.49347e-22)
(0.531793 0.189721 -1.45918e-22)
(0.618945 0.157338 3.74415e-22)
(0.684843 0.132288 1.02508e-22)
(0.741895 0.111835 0)
(0.787447 0.0953932 -2.79181e-22)
(0.82704 0.0815059 -7.42798e-23)
(0.858898 0.0696287 -2.14511e-22)
(0.100824 0.191835 6.70801e-22)
(0.268338 0.229215 -1.58557e-21)
(0.419059 0.19054 1.46061e-22)
(0.520265 0.156563 -6.09857e-22)
(0.60967 0.12978 -6.84435e-23)
(0.677231 0.109068 -6.64898e-22)
(0.735629 0.092165 0)
(0.782202 0.0785851 3.81765e-22)
(0.822545 0.0671204 -6.80957e-23)
(0.855125 0.0572896 4.89508e-22)
(0.0886745 0.150746 -6.70801e-22)
(0.25392 0.179759 5.81638e-22)
(0.407441 0.149278 -1.0093e-22)
(0.510949 0.122608 7.1541e-22)
(0.602177 0.101597 3.9258e-22)
(0.671085 0.0853512 4.06544e-23)
(0.730571 0.0720995 -3.39443e-23)
(0.777968 0.0614569 -4.2753e-22)
(0.818913 0.0524747 3.86218e-24)
(0.852092 0.0447534 -1.62611e-22)
(0.079448 0.108507 3.50995e-22)
(0.243002 0.129196 0)
(0.398658 0.107209 4.14563e-22)
(0.503908 0.0880285 0)
(0.596515 0.0729235 5.51e-23)
(0.666443 0.0612456 -4.58793e-23)
(0.726752 0.0517233 0)
(0.774768 0.044078 0)
(0.816167 0.0376265 0)
(0.849808 0.032068 0)
(0.0732421 0.0654377 -3.07483e-22)
(0.235674 0.0778379 -1.18357e-22)
(0.392769 0.0645589 -4.14563e-22)
(0.499188 0.0529982 0)
(0.592721 0.0438962 0)
(0.663332 0.03686 2.07437e-23)
(0.724193 0.0311237 -8.27474e-23)
(0.772625 0.0265191 -9.81184e-23)
(0.814325 0.0226337 -9.14476e-23)
(0.848282 0.0192801 1.47527e-23)
(0.0701227 0.0218683 -5.56648e-24)
(0.231995 0.0259994 1.27679e-22)
(0.389814 0.0215586 -5.70971e-24)
(0.49682 0.0176963 1.96948e-23)
(0.590818 0.0146558 -7.75905e-24)
(0.661772 0.0123055 0)
(0.72291 0.0103896 6.54275e-23)
(0.771549 0.00885177 9.81184e-23)
(0.8134 0.00755417 6.94773e-23)
(0.847517 0.00643308 1.03676e-23)
(0.0701227 -0.0218683 -5.56648e-24)
(0.231995 -0.0259994 1.27679e-22)
(0.389814 -0.0215586 -5.70971e-24)
(0.49682 -0.0176963 1.96948e-23)
(0.590818 -0.0146558 -7.75905e-24)
(0.661772 -0.0123055 0)
(0.72291 -0.0103896 5.76366e-23)
(0.771549 -0.00885177 1.04639e-22)
(0.8134 -0.00755417 7.38835e-23)
(0.847517 -0.00643308 0)
(0.0732421 -0.0654377 -3.94507e-22)
(0.235674 -0.0778379 -1.53508e-22)
(0.392769 -0.0645589 -4.3945e-22)
(0.499188 -0.0529982 2.05863e-23)
(0.592721 -0.0438962 0)
(0.663332 -0.03686 -2.07437e-23)
(0.724193 -0.0311237 -4.81076e-23)
(0.772625 -0.0265191 -9.81184e-23)
(0.814325 -0.0226337 -5.63193e-23)
(0.848282 -0.0192801 -1.47527e-23)
(0.079448 -0.108507 3.50995e-22)
(0.243002 -0.129196 0)
(0.398658 -0.107209 4.14563e-22)
(0.503908 -0.0880285 0)
(0.596515 -0.0729235 5.51e-23)
(0.666443 -0.0612456 -4.58793e-23)
(0.726752 -0.0517233 0)
(0.774768 -0.044078 0)
(0.816167 -0.0376265 0)
(0.849808 -0.032068 0)
(0.0886745 -0.150746 -6.70801e-22)
(0.25392 -0.179759 4.54295e-22)
(0.407441 -0.149278 1.0093e-22)
(0.510949 -0.122608 4.89891e-22)
(0.602177 -0.101597 5.13216e-22)
(0.671085 -0.0853512 -4.06544e-23)
(0.730571 -0.0720995 3.39443e-23)
(0.777968 -0.0614569 -3.36001e-22)
(0.818913 -0.0524747 -3.86218e-24)
(0.852092 -0.0447534 -2.7299e-22)
(0.100824 -0.191835 6.70801e-22)
(0.268338 -0.229215 5.49639e-22)
(0.419059 -0.19054 -1.46061e-22)
(0.520265 -0.156563 -5.95443e-22)
(0.60967 -0.12978 4.98809e-23)
(0.677231 -0.109068 -6.64898e-22)
(0.735629 -0.092165 0)
(0.782202 -0.0785851 3.81765e-22)
(0.822545 -0.0671204 6.80957e-23)
(0.855125 -0.0572896 3.75116e-22)
(0.115766 -0.231462 -1.56832e-22)
(0.286137 -0.277264 1.06906e-21)
(0.433432 -0.230773 6.647e-22)
(0.531793 -0.189721 1.45918e-22)
(0.618945 -0.157338 4.67937e-22)
(0.684843 -0.132288 -1.49857e-22)
(0.741895 -0.111835 6.54199e-23)
(0.787447 -0.0953932 -4.56286e-22)
(0.82704 -0.0815059 7.42798e-23)
(0.858898 -0.0696287 -2.14511e-22)
(0.133342 -0.269329 -7.56284e-23)
(0.307172 -0.323615 0)
(0.450461 -0.269766 -2.84895e-23)
(0.545457 -0.221918 0)
(0.629946 -0.184142 -8.64789e-22)
(0.693875 -0.154911 6.49393e-22)
(0.749335 -0.131026 0)
(0.79367 -0.111814 8.97237e-24)
(0.83237 -0.095575 0)
(0.863396 -0.0817239 0)
(0.153366 -0.305154 1.10298e-21)
(0.331269 -0.367987 1.10691e-22)
(0.47003 -0.307312 -6.37331e-22)
(0.561168 -0.252998 -1.30319e-22)
(0.642601 -0.21007 1.01554e-21)
(0.704273 -0.176838 4.54552e-22)
(0.757905 -0.149659 6.19325e-23)
(0.800838 -0.127782 -4.22684e-22)
(0.838501 -0.109275 7.0751e-23)
(0.868605 -0.0935285 -4.8898e-23)
(0.175626 -0.338678 -1.23448e-21)
(0.358228 -0.41011 8.26805e-22)
(0.492003 -0.34322 7.74652e-23)
(0.578821 -0.282812 -1.35544e-22)
(0.656832 -0.235005 -8.08885e-22)
(0.715975 -0.197975 -6.82379e-22)
(0.76756 -0.16766 5.98317e-23)
(0.808909 -0.143236 -5.90257e-23)
(0.845398 -0.122555 1.30644e-22)
(0.874504 -0.104996 -5.20934e-23)
(0.199898 -0.369673 -9.35049e-22)
(0.387822 -0.449722 -8.23722e-22)
(0.516228 -0.377308 1.08696e-21)
(0.598302 -0.31122 1.28441e-22)
(0.67255 -0.258838 0)
(0.728912 -0.218236 0)
(0.778245 -0.184958 0)
(0.817842 -0.158121 1.3236e-21)
(0.853021 -0.13537 4.92312e-22)
(0.88107 -0.116083 -3.7542e-22)
(0.225944 -0.397936 1.77624e-21)
(0.419796 -0.486567 0)
(0.54253 -0.409412 -2.39996e-21)
(0.619482 -0.338097 -9.04926e-22)
(0.689657 -0.281472 0)
(0.743008 -0.23754 0)
(0.789903 -0.201488 8.17302e-22)
(0.827588 -0.172384 -6.49284e-22)
(0.861325 -0.147677 -4.9231e-22)
(0.888276 -0.126748 3.75421e-22)
(0.253493 -0.423245 -9.41635e-22)
(0.453884 -0.520435 8.24477e-23)
(0.570716 -0.43939 1.15772e-21)
(0.642225 -0.363327 1.01104e-21)
(0.708046 -0.302815 -8.80821e-23)
(0.758182 -0.255815 -1.01252e-21)
(0.802471 -0.21719 -4.09936e-23)
(0.838097 -0.185976 -5.20411e-22)
(0.870266 -0.159437 -5.12424e-22)
(0.896091 -0.136953 3.45126e-22)
(0.282231 -0.445379 -2.42471e-24)
(0.489808 -0.551169 -1.20952e-21)
(0.600588 -0.467114 -1.25607e-22)
(0.666385 -0.386809 -6.80772e-22)
(0.727607 -0.322788 -5.42584e-22)
(0.774345 -0.272993 -1.84416e-22)
(0.815881 -0.232011 -7.68192e-22)
(0.849318 -0.198854 6.68879e-22)
(0.879795 -0.170616 3.45989e-22)
(0.90448 -0.146663 -2.56518e-22)
(0.311819 -0.464158 0)
(0.527271 -0.578628 9.9391e-22)
(0.631939 -0.49247 1.12066e-22)
(0.691811 -0.408458 6.72969e-23)
(0.748221 -0.341321 6.14169e-22)
(0.791405 -0.289018 8.39896e-22)
(0.830064 -0.245903 -6.79787e-22)
(0.861196 -0.210976 7.14722e-23)
(0.889859 -0.181184 0)
(0.913405 -0.155849 0)
(0.341897 -0.479442 -5.937e-23)
(0.565953 -0.602689 8.32948e-22)
(0.664555 -0.515361 0)
(0.718345 -0.428201 1.53257e-22)
(0.769765 -0.358355 -6.92436e-23)
(0.809267 -0.303842 0)
(0.844946 -0.258828 6.86951e-22)
(0.873673 -0.222312 4.95515e-22)
(0.900406 -0.191119 -9.42653e-23)
(0.92282 -0.164489 7.91802e-23)
(0.372092 -0.491136 5.11348e-23)
(0.605519 -0.623254 -8.74919e-22)