/*--------------------------------*- C++ -*----------------------------------*\
  =========                 |
  \\      /  F ield         | OpenFOAM: The Open Source CFD Toolbox
   \\    /   O peration     | Website:  https://openfoam.org
    \\  /    A nd           | Version:  9
     \\/     M anipulation  |
\*---------------------------------------------------------------------------*/
FoamFile
{
    format      ascii;
    class       volVectorField;
    location    "2.8";
    object      U;
}
// * * * * * * * * * * * * * * * * * * * * * * * * * * * * * * * * * * * * * //

dimensions      [0 1 -1 0 0 0 0];

internalField   nonuniform List<vector> 
252
(
(3 9.79885e-15 0)
(3 1.74472e-14 0)
(2.591 0.0310491 0)
(0.809086 0.0618418 0)
(0.476205 0.0734584 0)
(0.278488 0.161739 0)
(3 -1.75668e-15 0)
(3 5.06354e-15 0)
(2.75447 0.130227 0)
(0.893803 0.284548 0)
(0.44022 0.327261 0)
(0.307732 0.574919 0)
(3 -4.69089e-15 0)
(3 -9.98292e-15 0)
(3.02725 0.0343335 0)
(1.19958 0.486557 0)
(0.698406 0.57632 0)
(0.771827 0.898418 0)
(3 7.66782e-15 0)
(3 -3.04466e-15 0)
(3.0058 0.000317982 0)
(1.77683 0.596375 0)
(0.970827 0.757938 0)
(1.05649 0.809587 0)
(3 -3.75364e-15 0)
(3 1.21717e-15 0)
(3.00005 8.49397e-07 0)
(2.87369 0.306971 0)
(1.38038 0.836643 0)
(1.28094 0.827501 0)
(3 1.40083e-14 0)
(3 1.26321e-14 0)
(3 -1.86491e-06 0)
(3.04795 0.0159732 0)
(2.11422 0.687054 0)
(1.41505 0.87702 0)
(3 4.55801e-15 0)
(3 -2.1932e-14 0)
(3 -3.75541e-07 0)
(3.00104 0.000608059 0)
(2.98691 0.195113 0)
(1.74863 0.857907 0)
(3 -1.83536e-15 0)
(3 -1.32518e-15 0)
(3 -3.61624e-08 0)
(3 1.04017e-06 0)
(3.01461 0.0108144 0)
(2.52188 0.518966 0)
(3 4.49909e-15 0)
(3 4.25702e-14 0)
(3 -1.32049e-09 0)
(3 -1.07355e-09 0)
(3.00009 0.000156098 0)
(2.97052 0.0898455 0)
(3 -1.10334e-15 0)
(3 1.03149e-14 0)
(3 -8.91622e-12 0)
(3 -2.47346e-10 0)
(3 1.46204e-07 0)
(2.99923 0.00350286 0)
(1.65293 0.930342 0)
(2.13736 0.822285 0)
(2.37804 0.652878 0)
(2.38634 0.326698 0)
(2.44062 0.130356 0)
(2.44636 -0.0271151 0)
(2.4276 -0.0796474 0)
(2.37023 -0.0983318 0)
(2.17433 -0.178311 0)
(1.34455 -0.247235 0)
(1.22035 -0.164151 0)
(1.3559 -0.109432 0)
(1.51704 -0.0795264 0)
(1.68103 -0.0295941 0)
(1.778 0.000324874 0)
(1.85913 0.00768678 0)
(1.93209 0.0139207 0)
(2.00411 0.0212109 0)
(2.07112 0.0269452 0)
(2.13113 0.031104 0)
(2.18175 0.0335036 0)
(2.22593 0.0324492 0)
(2.26181 0.0324647 0)
(2.32577 0.0345141 0)
(1.67303 0.700966 0)
(2.07 0.4118 0)
(2.28719 0.162263 0)
(2.39773 -0.0971596 0)
(2.45978 -0.180201 0)
(2.50341 -0.224152 0)
(2.4766 -0.268124 0)
(2.38846 -0.352692 0)
(1.99817 -0.686247 0)
(1.80758 -0.578545 0)
(1.59337 -0.251549 0)
(1.52735 -0.0647094 0)
(1.62175 -0.000116214 0)
(1.73818 0.0457643 0)
(1.81427 0.0722064 0)
(1.87595 0.0736755 0)
(1.94711 0.0773122 0)
(2.02025 0.0964032 0)
(2.08151 0.106061 0)
(2.14022 0.105468 0)
(2.19547 0.105451 0)
(2.24547 0.101563 0)
(2.28498 0.0916365 0)
(2.353 0.0895231 0)
(1.67468 0.717386 0)
(1.98882 0.546108 0)
(2.16611 0.404938 0)
(2.31662 0.204012 0)
(2.40114 0.177678 0)
(2.44272 0.0241799 0)
(2.34511 -0.153796 0)
(2.13945 -0.513229 0)
(1.90957 -0.779118 0)
(2.00129 -0.802636 0)
(1.98451 -0.635092 0)
(1.90479 -0.340322 0)
(1.86759 -0.109835 0)
(1.87814 0.00804182 0)
(1.91447 0.0826845 0)
(1.9681 0.121545 0)
(2.02995 0.122486 0)
(2.08713 0.1264 0)
(2.13706 0.127862 0)
(2.18927 0.125604 0)
(2.24208 0.129195 0)
(2.29121 0.130066 0)
(2.32879 0.127718 0)
(2.39324 0.135914 0)
(1.66201 0.815251 0)
(1.91161 0.693685 0)
(2.09373 0.559919 0)
(2.27943 0.412138 0)
(2.37176 0.310066 0)
(2.27712 0.0108273 0)
(2.10395 -0.397997 0)
(1.99589 -0.650982 0)
(2.02693 -0.699487 0)
(2.12454 -0.724268 0)
(2.21663 -0.707042 0)
(2.23089 -0.598078 0)
(2.2186 -0.404569 0)
(2.15666 -0.179611 0)
(2.11442 -0.00786831 0)
(2.11591 0.101729 0)
(2.13424 0.162872 0)
(2.1482 0.195141 0)
(2.19092 0.227583 0)
(2.24402 0.230795 0)
(2.28818 0.22709 0)
(2.32788 0.227862 0)
(2.36474 0.225594 0)
(2.42137 0.230535 0)
(1.69623 0.863149 0)
(1.86169 0.784604 0)
(2.08953 0.650841 0)
(2.22318 0.584773 0)
(2.16026 0.254275 0)
(2.02982 -0.184114 0)
(1.96241 -0.524611 0)
(1.98482 -0.589863 0)
(2.0922 -0.597151 0)
(2.20093 -0.605783 0)
(2.29549 -0.579328 0)
(2.35175 -0.558908 0)
(2.39024 -0.512947 0)
(2.3908 -0.392115 0)
(2.38246 -0.246636 0)
(2.32513 -0.0657558 0)
(2.29592 0.0875075 0)
(2.28303 0.188616 0)
(2.27266 0.233285 0)
(2.30039 0.284642 0)
(2.33393 0.307017 0)
(2.38014 0.321118 0)
(2.42096 0.319015 0)
(2.472 0.30098 0)
(1.85698 0.867288 0)
(1.86156 0.878334 0)
(1.99328 0.836059 0)
(1.96947 0.478236 0)
(1.87766 0.0318892 0)
(1.87665 -0.227388 0)
(1.91585 -0.324743 0)
(2.01925 -0.370659 0)
(2.13447 -0.390996 0)
(2.23332 -0.408507 0)
(2.3201 -0.404402 0)
(2.38848 -0.430705 0)
(2.44574 -0.403353 0)
(2.46967 -0.380004 0)
(2.52352 -0.34447 0)
(2.51083 -0.234198 0)
(2.51523 -0.104332 0)
(2.47698 0.0614258 0)
(2.41762 0.202081 0)
(2.4055 0.306323 0)
(2.40624 0.377682 0)
(2.4168 0.404685 0)
(2.43838 0.426903 0)
(2.48402 0.398485 0)
(2.42936 0.589476 0)
(2.09756 0.94569 0)
(1.86237 0.635457 0)
(1.49105 0.0447681 0)
(1.62692 -0.215505 0)
(1.74218 -0.262894 0)
(1.9001 -0.257194 0)
(2.04158 -0.237968 0)
(2.15965 -0.229449 0)
(2.25665 -0.234337 0)
(2.33786 -0.231642 0)
(2.4078 -0.243013 0)
(2.47644 -0.247445 0)
(2.52789 -0.241382 0)
(2.56383 -0.260315 0)
(2.6115 -0.219933 0)
(2.65999 -0.181501 0)
(2.64869 -0.0884706 0)
(2.63328 0.0570065 0)
(2.63302 0.181219 0)
(2.56463 0.339459 0)
(2.55125 0.410049 0)
(2.53925 0.440186 0)
(2.51989 0.399005 0)
(2.88067 0.118724 0)
(2.34951 0.538008 0)
(1.70101 0.486154 0)
(1.34858 0.256398 0)
(1.61014 0.0648367 0)
(1.81261 -0.0417933 0)
(1.98628 -0.0765742 0)
(2.12288 -0.0852879 0)
(2.23283 -0.0874032 0)
(2.32399 -0.0896497 0)
(2.40167 -0.0881284 0)
(2.47488 -0.0929775 0)
(2.53753 -0.0934587 0)
(2.59774 -0.0940523 0)
(2.6541 -0.107956 0)
(2.69855 -0.0975135 0)
(2.7308 -0.104794 0)
(2.74793 -0.101053 0)
(2.77093 -0.0542961 0)
(2.76089 -0.0109299 0)
(2.71099 0.0753002 0)
(2.65229 0.156745 0)
(2.58697 0.239292 0)
(2.55666 0.231429 0)
)
;

boundaryField
{
    inlet
    {
        type            fixedValue;
        value           uniform (3 0 0);
    }
    outlet
    {
        type            inletOutlet;
        inletValue      uniform (3 0 0);
        value           nonuniform List<vector> 8((2.32577 0.0345141 0) (2.353 0.0895231 0) (2.39324 0.135914 0) (2.42137 0.230535 0) (2.472 0.30098 0) (2.48402 0.398485 0) (2.51989 0.399005 0) (2.55666 0.231429 0));
    }
    bottom
    {
        type            symmetryPlane;
    }
    top
    {
        type            symmetryPlane;
    }
    obstacle
    {
        type            slip;
    }
    defaultFaces
    {
        type            empty;
    }
}


// ************************************************************************* //
