/*--------------------------------*- C++ -*----------------------------------*\
  =========                 |
  \\      /  F ield         | OpenFOAM: The Open Source CFD Toolbox
   \\    /   O peration     | Website:  https://openfoam.org
    \\  /    A nd           | Version:  9
     \\/     M anipulation  |
\*---------------------------------------------------------------------------*/
FoamFile
{
    format      ascii;
    class       surfaceScalarField;
    location    "32.1";
    object      phi;
}
// * * * * * * * * * * * * * * * * * * * * * * * * * * * * * * * * * * * * * //

dimensions      [0 3 -1 0 0 0 0];

internalField   nonuniform List<scalar> 
16735
(
-0.00299407
0.00299409
-1.97424e-08
-0.00899106
0.00599704
-4.5894e-08
-0.0168695
0.00787849
-6.64776e-08
-0.0259049
0.00903554
-8.46995e-08
-0.0359906
0.0100858
-1.06801e-07
-0.0465482
0.0105577
-1.32836e-07
-0.0586724
0.0121244
-1.67096e-07
-0.069672
0.0109998
-2.00502e-07
-0.0844733
0.0148015
-2.34711e-07
0.0111672
-2.58409e-07
-0.0956402
-0.00294265
0.00593674
-0.00884389
0.0118983
-0.0165853
0.0156199
-0.0254335
0.0178837
-0.0352684
0.0199207
-0.0454798
0.0207691
-0.0571565
0.0238011
-0.0675077
0.021351
-0.0815874
0.0288813
0.0210707
-0.091491
-0.00284203
0.00877876
-0.00855464
0.0176109
-0.0160251
0.0230903
-0.024502
0.0263607
-0.0338366
0.0292552
-0.043362
0.0302946
-0.0541353
0.0345743
-0.0632014
0.0304171
-0.0758509
0.0415308
0.0284991
-0.0832793
-0.0026965
0.0114753
-0.00813335
0.0230477
-0.0152049
0.0301619
-0.0231331
0.0342888
-0.0317202
0.0378423
-0.0402322
0.0388066
-0.0496277
0.0439698
-0.0567892
0.0375786
-0.0673117
0.0520533
0.0323352
-0.0711478
-0.00251233
0.0139876
-0.00759452
0.0281299
-0.0141481
0.0367155
-0.0213593
0.0415
-0.0289561
0.0454392
-0.0361444
0.0459949
-0.0436589
0.0514843
-0.0483075
0.0422272
-0.055985
0.0597308
0.0315841
-0.0552339
-0.0022974
0.016285
-0.00695655
0.0327891
-0.012883
0.042642
-0.0192221
0.0478391
-0.0255911
0.0518081
-0.0311676
0.0515714
-0.0362577
0.0565744
-0.0377865
0.043756
-0.0417859
0.0637302
0.0253658
-0.0355676
-0.00206089
0.0183459
-0.00624091
0.0369691
-0.0114431
0.0478442
-0.0167692
0.0531652
-0.0216788
0.0567177
-0.0253809
0.0552735
-0.0274516
0.0586451
-0.0252626
0.041567
-0.0244479
0.0629154
0.0129129
-0.011995
-0.00181286
0.0201587
-0.00547109
0.0406273
-0.00986523
0.0522383
-0.014051
0.0573509
-0.0172742
0.0599409
-0.0188628
0.0568621
-0.0172525
0.0570348
-0.0108364
0.0351509
-0.00335067
0.0554297
-0.00710359
0.0166658
-0.00156371
0.0217225
-0.00467127
0.0437349
-0.008187
0.0557541
-0.0111152
0.0602791
-0.0124235
0.0612492
-0.0116734
0.056112
-0.00558578
0.0509472
0.00560053
0.0239646
0.0208112
0.0402191
-0.0377758
0.0514834
-0.00132354
0.023046
-0.00386469
0.046276
-0.00644394
0.0583333
-0.00800105
0.0618362
-0.00714999
0.0603982
-0.00384835
0.0528103
0.00726849
0.0398304
0.0244707
0.00676241
0.0493057
0.0153841
-0.0815527
0.0930825
-0.00110156
0.0241476
-0.00307186
0.0482463
-0.00466602
0.0599275
-0.00473345
0.0619037
-0.00140725
0.057072
0.00495255
0.0464505
0.0215709
0.023212
0.0452606
-0.0169273
0.0823584
-0.0217137
-0.140989
0.141794
-0.000905326
0.0250529
-0.00230842
0.0496494
-0.00287288
0.0604919
-0.00132697
0.0603577
0.00463001
0.051115
0.0149361
0.0361444
0.0379385
0.000209651
0.0688516
-0.0478404
0.120221
-0.0730834
-0.217271
0.196503
-0.000740101
0.025793
-0.00158292
0.0504922
-0.00106454
0.0599736
0.0023238
0.0569694
0.011241
0.0421978
0.0263159
0.0210695
0.0567024
-0.0301768
0.0966024
-0.0877404
0.163224
-0.139705
-0.308393
0.254347
-0.000608352
0.0264013
-0.000895217
0.0507791
0.000762193
0.0583161
0.00624275
0.0514888
0.0186205
0.02982
0.0396506
3.9451e-05
0.0782215
-0.0687477
0.129574
-0.139093
0.210948
-0.221078
-0.408614
0.311168
-0.000510413
0.0269117
-0.00023261
0.0505013
0.00264625
0.0554373
0.0105194
0.0436157
0.027004
0.0133354
0.0554501
-0.0284066
0.102863
-0.11616
0.167372
-0.203602
0.260913
-0.31462
-0.510188
0.362487
-0.000437101
0.0273488
0.000423636
0.0496406
0.00468553
0.0511754
0.0153483
0.0329529
0.0367314
-0.00804772
0.0740188
-0.065694
0.13084
-0.172981
0.207889
-0.280651
0.308485
-0.415216
-0.606265
0.404563
-0.000377459
0.0277263
0.00111469
0.0481484
0.0069829
0.0453072
0.0209888
0.018947
0.0482544
-0.0353134
0.0953385
-0.112778
0.161628
-0.239271
0.247921
-0.366944
0.348734
-0.516029
-0.692722
0.435191
-0.000319093
0.0280454
0.00189224
0.0459371
0.00967451
0.0375249
0.0277481
0.000873443
0.0620119
-0.0695772
0.119025
-0.169791
0.193498
-0.313744
0.283939
-0.457386
0.378527
-0.610617
-0.768169
0.453974
-0.000245145
0.0282905
0.00281617
0.0428758
0.0129206
0.0274205
0.0359342
-0.0221402
0.0781917
-0.111835
0.144169
-0.235768
0.223881
-0.393456
0.313007
-0.546512
0.397166
-0.694776
-0.833155
0.462152
-0.000135345
0.0284259
0.00395294
0.0387875
0.0168978
0.0144756
0.0457852
-0.0510276
0.0964853
-0.162535
0.169238
-0.308521
0.250297
-0.474515
0.333589
-0.629803
0.405717
-0.766905
-0.889769
0.462332
3.1665e-05
0.0283942
0.00537298
0.0334462
0.0217865
-0.00193791
0.0573711
-0.0866122
0.116006
-0.22117
0.19237
-0.384885
0.271041
-0.553186
0.345663
-0.704425
0.407195
-0.828437
-0.945675
0.463101
0.000249819
0.0281444
0.0071508
0.0265452
0.0277446
-0.0225317
0.070484
-0.129352
0.135439
-0.286125
0.211943
-0.461388
0.285393
-0.626636
0.350369
-0.769401
0.405196
-0.883265
-0.99418
0.453701
0.00055716
0.0275872
0.00936405
0.0177383
0.0348567
-0.0480244
0.0845807
-0.179076
0.153365
-0.354909
0.226984
-0.535008
0.293534
-0.693185
0.349901
-0.825769
0.397507
-0.93087
-1.03538
0.438707
0.000964004
0.0266232
0.01209
0.00661232
0.0430662
-0.0790006
0.0988394
-0.234849
0.168617
-0.424687
0.237216
-0.603606
0.296331
-0.752301
0.344938
-0.874376
0.386433
-0.972365
-1.07227
0.423325
0.00148172
0.0251415
0.0153953
-0.00730128
0.0521333
-0.115739
0.112324
-0.29504
0.180499
-0.492861
0.242897
-0.666004
0.294675
-0.804079
0.336655
-0.916355
0.373132
-1.00884
-1.10516
0.406023
0.00212427
0.0230172
0.01931
-0.024487
0.0616523
-0.158081
0.124189
-0.357576
0.188785
-0.557458
0.244533
-0.721752
0.289512
-0.849058
0.325889
-0.952732
0.358132
-1.04109
-1.13497
0.387939
0.00291319
0.0201041
0.0237956
-0.0453693
0.0711124
-0.205398
0.133839
-0.420303
0.193597
-0.617216
0.242748
-0.770903
0.281641
-0.887952
0.313309
-0.9844
0.342055
-1.06983
-1.16209
0.369174
0.00388135
0.0162227
0.028733
-0.070221
0.0799665
-0.256631
0.140987
-0.481324
0.195251
-0.67148
0.23816
-0.813812
0.271726
-0.921517
0.299435
-1.01211
0.325177
-1.09557
-1.18681
0.349894
0.00506895
0.0111538
0.0339375
-0.0990896
0.0877156
-0.310409
0.145609
-0.539217
0.194157
-0.720027
0.231337
-0.850993
0.260291
-0.950471
0.284634
-1.03645
0.307748
-1.11869
-1.20931
0.330252
0.00650723
0.00464653
0.0391908
-0.131773
0.0940025
-0.365221
0.147847
-0.593062
0.190744
-0.762924
0.222768
-0.883016
0.247742
-0.975445
0.269178
-1.05789
0.289914
-1.13942
-1.22969
0.310295
0.00819581
-0.00354928
0.0442704
-0.167848
0.0986513
-0.419602
0.147928
-0.642339
0.185425
-0.800421
0.212859
-0.910449
0.234388
-0.996975
0.253256
-1.07676
0.27178
-1.15795
-1.24801
0.290097
0.0100902
-0.0136395
0.0489598
-0.206717
0.101636
-0.472278
0.146118
-0.686821
0.178569
-0.832872
0.20194
-0.93382
0.220458
-1.01549
0.237004
-1.0933
0.253421
-1.17436
-1.26428
0.269694
0.0121099
-0.0257493
0.0530562
-0.247664
0.103026
-0.522248
0.142685
-0.72648
0.170496
-0.860683
0.190273
-0.953597
0.206123
-1.03134
0.220521
-1.1077
0.234893
-1.18874
-1.27852
0.249127
0.0141596
-0.0399089
0.0563881
-0.289892
0.102948
-0.568808
0.137886
-0.761418
0.161475
-0.884273
0.178063
-0.970185
0.191508
-1.04479
0.203874
-1.12007
0.216239
-1.2011
-1.29071
0.228429
0.0161518
-0.0560607
0.0588377
-0.332578
0.101555
-0.611525
0.13196
-0.791822
0.151727
-0.90404
0.165468
-0.983926
0.176704
-1.05602
0.187114
-1.13048
0.197495
-1.21148
-1.30085
0.207636
0.0180156
-0.0740763
0.0603495
-0.374912
0.0990109
-0.650187
0.125119
-0.81793
0.141433
-0.920355
0.152611
-0.995104
0.161784
-1.0652
0.170286
-1.13898
0.178693
-1.21989
-1.30893
0.186778
0.0196926
-0.0937689
0.0609241
-0.416144
0.0954767
-0.684739
0.117553
-0.840006
0.130743
-0.933545
0.139584
-1.00394
0.146799
-1.07241
0.153424
-1.1456
0.159864
-1.22633
-1.31496
0.16589
0.0211298
-0.114899
0.0606012
-0.455615
0.0911051
-0.715243
0.109424
-0.858325
0.119776
-0.943898
0.12646
-1.01063
0.131792
-1.07774
0.13656
-1.15037
0.141036
-1.2308
-1.31893
0.145003
0.022277
-0.137176
0.059439
-0.492777
0.0860346
-0.741839
0.100871
-0.873161
0.108631
-0.951657
0.113296
-1.01529
0.116798
-1.08125
0.119721
-1.15329
0.122238
-1.23332
-1.32084
0.124154
0.0230911
-0.160267
0.057524
-0.52721
0.0803912
-0.764706
0.0920122
-0.884782
0.0973851
-0.95703
0.100138
-1.01805
0.101847
-1.08296
0.102932
-1.15438
0.103499
-1.23389
-1.32072
0.103383
0.0235433
-0.18381
0.0550356
-0.558702
0.0742934
-0.783964
0.0829415
-0.89343
0.0861007
-0.960189
0.0870204
-1.01897
0.0869629
-1.0829
0.0862164
-1.15363
0.0848476
-1.23252
-1.31862
0.0827428
0.023622
-0.207432
0.0520394
-0.587119
0.0678456
-0.79977
0.0737383
-0.899323
0.0748275
-0.961279
0.073975
-1.01811
0.0721704
-1.08109
0.0695974
-1.15106
0.0663042
-1.22923
-1.31452
0.0621998
0.0233324
-0.230764
0.0486069
-0.612394
0.0611381
-0.812302
0.0644689
-0.902654
0.063605
-0.960415
0.0610271
-1.01554
0.0574912
-1.07756
0.0531009
-1.14667
0.0478871
-1.22401
-1.3084
0.0417708
0.0226958
-0.25346
0.0448121
-0.63451
0.0542506
-0.82174
0.0551879
-0.903591
0.0524655
-0.957692
0.0481989
-1.01127
0.0429452
-1.0723
0.0367526
-1.14048
0.0296404
-1.2169
-1.30024
0.0214816
0.0217456
-0.275206
0.0407251
-0.65349
0.0472342
-0.828249
0.0459388
-0.902296
0.0414356
-0.953189
0.0355107
-1.00534
0.0285511
-1.06534
0.0205662
-1.13249
0.0116282
-1.20796
-1.28988
0.00127223
0.0205226
-0.295728
0.0364119
-0.669379
0.0401463
-0.831984
0.0367582
-0.898907
0.0305383
-0.946969
0.0229798
-0.997785
0.0143271
-1.05669
0.00451864
-1.12268
-0.00613833
-1.19731
-1.27755
-0.018472
0.0190701
-0.314799
0.0319325
-0.682241
0.0330398
-0.833091
0.0276767
-0.893544
0.0197916
-0.939084
0.0106161
-0.98861
0.000256714
-1.04633
-0.0111885
-1.11124
-0.0237861
-1.18471
-1.26339
-0.0379469
0.0174308
-0.332229
0.0273415
-0.692152
0.0259585
-0.831708
0.0187209
-0.886307
0.00920214
-0.929565
-0.00157691
-0.977831
-0.0134791
-1.03443
-0.0266428
-1.09807
-0.0411357
-1.17022
-1.24737
-0.0571543
0.0156446
-0.347874
0.0226873
-0.699195
0.0189385
-0.827959
0.00991144
-0.87728
-0.00124157
-0.918412
-0.0134497
-0.965623
-0.0270155
-1.02086
-0.0418665
-1.08322
-0.0581898
-1.15389
-1.22951
-0.0760482
0.0137482
-0.361622
0.0180121
-0.703459
0.0120075
-0.821955
0.00123963
-0.866512
-0.0113084
-0.905864
-0.0251349
-0.951796
-0.0403044
-1.00569
-0.0568256
-1.0667
-0.0749293
-1.13579
-1.20983
-0.0946092
0.011775
-0.373397
0.0133532
-0.705037
0.00517636
-0.813778
-0.0071477
-0.854188
-0.0212132
-0.891799
-0.0365864
-0.936423
-0.0533289
-0.988952
-0.0714951
-1.04854
-0.0913385
-1.11594
-1.18836
-0.112808
0.00975522
-0.383152
0.00874553
-0.704027
-0.00152792
-0.803504
-0.01536
-0.840356
-0.0309005
-0.876258
-0.0477856
-0.919538
-0.0660727
-0.970665
-0.0858536
-1.02875
-0.107399
-1.0944
-1.16514
-0.130625
0.00771382
-0.390866
0.00422928
-0.700543
-0.00791694
-0.791358
-0.0233702
-0.824902
-0.040353
-0.859275
-0.0587184
-0.901172
-0.0785208
-0.950863
-0.0998827
-1.00739
-0.123093
-1.07119
-1.14019
-0.148038
0.00566965
-0.396536
-9.60489e-05
-0.694777
-0.0141754
-0.777279
-0.0311632
-0.807915
-0.0495601
-0.840879
-0.0693723
-0.88136
-0.0906582
-0.929577
-0.113566
-0.984485
-0.138404
-1.04635
-1.11357
-0.165024
0.00364086
-0.400177
-0.00465523
-0.686481
-0.0202718
-0.761662
-0.0387249
-0.789461
-0.0585101
-0.821093
-0.0797354
-0.860135
-0.102471
-0.906841
-0.126889
-0.960067
-0.153316
-1.01992
-1.08533
-0.181556
0.00166383
-0.401841
-0.00895768
-0.675859
-0.0261879
-0.744432
-0.0460459
-0.769604
-0.0671929
-0.799946
-0.0897966
-0.837531
-0.113946
-0.882691
-0.139837
-0.934176
-0.16781
-0.991951
-1.05553
-0.19761
-0.000225991
-0.401615
-0.0130923
-0.662993
-0.031914
-0.72561
-0.0531217
-0.748396
-0.0755985
-0.77747
-0.0995448
-0.813585
-0.125072
-0.857165
-0.1524
-0.906847
-0.181871
-0.96248
-1.02421
-0.21319
-0.00235327
-0.399261
-0.0170757
-0.648271
-0.0374373
-0.705249
-0.0599463
-0.725887
-0.0837179
-0.753698
-0.108969
-0.788333
-0.135838
-0.830296
-0.16458
-0.878106
-0.195492
-0.931567
-0.991442
-0.228263
-0.00433247
-0.394929
-0.0209062
-0.631697
-0.0427463
-0.683408
-0.0665139
-0.702119
-0.0915425
-0.728669
-0.11806
-0.761815
-0.146237
-0.802119
-0.176368
-0.847975
-0.208625
-0.89931
-0.957475
-0.242592
-0.00622511
-0.388704
-0.024581
-0.613341
-0.0478349
-0.660155
-0.0728189
-0.677135
-0.0990643
-0.702424
-0.126808
-0.734071
-0.156259
-0.772668
-0.18772
-0.816514
-0.221282
-0.865748
-0.922711
-0.256046
-0.00803753
-0.380666
-0.0280968
-0.593282
-0.0526984
-0.635553
-0.0788561
-0.650978
-0.106276
-0.675004
-0.135206
-0.705141
-0.165888
-0.741986
-0.198581
-0.783821
-0.232994
-0.831335
-0.885752
-0.269953
-0.00977004
-0.370896
-0.0314505
-0.571601
-0.0573333
-0.60967
-0.0846206
-0.62369
-0.113171
-0.646454
-0.143244
-0.675068
-0.1751
-0.71013
-0.208912
-0.750009
-0.244586
-0.795662
-0.847206
-0.283132
-0.0114212
-0.359475
-0.034639
-0.548383
-0.0617369
-0.582572
-0.0901077
-0.59532
-0.119743
-0.616818
-0.150915
-0.643897
-0.183897
-0.677147
-0.218852
-0.715054
-0.255903
-0.758611
-0.807322
-0.295786
-0.0129892
-0.346486
-0.0376596
-0.523713
-0.0659065
-0.554325
-0.0953132
-0.565913
-0.125986
-0.586146
-0.158206
-0.611676
-0.192255
-0.643098
-0.228297
-0.679012
-0.266568
-0.72034
-0.766174
-0.307717
-0.0144717
-0.332014
-0.0405099
-0.497675
-0.0698402
-0.524995
-0.100233
-0.53552
-0.131893
-0.554486
-0.165113
-0.578457
-0.200179
-0.608031
-0.23728
-0.641912
-0.276708
-0.680911
-0.723881
-0.319001
-0.0158665
-0.316148
-0.0431878
-0.470353
-0.0735357
-0.494647
-0.104864
-0.504192
-0.13746
-0.521889
-0.171624
-0.544293
-0.207654
-0.572002
-0.245758
-0.603807
-0.286262
-0.640407
-0.680514
-0.329629
-0.017171
-0.298977
-0.0456914
-0.441833
-0.0769914
-0.463347
-0.109202
-0.471982
-0.14268
-0.488411
-0.177735
-0.509238
-0.214674
-0.535063
-0.253728
-0.564754
-0.295237
-0.598897
-0.636147
-0.339605
-0.0183824
-0.280594
-0.0480192
-0.412196
-0.0802055
-0.431161
-0.113243
-0.438944
-0.147549
-0.454105
-0.183438
-0.473349
-0.221229
-0.497271
-0.261172
-0.524811
-0.303618
-0.556452
-0.590845
-0.34892
-0.0194966
-0.261098
-0.0501695
-0.381523
-0.0831764
-0.398154
-0.116986
-0.405135
-0.152061
-0.41903
-0.188727
-0.436684
-0.227312
-0.458686
-0.268083
-0.48404
-0.311396
-0.513139
-0.544676
-0.357565
-0.020507
-0.240591
-0.0521405
-0.34989
-0.0859032
-0.364391
-0.120426
-0.370612
-0.156213
-0.383242
-0.193595
-0.399302
-0.232914
-0.419366
-0.274449
-0.442505
-0.318559
-0.469029
-0.497706
-0.365529
-0.0213991
-0.219191
-0.0539312
-0.317358
-0.0883854
-0.329937
-0.123561
-0.335436
-0.16
-0.346804
-0.198037
-0.361265
-0.238029
-0.379374
-0.280264
-0.40027
-0.3251
-0.424192
-0.450006
-0.372801
-0.0222179
-0.196974
-0.0555437
-0.284032
-0.0906226
-0.294858
-0.12639
-0.299668
-0.163419
-0.309775
-0.202049
-0.322634
-0.242651
-0.338773
-0.285518
-0.357403
-0.33101
-0.3787
-0.401646
-0.37937
-0.022963
-0.174011
-0.0569788
-0.250016
-0.0926142
-0.259223
-0.12891
-0.263373
-0.166466
-0.272219
-0.205626
-0.283474
-0.246772
-0.297627
-0.290206
-0.313969
-0.33628
-0.332626
-0.352701
-0.385225
-0.0236222
-0.150388
-0.058236
-0.215402
-0.0943592
-0.2231
-0.131118
-0.226614
-0.169139
-0.234199
-0.208765
-0.243848
-0.250389
-0.256003
-0.29432
-0.270038
-0.340903
-0.286044
-0.303244
-0.39036
-0.0241909
-0.126197
-0.0593147
-0.180279
-0.0958567
-0.186558
-0.133014
-0.189456
-0.171434
-0.195779
-0.211461
-0.203821
-0.253497
-0.213967
-0.297854
-0.225681
-0.344873
-0.239025
-0.253352
-0.394764
-0.0246666
-0.101531
-0.0602144
-0.144731
-0.0971059
-0.149666
-0.134596
-0.151966
-0.17335
-0.157026
-0.213711
-0.16346
-0.256091
-0.171587
-0.300803
-0.180969
-0.348182
-0.191646
-0.203101
-0.398434
-0.0250482
-0.0764827
-0.0609347
-0.108844
-0.0981061
-0.112495
-0.135863
-0.114208
-0.174885
-0.118004
-0.215515
-0.12283
-0.25817
-0.128931
-0.303165
-0.135974
-0.35083
-0.143981
-0.152565
-0.401365
-0.0253348
-0.0511479
-0.0614752
-0.0727038
-0.0988567
-0.0751134
-0.136815
-0.0762503
-0.176037
-0.0787814
-0.216868
-0.0819987
-0.259731
-0.086069
-0.304938
-0.0907669
-0.352815
-0.0961044
-0.101822
-0.403558
-0.0255261
-0.0256218
-0.0618357
-0.0363942
-0.0993574
-0.0375918
-0.137449
-0.0381586
-0.176806
-0.0394243
-0.217772
-0.041033
-0.260772
-0.043069
-0.30612
-0.0454187
-0.354137
-0.0480872
-0.0509437
-0.405015
-0.0256218
-3.40213e-09
-0.062016
-5.03803e-09
-0.0996078
-5.11638e-09
-0.137766
-5.02627e-09
-0.177191
-4.99424e-09
-0.218224
-4.96658e-09
-0.261293
-4.9527e-09
-0.306711
-4.93331e-09
-0.354798
-4.90467e-09
-4.84603e-09
-0.405742
-0.0256218
0.0256218
-0.062016
0.0363942
-0.0996078
0.0375918
-0.137766
0.0381586
-0.177191
0.0394243
-0.218224
0.041033
-0.261293
0.043069
-0.306711
0.0454187
-0.354798
0.0480872
0.0509437
-0.405742
-0.0255261
0.0511479
-0.0618357
0.0727038
-0.0993574
0.0751134
-0.137449
0.0762503
-0.176806
0.0787814
-0.217772
0.0819987
-0.260772
0.086069
-0.30612
0.0907669
-0.354137
0.0961044
0.101822
-0.405015
-0.0253348
0.0764827
-0.0614752
0.108844
-0.0988567
0.112495
-0.136815
0.114208
-0.176037
0.118004
-0.216868
0.12283
-0.259731
0.128931
-0.304938
0.135974
-0.352815
0.143981
0.152565
-0.403558
-0.0250482
0.101531
-0.0609347
0.144731
-0.0981061
0.149666
-0.135863
0.151966
-0.174885
0.157026
-0.215515
0.16346
-0.25817
0.171587
-0.303165
0.180969
-0.35083
0.191646
0.203101
-0.401365
-0.0246666
0.126197
-0.0602144
0.180279
-0.0971059
0.186558
-0.134596
0.189456
-0.17335
0.195779
-0.213711
0.203821
-0.256091
0.213967
-0.300803
0.225681
-0.348182
0.239025
0.253352
-0.398434
-0.0241909
0.150388
-0.0593147
0.215402
-0.0958567
0.2231
-0.133014
0.226614
-0.171434
0.234199
-0.211461
0.243848
-0.253497
0.256003
-0.297854
0.270038
-0.344873
0.286044
0.303244
-0.394764
-0.0236222
0.174011
-0.058236
0.250016
-0.0943592
0.259223
-0.131118
0.263373
-0.169139
0.272219
-0.208765
0.283474
-0.250389
0.297627
-0.29432
0.313969
-0.340903
0.332626
0.352701
-0.39036
-0.022963
0.196974
-0.0569788
0.284032
-0.0926142
0.294858
-0.12891
0.299668
-0.166466
0.309775
-0.205626
0.322634
-0.246772
0.338773
-0.290206
0.357403
-0.33628
0.3787
0.401646
-0.385225
-0.0222179
0.219191
-0.0555437
0.317358
-0.0906226
0.329937
-0.12639
0.335436
-0.163419
0.346804
-0.202049
0.361265
-0.242651
0.379374
-0.285518
0.40027
-0.33101
0.424192
0.450006
-0.37937
-0.0213991
0.240591
-0.0539312
0.34989
-0.0883854
0.364391
-0.123561
0.370612
-0.16
0.383242
-0.198037
0.399302
-0.238029
0.419366
-0.280264
0.442505
-0.3251
0.469029
0.497706
-0.372801
-0.020507
0.261098
-0.0521405
0.381523
-0.0859032
0.398154
-0.120426
0.405135
-0.156213
0.41903
-0.193595
0.436684
-0.232914
0.458686
-0.274449
0.48404
-0.318559
0.513139
0.544676
-0.365529
-0.0194966
0.280594
-0.0501695
0.412196
-0.0831764
0.431161
-0.116986
0.438944
-0.152061
0.454105
-0.188727
0.473349
-0.227312
0.497271
-0.268083
0.524811
-0.311396
0.556452
0.590845
-0.357565
-0.0183824
0.298977
-0.0480192
0.441833
-0.0802055
0.463347
-0.113243
0.471982
-0.147549
0.488411
-0.183438
0.509238
-0.221229
0.535063
-0.261172
0.564754
-0.303618
0.598897
0.636147
-0.34892
-0.017171
0.316148
-0.0456914
0.470353
-0.0769914
0.494647
-0.109202
0.504192
-0.14268
0.521889
-0.177735
0.544293
-0.214674
0.572002
-0.253728
0.603807
-0.295237
0.640407
0.680514
-0.339605
-0.0158665
0.332014
-0.0431878
0.497675
-0.0735357
0.524995
-0.104864
0.53552
-0.13746
0.554486
-0.171624
0.578457
-0.207654
0.608031
-0.245758
0.641912
-0.286262
0.680911
0.723881
-0.329629
-0.0144717
0.346486
-0.0405099
0.523713
-0.0698402
0.554325
-0.100233
0.565913
-0.131893
0.586146
-0.165113
0.611676
-0.200179
0.643098
-0.23728
0.679012
-0.276708
0.72034
0.766174
-0.319001
-0.0129892
0.359475
-0.0376596
0.548383
-0.0659065
0.582572
-0.0953132
0.59532
-0.125986
0.616818
-0.158206
0.643897
-0.192255
0.677147
-0.228297
0.715054
-0.266568
0.758611
0.807322
-0.307717
-0.0114212
0.370896
-0.034639
0.571601
-0.0617369
0.60967
-0.0901077
0.62369
-0.119743
0.646454
-0.150915
0.675068
-0.183897
0.71013
-0.218852
0.750009
-0.255903
0.795662
0.847206
-0.295786
-0.00977004
0.380666
-0.0314505
0.593282
-0.0573333
0.635553
-0.0846206
0.650978
-0.113171
0.675004
-0.143244
0.705141
-0.1751
0.741986
-0.208912
0.783821
-0.244586
0.831335
0.885752
-0.283132
-0.00803753
0.388704
-0.0280968
0.613341
-0.0526984
0.660155
-0.0788561
0.677135
-0.106276
0.702424
-0.135206
0.734071
-0.165888
0.772668
-0.198581
0.816514
-0.232994
0.865748
0.922711
-0.269953
-0.00622511
0.394929
-0.024581
0.631697
-0.0478349
0.683408
-0.0728189
0.702119
-0.0990643
0.728669
-0.126808
0.761815
-0.156259
0.802119
-0.18772
0.847975
-0.221282
0.89931
0.957475
-0.256046
-0.00433247
0.399261
-0.0209062
0.648271
-0.0427463
0.705249
-0.0665139
0.725887
-0.0915425
0.753698
-0.11806
0.788333
-0.146237
0.830296
-0.176368
0.878106
-0.208625
0.931567
0.991442
-0.242592
-0.00235327
0.401615
-0.0170757
0.662993
-0.0374373
0.72561
-0.0599463
0.748396
-0.0837179
0.77747
-0.108969
0.813585
-0.135838
0.857165
-0.16458
0.906847
-0.195492
0.96248
1.02421
-0.228263
-0.000225992
0.401841
-0.0130923
0.675859
-0.031914
0.744432
-0.0531217
0.769604
-0.0755985
0.799946
-0.0995448
0.837531
-0.125072
0.882691
-0.1524
0.934176
-0.181871
0.991951
1.05553
-0.21319
0.00166383
0.400177
-0.00895768
0.686481
-0.0261879
0.761662
-0.0460459
0.789461
-0.0671929
0.821093
-0.0897966
0.860135
-0.113946
0.906841
-0.139837
0.960067
-0.16781
1.01992
1.08533
-0.19761
0.00364086
0.396536
-0.00465523
0.694777
-0.0202718
0.777279
-0.0387249
0.807915
-0.0585101
0.840879
-0.0797354
0.88136
-0.102471
0.929577
-0.126889
0.984485
-0.153316
1.04635
1.11357
-0.181556
0.00566965
0.390866
-9.605e-05
0.700543
-0.0141754
0.791358
-0.0311632
0.824902
-0.0495601
0.859275
-0.0693723
0.901172
-0.0906582
0.950863
-0.113566
1.00739
-0.138404
1.07119
1.14019
-0.165024
0.00771382
0.383152
0.00422928
0.704027
-0.00791694
0.803504
-0.0233702
0.840356
-0.040353
0.876258
-0.0587184
0.919538
-0.0785208
0.970665
-0.0998827
1.02875
-0.123093
1.0944
1.16514
-0.148038
0.00975522
0.373397
0.00874553
0.705037
-0.00152792
0.813778
-0.01536
0.854188
-0.0309005
0.891799
-0.0477856
0.936423
-0.0660727
0.988952
-0.0858536
1.04854
-0.107399
1.11594
1.18836
-0.130625
0.011775
0.361622
0.0133532
0.703459
0.00517636
0.821955
-0.0071477
0.866512
-0.0212132
0.905864
-0.0365864
0.951796
-0.0533289
1.00569
-0.0714951
1.0667
-0.0913385
1.13579
1.20983
-0.112808
0.0137482
0.347874
0.0180121
0.699195
0.0120075
0.827959
0.00123963
0.87728
-0.0113084
0.918412
-0.0251349
0.965622
-0.0403044
1.02086
-0.0568256
1.08322
-0.0749293
1.15389
1.22951
-0.0946092
0.0156446
0.332229
0.0226873
0.692152
0.0189385
0.831708
0.00991143
0.886307
-0.00124157
0.929565
-0.0134497
0.977831
-0.0270155
1.03443
-0.0418665
1.09807
-0.0581898
1.17021
1.24737
-0.0760482
0.0174308
0.314799
0.0273415
0.682241
0.0259585
0.833091
0.0187209
0.893544
0.00920214
0.939084
-0.00157692
0.98861
-0.0134791
1.04633
-0.0266428
1.11124
-0.0411357
1.18471
1.26339
-0.0571543
0.0190701
0.295728
0.0319325
0.669379
0.0330398
0.831984
0.0276767
0.898907
0.0197916
0.946969
0.0106161
0.997785
0.000256712
1.05669
-0.0111885
1.12268
-0.0237861
1.19731
1.27755
-0.0379469
0.0205226
0.275206
0.0364118
0.65349
0.0401463
0.828249
0.0367582
0.902296
0.0305383
0.953189
0.0229798
1.00534
0.0143271
1.06534
0.00451864
1.13249
-0.00613833
1.20796
1.28988
-0.018472
0.0217456
0.25346
0.0407251
0.63451
0.0472342
0.82174
0.0459388
0.903591
0.0414356
0.957692
0.0355107
1.01127
0.0285511
1.0723
0.0205662
1.14048
0.0116282
1.2169
1.30024
0.00127223
0.0226958
0.230764
0.0448121
0.612394
0.0542506
0.812302
0.0551879
0.902654
0.0524655
0.960415
0.0481989
1.01554
0.0429452
1.07756
0.0367526
1.14667
0.0296404
1.22401
1.3084
0.0214816
0.0233324
0.207432
0.0486069
0.587119
0.0611381
0.79977
0.0644689
0.899323
0.063605
0.961279
0.0610271
1.01811
0.0574912
1.08109
0.0531009
1.15106
0.0478871
1.22923
1.31452
0.0417708
0.023622
0.18381
0.0520393
0.558702
0.0678456
0.783964
0.0737383
0.89343
0.0748275
0.960189
0.073975
1.01897
0.0721704
1.0829
0.0695974
1.15363
0.0663042
1.23252
1.31862
0.0621998
0.0235433
0.160267
0.0550356
0.52721
0.0742934
0.764706
0.0829415
0.884782
0.0861007
0.95703
0.0870204
1.01805
0.0869629
1.08296
0.0862164
1.15438
0.0848476
1.23389
1.32072
0.0827428
0.0230911
0.137176
0.057524
0.492777
0.0803912
0.741839
0.0920122
0.873161
0.0973851
0.951657
0.100138
1.01529
0.101847
1.08125
0.102932
1.15329
0.103499
1.23332
1.32084
0.103383
0.022277
0.114899
0.059439
0.455615
0.0860346
0.715243
0.100871
0.858325
0.108631
0.943898
0.113296
1.01063
0.116798
1.07774
0.119721
1.15037
0.122238
1.2308
1.31893
0.124154
0.0211298
0.0937689
0.0606012
0.416144
0.0911051
0.684739
0.109424
0.840006
0.119776
0.933545
0.12646
1.00394
0.131792
1.07241
0.13656
1.1456
0.141036
1.22633
1.31496
0.145003
0.0196926
0.0740763
0.0609241
0.374912
0.0954767
0.650187
0.117553
0.81793
0.130743
0.920355
0.139584
0.995104
0.146799
1.0652
0.153424
1.13898
0.159864
1.21989
1.30893
0.16589
0.0180156
0.0560607
0.0603495
0.332578
0.0990109
0.611525
0.125119
0.791822
0.141433
0.90404
0.152611
0.983926
0.161784
1.05602
0.170286
1.13048
0.178693
1.21148
1.30085
0.186778
0.0161518
0.0399089
0.0588377
0.289892
0.101555
0.568808
0.13196
0.761418
0.151727
0.884273
0.165468
0.970185
0.176704
1.04479
0.187114
1.12007
0.197495
1.2011
1.29071
0.207636
0.0141596
0.0257493
0.0563881
0.247664
0.102948
0.522248
0.137886
0.72648
0.161475
0.860683
0.178063
0.953597
0.191508
1.03134
0.203874
1.1077
0.216239
1.18874
1.27852
0.228429
0.0121099
0.0136395
0.0530562
0.206717
0.103026
0.472278
0.142685
0.686821
0.170496
0.832872
0.190273
0.93382
0.206123
1.01549
0.220521
1.0933
0.234893
1.17436
1.26428
0.249127
0.0100902
0.00354929
0.0489598
0.167848
0.101636
0.419602
0.146118
0.642339
0.178569
0.800421
0.20194
0.910449
0.220458
0.996975
0.237004
1.07676
0.253421
1.15795
1.24801
0.269694
0.00819581
-0.00464652
0.0442704
0.131773
0.0986513
0.365221
0.147928
0.593062
0.185425
0.762924
0.212859
0.883016
0.234388
0.975445
0.253256
1.05789
0.27178
1.13942
1.22969
0.290097
0.00650723
-0.0111538
0.0391908
0.0990896
0.0940025
0.310409
0.147847
0.539217
0.190744
0.720027
0.222768
0.850993
0.247742
0.950471
0.269178
1.03645
0.289914
1.11869
1.20931
0.310295
0.00506895
-0.0162227
0.0339375
0.070221
0.0877156
0.256631
0.145609
0.481324
0.194157
0.67148
0.231337
0.813812
0.260291
0.921517
0.284634
1.01211
0.307748
1.09557
1.18681
0.330252
0.00388135
-0.0201041
0.028733
0.0453694
0.0799665
0.205398
0.140987
0.420303
0.195251
0.617216
0.23816
0.770903
0.271726
0.887952
0.299435
0.9844
0.325177
1.06983
1.16209
0.349894
0.00291319
-0.0230172
0.0237956
0.024487
0.0711124
0.158081
0.133839
0.357576
0.193597
0.557458
0.242748
0.721752
0.281641
0.849058
0.313309
0.952732
0.342055
1.04109
1.13497
0.369174
0.00212427
-0.0251415
0.01931
0.00730129
0.0616523
0.115739
0.124189
0.29504
0.188785
0.492861
0.244533
0.666004
0.289512
0.804079
0.325889
0.916355
0.358132
1.00884
1.10516
0.387939
0.00148173
-0.0266232
0.0153953
-0.00661231
0.0521333
0.0790006
0.112324
0.234849
0.180499
0.424687
0.242897
0.603606
0.294675
0.752301
0.336655
0.874376
0.373132
0.972365
1.07227
0.406023
0.000964005
-0.0275872
0.01209
-0.0177383
0.0430662
0.0480244
0.0988394
0.179076
0.168617
0.354909
0.237216
0.535008
0.296331
0.693185
0.344938
0.825769
0.386433
0.93087
1.03538
0.423325
0.000557161
-0.0281444
0.00936405
-0.0265452
0.0348567
0.0225318
0.0845807
0.129352
0.153365
0.286125
0.226984
0.461388
0.293534
0.626636
0.349901
0.769401
0.397507
0.883265
0.99418
0.438707
0.00024982
-0.0283942
0.00715081
-0.0334462
0.0277446
0.00193793
0.070484
0.0866122
0.135439
0.22117
0.211943
0.384885
0.285393
0.553186
0.350369
0.704425
0.405196
0.828437
0.945675
0.453701
3.16662e-05
-0.0284259
0.00537299
-0.0387875
0.0217865
-0.0144756
0.0573711
0.0510276
0.116006
0.162535
0.19237
0.308521
0.271041
0.474515
0.345663
0.629803
0.407195
0.766905
0.889769
0.463101
-0.000135344
-0.0282905
0.00395294
-0.0428758
0.0168978
-0.0274205
0.0457852
0.0221402
0.0964853
0.111835
0.169238
0.235768
0.250297
0.393456
0.333588
0.546512
0.405717
0.694776
0.833155
0.462332
-0.000245145
-0.0280454
0.00281617
-0.0459371
0.0129206
-0.0375249
0.0359342
-0.000873413
0.0781917
0.0695772
0.144169
0.169791
0.223881
0.313744
0.313007
0.457386
0.397166
0.610617
0.768169
0.462152
-0.000319092
-0.0277263
0.00189224
-0.0481484
0.00967451
-0.0453072
0.0277481
-0.018947
0.0620119
0.0353134
0.119025
0.112778
0.193498
0.239271
0.283939
0.366944
0.378527
0.516029
0.692722
0.453974
-0.00037746
-0.0273489
0.00111468
-0.0496406
0.00698289
-0.0511754
0.0209888
-0.0329529
0.0482544
0.00804777
0.0953384
0.0656941
0.161628
0.172981
0.247921
0.280651
0.348734
0.415216
0.606266
0.43519
-0.000437102
-0.0269117
0.000423632
-0.0505013
0.00468552
-0.0554373
0.0153483
-0.0436157
0.0367314
-0.0133353
0.0740188
0.0284066
0.13084
0.11616
0.207889
0.203602
0.308485
0.31462
0.510188
0.404563
-0.000510414
-0.0264013
-0.000232616
-0.0507791
0.00264624
-0.0583161
0.0105194
-0.0514888
0.027004
-0.02982
0.05545
-3.93714e-05
0.102862
0.0687479
0.167372
0.139093
0.260913
0.221079
0.408614
0.362487
-0.000608354
-0.025793
-0.000895225
-0.0504922
0.000762178
-0.0599735
0.00624273
-0.0569694
0.0186205
-0.0421977
0.0396505
-0.0210694
0.0782215
0.0301769
0.129574
0.0877406
0.210947
0.139705
0.308394
0.311168
-0.000740104
-0.0250529
-0.00158293
-0.0496494
-0.00106455
-0.0604919
0.00232378
-0.0603577
0.011241
-0.0511149
0.0263159
-0.0361443
0.0567023
-0.000209516
0.0966023
0.0478406
0.163224
0.0730836
0.217271
0.254347
-0.00090533
-0.0241475
-0.00230843
-0.0482463
-0.0028729
-0.0599274
-0.001327
-0.0619036
0.00462997
-0.0570719
0.014936
-0.0464504
0.0379384
-0.0232119
0.0688516
0.0169274
0.120221
0.0217139
0.140989
0.196503
-0.00110156
-0.023046
-0.00307187
-0.046276
-0.00466604