/*--------------------------------*- C++ -*----------------------------------*\
  =========                 |
  \\      /  F ield         | OpenFOAM: The Open Source CFD Toolbox
   \\    /   O peration     | Website:  https://openfoam.org
    \\  /    A nd           | Version:  9
     \\/     M anipulation  |
\*---------------------------------------------------------------------------*/
FoamFile
{
    format      ascii;
    class       volScalarField;
    location    "0.4";
    object      p;
}
// * * * * * * * * * * * * * * * * * * * * * * * * * * * * * * * * * * * * * //

dimensions      [1 -1 -2 0 0 0 0];

internalField   nonuniform List<scalar> 
252
(
1
1
1
1.91292
9.13129
14.1635
1
1
1
1.32296
8.04675
13.5847
1
1
1
1.00882
4.78314
8.73172
1
1
1
1.00002
1.90569
6.94301
1
1
1
1
1.06348
3.62954
1
1
1
1
1.00043
1.35882
1
1
1
1
1
1.009
1
1
1
1
1
1.00003
1
1
1
1
1
1
1
1
1
1
1
1
2.82472
0.978173
0.466053
0.428489
0.423955
0.457992
0.517401
0.599977
0.763604
0.957721
1.04412
1.0444
1.03575
1.0196
1.00311
1.00005
0.999994
0.999996
0.999999
1
1
1
1
1
4.07535
2.42975
1.54898
1.29558
1.17116
1.08148
1.01173
1.00117
1.0608
1.09764
1.0851
1.07743
1.05715
1.01812
1.00121
1.00001
0.999998
0.999998
1
1
1
1
1
1
3.65951
3.22054
2.56578
2.14928
1.89136
1.64241
1.45272
1.33259
1.24339
1.17142
1.11911
1.07761
1.03949
1.00852
1.00035
1
1
1
1
1
1
1
1
1
2.30271
2.62357
2.38251
2.1366
1.94558
1.7375
1.5407
1.38118
1.25805
1.16924
1.10757
1.05788
1.01863
1.00198
1.00003
1
1
1
1
1
1
1
1
1
1.16977
1.54193
1.72603
1.73267
1.66931
1.56635
1.43524
1.30515
1.19701
1.11555
1.0577
1.02004
1.003
1.0001
1
1
1
1
1
1
1
1
1
1
1.0033
1.03575
1.10776
1.17352
1.20629
1.19537
1.16165
1.11449
1.06859
1.03298
1.01112
1.00184
1.00008
1
1
1
1
1
1
1
1
1
1
1
1.00001
1.00025
1.00187
1.00582
1.01075
1.01287
1.01193
1.0091
1.00528
1.00209
1.00042
1.00003
1
1
1
1
1
1
1
1
1
1
1
1
1
1
1
1.00001
1.00005
1.00008
1.00009
1.00008
1.00005
1.00002
1
1
1
1
1
1
1
1
1
1
1
1
1
1
)
;

boundaryField
{
    inlet
    {
        type            fixedValue;
        value           uniform 1;
    }
    outlet
    {
        type            zeroGradient;
    }
    bottom
    {
        type            symmetryPlane;
    }
    top
    {
        type            symmetryPlane;
    }
    obstacle
    {
        type            zeroGradient;
    }
    defaultFaces
    {
        type            empty;
    }
}


// ************************************************************************* //
