/*--------------------------------*- C++ -*----------------------------------*\
  =========                 |
  \\      /  F ield         | OpenFOAM: The Open Source CFD Toolbox
   \\    /   O peration     | Website:  https://openfoam.org
    \\  /    A nd           | Version:  7
     \\/     M anipulation  |
\*---------------------------------------------------------------------------*/
FoamFile
{
    version     2.0;
    format      ascii;
    class       volScalarField;
    location    "0.4";
    object      T;
}
// * * * * * * * * * * * * * * * * * * * * * * * * * * * * * * * * * * * * * //

dimensions      [0 0 0 1 0 0 0];

internalField   nonuniform List<scalar> 
252
(
1
1
1
1.50525
2.88926
3.39727
1
1
1
1.19786
2.75638
3.40672
1
1
1
1.00429
2.22758
3.03409
1
1
1
1.00001
1.41041
2.61362
1
1
1
1
1.02616
1.86666
1
1
1
1
1.00013
1.15248
1
1
1
1
1
1.00314
1
1
1
1
1
1.00001
1
1
1
1
1
1
1
1
1
1
1
1
2.1922
1.59407
1.33695
1.25281
1.19304
1.14767
1.08734
1.03031
1.02408
1.02507
1.02413
1.01647
1.00839
1.00291
1.00036
1
0.999996
0.999998
1
1
1
1
1
1
2.2747
1.99683
1.77195
1.60614
1.47607
1.35012
1.22907
1.14169
1.09165
1.05527
1.03128
1.02089
1.01192
1.00339
1.00024
1
0.999999
0.999999
1
1
1
1
1
1
2.03166
1.95325
1.79255
1.63904
1.50622
1.37318
1.25634
1.16566
1.09973
1.05751
1.0338
1.01956
1.00945
1.00214
1.0001
1
1
1
1
1
1
1
1
1
1.48045
1.59785
1.54308
1.45847
1.3702
1.27872
1.19586
1.12848
1.07854
1.04695
1.02847
1.01542
1.00523
1.00059
1.00001
1
1
1
1
1
1
1
1
1
1.06267
1.18577
1.23275
1.2189
1.19145
1.15754
1.11859
1.08079
1.05056
1.02949
1.01541
1.00577
1.00092
1.00003
1
1
1
1
1
1
1
1
1
1
1.00096
1.01104
1.03277
1.04892
1.05525
1.05171
1.04219
1.02967
1.01792
1.00887
1.00315
1.00055
1.00002
1
1
1
1
1
1
1
1
1
1
1
1
1.00007
1.00051
1.0016
1.00296
1.00355
1.00329
1.00251
1.00148
1.0006
1.00012
1.00001
1
1
1
1
1
1
1
1
1
1
1
1
1
1
1
1
1.00001
1.00002
1.00003
1.00002
1.00001
1
1
1
1
1
1
1
1
1
1
1
1
1
1
1
)
;

boundaryField
{
    inlet
    {
        type            fixedValue;
        value           uniform 1;
    }
    outlet
    {
        type            inletOutlet;
        inletValue      uniform 1;
        value           uniform 1;
    }
    bottom
    {
        type            symmetryPlane;
    }
    top
    {
        type            symmetryPlane;
    }
    obstacle
    {
        type            zeroGradient;
    }
    defaultFaces
    {
        type            empty;
    }
}


// ************************************************************************* //
