/*--------------------------------*- C++ -*----------------------------------*\
  =========                 |
  \\      /  F ield         | OpenFOAM: The Open Source CFD Toolbox
   \\    /   O peration     | Website:  https://openfoam.org
    \\  /    A nd           | Version:  9
     \\/     M anipulation  |
\*---------------------------------------------------------------------------*/
FoamFile
{
    format      ascii;
    class       volVectorField;
    location    "0.4";
    object      U;
}
// * * * * * * * * * * * * * * * * * * * * * * * * * * * * * * * * * * * * * //

dimensions      [0 1 -1 0 0 0 0];

internalField   nonuniform List<vector> 
252
(
(3 7.18699e-15 0)
(3 -5.32419e-15 0)
(3 2.30923e-15 0)
(2.51912 0.0354379 0)
(0.474957 0.0481873 0)
(0.310262 0.171493 0)
(3 7.57354e-16 0)
(3 -1.54603e-14 0)
(3 -3.06515e-14 0)
(2.8272 0.0778095 0)
(0.647278 0.355291 0)
(0.366062 0.626239 0)
(3 -9.59618e-16 0)
(3 1.27243e-14 0)
(3 -3.67619e-14 0)
(2.99992 0.0052206 0)
(1.5112 0.644162 0)
(0.804745 1.14716 0)
(3 1.50146e-14 0)
(3 2.38108e-14 0)
(3 -9.77326e-15 0)
(3.00001 1.22251e-05 0)
(2.72324 0.351093 0)
(1.36862 1.11016 0)
(3 1.66756e-16 0)
(3 -1.20974e-14 0)
(3 5.12272e-16 0)
(3 7.25929e-10 0)
(3.04292 0.0236559 0)
(2.06588 0.786297 0)
(3 1.61354e-15 0)
(3 1.69366e-14 0)
(3 1.7076e-14 0)
(3 3.77792e-14 0)
(3.00102 0.00031797 0)
(2.87187 0.176794 0)
(3 1.24533e-14 0)
(3 4.14608e-14 0)
(3 4.44515e-14 0)
(3 4.53005e-14 0)
(3 2.26163e-07 0)
(2.99931 0.00578609 0)
(3 -2.01437e-15 0)
(3 -2.74027e-14 0)
(3 -9.96167e-15 0)
(3 2.29838e-14 0)
(3 9.13667e-12 0)
(3 1.93807e-05 0)
(3 -3.41825e-14 0)
(3 -8.99143e-14 0)
(3 -7.98412e-14 0)
(3 -3.97525e-14 0)
(3 -3.93099e-14 0)
(3 4.74004e-09 0)
(3 -1.95709e-14 0)
(3 -2.3938e-14 0)
(3 -2.46234e-14 0)
(3 -1.14517e-15 0)
(3 -3.32284e-14 0)
(3 1.49051e-13 0)
(1.7052 0.946782 0)
(2.10423 1.10114 0)
(2.45124 1.00043 0)
(2.61558 0.730592 0)
(2.78165 0.604277 0)
(2.90335 0.46767 0)
(2.97509 0.322229 0)
(3.00744 0.245734 0)
(3.0165 0.159474 0)
(3.0321 0.0570996 0)
(3.04403 0.0119231 0)
(3.03739 0.00744036 0)
(3.0298 0.00708006 0)
(3.01303 0.00401452 0)
(3.00172 0.00059221 0)
(3.00003 7.77053e-06 0)
(3 -7.33707e-07 0)
(3 -4.79813e-07 0)
(3 -1.22067e-07 0)
(3 -2.80813e-09 0)
(3 1.27372e-10 0)
(3 5.0679e-11 0)
(3 2.4874e-12 0)
(3 -6.09824e-14 0)
(1.94835 1.08661 0)
(2.40018 0.930757 0)
(2.63757 0.637906 0)
(2.85463 0.301374 0)
(2.97538 0.13563 0)
(3.03232 0.0318636 0)
(3.09191 -0.010443 0)
(3.12774 -0.00546196 0)
(3.14006 0.00467129 0)
(3.10405 0.0136538 0)
(3.07155 0.0164574 0)
(3.05996 0.0146914 0)
(3.03842 0.0102456 0)
(3.01081 0.00366045 0)
(3.00074 0.000270557 0)
(3 -5.23224e-07 0)
(3 -1.51593e-06 0)
(3 -9.42541e-07 0)
(3 -1.9175e-07 0)
(3 -2.89299e-09 0)
(3 2.40471e-10 0)
(3 9.38805e-11 0)
(3 4.3876e-12 0)
(3 -1.91573e-13 0)
(2.29061 1.00576 0)
(2.47912 0.994826 0)
(2.64746 0.885491 0)
(2.85611 0.714916 0)
(2.97473 0.571477 0)
(3.03868 0.464891 0)
(3.11351 0.34616 0)
(3.15101 0.238074 0)
(3.14428 0.160383 0)
(3.11794 0.0991919 0)
(3.08487 0.0587418 0)
(3.05425 0.0352306 0)
(3.02542 0.0162362 0)
(3.00529 0.00300475 0)
(3.00023 9.77979e-05 0)
(3 -9.29158e-08 0)
(3 -2.31751e-07 0)
(3 -1.25249e-07 0)
(3 -1.46511e-08 0)
(3 -8.38171e-11 0)
(3 2.24043e-11 0)
(3 8.47726e-12 0)
(3 3.6684e-13 0)
(3 1.15027e-14 0)
(2.62347 0.567554 0)
(2.6882 0.751756 0)
(2.75578 0.725154 0)
(2.89045 0.645428 0)
(2.96945 0.557651 0)
(3.0238 0.476901 0)
(3.07782 0.370906 0)
(3.10576 0.257506 0)
(3.10365 0.164287 0)
(3.08611 0.0999385 0)
(3.06041 0.0588589 0)
(3.03308 0.0293212 0)
(3.01098 0.00857537 0)
(3.00124 0.000795658 0)
(3.00002 1.07639e-05 0)
(3 -6.75818e-09 0)
(3 -5.7682e-09 0)
(3 -2.20422e-09 0)
(3 -1.27467e-10 0)
(3 5.83761e-14 0)
(3 2.49951e-13 0)
(3 1.05899e-13 0)
(3 -2.09719e-14 0)
(3 -7.20711e-14 0)
(2.94802 0.09838 0)
(2.86411 0.30486 0)
(2.87149 0.416342 0)
(2.94281 0.405873 0)
(2.97018 0.382436 0)
(3.00647 0.337662 0)
(3.04081 0.271118 0)
(3.05689 0.198529 0)
(3.05328 0.132715 0)
(3.03845 0.0778561 0)
(3.0234 0.0369652 0)
(3.00981 0.0116705 0)
(3.00169 0.0015404 0)
(3.00006 4.31309e-05 0)
(3 1.18753e-07 0)
(3 -4.18033e-12 0)
(3 -9.80908e-12 0)
(3 -2.74455e-12 0)
(3 -4.40568e-13 0)
(3 -2.23363e-13 0)
(3 -1.71081e-13 0)
(3 -1.32064e-13 0)
(3 -1.21143e-13 0)
(3 -1.43461e-13 0)
(2.99933 0.00218037 0)
(2.99062 0.0235168 0)
(2.97744 0.0714341 0)
(2.97358 0.116295 0)
(2.98048 0.136606 0)
(2.98734 0.130745 0)
(2.99824 0.11063 0)
(3.00637 0.080045 0)
(3.00882 0.0486064 0)
(3.00738 0.0230056 0)
(3.00393 0.00728199 0)
(3.00088 0.00108794 0)
(3.00004 4.14802e-05 0)
(3 1.88898e-07 0)
(3 4.68449e-11 0)
(3 -7.80181e-14 0)
(3 -1.21499e-13 0)
(3 -1.30243e-13 0)
(3 -1.27583e-13 0)
(3 -1.13982e-13 0)
(3 -7.18349e-14 0)
(3 -9.65935e-14 0)
(3 -1.10954e-13 0)
(3 -7.90019e-14 0)
(3 4.30678e-06 0)
(2.99995 0.000171535 0)
(2.99965 0.0012912 0)
(2.99896 0.00405862 0)
(2.99862 0.00760215 0)
(2.99885 0.00912815 0)
(2.99919 0.00851418 0)
(2.99979 0.00656455 0)
(3.00028 0.00383456 0)
(3.00039 0.00148232 0)
(3.00015 0.000280313 0)
(3.00001 1.48425e-05 0)
(3 1.04114e-07 0)
(3 4.29016e-11 0)
(3 -9.26909e-14 0)
(3 -8.91538e-14 0)
(3 -1.06761e-13 0)
(3 -8.51313e-14 0)
(3 -8.94206e-14 0)
(3 -2.80131e-14 0)
(3 -2.79645e-15 0)
(3 -3.28163e-14 0)
(3 -3.63148e-14 0)
(3 -2.81893e-14 0)
(3 5.18175e-10 0)
(3 7.23047e-08 0)
(3 1.39005e-06 0)
(3 9.19297e-06 0)
(2.99999 2.98711e-05 0)
(2.99999 5.18973e-05 0)
(2.99999 5.80179e-05 0)
(3 5.05094e-05 0)
(3 3.11905e-05 0)
(3 1.03978e-05 0)
(3 1.10851e-06 0)
(3 1.80682e-08 0)
(3 1.97943e-11 0)
(3 -6.26054e-14 0)
(3 -6.32906e-14 0)
(3 -5.79641e-14 0)
(3 -7.10688e-14 0)
(3 -2.99527e-14 0)
(3 -3.84281e-14 0)
(3 -4.02669e-14 0)
(3 -5.00832e-14 0)
(3 -2.07371e-14 0)
(3 3.01992e-14 0)
(3 1.94767e-14 0)
)
;

boundaryField
{
    inlet
    {
        type            fixedValue;
        value           uniform (3 0 0);
    }
    outlet
    {
        type            inletOutlet;
        inletValue      uniform (3 0 0);
        value           nonuniform List<vector> 8((3 -6.09824e-14 0) (3 -1.91573e-13 0) (3 1.15027e-14 0) (3 -7.20711e-14 0) (3 -1.43461e-13 0) (3 -7.90019e-14 0) (3 -2.81893e-14 0) (3 1.94767e-14 0));
    }
    bottom
    {
        type            symmetryPlane;
    }
    top
    {
        type            symmetryPlane;
    }
    obstacle
    {
        type            slip;
    }
    defaultFaces
    {
        type            empty;
    }
}


// ************************************************************************* //
