/*--------------------------------*- C++ -*----------------------------------*\
  =========                 |
  \\      /  F ield         | OpenFOAM: The Open Source CFD Toolbox
   \\    /   O peration     | Website:  https://openfoam.org
    \\  /    A nd           | Version:  7
     \\/     M anipulation  |
\*---------------------------------------------------------------------------*/
FoamFile
{
    version     2.0;
    format      ascii;
    class       volVectorField;
    location    "0.4";
    object      U;
}
// * * * * * * * * * * * * * * * * * * * * * * * * * * * * * * * * * * * * * //

dimensions      [0 1 -1 0 0 0 0];

internalField   nonuniform List<vector> 
252
(
(3 -1.87973e-16 0)
(3 -1.32194e-16 0)
(3 -3.89544e-16 0)
(2.51912 0.0354379 0)
(0.474957 0.0481873 0)
(0.310262 0.171493 0)
(3 -3.11526e-16 0)
(3 1.95197e-16 0)
(3 -8.52384e-17 0)
(2.8272 0.0778095 0)
(0.647278 0.355291 0)
(0.366062 0.626239 0)
(3 -6.35158e-18 0)
(3 2.79279e-16 0)
(3 2.81895e-17 0)
(2.99992 0.0052206 0)
(1.5112 0.644162 0)
(0.804745 1.14716 0)
(3 7.9949e-17 0)
(3 -2.36956e-16 0)
(3 -7.242e-16 0)
(3.00001 1.22251e-05 0)
(2.72324 0.351093 0)
(1.36862 1.11016 0)
(3 -9.58102e-17 0)
(3 -1.89625e-17 0)
(3 -2.41387e-17 0)
(3 7.25924e-10 0)
(3.04292 0.0236559 0)
(2.06588 0.786297 0)
(3 1.81451e-16 0)
(3 2.22636e-16 0)
(3 1.11526e-16 0)
(3 5.81675e-15 0)
(3.00102 0.00031797 0)
(2.87187 0.176794 0)
(3 6.04458e-17 0)
(3 2.87003e-16 0)
(3 4.4276e-16 0)
(3 1.24398e-15 0)
(3 2.26163e-07 0)
(2.99931 0.00578609 0)
(3 1.37953e-16 0)
(3 6.5434e-16 0)
(3 1.26568e-15 0)
(3 1.19663e-15 0)
(3 9.06462e-12 0)
(3 1.93807e-05 0)
(3 -3.40761e-17 0)
(3 -3.91033e-16 0)
(3 -9.7571e-17 0)
(3 -5.41019e-16 0)
(3 -2.34083e-17 0)
(3 4.74003e-09 0)
(3 -2.22801e-16 0)
(3 -1.16586e-15 0)
(3 -1.01682e-15 0)
(3 -4.73455e-16 0)
(3 -3.95358e-16 0)
(3 1.52021e-13 0)
(1.7052 0.946782 0)
(2.10423 1.10114 0)
(2.45124 1.00043 0)
(2.61558 0.730592 0)
(2.78165 0.604277 0)
(2.90335 0.46767 0)
(2.97509 0.322229 0)
(3.00744 0.245734 0)
(3.0165 0.159474 0)
(3.0321 0.0570996 0)
(3.04403 0.0119231 0)
(3.03739 0.00744036 0)
(3.0298 0.00708006 0)
(3.01303 0.00401452 0)
(3.00172 0.00059221 0)
(3.00003 7.77053e-06 0)
(3 -7.33707e-07 0)
(3 -4.79812e-07 0)
(3 -1.22067e-07 0)
(3 -2.80802e-09 0)
(3 1.27402e-10 0)
(3 5.0709e-11 0)
(3 2.54336e-12 0)
(3 -4.64838e-14 0)
(1.94835 1.08661 0)
(2.40018 0.930757 0)
(2.63757 0.637906 0)
(2.85463 0.301374 0)
(2.97538 0.13563 0)
(3.03232 0.0318636 0)
(3.09191 -0.010443 0)
(3.12774 -0.00546196 0)
(3.14006 0.00467129 0)
(3.10405 0.0136538 0)
(3.07155 0.0164574 0)
(3.05996 0.0146914 0)
(3.03842 0.0102456 0)
(3.01081 0.00366045 0)
(3.00074 0.000270557 0)
(3 -5.23224e-07 0)
(3 -1.51593e-06 0)
(3 -9.42541e-07 0)
(3 -1.9175e-07 0)
(3 -2.89302e-09 0)
(3 2.40413e-10 0)
(3 9.3911e-11 0)
(3 4.55043e-12 0)
(3 -6.61474e-14 0)
(2.29061 1.00576 0)
(2.47912 0.994826 0)
(2.64746 0.885491 0)
(2.85611 0.714916 0)
(2.97473 0.571477 0)
(3.03868 0.464891 0)
(3.11351 0.34616 0)
(3.15101 0.238074 0)
(3.14428 0.160383 0)
(3.11794 0.0991919 0)
(3.08487 0.0587418 0)
(3.05425 0.0352306 0)
(3.02542 0.0162362 0)
(3.00529 0.00300475 0)
(3.00023 9.77979e-05 0)
(3 -9.29152e-08 0)
(3 -2.31751e-07 0)
(3 -1.2525e-07 0)
(3 -1.46513e-08 0)
(3 -8.35408e-11 0)
(3 2.27832e-11 0)
(3 8.6481e-12 0)
(3 3.48353e-13 0)
(3 -3.65893e-15 0)
(2.62347 0.567554 0)
(2.6882 0.751756 0)
(2.75578 0.725154 0)
(2.89045 0.645428 0)
(2.96945 0.557651 0)
(3.0238 0.476901 0)
(3.07782 0.370906 0)
(3.10576 0.257506 0)
(3.10365 0.164287 0)
(3.08611 0.0999385 0)
(3.06041 0.0588589 0)
(3.03308 0.0293212 0)
(3.01098 0.00857537 0)
(3.00124 0.000795658 0)
(3.00002 1.07639e-05 0)
(3 -6.75845e-09 0)
(3 -5.76823e-09 0)
(3 -2.2041e-09 0)
(3 -1.27334e-10 0)
(3 1.58651e-13 0)
(3 3.58914e-13 0)
(3 1.12734e-13 0)
(3 7.88112e-15 0)
(3 7.49785e-16 0)
(2.94802 0.09838 0)
(2.86411 0.30486 0)
(2.87149 0.416342 0)
(2.94281 0.405873 0)
(2.97018 0.382436 0)
(3.00647 0.337662 0)
(3.04081 0.271118 0)
(3.05689 0.198529 0)
(3.05328 0.132715 0)
(3.03845 0.0778561 0)
(3.0234 0.0369652 0)
(3.00981 0.0116705 0)
(3.00169 0.0015404 0)
(3.00006 4.31309e-05 0)
(3 1.18753e-07 0)
(3 -4.01295e-12 0)
(3 -9.7672e-12 0)
(3 -2.59622e-12 0)
(3 -2.72724e-13 0)
(3 -2.83825e-14 0)
(3 -9.92254e-15 0)
(3 2.9807e-16 0)
(3 -6.29948e-16 0)
(3 -5.33535e-17 0)
(2.99933 0.00218037 0)
(2.99062 0.0235168 0)
(2.97744 0.0714341 0)
(2.97358 0.116295 0)
(2.98048 0.136606 0)
(2.98734 0.130745 0)
(2.99824 0.11063 0)
(3.00637 0.080045 0)
(3.00882 0.0486064 0)
(3.00738 0.0230056 0)
(3.00393 0.00728199 0)
(3.00088 0.00108794 0)
(3.00004 4.14802e-05 0)
(3 1.88897e-07 0)
(3 4.69214e-11 0)
(3 1.79269e-15 0)
(3 1.88047e-15 0)
(3 8.18435e-16 0)
(3 -2.4632e-15 0)
(3 -1.04493e-14 0)
(3 -3.40115e-15 0)
(3 -3.96054e-16 0)
(3 -3.1977e-16 0)
(3 8.15348e-17 0)
(3 4.30678e-06 0)
(2.99995 0.000171535 0)
(2.99965 0.0012912 0)
(2.99896 0.00405862 0)
(2.99862 0.00760215 0)
(2.99885 0.00912815 0)
(2.99919 0.00851418 0)
(2.99979 0.00656455 0)
(3.00028 0.00383456 0)
(3.00039 0.00148232 0)
(3.00015 0.000280313 0)
(3.00001 1.48425e-05 0)
(3 1.04114e-07 0)
(3 4.26427e-11 0)
(3 9.48216e-16 0)
(3 1.1161e-16 0)
(3 -3.42234e-16 0)
(3 -7.78065e-16 0)
(3 -8.35068e-16 0)
(3 -3.75027e-16 0)
(3 -3.18221e-17 0)
(3 4.26715e-16 0)
(3 -5.09348e-17 0)
(3 -1.04288e-17 0)
(3 5.18187e-10 0)
(3 7.23048e-08 0)
(3 1.39005e-06 0)
(3 9.19297e-06 0)
(2.99999 2.98711e-05 0)
(2.99999 5.18973e-05 0)
(2.99999 5.80179e-05 0)
(3 5.05094e-05 0)
(3 3.11905e-05 0)
(3 1.03978e-05 0)
(3 1.10851e-06 0)
(3 1.8068e-08 0)
(3 1.98656e-11 0)
(3 -7.268e-17 0)
(3 -9.36053e-16 0)
(3 -8.89116e-16 0)
(3 -1.03132e-15 0)
(3 -1.39909e-15 0)
(3 -9.98064e-16 0)
(3 -5.33888e-16 0)
(3 -3.95556e-16 0)
(3 4.91615e-17 0)
(3 -2.66646e-16 0)
(3 -2.77071e-16 0)
)
;

boundaryField
{
    inlet
    {
        type            fixedValue;
        value           uniform (3 0 0);
    }
    outlet
    {
        type            inletOutlet;
        inletValue      uniform (3 0 0);
        value           nonuniform List<vector> 8((3 -4.64838e-14 0) (3 -6.61474e-14 0) (3 -3.65893e-15 0) (3 7.49785e-16 0) (3 -5.33535e-17 0) (3 8.15348e-17 0) (3 -1.04288e-17 0) (3 -2.77071e-16 0));
    }
    bottom
    {
        type            symmetryPlane;
    }
    top
    {
        type            symmetryPlane;
    }
    obstacle
    {
        type            slip;
    }
    defaultFaces
    {
        type            empty;
    }
}


// ************************************************************************* //
