0.59999 	0.03 	-1.73472e-18 	11.9966 	5.96699 	2.8147
0.59999 	0.05 	0 	11.935 	5.9452 	2.8105
0.59999 	0.07 	0 	11.844 	5.91281 	2.80436
0.59999 	0.09 	1.73472e-18 	11.725 	5.87013 	2.79638
0.59999 	0.11 	5.20417e-18 	11.5485 	5.80665 	2.7844
0.59999 	0.13 	6.93889e-18 	11.3364 	5.73092 	2.76936
0.59999 	0.15 	5.55112e-18 	10.9787 	5.60661 	2.74146
0.59999 	0.17 	2.42861e-18 	10.4802 	5.42656 	2.7038
0.59999 	0.19 	-6.93889e-19 	10.0328 	5.22112 	2.69021
