0.59999 	0.03 	-1.73472e-18 	0.0378749 	0.110674 	0
0.59999 	0.05 	0 	0.0364422 	0.180511 	0
0.59999 	0.07 	0 	0.0364208 	0.249621 	0
0.59999 	0.09 	1.73472e-18 	0.038426 	0.321336 	0
0.59999 	0.11 	5.20417e-18 	0.0392453 	0.398224 	0
0.59999 	0.13 	6.93889e-18 	0.0488665 	0.485983 	0
0.59999 	0.15 	5.55112e-18 	0.0484899 	0.595888 	0
0.59999 	0.17 	2.42861e-18 	0.0876182 	0.727711 	0
0.59999 	0.19 	-6.93889e-19 	0.137902 	0.975255 	0
