/*--------------------------------*- C++ -*----------------------------------*\
  =========                 |
  \\      /  F ield         | OpenFOAM: The Open Source CFD Toolbox
   \\    /   O peration     | Website:  https://openfoam.org
    \\  /    A nd           | Version:  9
     \\/     M anipulation  |
\*---------------------------------------------------------------------------*/
FoamFile
{
    format      ascii;
    class       volVectorField;
    location    "34";
    object      U;
}
// * * * * * * * * * * * * * * * * * * * * * * * * * * * * * * * * * * * * * //

dimensions      [0 1 -1 0 0 0 0];

internalField   nonuniform List<vector> 
8500
(
(-0.00649131 0.00259446 0)
(-0.0291487 0.00447331 -6.68855e-23)
(-0.0612141 0.00493526 -3.67749e-24)
(-0.0890452 0.00477065 6.96632e-37)
(-0.116481 0.00445385 -1.0246e-23)
(-0.13693 0.0038515 8.53139e-24)
(-0.160874 0.00379922 -5.77326e-23)
(-0.171772 0.00249072 -8.94452e-23)
(-0.192103 0.00352074 -8.17505e-23)
(-0.199265 0.00124293 -4.24469e-24)
(-0.00678511 0.00773139 1.93189e-22)
(-0.0294059 0.0133458 6.2492e-23)
(-0.0610919 0.0147311 2.50785e-22)
(-0.0883656 0.0142421 0)
(-0.115219 0.0132933 0)
(-0.134687 0.0114952 1.71788e-23)
(-0.158062 0.0113316 4.33891e-23)
(-0.167234 0.00741294 9.5469e-23)
(-0.187048 0.0105274 6.15371e-23)
(-0.19198 0.00359283 1.69877e-23)
(-0.00736449 0.012714 -1.71678e-22)
(-0.0299165 0.0219967 0)
(-0.060852 0.0243028 -2.36005e-22)
(-0.0870149 0.0235033 0)
(-0.112706 0.0219256 -4.10424e-23)
(-0.130209 0.0189621 3.4174e-23)
(-0.152445 0.0186587 0)
(-0.158121 0.0121665 0)
(-0.176942 0.0174353 0)
(-0.177438 0.00555328 0)
(-0.00821357 0.0174462 3.45102e-22)
(-0.0306731 0.0302841 -2.50934e-22)
(-0.0605027 0.0335035 -5.91784e-23)
(-0.0850102 0.0324145 -3.68944e-22)
(-0.108963 0.0302069 -3.70306e-22)
(-0.123511 0.0261389 3.4457e-23)
(-0.144029 0.0256191 -2.87698e-23)
(-0.144348 0.0166646 3.32755e-22)
(-0.161764 0.0241936 1.74412e-26)
(-0.155617 0.00692384 3.35422e-22)
(-0.00931 0.0218419 -3.45102e-22)
(-0.0316646 0.0380741 -3.24288e-22)
(-0.0600553 0.0421898 8.90229e-23)
(-0.0823755 0.040837 4.92365e-22)
(-0.104015 0.0379859 -4.18611e-23)
(-0.114622 0.032918 5.47893e-22)
(-0.132811 0.0320155 0)
(-0.125774 0.0208492 -3.81085e-22)
(-0.141416 0.0307653 -8.1209e-23)
(-0.126302 0.00761711 -4.66247e-22)
(-0.0106265 0.025828 8.69846e-23)
(-0.0328767 0.0452443 5.39342e-22)
(-0.0595217 0.050223 -4.16823e-22)
(-0.0791402 0.0486339 -2.9686e-25)
(-0.0978826 0.045104 -3.73314e-22)
(-0.103577 0.039199 1.38401e-22)
(-0.118759 0.0376017 -5.77996e-23)
(-0.102198 0.0246885 4.76628e-22)
(-0.115684 0.0370964 -8.13783e-23)
(-0.0888404 0.00777973 2.67012e-22)
(-0.0121328 0.0293472 4.35767e-23)
(-0.0342918 0.0516861 0)
(-0.0589107 0.0574699 -1.56847e-24)
(-0.0753344 0.0556724 0)
(-0.0905656 0.0513982 6.62136e-22)
(-0.0904141 0.044891 -5.48387e-22)
(-0.101781 0.0420766 0)
(-0.0733673 0.0281842 -1.12715e-24)
(-0.0842259 0.0429667 0)
(-0.0418413 0.00802388 0)
(-0.0137979 0.0323599 -7.02606e-22)
(-0.0358892 0.057307 -7.25746e-23)
(-0.0582239 0.063806 5.3775e-22)
(-0.0709821 0.0618235 9.96678e-23)
(-0.0820296 0.0567065 -6.66004e-22)
(-0.0751558 0.0499174 -4.10751e-22)
(-0.081662 0.0450786 -5.80901e-23)
(-0.0389941 0.0314245 4.7315e-22)
(-0.0465857 0.0476441 -8.16889e-23)
(0.0171078 0.00939957 6.75951e-23)
(-0.0155919 0.0348447 7.90969e-22)
(-0.0376441 0.0620321 -5.83389e-22)
(-0.0574496 0.0691186 -1.80221e-22)
(-0.066089 0.0669628 9.94242e-23)
(-0.0721773 0.0608765 6.65935e-22)
(-0.057778 0.0542323 6.18994e-22)
(-0.0579317 0.0461963 -5.82221e-23)
(0.00129412 0.0345885 9.46987e-23)
(-0.00256469 0.0503255 -1.63751e-22)
(0.0919967 0.0124152 6.88874e-23)
(-0.0174882 0.0367984 7.10601e-22)
(-0.0395263 0.0658057 5.83709e-22)
(-0.0565559 0.0733104 -8.45671e-22)
(-0.0606269 0.0709706 -9.97339e-23)
(-0.0608121 0.0637665 0)
(-0.0381687 0.0578377 0)
(-0.0298035 0.0452259 0)
(0.0485412 0.0376981 -1.50011e-21)
(0.0475643 0.0501291 -6.85004e-22)
(0.186524 0.0176267 5.24631e-22)
(-0.0194646 0.0382349 -1.42548e-21)
(-0.0414974 0.0685915 0)
(-0.055482 0.0763041 1.93598e-21)
(-0.054515 0.0737357 8.00827e-22)
(-0.0475919 0.0652505 8.33403e-23)
(-0.0159331 0.0606686 0)
(0.00372144 0.0423788 -9.51529e-22)
(0.104088 0.0410967 7.48677e-22)
(0.105473 0.0457242 6.84994e-22)
(0.302295 0.0255144 -5.24611e-22)
(-0.0215042 0.0391828 8.04623e-22)
(-0.0435066 0.0703725 -7.36664e-23)
(-0.054126 0.0780459 -9.69731e-22)
(-0.0475963 0.0751638 -9.01402e-22)
(-0.0320821 0.0653263 0)
(0.0098109 0.0624678 1.10268e-21)
(0.0443525 0.0381506 5.27376e-25)
(0.168747 0.0455868 6.46214e-22)
(0.176458 0.0373513 7.68878e-22)
(0.437705 0.0351918 -5.20345e-22)
(-0.023595 0.0396819 4.53462e-26)
(-0.0454855 0.0711503 1.26261e-21)
(-0.0523298 0.0785082 -1.21995e-22)
(-0.0395508 0.0751632 7.03686e-22)
(-0.0137596 0.0640871 4.20434e-22)
(0.0402761 0.0630131 2.80042e-22)
(0.0948742 0.0333982 9.49195e-22)
(0.242936 0.0510217 -8.40056e-22)
(0.268799 0.0289582 -5.2348e-22)
(0.586644 0.0454331 3.82854e-22)
(-0.025729 0.03978 0)
(-0.0473413 0.0709427 -1.03993e-21)
(-0.0498783 0.077697 -1.22492e-22)
(-0.0298655 0.0736701 1.62878e-24)
(0.00820261 0.0616156 6.70761e-22)
(0.0769812 0.0622137 -9.64032e-22)
(0.158439 0.0297258 9.43767e-22)
(0.327241 0.0559105 -9.61492e-23)
(0.388967 0.026473 0)
(0.738776 0.0562107 0)
(-0.0279005 0.0395288 9.138e-23)
(-0.0489466 0.0697833 -1.20015e-21)
(-0.0464792 0.0756604 0)
(-0.0178449 0.0707256 -9.94079e-23)
(0.0350105 0.05806 8.37468e-23)
(0.12205 0.0599467 0)
(0.23742 0.0291647 -9.4565e-22)
(0.423157 0.0591273 -7.43454e-22)
(0.53468 0.0332553 1.61932e-22)
(0.881924 0.068268 -1.36084e-22)
(-0.0301005 0.0389756 -9.18236e-23)
(-0.0501342 0.0677237 1.27552e-21)
(-0.0417214 0.0724692 0)
(-0.00258563 0.0664898 -9.0845e-22)
(0.068223 0.0537479 8.37897e-23)
(0.178156 0.0565387 -1.10445e-21)
(0.332336 0.0330537 -1.14386e-22)
(0.532569 0.0619868 8.39175e-22)
(0.692969 0.0479916 0)
(1.00554 0.081368 1.03515e-21)
(-0.0323085 0.0381582 -1.39638e-21)
(-0.0506933 0.0648285 -7.58469e-23)
(-0.0350521 0.0682165 -1.22945e-22)
(0.0170808 0.0612252 1.01694e-22)
(0.109803 0.0492671 -1.33774e-21)
(0.248137 0.0532476 1.10444e-21)
(0.441384 0.0414054 9.29718e-22)
(0.654332 0.0675376 7.43366e-22)
(0.845992 0.0669197 1.2852e-21)
(1.10346 0.0941319 -9.05643e-22)
(-0.0344886 0.0371044 1.48878e-21)
(-0.0503569 0.0611642 0)
(-0.0257789 0.0630364 1.11669e-21)
(0.0426015 0.0552843 -1.01972e-22)
(0.161996 0.0454394 2.67462e-21)
(0.334005 0.0520891 0)
(0.560675 0.0535063 -9.29699e-22)
(0.781404 0.0774008 -1.85658e-24)
(0.979067 0.0867467 -1.44056e-21)
(1.17456 0.105115 1.30592e-22)
(-0.036586 0.0358304 0)
(-0.0487961 0.056798 1.22703e-21)
(-0.0130652 0.0571038 -9.93405e-22)
(0.0756662 0.0491354 0)
(0.226961 0.0433255 -1.33688e-21)
(0.435342 0.0550919 0)
(0.68429 0.0686081 9.14595e-22)
(0.903043 0.0906358 -7.4148e-22)
(1.08477 0.105523 -1.22948e-21)
(1.22173 0.113329 -9.90633e-22)
(-0.0385199 0.0343375 -1.88877e-22)
(-0.0456206 0.0518011 -1.07199e-21)
(0.0040759 0.0506342 0)
(0.118123 0.0434346 0)
(0.306045 0.0441703 0)
(0.548286 0.0632318 -1.36609e-22)
(0.804831 0.0857313 -9.16687e-22)
(1.00997 0.105403 -9.3697e-23)
(1.16238 0.122089 1.22947e-21)
(1.25037 0.11804 1.11439e-21)
(-0.0401814 0.0326164 0)
(-0.0403775 0.0462476 -1.24452e-21)
(0.0267827 0.0438965 0)
(0.171773 0.0391262 0)
(0.398792 0.0491105 0)
(0.666028 0.0760231 1.35714e-22)
(0.91525 0.103524 -1.11973e-21)
(1.09729 0.120338 8.69232e-23)
(1.21559 0.135229 8.77067e-22)
(1.26739 0.118627 9.57375e-22)
(-0.0414468 0.0306632 0)
(-0.0325375 0.040199 1.24452e-21)
(0.05634 0.0372571 -1.01441e-21)
(0.237936 0.0374604 0)
(0.502199 0.0586446 -1.33452e-21)
(0.780851 0.0919773 0)
(1.01078 0.120795 8.95563e-22)
(1.16426 0.134374 -7.14605e-22)
(1.25008 0.143852 -1.17369e-21)
(1.29207 0.129215 -9.52465e-22)
(-0.0421755 0.0284636 1.58397e-21)
(-0.0215034 0.0337068 0)
(0.0941319 0.0312758 8.88686e-22)
(0.316779 0.0397407 1.03981e-22)
(0.610955 0.072292 2.66896e-21)
(0.886403 0.109419 0)
(1.08948 0.136829 -8.73984e-22)
(1.21297 0.146472 -1.41756e-21)
(1.27469 0.152049 -9.83367e-22)
(1.30128 0.135295 -5.31211e-24)
(-0.0421948 0.0259904 -1.68236e-21)
(-0.00660268 0.0268372 8.07623e-23)
(0.141476 0.0268172 1.26402e-22)
(0.406671 0.0467872 -1.0455e-22)
(0.718869 0.0888404 -1.33444e-21)
(0.978847 0.127043 1.07507e-21)
(1.15167 0.15122 8.7398e-22)
(1.24755 0.157119 7.02959e-22)
(1.28891 0.158489 1.12265e-21)
(1.30449 0.141073 -9.90604e-22)
(-0.0413139 0.0232159 9.9716e-23)
(0.0129418 0.0196993 1.21391e-21)
(0.199291 0.0250601 0)
(0.504092 0.058489 -7.26956e-22)
(0.820578 0.106946 -8.46623e-23)
(1.05674 0.14402 -1.07506e-21)
(1.19919 0.164019 1.04685e-22)
(1.27065 0.166269 5.88774e-22)
(1.29663 0.164187 0)
(1.30448 0.146091 8.81676e-22)
(-0.0393254 0.0201121 -1.02907e-22)
(0.0380126 0.0125278 -1.29575e-21)
(0.267637 0.0272408 0)
(0.604361 0.0738967 9.7526e-23)
(0.912512 0.125555 -8.48868e-23)
(1.12034 0.159949 0)
(1.23424 0.17535 -8.36575e-22)
(1.28524 0.174284 -6.76398e-22)
(1.29956 0.169185 -1.29079e-22)
(1.30124 0.150628 -1.08581e-22)
(-0.0359919 0.0166507 0)
(0.0695336 0.00580984 -1.49379e-21)
(0.345366 0.0341664 1.33907e-22)
(0.702809 0.0917713 -5.21404e-24)
(0.992917 0.144 -6.65561e-22)
(1.17086 0.174687 -1.1765e-21)
(1.25913 0.185432 9.43606e-22)
(1.29346 0.181392 0)
(1.29913 0.173761 0)
(1.29692 0.154946 0)
(-0.0310192 0.0128119 2.29097e-24)
(0.108317 0.000389962 1.25256e-21)
(0.430117 0.0458425 1.35597e-22)
(0.795719 0.111065 9.41684e-22)
(1.0614 0.161914 5.80228e-22)
(1.20994 0.18825 -1.14679e-22)
(1.27596 0.194491 8.14249e-22)
(1.29708 0.187848 -5.48898e-22)
(1.29653 0.178064 -6.16065e-22)
(1.29139 0.159114 4.9449e-22)
(-0.0240302 0.00860704 7.7859e-22)
(0.154833 -0.00256077 8.75391e-23)
(0.518744 0.0615461 -1.08337e-21)
(0.880686 0.131059 -8.48634e-22)
(1.1184 0.179117 0)
(1.23931 0.200738 1.03656e-21)
(1.28652 0.20275 -1.58213e-23)
(1.29738 0.193848 7.07089e-22)
(1.29239 0.182215 4.30796e-22)
(1.28539 0.163225 -3.9185e-22)
(-0.0145594 0.00411521 -1.79219e-21)
(0.208983 -0.00178576 0)
(0.607941 0.0802552 2.18298e-21)
(0.956491 0.151314 7.45602e-22)
(1.16483 0.195547 8.55167e-23)
(1.26062 0.212292 0)
(1.29228 0.210412 -7.9176e-22)
(1.29533 0.199552 5.99138e-22)
(1.28726 0.186296 4.64897e-22)
(1.27893 0.167322 -3.66103e-22)
(-0.00208034 -0.000473507 9.0695e-22)
(0.269982 0.00367593 7.06845e-22)
(0.694774 0.101057 -1.23367e-21)
(1.02277 0.17159 1.10887e-22)
(1.20183 0.211212 0)
(1.27536 0.223069 0)
(1.29439 0.217651 0)
(1.2916 0.205078 -1.18112e-21)
(1.28141 0.190364 -4.64902e-22)
(1.2722 0.171423 3.66086e-22)
(0.0139256 -0.0048153 8.40349e-22)
(0.336434 0.0141918 -7.01111e-22)
(0.776956 0.123301 7.1947e-23)
(1.07969 0.191773 0)
(1.23058 0.226162 6.46291e-22)
(1.28479 0.233222 4.28482e-22)
(1.29376 0.224611 4.9187e-23)
(1.28665 0.210506 -5.1072e-23)
(1.27504 0.19445 1.11256e-22)
(1.26521 0.175539 -4.4942e-23)
(0.0338414 -0.00838415 -9.53729e-22)
(0.406564 0.0295079 8.87033e-23)
(0.85289 0.146557 5.69828e-22)
(1.12774 0.211797 -1.58707e-22)
(1.25223 0.240467 -4.84784e-22)
(1.28995 0.242893 -6.08818e-22)
(1.29105 0.2314 4.81016e-23)
(1.2808 0.215892 2.91361e-22)
(1.26826 0.198572 0)
(1.25801 0.179662 -3.99374e-23)
(0.0578355 -0.010521 -6.18226e-23)
(0.478477 0.0489648 0)
(0.921611 0.170523 6.1626e-24)
(1.16754 0.231611 0)
(1.26782 0.254206 6.29923e-22)
(1.29172 0.252202 -4.66819e-22)
(1.28674 0.238096 0)
(1.27425 0.221265 9.6976e-24)
(1.26114 0.202733 0)
(1.25058 0.183784 0)
(0.0858482 -0.0105353 -1.2357e-22)
(0.550365 0.0717974 8.06423e-22)
(0.982664 0.194981 -6.49733e-22)
(1.19979 0.251158 1.0737e-22)
(1.27828 0.267459 -2.88038e-22)
(1.29075 0.261248 -4.97764e-23)
(1.28119 0.244747 0)
(1.26712 0.226638 2.01398e-22)
(1.25369 0.206927 5.17433e-23)
(1.24292 0.187885 1.47679e-22)
(0.117583 -0.00782687 -5.20742e-22)
(0.620611 0.0973298 -3.2544e-22)
(1.03597 0.219768 -1.07014e-22)
(1.2252 0.270377 4.2884e-22)
(1.28443 0.280298 3.52997e-23)
(1.28759 0.270107 4.5504e-22)
(1.27462 0.251382 0)
(1.2595 0.23201 -2.4234e-22)
(1.24592 0.211142 4.49357e-23)
(1.23501 0.191948 -3.25382e-22)
(0.152543 -0.0019949 -5.20741e-22)
(0.687831 0.125026 3.38543e-22)
(1.08173 0.244762 -4.1095e-24)
(1.24445 0.289213 -4.99071e-22)
(1.28693 0.292785 -2.63019e-22)
(1.28262 0.278831 -2.56501e-23)
(1.26721 0.258006 2.14168e-23)
(1.25141 0.237368 2.70519e-22)
(1.23785 0.21536 -2.32452e-24)
(1.22684 0.195946 1.05776e-22)
(0.190084 0.00711048 -2.68336e-22)
(0.750877 0.154454 0)
(1.12028 0.269855 -2.9216e-22)
(1.25822 0.307616 0)
(1.28634 0.304965 -3.31115e-22)
(1.27617 0.287452 2.85292e-23)
(1.25905 0.264614 0)
(1.24288 0.242692 0)
(1.22945 0.219558 0)
(1.21839 0.199854 0)
(0.229469 0.0194114 2.35361e-22)
(0.808838 0.185236 1.13671e-22)
(1.15207 0.29494 2.92161e-22)
(1.26709 0.325551 0)
(1.28312 0.316868 0)
(1.26843 0.29598 -1.18451e-23)
(1.25022 0.271183 4.54858e-23)
(1.2339 0.247956 5.18524e-23)
(1.22072 0.223709 4.7875e-23)
(1.20968 0.203639 -7.93207e-24)
(0.269912 0.0346793 -4.25806e-24)
(0.861069 0.217004 -1.06368e-22)
(1.17757 0.319901 4.87074e-24)
(1.27163 0.342999 5.73386e-24)
(1.27761 0.328508 -8.75171e-24)
(1.25957 0.304409 3.32412e-24)
(1.24074 0.277684 -3.96567e-23)
(1.22449 0.253129 -4.84541e-23)
(1.21165 0.22778 -3.62403e-23)
(1.20072 0.20727 1.4467e-24)
(0.310613 0.0526176 0)
(0.90723 0.249414 -1.07268e-22)
(1.19715 0.344617 -3.29299e-24)
(1.27231 0.359946 6.73801e-24)
(1.27011 0.339884 1.201e-37)
(1.24969 0.312713 -8.41068e-38)
(1.23065 0.284079 -3.54883e-23)
(1.21463 0.258175 -4.21292e-23)
(1.20223 0.231729 -3.31031e-23)
(1.19154 0.210711 0)
(0.350793 0.0729107 3.08537e-22)
(0.947224 0.282175 8.79446e-23)
(1.2112 0.368975 2.91102e-22)
(1.26955 0.376365 -1.31466e-23)
(1.26085 0.350977 0)
(1.23888 0.320855 1.01005e-23)
(1.21995 0.290323 2.32389e-23)
(1.20432 0.263056 4.53238e-23)
(1.19246 0.235509 2.56513e-23)
(1.18212 0.21394 6.2633e-24)
(0.38971 0.0952581 -2.74981e-22)
(0.98105 0.315025 0)
(1.22012 0.392852 -2.75211e-22)
(1.26371 0.39222 0)
(1.25 0.361753 -2.75673e-23)
(1.22718 0.328787 2.29542e-23)
(1.20866 0.296369 0)
(1.19354 0.267732 0)
(1.18233 0.239078 0)
(1.17243 0.216936 0)
(0.426678 0.119382 5.45119e-22)
(1.00879 0.347724 -3.49524e-22)
(1.22427 0.416125 -6.69498e-23)
(1.25508 0.407467 -2.73323e-22)
(1.23771 0.372164 -2.52591e-22)
(1.21463 0.336452 1.74821e-23)
(1.19675 0.302166 -1.45968e-23)
(1.1823 0.272156 1.20654e-22)
(1.1719 0.242406 2.11999e-24)
(1.16239 0.219675 8.78891e-23)
(0.461083 0.145014 -5.4512e-22)
(1.03059 0.380047 -4.21792e-22)
(1.224 0.438668 9.31905e-23)
(1.24394 0.422057 3.26614e-22)
(1.22409 0.382151 -1.51236e-23)
(1.20126 0.343789 2.68973e-22)
(1.18425 0.30766 0)
(1.17058 0.276271 -1.3753e-22)
(1.16118 0.245485 -2.10607e-23)
(1.15197 0.222174 -1.10189e-22)
(0.492393 0.171884 1.2972e-22)
(1.04663 0.411775 7.20961e-22)
(1.21962 0.460353 -4.18986e-22)
(1.23052 0.43593 -7.90982e-23)
(1.20921 0.391647 -1.87251e-22)
(1.18708 0.35073 3.9309e-23)
(1.17114 0.312793 -2.41064e-23)
(1.15843 0.280013 1.3149e-22)
(1.1502 0.248297 -2.19096e-23)
(1.14124 0.224466 5.88566e-23)
(0.520169 0.199701 6.56913e-23)
(1.0571 0.442696 0)
(1.21143 0.481048 2.66218e-23)
(1.21503 0.449018 0)
(1.19315 0.400577 3.76456e-22)
(1.17212 0.357204 -2.42668e-22)
(1.15746 0.317506 0)
(1.14591 0.283338 -1.68353e-23)
(1.13885 0.250783 0)
(1.13032 0.226367 0)
(0.544063 0.228154 -1.00862e-21)
(1.06224 0.472593 -7.7766e-23)
(1.19972 0.500619 5.10523e-22)
(1.19761 0.461245 5.78251e-23)
(1.17596 0.408854 -3.86693e-22)
(1.15644 0.363136 -1.34294e-22)
(1.14327 0.321737 -1.84989e-23)
(1.13302 0.286222 7.18564e-23)
(1.12713 0.2529 -1.50892e-23)
(1.11922 0.227912 7.75357e-24)
(0.563819 0.256908 1.1226e-21)
(1.06227 0.501244 -6.74326e-22)
(1.18473 0.518928 -1.47504e-22)
(1.17841 0.472527 7.20912e-23)
(1.15773 0.416388 3.03174e-22)
(1.14012 0.368448 2.04615e-22)
(1.12856 0.325428 -1.55174e-23)
(1.11975 0.288632 -2.1898e-23)
(1.11506 0.254605 -1.97445e-23)
(1.10795 0.229038 6.90578e-24)
(0.579271 0.28561 9.29458e-22)
(1.05743 0.528426 6.54032e-22)
(1.1667 0.535828 -6.18748e-22)
(1.15761 0.482772 -6.52386e-23)
(1.13861 0.423106 0)
(1.12313 0.373056 0)
(1.11333 0.328525 0)
(1.10613 0.290526 -1.7698e-22)
(1.10268 0.255865 -3.58074e-23)
(1.09653 0.229727 1.05144e-23)
(0.590337 0.313902 -1.8086e-21)
(1.04798 0.553919 0)
(1.14583 0.551153 1.31837e-21)
(1.13541 0.491883 3.39906e-22)
(1.11864 0.42893 0)
(1.10545 0.376886 0)
(1.09765 0.33096 -8.46161e-23)
(1.09218 0.291862 7.02108e-23)
(1.09003 0.256645 3.58077e-23)
(1.08497 0.229943 -1.0514e-23)
(0.597011 0.341419 9.74231e-22)
(1.03421 0.577523 -7.80501e-23)
(1.12235 0.564732 -6.2075e-22)
(1.11194 0.499741 -3.71476e-22)
(1.09781 0.433778 2.62029e-23)
(1.08717 0.379873 1.14713e-22)
(1.08153 0.332677 5.08848e-23)
(1.07792 0.292601 -5.74599e-24)
(1.07715 0.25691 -2.21912e-23)
(1.07332 0.229658 3.42321e-23)
(0.599366 0.367796 -1.16906e-23)
(1.01646 0.599052 9.41715e-22)
(1.09655 0.576449 -8.21596e-23)
(1.08722 0.506185 1.9097e-22)
(1.07621 0.437573 8.55347e-23)
(1.06832 0.381948 -4.73269e-23)
(1.06504 0.333619 2.76308e-23)
(1.0634 0.292703 6.38611e-24)
(1.06406 0.256626 -3.38209e-23)
(1.0616 0.228844 -2.47248e-23)
(0.597541 0.392664 0)
(0.995003 0.618279 -8.27932e-22)
(1.06868 0.58621 -7.05377e-23)
(1.06137 0.511083 -6.67412e-23)
(1.05392 0.440211 -8.56372e-23)
(1.04899 0.38305 -4.72863e-23)
(1.04823 0.333735 -7.65806e-23)
(1.04865 0.292131 0)
(1.0508 0.255759 0)
(1.04986 0.227466 0)
(0.591737 0.415699 8.08593e-23)
(0.969932 0.634858 -6.6158e-22)
(1.0391 0.593971 0)
(1.03454 0.51436 -7.7585e-23)
(1.03102 0.441603 6.99938e-24)
(1.02924 0.383116 0)
(1.03116 0.332978 7.1261e-23)
(1.03372 0.290852 1.23407e-22)
(1.0374 0.254273 -2.5588e-23)
(1.03812 0.225478 2.14924e-23)
(0.582176 0.436684 -5.86789e-23)
(0.94147 0.648491 7.0975e-22)
(1.00807 0.599585 0)
(1.00687 0.515976 -7.9431e-23)
(1.00761 0.441664 1.63781e-25)
(1.00915 0.382091 1.74599e-22)
(1.01388 0.331308 2.01462e-23)
(1.01865 0.288834 -1.4027e-22)
(1.02389 0.252133 0)
(1.02644 0.22284 -2.47772e-22)
(0.569074 0.455398 -8.10601e-22)
(0.910098 0.659062 -3.91962e-23)
(0.975741 0.602845 -5.72331e-24)
(0.978506 0.515864 4.73418e-24)
(0.983766 0.44032 2.32308e-22)
(0.988793 0.379922 -1.74601e-22)
(0.99646 0.328688 -2.34088e-22)
(1.00347 0.286045 -2.04013e-22)
(1.01031 0.249312 -3.47157e-22)
(1.01494 0.219547 2.1688e-22)
(0.55255 0.471487 8.58355e-22)
(0.87638 0.666558 0)
(0.94235 0.60362 -4.56504e-23)
(0.949596 0.513957 5.24274e-24)
(0.959611 0.437512 -5.70136e-22)
(0.968262 0.376562 0)
(0.978963 0.325086 2.3409e-22)
(0.988222 0.282448 -4.0584e-23)
(0.996778 0.245782 3.93953e-22)
(1.00391 0.215636 -3.92986e-23)
(0.532817 0.484531 0)
(0.840698 0.670825 7.84065e-23)
(0.908096 0.601847 3.93126e-23)
(0.920294 0.510187 0)
(0.935252 0.433189 3.37829e-22)
(0.947644 0.371973 0)
(0.961444 0.320476 -3.44014e-22)
(0.972954 0.278003 2.446e-22)
(0.983452 0.241503 4.66336e-22)
(0.993654 0.211174 3.68368e-22)
(0.510363 0.494362 -2.35929e-23)
(0.803398 0.671726 -5.90408e-23)
(0.873208 0.597466 0)
(0.890757 0.504492 0)
(0.910805 0.427308 0)
(0.927031 0.366126 5.52851e-23)
(0.943964 0.31484 2.51815e-22)
(0.957759 0.272685 3.85362e-23)
(0.970528 0.236417 -4.66339e-22)
(0.984045 0.206111 -4.1369e-22)
(0.485603 0.500809 0)
(0.764823 0.669147 2.33693e-22)
(0.837926 0.590435 0)
(0.861147 0.496823 0)
(0.886395 0.41984 0)
(0.906515 0.358996 -6.415e-23)
(0.926596 0.308162 5.59115e-22)
(0.942758 0.266497 -1.28269e-22)
(0.958087 0.230536 -4.42041e-22)
(0.974426 0.198949 -4.48009e-22)
(0.458949 0.50374 0)
(0.725333 0.663008 -2.33694e-22)
(0.802492 0.580725 4.7242e-22)
(0.831629 0.487143 0)
(0.862144 0.410763 7.62981e-22)
(0.886192 0.35057 0)
(0.90943 0.300427 -4.53099e-22)
(0.928066 0.259453 4.03374e-22)
(0.94588 0.224317 5.79137e-22)
(0.963524 0.193772 4.46644e-22)
(0.430811 0.50306 -4.20967e-22)
(0.685292 0.653261 0)
(0.767149 0.568328 -4.03528e-22)
(0.802372 0.47543 -5.69886e-23)
(0.838181 0.400067 -1.6302e-21)
(0.86616 0.340839 0)
(0.892557 0.291623 5.59172e-22)
(0.913747 0.251477 3.76603e-23)
(0.934025 0.217043 6.08243e-22)
(0.95305 0.187145 2.43627e-24)
(0.401599 0.498718 4.61144e-22)
(0.645064 0.63989 -3.29789e-23)
(0.732141 0.553251 -8.13257e-23)
(0.773547 0.461679 -6.72708e-23)
(0.814635 0.387756 8.67219e-22)
(0.846521 0.329807 -7.7349e-22)
(0.87606 0.281766 -5.59176e-22)
(0.899806 0.242666 -4.41039e-22)
(0.922361 0.209193 -6.87581e-22)
(0.942559 0.180296 6.38007e-22)
(0.371718 0.4907 -5.32248e-23)
(0.605011 0.622909 -8.16387e-22)
(0.697708 0.53552 0)
(0.745326 0.445899 5.83305e-22)
(0.791634 0.37384 6.43523e-23)
(0.827379 0.317483 7.73495e-22)
(0.86003 0.270857 -7.6889e-23)
(0.886314 0.232971 -4.48667e-22)
(0.911039 0.200562 0)
(0.932369 0.172752 -5.69121e-22)
(0.341564 0.47903 6.14535e-23)
(0.565491 0.602359 8.6008e-22)
(0.664084 0.515181 0)
(0.717879 0.428116 -1.594e-23)
(0.76931 0.358344 7.11364e-23)
(0.808836 0.30389 0)
(0.844543 0.258923 7.07886e-22)
(0.873305 0.222445 5.13025e-22)
(0.900075 0.191282 9.79181e-23)
(0.92253 0.164672 -8.22485e-23)
(0.311524 0.463769 0)
(0.52685 0.578313 1.29604e-21)
(0.631502 0.492296 -1.14824e-22)
(0.691374 0.408372 6.72214e-23)
(0.747789 0.341303 6.29222e-22)
(0.790994 0.289057 1.0898e-21)
(0.829678 0.245987 -8.03066e-22)
(0.860842 0.211095 0)
(0.88954 0.18133 0)
(0.913125 0.156014 0)
(0.281972 0.445016 2.41715e-24)
(0.489426 0.550872 -1.07544e-21)
(0.600181 0.466946 1.28348e-22)
(0.665974 0.386724 -8.9899e-22)
(0.727197 0.322766 -5.45247e-22)
(0.773952 0.273023 1.83026e-22)
(0.815511 0.232083 -8.05273e-22)
(0.848978 0.198959 5.32497e-22)
(0.879486 0.170747 5.75217e-22)
(0.904209 0.146812 -4.49028e-22)
(0.253266 0.422909 -7.54901e-22)
(0.453537 0.520157 -8.41086e-23)
(0.570338 0.439231 1.17947e-21)
(0.641837 0.363243 9.22932e-22)
(0.707657 0.302791 0)
(0.757806 0.255838 -1.03751e-21)
(0.802115 0.217252 -4.09597e-23)
(0.837769 0.186069 -6.85329e-22)
(0.869968 0.159553 -4.03313e-22)
(0.895827 0.137086 3.57356e-22)
(0.225746 0.397627 1.80846e-21)
(0.419482 0.486309 0)
(0.542178 0.409263 -2.44336e-21)
(0.619117 0.338016 -8.07786e-22)
(0.689286 0.281446 -9.55836e-23)
(0.742649 0.237558 0)
(0.789561 0.201541 8.38127e-22)
(0.827271 0.172465 -6.66681e-22)
(0.861036 0.14778 -5.06885e-22)
(0.88802 0.126867 3.87637e-22)
(0.199727 0.369392 -9.511e-22)
(0.387537 0.449485 -8.36792e-22)
(0.5159 0.377169 1.42187e-21)
(0.597957 0.311144 -1.30678e-22)
(0.672197 0.258811 0)
(0.728567 0.218249 0)
(0.777915 0.185004 0)
(0.817535 0.158192 1.35837e-21)
(0.85274 0.135461 5.06887e-22)
(0.880821 0.116188 -3.87637e-22)
(0.175478 0.338425 -9.85342e-22)
(0.35797 0.409896 8.33714e-22)
(0.491697 0.343093 8.77414e-23)
(0.578495 0.28274 0)
(0.656495 0.234978 -8.23749e-22)
(0.715644 0.197984 -5.49914e-22)
(0.767241 0.167699 -6.1128e-23)
(0.808612 0.143297 1.0675e-22)
(0.845125 0.122634 -1.34283e-22)
(0.874261 0.105088 5.36207e-23)
(0.153238 0.30493 1.11883e-21)
(0.331034 0.367796 -1.12316e-22)
(0.469743 0.307198 -9.18957e-22)
(0.560858 0.252933 2.04658e-22)
(0.642278 0.210044 6.13392e-22)
(0.703953 0.176844 7.82395e-22)
(0.757597 0.149691 -6.32272e-23)
(0.800549 0.127834 -3.47027e-22)
(0.838235 0.109343 0)
(0.868368 0.0936079 5.04216e-23)
(0.133233 0.269134 7.66114e-23)
(0.306958 0.323448 0)
(0.450191 0.269665 -2.84611e-23)
(0.545161 0.22186 0)
(0.629635 0.184119 -8.79604e-22)
(0.693566 0.154915 6.61767e-22)
(0.749035 0.131052 0)
(0.793389 0.111858 8.96631e-24)
(0.83211 0.0956326 0)
(0.863164 0.0817915 0)
(0.115672 0.231297 1.58791e-22)
(0.28594 0.277122 -1.08274e-21)
(0.433176 0.230687 8.61372e-22)
(0.531509 0.18967 -1.48136e-22)
(0.618645 0.157317 3.80902e-22)
(0.684543 0.132291 1.04038e-22)
(0.741603 0.111856 0)
(0.787171 0.0954294 -2.85684e-22)
(0.826786 0.0815537 -7.6097e-23)
(0.85867 0.069685 -2.20608e-22)
(0.100742 0.1917 6.78593e-22)
(0.268155 0.229098 -1.60568e-21)
(0.418815 0.190468 1.4806e-22)
(0.519991 0.15652 -6.18709e-22)
(0.609378 0.129762 -6.93572e-23)
(0.676939 0.109069 -6.77259e-22)
(0.735343 0.0921817 0)
(0.781932 0.078614 3.90425e-22)
(0.822296 0.0671589 -6.9911e-23)
(0.854901 0.057335 5.03224e-22)
(0.0886031 0.150641 -6.78594e-22)
(0.253749 0.179667 5.88865e-22)
(0.407207 0.149222 -1.02259e-22)
(0.510684 0.122575 7.25929e-22)
(0.601893 0.101583 3.99048e-22)
(0.670799 0.0853516 4.14269e-23)
(0.73029 0.072112 -3.45893e-23)
(0.777702 0.061479 -4.37272e-22)
(0.818667 0.0525043 3.86257e-24)
(0.85187 0.0447884 -1.67183e-22)
(0.0793842 0.108431 3.54875e-22)
(0.24284 0.129131 0)
(0.398431 0.107169 4.19872e-22)
(0.503649 0.0880043 0)
(0.596236 0.0729127 5.60243e-23)
(0.666161 0.0612456 -4.66488e-23)
(0.726475 0.051732 0)
(0.774506 0.0440936 0)
(0.815923 0.0376474 0)
(0.849589 0.0320928 0)
(0.0731833 0.0653924 -3.10877e-22)
(0.235517 0.0777985 -1.19757e-22)
(0.392547 0.0645346 -4.19872e-22)
(0.498933 0.0529836 0)
(0.592445 0.0438896 0)
(0.663053 0.0368599 2.11296e-23)
(0.723919 0.0311289 -8.43602e-23)
(0.772364 0.0265284 -1.00282e-22)
(0.814083 0.0226461 -9.37159e-23)
(0.848063 0.0192949 1.51336e-23)
(0.0700663 0.0218532 -5.62701e-24)
(0.231841 0.0259863 1.29178e-22)
(0.389595 0.0215505 -5.79342e-24)
(0.496568 0.0176914 1.99708e-23)
(0.590544 0.0146536 -7.87395e-24)
(0.661494 0.0123054 0)
(0.722637 0.0103913 6.67181e-23)
(0.77129 0.00885484 1.00282e-22)
(0.813159 0.0075583 7.11787e-23)
(0.847299 0.00643799 1.06531e-23)
(0.0700663 -0.0218532 -5.62701e-24)
(0.231841 -0.0259863 1.29178e-22)
(0.389595 -0.0215505 -5.79342e-24)
(0.496568 -0.0176915 1.99708e-23)
(0.590544 -0.0146536 -7.87395e-24)
(0.661494 -0.0123054 0)
(0.722637 -0.0103913 5.87658e-23)
(0.77129 -0.00885485 1.06938e-22)
(0.813159 -0.00755832 7.56983e-23)
(0.847299 -0.006438 0)
(0.0731833 -0.0653924 -3.98872e-22)
(0.235517 -0.0777985 -1.55307e-22)
(0.392547 -0.0645346 -4.45092e-22)
(0.498933 -0.0529836 2.08615e-23)
(0.592445 -0.0438897 0)
(0.663053 -0.0368599 -2.11296e-23)
(0.723919 -0.0311289 -4.90759e-23)
(0.772364 -0.0265284 -1.00282e-22)
(0.814083 -0.0226461 -5.76805e-23)
(0.848063 -0.0192949 -1.51336e-23)
(0.0793842 -0.108431 3.54875e-22)
(0.24284 -0.129131 0)
(0.398431 -0.107169 4.19872e-22)
(0.503649 -0.0880044 0)
(0.596236 -0.0729127 5.60243e-23)
(0.666161 -0.0612457 -4.66488e-23)
(0.726475 -0.0517321 0)
(0.774506 -0.0440936 0)
(0.815923 -0.0376474 0)
(0.849589 -0.0320928 0)
(0.0886031 -0.150641 -6.78594e-22)
(0.253749 -0.179667 4.59913e-22)
(0.407207 -0.149222 1.02259e-22)
(0.510684 -0.122575 4.97089e-22)
(0.601893 -0.101583 5.21526e-22)
(0.670799 -0.0853516 -4.14269e-23)
(0.73029 -0.0721121 3.45893e-23)
(0.777702 -0.0614791 -3.43578e-22)
(0.818667 -0.0525043 -3.86257e-24)
(0.85187 -0.0447884 -2.80608e-22)
(0.100742 -0.1917 6.78593e-22)
(0.268155 -0.229098 5.56899e-22)
(0.418815 -0.190468 -1.4806e-22)
(0.519991 -0.15652 -6.04307e-22)
(0.609378 -0.129762 5.08108e-23)
(0.676939 -0.109069 -6.77259e-22)
(0.735343 -0.0921817 0)
(0.781932 -0.0786141 3.90425e-22)
(0.822296 -0.0671589 6.9911e-23)
(0.854901 -0.057335 3.85782e-22)
(0.115672 -0.231297 -1.58791e-22)
(0.28594 -0.277122 1.08274e-21)
(0.433176 -0.230687 6.7405e-22)
(0.531509 -0.18967 1.48136e-22)
(0.618645 -0.157317 4.76284e-22)
(0.684543 -0.132291 -1.5296e-22)
(0.741603 -0.111856 6.67118e-23)
(0.787171 -0.0954294 -4.67122e-22)
(0.826786 -0.0815538 7.6097e-23)
(0.85867 -0.069685 -2.20608e-22)
(0.133233 -0.269134 -7.66114e-23)
(0.306958 -0.323448 0)
(0.450191 -0.269665 -2.84611e-23)
(0.545161 -0.22186 0)
(0.629635 -0.184119 -8.79603e-22)
(0.693566 -0.154915 6.61767e-22)
(0.749035 -0.131052 0)
(0.793389 -0.111858 8.96631e-24)
(0.83211 -0.0956326 0)
(0.863164 -0.0817915 0)
(0.153238 -0.30493 1.11883e-21)
(0.331034 -0.367796 1.12316e-22)
(0.469743 -0.307198 -6.46708e-22)
(0.560858 -0.252933 -1.32551e-22)
(0.642278 -0.210044 1.03411e-21)
(0.703953 -0.176844 4.6386e-22)
(0.757597 -0.149691 6.32272e-23)
(0.800549 -0.127834 -4.33541e-22)
(0.838235 -0.109343 7.25703e-23)
(0.868368 -0.0936079 -5.04216e-23)
(0.175478 -0.338426 -1.25231e-21)
(0.35797 -0.409896 8.39874e-22)
(0.491697 -0.343093 7.88169e-23)
(0.578495 -0.28274 -1.37774e-22)
(0.656495 -0.234978 -8.23749e-22)
(0.715644 -0.197984 -6.96338e-22)
(0.767241 -0.167699 6.1128e-23)
(0.808612 -0.143297 -6.1212e-23)
(0.845125 -0.122634 1.34283e-22)
(0.874261 -0.105088 -5.36207e-23)
(0.199727 -0.369392 -9.511e-22)
(0.387537 -0.449485 -8.36792e-22)
(0.5159 -0.377169 1.10591e-21)
(0.597957 -0.311144 1.30678e-22)
(0.672197 -0.258811 0)
(0.728567 -0.218249 0)
(0.777915 -0.185004 0)
(0.817535 -0.158192 1.35837e-21)
(0.85274 -0.135461 5.06887e-22)
(0.880821 -0.116188 -3.87637e-22)
(0.225746 -0.397627 1.80846e-21)
(0.419482 -0.486309 0)
(0.542178 -0.409263 -2.44336e-21)
(0.619117 -0.338016 -9.22936e-22)
(0.689286 -0.281446 0)
(0.742649 -0.237558 0)
(0.789561 -0.201541 8.38127e-22)
(0.827271 -0.172465 -6.66681e-22)
(0.861036 -0.14778 -5.06885e-22)
(0.88802 -0.126867 3.87637e-22)
(0.253266 -0.422909 -9.59828e-22)
(0.453537 -0.520157 8.41086e-23)
(0.570338 -0.439231 1.17947e-21)
(0.641837 -0.363243 1.0313e-21)
(0.707657 -0.302791 -8.99547e-23)
(0.757806 -0.255838 -1.03751e-21)
(0.802115 -0.217252 -4.09597e-23)
(0.837769 -0.186069 -5.35672e-22)
(0.869968 -0.159553 -5.28849e-22)
(0.895827 -0.137086 3.57356e-22)
(0.281972 -0.445016 -2.41715e-24)
(0.489426 -0.550872 -1.23792e-21)
(0.600181 -0.466946 -1.28348e-22)
(0.665974 -0.386724 -6.96653e-22)
(0.727197 -0.322766 -5.55759e-22)
(0.773952 -0.273023 -1.90729e-22)
(0.815511 -0.232083 -7.89048e-22)
(0.848978 -0.198959 6.88498e-22)
(0.879486 -0.170747 3.56941e-22)
(0.904209 -0.146812 -2.65685e-22)
(0.311524 -0.463769 0)
(0.52685 -0.578313 1.01731e-21)
(0.631502 -0.492296 1.14824e-22)
(0.691374 -0.408372 6.72214e-23)
(0.747789 -0.341304 6.29222e-22)
(0.790994 -0.289057 8.61817e-22)
(0.829678 -0.245987 -7.00718e-22)
(0.860842 -0.211095 7.36584e-23)
(0.88954 -0.18133 0)
(0.913125 -0.156014 0)
(0.341564 -0.47903 -6.14535e-23)
(0.565491 -0.602359 8.6008e-22)
(0.664085 -0.515181 0)
(0.717879 -0.428116 1.55457e-22)
(0.76931 -0.358344 -7.11364e-23)
(0.808836 -0.30389 0)
(0.844543 -0.258923 7.07886e-22)
(0.873305 -0.222445 5.13025e-22)
(0.900075 -0.191282 -9.79181e-23)
(0.92253 -0.164672 8.22484e-23)
(0.371718 -0.4907 5.32247e-23)
(0.605011 -0.622909 -9.03766e-22)