/*--------------------------------*- C++ -*----------------------------------*\
  =========                 |
  \\      /  F ield         | OpenFOAM: The Open Source CFD Toolbox
   \\    /   O peration     | Website:  https://openfoam.org
    \\  /    A nd           | Version:  9
     \\/     M anipulation  |
\*---------------------------------------------------------------------------*/
FoamFile
{
    format      ascii;
    class       volVectorField;
    location    "0.9";
    object      U;
}
// * * * * * * * * * * * * * * * * * * * * * * * * * * * * * * * * * * * * * //

dimensions      [0 1 -1 0 0 0 0];

internalField   nonuniform List<vector> 
8500
(
(-0.0062634 0.00142243 0)
(-0.0135654 9.78759e-05 -6.46493e-23)
(-0.00637685 -0.00322427 -3.44324e-24)
(0.0254302 -0.00765038 5.412e-37)
(0.0828706 -0.0123472 -5.57375e-24)
(0.164008 -0.0165883 4.67469e-24)
(0.262929 -0.019687 -1.70395e-23)
(0.371623 -0.021171 -1.46123e-23)
(0.479828 -0.0208715 -5.35106e-24)
(0.581797 -0.0191843 -1.13229e-25)
(-0.00637411 0.00421753 1.8843e-22)
(-0.0130574 0.000227141 6.00831e-23)
(-0.00470933 -0.0097117 2.25224e-22)
(0.0284223 -0.0229393 0)
(0.0871781 -0.0369622 0)
(0.1694 -0.04961 6.6033e-24)
(0.268995 -0.0588347 1.14941e-23)
(0.377862 -0.0632318 1.52715e-23)
(0.48568 -0.0623142 4.29569e-24)
(0.587094 -0.0572514 5.35017e-25)
(-0.00658313 0.00686484 -1.67675e-22)
(-0.0120266 0.000158893 0)
(-0.0013699 -0.016314 -2.12831e-22)
(0.0343938 -0.0381919 0)
(0.0957573 -0.0613393 -2.30758e-23)
(0.180122 -0.0821691 1.93536e-23)
(0.281036 -0.0973078 0)
(0.390229 -0.104455 0)
(0.497264 -0.102864 0)
(0.597569 -0.0944233 0)
(-0.00686613 0.00927067 3.48287e-22)
(-0.0104433 -0.000232653 -2.52165e-22)
(0.00365027 -0.0231018 -5.41082e-23)
(0.0433198 -0.0533811 -3.07758e-22)
(0.108537 -0.0853211 -2.51062e-22)
(0.196048 -0.113964 1.42996e-23)
(0.298874 -0.134671 -1.20086e-23)
(0.408504 -0.144305 7.10398e-23)
(0.51435 -0.141954 3.58686e-24)
(0.612989 -0.130133 8.4811e-24)
(-0.00718776 0.0113486 -3.48287e-22)
(-0.00826361 -0.00106436 -3.34164e-22)
(0.0103647 -0.0301373 8.16267e-23)
(0.0551635 -0.0684759 4.0394e-22)
(0.125414 -0.108753 -4.00518e-23)
(0.216995 -0.144705 2.92985e-22)
(0.322248 -0.17051 0)
(0.432365 -0.182277 -7.79373e-23)
(0.536598 -0.179054 -5.91162e-24)
(0.633015 -0.163857 -1.24711e-23)
(-0.00750307 0.0130228 9.01681e-23)
(-0.00543136 -0.00243532 5.4798e-22)
(0.0187924 -0.0374756 -4.11724e-22)
(0.0698778 -0.0834399 6.46727e-24)
(0.146253 -0.131482 -2.697e-22)
(0.242726 -0.174116 9.38701e-23)
(0.350822 -0.204438 -2.71611e-23)
(0.461399 -0.21791 1.1731e-22)
(0.563579 -0.213688 -1.54827e-23)
(0.657216 -0.195129 1.10796e-23)
(-0.00775801 0.01423 4.69121e-23)
(-0.00188067 -0.0044261 0)
(0.0289556 -0.0451597 -1.55407e-23)
(0.0874074 -0.0982295 0)
(0.170892 -0.153359 4.79479e-22)
(0.272955 -0.201936 -3.10808e-22)
(0.384192 -0.236104 0)
(0.495115 -0.250793 1.27923e-23)
(0.594782 -0.24544 0)
(0.685082 -0.223552 0)
(-0.00789034 0.0149163 -7.94125e-22)
(0.00246408 -0.00710208 -7.60612e-23)
(0.0408788 -0.05321 5.44949e-22)
(0.107689 -0.112791 8.44233e-23)
(0.199144 -0.174236 -5.16589e-22)
(0.307354 -0.227925 -2.67288e-22)
(0.421899 -0.265193 -3.1364e-23)
(0.532955 -0.280576 1.6416e-22)
(0.629634 -0.273965 -2.06081e-23)
(0.716046 -0.248807 6.13637e-24)
(-0.00782923 0.0150362 8.93275e-22)
(0.00768746 -0.010503 -6.66487e-22)
(0.054589 -0.0616254 -1.86498e-22)
(0.130652 -0.12706 1.0095e-22)
(0.2308 -0.193971 5.29236e-22)
(0.345558 -0.251865 3.93546e-22)
(0.463436 -0.291437 -3.37671e-23)
(0.574312 -0.306972 5.77434e-23)
(0.66752 -0.298995 -3.7948e-23)
(0.749497 -0.270655 1.21683e-23)
(-0.00750128 0.0145732 8.61534e-22)
(0.0138846 -0.014651 6.62007e-22)
(0.0701149 -0.0703883 -9.51038e-22)
(0.156218 -0.140961 -1.0513e-22)
(0.265634 -0.212419 0)
(0.387176 -0.27356 0)
(0.508263 -0.314608 0)
(0.618549 -0.32976 -5.93546e-22)
(0.707798 -0.320334 -1.83066e-22)
(0.784806 -0.288942 8.94682e-23)
(-0.00683839 0.0135293 -1.76032e-21)
(0.0211513 -0.0195477 0)
(0.0874885 -0.0794595 2.19696e-21)
(0.184303 -0.154403 8.48216e-22)
(0.303405 -0.229442 8.14452e-23)
(0.431791 -0.292834 0)
(0.555818 -0.334527 -5.61546e-22)
(0.66501 -0.348789 3.12331e-22)
(0.749822 -0.337864 1.83065e-22)
(0.82134 -0.303592 -8.94686e-23)
(-0.00576853 0.0119116 1.01036e-21)
(0.0295813 -0.025161 -9.36668e-23)
(0.10674 -0.0887753 -1.12029e-21)
(0.214814 -0.167283 -9.5017e-22)
(0.343856 -0.2449 0)
(0.478974 -0.309538 9.10939e-22)
(0.605528 -0.351061 -4.23394e-23)
(0.713038 -0.36397 3.37239e-22)
(0.792956 -0.351536 2.63847e-22)
(0.858475 -0.314605 -1.21052e-22)
(-0.00422062 0.00974215 -3.57739e-24)
(0.0392671 -0.0314342 1.62117e-21)
(0.127895 -0.0982483 -1.53331e-22)
(0.247653 -0.179481 8.18832e-22)
(0.386721 -0.258655 4.40882e-22)
(0.528284 -0.323545 2.88912e-22)
(0.656818 -0.364119 5.83805e-22)
(0.761992 -0.375279 -4.34194e-22)
(0.836591 -0.361365 -1.80815e-22)
(0.895614 -0.322048 7.88201e-23)
(-0.00212715 0.00705809 0)
(0.0502971 -0.0382878 -1.34475e-21)
(0.150972 -0.107768 -1.59377e-22)
(0.282711 -0.190864 4.00816e-23)
(0.431721 -0.270574 6.84511e-22)
(0.579274 -0.334751 -8.52436e-22)
(0.709122 -0.373657 6.67039e-22)
(0.811256 -0.382751 -6.20408e-23)
(0.880158 -0.367417 0)
(0.932194 -0.326049 0)
(0.000574697 0.00390934 1.30288e-22)
(0.0627523 -0.04562 -1.65435e-21)
(0.175981 -0.117202 0)
(0.319867 -0.201285 -7.62861e-23)
(0.478569 -0.280525 9.78454e-23)
(0.631499 -0.343077 0)
(0.761894 -0.379671 -6.87578e-22)
(0.860256 -0.386472 -4.69783e-22)
(0.923141 -0.369806 6.0452e-23)
(0.967693 -0.32679 -5.09625e-23)
(0.00394233 0.000356412 -1.30887e-22)
(0.0767036 -0.0533077 1.76423e-21)
(0.20292 -0.126397 0)
(0.358986 -0.210586 -1.12807e-21)
(0.526966 -0.288381 1.02042e-22)
(0.684518 -0.348468 -1.12211e-21)
(0.814608 -0.382194 -8.33385e-23)
(0.908467 -0.386576 5.39862e-22)
(0.96508 -0.368675 0)
(1.00163 -0.324509 3.6209e-22)
(0.00802637 -0.00353037 -2.16822e-21)
(0.0922091 -0.0612094 -1.14151e-22)
(0.231769 -0.135183 -1.66906e-22)
(0.399916 -0.218602 1.39669e-22)
(0.576604 -0.294026 -1.63151e-21)
(0.737898 -0.350893 1.1221e-21)
(0.866775 -0.3813 8.03012e-22)
(0.95542 -0.383234 5.25907e-22)
(1.00558 -0.364181 6.76463e-22)
(1.03356 -0.319457 -3.14825e-22)
(0.0128696 -0.00767251 2.3042e-21)
(0.109311 -0.0691674 0)
(0.26249 -0.143373 1.63829e-21)
(0.442487 -0.22516 -1.44863e-22)
(0.627166 -0.297352 3.32518e-21)
(0.791219 -0.350347 0)
(0.917939 -0.377095 -8.0301e-22)
(1.00072 -0.376651 2.54094e-23)
(1.04428 -0.356441 -7.50207e-22)
(1.06298 -0.311831 6.21672e-23)
(0.0185069 -0.0119855 0)
(0.128035 -0.0770111 1.903e-21)
(0.295024 -0.150772 -1.46518e-21)
(0.486508 -0.230088 0)
(0.678326 -0.298265 -1.69367e-21)
(0.844075 -0.346851 0)
(0.96769 -0.369723 8.68848e-22)
(1.04404 -0.367047 -5.51315e-22)
(1.08089 -0.345505 -7.3611e-22)
(1.08943 -0.302044 -4.3628e-22)
(0.0249644 -0.0163798 -3.02644e-22)
(0.148386 -0.0845602 -1.64892e-21)
(0.329283 -0.157176 0)
(0.531764 -0.23322 0)
(0.729751 -0.296691 0)
(0.896077 -0.340455 -1.46815e-22)
(1.01566 -0.359364 -8.92696e-22)
(1.08517 -0.354643 -8.36243e-23)
(1.11527 -0.331525 7.36111e-22)
(1.11294 -0.291689 4.93172e-22)
(0.0322589 -0.0207624 0)
(0.170347 -0.0916274 -2.02653e-21)
(0.365158 -0.162381 0)
(0.57802 -0.234395 0)
(0.781103 -0.292576 0)
(0.946856 -0.331234 1.51336e-22)
(1.06153 -0.346223 -1.15345e-21)
(1.12391 -0.339677 4.78424e-23)
(1.14732 -0.31516 5.85797e-22)
(1.13548 -0.282817 5.34471e-22)
(0.0403974 -0.0250381 0)
(0.193879 -0.0980224 2.02652e-21)
(0.402507 -0.166185 -1.66247e-21)
(0.625015 -0.233469 0)
(0.83204 -0.285887 -1.91323e-21)
(0.996067 -0.319291 0)
(1.10503 -0.330523 9.23689e-22)
(1.16005 -0.322447 -6.31128e-22)
(1.17654 -0.297387 -7.84749e-22)
(1.15963 -0.270995 -5.14259e-22)
(0.0493771 -0.0291104 2.82018e-21)
(0.218919 -0.103555 0)
(0.441162 -0.168392 1.46002e-21)
(0.67247 -0.230314 1.69414e-22)
(0.882222 -0.276619 3.87189e-21)
(1.04339 -0.304752 0)
(1.1459 -0.312494 -9.66221e-22)
(1.19341 -0.303226 -1.276e-21)
(1.20292 -0.278353 -7.32285e-22)
(1.18197 -0.255855 -2.27326e-23)
(0.0591846 -0.032883 -2.991e-21)
(0.24538 -0.10804 1.43406e-22)
(0.480925 -0.168822 2.07683e-22)
(0.720088 -0.224826 -1.73791e-22)
(0.931313 -0.264793 -1.95866e-21)
(1.08852 -0.287763 1.42983e-21)
(1.18396 -0.292372 9.66222e-22)
(1.22388 -0.282285 6.4487e-22)
(1.2266 -0.258225 8.24668e-22)
(1.2019 -0.238719 -6.28381e-22)
(0.069796 -0.0362609 1.75307e-22)
(0.273147 -0.111296 2.10919e-21)
(0.521575 -0.167308 0)
(0.767556 -0.216925 -1.20772e-21)
(0.978987 -0.250457 -1.34459e-22)
(1.13122 -0.268492 -1.42983e-21)
(1.21907 -0.270397 1.11692e-22)
(1.25141 -0.259897 5.70495e-22)
(1.24764 -0.237183 0)
(1.21949 -0.220267 5.7166e-22)
(0.0811767 -0.0391513 -1.88105e-22)
(0.302086 -0.113155 -2.25636e-21)
(0.56286 -0.163708 0)
(0.814551 -0.206564 1.37909e-22)
(1.02493 -0.233688 -1.36936e-22)
(1.17125 -0.247122 0)
(1.25111 -0.246809 -1.00487e-21)
(1.27596 -0.236322 -6.6442e-22)
(1.26611 -0.215399 -9.75421e-23)
(1.23484 -0.200896 -8.22123e-23)
(0.0932809 -0.0414644 0)
(0.332036 -0.113461 -2.64038e-21)
(0.604513 -0.157901 2.37977e-22)
(0.860746 -0.193724 -2.24864e-23)
(1.06885 -0.214589 -1.04544e-21)
(1.20841 -0.223851 -1.64827e-21)
(1.28001 -0.221847 1.14614e-21)
(1.29757 -0.211805 0)
(1.28209 -0.193047 0)
(1.24805 -0.18089 0)
(0.106052 -0.0431149 9.02365e-24)
(0.362814 -0.112073 2.22299e-21)
(0.646243 -0.149795 2.42523e-22)
(0.905812 -0.178418 1.58447e-21)
(1.11047 -0.193288 9.04548e-22)
(1.24257 -0.198886 -1.76485e-22)
(1.30576 -0.195745 1.04089e-21)
(1.31628 -0.186576 -5.77801e-22)
(1.29567 -0.170294 -5.33038e-22)
(1.25924 -0.160477 3.76595e-22)
(0.119422 -0.0440229 1.42087e-21)
(0.394218 -0.108871 1.6004e-22)
(0.68775 -0.13933 -1.92777e-21)
(0.949426 -0.160693 -1.4509e-21)
(1.14954 -0.169937 0)
(1.27358 -0.172442 1.48739e-21)
(1.32833 -0.168731 -1.39027e-24)
(1.33216 -0.160846 7.48657e-22)
(1.30694 -0.147298 3.71458e-22)
(1.26849 -0.139838 -2.93539e-22)
(0.133313 -0.0441148 -3.24645e-21)
(0.426026 -0.103755 0)
(0.728719 -0.126474 3.87892e-21)
(0.991276 -0.140626 1.27976e-21)
(1.18585 -0.144708 1.43358e-22)
(1.30137 -0.14474 0)
(1.34777 -0.141023 -1.01159e-21)
(1.3453 -0.13481 6.66712e-22)
(1.31602 -0.124203 4.3034e-22)
(1.27592 -0.119125 -2.87992e-22)
(0.147636 -0.0433246 1.63495e-21)
(0.458003 -0.0966479 1.25221e-21)
(0.768837 -0.11123 -2.1841e-21)
(1.03106 -0.118325 1.9493e-22)
(1.21919 -0.117789 0)
(1.32588 -0.115999 0)
(1.36411 -0.112829 0)
(1.3558 -0.108645 -1.3259e-21)
(1.323 -0.101144 -4.30342e-22)
(1.28161 -0.0984661 2.87984e-22)
(0.162292 -0.0415951 1.47188e-21)
(0.489899 -0.0874974 -1.23861e-21)
(0.807785 -0.0936328 1.27832e-22)
(1.06851 -0.0939261 0)
(1.24942 -0.0893842 1.06025e-21)
(1.34709 -0.0864384 6.49846e-22)
(1.37743 -0.0843454 7.01401e-23)
(1.36379 -0.0825107 -6.26151e-23)
(1.328 -0.0782384 1.08781e-22)
(1.28567 -0.07797 -4.00141e-23)
(0.177174 -0.0388786 -1.67018e-21)
(0.521455 -0.0762782 1.53917e-22)
(0.845253 -0.0737499 9.84108e-22)
(1.10336 -0.0675907 -2.70099e-22)
(1.2764 -0.0597063 -7.95289e-22)
(1.36499 -0.056274 -9.17458e-22)
(1.38782 -0.0557553 6.92909e-23)
(1.36936 -0.0565509 3.30922e-22)
(1.33112 -0.0555947 0)
(1.28818 -0.0577323 -2.86704e-23)
(0.192166 -0.0351384 -1.05356e-22)
(0.552406 -0.0629918 0)
(0.880939 -0.05168 7.63963e-25)
(1.13538 -0.0395028 0)
(1.30004 -0.028977 1.04175e-21)
(1.37961 -0.0257152 -7.12697e-22)
(1.39537 -0.0272294 0)
(1.37266 -0.030895 7.73786e-24)
(1.33246 -0.0333082 0)
(1.28922 -0.0378364 0)
(0.207145 -0.0303494 -2.06329e-22)
(0.582485 -0.0476676 1.36368e-21)
(0.914557 -0.0275513 -1.11323e-21)
(1.16437 -0.00986618 1.82725e-22)
(1.32027 0.00257774 -4.81199e-22)
(1.39099 0.00503576 -8.46906e-23)
(1.40019 0.0010746 0)
(1.37378 -0.0056588 2.42443e-22)
(1.33213 -0.0114641 5.71819e-23)
(1.28887 -0.0183567 1.24428e-22)
(0.221982 -0.0244994 -8.42363e-22)
(0.611426 -0.030363 -5.6368e-22)
(0.945837 -0.00152001 -1.80979e-22)
(1.19016 0.0210992 7.31995e-22)
(1.33704 0.03473 6.0703e-23)
(1.39921 0.0357849 6.98417e-22)
(1.40239 0.0290115 0)
(1.37286 0.0190547 -2.90944e-22)
(1.33022 0.00986184 4.20158e-23)
(1.28721 0.000640539 -2.78209e-22)
(0.236545 -0.0175893 -8.42363e-22)
(0.638968 -0.0111629 5.61481e-22)
(0.97453 0.0262326 -6.57109e-24)
(1.21261 0.0531603 -8.48613e-22)
(1.35035 0.0672526 -4.35249e-22)
(1.40433 0.0663478 -3.77138e-23)
(1.4021 0.0564482 3.16723e-23)
(1.37001 0.0431534 3.22497e-22)
(1.32681 0.0306022 -6.52625e-24)
(1.2843 0.0190957 8.92969e-23)
(0.250698 -0.00963418 -4.14787e-22)
(0.664859 0.00982104 0)
(1.00041 0.0555026 -4.8275e-22)
(1.2316 0.0860743 0)
(1.36021 0.0999208 -5.47943e-22)
(1.40647 0.0965495 4.61683e-23)
(1.39944 0.0832627 0)
(1.36534 0.0665551 0)
(1.32201 0.0506968 0)
(1.28021 0.0369557 0)
(0.264304 -0.000663563 3.64399e-22)
(0.68886 0.0324513 1.75982e-22)
(1.02329 0.0860663 4.82751e-22)
(1.24706 0.119591 0)
(1.36666 0.132515 0)
(1.40572 0.126225 -1.7519e-23)
(1.39452 0.109343 6.44022e-23)
(1.35896 0.0891856 6.30397e-23)
(1.31587 0.0700918 4.82566e-23)
(1.27501 0.0541732 -7.48582e-24)
(0.277228 0.00927858 -6.3465e-24)
(0.710744 0.0565662 -1.64553e-22)
(1.043 0.117683 7.72014e-24)
(1.25893 0.153458 9.53106e-24)
(1.36975 0.16482 -1.43985e-23)
(1.40219 0.15522 5.37987e-24)
(1.38747 0.134588 -5.50333e-23)
(1.35096 0.110978 -5.85468e-23)
(1.30849 0.0887384 -3.73119e-23)
(1.26875 0.0707066 6.95577e-25)
(0.289338 0.0201337 0)
(0.730306 0.0819817 -1.58594e-22)
(1.05939 0.150099 -5.71309e-24)
(1.2672 0.187418 1.11055e-23)
(1.36957 0.196629 1.98819e-37)
(1.39602 0.183389 -1.30494e-37)
(1.37842 0.158904 -4.93013e-23)
(1.34146 0.131873 -5.07925e-23)
(1.29993 0.106592 -3.35664e-23)
(1.26149 0.0865194 0)
(0.300505 0.0318289 4.30704e-22)
(0.747362 0.108494 1.30061e-22)
(1.07236 0.18305 4.63472e-22)
(1.27188 0.221219 -2.15016e-23)
(1.36621 0.227744 0)
(1.38733 0.210596 1.49648e-23)
(1.36747 0.182204 3.17101e-23)
(1.33053 0.151815 5.50177e-23)
(1.29027 0.123612 2.67825e-23)
(1.25328 0.101579 5.71474e-24)
(0.310609 0.0442775 -3.83184e-22)
(0.761749 0.135881 0)
(1.08184 0.216263 -4.3778e-22)
(1.273 0.25461 0)
(1.35978 0.257975 -4.41278e-23)
(1.37624 0.236715 3.70109e-23)
(1.35476 0.204409 0)
(1.31827 0.17075 0)
(1.27958 0.139765 0)
(1.24417 0.115848 0)
(0.319538 0.0573801 7.14862e-22)
(0.773332 0.163905 -4.79038e-22)
(1.08778 0.249462 -1.02375e-22)
(1.27062 0.287344 -4.49511e-22)
(1.3504 0.28714 -4.1498e-22)
(1.36291 0.26163 2.58314e-23)
(1.34039 0.22545 -2.16935e-23)
(1.30475 0.188621 1.44657e-22)
(1.26795 0.155017 5.2969e-24)
(1.23421 0.129291 6.02003e-23)
(0.327188 0.0710248 -7.14862e-22)
(0.782001 0.192318 -5.62221e-22)
(1.09017 0.28237 1.42661e-22)
(1.26482 0.319184 5.37795e-22)
(1.33822 0.31507 -2.44036e-23)
(1.34747 0.285231 4.14953e-22)
(1.32448 0.245263 0)
(1.2901 0.205385 -1.63153e-22)
(1.25538 0.169322 -1.69764e-23)
(1.22349 0.141902 -6.64222e-23)
(0.333471 0.0850892 1.63408e-22)
(0.787676 0.220861 9.76926e-22)
(1.08902 0.314709 -6.39047e-22)
(1.25571 0.3499 -1.26858e-22)
(1.32337 0.341606 -3.04065e-22)
(1.33004 0.307415 6.02625e-23)
(1.30716 0.263778 -3.56509e-23)
(1.2744 0.221008 1.47277e-22)
(1.24194 0.182653 -2.2852e-23)
(1.21204 0.153648 3.45273e-23)
(0.338308 0.0994416 7.90087e-23)
(0.790305 0.249267 0)
(1.08439 0.346207 4.71681e-23)
(1.24342 0.379273 0)
(1.30601 0.366599 6.16173e-22)
(1.3108 0.328089 -3.73797e-22)
(1.28853 0.280932 0)
(1.25773 0.235454 -2.29198e-23)
(1.22771 0.194981 0)
(1.19992 0.164497 0)
(0.341637 0.113942 -1.14406e-21)
(0.789865 0.277269 -1.06001e-22)
(1.07636 0.376597 7.65299e-22)
(1.2281 0.407095 9.37593e-23)
(1.28631 0.389908 -6.32481e-22)
(1.28988 0.347171 -2.06054e-22)
(1.26871 0.296672 -2.71548e-23)
(1.24016 0.248682 6.6093e-23)
(1.21275 0.206279 -1.38093e-23)
(1.18717 0.174424 -1.2744e-25)
(0.34341 0.128445 1.27625e-21)
(0.786365 0.304596 -8.24982e-22)
(1.06503 0.405622 -2.15942e-22)
(1.20989 0.433171 1.12007e-22)
(1.26443 0.411404 4.97343e-22)
(1.26744 0.364578 3.12835e-22)
(1.2478 0.310952 -2.26524e-23)
(1.22177 0.260658 -3.83219e-23)
(1.19712 0.216515 -1.01409e-23)
(1.17387 0.183401 9.25037e-25)
(0.343599 0.1428 9.6384e-22)
(0.779846 0.330981 8.12179e-22)
(1.05053 0.433037 -9.10067e-22)
(1.18897 0.457316 -1.0082e-22)
(1.24056 0.430971 0)
(1.24361 0.380241 0)
(1.22592 0.323725 0)
(1.20265 0.271347 -1.45274e-22)
(1.18089 0.225665 1.72588e-23)
(1.16005 0.1914 -6.07885e-23)
(0.342193 0.156856 -1.8292e-21)
(0.770388 0.356166 0)
(1.03299 0.458601 1.94104e-21)
(1.16553 0.479364 5.53192e-22)
(1.21488 0.4485 0)
(1.21854 0.394097 0)
(1.20319 0.334952 -9.82496e-23)
(1.18289 0.280722 4.74216e-23)
(1.16412 0.233702 -1.72589e-23)
(1.14578 0.198396 6.07863e-23)
(0.339201 0.170456 9.63556e-22)
(0.758101 0.379914 -8.24409e-23)
(1.01254 0.482074 -9.10492e-22)
(1.13979 0.499162 -6.05387e-22)
(1.18758 0.4639 4.37212e-23)
(1.19239 0.406091 1.82817e-22)
(1.17971 0.344597 7.29259e-23)
(1.16257 0.288756 -4.96553e-23)
(1.14687 0.240604 -9.94312e-23)
(1.13112 0.204362 1.17157e-22)
(0.334635 0.183438 -2.95021e-24)
(0.743086 0.401991 1.07523e-21)
(0.98939 0.503269 -1.03631e-22)
(1.11196 0.516558 3.21396e-22)
(1.15884 0.47709 1.5847e-22)
(1.16531 0.416175 -6.56322e-23)
(1.1556 0.352629 1.20866e-23)
(1.14177 0.295427 6.24027e-23)
(1.12921 0.246354 -1.26694e-22)
(1.11612 0.209273 -8.91031e-23)
(0.328509 0.195633 0)
(0.725478 0.422155 -9.19417e-22)
(0.963809 0.522015 -8.67865e-23)
(1.08228 0.531428 -9.91293e-23)
(1.12886 0.488 -1.59249e-22)
(1.13744 0.424309 -8.41028e-23)
(1.13098 0.359023 -1.35677e-22)
(1.12058 0.300719 0)
(1.11119 0.250936 0)
(1.10083 0.213105 0)
(0.320898 0.206893 6.04408e-23)
(0.705442 0.440177 -6.81915e-22)
(0.936009 0.538142 0)
(1.05094 0.54367 -1.18585e-22)
(1.09783 0.496573 1.47453e-23)
(1.10894 0.430462 0)
(1.10596 0.363761 1.23893e-22)
(1.0991 0.304619 2.18861e-22)
(1.09288 0.254342 -5.18368e-23)
(1.08531 0.215834 4.36414e-23)
(0.311902 0.217101 -4.50187e-23)
(0.68316 0.455859 7.19712e-22)
(0.906226 0.551492 0)
(1.01819 0.553193 -1.67874e-22)
(1.06594 0.50276 4.75247e-24)
(1.07996 0.434609 2.36207e-22)
(1.08066 0.366827 3.29553e-23)
(1.07741 0.307121 -2.46575e-22)
(1.07434 0.256566 0)
(1.06961 0.217435 -4.64439e-22)
(0.301599 0.226124 -3.37273e-22)
(0.658848 0.46903 -2.58032e-23)
(0.87471 0.561933 -1.2278e-23)
(0.984277 0.559924 1.02748e-23)
(1.03339 0.506527 2.7134e-22)
(1.05065 0.436734 -2.36208e-22)
(1.05519 0.368215 -3.51737e-22)
(1.05562 0.308223 -3.28235e-22)
(1.05563 0.257608 -5.84342e-22)
(1.05377 0.217876 4.06465e-22)
(0.290086 0.233838 3.68008e-22)
(0.632741 0.479538 0)
(0.841723 0.569357 -4.09629e-23)
(0.949429 0.563807 3.68066e-24)
(1.00038 0.50785 -6.91821e-22)
(1.02116 0.43683 0)
(1.02969 0.367922 3.51739e-22)
(1.03381 0.307931 -5.451e-23)
(1.03682 0.25746 6.64052e-22)
(1.03787 0.217113 -6.70959e-23)
(0.277478 0.240132 0)
(0.605082 0.487249 -4.80863e-23)
(0.807535 0.573679 3.65648e-23)
(0.913896 0.564802 0)
(0.96711 0.506718 4.20482e-22)
(0.991648 0.434896 0)
(1.00426 0.365954 -5.02692e-22)
(1.01209 0.306255 3.82749e-22)
(1.01796 0.256123 7.44552e-22)
(1.02208 0.215084 6.27059e-22)
(0.263905 0.244909 2.66651e-23)
(0.576127 0.492052 2.57001e-23)
(0.772423 0.574835 0)
(0.877922 0.562889 0)
(0.933764 0.503132 0)
(0.962256 0.430942 7.79892e-23)
(0.979027 0.362326 3.69011e-22)
(0.990531 0.303222 5.73407e-23)
(0.999217 0.253652 -7.44556e-22)
(1.00666 0.211932 -7.0464e-22)
(0.249505 0.248086 0)
(0.546141 0.493859 4.21022e-22)
(0.736665 0.572782 0)
(0.841751 0.558061 0)
(0.900537 0.497104 0)
(0.933136 0.424985 -9.00095e-23)
(0.954105 0.357052 8.02353e-22)
(0.969269 0.298844 -1.93012e-22)
(0.980945 0.250175 -6.83173e-22)
(0.991825 0.207949 -7.20365e-22)
(0.234428 0.249593 0)
(0.515398 0.492608 -4.21023e-22)
(0.700542 0.567501 6.04004e-22)
(0.805627 0.550332 0)
(0.86762 0.488661 1.00396e-21)
(0.90443 0.41705 0)
(0.929607 0.350151 -6.49989e-22)
(0.948438 0.293088 5.94137e-22)
(0.96332 0.245591 8.96858e-22)
(0.977677 0.204297 7.22475e-22)
(0.218831 0.249378 -1.12119e-21)
(0.484176 0.488263 0)
(0.664337 0.558995 -5.16855e-22)
(0.769787 0.539731 -7.29331e-23)
(0.835198 0.477838 -2.1472e-21)
(0.876282 0.407172 0)
(0.905638 0.341652 7.91152e-22)
(0.92809 0.28598 4.98209e-23)
(0.946107 0.239777 9.19624e-22)
(0.963277 0.199852 2.9622e-25)
(0.202876 0.247404 1.19309e-21)
(0.452754 0.480811 -6.03608e-23)
(0.628328 0.54729 -1.02983e-22)
(0.734467 0.526302 -8.61821e-23)
(0.803452 0.464685 1.14324e-21)
(0.848829 0.395394 -1.05551e-21)
(0.882308 0.331591 -7.91156e-22)
(0.908308 0.277563 -6.43963e-22)
(0.929364 0.232811 -1.0422e-21)
(0.949007 0.194413 9.86789e-22)
(0.18673 0.243652 -8.59443e-23)
(0.421415 0.470265 -1.06876e-21)
(0.592789 0.532433 0)
(0.699894 0.510108 7.4259e-22)
(0.772558 0.449261 8.37514e-23)
(0.822208 0.381768 1.05551e-21)
(0.859725 0.32001 -1.09085e-22)
(0.889179 0.267875 -6.46805e-22)
(0.913172 0.22476 0)
(0.935076 0.188006 -8.7816e-22)
(0.170561 0.238119 1.06924e-22)
(0.390437 0.456665 1.14092e-21)
(0.557991 0.514493 0)
(0.666292 0.491227 -2.14139e-23)
(0.742689 0.431639 9.25659e-23)
(0.79655 0.366354 0)
(0.837994 0.306958 9.86116e-22)
(0.87079 0.256958 7.38539e-22)
(0.897606 0.215667 1.46524e-22)
(0.921611 0.180681 -1.23408e-22)
(0.154539 0.230822 0)
(0.360094 0.440073 1.64713e-21)
(0.524195 0.493559 -1.47253e-22)
(0.633875 0.469751 8.51078e-23)
(0.714006 0.411901 8.27268e-22)
(0.771982 0.349222 1.47543e-21)
(0.817217 0.292491 -1.11697e-21)
(0.853224 0.244856 0)
(0.882737 0.20557 0)
(0.908715 0.172467 0)
(0.13883 0.221791 -8.8146e-24)
(0.330653 0.420578 -1.38146e-21)
(0.491654 0.469741 1.62921e-22)
(0.602847 0.445789 -1.14694e-21)
(0.686668 0.390142 -7.18228e-22)
(0.748624 0.330448 2.44733e-22)
(0.797489 0.276673 -1.11016e-21)
(0.836561 0.231622 7.55462e-22)
(0.868632 0.194513 8.39954e-22)
(0.89647 0.163398 -6.66486e-22)
(0.1236 0.211077 -1.08446e-21)
(0.302372 0.398289 -1.15247e-22)
(0.460608 0.443169 1.47465e-21)
(0.573403 0.419463 1.17335e-21)
(0.660824 0.366464 0)
(0.726592 0.310118 -1.39909e-21)
(0.778904 0.259573 -5.261e-23)
(0.820875 0.217314 -9.71904e-22)
(0.855356 0.182546 -5.89146e-22)
(0.884946 0.153516 5.31066e-22)
(0.109006 0.198745 2.53519e-21)
(0.275498 0.373342 0)
(0.431287 0.413989 -3.04983e-21)
(0.545728 0.390908 -1.02567e-21)
(0.636613 0.340981 -1.23715e-22)
(0.705993 0.288325 0)
(0.761546 0.241268 1.15422e-21)
(0.806236 0.201996 -9.36986e-22)
(0.842968 0.16972 -7.30665e-22)
(0.874199 0.142867 5.69248e-22)
(0.0952026 0.184877 -1.31346e-21)
(0.250266 0.345889 -1.0162e-21)
(0.403906 0.382367 1.77245e-21)
(0.519995 0.360274 -1.65085e-22)
(0.614167 0.313818 0)
(0.68693 0.265168 0)
(0.745498 0.221839 0)
(0.792711 0.185735 1.90582e-21)
(0.831523 0.156093 7.30667e-22)
(0.86428 0.131505 -5.69248e-22)
(0.0823327 0.16957 -1.30715e-21)
(0.226893 0.316106 1.00417e-21)
(0.378665 0.348484 1.08265e-22)
(0.496361 0.32772 0)
(0.593607 0.285105 -1.07363e-21)
(0.669495 0.240756 -7.33645e-22)
(0.730834 0.201374 -8.28189e-23)
(0.780359 0.168606 1.47378e-22)
(0.821073 0.141727 -1.91835e-22)
(0.855233 0.119487 7.7535e-23)
(0.0705307 0.152934 1.47569e-21)
(0.205582 0.284185 -1.35884e-22)
(0.355748 0.312535 -1.13601e-21)
(0.474975 0.293418 2.59863e-22)
(0.575043 0.254983 8.00254e-22)
(0.653774 0.215203 1.04448e-21)
(0.717621 0.179969 -8.54788e-23)
(0.769236 0.150687 -4.8596e-22)
(0.811663 0.126688 0)
(0.847096 0.106871 7.38974e-23)
(0.0599198 0.135093 9.86176e-23)
(0.186516 0.250337 0)
(0.33532 0.274732 -3.32173e-23)
(0.455965 0.257549 0)
(0.558576 0.2236 -1.14309e-21)
(0.639845 0.188627 8.80781e-22)
(0.705921 0.15772 0)
(0.759392 0.132061 1.12967e-23)
(0.803335 0.111047 0)
(0.839902 0.0937226 0)
(0.0506106 0.116184 1.98001e-22)
(0.16986 0.214786 -1.28949e-21)
(0.31753 0.235295 1.06325e-21)
(0.439451 0.220303 -1.87047e-22)
(0.544293 0.191109 4.93882e-22)
(0.627776 0.161154 1.36061e-22)
(0.69579 0.134731 0)
(0.75087 0.112815 -3.96124e-22)
(0.796127 0.0948765 -1.06873e-22)
(0.83368 0.0801068 -3.18469e-22)
(0.0427001 0.096351 8.51024e-22)
(0.155757 0.177772 -1.90495e-21)
(0.302505 0.194457 1.82063e-22)
(0.425532 0.181879 -7.77744e-22)
(0.532272 0.157672 -8.85332e-23)
(0.617626 0.132914 -9.00145e-22)
(0.687273 0.11111 0)
(0.743709 0.0930373 5.40652e-22)
(0.790069 0.0782529 -9.96456e-23)
(0.828457 0.0660922 7.25036e-22)
(0.0362705 0.0757505 -8.51024e-22)
(0.144327 0.139544 6.97595e-22)
(0.290354 0.152461 -1.25161e-22)
(0.414293 0.142482 9.14687e-22)
(0.522578 0.123453 5.18352e-22)
(0.609445 0.104041 5.53522e-23)
(0.680412 0.086966 -4.64852e-23)
(0.737941 0.0728214 -6.05965e-22)
(0.785191 0.0612553 4.5735e-24)
(0.824253 0.0517487 -2.41061e-22)
(0.0313889 0.0545449 4.40119e-22)
(0.135668 0.100362 0)
(0.281163 0.109555 5.15372e-22)
(0.405804 0.102321 0)
(0.515261 0.0886208 7.30901e-23)
(0.603274 0.0746716 -6.13025e-23)
(0.675238 0.0624128 0)
(0.733592 0.0522621 0)
(0.781512 0.0439645 0)
(0.821085 0.0371481 0)
(0.028106 0.0329027 -3.86502e-22)
(0.129853 0.0604935 -1.40108e-22)
(0.275 0.0659957 -5.15372e-22)
(0.400116 0.061613 0)
(0.510361 0.0533491 0)
(0.599144 0.044946 2.81939e-23)
(0.671774 0.0375657 -1.13969e-22)
(0.730682 0.0314563 -1.38507e-22)
(0.779051 0.0264632 -1.3223e-22)
(0.818965 0.0223629 2.1548e-23)
(0.026456 0.010997 -6.9536e-24)
(0.126934 0.0202107 1.5195e-22)
(0.271907 0.0220424 -7.3183e-24)
(0.397263 0.0205744 2.51209e-23)
(0.507904 0.0178125 -1.00802e-23)
(0.597073 0.0150059 0)
(0.670039 0.0125416 9.0292e-23)
(0.729224 0.0105019 1.38507e-22)
(0.777817 0.00883518 1.00231e-22)
(0.817904 0.00746666 1.53328e-23)
(0.026456 -0.010997 -6.9536e-24)
(0.126934 -0.0202107 1.5195e-22)
(0.271907 -0.0220424 -7.3183e-24)
(0.397263 -0.0205744 2.51209e-23)
(0.507904 -0.0178125 -1.00802e-23)
(0.597073 -0.0150059 0)
(0.670039 -0.0125416 7.94557e-23)
(0.729224 -0.0105019 1.4762e-22)
(0.777817 -0.00883518 1.06646e-22)
(0.817904 -0.00746666 0)
(0.028106 -0.0329027 -4.93737e-22)
(0.129853 -0.0604935 -1.83692e-22)
(0.275 -0.0659957 -5.46498e-22)
(0.400116 -0.061613 2.60477e-23)
(0.510361 -0.0533491 0)
(0.599144 -0.044946 -2.81939e-23)
(0.671774 -0.0375657 -6.66145e-23)
(0.730682 -0.0314563 -1.38507e-22)
(0.779051 -0.0264632 -8.1061e-23)
(0.818965 -0.0223629 -2.1548e-23)
(0.0313889 -0.0545449 4.40119e-22)
(0.135668 -0.100362 0)
(0.281163 -0.109555 5.15372e-22)
(0.405804 -0.102321 0)
(0.515261 -0.0886208 7.30901e-23)
(0.603274 -0.0746716 -6.13025e-23)
(0.675238 -0.0624128 0)
(0.733592 -0.0522621 0)
(0.781512 -0.0439645 0)
(0.821085 -0.0371481 0)
(0.0362705 -0.0757505 -8.51024e-22)
(0.144327 -0.139544 5.43502e-22)
(0.290354 -0.152461 1.25161e-22)
(0.414293 -0.142482 6.25619e-22)
(0.522578 -0.123453 6.75362e-22)
(0.609445 -0.104041 -5.53522e-23)
(0.680412 -0.086966 4.64852e-23)
(0.737941 -0.0728214 -4.7534e-22)
(0.785191 -0.0612553 -4.5735e-24)
(0.824253 -0.0517487 -4.04224e-22)
(0.0427001 -0.096351 8.51024e-22)
(0.155757 -0.177772 6.6385e-22)
(0.302505 -0.194457 -1.82063e-22)
(0.425532 -0.181879 -7.6256e-22)
(0.532272 -0.157672 6.56519e-23)
(0.617626 -0.132914 -9.00145e-22)
(0.687273 -0.11111 0)
(0.743709 -0.0930373 5.40652e-22)
(0.790069 -0.0782529 9.96456e-23)
(0.828457 -0.0660922 5.57188e-22)
(0.0506106 -0.116184 -1.98001e-22)
(0.16986 -0.214786 1.28949e-21)
(0.31753 -0.235295 8.31169e-22)
(0.439451 -0.220303 1.87047e-22)
(0.544293 -0.191109 6.21479e-22)
(0.627776 -0.161154 -2.04356e-22)
(0.69579 -0.134731 8.9874e-23)
(0.75087 -0.112815 -6.4998e-22)
(0.796127 -0.0948765 1.06873e-22)
(0.83368 -0.0801068 -3.18469e-22)
(0.0599198 -0.135093 -9.86176e-23)
(0.186516 -0.250337 0)
(0.33532 -0.274732 -3.32173e-23)
(0.455965 -0.257549 0)
(0.558576 -0.2236 -1.14309e-21)
(0.639845 -0.188627 8.80781e-22)
(0.705921 -0.15772 0)
(0.759392 -0.132061 1.12967e-23)
(0.803335 -0.111047 0)
(0.839902 -0.0937226 0)
(0.0705307 -0.152934 1.47569e-21)
(0.205582 -0.284185 1.35884e-22)
(0.355748 -0.312535 -8.00353e-22)
(0.474975 -0.293418 -1.69164e-22)
(0.575043 -0.254983 1.34701e-21)
(0.653774 -0.215203 6.20047e-22)
(0.717621 -0.179969 8.54788e-23)
(0.769236 -0.150687 -6.07638e-22)
(0.811663 -0.126688 1.02452e-22)
(0.847096 -0.106871 -7.38974e-23)
(0.0823327 -0.16957 -1.64423e-21)
(0.226893 -0.316106 1.02824e-21)
(0.378665 -0.348484 9.92445e-23)
(0.496361 -0.32772 -1.73656e-22)
(0.593607 -0.285105 -1.07363e-21)
(0.669495 -0.240756 -9.30878e-22)
(0.730834 -0.201374 8.28189e-23)
(0.780359 -0.168606 -8.96191e-23)
(0.821073 -0.141727 1.91835e-22)
(0.855233 -0.119487 -7.7535e-23)
(0.0952026 -0.184877 -1.31346e-21)
(0.250266 -0.345889 -1.0162e-21)
(0.403906 -0.382367 1.37792e-21)
(0.519995 -0.360274 1.65085e-22)
(0.614167 -0.313818 0)
(0.68693 -0.265168 0)
(0.745498 -0.221839 0)
(0.792711 -0.185735 1.90582e-21)
(0.831523 -0.156093 7.30667e-22)
(0.86428 -0.131505 -5.69248e-22)
(0.109006 -0.198745 2.5352e-21)
(0.275498 -0.373342 0)
(0.431287 -0.413989 -3.04983e-21)
(0.545728 -0.390908 -1.17335e-21)
(0.636613 -0.340981 0)
(0.705993 -0.288325 0)
(0.761546 -0.241268 1.15422e-21)
(0.806236 -0.201996 -9.36986e-22)
(0.842968 -0.16972 -7.30665e-22)
(0.874199 -0.142867 5.69248e-22)
(0.1236 -0.211077 -1.35901e-21)
(0.302372 -0.398289 1.15247e-22)
(0.460608 -0.443169 1.47465e-21)
(0.573403 -0.419463 1.31257e-21)
(0.660824 -0.366464 -1.16624e-22)
(0.726592 -0.310118 -1.39909e-21)
(0.778904 -0.259573 -5.261e-23)
(0.820875 -0.217314 -7.58067e-22)
(0.855356 -0.182546 -7.69196e-22)
(0.884946 -0.153516 5.31066e-22)
(0.13883 -0.221791 8.8146e-24)
(0.330653 -0.420578 -1.56065e-21)
(0.491654 -0.469741 -1.62921e-22)
(0.602847 -0.445789 -8.86602e-22)
(0.686668 -0.390142 -7.27554e-22)
(0.748624 -0.330448 -2.60909e-22)
(0.797489 -0.276673 -1.09304e-21)
(0.836561 -0.231622 9.74504e-22)
(0.868632 -0.194513 5.18383e-22)
(0.89647 -0.163398 -3.95647e-22)
(0.154539 -0.230822 0)
(0.360094 -0.440073 1.29497e-21)
(0.524195 -0.493559 1.47253e-22)
(0.633875 -0.469751 8.51078e-23)
(0.714006 -0.411901 8.27268e-22)
(0.771982 -0.349222 1.16381e-21)
(0.817217 -0.292491 -9.78811e-22)
(0.853224 -0.244856 1.0389e-22)
(0.882737 -0.20557 0)
(0.908715 -0.172467 0)
(0.170561 -0.238119 -1.06924e-22)
(0.390437 -0.456665 1.14092e-21)
(0.557991 -0.514493 0)
(0.666292 -0.491227 1.99583e-22)
(0.742689 -0.431639 -9.25659e-23)
(0.79655 -0.366354 0)
(0.837994 -0.306958 9.86116e-22)
(0.87079 -0.256958 7.38539e-22)
(0.897606 -0.215667 -1.46524e-22)
(0.921611 -0.180681 1.23408e-22)