/*--------------------------------*- C++ -*----------------------------------*\
  =========                 |
  \\      /  F ield         | OpenFOAM: The Open Source CFD Toolbox
   \\    /   O peration     | Website:  https://openfoam.org
    \\  /    A nd           | Version:  7
     \\/     M anipulation  |
\*---------------------------------------------------------------------------*/
FoamFile
{
    version     2.0;
    format      ascii;
    class       surfaceScalarField;
    location    "1.4";
    object      phi;
}
// * * * * * * * * * * * * * * * * * * * * * * * * * * * * * * * * * * * * * //

dimensions      [0 3 -1 0 0 0 0];

internalField   nonuniform List<scalar> 
21785
(
-1.39229e-13
1.4743e-13
-3.92714e-13
3.27157e-13
-6.53948e-13
3.32637e-13
-8.11483e-13
2.26368e-13
-8.08553e-13
6.12708e-14
-6.18547e-13
-1.29943e-13
-2.29641e-13
-3.25563e-13
4.70067e-13
-5.15144e-13
1.35668e-12
-7.17258e-13
2.37164e-12
-9.30683e-13
3.58502e-12
-1.1387e-12
4.97153e-12
-1.33077e-12
6.51335e-12
-1.50243e-12
8.18746e-12
-1.65219e-12
9.98715e-12
-1.77589e-12
1.19838e-11
-1.86674e-12
1.42518e-11
-1.94912e-12
1.64851e-11
-2.14167e-12
1.87493e-11
-2.30345e-12
2.10275e-11
-2.36149e-12
2.33755e-11
-2.34671e-12
2.5816e-11
-2.32628e-12
2.83191e-11
-2.32848e-12
3.0828e-11
-2.3394e-12
3.35385e-11
-2.34091e-12
3.60763e-11
-2.38391e-12
3.853e-11
-2.37947e-12
4.09814e-11
-2.35016e-12
4.34077e-11
-2.30781e-12
4.57839e-11
-2.25559e-12
4.80891e-11
-2.18823e-12
5.02991e-11
-2.0959e-12
5.26632e-11
-1.98098e-12
5.48447e-11
-1.92391e-12
5.6797e-11
-1.85273e-12
5.86751e-11
-1.76235e-12
6.04521e-11
-1.65572e-12
6.21107e-11
-1.53537e-12
6.36333e-11
-1.39883e-12
6.49957e-11
-1.23792e-12
6.64977e-11
-1.05622e-12
6.77624e-11
-9.52337e-13
6.87176e-11
-8.42867e-13
6.95604e-11
-7.15449e-13
-5.70884e-13
7.02634e-11
-2.65425e-13
4.84028e-13
-6.56958e-13
8.49681e-13
-9.59615e-13
7.62833e-13
-9.81837e-13
3.76479e-13
-5.98573e-13
-1.9451e-13
2.66127e-13
-8.71262e-13
1.65785e-12
-1.59784e-12
3.70292e-12
-2.33641e-12
6.26383e-12
-3.04441e-12
9.2597e-12
-3.77003e-12
1.2772e-11
-4.47919e-12
1.67614e-11
-5.15538e-12
2.11897e-11
-5.79336e-12
2.6017e-11
-6.39208e-12
3.12271e-11
-6.93495e-12
3.68595e-11
-7.38367e-12
4.29275e-11
-7.60639e-12
4.92199e-11
-8.07758e-12
5.57254e-11
-8.5517e-12
6.23227e-11
-8.87598e-12
6.9035e-11
-9.03929e-12
7.59118e-11
-9.12421e-12
8.29417e-11
-9.18651e-12
9.00639e-11
-9.2372e-12
9.74144e-11
-9.27237e-12
1.04635e-10
-9.30748e-12
1.11667e-10
-9.25449e-12
1.18631e-10
-9.14347e-12
1.25498e-10
-8.98549e-12
1.32233e-10
-8.78718e-12
1.38803e-10
-8.54721e-12
1.45185e-10
-8.26334e-12
1.5158e-10
-7.95001e-12
1.5769e-10
-7.63265e-12
1.63325e-10
-7.28736e-12
1.68683e-10
-6.90558e-12
1.73736e-10
-6.48579e-12
1.78459e-10
-6.03048e-12
1.82835e-10
-5.54017e-12
1.86851e-10
-5.01646e-12
1.9076e-10
-4.48003e-12
1.94247e-10
-3.96014e-12
1.9708e-10
-3.44004e-12
1.99514e-10
-2.8998e-12
-2.33235e-12
2.01529e-10
-2.42992e-13
7.97471e-13
-5.21713e-13
1.25351e-12
-5.71852e-13
9.31785e-13
-1.64617e-13
8.72725e-14
8.58755e-13
-1.09936e-12
2.60791e-12
-2.49762e-12
5.14831e-12
-4.00969e-12
8.63755e-12
-5.55922e-12
1.28545e-11
-7.06127e-12
1.7794e-11
-8.56994e-12
2.35185e-11
-1.00442e-11
2.99781e-11
-1.14699e-11
3.71205e-11
-1.28406e-11
4.49145e-11
-1.41458e-11
5.33265e-11
-1.53357e-11
6.24867e-11
-1.63117e-11
7.1844e-11
-1.67754e-11
8.18063e-11
-1.76176e-11
9.22333e-11
-1.85175e-11
1.02881e-10
-1.92596e-11
1.13666e-10
-1.97541e-11
1.2464e-10
-2.00686e-11
1.35814e-10
-2.02698e-11
1.47137e-10
-2.0394e-11
1.58702e-10
-2.04541e-11
1.70216e-10
-2.04666e-11
1.81469e-10
-2.03443e-11
1.92594e-10
-2.01133e-11
2.03551e-10
-1.97819e-11
2.143e-10
-1.93594e-11
2.24796e-10
-1.88517e-11
2.35e-10
-1.82649e-11
2.45088e-10
-1.76112e-11
2.54767e-10
-1.69071e-11
2.638e-10
-1.61312e-11
2.72374e-10
-1.52832e-11
2.80454e-10
-1.43655e-11
2.88012e-10
-1.33825e-11
2.95024e-10
-1.23389e-11
3.01469e-10
-1.1243e-11
3.07583e-10
-1.01116e-11
3.13057e-10
-8.96013e-12
3.17626e-10
-7.78783e-12
3.21541e-10
-6.58184e-12
-5.33885e-12
3.24782e-10
-1.28791e-13
9.9885e-13
-1.22505e-13
1.37181e-12
2.83158e-13
6.40467e-13
1.32649e-12
-8.47285e-13
3.18085e-12
-2.84497e-12
5.97518e-12
-5.16865e-12
9.7881e-12
-7.67814e-12
1.48181e-11
-1.02621e-11
2.07189e-11
-1.28056e-11
2.75873e-11
-1.53302e-11
3.54594e-11
-1.77928e-11
4.4282e-11
-2.01865e-11
5.40007e-11
-2.25024e-11
6.4628e-11
-2.47123e-11
7.61115e-11
-2.67268e-11
8.88145e-11
-2.84035e-11
1.01026e-10
-2.93058e-11
1.14302e-10
-3.06047e-11
1.28327e-10
-3.1976e-11
1.42771e-10
-3.32294e-11
1.57385e-10
-3.41475e-11
1.72192e-10
-3.47967e-11
1.8721e-10
-3.52256e-11
2.02404e-10
-3.54747e-11
2.17843e-10
-3.55689e-11
2.33313e-10
-3.55246e-11
2.48465e-10
-3.53114e-11
2.63443e-10
-3.49272e-11
2.78187e-10
-3.43739e-11
2.92646e-10
-3.366e-11
3.06764e-10
-3.27972e-11
3.20489e-10
-3.17999e-11
3.33979e-10
-3.06823e-11
3.46948e-10
-2.94577e-11
3.59118e-10
-2.81096e-11
3.70667e-10
-2.66391e-11
3.81551e-10
-2.5056e-11
3.91732e-10
-2.33681e-11
4.01179e-10
-2.15836e-11
4.09861e-10
-1.97149e-11
4.18009e-10
-1.77777e-11
4.25302e-10
-1.57817e-11
4.31471e-10
-1.37385e-11
4.36757e-10
-1.1638e-11
-9.48769e-12
4.41137e-10
3.63377e-14
1.0378e-12
4.41741e-13
1.09541e-12
1.44566e-12
-2.48199e-13
3.27749e-12
-2.57298e-12
6.10793e-12
-5.57107e-12
1.00743e-11
-9.0055e-12
1.52612e-11
-1.2697e-11
2.19045e-11
-1.6509e-11
2.95399e-11
-2.03213e-11
3.83409e-11
-2.40757e-11
4.83146e-11
-2.77139e-11
5.94159e-11
-3.12272e-11
7.16076e-11
-3.45961e-11
8.49771e-11
-3.77818e-11
9.94454e-11
-4.07094e-11
1.15721e-10
-4.32685e-11
1.3049e-10
-4.52164e-11
1.46788e-10
-4.71221e-11
1.6408e-10
-4.89611e-11
1.82084e-10
-5.0658e-11
2.00299e-10
-5.20059e-11
2.18722e-10
-5.30312e-11
2.37355e-10
-5.37528e-11
2.56167e-10
-5.41819e-11
2.75221e-10
-5.43355e-11
2.94331e-10
-5.42053e-11
3.13101e-10
-5.38743e-11
3.31662e-10
-5.32948e-11
3.49931e-10
-5.24698e-11
3.67841e-10
-5.14057e-11
3.85321e-10
-5.01141e-11
4.02309e-10
-4.86125e-11
4.18948e-10
-4.69182e-11
4.34966e-10
-4.5043e-11
4.50045e-10
-4.2989e-11
4.64357e-10
-4.07468e-11
4.77844e-10
-3.83408e-11
4.90461e-10
-3.57835e-11
5.02166e-10
-3.30845e-11
5.12919e-10
-3.02594e-11
5.22952e-10
-2.73243e-11
5.31924e-10
-2.42881e-11
5.39574e-10
-2.11742e-11
5.46131e-10
-1.79642e-11
-1.46875e-11
5.51568e-10
2.27667e-13
8.93416e-13
1.1061e-12
3.55621e-13
2.80274e-12
-1.82095e-12
5.53151e-12
-5.1873e-12
9.44901e-12
-9.37719e-12
1.46866e-11
-1.41044e-11
2.13256e-11
-1.91538e-11
2.96174e-11
-2.43664e-11
3.90465e-11
-2.96321e-11
4.98114e-11
-3.48111e-11
6.18785e-11
-3.97857e-11
7.52219e-11
-4.45447e-11
8.98291e-11
-4.90441e-11
1.05845e-10
-5.32479e-11
1.23171e-10
-5.71493e-11
1.4277e-10
-6.09005e-11
1.60163e-10
-6.41522e-11
1.79339e-10
-6.7004e-11
1.99637e-10
-6.93403e-11
2.20987e-10
-7.16183e-11
2.42553e-10
-7.31382e-11
2.6437e-10
-7.44926e-11
2.86419e-10
-7.55161e-11
3.08653e-10
-7.61492e-11
3.31155e-10
-7.64024e-11
3.53602e-10
-7.62406e-11
3.75755e-10
-7.58162e-11
3.97662e-10
-7.49839e-11
4.19229e-10
-7.38272e-11
4.40367e-10
-7.2351e-11
4.60989e-10
-7.05611e-11
4.81021e-10
-6.84738e-11
5.00604e-10
-6.6105e-11
5.19442e-10
-6.34436e-11
5.37246e-10
-6.05872e-11
5.54131e-10
-5.74171e-11
5.70044e-10
-5.40355e-11
5.84931e-10
-5.04523e-11
5.9874e-10
-4.66763e-11
6.11425e-10
-4.27268e-11
6.23217e-10
-3.86222e-11
6.33732e-10
-3.43469e-11
6.42776e-10
-3.00107e-11
6.50513e-10
-2.54736e-11
-2.08626e-11
6.56929e-10
4.30072e-13
5.61805e-13
1.83718e-12
-7.59318e-13
4.27839e-12
-4.01032e-12
7.97745e-12
-8.63436e-12
1.30631e-11
-1.41998e-11
1.96444e-11
-2.03818e-11
2.77903e-11
-2.69491e-11
3.77348e-11
-3.37564e-11
4.90071e-11
-4.07236e-11
6.18168e-11
-4.749e-11
7.60246e-11
-5.39203e-11
9.1648e-11
-5.99017e-11
1.08661e-10
-6.53111e-11
1.2719e-10
-7.01744e-11
1.46981e-10
-7.48239e-11
1.69472e-10
-7.96159e-11
1.8976e-10
-8.70736e-11
2.12045e-10
-9.0766e-11
2.35049e-10
-9.33217e-11
2.59859e-10
-9.5071e-11
2.84333e-10
-9.72982e-11
3.09295e-10
-9.90852e-11
3.34559e-10
-1.00391e-10
3.60018e-10
-1.0119e-10
3.85796e-10
-1.01515e-10
4.11361e-10
-1.01491e-10
4.36762e-10
-1.00734e-10
4.61798e-10
-9.95468e-11
4.86455e-10
-9.79922e-11
5.10622e-10
-9.6051e-11
5.34196e-10
-9.37117e-11
5.57089e-10
-9.09712e-11
5.79464e-10
-8.78712e-11
6.00897e-10
-8.44447e-11
6.21314e-10
-8.04689e-11
6.40589e-10
-7.62087e-11
6.58764e-10
-7.17061e-11
6.75771e-10
-6.69442e-11
6.91545e-10
-6.1936e-11
7.0603e-10
-5.67054e-11
7.19495e-10
-5.13144e-11
7.31406e-10
-4.58051e-11
7.41831e-10
-3.98593e-11
7.50645e-10
-3.37822e-11
-2.7642e-11
7.57964e-10
7.08028e-13
2.32411e-13
2.60137e-12
-2.31238e-12
5.82101e-12
-6.96976e-12
1.05463e-11
-1.31054e-11
1.68614e-11
-2.02866e-11
2.48281e-11
-2.81592e-11
3.44842e-11
-3.6442e-11
4.60128e-11
-4.49152e-11
5.92657e-11
-5.34703e-11
7.42293e-11
-6.18106e-11
9.07706e-11
-7.00361e-11
1.089e-10
-7.79103e-11
1.28445e-10
-8.52979e-11
1.49127e-10
-9.20902e-11
1.71068e-10
-9.82964e-11
1.93105e-10
-1.0417e-10
2.19471e-10
-1.09649e-10
2.45079e-10
-1.14479e-10
2.71449e-10
-1.18431e-10
2.98261e-10
-1.21818e-10
3.25689e-10
-1.24626e-10
3.53625e-10
-1.26873e-10
3.81947e-10
-1.28494e-10
4.10468e-10
-1.29475e-10
4.39175e-10
-1.29821e-10
4.68049e-10
-1.29505e-10
4.9643e-10
-1.2863e-10
5.24378e-10
-1.27223e-10
5.51917e-10
-1.25224e-10
5.78926e-10
-1.22689e-10
6.05292e-10
-1.19647e-10
6.30881e-10
-1.16105e-10
6.55831e-10
-1.12063e-10
6.7998e-10
-1.07551e-10
7.02749e-10
-1.02609e-10
7.24243e-10
-9.73208e-11
7.44531e-10
-9.16042e-11
7.63517e-10
-8.5519e-11
7.81125e-10
-7.9106e-11
7.97269e-10
-7.23917e-11
8.12198e-10
-6.53885e-11
8.25757e-10
-5.81631e-11
8.37367e-10
-5.0685e-11
8.47166e-10
-4.31109e-11
-3.53271e-11
8.55318e-10
8.87376e-13
-4.94451e-13
3.30513e-12
-4.58833e-12
7.3545e-12
-1.0874e-11
1.31362e-11
-1.87407e-11
2.07156e-11
-2.77304e-11
3.01244e-11
-3.74663e-11
4.1388e-11
-4.76324e-11
5.45898e-11
-5.79626e-11
6.98233e-11
-6.81791e-11
8.66776e-11
-7.83749e-11
1.05389e-10
-8.83422e-11
1.25852e-10
-9.79715e-11
1.47882e-10
-1.07116e-10
1.71076e-10
-1.15608e-10
1.95351e-10
-1.23323e-10
2.19817e-10
-1.30262e-10
2.48947e-10
-1.3647e-10
2.77566e-10
-1.42198e-10
3.06711e-10
-1.47233e-10
3.36316e-10
-1.51465e-10
3.66571e-10
-1.54928e-10
3.97425e-10
-1.57605e-10
4.28694e-10
-1.5952e-10
4.6017e-10
-1.60676e-10
4.91854e-10
-1.61075e-10
5.23607e-10
-1.60726e-10
5.54816e-10
-1.597e-10
5.85625e-10
-1.5793e-10
6.15934e-10
-1.5543e-10
6.45651e-10
-1.52254e-10
6.74663e-10
-1.4845e-10
7.0284e-10
-1.44045e-10
7.30274e-10
-1.39037e-10
7.56802e-10
-1.33437e-10
7.81772e-10
-1.274e-10
8.0546e-10
-1.20833e-10
8.27781e-10
-1.13757e-10
8.48658e-10
-1.06221e-10
8.68018e-10
-9.82731e-11
8.85786e-10
-8.9952e-11
9.02142e-10
-8.12761e-11
9.17046e-10
-7.22641e-11
9.297e-10
-6.31226e-11
9.40526e-10
-5.37254e-11
-4.40985e-11
9.49492e-10
1.04017e-12
-1.45661e-12
4.00599e-12
-7.41311e-12
8.88113e-12
-1.56115e-11
1.57261e-11
-2.54405e-11
2.45803e-11
-3.64355e-11
3.54637e-11
-4.82087e-11
4.83755e-11
-6.0423e-11
6.34551e-11
-7.27778e-11
8.04425e-11
-8.49587e-11
9.92529e-11
-9.702e-11
1.20028e-10
-1.08793e-10
1.42724e-10
-1.20173e-10
1.67183e-10
-1.31051e-10
1.92975e-10
-1.41264e-10
2.19871e-10
-1.50605e-10
2.47065e-10
-1.58928e-10
2.78474e-10
-1.65981e-10
3.09718e-10
-1.72801e-10
3.41615e-10
-1.78883e-10
3.74033e-10
-1.83998e-10
4.07109e-10
-1.88079e-10
4.40781e-10
-1.91198e-10
4.74871e-10
-1.93438e-10
5.09174e-10
-1.94762e-10
5.43678e-10
-1.95201e-10
5.78166e-10
-1.94757e-10
6.1217e-10
-1.93475e-10
6.45731e-10
-1.91344e-10
6.7871e-10
-1.88329e-10
7.11013e-10
-1.84472e-10
7.42541e-10
-1.79838e-10
7.73174e-10
-1.74479e-10
8.02998e-10
-1.68421e-10
8.31686e-10
-1.61682e-10
8.58846e-10
-1.54335e-10
8.84612e-10
-1.46391e-10
9.08879e-10
-1.37849e-10
9.31564e-10
-1.28749e-10
9.52592e-10
-1.19141e-10
9.71898e-10
-1.09078e-10
9.8967e-10
-9.85982e-11
1.00566e-09
-8.77324e-11
1.01942e-09
-7.66215e-11
1.0312e-09
-6.52543e-11
-5.3628e-11
1.04095e-09
1.22199e-12
-2.59375e-12
4.71772e-12
-1.07704e-11
1.04087e-11
-2.1177e-11
1.83088e-11
-3.32151e-11
2.84306e-11
-4.64212e-11
4.07894e-11
-6.04024e-11
5.53667e-11
-7.48145e-11
7.23618e-11
-8.93467e-11
9.11589e-11
-1.03683e-10
1.11935e-10
-1.17793e-10
1.34751e-10
-1.31493e-10
1.59602e-10
-1.44683e-10
1.86387e-10
-1.57293e-10
2.14734e-10
-1.69192e-10
2.44304e-10
-1.80157e-10
2.74472e-10
-1.89963e-10
3.07864e-10
-1.98291e-10
3.41623e-10
-2.06211e-10
3.76238e-10
-2.13255e-10
4.11478e-10
-2.19199e-10
4.47327e-10
-2.23957e-10
4.83712e-10
-2.27608e-10
5.20534e-10
-2.30201e-10
5.57547e-10
-2.31678e-10
5.94749e-10
-2.32089e-10
6.31921e-10
-2.31405e-10
6.68592e-10
-2.29825e-10
7.04816e-10
-2.27317e-10
7.40393e-10
-2.23779e-10
7.75199e-10
-2.19226e-10
8.09136e-10
-2.13718e-10
8.42102e-10
-2.07326e-10
8.74188e-10
-2.00103e-10
9.05017e-10
-1.92055e-10
9.34241e-10
-1.83316e-10
9.61987e-10
-1.73893e-10
9.88122e-10
-1.63782e-10
1.01254e-09
-1.53014e-10
1.03517e-09
-1.41635e-10
1.05593e-09
-1.297e-10
1.07504e-09
-1.17262e-10
1.09214e-09
-1.04333e-10
1.10691e-09
-9.11325e-11
1.11958e-09
-7.76448e-11
-6.38665e-11
1.13008e-09
1.41163e-12
-3.91276e-12
5.42883e-12
-1.46426e-11
1.19276e-11
-2.75529e-11
2.0876e-11
-4.20533e-11
3.2258e-11
-5.76856e-11
4.60809e-11
-7.40525e-11
6.23138e-11
-9.08106e-11
8.11969e-11
-1.0766e-10
1.01859e-10
-1.24331e-10
1.2464e-10
-1.40637e-10
1.49517e-10
-1.56413e-10
1.76493e-10
-1.71514e-10
2.05525e-10
-1.85895e-10
2.36349e-10
-1.9947e-10
2.68571e-10
-2.12055e-10
3.01724e-10
-2.23392e-10
3.37103e-10
-2.33229e-10
3.73337e-10
-2.4224e-10
4.10612e-10
-2.50187e-10
4.4862e-10
-2.56945e-10
4.87165e-10
-2.62435e-10
5.26185e-10
-2.66652e-10
5.65743e-10
-2.69862e-10
6.05414e-10
-2.71457e-10
6.45307e-10
-2.71769e-10
6.84973e-10
-2.70578e-10
7.24155e-10
-2.6869e-10
7.62953e-10
-2.65742e-10
8.01074e-10
-2.61611e-10
8.38339e-10
-2.56322e-10
8.74628e-10
-2.49911e-10
9.09848e-10
-2.42441e-10
9.44133e-10
-2.33976e-10
9.76994e-10
-2.24523e-10
1.00818e-09
-2.14287e-10
1.03781e-09
-2.03269e-10
1.06575e-09
-1.91446e-10
1.09185e-09
-1.7888e-10
1.11603e-09
-1.65614e-10
1.1382e-09
-1.51694e-10
1.15862e-09
-1.37175e-10
1.17675e-09
-1.22069e-10
1.19247e-09
-1.06636e-10
1.20598e-09
-9.08773e-11
-7.47728e-11
1.21718e-09
1.59652e-12
-5.41023e-12
6.11951e-12
-1.9007e-11
1.34251e-11
-3.47208e-11
2.34167e-11
-5.19275e-11
3.60565e-11
-7.02076e-11
5.13321e-11
-8.91541e-11
6.91978e-11
-1.08424e-10
8.989e-11
-1.27735e-10
1.12464e-10
-1.46853e-10
1.37265e-10
-1.65495e-10
1.64252e-10
-1.8347e-10
1.93364e-10
-2.00569e-10
2.24607e-10
-2.16761e-10
2.57828e-10
-2.32011e-10
2.92661e-10
-2.46217e-10
3.28689e-10
-2.59188e-10
3.66231e-10
-2.70386e-10
4.04917e-10
-2.8031e-10
4.44736e-10
-2.89021e-10
4.85377e-10
-2.96723e-10
5.26587e-10
-3.03231e-10
5.67997e-10
-3.08207e-10
6.10559e-10
-3.1119e-10
6.52856e-10
-3.13057e-10
6.95636e-10
-3.13471e-10
7.37359e-10
-3.12465e-10
7.78953e-10
-3.1018e-10
8.2024e-10
-3.06658e-10
8.6084e-10
-3.01772e-10
9.00523e-10
-2.95631e-10
9.39136e-10
-2.88258e-10
9.76569e-10
-2.79675e-10
1.01303e-09
-2.69931e-10
1.0478e-09
-2.59041e-10
1.08085e-09
-2.47226e-10
1.11231e-09
-2.34498e-10
1.14197e-09
-2.20791e-10
1.1697e-09
-2.06263e-10
1.1954e-09
-1.90969e-10
1.21895e-09
-1.74951e-10
1.24068e-09
-1.5826e-10
1.25976e-09
-1.40907e-10
1.27636e-09
-1.23132e-10
1.29068e-09
-1.04967e-10
-8.63402e-11
1.30255e-09
1.7759e-12
-7.08103e-12
6.77687e-12
-2.38324e-11
1.49089e-11
-4.25062e-11
2.59269e-11
-6.26456e-11
3.98186e-11
-8.37728e-11
5.6532e-11
-1.05463e-10
7.59958e-11
-1.27403e-10
9.84181e-11
-1.49368e-10
1.22919e-10
-1.71222e-10
1.4976e-10
-1.9229e-10
1.78959e-10
-2.12526e-10
2.10257e-10
-2.31471e-10
2.43697e-10
-2.49199e-10
2.79202e-10
-2.65804e-10
3.16467e-10
-2.81509e-10
3.55468e-10
-2.96379e-10
3.95433e-10
-3.10571e-10
4.36507e-10
-3.21867e-10
4.785e-10
-3.31474e-10
5.21514e-10
-3.39654e-10
5.65393e-10
-3.46459e-10
6.09954e-10
-3.51749e-10
6.54794e-10
-3.55479e-10
6.99713e-10
-3.57527e-10
7.45066e-10
-3.57999e-10
7.89174e-10
-3.56965e-10
8.33125e-10
-3.54267e-10
8.76899e-10
-3.49812e-10
9.19849e-10
-3.43751e-10
9.61846e-10
-3.36578e-10
1.00272e-09
-3.28214e-10
1.04233e-09
-3.18562e-10
1.08093e-09
-3.07631e-10
1.11758e-09
-2.95513e-10
1.15244e-09
-2.82051e-10
1.18575e-09
-2.67317e-10
1.21705e-09
-2.51369e-10
1.24632e-09
-2.34608e-10
1.27345e-09
-2.1712e-10
1.29834e-09
-1.98943e-10
1.32133e-09
-1.80127e-10
1.34136e-09
-1.60761e-10
1.35881e-09
-1.40534e-10
1.374e-09
-1.19666e-10
-9.82189e-11
1.38647e-09
1.95946e-12
-8.74715e-12
7.51591e-12
-2.88857e-11
1.63961e-11
-5.09363e-11
2.8427e-11
-7.43776e-11
4.35655e-11
-9.8669e-11
6.16751e-11
-1.23411e-10
8.2654e-11
-1.48259e-10
1.06604e-10
-1.72934e-10
1.3324e-10
-1.97323e-10
1.62168e-10
-2.2094e-10
1.93857e-10
-2.43473e-10
2.27495e-10
-2.65083e-10
2.63141e-10
-2.8533e-10
3.00568e-10
-3.04099e-10
3.39751e-10
-3.21426e-10
3.80446e-10
-3.37499e-10
4.24262e-10
-3.52922e-10
4.67943e-10
-3.65798e-10
5.12369e-10
-3.76502e-10
5.57707e-10
-3.85343e-10
6.04047e-10
-3.92538e-10
6.51121e-10
-3.98135e-10
6.98566e-10
-4.02068e-10
7.46e-10
-4.04299e-10
7.93797e-10
-4.04772e-10
8.40493e-10
-4.04133e-10
8.87091e-10
-4.00822e-10
9.33359e-10
-3.95471e-10
9.78307e-10
-3.88823e-10
1.02237e-09
-3.80625e-10
1.06536e-09
-3.70982e-10
1.10708e-09
-3.59898e-10
1.14766e-09
-3.47381e-10
1.18643e-09
-3.3378e-10
1.2233e-09
-3.18528e-10
1.25853e-09
-3.01785e-10
1.2913e-09
-2.84069e-10
1.32192e-09
-2.6521e-10
1.35031e-09
-2.45385e-10
1.37637e-09
-2.24713e-10
1.40039e-09
-2.03272e-10
1.42172e-09
-1.81435e-10
1.4402e-09
-1.58521e-10
1.4563e-09
-1.34781e-10
-1.10832e-10
1.46925e-09
2.14251e-12
-1.06912e-11
8.17645e-12
-3.46121e-11
1.77546e-11
-6.03353e-11
3.08069e-11
-8.72467e-11
4.71783e-11
-1.14891e-10
6.6704e-11
-1.42863e-10
8.92578e-11
-1.70793e-10
1.14778e-10
-1.98353e-10
1.43377e-10
-2.25193e-10
1.745e-10
-2.51395e-10
2.08159e-10
-2.76695e-10
2.44146e-10
-3.00777e-10
2.82175e-10
-3.23377e-10
3.21877e-10
-3.44251e-10
3.63197e-10
-3.63357e-10
4.05365e-10
-3.80906e-10
4.52527e-10
-3.97604e-10
4.991e-10
-4.11987e-10
5.46174e-10
-4.24044e-10
5.93901e-10
-4.33766e-10
6.42561e-10
-4.41373e-10
6.92002e-10
-4.47111e-10
7.41859e-10
-4.51124e-10
7.91813e-10
-4.53444e-10
8.4144e-10
-4.54008e-10
8.91488e-10
-4.52881e-10
9.40785e-10
-4.49411e-10
9.89054e-10
-4.43892e-10
1.03623e-09
-4.36348e-10
1.08237e-09
-4.26991e-10
1.12744e-09
-4.16e-10
1.17123e-09
-4.0346e-10
1.2135e-09
-3.89361e-10
1.25453e-09
-3.73645e-10
1.29345e-09
-3.56624e-10
1.33019e-09
-3.38289e-10
1.36462e-09
-3.18522e-10
1.39666e-09
-2.97413e-10
1.42633e-09
-2.75134e-10
1.45359e-09
-2.51881e-10
1.47838e-09
-2.27781e-10
1.50113e-09
-2.02865e-10
1.52071e-09
-1.77257e-10
1.53728e-09
-1.51096e-10
-1.24317e-10
1.55087e-09
2.28633e-12
-1.28967e-11
8.74296e-12
-4.09053e-11
1.90639e-11
-7.04854e-11
3.30969e-11
-1.01098e-10
5.06761e-11
-1.32298e-10
7.16272e-11
-1.6369e-10
9.57882e-11
-1.94891e-10
1.23149e-10
-2.25524e-10
1.53416e-10
-2.55129e-10
1.86396e-10
-2.84026e-10
2.22131e-10
-3.11903e-10
2.60402e-10
-3.38531e-10
3.00896e-10
-3.63612e-10
3.43027e-10
-3.86833e-10
3.86587e-10
-4.07967e-10
4.30246e-10
-4.27046e-10
4.80308e-10
-4.4439e-10
5.29731e-10
-4.60091e-10
5.79695e-10
-4.73591e-10
6.3006e-10
-4.84549e-10
6.811e-10
-4.92974e-10
7.32766e-10
-4.99106e-10
7.84799e-10
-5.03217e-10
8.37019e-10
-5.05486e-10
8.88796e-10
-5.05879e-10
9.4169e-10
-5.0414e-10
9.93501e-10
-5.00296e-10
1.04426e-09
-4.9439e-10
1.09371e-09
-4.86215e-10
1.14194e-09
-4.75812e-10
1.18901e-09
-4.63458e-10
1.23479e-09
-4.49338e-10
1.27906e-09
-4.33466e-10
1.32184e-09
-4.15574e-10
1.36248e-09
-3.96556e-10
1.40103e-09
-3.76243e-10
1.43715e-09
-3.54463e-10
1.4707e-09
-3.31145e-10
1.50165e-09
-3.06401e-10
1.53006e-09
-2.8046e-10
1.55592e-09
-2.53526e-10
1.57959e-09
-2.25563e-10
1.59994e-09
-1.97042e-10
1.6173e-09
-1.67969e-10
-1.38296e-10
1.63152e-09
2.43914e-12
-1.52421e-11
9.33066e-12
-4.76453e-11
2.03564e-11
-8.1376e-11
3.53284e-11
-1.15931e-10
5.40689e-11
-1.50886e-10
7.64232e-11
-1.85866e-10
1.02205e-10
-2.20492e-10
1.31538e-10
-2.54371e-10
1.63362e-10
-2.86982e-10
1.98135e-10
-3.18686e-10
2.35809e-10
-3.49214e-10
2.76244e-10
-3.78397e-10
3.19148e-10
-4.06001e-10
3.63837e-10
-4.3171e-10
4.09872e-10
-4.55091e-10
4.55595e-10
-4.75738e-10
5.07757e-10
-4.9361e-10
5.59772e-10
-5.10314e-10
6.12638e-10
-5.25066e-10
6.65865e-10
-5.37383e-10
7.19491e-10
-5.47031e-10
7.73435e-10
-5.54031e-10
8.27534e-10
-5.58533e-10
8.81833e-10
-5.60704e-10
9.35862e-10
-5.60481e-10
9.91278e-10
-5.57514e-10
1.04544e-09
-5.52861e-10
1.09875e-09
-5.46594e-10
1.15066e-09
-5.37986e-10
1.20109e-09
-5.26785e-10
1.25018e-09
-5.13218e-10
1.29792e-09
-4.97502e-10
1.34442e-09
-4.79704e-10
1.38857e-09
-4.59353e-10
1.43078e-09
-4.38102e-10
1.47101e-09
-4.15636e-10
1.50887e-09
-3.91726e-10
1.54404e-09
-3.66213e-10
1.57638e-09
-3.39057e-10
1.60593e-09
-3.10407e-10
1.63297e-09
-2.80511e-10
1.65732e-09
-2.49334e-10
1.67836e-09
-2.17628e-10
1.69643e-09
-1.85437e-10
-1.52686e-10
1.71132e-09
2.59928e-12
-1.77335e-11
9.92433e-12
-5.48222e-11
2.16353e-11
-9.29796e-11
3.75197e-11
-1.31719e-10
5.73851e-11
-1.70622e-10
8.11089e-11
-2.09335e-10
1.08495e-10
-2.47512e-10
1.39841e-10
-2.84798e-10
1.73226e-10
-3.20746e-10
2.09756e-10
-3.55417e-10
2.4925e-10
-3.88657e-10
2.91669e-10
-4.20334e-10
3.36821e-10
-4.50261e-10
3.84141e-10
-4.78276e-10
4.33084e-10
-5.03925e-10
4.81799e-10
-5.26668e-10
5.35276e-10
-5.43985e-10
5.89394e-10
-5.60911e-10
6.44752e-10
-5.76703e-10
7.0073e-10
-5.91154e-10
7.57081e-10
-6.03501e-10
8.13596e-10
-6.13071e-10
8.70116e-10
-6.19394e-10
9.2681e-10
-6.21962e-10
9.83533e-10
-6.20448e-10
1.0407e-09
-6.12948e-10
1.09658e-09
-6.07482e-10
1.15227e-09
-6.00511e-10
1.20677e-09
-5.91324e-10
1.25962e-09
-5.7925e-10
1.31096e-09
-5.64513e-10
1.36079e-09
-5.47276e-10
1.40987e-09
-5.27651e-10
1.45499e-09
-5.05225e-10
1.49852e-09
-4.81609e-10
1.54022e-09
-4.5676e-10
1.57974e-09
-4.30281e-10
1.6166e-09
-4.02252e-10
1.6505e-09
-3.72582e-10
1.68134e-09
-3.41266e-10
1.70974e-09
-3.08509e-10
1.7346e-09
-2.74234e-10
1.75619e-09
-2.3924e-10
1.77486e-09
-2.03635e-10
-1.67542e-10
1.79036e-09
2.75452e-12
-2.0368e-11
1.05021e-11
-6.24089e-11
2.28869e-11
-1.05249e-10
3.96902e-11
-1.4843e-10
6.06711e-11
-1.91473e-10
8.57294e-11
-2.34082e-10
1.14666e-10
-2.75947e-10
1.47903e-10
-3.16795e-10
1.82978e-10
-3.56349e-10
2.21291e-10
-3.94216e-10
2.62574e-10
-4.30252e-10
3.06896e-10
-4.64361e-10
3.54106e-10
-4.96346e-10
4.04024e-10
-5.2624e-10
4.55834e-10
-5.53859e-10
5.10051e-10
-5.78812e-10
5.63616e-10
-6.0076e-10
6.18845e-10
-6.19662e-10
6.75297e-10
-6.35644e-10
7.33188e-10
-6.49182e-10
7.9215e-10
-6.60269e-10
8.51792e-10
-6.68743e-10
9.12074e-10
-6.74528e-10
9.72515e-10
-6.77445e-10
1.03507e-09
-6.77104e-10
1.08999e-09
-6.72547e-10
1.14736e-09
-6.65933e-10
1.20489e-09
-6.5742e-10
1.26203e-09
-6.46689e-10
1.31743e-09
-6.33183e-10
1.37122e-09
-6.16985e-10
1.42332e-09
-5.98222e-10
1.47511e-09
-5.77011e-10
1.5212e-09
-5.5326e-10
1.56594e-09
-5.2762e-10
1.609e-09
-4.99964e-10
1.64998e-09
-4.70474e-10
1.68846e-09
-4.39369e-10
1.72399e-09
-4.06797e-10
1.75621e-09
-3.72685e-10
1.78606e-09
-3.37039e-10
1.81161e-09
-3.0083e-10
1.83373e-09
-2.62037e-10
1.85283e-09
-2.22824e-10
-1.83083e-10
1.86881e-09
2.90518e-12
-2.31486e-11
1.10597e-11
-7.03734e-11
2.41087e-11
-1.18137e-10
4.18858e-11
-1.65795e-10
6.39806e-11
-2.13069e-10
9.03279e-11
-2.59637e-10
1.20711e-10
-3.05305e-10
1.55567e-10
-3.49983e-10
1.92535e-10
-3.93704e-10
2.32776e-10
-4.34908e-10
2.76017e-10
-4.73934e-10
3.22434e-10
-5.09988e-10
3.71615e-10
-5.42805e-10
4.2364e-10
-5.7337e-10
4.77897e-10
-6.02432e-10
5.3494e-10
-6.30406e-10
5.91187e-10
-6.58844e-10
6.48965e-10
-6.79537e-10
7.07466e-10
-6.96347e-10
7.6739e-10
-7.10011e-10
8.28529e-10
-7.20884e-10
8.90448e-10
-7.28964e-10
9.53277e-10
-7.34324e-10
1.01655e-09
-7.37066e-10
1.08312e-09
-7.37398e-10
1.13942e-09
-7.34873e-10
1.19827e-09
-7.27916e-10
1.25755e-09
-7.17656e-10
1.31716e-09
-7.04481e-10
1.37488e-09
-6.87255e-10
1.43092e-09
-6.68495e-10
1.48515e-09
-6.48161e-10
1.53922e-09
-6.26283e-10
1.58693e-09
-6.03349e-10
1.63324e-09
-5.75557e-10
1.67793e-09
-5.46569e-10
1.72026e-09
-5.1195e-10
1.76001e-09
-4.76008e-10
1.79684e-09
-4.39742e-10
1.83048e-09
-4.02963e-10
1.8607e-09
-3.64994e-10
1.88875e-09
-3.25547e-10
1.91107e-09
-2.85292e-10
1.93063e-09
-2.42764e-10
-1.99349e-10
1.94691e-09
3.07033e-12
-2.58722e-11
1.16096e-11
-7.85313e-11
2.55006e-11
-1.31384e-10
4.42262e-11
-1.84084e-10
6.74449e-11
-2.36221e-10
9.49538e-11
-2.87344e-10
1.26526e-10
-3.37175e-10
1.62382e-10
-3.85533e-10
2.01885e-10
-4.32808e-10
2.442e-10
-4.77828e-10
2.90235e-10
-5.19953e-10
3.39563e-10
-5.59362e-10
3.90594e-10
-5.96278e-10
4.43564e-10
-6.30003e-10
4.98623e-10
-6.60836e-10
5.5462e-10
-6.89489e-10
6.18059e-10
-7.17773e-10
6.79e-10
-7.40782e-10
7.40248e-10
-7.59219e-10
8.0235e-10
-7.73703e-10
8.65597e-10
-7.84715e-10
9.29526e-10
-7.92411e-10
9.9426e-10
-7.97076e-10
1.05933e-09
-7.99232e-10
1.128e-09
-7.99259e-10
1.18822e-09
-8.02101e-10
1.2498e-09
-7.95563e-10
1.31139e-09
-7.82749e-10
1.3744e-09
-7.65882e-10
1.43303e-09
-7.48541e-10
1.49008e-09
-7.2853e-10
1.54539e-09
-7.06024e-10
1.59978e-09
-6.81031e-10
1.6522e-09
-6.55504e-10
1.69919e-09
-6.27289e-10
1.7491e-09
-5.92633e-10
1.79223e-09
-5.57059e-10
1.83205e-09
-5.18871e-10
1.86904e-09
-4.79222e-10
1.9035e-09
-4.38466e-10
1.93493e-09
-3.96458e-10
1.96356e-09
-3.53118e-10
1.98792e-09
-3.09499e-10
2.00818e-09
-2.63549e-10
-2.16158e-10
2.02487e-09
3.18569e-12
-2.8854e-11
1.21955e-11
-8.71779e-11
2.66963e-11
-1.45495e-10
4.62787e-11
-2.03399e-10
7.06579e-11
-2.60457e-10
9.94396e-11
-3.16278e-10
1.32398e-10
-3.70489e-10
1.69121e-10
-4.22767e-10
2.10632e-10
-4.72666e-10
2.55436e-10
-5.20921e-10
3.03763e-10
-5.66922e-10
3.55074e-10
-6.10212e-10
4.08665e-10
-6.50341e-10
4.63692e-10
-6.86875e-10
5.203e-10
-7.19819e-10
5.75931e-10
-7.49846e-10
6.4388e-10
-7.78686e-10
7.08413e-10
-8.03412e-10
7.72817e-10
-8.23813e-10
8.37545e-10
-8.39599e-10
9.03198e-10
-8.51658e-10
9.69221e-10
-8.59891e-10
1.0353e-09
-8.64614e-10
1.10188e-09
-8.66437e-10
1.16684e-09
-8.65985e-10
1.23567e-09
-8.6302e-10
1.30234e-09
-8.55798e-10
1.36742e-09
-8.44527e-10
1.43018e-09
-8.29457e-10
1.49072e-09
-8.1108e-10
1.54928e-09
-7.89875e-10
1.60633e-09
-7.65694e-10
1.66038e-09
-7.37992e-10
1.71517e-09
-7.04796e-10
1.76799e-09
-6.73492e-10
1.8182e-09
-6.40385e-10
1.86348e-09
-6.03424e-10
1.90413e-09
-5.6272e-10
1.94176e-09
-5.19368e-10
1.97698e-09
-4.74459e-10
2.00945e-09
-4.28431e-10
2.03798e-09
-3.81322e-10
2.06439e-09
-3.33313e-10
2.08578e-09
-2.83554e-10
-2.32642e-10
2.10311e-09
3.31135e-12
-3.20863e-11
1.26997e-11
-9.63862e-11
2.77579e-11
-1.60325e-10
4.8182e-11
-2.23535e-10
7.36567e-11
-2.85683e-10
1.03799e-10
-3.46403e-10
1.38286e-10
-4.05237e-10
1.76869e-10
-4.61657e-10
2.19468e-10
-5.14718e-10
2.65905e-10
-5.66303e-10
3.16189e-10
-6.15705e-10
3.69841e-10
-6.62494e-10
4.26149e-10
-7.06168e-10
4.8376e-10
-7.4605e-10
5.4236e-10
-7.81695e-10
5.98249e-10
-8.13285e-10
6.69192e-10
-8.41433e-10
7.36849e-10
-8.67381e-10
8.04678e-10
-8.89463e-10
8.72277e-10
-9.07298e-10
9.4063e-10
-9.20973e-10
1.00893e-09
-9.30676e-10
1.0766e-09
-9.36246e-10
1.14424e-09
-9.37927e-10
1.21017e-09
-9.35714e-10
1.28261e-09
-9.29324e-10
1.35224e-09
-9.2056e-10
1.42012e-09
-9.09435e-10
1.4851e-09
-8.94541e-10
1.54754e-09
-8.75988e-10
1.60826e-09
-8.54116e-10
1.66766e-09
-8.2859e-10
1.72585e-09
-7.97845e-10
1.77837e-09
-7.56491e-10
1.83256e-09
-7.21446e-10
1.88561e-09
-6.86724e-10
1.93389e-09
-6.49147e-10
1.97655e-09
-6.06987e-10
2.01518e-09
-5.60842e-10
2.05098e-09
-5.12126e-10
2.08405e-09
-4.61952e-10
2.11304e-09
-4.10726e-10
2.14077e-09
-3.58551e-10
2.16296e-09
-3.04958e-10
-2.50261e-10
2.18079e-09
3.4706e-12
-3.54514e-11
1.32291e-11
-1.06026e-10
2.88358e-11
-1.75848e-10
4.99974e-11
-2.4458e-10
7.64478e-11
-3.11947e-10
1.07944e-10
-3.77646e-10
1.4411e-10
-4.41212e-10
1.85245e-10
-5.02012e-10
2.28458e-10
-5.58763e-10
2.7617e-10
-6.13707e-10
3.28035e-10
-6.66315e-10
3.83757e-10
-7.16427e-10
4.42698e-10
-7.6362e-10
5.03287e-10
-8.07126e-10
5.64573e-10
-8.45975e-10
6.22464e-10
-8.79317e-10
6.94388e-10
-9.06914e-10
7.646e-10
-9.33526e-10
8.35443e-10
-9.57006e-10
9.05621e-10
-9.74233e-10
9.7657e-10
-9.93455e-10
1.04759e-09
-1.00863e-09
1.11782e-09
-1.01844e-09
1.18789e-09
-1.02123e-09
1.2566e-09
-1.0159e-09
1.32997e-09
-9.97138e-10
1.40064e-09
-9.87103e-10
1.47095e-09
-9.75526e-10
1.53843e-09
-9.60798e-10
1.60304e-09
-9.42216e-10
1.66658e-09
-9.19939e-10
1.72955e-09
-8.93194e-10
1.79687e-09
-8.59787e-10
1.84242e-09
-8.11405e-10
1.89572e-09
-7.71222e-10
1.95054e-09
-7.329e-10
2.0025e-09
-6.93367e-10
2.04834e-09
-6.49958e-10
2.08883e-09
-6.02036e-10
2.12545e-09
-5.50493e-10
2.15898e-09
-4.96693e-10
2.18839e-09
-4.41367e-10
2.21703e-09
-3.84551e-10
2.23987e-09
-3.26926e-10
-2.68291e-10
2.25825e-09
3.63902e-12
-3.89385e-11
1.3781e-11
-1.16078e-10
2.99407e-11
-1.92067e-10
5.17937e-11
-2.66555e-10
7.91278e-11
-3.39219e-10
1.11915e-10
-4.09847e-10
1.49797e-10
-4.78096e-10
1.93859e-10
-5.4347e-10
2.37691e-10
-6.04866e-10
2.86546e-10
-6.63395e-10
3.39566e-10
-7.1908e-10
3.96838e-10
-7.72155e-10
4.58024e-10
-8.2224e-10
5.21821e-10
-8.68723e-10
5.86892e-10
-9.1071e-10
6.49045e-10
-9.47064e-10
7.20359e-10
-9.73058e-10
7.91804e-10
-9.98064e-10
8.67071e-10
-1.02121e-09
9.3361e-10
-1.0456e-09
1.00716e-09
-1.0616e-09
1.0818e-09
-1.07389e-09
1.15784e-09
-1.08214e-09
1.23392e-09
-1.0858e-09
1.31444e-09
-1.08348e-09
1.37752e-09
-1.07136e-09
1.44863e-09
-1.05877e-09
1.52005e-09
-1.0449e-09
1.58986e-09
-1.02858e-09
1.65678e-09
-1.00839e-09
1.72392e-09
-9.83896e-10
1.79173e-09
-9.54747e-10
1.87245e-09
-9.19497e-10
1.90874e-09
-8.73678e-10
1.9596e-09
-8.29053e-10
2.01418e-09
-7.84426e-10
2.06893e-09
-7.39664e-10
2.11832e-09
-6.92973e-10
2.16161e-09
-6.42808e-10
2.19979e-09
-5.88871e-10
2.23414e-09
-5.32002e-10
2.26436e-09
-4.72852e-10
2.29326e-09
-4.11473e-10
2.31665e-09
-3.4958e-10
-2.8675e-10
2.33558e-09
3.77357e-12
-4.2531e-11
1.42996e-11
-1.26465e-10
3.10497e-11
-2.08865e-10
5.36577e-11
-2.89298e-10
8.19009e-11
-3.67466e-10
1.15895e-10
-4.43045e-10
1.5534e-10
-5.15945e-10
2.02009e-10
-5.86018e-10
2.47103e-10
-6.5291e-10
2.97246e-10
-7.15706e-10
3.51208e-10
-7.74679e-10
4.09633e-10
-8.30131e-10
4.72621e-10
-8.82165e-10