/*--------------------------------*- C++ -*----------------------------------*\
  =========                 |
  \\      /  F ield         | OpenFOAM: The Open Source CFD Toolbox
   \\    /   O peration     | Website:  https://openfoam.org
    \\  /    A nd           | Version:  7
     \\/     M anipulation  |
\*---------------------------------------------------------------------------*/
FoamFile
{
    version     2.0;
    format      ascii;
    class       volVectorField;
    location    "1.4";
    object      U;
}
// * * * * * * * * * * * * * * * * * * * * * * * * * * * * * * * * * * * * * //

dimensions      [0 1 -1 0 0 0 0];

internalField   nonuniform List<vector> 
11050
(
(-3.18129e-11 3.2174e-11 0)
(-1.30503e-10 7.60662e-11 0)
(-2.6786e-10 8.27491e-11 0)
(-3.80966e-10 6.59765e-11 0)
(-4.24641e-10 3.80899e-11 0)
(-3.80373e-10 6.58694e-12 0)
(-2.38625e-10 -2.40098e-11 0)
(3.45819e-11 -5.2713e-11 0)
(4.34769e-10 -8.4784e-11 0)
(9.11831e-10 -1.20668e-10 0)
(1.46842e-09 -1.5542e-10 0)
(2.11912e-09 -1.8638e-10 0)
(2.85318e-09 -2.12413e-10 0)
(3.65759e-09 -2.33245e-10 0)
(4.52426e-09 -2.48385e-10 0)
(5.47527e-09 -2.58938e-10 0)
(6.54597e-09 -2.70282e-10 0)
(7.67577e-09 -3.11353e-10 0)
(8.80292e-09 -3.43147e-10 0)
(9.93791e-09 -3.48196e-10 0)
(1.1094e-08 -3.36016e-10 0)
(1.22917e-08 -3.24738e-10 0)
(1.3527e-08 -3.21394e-10 0)
(1.47812e-08 -3.21648e-10 0)
(1.60904e-08 -3.2127e-10 0)
(1.74086e-08 -3.33143e-10 0)
(1.86585e-08 -3.34478e-10 0)
(1.9882e-08 -3.30455e-10 0)
(2.1102e-08 -3.2409e-10 0)
(2.23049e-08 -3.16133e-10 0)
(2.34736e-08 -3.0487e-10 0)
(2.46009e-08 -2.87516e-10 0)
(2.57478e-08 -2.66149e-10 0)
(2.68913e-08 -2.61311e-10 0)
(2.79276e-08 -2.54889e-10 0)
(2.88818e-08 -2.4405e-10 0)
(2.9795e-08 -2.29363e-10 0)
(3.06558e-08 -2.11467e-10 0)
(3.14485e-08 -1.89424e-10 0)
(3.2167e-08 -1.60876e-10 0)
(3.28864e-08 -1.28548e-10 0)
(3.35859e-08 -1.17763e-10 0)
(3.41438e-08 -1.07334e-10 0)
(3.45886e-08 -9.21677e-11 0)
(3.49736e-08 -7.2256e-11 0)
(-6.32057e-11 1.53303e-10 0)
(-2.32475e-10 2.93547e-10 0)
(-4.26195e-10 2.87315e-10 0)
(-5.26961e-10 1.85791e-10 0)
(-4.48834e-10 2.94784e-11 0)
(-1.45857e-10 -1.54883e-10 0)
(4.1086e-10 -3.49262e-10 0)
(1.27207e-09 -5.43577e-10 0)
(2.43106e-09 -7.3409e-10 0)
(3.82236e-09 -9.32945e-10 0)
(5.44892e-09 -1.1271e-09 0)
(7.3268e-09 -1.30957e-09 0)
(9.43578e-09 -1.47791e-09 0)
(1.17517e-08 -1.6319e-09 0)
(1.42584e-08 -1.76739e-09 0)
(1.69764e-08 -1.87676e-09 0)
(1.99121e-08 -1.93384e-09 0)
(2.30075e-08 -2.08501e-09 0)
(2.62139e-08 -2.2274e-09 0)
(2.94932e-08 -2.30434e-09 0)
(3.28222e-08 -2.32405e-09 0)
(3.62212e-08 -2.32668e-09 0)
(3.96983e-08 -2.33402e-09 0)
(4.32366e-08 -2.34435e-09 0)
(4.68652e-08 -2.35187e-09 0)
(5.05237e-08 -2.37422e-09 0)
(5.40911e-08 -2.36447e-09 0)
(5.75869e-08 -2.33557e-09 0)
(6.10464e-08 -2.2938e-09 0)
(6.44518e-08 -2.24159e-09 0)
(6.77775e-08 -2.17674e-09 0)
(7.10108e-08 -2.0957e-09 0)
(7.42133e-08 -2.00377e-09 0)
(7.73572e-08 -1.93009e-09 0)
(8.02982e-08 -1.84844e-09 0)
(8.30412e-08 -1.75402e-09 0)
(8.56434e-08 -1.64695e-09 0)
(8.80912e-08 -1.52836e-09 0)
(9.03632e-08 -1.39736e-09 0)
(9.24532e-08 -1.2519e-09 0)
(9.44424e-08 -1.09942e-09 0)
(9.63107e-08 -9.75397e-10 0)
(9.78945e-08 -8.51809e-10 0)
(9.92029e-08 -7.18678e-10 0)
(1.00313e-07 -5.74053e-10 0)
(-6.27141e-11 3.26612e-10 0)
(-2.06623e-10 5.48335e-10 0)
(-3.15228e-10 4.66116e-10 0)
(-2.50546e-10 1.81936e-10 0)
(9.09291e-11 -2.30855e-10 0)
(7.71609e-10 -7.20306e-10 0)
(1.83452e-09 -1.24864e-09 0)
(3.34416e-09 -1.78759e-09 0)
(5.27921e-09 -2.30683e-09 0)
(7.5703e-09 -2.83219e-09 0)
(1.0236e-08 -3.34578e-09 0)
(1.3286e-08 -3.83971e-09 0)
(1.66925e-08 -4.3113e-09 0)
(2.0428e-08 -4.75835e-09 0)
(2.44794e-08 -5.16508e-09 0)
(2.88906e-08 -5.49767e-09 0)
(3.35318e-08 -5.64784e-09 0)
(3.83591e-08 -5.96071e-09 0)
(4.34666e-08 -6.28963e-09 0)
(4.87479e-08 -6.54141e-09 0)
(5.4112e-08 -6.69171e-09 0)
(5.95545e-08 -6.7798e-09 0)
(6.50926e-08 -6.83704e-09 0)
(7.07177e-08 -6.87573e-09 0)
(7.64525e-08 -6.89785e-09 0)
(8.2243e-08 -6.91195e-09 0)
(8.79432e-08 -6.8717e-09 0)
(9.35362e-08 -6.79143e-09 0)
(9.90596e-08 -6.6766e-09 0)
(1.04492e-07 -6.53112e-09 0)
(1.09805e-07 -6.35609e-09 0)
(1.14976e-07 -6.15231e-09 0)
(1.2006e-07 -5.92589e-09 0)
(1.25023e-07 -5.68923e-09 0)
(1.29709e-07 -5.42884e-09 0)
(1.34106e-07 -5.14308e-09 0)
(1.38269e-07 -4.83183e-09 0)
(1.42184e-07 -4.49657e-09 0)
(1.45824e-07 -4.13855e-09 0)
(1.49181e-07 -3.7602e-09 0)
(1.5233e-07 -3.37036e-09 0)
(1.55249e-07 -2.98258e-09 0)
(1.57766e-07 -2.58991e-09 0)
(1.59878e-07 -2.18469e-09 0)
(1.61664e-07 -1.76377e-09 0)
(-4.35719e-11 4.64409e-10 0)
(-9.90538e-11 6.9832e-10 0)
(-2.46568e-11 4.59248e-10 0)
(3.12137e-10 -9.99652e-11 0)
(1.01862e-09 -8.71941e-10 0)
(2.16604e-09 -1.77776e-09 0)
(3.80734e-09 -2.75796e-09 0)
(6.0211e-09 -3.76505e-09 0)
(8.76293e-09 -4.74896e-09 0)
(1.19568e-08 -5.72992e-09 0)
(1.56418e-08 -6.68805e-09 0)
(1.98204e-08 -7.61817e-09 0)
(2.44617e-08 -8.51684e-09 0)
(2.95456e-08 -9.37478e-09 0)
(3.50777e-08 -1.01569e-08 0)
(4.11601e-08 -1.07968e-08 0)
(4.74019e-08 -1.11143e-08 0)
(5.37556e-08 -1.16312e-08 0)
(6.05896e-08 -1.21896e-08 0)
(6.77308e-08 -1.26794e-08 0)
(7.5008e-08 -1.30262e-08 0)
(8.23676e-08 -1.32596e-08 0)
(8.98259e-08 -1.34101e-08 0)
(9.73803e-08 -1.34986e-08 0)
(1.05052e-07 -1.35353e-08 0)
(1.12803e-07 -1.3527e-08 0)
(1.20471e-07 -1.34456e-08 0)
(1.28005e-07 -1.32965e-08 0)
(1.35439e-07 -1.30819e-08 0)
(1.42748e-07 -1.28061e-08 0)
(1.49895e-07 -1.2474e-08 0)
(1.56854e-07 -1.20905e-08 0)
(1.6367e-07 -1.16622e-08 0)
(1.70308e-07 -1.11956e-08 0)
(1.76603e-07 -1.06818e-08 0)
(1.82529e-07 -1.01211e-08 0)
(1.88139e-07 -9.51627e-09 0)
(1.93411e-07 -8.87001e-09 0)
(1.98317e-07 -8.1857e-09 0)
(2.02843e-07 -7.46858e-09 0)
(2.0706e-07 -6.72646e-09 0)
(2.10944e-07 -5.96471e-09 0)
(2.14317e-07 -5.18705e-09 0)
(2.17172e-07 -4.38789e-09 0)
(2.19586e-07 -3.56756e-09 0)
(-1.51472e-11 5.28378e-10 0)
(5.67758e-11 6.6739e-10 0)
(3.81255e-10 1.76083e-10 0)
(1.06658e-09 -7.52152e-10 0)
(2.21411e-09 -1.97745e-09 0)
(3.89749e-09 -3.39411e-09 0)
(6.17504e-09 -4.92167e-09 0)
(9.13675e-09 -6.49682e-09 0)
(1.27163e-08 -8.06069e-09 0)
(1.68271e-08 -9.60682e-09 0)
(2.1521e-08 -1.11105e-08 0)
(2.67946e-08 -1.25698e-08 0)
(3.26225e-08 -1.39784e-08 0)
(3.9004e-08 -1.53184e-08 0)
(4.59755e-08 -1.65424e-08 0)
(5.37161e-08 -1.75778e-08 0)
(6.14938e-08 -1.8235e-08 0)
(6.92258e-08 -1.9016e-08 0)
(7.76234e-08 -1.98141e-08 0)
(8.6483e-08 -2.05615e-08 0)
(9.55589e-08 -2.11209e-08 0)
(1.04725e-07 -2.15363e-08 0)
(1.13992e-07 -2.18199e-08 0)
(1.23355e-07 -2.19859e-08 0)
(1.32838e-07 -2.20448e-08 0)
(1.42404e-07 -2.19986e-08 0)
(1.51888e-07 -2.18662e-08 0)
(1.61224e-07 -2.16305e-08 0)
(1.70438e-07 -2.12927e-08 0)
(1.79493e-07 -2.0856e-08 0)
(1.88345e-07 -2.03267e-08 0)
(1.96961e-07 -1.97131e-08 0)
(2.05381e-07 -1.90226e-08 0)
(2.1357e-07 -1.8261e-08 0)
(2.21357e-07 -1.7429e-08 0)
(2.28703e-07 -1.65192e-08 0)
(2.35655e-07 -1.55414e-08 0)
(2.42188e-07 -1.45002e-08 0)
(2.48269e-07 -1.34004e-08 0)
(2.53878e-07 -1.22487e-08 0)
(2.59085e-07 -1.10526e-08 0)
(2.6386e-07 -9.81602e-09 0)
(2.68024e-07 -8.55359e-09 0)
(2.71568e-07 -7.25204e-09 0)
(2.74565e-07 -5.92187e-09 0)
(1.73656e-11 5.00109e-10 0)
(2.39972e-10 4.14937e-10 0)
(8.58369e-10 -4.35344e-10 0)
(1.94462e-09 -1.83157e-09 0)
(3.58941e-09 -3.60425e-09 0)
(5.86273e-09 -5.62183e-09 0)
(8.82165e-09 -7.78494e-09 0)
(1.25591e-08 -1.00194e-08 0)
(1.69998e-08 -1.22691e-08 0)
(2.20516e-08 -1.44827e-08 0)
(2.77605e-08 -1.66168e-08 0)
(3.4117e-08 -1.86686e-08 0)
(4.11075e-08 -2.06227e-08 0)
(4.87515e-08 -2.24582e-08 0)
(5.71041e-08 -2.41539e-08 0)
(6.6403e-08 -2.56898e-08 0)
(7.56731e-08 -2.70053e-08 0)
(8.47722e-08 -2.81522e-08 0)
(9.46275e-08 -2.91905e-08 0)
(1.05084e-07 -3.01697e-08 0)
(1.15846e-07 -3.08926e-08 0)
(1.26695e-07 -3.14813e-08 0)
(1.37666e-07 -3.19148e-08 0)
(1.48742e-07 -3.2179e-08 0)
(1.59943e-07 -3.22793e-08 0)
(1.71207e-07 -3.22124e-08 0)
(1.82373e-07 -3.20246e-08 0)
(1.93393e-07 -3.16776e-08 0)
(2.0427e-07 -3.11895e-08 0)
(2.14958e-07 -3.05628e-08 0)
(2.25404e-07 -2.98019e-08 0)
(2.35569e-07 -2.89153e-08 0)
(2.45487e-07 -2.79118e-08 0)
(2.55117e-07 -2.67947e-08 0)
(2.64292e-07 -2.55809e-08 0)
(2.72966e-07 -2.4245e-08 0)
(2.81168e-07 -2.28162e-08 0)
(2.88876e-07 -2.13003e-08 0)
(2.96051e-07 -1.97017e-08 0)
(3.0267e-07 -1.80287e-08 0)
(3.088e-07 -1.62901e-08 0)
(3.14401e-07 -1.44882e-08 0)
(3.193e-07 -1.26466e-08 0)
(3.2349e-07 -1.07338e-08 0)
(3.27026e-07 -8.78628e-09 0)
(5.24871e-11 3.82993e-10 0)
(4.40407e-10 -4.53491e-11 0)
(1.3788e-09 -1.36902e-09 0)
(2.89907e-09 -3.33722e-09 0)
(5.08108e-09 -5.75021e-09 0)
(7.98478e-09 -8.45413e-09 0)
(1.16573e-08 -1.13374e-08 0)
(1.61818e-08 -1.43246e-08 0)
(2.14972e-08 -1.73683e-08 0)
(2.75243e-08 -2.03359e-08 0)
(3.42803e-08 -2.3167e-08 0)
(4.1743e-08 -2.58265e-08 0)
(4.99095e-08 -2.82753e-08 0)
(5.87855e-08 -3.05148e-08 0)
(6.84047e-08 -3.26327e-08 0)
(7.89812e-08 -3.47912e-08 0)
(8.9705e-08 -3.74664e-08 0)
(1.00365e-07 -3.91208e-08 0)
(1.11665e-07 -4.03195e-08 0)
(1.2365e-07 -4.1305e-08 0)
(1.3599e-07 -4.22242e-08 0)
(1.48371e-07 -4.30027e-08 0)
(1.60928e-07 -4.3583e-08 0)
(1.73619e-07 -4.39425e-08 0)
(1.86442e-07 -4.40924e-08 0)
(1.99308e-07 -4.40489e-08 0)
(2.12072e-07 -4.37586e-08 0)
(2.24685e-07 -4.32587e-08 0)
(2.37118e-07 -4.25866e-08 0)
(2.49337e-07 -4.17411e-08 0)
(2.6128e-07 -4.07197e-08 0)
(2.729e-07 -3.95258e-08 0)
(2.84227e-07 -3.81732e-08 0)
(2.9521e-07 -3.66652e-08 0)
(3.05692e-07 -3.49701e-08 0)
(3.15614e-07 -3.31263e-08 0)
(3.24981e-07 -3.11698e-08 0)
(3.33784e-07 -2.91012e-08 0)
(3.41982e-07 -2.69251e-08 0)
(3.49543e-07 -2.46524e-08 0)
(3.56537e-07 -2.23024e-08 0)
(3.6291e-07 -1.98796e-08 0)
(3.6851e-07 -1.73289e-08 0)
(3.73311e-07 -1.46955e-08 0)
(3.77342e-07 -1.20273e-08 0)
(1.05055e-10 2.24103e-10 0)
(6.6707e-10 -7.01498e-10 0)
(1.92396e-09 -2.64248e-09 0)
(3.89974e-09 -5.30249e-09 0)
(6.64949e-09 -8.46294e-09 0)
(1.02102e-08 -1.1953e-08 0)
(1.46063e-08 -1.56447e-08 0)
(1.9903e-08 -1.94489e-08 0)
(2.6111e-08 -2.33126e-08 0)
(3.31726e-08 -2.70765e-08 0)
(4.10522e-08 -3.07218e-08 0)
(4.97293e-08 -3.41638e-08 0)
(5.91606e-08 -3.73361e-08 0)
(6.92419e-08 -4.02217e-08 0)
(7.98681e-08 -4.29127e-08 0)
(9.08866e-08 -4.56022e-08 0)
(1.03018e-07 -4.88359e-08 0)
(1.16026e-07 -5.09892e-08 0)
(1.29051e-07 -5.25914e-08 0)
(1.42349e-07 -5.38619e-08 0)
(1.55931e-07 -5.51004e-08 0)
(1.69777e-07 -5.6108e-08 0)
(1.83856e-07 -5.68388e-08 0)
(1.98074e-07 -5.72844e-08 0)
(2.12402e-07 -5.74551e-08 0)
(2.26829e-07 -5.737e-08 0)
(2.41163e-07 -5.6967e-08 0)
(2.55256e-07 -5.63201e-08 0)
(2.69135e-07 -5.54374e-08 0)
(2.82786e-07 -5.43271e-08 0)
(2.9614e-07 -5.29923e-08 0)
(3.0913e-07 -5.1434e-08 0)
(3.2178e-07 -4.9662e-08 0)
(3.34087e-07 -4.76872e-08 0)
(3.45836e-07 -4.54727e-08 0)
(3.56905e-07 -4.30968e-08 0)
(3.67353e-07 -4.05569e-08 0)
(3.77181e-07 -3.78619e-08 0)
(3.86333e-07 -3.5025e-08 0)
(3.94764e-07 -3.20591e-08 0)
(4.02543e-07 -2.89831e-08 0)
(4.09695e-07 -2.58168e-08 0)
(4.16003e-07 -2.24837e-08 0)
(4.21351e-07 -1.90876e-08 0)
(4.25833e-07 -1.56265e-08 0)
(1.31162e-10 -3.78556e-11 0)
(8.49767e-10 -1.65191e-09 0)
(2.44846e-09 -4.35256e-09 0)
(4.90251e-09 -7.82413e-09 0)
(8.2367e-09 -1.18413e-08 0)
(1.24775e-08 -1.62203e-08 0)
(1.76359e-08 -2.08109e-08 0)
(2.37566e-08 -2.54918e-08 0)
(3.08769e-08 -3.01671e-08 0)
(3.89058e-08 -3.47871e-08 0)
(4.78024e-08 -3.93244e-08 0)
(5.7604e-08 -4.36932e-08 0)
(6.82483e-08 -4.78188e-08 0)
(7.95874e-08 -5.16283e-08 0)
(9.14474e-08 -5.50943e-08 0)
(1.03589e-07 -5.82575e-08 0)
(1.17018e-07 -6.12026e-08 0)
(1.31537e-07 -6.38093e-08 0)
(1.46001e-07 -6.60543e-08 0)
(1.60678e-07 -6.79486e-08 0)
(1.7565e-07 -6.95257e-08 0)
(1.90943e-07 -7.07562e-08 0)
(2.06492e-07 -7.16389e-08 0)
(2.22189e-07 -7.21719e-08 0)
(2.37997e-07 -7.2356e-08 0)
(2.5389e-07 -7.21946e-08 0)
(2.69657e-07 -7.17188e-08 0)
(2.8517e-07 -7.09285e-08 0)
(3.00458e-07 -6.98101e-08 0)
(3.15479e-07 -6.83897e-08 0)
(3.30173e-07 -6.66869e-08 0)
(3.44473e-07 -6.47089e-08 0)
(3.58392e-07 -6.24558e-08 0)
(3.71916e-07 -5.99415e-08 0)
(3.84813e-07 -5.72082e-08 0)
(3.9698e-07 -5.42597e-08 0)
(4.08484e-07 -5.10785e-08 0)
(4.19295e-07 -4.76892e-08 0)
(4.2936e-07 -4.41151e-08 0)
(4.38635e-07 -4.03719e-08 0)
(4.47176e-07 -3.64684e-08 0)
(4.55022e-07 -3.24296e-08 0)
(4.6193e-07 -2.82925e-08 0)
(4.67795e-07 -2.40711e-08 0)
(4.72736e-07 -1.97412e-08 0)
(1.48961e-10 -4.62005e-10 0)
(1.02207e-09 -2.9318e-09 0)
(2.96965e-09 -6.51766e-09 0)
(5.90378e-09 -1.09113e-08 0)
(9.82562e-09 -1.58815e-08 0)
(1.47551e-08 -2.12361e-08 0)
(2.06989e-08 -2.68107e-08 0)
(2.77035e-08 -3.24603e-08 0)
(3.57358e-08 -3.8041e-08 0)
(4.46916e-08 -4.35865e-08 0)
(5.4588e-08 -4.90114e-08 0)
(6.54651e-08 -5.42572e-08 0)
(7.72757e-08 -5.92605e-08 0)
(8.98748e-08 -6.39353e-08 0)
(1.03048e-07 -6.81932e-08 0)
(1.16531e-07 -7.19922e-08 0)
(1.31207e-07 -7.52637e-08 0)
(1.46946e-07 -7.83923e-08 0)
(1.62755e-07 -8.11756e-08 0)
(1.78827e-07 -8.35215e-08 0)
(1.95212e-07 -8.54051e-08 0)
(2.11915e-07 -8.68514e-08 0)
(2.28875e-07 -8.78866e-08 0)
(2.45986e-07 -8.8507e-08 0)
(2.63207e-07 -8.87196e-08 0)
(2.8049e-07 -8.8526e-08 0)
(2.97639e-07 -8.7954e-08 0)
(3.14539e-07 -8.69845e-08 0)
(3.31186e-07 -8.56103e-08 0)
(3.47523e-07 -8.38576e-08 0)
(3.63492e-07 -8.17554e-08 0)
(3.79037e-07 -7.93235e-08 0)
(3.94169e-07 -7.65671e-08 0)
(4.08832e-07 -7.34948e-08 0)
(4.22815e-07 -7.01628e-08 0)
(4.36048e-07 -6.65515e-08 0)
(4.48563e-07 -6.2662e-08 0)
(4.60314e-07 -5.85176e-08 0)
(4.71247e-07 -5.41439e-08 0)
(4.81326e-07 -4.95635e-08 0)
(4.90606e-07 -4.47902e-08 0)
(4.99079e-07 -3.9839e-08 0)
(5.06533e-07 -3.47954e-08 0)
(5.12912e-07 -2.96275e-08 0)
(5.18291e-07 -2.43347e-08 0)
(1.74181e-10 -9.89892e-10 0)
(1.20531e-09 -4.48199e-09 0)
(3.4944e-09 -9.09658e-09 0)
(6.90303e-09 -1.45319e-08 0)
(1.14086e-08 -2.05553e-08 0)
(1.70247e-08 -2.69709e-08 0)
(2.37572e-08 -3.36075e-08 0)
(3.16637e-08 -4.03102e-08 0)
(4.06302e-08 -4.69198e-08 0)
(5.0528e-08 -5.34461e-08 0)
(6.14255e-08 -5.97993e-08 0)
(7.33513e-08 -6.59301e-08 0)
(8.62803e-08 -7.17943e-08 0)
(1.00097e-07 -7.73169e-08 0)
(1.14589e-07 -8.23888e-08 0)
(1.295e-07 -8.69104e-08 0)
(1.45411e-07 -9.07469e-08 0)
(1.62257e-07 -9.44293e-08 0)
(1.79372e-07 -9.77138e-08 0)
(1.96841e-07 -1.00476e-07 0)
(2.14629e-07 -1.02678e-07 0)
(2.32703e-07 -1.04363e-07 0)
(2.51023e-07 -1.05577e-07 0)
(2.69496e-07 -1.06276e-07 0)
(2.88074e-07 -1.06493e-07 0)
(3.06701e-07 -1.06211e-07 0)
(3.25184e-07 -1.05503e-07 0)
(3.4342e-07 -1.04347e-07 0)
(3.61387e-07 -1.02715e-07 0)
(3.79e-07 -1.00618e-07 0)
(3.96197e-07 -9.80893e-08 0)
(4.12928e-07 -9.51609e-08 0)
(4.29212e-07 -9.18524e-08 0)
(4.44975e-07 -8.81674e-08 0)
(4.60006e-07 -8.41601e-08 0)
(4.74253e-07 -7.98315e-08 0)
(4.87733e-07 -7.51823e-08 0)
(5.00385e-07 -7.02302e-08 0)
(5.12152e-07 -6.49988e-08 0)
(5.22996e-07 -5.95155e-08 0)
(5.32978e-07 -5.38037e-08 0)
(5.42058e-07 -4.78714e-08 0)
(5.50038e-07 -4.18136e-08 0)
(5.56896e-07 -3.56183e-08 0)
(5.62688e-07 -2.92862e-08 0)
(2.02371e-10 -1.60495e-09 0)
(1.39146e-09 -6.29127e-09 0)
(4.0168e-09 -1.20858e-08 0)
(7.89601e-09 -1.86893e-08 0)
(1.29818e-08 -2.5872e-08 0)
(1.92801e-08 -3.34358e-08 0)
(2.67954e-08 -4.1208e-08 0)
(3.55934e-08 -4.90343e-08 0)
(4.55017e-08 -5.67664e-08 0)
(5.63669e-08 -6.4354e-08 0)
(6.82819e-08 -7.17093e-08 0)
(8.12542e-08 -7.87733e-08 0)
(9.5273e-08 -8.5517e-08 0)
(1.10266e-07 -9.18845e-08 0)
(1.26049e-07 -9.77693e-08 0)
(1.42389e-07 -1.03048e-07 0)
(1.5954e-07 -1.07569e-07 0)
(1.77483e-07 -1.11801e-07 0)
(1.9588e-07 -1.15551e-07 0)
(2.14718e-07 -1.18727e-07 0)
(2.33877e-07 -1.21286e-07 0)
(2.53278e-07 -1.23256e-07 0)
(2.72941e-07 -1.24698e-07 0)
(2.92769e-07 -1.25471e-07 0)
(3.1269e-07 -1.25647e-07 0)
(3.32611e-07 -1.25178e-07 0)
(3.52336e-07 -1.24311e-07 0)
(3.71848e-07 -1.22958e-07 0)
(3.91098e-07 -1.21053e-07 0)
(4.09965e-07 -1.18602e-07 0)
(4.28365e-07 -1.15629e-07 0)
(4.46248e-07 -1.1217e-07 0)
(4.63648e-07 -1.08256e-07 0)
(4.80469e-07 -1.03888e-07 0)
(4.96495e-07 -9.91556e-08 0)
(5.11705e-07 -9.40621e-08 0)
(5.2611e-07 -8.85967e-08 0)
(5.39633e-07 -8.27811e-08 0)
(5.52208e-07 -7.66359e-08 0)
(5.63795e-07 -7.01867e-08 0)
(5.74462e-07 -6.34607e-08 0)
(5.84128e-07 -5.64635e-08 0)
(5.92596e-07 -4.93213e-08 0)
(5.99901e-07 -4.20303e-08 0)
(6.06082e-07 -3.4581e-08 0)
(2.2979e-10 -2.31245e-09 0)
(1.57168e-09 -8.35856e-09 0)
(4.52873e-09 -1.54799e-08 0)
(8.87699e-09 -2.33761e-08 0)
(1.45411e-08 -3.18266e-08 0)
(2.15192e-08 -4.06303e-08 0)
(2.98084e-08 -4.96153e-08 0)
(3.94706e-08 -5.86353e-08 0)
(5.03114e-08 -6.75671e-08 0)
(6.21608e-08 -7.62884e-08 0)
(7.51118e-08 -8.47173e-08 0)
(8.91472e-08 -9.27565e-08 0)
(1.04249e-07 -1.00393e-07 0)
(1.20388e-07 -1.07596e-07 0)
(1.37426e-07 -1.1429e-07 0)
(1.55157e-07 -1.20352e-07 0)
(1.73574e-07 -1.25602e-07 0)
(1.92656e-07 -1.30314e-07 0)
(2.12296e-07 -1.34476e-07 0)
(2.32433e-07 -1.38096e-07 0)
(2.52911e-07 -1.41102e-07 0)
(2.73592e-07 -1.43404e-07 0)
(2.94601e-07 -1.44954e-07 0)
(3.15834e-07 -1.45817e-07 0)
(3.37144e-07 -1.45994e-07 0)
(3.58296e-07 -1.45443e-07 0)
(3.79135e-07 -1.44407e-07 0)
(3.99867e-07 -1.42806e-07 0)
(4.20369e-07 -1.40564e-07 0)
(4.40462e-07 -1.37719e-07 0)
(4.60047e-07 -1.34283e-07 0)
(4.79067e-07 -1.30277e-07 0)
(4.97566e-07 -1.25729e-07 0)
(5.15407e-07 -1.20651e-07 0)
(5.32374e-07 -1.15149e-07 0)
(5.48509e-07 -1.0923e-07 0)
(5.63805e-07 -1.02864e-07 0)
(5.78167e-07 -9.61089e-08 0)
(5.91528e-07 -8.89861e-08 0)
(6.03842e-07 -8.15164e-08 0)
(6.15184e-07 -7.37253e-08 0)
(6.25413e-07 -6.56232e-08 0)
(6.34336e-07 -5.73365e-08 0)
(6.42065e-07 -4.88771e-08 0)
(6.48619e-07 -4.02136e-08 0)
(2.55217e-10 -3.10682e-09 0)
(1.74382e-09 -1.06592e-08 0)
(5.03017e-09 -1.92207e-08 0)
(9.84591e-09 -2.85246e-08 0)
(1.6084e-08 -3.83461e-08 0)
(2.37381e-08 -4.84787e-08 0)
(3.27893e-08 -5.8759e-08 0)
(4.32807e-08 -6.90607e-08 0)
(5.50375e-08 -7.92923e-08 0)
(6.78835e-08 -8.92094e-08 0)
(8.19016e-08 -9.87415e-08 0)
(9.70427e-08 -1.07735e-07 0)
(1.13241e-07 -1.16194e-07 0)
(1.30493e-07 -1.24144e-07 0)
(1.48714e-07 -1.31616e-07 0)
(1.67785e-07 -1.38574e-07 0)
(1.87565e-07 -1.44918e-07 0)
(2.0787e-07 -1.50213e-07 0)
(2.28631e-07 -1.54782e-07 0)
(2.49898e-07 -1.58754e-07 0)
(2.71647e-07 -1.62092e-07 0)
(2.93777e-07 -1.64664e-07 0)
(3.16149e-07 -1.66353e-07 0)
(3.38619e-07 -1.67329e-07 0)
(3.6122e-07 -1.67551e-07 0)
(3.83611e-07 -1.6705e-07 0)
(4.05632e-07 -1.65809e-07 0)
(4.27584e-07 -1.63816e-07 0)
(4.49295e-07 -1.61091e-07 0)
(4.70551e-07 -1.57771e-07 0)
(4.91282e-07 -1.53848e-07 0)
(5.11416e-07 -1.49303e-07 0)
(5.30995e-07 -1.44145e-07 0)
(5.49837e-07 -1.3841e-07 0)
(5.67728e-07 -1.32102e-07 0)
(5.84782e-07 -1.25241e-07 0)
(6.00951e-07 -1.1784e-07 0)
(6.16105e-07 -1.1003e-07 0)
(6.3021e-07 -1.0185e-07 0)
(6.43219e-07 -9.33211e-08 0)
(6.55208e-07 -8.44625e-08 0)
(6.6599e-07 -7.53068e-08 0)
(6.75367e-07 -6.58241e-08 0)
(6.83527e-07 -5.60757e-08 0)
(6.9045e-07 -4.60744e-08 0)
(2.8395e-10 -3.93686e-09 0)
(1.93761e-09 -1.31199e-08 0)
(5.55199e-09 -2.32656e-08 0)
(1.08142e-08 -3.41267e-08 0)
(1.76206e-08 -4.54517e-08 0)
(2.59405e-08 -5.70332e-08 0)
(3.57191e-08 -6.87081e-08 0)
(4.69707e-08 -8.03545e-08 0)
(5.96392e-08 -9.1902e-08 0)
(7.35504e-08 -1.03062e-07 0)
(8.87207e-08 -1.13738e-07 0)
(1.0507e-07 -1.23853e-07 0)
(1.22412e-07 -1.33324e-07 0)
(1.40699e-07 -1.42147e-07 0)
(1.5986e-07 -1.50395e-07 0)
(1.7983e-07 -1.58144e-07 0)
(2.01003e-07 -1.65553e-07 0)
(2.2294e-07 -1.71602e-07 0)
(2.44976e-07 -1.76666e-07 0)
(2.6741e-07 -1.80913e-07 0)
(2.90348e-07 -1.84416e-07 0)
(3.13734e-07 -1.87149e-07 0)
(3.3739e-07 -1.89066e-07 0)
(3.61137e-07 -1.90147e-07 0)
(3.84967e-07 -1.90392e-07 0)
(4.08618e-07 -1.89978e-07 0)
(4.31973e-07 -1.88473e-07 0)
(4.55204e-07 -1.86016e-07 0)
(4.78033e-07 -1.82834e-07 0)
(5.00305e-07 -1.78998e-07 0)
(5.22077e-07 -1.74509e-07 0)
(5.4327e-07 -1.69341e-07 0)
(5.63869e-07 -1.635e-07 0)
(5.83739e-07 -1.57087e-07 0)
(6.02677e-07 -1.4992e-07 0)
(6.20711e-07 -1.42057e-07 0)
(6.37723e-07 -1.33642e-07 0)
(6.53584e-07 -1.24746e-07 0)
(6.68337e-07 -1.15432e-07 0)
(6.81952e-07 -1.0574e-07 0)
(6.9449e-07 -9.57041e-08 0)
(7.05856e-07 -8.54246e-08 0)
(7.15827e-07 -7.46581e-08 0)
(7.24469e-07 -6.35181e-08 0)
(7.31734e-07 -5.21759e-08 0)
(3.12626e-10 -4.83527e-09 0)
(2.11261e-09 -1.58083e-08 0)
(6.02299e-09 -2.77159e-08 0)
(1.17191e-08 -4.02745e-08 0)
(1.90923e-08 -5.32323e-08 0)
(2.80807e-08 -6.63858e-08 0)
(3.86068e-08 -7.95574e-08 0)
(5.06438e-08 -9.25972e-08 0)
(6.4202e-08 -1.0539e-07 0)
(7.91479e-08 -1.1783e-07 0)
(9.53641e-08 -1.2978e-07 0)
(1.12801e-07 -1.41191e-07 0)
(1.31329e-07 -1.51891e-07 0)
(1.50797e-07 -1.61785e-07 0)
(1.7105e-07 -1.70877e-07 0)
(1.91886e-07 -1.79283e-07 0)
(2.14269e-07 -1.87335e-07 0)
(2.37803e-07 -1.94152e-07 0)
(2.61233e-07 -1.99834e-07 0)
(2.84917e-07 -2.04461e-07 0)
(3.09027e-07 -2.0815e-07 0)
(3.33581e-07 -2.10981e-07 0)
(3.58439e-07 -2.12977e-07 0)
(3.83408e-07 -2.14121e-07 0)
(4.08324e-07 -2.14394e-07 0)
(4.33279e-07 -2.13961e-07 0)
(4.58149e-07 -2.1227e-07 0)
(4.82576e-07 -2.09546e-07 0)
(5.06452e-07 -2.0599e-07 0)
(5.29787e-07 -2.01605e-07 0)
(5.52607e-07 -1.96455e-07 0)
(5.74831e-07 -1.9056e-07 0)
(5.96373e-07 -1.83924e-07 0)
(6.17235e-07 -1.76614e-07 0)
(6.37243e-07 -1.68561e-07 0)
(6.56183e-07 -1.59802e-07 0)
(6.7399e-07 -1.50436e-07 0)
(6.90614e-07 -1.40454e-07 0)
(7.06048e-07 -1.29939e-07 0)
(7.20274e-07 -1.18972e-07 0)
(7.33301e-07 -1.07608e-07 0)
(7.45221e-07 -9.59399e-08 0)
(7.55819e-07 -8.38275e-08 0)
(7.64867e-07 -7.13676e-08 0)
(7.72409e-07 -5.86973e-08 0)
(3.31139e-10 -5.87394e-09 0)
(2.25501e-09 -1.88167e-08 0)
(6.45734e-09 -3.26092e-08 0)
(1.25883e-08 -4.69622e-08 0)
(2.05129e-08 -6.16474e-08 0)
(3.01611e-08 -7.64649e-08 0)
(4.14508e-08 -9.12258e-08 0)
(5.43549e-08 -1.05751e-07 0)
(6.87899e-08 -1.19842e-07 0)
(8.4619e-08 -1.33602e-07 0)
(1.01814e-07 -1.46884e-07 0)
(1.20338e-07 -1.59559e-07 0)
(1.40063e-07 -1.71473e-07 0)
(1.60773e-07 -1.82485e-07 0)
(1.82193e-07 -1.92529e-07 0)
(2.03939e-07 -2.01681e-07 0)
(2.27406e-07 -2.10215e-07 0)
(2.52393e-07 -2.1776e-07 0)
(2.77279e-07 -2.24149e-07 0)
(3.02348e-07 -2.29295e-07 0)
(3.27713e-07 -2.33267e-07 0)
(3.53413e-07 -2.36201e-07 0)
(3.79369e-07 -2.38211e-07 0)
(4.05445e-07 -2.3936e-07 0)
(4.3145e-07 -2.39624e-07 0)
(4.5766e-07 -2.38971e-07 0)
(4.83895e-07 -2.37155e-07 0)
(5.09572e-07 -2.34297e-07 0)
(5.34634e-07 -2.30368e-07 0)
(5.59064e-07 -2.25423e-07 0)
(5.82902e-07 -2.19587e-07 0)
(6.06122e-07 -2.12928e-07 0)
(6.28663e-07 -2.05447e-07 0)
(6.50462e-07 -1.97064e-07 0)
(6.7134e-07 -1.88074e-07 0)
(6.91159e-07 -1.78426e-07 0)
(7.09841e-07 -1.68056e-07 0)
(7.27274e-07 -1.56958e-07 0)
(7.43408e-07 -1.4521e-07 0)
(7.5824e-07 -1.32921e-07 0)
(7.71814e-07 -1.20173e-07 0)
(7.84231e-07 -1.06973e-07 0)
(7.95262e-07 -9.34617e-08 0)
(8.04694e-07 -7.96724e-08 0)
(8.12588e-07 -6.55837e-08 0)
(3.52675e-10 -7.01518e-09 0)
(2.40499e-09 -2.20818e-08 0)
(6.8935e-09 -3.78766e-08 0)
(1.34404e-08 -5.4138e-08 0)
(2.18924e-08 -7.06503e-08 0)
(3.21805e-08 -8.72207e-08 0)
(4.42312e-08 -1.03657e-07 0)
(5.80458e-08 -1.19764e-07 0)
(7.33674e-08 -1.35294e-07 0)
(9.00263e-08 -1.50427e-07 0)
(1.08149e-07 -1.65019e-07 0)
(1.277e-07 -1.78965e-07 0)
(1.48572e-07 -1.92132e-07 0)
(1.70533e-07 -2.04359e-07 0)
(1.93223e-07 -2.15481e-07 0)
(2.16104e-07 -2.2542e-07 0)
(2.40593e-07 -2.34199e-07 0)
(2.66742e-07 -2.42319e-07 0)
(2.93017e-07 -2.49396e-07 0)
(3.19544e-07 -2.55213e-07 0)
(3.46278e-07 -2.59711e-07 0)
(3.73192e-07 -2.62964e-07 0)
(4.00226e-07 -2.65094e-07 0)
(4.27324e-07 -2.66197e-07 0)
(4.54419e-07 -2.6627e-07 0)
(4.81828e-07 -2.6508e-07 0)
(5.09272e-07 -2.63016e-07 0)
(5.36179e-07 -2.5999e-07 0)
(5.62504e-07 -2.55798e-07 0)
(5.88104e-07 -2.50395e-07 0)
(6.12989e-07 -2.43914e-07 0)
(6.37204e-07 -2.3646e-07 0)
(6.60809e-07 -2.28049e-07 0)
(6.83509e-07 -2.18492e-07 0)
(7.05101e-07 -2.08439e-07 0)
(7.25727e-07 -1.97768e-07 0)
(7.45277e-07 -1.86365e-07 0)
(7.63556e-07 -1.74172e-07 0)
(7.80441e-07 -1.61207e-07 0)
(7.95907e-07 -1.47569e-07 0)
(8.10068e-07 -1.3337e-07 0)
(8.2295e-07 -1.18587e-07 0)
(8.34313e-07 -1.03554e-07 0)
(8.44091e-07 -8.82671e-08 0)
(8.52337e-07 -7.26832e-08 0)
(3.76706e-10 -8.22602e-09 0)
(2.55974e-09 -2.55642e-08 0)
(7.32881e-09 -4.35035e-08 0)
(1.42797e-08 -6.17996e-08 0)
(2.3243e-08 -8.02398e-08 0)
(3.41524e-08 -9.86429e-08 0)
(4.6951e-08 -1.16825e-07 0)
(6.16827e-08 -1.34593e-07 0)
(7.79045e-08 -1.51705e-07 0)
(9.53875e-08 -1.68279e-07 0)
(1.14398e-07 -1.8421e-07 0)
(1.34899e-07 -1.99429e-07 0)
(1.56826e-07 -2.13831e-07 0)
(1.80004e-07 -2.27283e-07 0)
(2.04082e-07 -2.39547e-07 0)
(2.28494e-07 -2.50336e-07 0)
(2.54066e-07 -2.59058e-07 0)
(2.81008e-07 -2.67428e-07 0)
(3.08422e-07 -2.75087e-07 0)
(3.36275e-07 -2.81826e-07 0)
(3.64391e-07 -2.87375e-07 0)
(3.92633e-07 -2.91558e-07 0)
(4.20905e-07 -2.94283e-07 0)
(4.49195e-07 -2.95463e-07 0)
(4.77647e-07 -2.9498e-07 0)
(5.06146e-07 -2.92325e-07 0)
(5.34368e-07 -2.89769e-07 0)
(5.62323e-07 -2.86491e-07 0)
(5.89912e-07 -2.82078e-07 0)
(6.16783e-07 -2.76298e-07 0)
(6.42824e-07 -2.69243e-07 0)
(6.68125e-07 -2.61008e-07 0)
(6.92919e-07 -2.51634e-07 0)
(7.16507e-07 -2.40908e-07 0)
(7.38646e-07 -2.29691e-07 0)
(7.59958e-07 -2.17873e-07 0)
(7.803e-07 -2.05324e-07 0)
(7.99427e-07 -1.91983e-07 0)
(8.1713e-07 -1.77802e-07 0)
(8.33312e-07 -1.62817e-07 0)
(8.48138e-07 -1.47143e-07 0)
(8.61487e-07 -1.30794e-07 0)
(8.73107e-07 -1.14103e-07 0)
(8.83163e-07 -9.71754e-08 0)
(8.91714e-07 -7.99871e-08 0)
(4.00217e-10 -9.51062e-09 0)
(2.70994e-09 -2.92615e-08 0)
(7.75313e-09 -4.94833e-08 0)
(1.51072e-08 -6.99351e-08 0)
(2.45819e-08 -9.03965e-08 0)
(3.61025e-08 -1.10704e-07 0)
(4.96256e-08 -1.30693e-07 0)
(6.5226e-08 -1.50203e-07 0)
(8.23501e-08 -1.69058e-07 0)
(1.00701e-07 -1.87165e-07 0)
(1.206e-07 -2.04479e-07 0)
(1.42023e-07 -2.20929e-07 0)
(1.64933e-07 -2.36412e-07 0)
(1.89242e-07 -2.50904e-07 0)
(2.14747e-07 -2.64231e-07 0)
(2.41273e-07 -2.76093e-07 0)
(2.68244e-07 -2.85886e-07 0)
(2.95484e-07 -2.94753e-07 0)
(3.2339e-07 -3.02696e-07 0)
(3.52002e-07 -3.0973e-07 0)
(3.81251e-07 -3.15649e-07 0)
(4.10935e-07 -3.20224e-07 0)
(4.40907e-07 -3.23299e-07 0)
(4.71145e-07 -3.24683e-07 0)
(5.02002e-07 -3.24152e-07 0)
(5.31411e-07 -3.21051e-07 0)
(5.5941e-07 -3.17963e-07 0)
(5.88106e-07 -3.14141e-07 0)
(6.16872e-07 -3.09243e-07 0)
(6.45059e-07 -3.02881e-07 0)
(6.72349e-07 -2.9518e-07 0)
(6.98838e-07 -2.86191e-07 0)
(7.24896e-07 -2.75963e-07 0)
(7.49408e-07 -2.64405e-07 0)
(7.72066e-07 -2.52033e-07 0)
(7.94002e-07 -2.38976e-07 0)
(8.15058e-07 -2.24997e-07 0)
(8.34958e-07 -2.10258e-07 0)
(8.53476e-07 -1.94735e-07 0)
(8.70427e-07 -1.78399e-07 0)
(8.85947e-07 -1.61315e-07 0)
(8.99841e-07 -1.43679e-07 0)
(9.11778e-07 -1.2524e-07 0)
(9.22047e-07 -1.06526e-07 0)
(9.30826e-07 -8.75868e-08 0)
(4.22843e-10 -1.08665e-08 0)
(2.85226e-09 -3.31564e-08 0)
(8.16526e-09 -5.57755e-08 0)
(1.59354e-08 -7.84533e-08 0)
(2.59349e-08 -1.01e-07 0)
(3.80601e-08 -1.23264e-07 0)
(5.22675e-08 -1.45123e-07 0)
(6.86256e-08 -1.66487e-07 0)
(8.66354e-08 -1.873e-07 0)
(1.05948e-07 -2.07058e-07 0)
(1.26816e-07 -2.25791e-07 0)
(1.49267e-07 -2.43291e-07 0)
(1.73199e-07 -2.59457e-07 0)
(1.98516e-07 -2.74545e-07 0)
(2.25148e-07 -2.88717e-07 0)
(2.52967e-07 -3.02005e-07 0)
(2.81366e-07 -3.14597e-07 0)
(3.09953e-07 -3.24513e-07 0)
(3.38965e-07 -3.32677e-07 0)
(3.68584e-07 -3.39455e-07 0)
(3.98882e-07 -3.44936e-07 0)
(4.29679e-07 -3.49083e-07 0)
(4.60846e-07 -3.51891e-07 0)
(4.92441e-07 -3.5333e-07 0)
(5.25078e-07 -3.53301e-07 0)
(5.55836e-07 -3.51541e-07 0)
(5.84486e-07 -3.48138e-07 0)
(6.13965e-07 -3.43436e-07 0)
(6.4382e-07 -3.37441e-07 0)
(6.73229e-07 -3.29789e-07 0)
(7.01643e-07 -3.2105e-07 0)
(7.29233e-07 -3.11291e-07 0)
(7.5637e-07 -3.00544e-07 0)
(7.81888e-07 -2.88927e-07 0)
(8.05328e-07 -2.75619e-07 0)
(8.28063e-07 -2.61383e-07 0)
(8.49916e-07 -2.45377e-07 0)
(8.70429e-07 -2.28609e-07 0)
(8.89585e-07 -2.11422e-07 0)
(9.07197e-07 -1.93734e-07 0)
(9.23205e-07 -1.75378e-07 0)
(9.37802e-07 -1.56482e-07 0)
(9.50405e-07 -1.36756e-07 0)
(9.60878e-07 -1.16331e-07 0)
(9.69807e-07 -9.55558e-08 0)
(4.46601e-10 -1.22393e-08 0)
(2.9995e-09 -3.71785e-08 0)
(8.61993e-09 -6.22995e-08 0)
(1.68406e-08 -8.73567e-08 0)
(2.73658e-08 -1.12175e-07 0)
(4.00691e-08 -1.36566e-07 0)
(5.48581e-08 -1.60415e-07 0)
(7.17566e-08 -1.83672e-07 0)
(9.0634e-08 -2.0642e-07 0)
(1.11114e-07 -2.27976e-07 0)
(1.33233e-07 -2.48233e-07 0)
(1.57106e-07 -2.67052e-07 0)
(1.82237e-07 -2.84427e-07 0)
(2.08285e-07 -3.00452e-07 0)
(2.35275e-07 -3.15409e-07 0)
(2.63013e-07 -3.29624e-07 0)
(2.92947e-07 -3.43869e-07 0)
(3.24169e-07 -3.54848e-07 0)
(3.54736e-07 -3.63629e-07 0)
(3.85532e-07 -3.70622e-07 0)
(4.16894e-07 -3.7605e-07 0)
(4.48723e-07 -3.7996e-07 0)
(4.80868e-07 -3.82451e-07 0)
(5.13408e-07 -3.83685e-07 0)
(5.46929e-07 -3.83881e-07 0)
(5.79186e-07 -3.84036e-07 0)
(6.09609e-07 -3.80705e-07 0)
(6.4039e-07 -3.74876e-07 0)
(6.71614e-07 -3.67293e-07 0)
(7.02071e-07 -3.5859e-07 0)
(7.31012e-07 -3.4887e-07 0)
(7.59073e-07 -3.38165e-07 0)
(7.86573e-07 -3.2655e-07 0)
(8.1325e-07 -3.14531e-07 0)
(8.38157e-07 -3.00601e-07 0)
(8.62442e-07 -2.84645e-07 0)
(8.85704e-07 -2.67026e-07 0)
(9.06483e-07 -2.48451e-07 0)
(9.25642e-07 -2.29475e-07 0)
(9.43508e-07 -2.10128e-07 0)
(9.60004e-07 -1.90172e-07 0)
(9.7506e-07 -1.69551e-07 0)
(9.88342e-07 -1.48602e-07 0)
(9.99499e-07 -1.26521e-07 0)
(1.00872e-06 -1.03829e-07 0)
(4.60685e-10 -1.36606e-08 0)
(3.14101e-09 -4.1368e-08 0)
(9.03276e-09 -6.91314e-08 0)
(1.76265e-08 -9.67541e-08 0)
(2.86582e-08 -1.24028e-07 0)
(4.19813e-08 -1.50739e-07 0)
(5.74278e-08 -1.76724e-07 0)
(7.48812e-08 -2.01869e-07 0)
(9.44831e-08 -2.26161e-07 0)
(1.16083e-07 -2.49474e-07 0)
(1.39399e-07 -2.71502e-07 0)
(1.64364e-07 -2.92165e-07 0)
(1.90648e-07 -3.11398e-07 0)
(2.17876e-07 -3.2893e-07 0)
(2.45752e-07 -3.44841e-07 0)
(2.73667e-07 -3.5951e-07 0)
(3.04641e-07 -3.73857e-07 0)
(3.37995e-07 -3.85796e-07 0)
(3.70269e-07 -3.95499e-07 0)
(4.02492e-07 -4.03061e-07 0)
(4.35108e-07 -4.08754e-07 0)
(4.68069e-07 -4.12652e-07 0)
(5.01135e-07 -4.14931e-07 0)
(5.34247e-07 -4.15907e-07 0)
(5.67192e-07 -4.15929e-07 0)
(6.00716e-07 -4.16075e-07 0)
(6.34603e-07 -4.12705e-07 0)
(6.67605e-07 -4.06642e-07 0)