/*--------------------------------*- C++ -*----------------------------------*\
  =========                 |
  \\      /  F ield         | OpenFOAM: The Open Source CFD Toolbox
   \\    /   O peration     | Website:  https://openfoam.org
    \\  /    A nd           | Version:  9
     \\/     M anipulation  |
\*---------------------------------------------------------------------------*/
FoamFile
{
    format      ascii;
    class       surfaceScalarField;
    location    "6.8";
    object      phi;
}
// * * * * * * * * * * * * * * * * * * * * * * * * * * * * * * * * * * * * * //

dimensions      [0 3 -1 0 0 0 0];

internalField   nonuniform List<scalar> 
16735
(
-0.00154154
0.00154154
8.61338e-11
-0.00422032
0.00267878
2.20814e-10
-0.0071597
0.00293938
3.465e-10
-0.00960937
0.00244967
4.43612e-10
-0.0109936
0.00138426
5.23844e-10
-0.0107612
-0.00023242
5.68799e-10
-0.00839661
-0.0023646
5.71311e-10
-0.00329804
-0.00509858
5.10306e-10
0.00459029
-0.00788832
3.84704e-10
-0.0114659
1.76408e-10
0.0160562
-0.00150907
0.00305061
-0.00410766
0.00527737
-0.00691803
0.00574976
-0.00918524
0.00471687
-0.0103252
0.00252425
-0.00977625
-0.000781394
-0.00700913
-0.00513172
-0.00143219
-0.0106755
0.00711579
-0.0164363
-0.0237166
0.0193665
-0.00144471
0.00449532
-0.00388407
0.00771673
-0.00643813
0.00830381
-0.00834272
0.00662147
-0.00899733
0.00317886
-0.00781897
-0.00195975
-0.00424863
-0.00870207
0.002323
-0.0172472
0.0121317
-0.026245
-0.037509
0.0259241
-0.00134966
0.00584498
-0.00355299
0.00992007
-0.00572671
0.0104775
-0.00709311
0.00798787
-0.00702778
0.00311352
-0.00491597
-0.00407156
-0.000112401
-0.0135056
0.00791117
-0.0252707
0.0195555
-0.0378894
-0.053556
0.0356026
-0.00122557
0.00707054
-0.00311933
0.0118138
-0.0047935
0.0121517
-0.00545273
0.0086471
-0.00444203
0.00210282
-0.00111417
-0.00739943
0.00519712
-0.0198169
0.0152035
-0.0352771
0.0292609
-0.0519467
-0.07251
0.0482149
-0.00107456
0.0081451
-0.00258932
0.0133286
-0.00365079
0.0132132
-0.00344224
0.00843856
-0.00127114
-6.82824e-05
0.00355361
-0.0122242
0.0117459
-0.0280093
0.0241037
-0.0476349
0.0410867
-0.0689298
-0.0949421
0.0635188
-0.000899066
0.00904417
-0.00197016
0.0143997
-0.002313
0.013556
-0.00108597
0.00721153
0.00244348
-0.00359774
0.00901974
-0.0188004
0.0194105
-0.0384001
0.034482
-0.0627063
0.0548382
-0.089286
-0.121325
0.0812209
-0.00070175
0.00974592
-0.00126976
0.0149677
-0.000796033
0.0130823
0.00158837
0.00482713
0.00666083
-0.00867019
0.0152186
-0.0273582
0.0280884
-0.0512699
0.0461874
-0.0808053
0.0702893
-0.113388
-0.152017
0.100982
-0.000485488
0.0102314
-0.000496205
0.0149784
0.000883407
0.0117027
0.00455227
0.00115827
0.0113347
-0.0154526
0.0220789
-0.0381024
0.0376694
-0.0668604
0.0590526
-0.102188
0.0871862
-0.141521
-0.187249
0.122418
-0.000253949
0.0104854
0.000340703
0.0143838
0.00270782
0.00933555
0.00777555
-0.00390946
0.0164157
-0.0240927
0.0295242
-0.0512109
0.0480351
-0.0853713
0.0728959
-0.127049
0.10525
-0.173875
-0.227107
0.145107
2.59302e-06
0.0104828
0.00123552
0.0131508
0.00466043
0.00591065
0.0112277
-0.0104768
0.0218536
-0.0347185
0.0374746
-0.066832
0.0590608
-0.106957
0.0875244
-0.155513
0.12418
-0.210531
-0.271517
0.168591
0.000256115
0.0102266
0.00217883
0.0112281
0.00672485
0.00136462
0.0148789
-0.0186308
0.0275975
-0.0474371
0.0458476
-0.0850822
0.0706152
-0.131725
0.102736
-0.187633
0.143657
-0.251452
-0.320247
0.192387
0.000524947
0.0097017
0.00316431
0.00858875
0.00888555
-0.00435662
0.0186997
-0.028445
0.0335963
-0.0623337
0.0545581
-0.106044
0.082561
-0.159728
0.118318
-0.22339
0.163348
-0.296483
-0.372895
0.215995
0.000802437
0.00889926
0.00418594
0.00520526
0.0111283
-0.0112989
0.0226619
-0.0399786
0.0397988
-0.0794706
0.0635187
-0.129764
0.0947543
-0.190964
0.134051
-0.262686
0.182908
-0.345339
-0.428896
0.23891
0.0010872
0.00781207
0.00523843
0.00105402
0.0134397
-0.0195002
0.026738
-0.0532769
0.0461532
-0.0988858
0.0726386
-0.156249
0.107044
-0.225369
0.149708
-0.305351
0.201984
-0.397615
-0.487546
0.260634
0.00137836
0.0064337
0.00631734
-0.00388496
0.0158076
-0.0289904
0.0309007
-0.0683701
0.0526063
-0.120591
0.0818228
-0.185466
0.11927
-0.262816
0.165054
-0.351134
0.220223
-0.452784
-0.54803
0.280707
0.00167542
0.00475828
0.00741883
-0.00962837
0.01822
-0.0397916
0.0351225
-0.0852726
0.0591029
-0.144572
0.0909712
-0.217334
0.131268
-0.303113
0.17985
-0.399716
0.237272
-0.510206
-0.609516
0.298757
0.00197809
0.00278019
0.00853945
-0.0161897
0.0206652
-0.0519173
0.0393748
-0.103982
0.0655843
-0.170781
0.0999774
-0.251727
0.142864
-0.346
0.19386
-0.450712
0.252791
-0.569137
-0.671263
0.314537
0.00228625
0.000493938
0.00967583
-0.0235793
0.023131
-0.0653725
0.0436272
-0.124478
0.0719877
-0.199142
0.108728
-0.288467
0.153884
-0.391155
0.206865
-0.503693
0.266504
-0.628776
-0.73278
0.328021
0.00259982
-0.00210588
0.0108244
-0.0318039
0.0256043
-0.0801524
0.0478464
-0.14672
0.078245
-0.22954
0.117102
-0.327325
0.164143
-0.438196
0.218613
-0.558163
0.278273
-0.688436
-0.794702
0.340195
0.00291861
-0.0050245
0.0119811
-0.0408664
0.0280702
-0.0962414
0.0519961
-0.170646
0.0842835
-0.261828
0.124974
-0.368015
0.173446
-0.486669
0.228706
-0.613423
0.2882
-0.74793
-0.869226
0.362724
0.00324228
-0.00826677
0.0131411
-0.0507653
0.0305118
-0.113612
0.0560363
-0.196171
0.0900268
-0.295818
0.132217
-0.410205
0.181609
-0.536061
0.236887
-0.6687
0.295154
-0.806197
-0.936401
0.362329
0.00357015
-0.0118369
0.0142984
-0.0614935
0.0329103
-0.132224
0.059924
-0.223185
0.0953964
-0.331291
0.138713
-0.453522
0.188487
-0.585834
0.243027
-0.723241
0.299276
-0.862445
-0.997159
0.360034
0.00390118
-0.0157381
0.0154458
-0.0730381
0.0352441
-0.152022
0.0636131
-0.251554
0.100313
-0.367991
0.144355
-0.497563
0.193968
-0.635448
0.24712
-0.776392
0.300836
-0.916162
-1.05221
0.35589
0.00423391
-0.019972
0.0165748
-0.085379
0.0374894
-0.172937
0.0670554
-0.281119
0.104701
-0.405637
0.149045
-0.541907
0.197971
-0.684374
0.249177
-0.827598
0.299907
-0.966892
-1.10208
0.349772
0.00456638
-0.0245384
0.0176757
-0.0984883
0.0396206
-0.194882
0.0702017
-0.311701
0.108487
-0.443922
0.152706
-0.586126
0.200446
-0.732114
0.249239
-0.876392
0.296623
-1.01428
-1.14713
0.341675
0.00489615
-0.0294345
0.0187373
-0.112329
0.0416101
-0.217755
0.0730031
-0.343094
0.111604
-0.482523
0.155274
-0.629795
0.201371
-0.778211
0.247372
-0.922393
0.29116
-1.05806
-1.18766
0.331692
0.00522032
-0.0346549
0.0197475
-0.126857
0.0434297
-0.241437
0.0754124
-0.375076
0.113997
-0.521108
0.156708
-0.672507
0.200757
-0.82226
0.243674
-0.96531
0.283716
-1.09811
-1.22392
0.319976
0.00553556
-0.0401904
0.0206931
-0.142014
0.0450507
-0.265794
0.0773858
-0.407411
0.115618
-0.559339
0.156988
-0.713878
0.198643
-0.863915
0.238263
-1.00493
0.274499
-1.13434
-1.25614
0.306715
0.00583817
-0.0460286
0.0215607
-0.157737
0.0464455
-0.290679
0.0788846
-0.439851
0.116434
-0.596889
0.156115
-0.753559
0.195093
-0.902892
0.231278
-1.04111
0.263718
-1.16678
-1.28453
0.292105
0.00612416
-0.0521528
0.0223364
-0.173949
0.0475874
-0.31593
0.0798761
-0.472139
0.116426
-0.633438
0.154108
-0.791241
0.190188
-0.938972
0.222867
-1.07379
0.251576
-1.19549
-1.30929
0.276342
0.00638936
-0.0585421
0.0230066
-0.190566
0.0484526
-0.341376
0.0803349
-0.504021
0.115587
-0.668691
0.151006
-0.82666
0.184028
-0.971994
0.213184
-1.10295
0.238268
-1.22057
-1.33063
0.259608
0.0066295
-0.0651716
0.0235582
-0.207495
0.04902
-0.366838
0.0802435
-0.535245
0.113925
-0.702372
0.146862
-0.859596
0.176721
-1.00185
0.202384
-1.12861
0.223974
-1.24216
-1.34873
0.242072
0.00684028
-0.0720119
0.0239789
-0.224634
0.0492724
-0.392131
0.079593
-0.565566
0.11146
-0.734239
0.14174
-0.889877
0.16838
-1.02849
0.190617
-1.15085
0.208858
-1.26041
-1.36376
0.223885
0.00701754
-0.0790294
0.0242578
-0.241874
0.0491965
-0.41707
0.0783825
-0.594751
0.10822
-0.764077
0.135715
-0.917372
0.159123
-1.0519
0.178023
-1.16975
0.193068
-1.27545
-1.37587
0.205181
0.00715731
-0.0861868
0.0243853
-0.259102
0.0487837
-0.441469
0.0766192
-0.622587
0.104248
-0.791705
0.128868
-0.941992
0.149064
-1.0721
0.164737
-1.18542
0.176736
-1.28745
-1.38521
0.186074
0.0072559
-0.0934427
0.0243537
-0.2762
0.0480299
-0.465145
0.0743177
-0.648875
0.0995887
-0.816977
0.121281
-0.963684
0.138315
-1.08913
0.15088
-1.19799
0.159978
-1.29655
-1.3919
0.166666
0.00730999
-0.100753
0.024157
-0.293047
0.0469356
-0.487923
0.071499
-0.673438
0.0942961
-0.839774
0.11304
-0.982427
0.12698
-1.10307
0.136562
-1.20757
0.142895
-1.30288
-1.39604
0.147042
0.00731671
-0.108069
0.0237915
-0.309522
0.0455054
-0.509637
0.0681901
-0.696123
0.0884268
-0.86001
0.104228
-0.998228
0.115159
-1.114
0.121882
-1.21429
0.125576
-1.30657
-1.39774
0.127278
0.00727369
-0.115343
0.0232553
-0.325503
0.0437485
-0.530131
0.0644223
-0.716797
0.0820396
-0.877628
0.0949265
-1.01112
0.102944
-1.12202
0.10693
-1.21828
0.108098
-1.30774
-1.39708
0.107439
0.00717912
-0.122522
0.0225488
-0.340873
0.0416773
-0.549259
0.0602307
-0.73535
0.0751948
-0.892592
0.0852142
-1.02113
0.0904178
-1.12723
0.0917841
-1.21964
0.0905276
-1.30649
-1.39414
0.0875815
0.00703176
-0.129554
0.0216743
-0.355515
0.0393078
-0.566892
0.055653
-0.751695
0.0679519
-0.904891
0.0751645
-1.02835
0.0776578
-1.12972
0.0765133
-1.2185
0.0729237
-1.3029
-1.38897
0.0677534
0.00683097
-0.136385
0.0206359
-0.36932
0.0366586
-0.582915
0.0507286
-0.765765
0.0603697
-0.914532
0.0648467
-1.03282
0.0647331
-1.1296
0.0611794
-1.21495
0.0553381
-1.29705
-1.38163
0.0479965
0.00657673
-0.142962
0.0194397
-0.382183
0.0337506
-0.597226
0.0454981
-0.777513
0.0525048
-0.921538
0.0543251
-1.03464
0.0517064
-1.12699
0.0458373
-1.20908
0.0378169
-1.28903
-1.37215
0.0283442
0.00626962
-0.149231
0.0180932
-0.394007
0.0306064
-0.609739
0.040002
-0.786908
0.0444115
-0.925948
0.0436588
-1.03389
0.0386335
-1.12196
0.0305376
-1.20098
0.0204048
-1.2789
-1.36055
0.00880086
0.0059108
-0.155142
0.0166055
-0.404702
0.0272502
-0.620384
0.0342807
-0.793939
0.0361413
-0.927809
0.0329023
-1.03065
0.0255633
-1.11462
0.0153219
-1.19074
0.0031834
-1.26676
-1.34685
-0.0105159
0.00550201
-0.160644
0.0149868
-0.414186
0.0237065
-0.629104
0.0283735
-0.798606
0.0277428
-0.927178
0.0221061
-1.02502
0.0125415
-1.10506
0.000150439
-1.17835
-0.0139461
-1.25267
-1.33122
-0.0295789
0.0050455
-0.16569
0.0132482
-0.422389
0.0200008
-0.635856
0.0223189
-0.800924
0.0192612
-0.92412
0.0113155
-1.01707
-0.000393397
-1.09335
-0.0147028
-1.16404
-0.0308464
-1.23652
-1.31364
-0.0484254
0.00454401
-0.170234
0.0114016
-0.429247
0.0161585
-0.640613
0.0161534
-0.800919
0.0107383
-0.918705
0.000560464
-1.00689
-0.0131767
-1.07961
-0.0294356
-1.14778
-0.0474999
-1.21846
-1.29413
-0.0670104
0.00400074
-0.174234
0.00945964
-0.434705
0.0122047
-0.643358
0.00991219
-0.798626
0.00221455
-0.911007
-0.0100849
-0.994593
-0.0258078
-1.06389
-0.0439499
-1.12964
-0.0638874
-1.19852
-1.27271
-0.0853046
0.00341927
-0.177654
0.00743496
-0.438721
0.00816446
-0.644088
0.00362927
-0.794091
-0.00627538
-0.901103
-0.0206234
-0.980245
-0.0382455
-1.04627
-0.0582138
-1.10967
-0.0799838
-1.17675
-1.24941
-0.103282
0.00280355
-0.180457
0.00534179
-0.441259
0.00406272
-0.642809
-0.0026653
-0.787363
-0.0146988
-0.889069
-0.0310125
-0.963931
-0.0504609
-1.02682
-0.0721991
-1.08793
-0.095764
-1.15319
-1.22426
-0.12092
0.00215783
-0.182615
0.00319664
-0.442298
-3.52752e-05
-0.639577
-0.00894387
-0.778455
-0.0230262
-0.874987
-0.0412236
-0.945734
-0.0624277
-1.00561
-0.0858801
-1.06448
-0.111202
-1.12786
-1.19727
-0.138193
0.00148758
-0.184103
0.00101938
-0.44183
-0.00424861
-0.634309
-0.0151814
-0.767522
-0.0312292
-0.858939
-0.0512308
-0.925733
-0.0741218
-0.982722
-0.0992319
-1.03937
-0.126273
-1.10082
-1.16846
-0.15508
0.000796111
-0.184899
-0.00119325
-0.439841
-0.00841019
-0.627092
-0.0213488
-0.754583
-0.039283
-0.841005
-0.0610108
-0.904005
-0.0855209
-0.958212
-0.112231
-1.01266
-0.14095
-1.0721
-1.13785
-0.171557
5.94855e-05
-0.184958
-0.00343972
-0.436341
-0.012547
-0.617984
-0.0274236
-0.739707
-0.0471643
-0.821264
-0.0705425
-0.880627
-0.096605
-0.93215
-0.124854
-0.98441
-0.155205
-1.04175
-1.10546
-0.187596
-0.000655596
-0.184303
-0.00568255
-0.431314
-0.0166416
-0.607025
-0.0333848
-0.722964
-0.0548526
-0.799796
-0.0798071
-0.855672
-0.107356
-0.904601
-0.137082
-0.954684
-0.169014
-1.00982
-1.0713
-0.203176
-0.00138686
-0.182916
-0.00791581
-0.424786
-0.0206767
-0.594265
-0.039213
-0.704427
-0.0623291
-0.77668
-0.0887876
-0.829214
-0.117756
-0.875633
-0.148896
-0.923545
-0.182352
-0.976365
-1.03539
-0.218265
-0.00212351
-0.180792
-0.0101291
-0.41678
-0.0246362
-0.579757
-0.0448902
-0.684173
-0.0695769
-0.751993
-0.0974685
-0.801322
-0.127793
-0.845308
-0.16028
-0.891058
-0.195177
-0.941468
-0.997799
-0.232764
-0.00285987
-0.177932
-0.0123117
-0.407328
-0.0285051
-0.563564
-0.0504001
-0.662278
-0.0765807
-0.725813
-0.105836
-0.772067
-0.137453
-0.813692
-0.171219
-0.857291
-0.20744
-0.905247
-0.95854
-0.246699
-0.00359131
-0.174341
-0.0144534
-0.396466
-0.0322693
-0.545748
-0.0557279
-0.638819
-0.0833266
-0.698214
-0.113878
-0.741515
-0.146729
-0.780841
-0.181705
-0.822316
-0.21876
-0.868192
-0.919312
-0.257988
-0.00431349
-0.170027
-0.0165446
-0.384235
-0.0359157
-0.526377
-0.06086
-0.613875
-0.0898022
-0.669272
-0.121584
-0.709733
-0.155612
-0.746813
-0.191751
-0.786177
-0.23003
-0.829913
-0.878824
-0.270518
-0.00502227
-0.165005
-0.0185762
-0.370681
-0.0394323
-0.505521
-0.0657841
-0.587523
-0.0959959
-0.63906
-0.128944
-0.676785
-0.16409
-0.711667
-0.201341
-0.748927
-0.240768
-0.790486
-0.837071
-0.282521
-0.00571373
-0.159291
-0.0205394
-0.355855
-0.042808
-0.483252
-0.0704888
-0.559843
-0.101897
-0.607651
-0.135946
-0.642736
-0.172154
-0.675458
-0.210462
-0.710619
-0.250974
-0.749973
-0.794142
-0.293903
-0.00638413
-0.152907
-0.0224265
-0.339813
-0.0460325
-0.459646
-0.0749641
-0.530911
-0.107497
-0.575118
-0.142583
-0.607651
-0.179795
-0.638246
-0.219107
-0.671307
-0.260654
-0.708427
-0.750116
-0.30468
-0.00702994
-0.145877
-0.0242298
-0.322613
-0.0490967
-0.434779
-0.0792007
-0.500807
-0.112787
-0.541531
-0.148847
-0.571591
-0.187006
-0.600088
-0.22727
-0.631043
-0.2698
-0.665897
-0.705054
-0.314861
-0.00764783
-0.13823
-0.0259425
-0.304318
-0.0519919
-0.40873
-0.0831901
-0.469609
-0.117759
-0.506962
-0.154731
-0.53462
-0.193778
-0.56104
-0.234941
-0.58988
-0.278403
-0.622435
-0.659015
-0.324442
-0.00823468
-0.129995
-0.0275584
-0.284995
-0.0547105
-0.381578
-0.0869248
-0.437394
-0.122406
-0.471481
-0.160226
-0.4968
-0.200105
-0.521161
-0.242112
-0.547873
-0.286452
-0.578096
-0.612055
-0.333412
-0.0087876
-0.121207
-0.0290715
-0.264711
-0.0572455
-0.353404
-0.0903976
-0.404242
-0.126721
-0.435157
-0.165327
-0.458194
-0.20598
-0.480509
-0.248775
-0.505078
-0.293937
-0.532933
-0.564231
-0.341761
-0.00930388
-0.111903
-0.0304766
-0.243538
-0.0595905
-0.32429
-0.0936024
-0.37023
-0.130698
-0.398061
-0.170028
-0.418864
-0.211394
-0.439142
-0.254919
-0.461553
-0.300847
-0.487006
-0.515602
-0.349475
-0.00978109
-0.102122
-0.0317689
-0.22155
-0.0617398
-0.294319
-0.0965334
-0.335437
-0.134332
-0.360262
-0.174321
-0.378876
-0.216341
-0.397123
-0.260537
-0.417356
-0.307169
-0.440374
-0.466231
-0.356541
-0.010217
-0.0919053
-0.032944
-0.198823
-0.0636883
-0.263575
-0.0991856
-0.299939
-0.137617
-0.321831
-0.178202
-0.338291
-0.220814
-0.354511
-0.26562
-0.37255
-0.312894
-0.393099
-0.416182
-0.362943
-0.0106095
-0.0812959
-0.033998
-0.175435
-0.0654314
-0.232142
-0.101554
-0.263816
-0.140549
-0.282836
-0.181665
-0.297175
-0.224807
-0.311369
-0.27016
-0.327197
-0.318011
-0.345248
-0.365522
-0.36867
-0.0109569
-0.070339
-0.0349277
-0.151464
-0.0669652
-0.200104
-0.103636
-0.227146
-0.143124
-0.243348
-0.184706
-0.255593
-0.228314
-0.267762
-0.274149
-0.281362
-0.32251
-0.296888
-0.314323
-0.373709
-0.0112576
-0.0590814
-0.0357299
-0.126992
-0.0682862
-0.167548
-0.105426
-0.190006
-0.145337
-0.203438
-0.187321
-0.213609
-0.23133
-0.223753
-0.277581
-0.23511
-0.326382
-0.248087
-0.262658
-0.378048
-0.0115102
-0.0475712
-0.0364023
-0.102099
-0.0693915
-0.134559
-0.106923
-0.152474
-0.147187
-0.163174
-0.189505
-0.171291
-0.23385
-0.179407
-0.280451
-0.188509
-0.329621
-0.198916
-0.2106
-0.381678
-0.0117136
-0.0358576
-0.0369427
-0.0768704
-0.0702786
-0.101223
-0.108123
-0.11463
-0.148669
-0.122628
-0.191256
-0.128703
-0.235871
-0.134792
-0.282752
-0.141629
-0.33222
-0.149448
-0.158228
-0.384592
-0.011867
-0.0239906
-0.0373494
-0.051388
-0.0709456
-0.0676265
-0.109025
-0.0765503
-0.149783
-0.0818698
-0.192572
-0.0859146
-0.23739
-0.0899746
-0.284482
-0.0945367
-0.334173
-0.099757
-0.105618
-0.386783
-0.0119696
-0.012021
-0.0376212
-0.0257363
-0.0713911
-0.0338567
-0.109627
-0.0383143
-0.150527
-0.0409702
-0.19345
-0.042991
-0.238404
-0.0450212
-0.285637
-0.0473037
-0.335478
-0.049916
-0.0528486
-0.388247
-0.012021
6.99165e-11
-0.0377574
1.68516e-10
-0.071614
2.2432e-10
-0.109928
2.4746e-10
-0.150899
2.50591e-10
-0.19389
2.46174e-10
-0.238911
2.39279e-10
-0.286214
2.30168e-10
-0.33613
2.21066e-10
2.08746e-10
-0.388979
-0.012021
0.012021
-0.0377574
0.0257363
-0.071614
0.0338567
-0.109928
0.0383143
-0.150899
0.0409702
-0.19389
0.042991
-0.238911
0.0450213
-0.286214
0.0473037
-0.33613
0.049916
0.0528486
-0.388979
-0.0119696
0.0239906
-0.0376212
0.051388
-0.0713911
0.0676265
-0.109627
0.0765503
-0.150527
0.0818698
-0.19345
0.0859146
-0.238404
0.0899746
-0.285637
0.0945367
-0.335478
0.099757
0.105618
-0.388247
-0.011867
0.0358576
-0.0373494
0.0768704
-0.0709456
0.101223
-0.109025
0.11463
-0.149783
0.122628
-0.192572
0.128703
-0.23739
0.134792
-0.284482
0.141629
-0.334173
0.149448
0.158228
-0.386783
-0.0117136
0.0475712
-0.0369427
0.102099
-0.0702786
0.134559
-0.108123
0.152474
-0.148669
0.163174
-0.191256
0.171291
-0.235871
0.179407
-0.282752
0.188509
-0.33222
0.198916
0.2106
-0.384592
-0.0115102
0.0590814
-0.0364023
0.126992
-0.0693915
0.167548
-0.106923
0.190006
-0.147187
0.203438
-0.189505
0.213609
-0.23385
0.223753
-0.280451
0.23511
-0.329621
0.248087
0.262658
-0.381678
-0.0112576
0.070339
-0.0357299
0.151464
-0.0682862
0.200104
-0.105426
0.227146
-0.145337
0.243348
-0.187321
0.255593
-0.23133
0.267762
-0.277581
0.281362
-0.326382
0.296888
0.314323
-0.378048
-0.0109569
0.0812959
-0.0349277
0.175435
-0.0669652
0.232142
-0.103636
0.263816
-0.143124
0.282836
-0.184706
0.297175
-0.228314
0.311369
-0.274149
0.327197
-0.32251
0.345248
0.365522
-0.373709
-0.0106095
0.0919053
-0.033998
0.198823
-0.0654314
0.263575
-0.101554
0.299939
-0.140549
0.321831
-0.181665
0.338291
-0.224807
0.354511
-0.27016
0.37255
-0.318011
0.393099
0.416182
-0.36867
-0.010217
0.102122
-0.032944
0.22155
-0.0636883
0.294319
-0.0991856
0.335437
-0.137617
0.360262
-0.178202
0.378876
-0.220814
0.397123
-0.26562
0.417356
-0.312894
0.440374
0.466231
-0.362943
-0.00978109
0.111903
-0.0317689
0.243538
-0.0617398
0.32429
-0.0965334
0.37023
-0.134332
0.398061
-0.174321
0.418864
-0.216341
0.439142
-0.260537
0.461553
-0.307169
0.487006
0.515602
-0.356541
-0.00930388
0.121207
-0.0304766
0.264711
-0.0595905
0.353404
-0.0936024
0.404242
-0.130698
0.435157
-0.170028
0.458194
-0.211394
0.480509
-0.254919
0.505078
-0.300847
0.532933
0.564231
-0.349475
-0.0087876
0.129995
-0.0290715
0.284995
-0.0572455
0.381578
-0.0903976
0.437394
-0.126721
0.471481
-0.165327
0.4968
-0.20598
0.521161
-0.248775
0.547873
-0.293937
0.578096
0.612055
-0.341761
-0.00823468
0.13823
-0.0275584
0.304318
-0.0547105
0.40873
-0.0869248
0.469609
-0.122406
0.506962
-0.160226
0.53462
-0.200105
0.56104
-0.242112
0.58988
-0.286452
0.622435
0.659015
-0.333412
-0.00764783
0.145877
-0.0259425
0.322613
-0.0519919
0.434779
-0.0831901
0.500807
-0.117759
0.541531
-0.154731
0.571591
-0.193778
0.600088
-0.234941
0.631043
-0.278403
0.665897
0.705054
-0.324442
-0.00702994
0.152907
-0.0242298
0.339813
-0.0490967
0.459646
-0.0792007
0.530911
-0.112787
0.575118
-0.148847
0.607651
-0.187006
0.638246
-0.22727
0.671307
-0.2698
0.708427
0.750116
-0.314861
-0.00638413
0.159291
-0.0224265
0.355855
-0.0460325
0.483252
-0.0749641
0.559843
-0.107497
0.607651
-0.142583
0.642736
-0.179795
0.675458
-0.219107
0.710619
-0.260654
0.749973
0.794142
-0.30468
-0.00571373
0.165005
-0.0205394
0.370681
-0.042808
0.505521
-0.0704888
0.587523
-0.101897
0.63906
-0.135946
0.676785
-0.172154
0.711667
-0.210462
0.748927
-0.250974
0.790486
0.837071
-0.293903
-0.00502227
0.170027
-0.0185762
0.384235
-0.0394323
0.526377
-0.0657841
0.613875
-0.0959959
0.669272
-0.128944
0.709733
-0.16409
0.746813
-0.201341
0.786177
-0.240768
0.829913
0.878824
-0.282521
-0.00431349
0.174341
-0.0165446
0.396466
-0.0359157
0.545748
-0.06086
0.638819
-0.0898022
0.698214
-0.121584
0.741515
-0.155612
0.780841
-0.191751
0.822316
-0.23003
0.868192
0.919312
-0.270518
-0.00359131
0.177932
-0.0144534
0.407328
-0.0322693
0.563564
-0.0557279
0.662278
-0.0833266
0.725813
-0.113878
0.772067
-0.146729
0.813692
-0.181705
0.857291
-0.21876
0.905247
0.95854
-0.257988
-0.00285987
0.180792
-0.0123117
0.41678
-0.0285051
0.579757
-0.0504001
0.684173
-0.0765807
0.751993
-0.105836
0.801322
-0.137453
0.845308
-0.171219
0.891058
-0.20744
0.941468
0.997799
-0.246699
-0.00212351
0.182916
-0.0101291
0.424786
-0.0246362
0.594265
-0.0448902
0.704427
-0.0695769
0.77668
-0.0974685
0.829214
-0.127793
0.875633
-0.16028
0.923545
-0.195177
0.976365
1.03539
-0.232764
-0.00138686
0.184303
-0.00791581
0.431314
-0.0206767
0.607025
-0.039213
0.722964
-0.0623291
0.799796
-0.0887876
0.855672
-0.117756
0.904601
-0.148896
0.954684
-0.182352
1.00982
1.0713
-0.218265
-0.000655596
0.184958
-0.00568255
0.436341
-0.0166416
0.617985
-0.0333848
0.739707
-0.0548526
0.821264
-0.0798071
0.880627
-0.107356
0.93215
-0.137082
0.98441
-0.169014
1.04175
1.10546
-0.203176
5.94855e-05
0.184899
-0.00343972
0.439841
-0.012547
0.627092
-0.0274236
0.754583
-0.0471643
0.841005
-0.0705425
0.904005
-0.096605
0.958212
-0.124854
1.01266
-0.155205
1.0721
1.13785
-0.187596
0.000796111
0.184103
-0.00119325
0.44183
-0.00841019
0.634309
-0.0213488
0.767522
-0.039283
0.858939
-0.0610108
0.925733
-0.0855209
0.982722
-0.112231
1.03937
-0.14095
1.10082
1.16846
-0.171557
0.00148758
0.182615
0.00101938
0.442298
-0.00424861
0.639577
-0.0151814
0.778455
-0.0312292
0.874987
-0.0512308
0.945734
-0.0741218
1.00561
-0.0992319
1.06448
-0.126273
1.12786
1.19727
-0.15508
0.00215783
0.180457
0.00319664
0.441259
-3.52752e-05
0.642809
-0.00894387
0.787363
-0.0230262
0.889069
-0.0412236
0.963931
-0.0624277
1.02682
-0.0858801
1.08793
-0.111202
1.15319
1.22426
-0.138193
0.00280355
0.177654
0.00534179
0.438721
0.00406272
0.644088
-0.0026653
0.794091
-0.0146988
0.901103
-0.0310125
0.980245
-0.0504609
1.04627
-0.0721991
1.10967
-0.095764
1.17675
1.24941
-0.12092
0.00341927
0.174234
0.00743496
0.434705
0.00816446
0.643358
0.00362927
0.798626
-0.00627538
0.911007
-0.0206234
0.994593
-0.0382455
1.06389
-0.0582138
1.12964
-0.0799838
1.19852
1.27271
-0.103282
0.00400074
0.170234
0.00945964
0.429247
0.0122047
0.640613
0.00991219
0.800919
0.00221455
0.918705
-0.0100849
1.00689
-0.0258078
1.07961
-0.0439499
1.14778
-0.0638874
1.21846
1.29413
-0.0853046
0.00454401
0.16569
0.0114016
0.422389
0.0161585
0.635856
0.0161534
0.800924
0.0107383
0.92412
0.000560464
1.01707
-0.0131767
1.09335
-0.0294356
1.16404
-0.0474999
1.23652
1.31364
-0.0670104
0.0050455
0.160644
0.0132482
0.414186
0.0200008
0.629104
0.0223189
0.798606
0.0192612
0.927178
0.0113155
1.02502
-0.000393396
1.10506
-0.0147028
1.17835
-0.0308464
1.25267
1.33122
-0.0484254
0.00550201
0.155142
0.0149868
0.404702
0.0237065
0.620384
0.0283735
0.793939
0.0277428
0.927809
0.0221061
1.03065
0.0125415
1.11462
0.000150439
1.19074
-0.0139461
1.26676
1.34685
-0.0295789
0.0059108
0.149231
0.0166055
0.394007
0.0272502
0.609739
0.0342807
0.786908
0.0361413
0.925948
0.0329023
1.03389
0.0255633
1.12196
0.0153219
1.20098
0.0031834
1.2789
1.36055
-0.0105159
0.00626962
0.142962
0.0180932
0.382183
0.0306064
0.597226
0.040002
0.777513
0.0444115
0.921538
0.0436588
1.03464
0.0386335
1.12699
0.0305376
1.20908
0.0204048
1.28903
1.37215
0.00880086
0.00657673
0.136385
0.0194397
0.36932
0.0337506
0.582915
0.0454981
0.765765
0.0525048
0.914532
0.0543251
1.03282
0.0517064
1.1296
0.0458373
1.21495
0.0378169
1.29705
1.38163
0.0283442
0.00683097
0.129554
0.0206359
0.355515
0.0366586
0.566892
0.0507286
0.751695
0.0603697
0.904891
0.0648467
1.02835
0.0647331
1.12972
0.0611794
1.2185
0.0553381
1.3029
1.38897
0.0479965
0.00703176
0.122522
0.0216743
0.340873
0.0393078
0.549259
0.055653
0.73535
0.0679519
0.892592
0.0751645
1.02113
0.0776578
1.12723
0.0765133
1.21964
0.0729237
1.30649
1.39414
0.0677534
0.00717912
0.115343
0.0225488
0.325503
0.0416773
0.530131
0.0602307
0.716797
0.0751948
0.877628
0.0852142
1.01112
0.0904178
1.12202
0.0917841
1.21828
0.0905276
1.30774
1.39708
0.0875815
0.00727369
0.108069
0.0232553
0.309522
0.0437485
0.509637
0.0644223
0.696123
0.0820396
0.86001
0.0949265
0.998228
0.102944
1.114
0.10693
1.21429
0.108098
1.30657
1.39774
0.107439
0.00731671
0.100753
0.0237915
0.293047
0.0455054
0.487923
0.0681901
0.673438
0.0884268
0.839774
0.104228
0.982427
0.115159
1.10307
0.121882
1.20757
0.125576
1.30288
1.39604
0.127278
0.00730999
0.0934427
0.024157
0.2762
0.0469356
0.465145
0.071499
0.648875
0.0942961
0.816977
0.11304
0.963684
0.12698
1.08913
0.136562
1.19799
0.142895
1.29655
1.3919
0.147042
0.0072559
0.0861868
0.0243537
0.259102
0.0480299
0.441469
0.0743177
0.622587
0.0995887
0.791705
0.121281
0.941992
0.138315
1.0721
0.15088
1.18542
0.159978
1.28745
1.38521
0.166666
0.00715731
0.0790294
0.0243853
0.241874
0.0487837
0.41707
0.0766192
0.594751
0.104248
0.764077
0.128868
0.917372
0.149064
1.0519
0.164737
1.16975
0.176736
1.27545
1.37587
0.186074
0.00701754
0.0720119
0.0242578
0.224634
0.0491965
0.392131
0.0783825
0.565566
0.10822
0.734239
0.135715
0.889877
0.159123
1.02849
0.178023
1.15085
0.193068
1.26041
1.36376
0.205181
0.00684028
0.0651716
0.0239789
0.207495
0.0492724
0.366838
0.079593
0.535245
0.11146
0.702372
0.14174
0.859596
0.16838
1.00185
0.190617
1.12861
0.208858
1.24216
1.34873
0.223885
0.0066295
0.0585421
0.0235582
0.190566
0.04902
0.341376
0.0802435
0.504021
0.113925
0.668691
0.146862
0.82666
0.176721
0.971994
0.202384
1.10295
0.223974
1.22057
1.33063
0.242072
0.00638936
0.0521528
0.0230066
0.173949
0.0484526
0.31593
0.0803349
0.472139
0.115587
0.633438
0.151006
0.791241
0.184028
0.938972
0.213184
1.07379
0.238268
1.19549
1.30929
0.259608
0.00612416
0.0460286
0.0223364
0.157737
0.0475874
0.290679
0.0798761
0.439851
0.116426
0.596889
0.154108
0.753559
0.190188
0.902892
0.222867
1.04111
0.251576
1.16678
1.28453
0.276342
0.00583817
0.0401904
0.0215607
0.142014
0.0464455
0.265794
0.0788846
0.407411
0.116434
0.559339
0.156115
0.713878
0.195093
0.863915
0.231278
1.00493
0.263718
1.13434
1.25614
0.292105
0.00553556
0.0346549
0.0206931
0.126857
0.0450507
0.241437
0.0773858
0.375076
0.115618
0.521108
0.156988
0.672507
0.198643
0.82226
0.238263
0.96531
0.274499
1.09811
1.22392
0.306715
0.00522032
0.0294345
0.0197475
0.112329
0.0434297
0.217755
0.0754124
0.343094
0.113997
0.482523
0.156708
0.629795
0.200757
0.778211
0.243674
0.922393
0.283716
1.05806
1.18766
0.319976
0.00489615
0.0245384
0.0187373
0.0984883
0.0416101
0.194882
0.0730031
0.311701
0.111604
0.443922
0.155274
0.586126
0.201371
0.732114
0.247372
0.876392
0.29116
1.01428
1.14713
0.331692
0.00456638
0.019972
0.0176757
0.085379
0.0396206
0.172937
0.0702017
0.281119
0.108487
0.405637
0.152706
0.541907
0.200446
0.684374
0.249239
0.827598
0.296623
0.966892
1.10208
0.341675
0.00423391
0.0157381
0.0165748
0.0730381
0.0374894
0.152022
0.0670554
0.251554
0.104701
0.367991
0.149045
0.497563
0.197971
0.635448
0.249177
0.776392
0.299907
0.916162
1.05221
0.349772
0.00390118
0.0118369
0.0154458
0.0614935
0.0352441
0.132224
0.0636131
0.223185
0.100313
0.331291
0.144355
0.453522
0.193968
0.585834
0.24712
0.723241
0.300836
0.862445
0.997159
0.35589
0.00357015
0.00826677
0.0142984
0.0507653
0.0329103
0.113612
0.059924
0.196171
0.0953964
0.295818
0.138713
0.410205
0.188487
0.536061
0.243027
0.6687
0.299276
0.806197
0.936401
0.360034
0.00324228
0.0050245
0.0131411
0.0408664
0.0305118
0.0962414
0.0560363
0.170646
0.0900268
0.261828
0.132217
0.368015
0.181609
0.486669
0.236887
0.613423
0.295154
0.74793
0.869226
0.362329
0.00291861
0.00210588
0.0119811
0.0318039
0.0280702
0.0801524
0.0519961
0.14672
0.0842835
0.22954
0.124974
0.327325
0.173446
0.438196
0.228706
0.558163
0.2882
0.688436
0.794702
0.362724
0.00259982
-0.000493938
0.0108244
0.0235793
0.0256043
0.0653725
0.0478464
0.124478
0.078245
0.199142
0.117102
0.288467
0.164143
0.391155
0.218613
0.503693
0.278273
0.628776
0.73278
0.340195
0.00228625
-0.00278019
0.00967583
0.0161897
0.023131
0.0519173
0.0436272
0.103982
0.0719877
0.170781
0.108728
0.251727
0.153884
0.346
0.206865
0.450712
0.266504
0.569137
0.671263
0.328021
0.00197809
-0.00475828
0.00853945
0.00962837
0.0206652
0.0397916
0.0393748
0.0852726
0.0655843
0.144572
0.0999774
0.217334
0.142864
0.303113
0.19386
0.399716
0.252791
0.510206
0.609516
0.314537
0.00167542
-0.0064337
0.00741883
0.00388496
0.01822
0.0289904
0.0351225
0.0683701
0.0591029
0.120591
0.0909712
0.185466
0.131268
0.262816
0.17985
0.351134
0.237272
0.452784
0.54803
0.298757
0.00137836
-0.00781207
0.00631734
-0.00105402
0.0158076
0.0195002
0.0309007
0.0532769
0.0526063
0.0988858
0.0818228
0.156249
0.11927
0.225369
0.165054
0.305351
0.220223
0.397615
0.487546
0.280707
0.0010872
-0.00889926
0.00523843
-0.00520526
0.0134397
0.0112989
0.026738
0.0399786
0.0461532
0.0794706
0.0726386
0.129764
0.107044
0.190964
0.149708
0.262686
0.201984
0.345339
0.428896
0.260634
0.000802437
-0.0097017
0.00418594
-0.00858876
0.0111283
0.00435662
0.0226619
0.028445
0.0397988
0.0623337
0.0635187
0.106044
0.0947543
0.159728
0.134051
0.22339
0.182908
0.296483
0.372895
0.23891
0.000524947
-0.0102266
0.00316431
-0.0112281
0.00888555
-0.00136462
0.0186997
0.0186308
0.0335963
0.0474371
0.0545581
0.0850822
0.082561
0.131725
0.118318
0.187633
0.163348
0.251452
0.320247
0.215995
0.000256115
-0.0104828
0.00217883
-0.0131508
0.00672485
-0.00591065
0.0148789
0.0104768
0.0275975
0.0347185
0.0458476
0.066832
0.0706152
0.106957
0.102736
0.155513
0.143657
0.210531