/*--------------------------------*- C++ -*----------------------------------*\
  =========                 |
  \\      /  F ield         | OpenFOAM: The Open Source CFD Toolbox
   \\    /   O peration     | Website:  https://openfoam.org
    \\  /    A nd           | Version:  9
     \\/     M anipulation  |
\*---------------------------------------------------------------------------*/
FoamFile
{
    format      ascii;
    class       volVectorField;
    location    "6.8";
    object      U;
}
// * * * * * * * * * * * * * * * * * * * * * * * * * * * * * * * * * * * * * //

dimensions      [0 1 -1 0 0 0 0];

internalField   nonuniform List<vector> 
8500
(
(-0.00384997 0.00132796 0)
(-0.0146053 0.00197537 -7.17124e-23)
(-0.0275976 0.00176198 -3.97104e-24)
(-0.0359754 0.0010811 7.3818e-37)
(-0.0396276 0.000174091 -1.03885e-23)
(-0.0375288 -0.000845016 8.71298e-24)
(-0.0301889 -0.00190201 -5.4968e-23)
(-0.0165139 -0.00297461 -8.20258e-23)
(0.000127643 -0.00380549 -7.03901e-23)
(0.023417 -0.0046776 -3.55795e-24)
(-0.00400175 0.00395161 2.00999e-22)
(-0.0146037 0.00586821 6.70108e-23)
(-0.0271094 0.00522313 2.69012e-22)
(-0.034838 0.00318473 0)
(-0.0377026 0.000474522 0)
(-0.0347089 -0.00256737 1.67561e-23)
(-0.0264012 -0.00572011 4.08962e-23)
(-0.0116178 -0.00890301 8.7363e-23)
(0.00604902 -0.0114095 5.32268e-23)
(0.0309467 -0.0139696 1.42336e-23)
(-0.00429743 0.00647931 -1.78608e-22)
(-0.0145872 0.00958874 0)
(-0.0261199 0.00849729 -2.5333e-22)
(-0.0325528 0.00511415 0)
(-0.0338466 0.000633094 -4.16875e-23)
(-0.0290695 -0.00438625 3.49638e-23)
(-0.0188295 -0.0095883 0)
(-0.00185473 -0.0147865 0)
(0.0178441 -0.0189701 0)
(0.0459412 -0.023066 0)
(-0.00472145 0.0088499 3.62654e-22)
(-0.0145292 0.0130266 -2.71328e-22)
(-0.0246028 0.0114647 -6.36483e-23)
(-0.0290981 0.00675814 -3.94432e-22)
(-0.0280473 0.000560098 -3.84506e-22)
(-0.0206136 -0.00636244 3.36814e-23)
(-0.00748564 -0.013555 -2.82856e-23)
(0.0127311 -0.0206108 3.08265e-22)
(0.0354263 -0.0264257 2.34259e-24)
(0.0682594 -0.0318251 2.71561e-22)
(-0.00525099 0.0110064 -3.62654e-22)
(-0.0143901 0.0160783 -3.52773e-22)
(-0.0225187 0.014013 9.57581e-23)
(-0.0244414 0.00801281 5.246e-22)
(-0.0202855 0.000173188 -4.50461e-23)
(-0.00934965 -0.00854528 5.53305e-22)
(0.00760439 -0.0176132 0)
(0.0320905 -0.02638 -3.51179e-22)
(0.0586735 -0.0337289 -6.75973e-23)
(0.0976828 -0.0400989 -3.74285e-22)
(-0.00585657 0.0128972 9.24619e-23)
(-0.0141184 0.0186494 5.84948e-22)
(-0.0198152 0.0160397 -4.54438e-22)
(-0.0185388 0.00878444 1.33801e-24)
(-0.0105329 -0.000600228 -3.87418e-22)
(0.0047292 -0.0109759 1.41462e-22)
(0.026392 -0.0217398 -5.7034e-23)
(0.0561307 -0.0320742 4.39926e-22)
(0.0874434 -0.0408363 -7.28136e-23)
(0.133923 -0.0477317 2.15071e-22)
(-0.00650274 0.0144776 4.67588e-23)
(-0.0136508 0.0206567 0)
(-0.0164274 0.0174554 -4.53447e-24)
(-0.0113345 0.0089924 0)
(0.00124633 -0.00181951 6.89578e-22)
(0.0216315 -0.0136887 -5.56069e-22)
(0.0488369 -0.0259457 0)
(0.0847338 -0.0376193 1.3215e-24)
(0.121553 -0.0476851 0)
(0.176614 -0.0545573 0)
(-0.00714905 0.0157107 -7.6665e-22)
(-0.0129134 0.0220303 -7.92283e-23)
(-0.0122779 0.0181859 5.89124e-22)
(-0.00276114 0.00857246 1.0568e-22)
(0.0150963 -0.003527 -6.95632e-22)
(0.0413656 -0.0166973 -4.22356e-22)
(0.0748968 -0.0302185 -5.76589e-23)
(0.117765 -0.0429381 4.44931e-22)
(0.160782 -0.0541934 -7.35128e-23)
(0.225314 -0.0604004 5.48681e-23)
(-0.00775114 0.0165684 8.6311e-22)
(-0.0118228 0.0227146 -6.51309e-22)
(-0.00727761 0.0181746 -1.9804e-22)
(0.00726074 0.00747933 1.09672e-22)
(0.0310707 -0.00574654 6.98751e-22)
(0.0639423 -0.0199947 6.31724e-22)
(0.104523 -0.034518 -5.80153e-23)
(0.155069 -0.0479413 9.08042e-23)
(0.204878 -0.0602574 -1.41584e-22)
(0.279489 -0.0650813 5.70397e-23)
(-0.00826119 0.0170301 7.95706e-22)
(-0.0102881 0.0226722 6.50427e-22)
(-0.00132603 0.0173841 -9.46958e-22)
(0.0188215 0.00568876 -1.10774e-22)
(0.0492324 -0.00848012 0)
(0.0893753 -0.0235516 0)
(0.13766 -0.0387799 0)
(0.196462 -0.0525202 -1.434e-21)
(0.25355 -0.0657463 -5.86078e-22)
(0.338502 -0.0684208 4.14952e-22)
(-0.00862542 0.0170778 -1.60766e-21)
(-0.00821333 0.0218879 0)
(0.00568582 0.0157992 2.17168e-21)
(0.0320217 0.00320057 8.85604e-22)
(0.0696514 -0.0117041 9.07589e-23)
(0.117679 -0.0273148 0)
(0.174242 -0.0429145 -9.20601e-22)
(0.24173 -0.0565452 7.18586e-22)
(0.306466 -0.0704981 5.86073e-22)
(0.401614 -0.0702452 -4.14963e-22)
(-0.00878944 0.0167135 9.13384e-22)
(-0.00549066 0.0203563 -8.51487e-23)
(0.0138732 0.0134268 -1.09235e-21)
(0.0469691 4.06503e-05 -9.94946e-22)
(0.0924022 -0.0153671 0)
(0.148864 -0.0312035 1.15715e-21)
(0.214185 -0.0468056 -5.97631e-24)
(0.29062 -0.0598694 6.36105e-22)
(0.363244 -0.0743176 6.68453e-22)
(0.467977 -0.0703949 -4.08963e-22)
(-0.00870481 0.0159496 -1.45594e-24)
(-0.00201059 0.0180855 1.45796e-21)
(0.0233602 0.0102982 -1.41052e-22)
(0.0637769 -0.00373765 7.93491e-22)
(0.11756 -0.0193887 4.58195e-22)
(0.182932 -0.0351088 2.99435e-22)
(0.257385 -0.0503107 9.19707e-22)
(0.34283 -0.0623336 -8.19798e-22)
(0.423437 -0.0769782 -4.57744e-22)
(0.536635 -0.068736 2.94693e-22)
(-0.00831751 0.0147965 0)
(0.00233528 0.0151112 -1.2049e-21)
(0.0342735 0.0064693 -1.43088e-22)
(0.0825595 -0.00805261 9.73076e-24)
(0.145194 -0.023658 7.28043e-22)
(0.219869 -0.0388934 -1.02288e-21)
(0.303701 -0.0532624 9.31378e-22)
(0.398007 -0.0637739 -9.5027e-23)
(0.486529 -0.0782286 0)
(0.606529 -0.0651749 0)
(-0.0075737 0.0132739 1.09504e-22)
(0.00765681 0.0114853 -1.41982e-21)
(0.0467392 0.00202005 0)
(0.103428 -0.012794 -1.02518e-22)
(0.175363 -0.0280348 9.43287e-23)
(0.259636 -0.0423936 0)
(0.352945 -0.0554735 -9.38421e-22)
(0.455735 -0.0640315 -7.36324e-22)
(0.551916 -0.0778047 1.35686e-22)
(0.676518 -0.0596837 -1.14377e-22)
(-0.00642097 0.0114099 -1.09445e-22)
(0.0140629 0.00727599 1.5117e-21)
(0.0608798 -0.00294576 0)
(0.126483 -0.0178237 -1.03746e-21)
(0.208106 -0.0323506 9.53021e-23)
(0.302158 -0.045422 -1.19304e-21)
(0.404874 -0.0567428 -1.143e-22)
(0.515534 -0.0629631 8.32432e-22)
(0.61891 -0.0754474 0)
(0.745413 -0.0523289 8.05937e-22)
(-0.00480833 0.00923887 -1.74332e-21)
(0.0216588 0.00256736 -9.37248e-23)
(0.0768103 -0.0083015 -1.43874e-22)
(0.151812 -0.0229778 1.20396e-22)
(0.243431 -0.0364124 -1.51112e-21)
(0.347314 -0.0477733 1.19304e-21)
(0.459174 -0.0568656 9.55184e-22)
(0.576861 -0.0604514 7.44274e-22)
(0.686726 -0.0709118 1.20102e-21)
(0.811983 -0.0432492 -6.91616e-22)
(-0.00268652 0.00680069 1.85496e-21)
(0.0305437 -0.00254093 0)
(0.0946334 -0.0138993 1.34799e-21)
(0.179477 -0.0280688 -1.21986e-22)
(0.281311 -0.0400071 3.03684e-21)
(0.39493 -0.0492314 0)
(0.515457 -0.0556472 -9.55177e-22)
(0.639128 -0.0564167 4.18942e-24)
(0.754493 -0.0639515 -1.33659e-21)
(0.874893 -0.0325681 1.14294e-22)
(-8.55032e-06 0.0041405 0)
(0.0408081 -0.00793515 1.51653e-21)
(0.114435 -0.0195724 -1.20221e-21)
(0.209514 -0.0328899 0)
(0.321669 -0.042908 -1.52572e-21)
(0.444765 -0.0495784 0)
(0.573259 -0.0529213 9.65319e-22)
(0.701728 -0.0508242 -7.48452e-22)
(0.821335 -0.0543142 -1.19054e-21)
(0.933052 -0.0206715 -8.21086e-22)
(0.00326976 0.00130825 -2.37125e-22)
(0.0525319 -0.0134887 -1.31746e-21)
(0.13628 -0.0251377 0)
(0.24192 -0.0372192 0)
(0.364378 -0.0448817 0)
(0.496509 -0.0486043 -1.489e-22)
(0.632034 -0.048566 -9.73528e-22)
(0.76404 -0.0436645 -9.82406e-23)
(0.886441 -0.0419653 1.19053e-21)
(0.986974 -0.0101006 9.3573e-22)
(0.00718913 -0.00164165 0)
(0.0657812 -0.0190639 -1.56818e-21)
(0.160205 -0.0303989 0)
(0.27665 -0.0408258 0)
(0.409247 -0.0456963 0)
(0.549777 -0.0461169 1.49825e-22)
(0.691162 -0.0425039 -1.21737e-21)
(0.825338 -0.0349234 8.41724e-23)
(0.948664 -0.0277471 8.8313e-22)
(1.0403 -0.00591859 9.14869e-22)
(0.0117861 -0.00465059 0)
(0.0806061 -0.0245132 1.56817e-21)
(0.186219 -0.0351506 -1.27563e-21)
(0.313612 -0.0434754 0)
(0.456024 -0.0451296 -1.58611e-21)
(0.604118 -0.0419492 0)
(0.749978 -0.0346875 9.74172e-22)
(0.884754 -0.0246163 -7.61122e-22)
(1.00583 -0.0134984 -1.17804e-21)
(1.09289 -0.00283971 -9.09025e-22)
(0.017092 -0.00765598 2.1221e-21)
(0.0970381 -0.0296815 0)
(0.214295 -0.0391821 1.11968e-21)
(0.352663 -0.0449375 1.30499e-22)
(0.504397 -0.0429779 3.18715e-21)
(0.659024 -0.0359687 0)
(0.80781 -0.0251007 -9.80439e-22)
(0.941499 -0.012744 -1.52231e-21)
(1.05768 0.0010271 -1.02162e-21)
(1.13942 0.00585989 -1.34715e-23)
(0.0231325 -0.0105915 -2.25032e-21)
(0.115088 -0.0344079 1.07644e-22)
(0.244367 -0.0422821 1.58054e-22)
(0.393607 -0.0449924 -1.32261e-22)
(0.553997 -0.0390649 -1.60104e-21)
(0.71395 -0.0280864 1.26344e-21)
(0.86401 -0.0137694 9.80435e-22)
(0.994905 0.000618288 7.61193e-22)
(1.10426 0.0159887 1.163e-21)
(1.17923 0.018024 -1.01263e-21)
(0.0299258 -0.0133876 1.30632e-22)
(0.134741 -0.0385277 1.56397e-21)
(0.276334 -0.0442429 0)
(0.436199 -0.0434377 -9.13243e-22)
(0.604405 -0.0332489 -1.04966e-22)
(0.76833 -0.018263 -1.26343e-21)
(0.917971 -0.000769566 1.1807e-22)
(1.04444 0.0153019 6.57264e-22)
(1.1456 0.031336 0)
(1.21278 0.0319088 9.0875e-22)
(0.0374822 -0.0159715 -1.39606e-22)
(0.155962 -0.0418756 -1.67364e-21)
(0.31005 -0.0448656 0)
(0.480143 -0.0400953 1.15142e-22)
(0.655165 -0.0254293 -1.06e-22)
(0.821593 -0.00651128 0)
(0.969147 0.0137767 -9.81209e-22)
(1.0897 0.0310867 -7.56548e-22)
(1.18173 0.046972 -1.3718e-22)
(1.24045 0.0466101 -1.15651e-22)
(0.0458029 -0.0182681 0)
(0.178684 -0.0442875 -1.93353e-21)
(0.345331 -0.043965 1.74761e-22)
(0.525099 -0.0348168 -1.07964e-23)
(0.705792 -0.01555 -8.26417e-22)
(0.873191 0.00710609 -1.42977e-21)
(1.01707 0.0297088 1.10975e-21)
(1.13044 0.0477329 0)
(1.21276 0.0627753 0)
(1.26273 0.0615659 0)
(0.0548784 -0.0202008 7.31877e-24)
(0.202815 -0.0456039 1.62816e-21)
(0.381954 -0.0413735 1.77162e-22)
(0.570693 -0.0274883 1.18948e-21)
(0.755792 -0.00360113 7.18569e-22)
(0.922607 0.0224812 -1.53564e-22)
(1.06135 0.0468377 9.85194e-22)
(1.16652 0.0650001 -6.38811e-22)
(1.23887 0.0786096 -6.80108e-22)
(1.28014 0.0764086 5.31174e-22)
(0.0646882 -0.0216917 1.04801e-21)
(0.228234 -0.0456725 1.17256e-22)
(0.419659 -0.036946 -1.40208e-21)
(0.616519 -0.018034 -1.07951e-21)
(0.80467 0.0103815 0)
(0.969378 0.0394681 1.27736e-21)
(1.10169 0.0649568 -7.21884e-24)
(1.19791 0.0826606 8.23078e-22)
(1.26033 0.0943404 4.74972e-22)
(1.29322 0.0909079 -4.19516e-22)
(0.0751996 -0.0226638 -2.39279e-21)
(0.254794 -0.0443515 0)
(0.458153 -0.0305636 2.81862e-21)
(0.662154 -0.00641775 9.49129e-22)
(0.851951 0.0263193 1.09217e-22)
(1.01311 0.0578905 0)
(1.13792 0.0838518 -9.66014e-22)
(1.22471 0.100507 7.14242e-22)
(1.27744 0.109847 5.25261e-22)
(1.30249 0.104929 -3.95397e-22)
(0.0863672 -0.0230411 1.20511e-21)
(0.282317 -0.041513 9.056e-22)
(0.497119 -0.0221369 -1.58736e-21)
(0.707167 0.00735559 1.42946e-22)
(0.897188 0.044095 0)
(1.05346 0.077551 0)
(1.16992 0.10331 0)
(1.24706 0.118358 -1.41429e-21)
(1.29056 0.125026 -5.25264e-22)
(1.30843 0.1184 3.95383e-22)
(0.0981325 -0.0227511 1.08925e-21)
(0.310604 -0.0370458 -8.94526e-22)
(0.536213 -0.0116085 9.25612e-23)
(0.751128 0.0232412 0)
(0.939975 0.0635579 8.34608e-22)
(1.09019 0.0982389 5.51637e-22)
(1.19767 0.123127 6.25326e-23)
(1.26518 0.136059 -6.48362e-23)
(1.30003 0.1398 1.27836e-22)
(1.3115 0.131293 -5.02131e-23)
(0.110424 -0.0217255 -1.23429e-21)
(0.339429 -0.0308583 1.11497e-22)
(0.57508 0.00104495 7.16619e-22)
(0.793619 0.0411559 -2.03376e-22)
(0.979953 0.0845304 -6.2596e-22)
(1.12311 0.119738 -7.82433e-22)
(1.22123 0.143113 6.16914e-23)
(1.27934 0.153479 3.51059e-22)
(1.30623 0.154106 0)
(1.31208 0.143603 -4.09743e-23)
(0.123156 -0.0199025 -7.81398e-23)
(0.368548 -0.0228816 0)
(0.613355 0.0158119 2.2126e-24)
(0.834243 0.0609814 0)
(1.01682 0.106814 8.24225e-22)
(1.15211 0.141832 -6.09305e-22)
(1.2407 0.163092 0)
(1.2898 0.170513 1.02009e-23)
(1.3095 0.167904 0)
(1.31053 0.155343 0)
(0.136233 -0.0172279 -1.52632e-22)
(0.3977 -0.013072 9.89871e-22)
(0.650672 0.0326454 -8.12249e-22)
(0.872631 0.0825673 1.37411e-22)
(1.05032 0.130195 -3.74455e-22)
(1.17714 0.16431 -6.95758e-23)
(1.25624 0.182908 0)
(1.29687 0.187075 2.48894e-22)
(1.31017 0.181164 6.20244e-23)
(1.30716 0.166529 1.59818e-22)
(0.149546 -0.0136573 -6.30138e-22)
(0.42661 -0.00141238 -4.07431e-22)
(0.686671 0.0514642 -1.33304e-22)
(0.908449 0.105736 5.49234e-22)
(1.08028 0.154451 4.80105e-23)
(1.19822 0.186971 5.9783e-22)
(1.26803 0.202423 0)
(1.30082 0.203097 -2.98983e-22)
(1.30854 0.193867 5.03968e-23)
(1.3022 0.177181 -3.53157e-22)
(0.162975 -0.00915745 -6.30138e-22)
(0.454996 0.0120855 4.07884e-22)
(0.721005 0.0721535 -4.06461e-24)
(0.941403 0.130287 -6.40977e-22)
(1.10655 0.179354 -3.48322e-22)
(1.21541 0.209624 -3.35249e-23)
(1.27629 0.221514 2.81543e-23)
(1.30195 0.218524 3.32742e-22)
(1.30489 0.206001 -4.57327e-24)
(1.29588 0.187314 1.14168e-22)
(0.176393 -0.00370744 -3.12848e-22)
(0.482572 0.0273807 0)
(0.753344 0.0945677 -3.57103e-22)
(0.971243 0.156 0)
(1.12904 0.204678 -4.39581e-22)
(1.22879 0.232091 3.81028e-23)
(1.28124 0.240074 0)
(1.30052 0.233312 0)
(1.29945 0.217556 0)
(1.28838 0.196941 0)
(0.189666 0.00269967 2.75014e-22)
(0.509054 0.0444024 1.29428e-22)
(0.783385 0.118533 3.57103e-22)
(0.997762 0.182642 0)
(1.14774 0.230199 0)
(1.23851 0.254206 -1.5574e-23)
(1.28311 0.258009 5.92759e-23)
(1.29677 0.247424 6.39255e-23)
(1.29243 0.228524 5.4516e-23)
(1.27985 0.206066 -8.81028e-24)
(0.202653 0.010056 -4.81841e-24)
(0.534164 0.0630506 -1.20853e-22)
(0.81085 0.143849 5.71079e-24)
(1.0208 0.209969 7.46858e-24)
(1.16263 0.255697 -1.15776e-23)
(1.2447 0.275817 4.46297e-24)
(1.28212 0.275238 -5.13395e-23)
(1.29095 0.260828 -5.96017e-23)
(1.28402 0.238897 -4.16449e-23)
(1.27041 0.21469 1.23744e-24)
(0.215212 0.0183383 0)
(0.557635 0.0831968 -1.17342e-22)
(0.835495 0.170295 -4.44184e-24)
(1.04023 0.237733 8.41546e-24)
(1.17378 0.280961 1.60753e-37)
(1.24755 0.296785 -1.12471e-37)
(1.27849 0.291687 -4.58565e-23)
(1.28325 0.273495 -5.13653e-23)
(1.27438 0.248663 -3.73023e-23)
(1.26017 0.222808 0)
(0.227201 0.0275071 3.30255e-22)
(0.579215 0.104685 9.59118e-23)
(0.857112 0.197632 3.49567e-22)
(1.05599 0.265681 -1.63678e-23)
(1.18125 0.30579 0)
(1.24722 0.316981 1.32926e-23)
(1.27244 0.307291 2.98708e-23)
(1.27386 0.285399 5.54213e-23)
(1.26364 0.257807 2.93415e-23)
(1.24922 0.23041 6.70712e-24)
(0.238478 0.0375071 -2.94114e-22)
(0.598673 0.127336 0)
(0.875529 0.225605 -3.30008e-22)
(1.06805 0.29356 0)
(1.18515 0.329991 -3.68114e-23)
(1.24392 0.336286 3.08744e-23)
(1.26418 0.321989 0)
(1.26296 0.296512 0)
(1.25191 0.266312 0)
(1.23763 0.23748 0)
(0.248908 0.0482669 5.53068e-22)
(0.6158 0.150946 -3.57965e-22)
(0.890611 0.253949 -7.77191e-23)
(1.07639 0.321123 -3.50464e-22)
(1.18561 0.353382 -3.3765e-22)
(1.23783 0.354594 2.28944e-23)
(1.25388 0.335728 -1.9227e-23)
(1.2507 0.306808 1.44054e-22)
(1.23931 0.274157 4.0254e-24)
(1.22545 0.243994 8.08283e-23)
(0.258361 0.0597001 -5.53068e-22)
(0.630414 0.175293 -4.23225e-22)
(0.902263 0.282393 1.09041e-22)
(1.08107 0.348126 4.21472e-22)
(1.18278 0.375793 -1.90674e-23)
(1.22915 0.371803 3.57243e-22)
(1.24175 0.348457 0)
(1.23721 0.316261 -1.63357e-22)
(1.22593 0.281324 -2.0546e-23)
(1.21271 0.249922 -9.53735e-23)
(0.266717 0.0717056 1.26122e-22)
(0.642362 0.200138 7.31723e-22)
(0.910429 0.310661 -4.88131e-22)
(1.08216 0.374334 -9.93309e-23)
(1.17682 0.397062 -2.50262e-22)
(1.21806 0.387823 5.02214e-23)
(1.22793 0.360126 -3.14349e-23)
(1.22262 0.324836 1.48344e-22)
(1.21188 0.287806 -2.39365e-23)
(1.19946 0.255236 4.98463e-23)
(0.273867 0.0841693 6.15972e-23)
(0.651521 0.225229 0)
(0.915087 0.338477 3.52112e-23)
(1.07975 0.399519 0)
(1.16791 0.417041 5.03118e-22)
(1.20476 0.402569 -3.20857e-22)
(1.2126 0.370693 0)
(1.20701 0.332487 -2.28708e-23)
(1.19722 0.293578 0)
(1.1858 0.259901 0)
(0.279716 0.0969653 -8.93906e-22)
(0.657801 0.250305 -8.04765e-23)
(0.916256 0.365568 5.85668e-22)
(1.07396 0.423465 7.45678e-23)
(1.15622 0.435592 -5.12774e-22)
(1.18944 0.415966 -1.7476e-22)
(1.1959 0.380122 -2.36618e-23)
(1.19054 0.339191 6.75517e-23)
(1.18198 0.298581 -1.47484e-23)
(1.1718 0.263924 3.19476e-24)
(0.284183 0.109958 9.95574e-22)
(0.661147 0.2751 -6.22405e-22)
(0.913984 0.391666 -1.65683e-22)
(1.06496 0.445969 8.65061e-23)
(1.14196 0.452587 4.03452e-22)
(1.17227 0.427942 2.65488e-22)
(1.17799 0.388363 -1.95238e-23)
(1.17332 0.344935 -3.65595e-23)
(1.16618 0.30279 -1.3741e-23)
(1.15748 0.267259 3.19138e-24)
(0.287204 0.123002 7.52096e-22)
(0.661535 0.299341 6.11566e-22)
(0.908356 0.416512 -6.92958e-22)
(1.05289 0.466839 -7.75745e-23)
(1.12532 0.467912 0)
(1.15344 0.43843 0)
(1.159 0.395373 0)
(1.15541 0.349687 -1.47842e-22)
(1.14992 0.306187 3.37615e-24)
(1.14288 0.26987 -3.8195e-23)
(0.288734 0.135948 -1.42484e-21)
(0.658973 0.322762 0)
(0.899486 0.439859 1.47528e-21)
(1.03797 0.485896 4.22564e-22)
(1.10651 0.481458 0)
(1.13314 0.447375 0)
(1.13905 0.401115 -7.91993e-23)
(1.1369 0.353413 4.91355e-23)
(1.13327 0.308743 -3.37618e-24)
(1.12802 0.271727 3.81934e-23)
(0.288743 0.148642 7.47469e-22)
(0.653506 0.345095 -6.27352e-23)
(0.887527 0.461474 -6.89621e-22)
(1.02036 0.502974 -4.62214e-22)
(1.08572 0.493131 3.32132e-23)
(1.11152 0.454722 1.31342e-22)
(1.11829 0.405557 6.91188e-23)
(1.11787 0.356088 -4.69145e-23)
(1.11627 0.310433 -8.52824e-23)
(1.11295 0.272799 9.62287e-23)
(0.287224 0.160929 -3.573e-24)
(0.645214 0.366084 7.82211e-22)
(0.872662 0.481147 -7.64713e-23)
(1.00027 0.517917 2.30398e-22)
(1.06318 0.502842 1.09432e-22)
(1.08876 0.460423 -7.0076e-23)
(1.09682 0.408669 -3.17431e-25)
(1.0984 0.357685 5.899e-23)
(1.09897 0.311232 -1.08891e-22)
(1.09771 0.273055 -7.20632e-23)
(0.28419 0.172653 0)
(0.634212 0.385481 -6.70103e-22)
(0.85503 0.498656 -6.25564e-23)
(0.977944 0.530617 -8.53093e-23)
(1.03908 0.510511 -1.08961e-22)
(1.06502 0.464437 -4.42711e-23)
(1.07477 0.410423 -1.40831e-22)
(1.07859 0.358183 0)
(1.08143 0.31112 0)
(1.08233 0.272465 0)
(0.279669 0.183659 4.45101e-23)
(0.620632 0.403067 -4.63144e-22)
(0.834817 0.513795 0)
(0.95365 0.540952 -9.73109e-23)
(1.01364 0.516087 7.95853e-24)
(1.04048 0.466731 0)
(1.05227 0.410797 1.31547e-22)
(1.0585 0.357564 2.1091e-22)
(1.06368 0.310079 -4.73188e-23)
(1.06686 0.270998 3.98404e-23)
(0.273692 0.193783 -3.05664e-23)
(0.604635 0.41863 4.88807e-22)
(0.812295 0.526419 0)
(0.927604 0.548807 -8.61021e-23)
(0.987073 0.519518 -8.93615e-25)
(1.01529 0.467277 2.55714e-22)
(1.02943 0.409771 3.24815e-23)
(1.03824 0.355812 -2.38225e-22)
(1.04579 0.308096 0)
(1.05132 0.268623 -4.25752e-22)
(0.266335 0.202879 -1.79015e-22)
(0.586395 0.431953 -1.5424e-23)
(0.787717 0.536392 -1.44401e-24)
(0.900045 0.554096 1.20841e-24)
(0.959575 0.520763 3.13615e-22)
(0.989605 0.466053 -2.55716e-22)
(1.00637 0.407331 -3.48389e-22)
(1.01788 0.352919 -3.17277e-22)
(1.02779 0.30516 -5.55762e-22)
(1.03575 0.265303 3.71848e-22)
(0.2577 0.210829 1.97387e-22)
(0.56611 0.442854 0)
(0.761338 0.543582 -1.26431e-22)
(0.871221 0.556754 1.10452e-23)
(0.931357 0.519791 -7.63552e-22)
(0.963592 0.463046 0)
(0.983206 0.403467 3.48392e-22)
(0.997518 0.34888 -5.29643e-23)
(1.00974 0.301258 6.30846e-22)
(1.0202 0.260996 -6.32051e-23)
(0.247881 0.217509 0)
(0.544011 0.45118 -1.60153e-22)
(0.733421 0.547885 1.13233e-22)
(0.841384 0.556732 0)
(0.902623 0.516584 4.49938e-22)
(0.937404 0.458249 0)
(0.960059 0.398176 -4.92497e-22)
(0.977235 0.343697 3.70246e-22)
(0.991704 0.296382 7.1317e-22)
(1.00481 0.255653 5.88882e-22)
(0.236988 0.222806 3.98896e-23)
(0.520343 0.456801 1.26665e-22)
(0.704242 0.549217 0)
(0.810787 0.553995 0)
(0.873577 0.511134 0)
(0.911192 0.451662 7.68623e-23)
(0.937043 0.391462 3.61584e-22)
(0.957123 0.337377 5.58079e-23)
(0.973836 0.290563 -7.13175e-22)
(0.98969 0.249401 -6.62705e-22)
(0.22515 0.226623 0)
(0.495365 0.459608 4.8709e-22)
(0.67408 0.547521 0)
(0.779681 0.548529 0)
(0.844416 0.503447 0)
(0.885106 0.443293 -8.82603e-23)
(0.914269 0.383331 7.8224e-22)
(0.937294 0.329926 -1.86734e-22)
(0.956419 0.283887 -6.57882e-22)
(0.974833 0.24227 -6.87084e-22)
(0.212506 0.228876 0)
(0.469342 0.459519 -4.87091e-22)
(0.64322 0.542762 6.18606e-22)
(0.748316 0.540334 0)
(0.815337 0.493536 9.89269e-22)
(0.859293 0.433159 0)
(0.891848 0.373792 -6.33483e-22)
(0.91787 0.321318 5.75587e-22)
(0.93961 0.276335 8.63171e-22)
(0.960599 0.235816 6.88571e-22)
(0.199206 0.2295 -1.12523e-21)
(0.442551 0.456475 0)
(0.611946 0.534928 -5.31178e-22)
(0.716938 0.529427 -7.31667e-23)
(0.786529 0.48143 -2.10853e-21)
(0.833894 0.421283 0)
(0.869883 0.362864 7.68924e-22)
(0.898908 0.31157 4.84258e-23)
(0.923237 0.26779 8.88208e-22)
(0.946318 0.22876 9.05754e-25)
(0.185406 0.228445 1.19744e-21)
(0.41527 0.450446 -6.06229e-23)
(0.580541 0.524028 -1.01886e-22)
(0.685789 0.515845 -8.52639e-23)
(0.75818 0.467168 1.11926e-21)
(0.809048 0.407699 -1.02652e-21)
(0.84848 0.350571 -7.68928e-22)
(0.880488 0.300709 -6.2402e-22)
(0.907364 0.258298 -1.00619e-21)
(0.932364 0.220861 9.50309e-22)
(0.171271 0.225679 -8.49366e-23)
(0.387783 0.441429 -1.05977e-21)
(0.549288 0.510097 0)
(0.655103 0.499637 7.23495e-22)
(0.730468 0.450798 8.16563e-23)
(0.784891 0.392446 1.02653e-21)
(0.827742 0.336943 -1.05822e-22)
(0.862691 0.288757 -6.26996e-22)
(0.892064 0.247898 0)
(0.918887 0.212135 -8.46129e-22)
(0.156967 0.221189 1.03909e-22)
(0.36037 0.429445 1.13108e-21)
(0.518461 0.493191 0)
(0.625111 0.480871 -2.45081e-23)
(0.703569 0.432383 8.98822e-23)
(0.761553 0.375575 0)
(0.80777 0.322017 9.56493e-22)
(0.845596 0.275742 7.15986e-22)
(0.877398 0.236612 1.41687e-22)
(0.905971 0.202619 -1.19337e-22)
(0.142664 0.214977 0)
(0.333311 0.414544 1.60259e-21)
(0.488328 0.473387 -1.43267e-22)
(0.596031 0.45963 7.93621e-23)
(0.677648 0.411994 8.00017e-22)
(0.739159 0.357141 1.42919e-21)
(0.78866 0.305836 -1.08334e-21)
(0.829278 0.261696 0)
(0.863425 0.224467 0)
(0.893681 0.192337 0)
(0.12853 0.207068 -8.01686e-24)
(0.306879 0.396799 -1.34431e-21)
(0.45915 0.450784 1.57655e-22)
(0.568076 0.43601 -1.10887e-21)
(0.652866 0.389714 -6.94691e-22)
(0.717828 0.337212 2.36079e-22)
(0.770504 0.288451 -1.07605e-21)
(0.813807 0.24666 7.32832e-22)
(0.850199 0.211494 8.14143e-22)
(0.882075 0.181314 -6.45391e-22)
(0.114731 0.197502 -1.03764e-21)
(0.281337 0.376311 -1.10801e-22)
(0.431175 0.425499 1.41734e-21)
(0.541447 0.410125 1.1298e-21)
(0.629373 0.365637 0)
(0.697674 0.31586 -1.35413e-21)
(0.753388 0.26992 -5.08126e-23)
(0.799251 0.23068 -9.42736e-22)
(0.837774 0.197729 -5.71093e-22)
(0.871197 0.169585 5.14222e-22)
(0.10143 0.186337 2.42461e-21)
(0.25694 0.353201 0)
(0.404639 0.397672 -2.92838e-21)
(0.516332 0.3821 -9.87556e-22)
(0.607312 0.339866 -1.19159e-22)
(0.678803 0.293167 0)
(0.737394 0.250307 1.1187e-21)
(0.785673 0.213808 -9.09165e-22)
(0.826199 0.183216 -7.08947e-22)
(0.861089 0.157191 5.51847e-22)
(0.0887837 0.173648 -1.255e-21)
(0.233929 0.327617 -9.73876e-22)
(0.379765 0.367459 1.70036e-21)
(0.492908 0.352076 -1.58428e-22)
(0.586815 0.312514 0)
(0.661316 0.269221 0)
(0.722598 0.229684 0)
(0.773131 0.196101 1.84937e-21)
(0.81552 0.168002 7.08949e-22)
(0.851787 0.144176 -5.51846e-22)
(0.0769388 0.159528 -1.24563e-21)
(0.21253 0.299724 9.62653e-22)
(0.356758 0.335032 1.03651e-22)
(0.471341 0.320202 0)
(0.568005 0.283702 -1.03403e-21)
(0.645304 0.244119 -7.08934e-22)
(0.709072 0.208126 -8.01425e-23)
(0.761681 0.177624 1.43172e-22)
(0.805781 0.152139 -1.86183e-22)
(0.843323 0.130589 7.52435e-23)
(0.0660344 0.144082 1.40663e-21)
(0.192952 0.26971 -1.29935e-22)
(0.335809 0.300581 -1.08639e-21)
(0.451779 0.286643 2.49476e-22)
(0.550994 0.253561 7.70828e-22)
(0.630851 0.217965 1.00936e-21)
(0.69688 0.185717 -8.2708e-23)
(0.751373 0.158442 -4.71602e-22)
(0.797019 0.135685 0)
(0.835724 0.116483 7.16027e-23)
(0.0561978 0.127431 9.3908e-23)
(0.175386 0.23778 0)
(0.31709 0.264308 -3.12426e-23)
(0.434359 0.251571 0)
(0.535882 0.222228 -1.10038e-21)
(0.618035 0.190865 8.51058e-22)
(0.68608 0.162544 0)
(0.742251 0.13863 1.10201e-23)
(0.789272 0.118699 0)
(0.829017 0.101912 0)
(0.0475436 0.109709 1.88563e-22)
(0.160003 0.204154 -1.22992e-21)
(0.300754 0.226431 1.0162e-21)
(0.4192 0.215169 -1.79322e-22)
(0.522761 0.189848 4.75134e-22)
(0.606921 0.162936 1.31177e-22)
(0.676724 0.138699 0)
(0.734355 0.118262 -3.84518e-22)
(0.78257 0.101246 -1.03785e-22)
(0.823225 0.0869338 -3.09221e-22)
(0.0401725 0.0910608 8.09729e-22)
(0.14695 0.16907 -1.81679e-21)
(0.286934 0.187175 1.74023e-22)
(0.406406 0.177627 -7.45195e-22)
(0.511706 0.156572 -8.49944e-23)
(0.597568 0.134296 -8.69716e-22)
(0.668858 0.114278 0)
(0.727721 0.0974188 5.24954e-22)
(0.776942 0.0833927 -9.67894e-23)
(0.818368 0.0716077 7.04065e-22)
(0.0341702 0.0716411 -8.09729e-22)
(0.136354 0.132775 6.65111e-22)
(0.275741 0.146779 -1.19549e-22)
(0.396064 0.139142 8.76872e-22)
(0.502783 0.122555 4.99033e-22)
(0.590027 0.105068 5.35512e-23)
(0.662519 0.0893818 -4.49728e-23)
(0.722378 0.0761824 -5.88393e-22)
(0.772411 0.0652082 4.43461e-24)
(0.814461 0.0559948 -2.3412e-22)
(0.0296064 0.0516126 4.18655e-22)
(0.128317 0.0955264 0)
(0.267267 0.105487 4.91975e-22)
(0.388246 0.099919 0)
(0.496044 0.0879567 7.04612e-23)
(0.584336 0.0753799 -5.90976e-23)
(0.657738 0.0641126 0)
(0.71835 0.0546378 0)
(0.768996 0.046764 0)
(0.811519 0.0401574 0)
(0.0265342 0.0311446 -3.67637e-22)
(0.122916 0.057592 -1.33493e-22)
(0.261579 0.0635513 -4.91975e-22)
(0.383004 0.0601648 0)
(0.49153 0.0529416 0)
(0.580525 0.0453608 2.72766e-23)
(0.654537 0.0385752 -1.1041e-22)
(0.715655 0.0328717 -1.34504e-22)
(0.766711 0.0281333 -1.28503e-22)
(0.809552 0.0241591 2.09366e-23)
(0.0249891 0.0104112 -6.614e-24)
(0.120202 0.0192435 1.44749e-22)
(0.258724 0.021227 -7.02075e-24)
(0.380375 0.0200905 2.40681e-23)
(0.489266 0.0176752 -9.67813e-24)
(0.578615 0.0151425 0)
(0.652933 0.0128764 8.75028e-23)
(0.714304 0.0109721 1.34504e-22)
(0.765566 0.00939029 9.74108e-23)
(0.808567 0.00806381 1.48873e-23)
(0.0249891 -0.0104112 -6.614e-24)
(0.120202 -0.0192435 1.44749e-22)
(0.258724 -0.021227 -7.02076e-24)
(0.380375 -0.0200905 2.40681e-23)
(0.489266 -0.0176752 -9.67813e-24)
(0.578615 -0.0151425 0)
(0.652933 -0.0128764 7.69915e-23)
(0.714304 -0.0109721 1.43343e-22)
(0.765566 -0.00939029 1.03644e-22)
(0.808567 -0.00806381 0)
(0.0265342 -0.0311446 -4.69673e-22)
(0.122916 -0.057592 -1.74979e-22)
(0.261579 -0.0635513 -5.21739e-22)
(0.383004 -0.0601648 2.49085e-23)
(0.49153 -0.0529416 0)
(0.580525 -0.0453608 -2.72766e-23)
(0.654537 -0.0385752 -6.45957e-23)
(0.715655 -0.0328717 -1.34504e-22)
(0.766711 -0.0281333 -7.87853e-23)
(0.809552 -0.0241591 -2.09366e-23)
(0.0296064 -0.0516126 4.18655e-22)
(0.128317 -0.0955264 0)
(0.267267 -0.105487 4.91975e-22)
(0.388246 -0.099919 0)
(0.496044 -0.0879567 7.04612e-23)
(0.584336 -0.0753799 -5.90976e-23)
(0.657738 -0.0641126 0)
(0.71835 -0.0546378 0)
(0.768996 -0.046764 0)
(0.811519 -0.0401574 0)
(0.0341702 -0.0716411 -8.09729e-22)
(0.136354 -0.132775 5.18118e-22)
(0.275741 -0.146779 1.19549e-22)
(0.396064 -0.139142 5.99675e-22)
(0.502783 -0.122555 6.49804e-22)
(0.590027 -0.105068 -5.35512e-23)
(0.662519 -0.0893818 4.49728e-23)
(0.722378 -0.0761824 -4.61516e-22)
(0.772411 -0.0652082 -4.43461e-24)
(0.814461 -0.0559948 -3.92531e-22)
(0.0401725 -0.0910608 8.09729e-22)
(0.14695 -0.16907 6.33561e-22)
(0.286934 -0.187175 -1.74023e-22)
(0.406406 -0.177627 -7.31351e-22)
(0.511706 -0.156572 6.30826e-23)
(0.597568 -0.134296 -8.69716e-22)
(0.668858 -0.114278 0)
(0.727721 -0.0974188 5.24954e-22)
(0.776942 -0.0833927 9.67894e-23)
(0.818368 -0.0716077 5.41028e-22)
(0.0475436 -0.109709 -1.88563e-22)
(0.160003 -0.204154 1.22992e-21)
(0.300754 -0.226431 7.94104e-22)
(0.4192 -0.215169 1.79322e-22)
(0.522761 -0.189848 5.98713e-22)
(0.606921 -0.162936 -1.97406e-22)
(0.676724 -0.138699 8.6952e-23)
(0.734355 -0.118262 -6.31039e-22)
(0.78257 -0.101246 1.03785e-22)
(0.823225 -0.0869338 -3.09221e-22)
(0.0561978 -0.127431 -9.3908e-23)
(0.175386 -0.23778 0)
(0.31709 -0.264308 -3.12426e-23)
(0.434359 -0.251571 0)
(0.535882 -0.222228 -1.10038e-21)
(0.618035 -0.190865 8.51058e-22)
(0.68608 -0.162544 0)
(0.742251 -0.13863 1.10201e-23)
(0.789272 -0.118699 0)
(0.829017 -0.101912 0)
(0.0660344 -0.144082 1.40663e-21)
(0.192952 -0.26971 1.29935e-22)
(0.335809 -0.300581 -7.65245e-22)
(0.451779 -0.286643 -1.62594e-22)
(0.550994 -0.253561 1.29723e-21)
(0.630851 -0.217965 5.99368e-22)
(0.69688 -0.185717 8.2708e-23)
(0.751373 -0.158442 -5.89728e-22)
(0.797019 -0.135685 9.94618e-23)
(0.835724 -0.116483 -7.16027e-23)
(0.0769388 -0.159528 -1.56763e-21)
(0.21253 -0.299724 9.85103e-22)
(0.356758 -0.335032 9.52813e-23)
(0.471341 -0.320202 -1.66478e-22)
(0.568005 -0.283702 -1.03403e-21)
(0.645304 -0.244119 -8.99793e-22)
(0.709072 -0.208126 8.01425e-23)
(0.761681 -0.177624 -8.68633e-23)
(0.805781 -0.152139 1.86183e-22)
(0.843323 -0.130589 -7.52435e-23)
(0.0887837 -0.173648 -1.255e-21)
(0.233929 -0.327617 -9.73876e-22)
(0.379765 -0.367459 1.32173e-21)
(0.492908 -0.352076 1.58428e-22)
(0.586815 -0.312514 0)
(0.661316 -0.269221 0)
(0.722598 -0.229684 0)
(0.773131 -0.196101 1.84937e-21)
(0.81552 -0.168002 7.08949e-22)
(0.851787 -0.144176 -5.51846e-22)
(0.10143 -0.186337 2.42461e-21)
(0.25694 -0.353201 0)
(0.404639 -0.397672 -2.92838e-21)
(0.516332 -0.3821 -1.1298e-21)
(0.607312 -0.339866 0)
(0.678803 -0.293167 0)
(0.737394 -0.250307 1.1187e-21)
(0.785673 -0.213808 -9.09165e-22)
(0.826199 -0.183216 -7.08947e-22)
(0.861089 -0.157191 5.51847e-22)
(0.114731 -0.197502 -1.30159e-21)
(0.281337 -0.376311 1.10801e-22)
(0.431175 -0.425499 1.41734e-21)
(0.541447 -0.410125 1.26405e-21)
(0.629373 -0.365637 -1.12467e-22)
(0.697674 -0.31586 -1.35413e-21)
(0.753388 -0.26992 -5.08126e-23)
(0.799251 -0.23068 -7.35336e-22)
(0.837774 -0.197729 -7.45723e-22)
(0.871197 -0.169585 5.14222e-22)
(0.12853 -0.207068 8.01686e-24)
(0.306879 -0.396799 -1.51825e-21)
(0.45915 -0.450784 -1.57655e-22)
(0.568076 -0.43601 -8.57396e-22)
(0.652866 -0.389714 -7.03444e-22)
(0.717828 -0.337212 -2.53495e-22)
(0.770504 -0.288451 -1.05971e-21)
(0.813807 -0.24666 9.45234e-22)
(0.850199 -0.211494 5.02669e-22)
(0.882075 -0.181314 -3.83053e-22)
(0.142664 -0.214977 0)
(0.333311 -0.414544 1.25996e-21)
(0.488328 -0.473387 1.43267e-22)
(0.596031 -0.45963 7.93621e-23)
(0.677648 -0.411994 8.00017e-22)
(0.739159 -0.357141 1.12712e-21)
(0.78866 -0.305836 -9.49463e-22)
(0.829278 -0.261696 1.00748e-22)
(0.863425 -0.224467 0)