/*--------------------------------*- C++ -*----------------------------------*\
  =========                 |
  \\      /  F ield         | OpenFOAM: The Open Source CFD Toolbox
   \\    /   O peration     | Website:  https://openfoam.org
    \\  /    A nd           | Version:  9
     \\/     M anipulation  |
\*---------------------------------------------------------------------------*/
FoamFile
{
    format      ascii;
    class       surfaceScalarField;
    location    "3";
    object      phi;
}
// * * * * * * * * * * * * * * * * * * * * * * * * * * * * * * * * * * * * * //

dimensions      [0 3 -1 0 0 0 0];

internalField   nonuniform List<scalar> 
16735
(
-0.0020138
0.0020138
-3.72507e-10
-0.00552187
0.00350806
-9.10545e-10
-0.00940939
0.00388753
-1.27549e-09
-0.0126663
0.00325693
-1.47804e-09
-0.0144146
0.00174824
-1.5411e-09
-0.0136742
-0.000740357
-1.43937e-09
-0.00931845
-0.00435575
-1.1816e-09
4.06717e-05
-0.00935912
-7.55685e-10
0.0156838
-0.0156431
-1.75588e-10
-0.0237397
5.0608e-10
0.0394235
-0.00196509
0.0039789
-0.0053587
0.00690166
-0.00906422
0.00759305
-0.0120644
0.0062571
-0.0134688
0.00315268
-0.0122845
-0.0019247
-0.00736963
-0.00927061
0.00270754
-0.0194363
0.0191025
-0.032038
-0.048375
0.0437377
-0.00186901
0.00584791
-0.00503631
0.010069
-0.00838188
0.0109386
-0.0108745
0.00874969
-0.0116001
0.00387832
-0.00954047
-0.00398434
-0.00352302
-0.0152881
0.0078709
-0.0308302
0.0258237
-0.0499908
-0.0747528
0.0522015
-0.00172814
0.00757605
-0.00456238
0.0129032
-0.00737789
0.0137541
-0.00912364
0.0104954
-0.00885257
0.00360725
-0.00551179
-0.00732512
0.00211031
-0.0229102
0.0154081
-0.044128
0.0356272
-0.0702099
-0.103624
0.0644986
-0.00154617
0.00912222
-0.00394788
0.0153049
-0.0060745
0.0158808
-0.00685056
0.0112715
-0.00528889
0.00204558
-0.000306223
-0.0123078
0.00935082
-0.0325672
0.0251068
-0.059884
0.0481998
-0.0933029
-0.135607
0.0801827
-0.00132767
0.0104499
-0.00320645
0.0171837
-0.00449941
0.0171737
-0.00410346
0.0108755
-0.000984841
-0.00107304
0.00598569
-0.0192783
0.0180658
-0.0446473
0.0367019
-0.0785201
0.0631539
-0.119755
-0.17116
0.0987065
-0.00107784
0.0115277
-0.0023537
0.0184596
-0.00268442
0.0175044
-0.000937667
0.00912879
0.00396507
-0.00597577
0.0131977
-0.028511
0.0280343
-0.0594839
0.0498883
-0.100374
0.0800497
-0.149916
-0.210563
0.119453
-0.000802232
0.01233
-0.00140633
0.0190637
-0.000663788
0.0167619
0.00258633
0.00587867
0.00946818
-0.0128576
0.0211892
-0.040232
0.0390314
-0.0773261
0.0643393
-0.125682
0.0984174
-0.183994
-0.253916
0.14177
-0.000506605
0.0128366
-0.000380844
0.0189379
0.00152751
0.0148535
0.00640803
0.000998155
0.0154245
-0.021874
0.029807
-0.0546145
0.0508279
-0.098347
0.079722
-0.154576
0.11778
-0.222052
-0.301135
0.164999
-0.000197025
0.0130336
0.000703087
0.0180378
0.00385495
0.0117017
0.0104667
-0.00561361
0.0217357
-0.0331431
0.0388998
-0.0717786
0.0631976
-0.122645
0.0957093
-0.187088
0.137671
-0.264014
-0.351966
0.188502
0.000128412
0.0129052
0.00183495
0.0163312
0.00628641
0.00725021
0.0147051
-0.0140323
0.0283086
-0.0467465
0.0483229
-0.091793
0.0759239
-0.150246
0.11199
-0.223154
0.157649
-0.309673
-0.406001
0.211684
0.000454475
0.0124507
0.00299821
0.0137875
0.00879261
0.00145581
0.0190706
-0.0243102
0.0350564
-0.0627324
0.0579412
-0.114678
0.0888036
-0.181108
0.128274
-0.262624
0.177307
-0.358706
-0.462698
0.234003
0.000784353
0.0116663
0.00418172
0.0103901
0.011348
-0.00571048
0.0235166
-0.0364788
0.0419012
-0.081117
0.0676311
-0.140408
0.101649
-0.215126
0.144294
-0.305269
0.196276
-0.410689
-0.521403
0.254981
0.00111476
0.0105516
0.00537627
0.00612864
0.0139312
-0.0142655
0.0280025
-0.05055
0.0487729
-0.101887
0.07728
-0.168915
0.114287
-0.252133
0.159807
-0.350788
0.214226
-0.465108
-0.581384
0.274208
0.001444
0.00910758
0.00657477
0.000997871
0.0165248
-0.0242155
0.0324934
-0.0665186
0.0556094
-0.125003
0.0867853
-0.200091
0.126559
-0.291907
0.174592
-0.398821
0.230866
-0.521382
-0.641863
0.291345
0.00177123
0.00733635
0.00777219
-0.00500309
0.0191146
-0.0355579
0.0369593
-0.0843632
0.0623545
-0.150399
0.0960517
-0.233788
0.138316
-0.334172
0.188449
-0.448954
0.245942
-0.578875
-0.702057
0.306136
0.00209631
0.00524004
0.00896516
-0.0118719
0.0216894
-0.0482822
0.0413735
-0.104047
0.0689557
-0.177981
0.104988
-0.269821
0.149419
-0.378602
0.201196
-0.500731
0.25923
-0.636908
-0.761251
0.318423
0.00241957
0.00282047
0.0101515
-0.0196038
0.0242395
-0.0623702
0.0457111
-0.125519
0.0753622
-0.207632
0.113507
-0.307966
0.159736
-0.424831
0.212677
-0.553672
0.270539
-0.694771
-0.818883
0.328172
0.00274164
7.88351e-05
0.0113296
-0.0281918
0.0267559
-0.0777965
0.0499474
-0.14871
0.0815224
-0.239207
0.121518
-0.347961
0.169145
-0.472458
0.222763
-0.607291
0.27974
-0.751747
-0.874672
0.335529
0.00306326
-0.00298442
0.0124979
-0.0376265
0.0292292
-0.0945278
0.0540561
-0.173537
0.0873822
-0.272533
0.128931
-0.38951
0.177523
-0.521051
0.231318
-0.661085
0.286879
-0.807308
-0.929016
0.341222
0.00338506
-0.00636948
0.0136546
-0.047896
0.0316487
-0.112522
0.0580087
-0.199897
0.0928849
-0.307409
0.135653
-0.432278
0.184745
-0.570143
0.238094
-0.714434
0.292234
-0.861448
-0.9921
0.355319
0.00370742
-0.0100769
0.0147968
-0.0589854
0.0340018
-0.131727
0.0617734
-0.227669
0.0979713
-0.343607
0.141596
-0.475903
0.1907
-0.619246
0.242976
-0.76671
0.294944
-0.913416
-1.04804
0.35088
0.00403027
-0.0141072
0.0159202
-0.0708753
0.0362733
-0.15208
0.0653154
-0.256711
0.102581
-0.380873
0.14668
-0.520002
0.19531
-0.667876
0.245934
-0.817335
0.295194
-0.962677
-1.09788
0.345042
0.00435308
-0.0184602
0.0170194
-0.0835417
0.0384455
-0.173506
0.0685973
-0.286863
0.106655
-0.41893
0.150834
-0.564181
0.198525
-0.715567
0.247029
-0.865839
0.293305
-1.00895
-1.14249
0.337909
0.0046747
-0.0231349
0.0180871
-0.0969541
0.0404981
-0.195917
0.0715795
-0.317944
0.110135
-0.457486
0.154001
-0.608046
0.200323
-0.76189
0.246334
-0.911849
0.289402
-1.05202
-1.18247
0.329382
0.00499341
-0.0281284
0.0191147
-0.111075
0.0424089
-0.219211
0.074222
-0.349757
0.11297
-0.496235
0.156137
-0.651213
0.200702
-0.806454
0.243929
-0.955076
0.283641
-1.09173
-1.21827
0.319446
0.00530692
-0.0334353
0.020092
-0.12586
0.0441537
-0.243273
0.0764853
-0.382089
0.115114
-0.534864
0.157216
-0.693314
0.199682
-0.848921
0.239911
-0.995304
0.27619
-1.12801
-1.25024
0.30816
0.0056124
-0.0390477
0.0210077
-0.141256
0.0457081
-0.267973
0.0783321
-0.414713
0.11653
-0.573062
0.157225
-0.734009
0.197307
-0.889003
0.234389
-1.03239
0.267222
-1.16085
-1.27865
0.295631
0.00590659
-0.0449543
0.0218499
-0.157199
0.0470472
-0.293171
0.0797288
-0.447395
0.117191
-0.610524
0.156171
-0.772989
0.193636
-0.926469
0.227484
-1.06623
0.256907
-1.19027
-1.30373
0.281987
0.00618584
-0.0511401
0.022606
-0.173619
0.0481472
-0.318712
0.0806465
-0.479894
0.117081
-0.646958
0.154073
-0.809982
0.188744
-0.961139
0.219321
-1.09681
0.24541
-1.21636
-1.32568
0.267361
0.00644627
-0.0575864
0.0232633
-0.190436
0.0489862
-0.344435
0.0810626
-0.51197
0.116196
-0.682091
0.150968
-0.844755
0.182717
-0.992888
0.210029
-1.12412
0.232886
-1.23922
-1.34469
0.251888
0.00668382
-0.0642702
0.0238096
-0.207562
0.0495446
-0.37017
0.080961
-0.543387
0.114542
-0.715672
0.146903
-0.877116
0.175648
-1.02163
0.199736
-1.14821
0.219481
-1.25896
-1.3609
0.235693
0.00689443
-0.0711646
0.0242332
-0.224901
0.0498058
-0.395742
0.0803329
-0.573914
0.112137
-0.747475
0.141934
-0.906913
0.167636
-1.04734
0.188568
-1.16914
0.205328
-1.27572
-1.37446
0.218891
0.00707405
-0.0782387
0.0245235
-0.24235
0.049757
-0.420976
0.0791766
-0.603333
0.109007
-0.777305
0.136127
-0.934033
0.158781
-1.06999
0.176643
-1.187
0.190549
-1.28963
-1.3855
0.201586
0.00721882
-0.0854575
0.0246711
-0.259803
0.0493892
-0.445694
0.0774974
-0.631442
0.105186
-0.804994
0.129551
-0.958397
0.14918
-1.08962
0.164072
-1.2019
0.175251
-1.30081
-1.39412
0.183872
0.00732511
-0.0927826
0.0246682
-0.277146
0.0486975
-0.469723
0.0753073
-0.658051
0.100717
-0.830404
0.122279
-0.979959
0.13893
-1.10627
0.150958
-1.21392
0.15953
-1.30938
-1.40042
0.165829
0.00738964
-0.100172
0.0245087
-0.294265
0.0476812
-0.492895
0.0726242
-0.682994
0.0956454
-0.853426
0.114386
-0.998699
0.128121
-1.12001
0.137396
-1.2232
0.143473
-1.31545
-1.40447
0.14753
0.00740948
-0.107582
0.0241883
-0.311044
0.0463434
-0.515051
0.0694711
-0.706122
0.0900208
-0.873975
0.105945
-1.01462
0.116841
-1.1309
0.123471
-1.22983
0.127155
-1.31914
-1.40636
0.129038
0.00738218
-0.114964
0.0237045
-0.327366
0.0446912
-0.536037
0.0658755
-0.727306
0.0838958
-0.891996
0.0970278
-1.02776
0.10517
-1.13904
0.109259
-1.23392
0.110642
-1.32052
-1.40612
0.110409
0.00730578
-0.12227
0.0230568
-0.343117
0.0427349
-0.555715
0.0618681
-0.74644
0.0773239
-0.907451
0.0877047
-1.03814
0.0931818
-1.14452
0.0948294
-1.23556
0.093992
-1.31968
-1.40382
0.0916925
0.00717884
-0.129449
0.0222467
-0.358185
0.0404882
-0.573957
0.0574825
-0.763434
0.0703587
-0.920328
0.0780414
-1.04582
0.0809444
-1.14742
0.0802442
-1.23486
0.077258
-1.3167
-1.3995
0.0729332
0.00700047
-0.136449
0.0212771
-0.372462
0.0379672
-0.590647
0.0527541
-0.778221
0.0630531
-0.930627
0.0681005
-1.05087
0.0685204
-1.14784
0.0655581
-1.2319
0.060485
-1.31163
-1.39318
0.0541682
0.00677036
-0.143219
0.020153
-0.385844
0.0351904
-0.605684
0.0477195
-0.79075
0.0554588
-0.938366
0.0579405
-1.05335
0.0559664
-1.14587
0.0508205
-1.22676
0.043716
-1.30452
-1.3849
0.0354309
0.00648874
-0.149708
0.0188807
-0.398236
0.032178
-0.618982
0.0424156
-0.800987
0.0476256
-0.943576
0.0476158
-1.05334
0.0433341
-1.14159
0.0360767
-1.2195
0.0269898
-1.29543
-1.37465
0.0167459
0.00615641
-0.155865
0.017468
-0.409548
0.0289516
-0.630465
0.0368795
-0.808915
0.039601
-0.946298
0.0371768
-1.05091
0.0306697
-1.13508
0.0213668
-1.2102
0.0103555
-1.28442
-1.36237
-0.00193091
0.00577469
-0.161639
0.0159238
-0.419697
0.0255339
-0.640075
0.0311475
-0.814529
0.0314302
-0.94658
0.0266703
-1.04615
0.0180155
-1.12643
0.00671088
-1.19889
-0.00616025
-1.27155
-1.34824
-0.0202858
0.00534542
-0.166985
0.0142581
-0.42861
0.021948
-0.647765
0.0252556
-0.817836
0.0231558
-0.94448
0.0161391
-1.03914
0.00541117
-1.1157
-0.0078187
-1.18566
-0.0225973
-1.25677
-1.33228
-0.0385627
0.00487091
-0.171856
0.0124817
-0.436221
0.0182177
-0.653501
0.0192381
-0.818857
0.0148175
-0.94006
0.00562129
-1.02994
-0.00710319
-1.10297
-0.0221948
-1.17057
-0.0388413
-1.24013
-1.31445
-0.0566661
0.0043539
-0.176209
0.0106059
-0.442473
0.0143664
-0.657262
0.0131282
-0.817619
0.00645292
-0.933385
-0.00484363
-1.01864
-0.019497
-1.08832
-0.0364177
-1.15365
-0.054886
-1.22166
-1.29477
-0.0745626
0.00379753
-0.180007
0.00864263
-0.447318
0.0104177
-0.659037
0.00695786
-0.814159
-0.00190309
-0.924524
-0.0152204
-1.00533
-0.0317423
-1.0718
-0.0504486
-1.13494
-0.0707082
-1.2014
-1.27326
-0.0922247
0.00320531
-0.183212
0.00660395
-0.450716
0.00639513
-0.658828
0.000764265
-0.808528
-0.0102185
-0.913541
-0.0254843
-0.990061
-0.04381
-1.05347
-0.0642583
-1.11449
-0.0862826
-1.17937
-1.24991
-0.109626
0.0025812
-0.185793
0.00450484
-0.45264
0.00232555
-0.656649
-0.00544664
-0.800756
-0.0184648
-0.900523
-0.0356049
-0.972921
-0.0556734
-1.0334
-0.07782
-1.09235
-0.101583
-1.15561
-1.22476
-0.126742
0.0019299
-0.187723
0.00236074
-0.453071
-0.0017843
-0.652503
-0.0116277
-0.790912
-0.0266137
-0.885537
-0.045556
-0.953979
-0.0673076
-1.01165
-0.091108
-1.06855
-0.116583
-1.13014
-1.19779
-0.143546
0.00125781
-0.188981
0.000213871
-0.452027
-0.00591597
-0.646374
-0.0177607
-0.779068
-0.0346398
-0.868658
-0.0553136
-0.933305
-0.0786892
-0.988277
-0.104097
-1.04314
-0.131255
-1.10298
-1.16904
-0.160012
0.000557728
-0.189539
-0.00202068
-0.449448
-0.0100311
-0.638363
-0.0238218
-0.765277
-0.0425199
-0.84996
-0.0648556
-0.910969
-0.0897963
-0.963337
-0.116763
-1.01617
-0.145571
-1.07417
-1.13849
-0.176115
-0.000174889
-0.189364
-0.00424974
-0.445374
-0.0141173
-0.628496
-0.0297898
-0.749604
-0.0502327
-0.829517
-0.0741618
-0.88704
-0.100609
-0.936889
-0.129081
-0.987701
-0.159502
-1.04375
-1.10617
-0.191823
-0.000890669
-0.188473
-0.00647518
-0.439789
-0.0181583
-0.616813
-0.0356445
-0.732118
-0.0577584
-0.807403
-0.0832138
-0.861585
-0.111108
-0.908995
-0.141031
-0.957778
-0.173019
-1.01176
-1.07208
-0.20711
-0.00162061
-0.186853
-0.00868894
-0.432721
-0.0221379
-0.603364
-0.0413677
-0.712888
-0.0650792
-0.783691
-0.0919947
-0.834669
-0.121277
-0.879713
-0.152592
-0.926463
-0.186096
-0.978258
-1.03623
-0.221943
-0.00235439
-0.184498
-0.0108808
-0.424194
-0.0260409
-0.588203
-0.0469423
-0.691987
-0.0721788
-0.758455
-0.100489
-0.806359
-0.131099
-0.849103
-0.163748
-0.893814
-0.198691
-0.943314
-0.998705
-0.236218
-0.00308693
-0.181411
-0.0130407
-0.414241
-0.0298531
-0.571391
-0.052353
-0.669487
-0.0790422
-0.731766
-0.108683
-0.776718
-0.140563
-0.817223
-0.174479
-0.859898
-0.21075
-0.907044
-0.959515
-0.24994
-0.00381382
-0.177598
-0.0151588
-0.402896
-0.0335611
-0.552989
-0.0575852
-0.645463
-0.0856558
-0.703695
-0.116564
-0.74581
-0.149659
-0.784128
-0.184777
-0.82478
-0.22187
-0.869951
-0.920404
-0.260981
-0.00453087
-0.173067
-0.0172259
-0.390201
-0.0371524
-0.533062
-0.0626261
-0.619989
-0.0920071
-0.674314
-0.12412
-0.713697
-0.158377
-0.749871
-0.194655
-0.788502
-0.232984
-0.831623
-0.87997
-0.273418
-0.00523412
-0.167833
-0.0192331
-0.376202
-0.0406154
-0.51168
-0.0674635
-0.593141
-0.0980847
-0.643693
-0.131341
-0.68044
-0.166705
-0.714508
-0.204091
-0.751115
-0.243582
-0.792132
-0.838229
-0.285323
-0.00591976
-0.161913
-0.0211722
-0.360949
-0.0439393
-0.488913
-0.0720865
-0.564994
-0.103878
-0.611901
-0.138217
-0.646102
-0.174631
-0.678093
-0.213073
-0.712673
-0.253659
-0.751546
-0.795284
-0.296605
-0.00658418
-0.155329
-0.0230356
-0.344498
-0.0471145
-0.464834
-0.0764849
-0.535624
-0.109378
-0.579008
-0.144737
-0.610743
-0.182146
-0.640685
-0.221592
-0.673227
-0.263219
-0.709919
-0.75122
-0.307283
-0.00722397
-0.148105
-0.024816
-0.326906
-0.0501317
-0.439518
-0.0806498
-0.505106
-0.114575
-0.545083
-0.150894
-0.574425
-0.189241
-0.602337
-0.229638
-0.63283
-0.272255
-0.667302
-0.706108
-0.317368
-0.00783587
-0.140269
-0.0265066
-0.308235
-0.0529828
-0.413042
-0.0845726
-0.473516
-0.119462
-0.510194
-0.156679
-0.537207
-0.195909
-0.563107
-0.237204
-0.591535
-0.280757
-0.623749
-0.660007
-0.326857
-0.00841687
-0.131852
-0.0281015
-0.28855
-0.0556601
-0.385483
-0.0882458
-0.44093
-0.124031
-0.474409
-0.162086
-0.499152
-0.202142
-0.52305
-0.24428
-0.549397
-0.288714
-0.579314
-0.61298
-0.335742
-0.00896415
-0.122888
-0.0295949
-0.26792
-0.0581569
-0.356921
-0.0916623
-0.407425
-0.128275
-0.437796
-0.167106
-0.460321
-0.207931
-0.482226
-0.250856
-0.506472
-0.296115
-0.534054
-0.565084
-0.344011
-0.00947507
-0.113413
-0.0309815
-0.246413
-0.0604667
-0.327436
-0.0948158
-0.373076
-0.132188
-0.400423
-0.171734
-0.420775
-0.213268
-0.440692
-0.256923
-0.462817
-0.302949
-0.488028
-0.516381
-0.351653
-0.00994724
-0.103465
-0.0322568
-0.224103
-0.062584
-0.297109
-0.0977005
-0.337959
-0.135765
-0.362359
-0.175963
-0.380577
-0.218147
-0.398508
-0.262472
-0.418492
-0.309204
-0.441295
-0.466933
-0.358652
-0.0103785
-0.093087
-0.0334165
-0.201065
-0.0645037
-0.266022
-0.100311
-0.302152
-0.138999
-0.323672
-0.179786
-0.339789
-0.222559
-0.355736
-0.267493
-0.373558
-0.314869
-0.39392
-0.416806
-0.364996
-0.0107668
-0.0823202
-0.0344567
-0.177376
-0.0662212
-0.234257
-0.102644
-0.265729
-0.141886
-0.28443
-0.1832
-0.298475
-0.226499
-0.312436
-0.27198
-0.328078
-0.319933
-0.345967
-0.366069
-0.37067
-0.0111104
-0.0712098
-0.0353741
-0.153112
-0.0677326
-0.201899
-0.104693
-0.228768
-0.144421
-0.244702
-0.186197
-0.256699
-0.229961
-0.268672
-0.275923
-0.282116
-0.324386
-0.297504
-0.314791
-0.375663
-0.0114078
-0.059802
-0.0361659
-0.128354
-0.0690344
-0.169031
-0.106457
-0.191346
-0.146602
-0.204557
-0.188775
-0.214526
-0.232939
-0.224508
-0.279316
-0.235738
-0.32822
-0.2486
-0.263047
-0.379964
-0.0116577
-0.0481444
-0.0368295
-0.103182
-0.0701237
-0.135736
-0.107931
-0.153539
-0.148424
-0.164064
-0.190929
-0.17202
-0.235427
-0.18001
-0.282154
-0.189011
-0.331427
-0.199327
-0.210912
-0.383562
-0.0118589
-0.0362855
-0.0373628
-0.077678
-0.0709981
-0.102101
-0.109113
-0.115424
-0.149885
-0.123292
-0.192657
-0.129249
-0.237423
-0.135244
-0.28443
-0.142005
-0.334
-0.149757
-0.158461
-0.386451
-0.0120106
-0.0242749
-0.0377642
-0.0519244
-0.0716555
-0.0682097
-0.110002
-0.0770777
-0.150983
-0.0823109
-0.193954
-0.0862771
-0.238923
-0.0902751
-0.286141
-0.0947873
-0.335935
-0.0999627
-0.105773
-0.388623
-0.012112
-0.0121629
-0.0380325
-0.0260039
-0.0720946
-0.0341476
-0.110595
-0.0385774
-0.151715
-0.0411903
-0.194821
-0.043172
-0.239924
-0.0451713
-0.287283
-0.0474289
-0.337227
-0.0500188
-0.0529263
-0.390073
-0.0121629
-2.53961e-10
-0.0381668
-4.34682e-10
-0.0723144
-4.29106e-10
-0.110892
-3.31196e-10
-0.152082
-2.11269e-10
-0.195254
-1.11749e-10
-0.240425
-4.28008e-11
-0.287854
1.26843e-13
-0.337873
2.32362e-11
3.03853e-11
-0.390799
-0.0121629
0.0121629
-0.0381668
0.0260039
-0.0723144
0.0341476
-0.110892
0.0385774
-0.152082
0.0411903
-0.195254
0.043172
-0.240425
0.0451713
-0.287854
0.0474289
-0.337873
0.0500188
0.0529263
-0.390799
-0.012112
0.0242749
-0.0380325
0.0519244
-0.0720946
0.0682097
-0.110595
0.0770777
-0.151715
0.0823109
-0.194821
0.0862771
-0.239924
0.0902751
-0.287283
0.0947873
-0.337227
0.0999627
0.105773
-0.390073
-0.0120106
0.0362855
-0.0377642
0.077678
-0.0716555
0.102101
-0.110002
0.115424
-0.150983
0.123292
-0.193954
0.129249
-0.238923
0.135244
-0.286141
0.142005
-0.335935
0.149757
0.158461
-0.388623
-0.0118589
0.0481444
-0.0373628
0.103182
-0.0709981
0.135736
-0.109113
0.153539
-0.149885
0.164064
-0.192657
0.17202
-0.237423
0.18001
-0.28443
0.189011
-0.334
0.199327
0.210912
-0.386451
-0.0116577
0.059802
-0.0368295
0.128354
-0.0701237
0.169031
-0.107931
0.191346
-0.148424
0.204557
-0.190929
0.214526
-0.235427
0.224508
-0.282154
0.235738
-0.331427
0.2486
0.263047
-0.383562
-0.0114078
0.0712098
-0.0361659
0.153112
-0.0690344
0.201899
-0.106457
0.228768
-0.146602
0.244702
-0.188775
0.256699
-0.232939
0.268672
-0.279316
0.282116
-0.32822
0.297504
0.314791
-0.379964
-0.0111104
0.0823202
-0.0353741
0.177376
-0.0677326
0.234257
-0.104693
0.265729
-0.144421
0.28443
-0.186197
0.298475
-0.229961
0.312436
-0.275923
0.328078
-0.324386
0.345967
0.366069
-0.375663
-0.0107668
0.093087
-0.0344567
0.201065
-0.0662212
0.266022
-0.102644
0.302152
-0.141886
0.323672
-0.1832
0.339789
-0.226499
0.355736
-0.27198
0.373558
-0.319933
0.39392
0.416806
-0.37067
-0.0103785
0.103465
-0.0334165
0.224103
-0.0645037
0.297109
-0.100311
0.337959
-0.138999
0.362359
-0.179786
0.380577
-0.222559
0.398508
-0.267493
0.418492
-0.314869
0.441295
0.466933
-0.364996
-0.00994724
0.113413
-0.0322568
0.246413
-0.062584
0.327436
-0.0977005
0.373076
-0.135765
0.400423
-0.175963
0.420775
-0.218147
0.440692
-0.262472
0.462817
-0.309204
0.488028
0.516381
-0.358652
-0.00947507
0.122888
-0.0309815
0.26792
-0.0604667
0.356921
-0.0948158
0.407425
-0.132188
0.437796
-0.171734
0.460321
-0.213268
0.482226
-0.256923
0.506472
-0.302949
0.534054
0.565084
-0.351653
-0.00896415
0.131852
-0.0295949
0.28855
-0.0581569
0.385483
-0.0916623
0.44093
-0.128275
0.474409
-0.167106
0.499152
-0.207931
0.52305
-0.250856
0.549397
-0.296115
0.579314
0.61298
-0.344011
-0.00841687
0.140269
-0.0281015
0.308235
-0.0556601
0.413042
-0.0882458
0.473516
-0.124031
0.510194
-0.162086
0.537207
-0.202142
0.563107
-0.24428
0.591535
-0.288714
0.623749
0.660007
-0.335742
-0.00783587
0.148105
-0.0265066
0.326906
-0.0529828
0.439518
-0.0845726
0.505106
-0.119462
0.545083
-0.156679
0.574425
-0.195909
0.602337
-0.237204
0.63283
-0.280757
0.667302
0.706108
-0.326857
-0.00722397
0.155329
-0.024816
0.344498
-0.0501317
0.464834
-0.0806498
0.535624
-0.114575
0.579008
-0.150894
0.610743
-0.189241
0.640685
-0.229638
0.673227
-0.272255
0.709919
0.75122
-0.317368
-0.00658418
0.161913
-0.0230356
0.360949
-0.0471145
0.488913
-0.0764849
0.564994
-0.109378
0.611901
-0.144737
0.646102
-0.182146
0.678093
-0.221592
0.712673
-0.263219
0.751546
0.795284
-0.307283
-0.00591976
0.167833
-0.0211722
0.376202
-0.0439393
0.51168
-0.0720865
0.593141
-0.103878
0.643693
-0.138217
0.68044
-0.174631
0.714508
-0.213073
0.751115
-0.253659
0.792132
0.838229
-0.296605
-0.00523412
0.173067
-0.0192331
0.390201
-0.0406154
0.533062
-0.0674635
0.619989
-0.0980847
0.674314
-0.131341
0.713697
-0.166705
0.749871
-0.204091
0.788502
-0.243582
0.831623
0.87997
-0.285323
-0.00453087
0.177598
-0.0172259
0.402896
-0.0371524
0.552989
-0.0626261
0.645463
-0.0920071
0.703695
-0.12412
0.74581
-0.158377
0.784128
-0.194655
0.82478
-0.232984
0.869951
0.920404
-0.273418
-0.00381382
0.181411
-0.0151588
0.414241
-0.0335611
0.571391
-0.0575852
0.669487
-0.0856558
0.731766
-0.116564
0.776718
-0.149659
0.817223
-0.184777
0.859898
-0.22187
0.907044
0.959515
-0.260981
-0.00308693
0.184498
-0.0130407
0.424194
-0.0298531
0.588203
-0.052353
0.691987
-0.0790422
0.758455
-0.108683
0.806359
-0.140563
0.849103
-0.174479
0.893814
-0.21075
0.943314
0.998705
-0.24994
-0.00235439
0.186853
-0.0108808
0.432721
-0.0260409
0.603364
-0.0469423
0.712888
-0.0721788
0.783691
-0.100489
0.834669
-0.131099
0.879713
-0.163748
0.926463
-0.198691
0.978258
1.03623
-0.236218
-0.00162061
0.188473
-0.00868894
0.439789
-0.0221379
0.616813
-0.0413677
0.732118
-0.0650792
0.807403
-0.0919947
0.861585
-0.121277
0.908995
-0.152592
0.957778
-0.186096
1.01176
1.07208
-0.221943
-0.000890669
0.189364
-0.00647518
0.445374
-0.0181583
0.628496
-0.0356445
0.749604
-0.0577584
0.829517
-0.0832138
0.88704
-0.111108
0.936889
-0.141031
0.987701
-0.173019
1.04375
1.10617
-0.20711
-0.000174889
0.189539
-0.00424974
0.449448
-0.0141173
0.638363
-0.0297898
0.765277
-0.0502327
0.84996
-0.0741618
0.910969
-0.100609
0.963337
-0.129081
1.01617
-0.159502
1.07417
1.13849
-0.191823
0.000557728
0.188981
-0.00202068
0.452027
-0.0100311
0.646374
-0.0238218
0.779068
-0.0425199
0.868658
-0.0648556
0.933305
-0.0897963
0.988277
-0.116763
1.04314
-0.145571
1.10298
1.16904
-0.176115
0.00125781
0.187723
0.000213871
0.453071
-0.00591597
0.652503
-0.0177607
0.790912
-0.0346398
0.885537
-0.0553136
0.953979
-0.0786892
1.01165
-0.104097
1.06855
-0.131255
1.13014
1.19779
-0.160012
0.0019299
0.185793
0.00236074
0.45264
-0.0017843
0.656649
-0.0116277
0.800756
-0.0266137
0.900523
-0.045556
0.972921
-0.0673076
1.0334
-0.091108
1.09235
-0.116583
1.15561
1.22476
-0.143546
0.0025812
0.183212
0.00450484
0.450716
0.00232555
0.658828
-0.00544664
0.808528
-0.0184648
0.913541
-0.0356049
0.990061
-0.0556734
1.05347
-0.07782
1.11449
-0.101583
1.17937
1.24991
-0.126742
0.00320531
0.180007
0.00660395
0.447318
0.00639513
0.659037
0.000764265
0.814159
-0.0102185
0.924524
-0.0254843
1.00533
-0.04381
1.0718
-0.0642583
1.13494
-0.0862826
1.2014
1.27326
-0.109626
0.00379753
0.176209
0.00864263
0.442473
0.0104177
0.657262
0.00695786
0.817619
-0.00190309
0.933385
-0.0152204
1.01864
-0.0317423
1.08832
-0.0504486
1.15365
-0.0707082
1.22166
1.29477
-0.0922247
0.0043539
0.171856
0.0106059
0.436221
0.0143664
0.653501
0.0131282
0.818857
0.00645292
0.94006
-0.00484363
1.02994
-0.019497
1.10297
-0.0364177
1.17057
-0.054886
1.24013
1.31445
-0.0745626
0.00487091
0.166985
0.0124817
0.42861
0.0182177
0.647765
0.0192381
0.817836
0.0148175
0.94448
0.00562129
1.03914
-0.00710319
1.1157
-0.0221948
1.18566
-0.0388413
1.25677
1.33228
-0.0566661
0.00534542
0.161639
0.0142581
0.419697
0.021948
0.640075
0.0252556
0.814529
0.0231558
0.94658
0.0161391
1.04615
0.00541117
1.12643
-0.0078187
1.19889
-0.0225973
1.27155
1.34824
-0.0385627
0.00577469
0.155865
0.0159238
0.409548
0.0255339
0.630465
0.0311475
0.808915
0.0314302
0.946298
0.0266703
1.05091
0.0180155
1.13508
0.00671088
1.2102
-0.00616025
1.28442
1.36237
-0.0202858
0.00615641
0.149708
0.017468
0.398236
0.0289516
0.618982
0.0368795
0.800987
0.039601
0.943576
0.0371768
1.05334
0.0306697
1.14159
0.0213668
1.2195
0.0103555
1.29543
1.37465
-0.00193091
0.00648874
0.143219
0.0188807
0.385844
0.032178
0.605684
0.0424156
0.79075
0.0476256
0.938366
0.0476158
1.05335
0.0433341
1.14587
0.0360767
1.22676
0.0269898
1.30452
1.3849
0.0167459
0.00677036
0.136449
0.020153
0.372462
0.0351904
0.590647
0.0477195
0.778221
0.0554588
0.930627
0.0579405
1.05087
0.0559664
1.14784
0.0508205
1.2319
0.043716
1.31163
1.39318
0.0354309
0.00700047
0.129449
0.0212771
0.358185
0.0379672
0.573957
0.0527541
0.763434
0.0630531
0.920328
0.0681005
1.04582
0.0685204
1.14742
0.0655581
1.23486
0.0604849
1.3167
1.3995
0.0541682
0.00717884
0.12227
0.0222467
0.343117
0.0404882
0.555715
0.0574825
0.74644
0.0703587
0.907451
0.0780414
1.03814
0.0809444
1.14452
0.0802442
1.23556
0.077258
1.31968
1.40382
0.0729332
0.00730578
0.114964
0.0230568
0.327366
0.0427349
0.536037
0.0618681
0.727306
0.0773239
0.891996
0.0877047
1.02776
0.0931818
1.13904
0.0948294
1.23392
0.093992
1.32052
1.40612
0.0916925
0.00738218
0.107582
0.0237045
0.311044
0.0446912
0.515051
0.0658755
0.706122
0.0838958
0.873975
0.0970278
1.01462
0.10517
1.1309
0.109259
1.22983
0.110642
1.31914
1.40636
0.110409
0.00740948
0.100172
0.0241883
0.294265
0.0463434
0.492895
0.0694711
0.682994
0.0900208
0.853426
0.105945
0.998699
0.116841
1.12001
0.123471
1.2232
0.127155
1.31545
1.40447
0.129038
0.00738964
0.0927826
0.0245087
0.277146
0.0476812
0.469723
0.0726242
0.658051
0.0956454
0.830404
0.114386
0.979959
0.128121
1.10627
0.137396
1.21392
0.143473
1.30938
1.40042
0.14753
0.00732511
0.0854575
0.0246682
0.259803
0.0486975
0.445694
0.0753073
0.631442
0.100717
0.804994
0.122279
0.958397
0.13893
1.08962
0.150958
1.2019
0.15953
1.30081
1.39412
0.165829
0.00721882
0.0782387
0.0246711
0.24235
0.0493892
0.420976
0.0774974
0.603333
0.105186
0.777305
0.129551
0.934033
0.14918
1.06999
0.164072
1.187
0.175251
1.28963
1.3855
0.183872
0.00707405
0.0711646
0.0245235
0.224901
0.049757
0.395742
0.0791766
0.573914
0.109007
0.747475
0.136127
0.906913
0.158781
1.04734
0.176643
1.16914
0.190549
1.27572
1.37446
0.201586
0.00689443
0.0642702
0.0242332
0.207562
0.0498058
0.37017
0.0803329
0.543387
0.112137
0.715672
0.141934
0.877116
0.167636
1.02163
0.188568
1.14821
0.205328
1.25896
1.3609
0.218891
0.00668382
0.0575864
0.0238096
0.190436
0.0495446
0.344435
0.080961
0.51197
0.114542
0.682091
0.146903
0.844755
0.175648
0.992888
0.199736
1.12412
0.219481
1.23922
1.34469
0.235693
0.00644627
0.0511401
0.0232633
0.173619
0.0489862
0.318712
0.0810626
0.479894
0.116196
0.646958
0.150968
0.809982
0.182717
0.961139
0.210029
1.09681
0.232886
1.21636
1.32568
0.251888
0.00618584
0.0449543
0.022606
0.157199
0.0481472
0.293171
0.0806465
0.447395
0.117081
0.610524
0.154073
0.772989
0.188744
0.926469
0.219321
1.06623
0.24541
1.19027
1.30373
0.267361
0.00590659
0.0390477
0.0218499
0.141256
0.0470472
0.267973
0.0797288
0.414713
0.117191
0.573062
0.156171
0.734009
0.193636
0.889003
0.227484
1.03239
0.256907
1.16085
1.27865
0.281987
0.0056124
0.0334353
0.0210077
0.12586
0.0457081
0.243273
0.0783321
0.382089
0.11653
0.534864
0.157225
0.693314
0.197307
0.848921
0.234389
0.995304
0.267222
1.12801
1.25024
0.295631
0.00530692
0.0281284
0.020092
0.111075
0.0441537
0.219211
0.0764853
0.349757
0.115114
0.496235
0.157216
0.651213
0.199682
0.806454
0.239911
0.955076
0.27619
1.09173
1.21827
0.30816
0.00499341
0.0231349
0.0191147
0.0969541
0.0424089
0.195917
0.074222
0.317944
0.11297
0.457486
0.156137
0.608046
0.200702
0.76189
0.243929
0.911849
0.283641
1.05202
1.18247
0.319446
0.0046747
0.0184602
0.0180871
0.0835417
0.0404981
0.173506
0.0715795
0.286863
0.110135
0.41893
0.154001
0.564181
0.200323
0.715567
0.246334
0.865839
0.289402
1.00895
1.14249
0.329382
0.00435308
0.0141072
0.0170194
0.0708753
0.0384455
0.15208
0.0685973
0.256711
0.106655
0.380873
0.150834
0.520002
0.198525
0.667876
0.247029
0.817335
0.293305
0.962677
1.09788
0.337909
0.00403027
0.0100769
0.0159202
0.0589854
0.0362733
0.131727
0.0653154
0.227669
0.102581
0.343607
0.14668
0.475903
0.19531
0.619246
0.245934
0.76671
0.295194
0.913416
1.04804
0.345042
0.00370742
0.00636948
0.0147968
0.047896
0.0340018
0.112522
0.0617734
0.199897
0.0979713
0.307409
0.141596
0.432278
0.1907
0.570143
0.242976
0.714434
0.294944
0.861448
0.9921
0.35088
0.00338506
0.00298442
0.0136546
0.0376265
0.0316487
0.0945278
0.0580087
0.173537
0.0928849
0.272533
0.135653
0.38951
0.184745
0.521051
0.238094
0.661085
0.292234
0.807308
0.929016
0.355319
0.00306326
-7.88345e-05
0.0124979
0.0281918
0.0292292
0.0777965
0.0540561
0.14871
0.0873822
0.239207
0.128931
0.347961
0.177523
0.472458
0.231318
0.607291
0.286879
0.751747
0.874672
0.341222
0.00274164
-0.00282047
0.0113296
0.0196038
0.0267559
0.0623702
0.0499474
0.125519
0.0815224
0.207632
0.121518
0.307966
0.169145
0.424831
0.222763
0.553672
0.27974
0.694771
0.818883
0.335529
0.00241957
-0.00524004
0.0101515
0.0118719
0.0242395
0.0482822
0.0457111
0.104047
0.0753622
0.177981
0.113507
0.269821
0.159736
0.378602
0.212677
0.500731
0.270539
0.636908
0.761251
0.328172
0.00209631
-0.00733635
0.00896516
0.00500309
0.0216894
0.0355579
0.0413735
0.0843632
0.0689557
0.150399
0.104988
0.233788
0.149419
0.334172
0.201196
0.448954
0.25923
0.578875
0.702057
0.318423
0.00177123
-0.00910758
0.00777219
-0.000997869
0.0191146
0.0242155
0.0369593
0.0665186
0.0623545
0.125003
0.0960517
0.200091
0.138316
0.291907
0.188449
0.398821
0.245942
0.521382
0.641863
0.306136
0.001444
-0.0105516
0.00657477
-0.00612864
0.0165248
0.0142655
0.0324934
0.05055
0.0556094
0.101887
0.0867853
0.168915
0.126559
0.252133
0.174592
0.350788
0.230866
0.465108
0.581384
0.291345
0.00111476
-0.0116663
0.00537627
-0.0103901
0.0139312
0.00571048
0.0280025
0.0364788
0.0487729
0.081117
0.07728
0.140408
0.114287
0.215126
0.159807
0.305269
0.214226
0.410689
0.521403
0.274208
0.000784353
-0.0124507
0.00418172
-0.0137875
0.011348
-0.00145581
0.0235166
0.0243102
0.0419011
0.0627324
0.0676311
0.114678
0.101649
0.181108
0.144294
0.262624
0.196276
0.358706
0.462698
0.254981
0.000454475
-0.0129052
0.00299821
-0.0163312
0.00879261
-0.00725021
0.0190706
0.0140323
0.0350564
0.0467466
0.0579412
0.091793
0.0888036
0.150246
0.128274
0.223154
0.177307
0.309673
0.406001
0.234003
0.000128412
-0.0130336
0.00183495
-0.0180378