/*--------------------------------*- C++ -*----------------------------------*\
  =========                 |
  \\      /  F ield         | OpenFOAM: The Open Source CFD Toolbox
   \\    /   O peration     | Website:  https://openfoam.org
    \\  /    A nd           | Version:  7
     \\/     M anipulation  |
\*---------------------------------------------------------------------------*/
FoamFile
{
    version     2.0;
    format      ascii;
    class       volScalarField;
    location    "3.6";
    object      p;
}
// * * * * * * * * * * * * * * * * * * * * * * * * * * * * * * * * * * * * * //

dimensions      [1 -1 -2 0 0 0 0];

internalField   nonuniform List<scalar> 
25200
(
1
1
1
1
1
1
1
1
1
1
1
1
1
1
1
1
1
1
1
1
1
1
1
1
1
1
1
1
1
1
3.41359
9.76902
10.4892
10.548
10.653
10.7443
10.8345
10.9197
10.9998
11.0748
11.1463
11.2156
11.2849
11.3559
11.4256
11.4903
11.5501
11.6068
11.6601
11.7103
11.7579
11.8019
11.8403
11.8724
11.8999
11.9244
11.9468
11.9656
11.9801
11.9903
1
1
1
1
1
1
1
1
1
1
1
1
1
1
1
1
1
1
1
1
1
1
1
1
1
1
1
1
1
1
3.35832
9.72271
10.486
10.5488
10.6532
10.7434
10.8324
10.9168
10.9968
11.0721
11.1435
11.2127
11.2816
11.352
11.421
11.4854
11.5451
11.6017
11.655
11.7049
11.7522
11.7958
11.8336
11.8653
11.8923
11.9165
11.9386
11.9573
11.9718
11.982
1
1
1
1
1
1
1
1
1
1
1
1
1
1
1
1
1
1
1
1
1
1
1
1
1
1
1
1
1
1
3.23358
9.66124
10.475
10.5427
10.6465
10.7365
10.8251
10.9092
10.9896
11.0656
11.1373
11.2065
11.2749
11.3445
11.4127
11.4766
11.5362
11.5928
11.646
11.6957
11.7426
11.7856
11.8227
11.8537
11.88
11.9034
11.925
11.9434
11.9577
11.9681
1
1
1
1
1
1
1
1
1
1
1
1
1
1
1
1
1
1
1
1
1
1
1
1
1
1
1
1
1
1
3.06023
9.56323
10.4688
10.5386
10.6397
10.7285
10.8161
10.8995
10.9798
11.0562
11.128
11.1973
11.2651
11.3336
11.4006
11.4639
11.5234
11.5798
11.6328
11.6821
11.7283
11.7706
11.807
11.8372
11.8628
11.8852
11.9058
11.9232
11.9368
11.9468
1
1
1
1
1
1
1
1
1
1
1
1
1
1
1
1
1
1
1
1
1
1
1
1
1
1
1
1
1
1
2.83526
9.41198
10.4608
10.5319
10.6291
10.7167
10.8034
10.886
10.9658
11.0421
11.1135
11.1828
11.2499
11.3173
11.3832
11.4459
11.5051
11.5614
11.6142
11.6631
11.7085
11.7499
11.7855
11.8152
11.8403
11.8622
11.8819
11.8987
11.9115
11.9214
1
1
1
1
1
1
1
1
1
1
1
1
1
1
1
1
1
1
1
1
1
1
1
1
1
1
1
1
1
1
2.5755
9.20712
10.4528
10.52
10.6131
10.6987
10.784
10.8657
10.9446
11.0207
11.0919
11.1615
11.2288
11.2958
11.3614
11.4237
11.4826
11.5383
11.5905
11.6386
11.6832
11.7239
11.7593
11.7889
11.8137
11.8348
11.8533
11.8688
11.8803
11.8895
1
1
1
1
1
1
1
1
1
1
1
1
1
1
1
1
1
1
1
1
1
1
1
1
1
1
1
1
1
1
2.28702
8.93652
10.4454
10.5074
10.5985
10.6812
10.7639
10.844
10.9217
10.9975
11.0684
11.1376
11.2043
11.2699
11.3346
11.3958
11.4539
11.5086
11.5601
11.6074
11.6514
11.6917
11.7269
11.7564
11.781
11.8013
11.8186
11.8331
11.8434
11.8522
1
1
1
1
1
1
1
1
1
1
1
1
1
1
1
1
1
1
1
1
1
1
1
1
1
1
1
1
1
1
1.98144
8.59727
10.4442
10.4915
10.5813
10.6626
10.7437
10.8217
10.8975
10.9721
11.0422
11.1104
11.1758
11.2394
11.303
11.3631
11.4203
11.4738
11.524
11.57
11.613
11.6525
11.6874
11.7169
11.7412
11.7609
11.7771
11.7906
11.7996
11.8078
1
1
1
1
1
1
1
1
1
1
1
1
1
1
1
1
1
1
1
1
1
1
1
1
1
1
1
1
1
1
1.67003
8.16785
10.4551
10.4777
10.5622
10.6393
10.7186
10.7952
10.8695
10.9427
11.0124
11.0796
11.1442
11.2058
11.2677
11.3261
11.3817
11.4333
11.4817
11.526
11.5675
11.606
11.6404
11.6696
11.6937
11.7128
11.7281
11.7409
11.749
11.7568
1
1
1
1
1
1
1
1
1
1
1
1
1
1
1
1
1
1
1
1
1
1
1
1
1
1
1
1
1
1
1.38216
7.66412
10.4508
10.4492
10.5317
10.607
10.6869
10.7641
10.8382
10.9098
10.9788
11.0448
11.1084
11.1676
11.2273
11.2837
11.3378
11.3878
11.4343
11.4768
11.5164
11.5531
11.5862
11.6144
11.6377
11.6558
11.6698
11.6816
11.6885
11.6954
1
1
1
1
1
1
1
1
1
1
1
1
1
1
1
1
1
1
1
1
1
1
1
1
1
1
1
1
1
1
1.12008
7.07527
10.422
10.4282
10.5014
10.5743
10.6509
10.7262
10.799
10.8691
10.9368
11.0012
11.0638
11.122
11.1797
11.2346
11.2873
11.3356
11.3802
11.4205
11.4576
11.4918
11.5225
11.5489
11.5708
11.588
11.6012
11.6123
11.6183
11.6247
1
1
1
1
1
1
1
1
1
1
1
1
1
1
1
1
1
1
1
1
1
1
1
1
1
1
1
1
1
1
1.00449
6.37914
10.283
10.3652
10.4447
10.5237
10.6007
10.6763
10.7485
10.8177
10.8854
10.9493
11.0113
11.0687
11.1245
11.178
11.2293
11.2762
11.3188
11.3569
11.3913
11.4226
11.4504
11.4743
11.4941
11.5093
11.5203
11.5291
11.5331
11.5378
1
1
1
1
1
1
1
1
1
1
1
1
1
1
1
1
1
1
1
1
1
1
1
1
1
1
1
1
1
1
1.00002
5.58072
10.1239
10.304
10.3944
10.4833
10.5628
10.6379
10.7084
10.7737
10.8354
10.8948
10.9535
11.0103
11.0637
11.1149
11.1641
11.2091
11.2495
11.285
11.3161
11.3434
11.3668
11.3862
11.402
11.4142
11.4231
11.4305
11.4338
11.438
1
1
1
1
1
1
1
1
1
1
1
1
1
1
1
1
1
1
1
1
1
1
1
1
1
1
1
1
1
1
1
4.69785
9.91291
10.253
10.3466
10.4356
10.5155
10.59
10.6591
10.7229
10.7834
10.8372
10.892
10.9425
10.9932
11.0425
11.0893
11.1325
11.1706
11.2032
11.2306
11.2533
11.2718
11.2864
11.2978
11.3061
11.3106
11.3122
11.3105
11.311
1
1
1
1
1
1
1
1
1
1
1
1
1
1
1
1
1
1
1
1
1
1
1
1
1
1
1
1
1
1
1
3.78537
9.59713
10.2131
10.3169
10.408
10.483
10.5507
10.6136
10.6712
10.7243
10.7734
10.8204
10.8719
10.9178
10.9624
11.0058
11.0462
11.0814
11.1106
11.1336
11.1512
11.1632
11.1698
11.1725
11.1721
11.1695
11.1662
11.1624
11.1638
1
1
1
1
1
1
1
1
1
1
1
1
1
1
1
1
1
1
1
1
1
1
1
1
1
1
1
1
1
1
1
2.91082
9.11783
10.2102
10.29
10.3711
10.4418
10.5105
10.5714
10.6246
10.6722
10.7153
10.7547
10.7935
10.836
10.8761
10.9135
10.9492
10.9804
11.0053
11.0235
11.0347
11.0383
11.0359
11.0297
11.0211
11.0096
10.993
10.9744
10.9618
1
1
1
1
1
1
1
1
1
1
1
1
1
1
1
1
1
1
1
1
1
1
1
1
1
1
1
1
1
1
1
2.02443
8.41568
10.2867
10.278
10.3542
10.415
10.4694
10.5211
10.57
10.615
10.6558
10.6911
10.7231
10.7557
10.7867
10.8166
10.8451
10.8699
10.8885
10.9003
10.9034
10.8968
10.8832
10.8617
10.8323
10.7965
10.7605
10.728
10.7215
1
1
1
1
1
1
1
1
1
1
1
1
1
1
1
1
1
1
1
1
1
1
1
1
1
1
1
1
1
1
1
1.26679
7.59705
10.3793
10.252
10.289
10.3463
10.4108
10.4659
10.5139
10.5553
10.5921
10.6239
10.6503
10.6756
10.6993
10.719
10.7371
10.7525
10.7628
10.7655
10.7566
10.7373
10.7069
10.665
10.6151
10.5581
10.4995
10.424
10.3464
1
1
1
1
1
1
1
1
1
1
1
1
1
1
1
1
1
1
1
1
1
1
1
1
1
1
1
1
1
1
1
1.00938
6.56728
10.1463
10.1192
10.2149
10.2826
10.3402
10.3979
10.4481
10.489
10.5232
10.5523
10.5745
10.5928
10.6085
10.6197
10.6266
10.6306
10.6311
10.6196
10.5971
10.5612
10.5111
10.4445
10.36
10.2455
10.0958
9.94408
9.83064
1
1
1
1
1
1
1
1
1
1
1
1
1
1
1
1
1
1
1
1
1
1
1
1
1
1
1
1
1
1
1
0.999996
5.23584
9.81791
10.0447
10.1534
10.2148
10.2754
10.3265
10.3717
10.4119
10.4458
10.4726
10.4921
10.5052
10.5139
10.5165
10.5128
10.5053
10.4915
10.4659
10.427
10.3708
10.2947
10.1915
10.0548
9.87777
9.6613
9.42969
9.30989
1
1
1
1
1
1
1
1
1
1
1
1
1
1
1
1
1
1
1
1
1
1
1
1
1
1
1
1
1
1
1
0.999998
3.97913
9.42446
10.0058
10.1007
10.1783
10.2221
10.2548
10.2927
10.3292
10.3604
10.3848
10.4024
10.4114
10.4141
10.4089
10.3953
10.3745
10.346
10.3051
10.2482
10.1684
10.0621
9.92006
9.73413
9.47257
9.06706
8.20276
6.23386
1
1
1
1
1
1
1
1
1
1
1
1
1
1
1
1
1
1
1
1
1
1
1
1
1
1
1
1
1
1
1
1
2.72097
8.73923
9.9995
10.0607
10.1238
10.1646
10.1965
10.2237
10.2504
10.2748
10.295
10.3074
10.312
10.3086
10.2965
10.2734
10.2399
10.1962
10.1386
10.0623
9.9584
9.82032
9.63514
9.38105
9.0131
8.39403
7.43376
5.24604
1
1
1
1
1
1
1
1
1
1
1
1
1
1
1
1
1
1
1
1
1
1
1
1
1
1
1
1
1
1
1
1
1.59377
7.9191
10.1016
10.0256
10.0555
10.0952
10.1276
10.1545
10.1758
10.1934
10.2058
10.2112
10.209
10.1987
10.1791
10.1473
10.1023
10.0433
9.9684
9.87176
9.74439
9.57519
9.34817
9.03478
8.58646
7.91598
6.78011
4.88095
1
1
1
1
1
1
1
1
1
1
1
1
1
1
1
1
1
1
1
1
1
1
1
1
1
1
1
1
1
1
1
1
1.04414
6.65833
10.0105
9.9278
9.96059
10.0148
10.0523
10.0802
10.0985
10.1108
10.1168
10.1153
10.105
10.0869
10.0587
10.018
9.96223
9.88939
9.79732
9.68075
9.53025
9.3342
9.07031
8.71658
8.21035
7.52236
6.36489
4.84154
1
1
1
1
1
1
1
1
1
1
1
1
1
1
1
1
1
1
1
1
1
1
1
1
1
1
1
1
1
1
1
1
1.00008
4.99569
9.51492
9.80369
9.88801
9.93424
9.97307
10.0011
10.0182
10.0259
10.0268
10.0181
10.0003
9.97444
9.93723
9.88692
9.82069
9.73557
9.62775
9.49322
9.32174
9.10279
8.81256
8.43241
7.91096
7.21039
6.14624
4.95356
1
1
1
1
1
1
1
1
1
1
1
1
1
1
1
1
1
1
1
1
1
1
1
1
1
1
1
1
1
1
1
1
0.999999
3.36449
9.01342
9.7961
9.84463
9.8845
9.90836
9.92669
9.93811
9.94107
9.93599
9.92064
9.89577
9.862
9.81658
9.75673
9.6797
9.58314
9.46167
9.31152
9.12314
8.88595
8.58068
8.18439
7.66716
6.98377
6.06761
5.08224
1
1
1
1
1
1
1
1
1
1
1
1
1
1
1
1
1
1
1
1
1
1
1
1
1
1
1
1
1
1
1
1
1
1.90378
8.18747
9.83391
9.78389
9.81995
9.84735
9.85803
9.86166
9.85769
9.84547
9.82377
9.79154
9.74979
9.6964
9.62869
9.54151
9.43423
9.30127
9.13827
8.93673
8.68705
8.37437
7.97538
7.47408
6.83158
6.05262
5.20886
1
1
1
1
1
1
1
1
1
1
1
1
1
1
1
1
1
1
1
1
1
1
1
1
1
1
1
1
1
1
1
1
1
1.08865
6.7611
9.81508
9.74274
9.73672
9.77029
9.77916
9.78007
9.77168
9.75446
9.72715
9.68824
9.63898
9.57747
9.50215
9.40751
9.29058
9.14783
8.97472
8.76358
8.50665
8.19266
7.80188
7.31991
6.73409
6.06197
5.32846
1
1
1
1
1
1
1
1
1
1
1
1
1
1
1
1
1
1
1
1
1
1
1
1
1
1
1
1
1
1
1
1
1
1.00051
4.91428
9.27685
9.58099
9.67454
9.70498
9.70204
9.69807
9.68503
9.66335
9.63113
9.58663
9.53055
9.46139
9.37815
9.27685
9.15391
9.00283
8.82207
8.60488
8.34459
8.03338
7.65608
7.19752
6.67316
6.0734
5.43751
1
1
1
1
1
1
1
1
1
1
1
1
1
1
1
1
1
1
1
1
1
1
1
1
1
1
1
1
1
1
1
1
1
0.999994
2.9242
8.69065
9.62042
9.62424
9.63651
9.63611
9.62637
9.60619
9.57785
9.53933
9.48871
9.4259
9.34941
9.25868
9.15045
9.02172
8.86648
8.68087
8.46031
8.20093
7.89551
7.53183
7.1013
6.62771
6.08695
5.53865
1
1
1
1
1
1
1
1
1
1
1
1
1
1
1
1
1
1
1
1
1
1
1
1
1
1
1
1
1
1
1
1
1
0.999998
1.37445
7.629
9.73151
9.58913
9.5514
9.55192
9.54063
9.51878
9.48766
9.44573
9.39096
9.32324
9.24119
9.1443
9.0302
8.8958
8.73707
8.55051
8.32965
8.07244
7.77638
7.42331
7.02636
6.59464
6.09989
5.61972
1
1
1
1
1
1
1
1
1
1
1
1
1
1
1
1
1
1
1
1
1
1
1
1
1
1
1
1
1
1
1
1
1
1
1.01395
5.88468
9.28014
9.40718
9.46725
9.47448
9.45529
9.43099
9.39758
9.35332
9.29537
9.22365
9.13725
9.03543
8.9163
8.77759
8.6164
8.42901
8.21147
7.95813
7.67234
7.33232
6.96998
6.56405
6.1152
5.68815
1
1
1
1
1
1
1
1
1
1
1
1
1
1
1
1
1
1
1
1
1
1
1
1
1
1
1
1
1
1
1
1
1
1
0.999912
3.61477
8.77756
9.37192
9.40308
9.40748
9.38974
9.36113
9.32117
9.27018
9.20654
9.12968
9.03864
8.93242
8.80913
8.667
8.5043
8.31743
8.10319
7.85719
7.57812
7.25651
6.92128
6.53725
6.13435
5.73669
1
1
1
1
1
1
1
1
1
1
1
1
1
1
1
1
1
1
1
1
1
1
1
1
1
1
1
1
1
1
1
1
1
1
0.999977
1.6874
7.93782
9.50828
9.38155
9.33112
9.30716
9.27659
9.23488
9.18122
9.11511
9.03581
8.94208
8.83312
8.70765
8.56386
8.40046
8.21576
8.00497
7.76791
7.49323
7.19468
6.87984
6.52091
6.15706
5.78128
1
1
1
1
1
1
1
1
1
1
1
1
1
1
1
1
1
1
1
1
1
1
1
1
1
1
1
1
1
1
1
1
1
1
0.999996
1.04448
6.17322
9.14231
9.21086
9.23327
9.22443
9.1941
9.15077
9.09468
9.02657
8.9457
8.85036
8.73957
8.61235
8.4679
8.30367
8.12271
7.91542
7.68539
7.41921
7.14105
6.84047
6.50897
6.17443
5.81999
1
1
1
1
1
1
1
1
1
1
1
1
1
1
1
1
1
1
1
1
1
1
1
1
1
1
1
1
1
1
1
1
1
1
1
0.999992
3.65294
8.63178
9.16927
9.17318
9.16322
9.13535
9.08646
9.02294
8.9484
8.86273
8.76419
8.65154
8.52318
8.37904
8.21448
8.03862
7.83351
7.60926
7.35749
7.09569
6.80715
6.50286
6.1898
5.86127
1
1
1
1
1
1
1
1
1
1
1
1
1
1
1
1
1
1
1
1
1
1
1
1
1
1
1
1
1
1
1
1
1
1
1
0.99999
1.55814
7.72031
9.31654
9.15801
9.09663
9.06025
9.00628
8.94047
8.86475
8.7783
8.67931
8.56677
8.43885
8.29517
8.13317
7.95718
7.75819
7.54077
7.30479
7.05494
6.77861
6.49717
6.19958
5.89405
1
1
1
1
1
1
1
1
1
1
1
1
1
1
1
1
1
1
1
1
1
1
1
1
1
1
1
1
1
1
1
1
1
1
1
0.999998
1.0282
5.80553
8.88985
8.96413
9.00432
8.98298
8.92845
8.86222
8.78593
8.69905
8.5998
8.48758
8.36091
8.21883
8.06029
7.88452
7.69184
7.48115
7.25858
7.01804
6.75804
6.49218
6.20984
5.92525
1
1
1
1
1
1
1
1
1
1
1
1
1
1
1
1
1
1
1
1
1
1
1
1
1
1
1
1
1
1
1
1
1
1
1
1
0.999923
3.11931
8.27644
8.96622
8.96762
8.93183
8.86987
8.79963
8.71951
8.62912
8.52738
8.41401
8.28742
8.14676
7.99069
7.81862
7.63054
7.42672
7.21394
6.98315
6.73884
6.48455
6.21913
5.95013
1
1
1
1
1
1
1
1
1
1
1
1
1
1
1
1
1
1
1
1
1
1
1
1
1
1
1
1
1
1
1
1
1
1
1
1
0.999978
1.31554
7.0032
9.06264
8.93323
8.86044
8.79289
8.72212
8.64354
8.55474
8.4547
8.34326
8.21903
8.08084
7.92796
7.76079
7.57799
7.38114
7.17497
6.95399
6.72103
6.47755
6.22895
5.97217
1
1
1
1
1
1
1
1
1
1
1
1
1
1
1
1
1
1
1
1
1
1
1
1
1
1
1
1
1
1
1
1
1
1
1
1
0.999996
1.00837
4.67356
8.57082
8.77173
8.75863
8.71391
8.65672
8.58115
8.49184
8.39104
8.279
8.15497
8.01795
7.86767
7.70491
7.5281
7.33875
7.13935
6.92745
6.70363
6.47221
6.23635
5.99142
1
1
1
1
1
1
1
1
1
1
1
1
1
1
1
1
1
1
1
1
1
1
1
1
1
1
1
1
1
1
1
1
1
1
1
1
1
0.999961
2.00312
7.82009
8.89512
8.75164
8.66697
8.59813
8.5207
8.43198
8.332
8.22041
8.09723
7.96187
7.81455
7.65594
7.48485
7.30218
7.10939
6.90485
6.68871
6.46823
6.24207
6.00993
1
1
1
1
1
1
1
1
1
1
1
1
1
1
1
1
1
1
1
1
1
1
1
1
1
1
1
1
1
1
1
1
1
1
1
1
1
0.99999
1.08047
5.96155
8.65138
8.59101
8.56441
8.51331
8.4439
8.36246
8.26736
8.15859
8.03829
7.90606
7.76224
7.6077
7.44194
7.26561
7.08006
6.88314
6.67589
6.46493
6.24784
6.02801
1
1
1
1
1
1
1
1
1
1
1
1
1
1
1
1
1
1
1
1
1
1
1
1
1
1
1
1
1
1
1
1
1
1
1
1
1
0.999998
1.00032
3.04638
7.96406
8.52112
8.51474
8.47625
8.40854
8.32344
8.22403
8.11339
7.99263
7.86062
7.71796
7.56578
7.404
7.23322
7.05387
6.86386
6.6658
6.4629
6.25488
6.04489
1
1
1
1
1
1
1
1
1
1
1
1
1
1
1
1
1
1
1
1
1
1
1
1
1
1
1
1
1
1
1
1
1
1
1
1
1
1
0.999998
1.28238
6.48778
8.62158
8.51175
8.43973
8.35902
8.26743
8.16784
8.06045
7.94292
7.81381
7.67411
7.52532
7.36772
7.20201
7.02806
6.84474
6.65548
6.4609
6.26243
6.0609
1
1
1
1
1
1
1
1
1
1
1
1
1
1
1
1
1
1
1
1
1
1
1
1
1
1
1
1
1
1
1
1
1
1
1
1
1
1
1
1.00625
3.77595
8.04522
8.37706
8.34861
8.28883
8.21169
8.12116
8.01796
7.90175
7.77362
7.63548
7.48918
7.335
7.17329
7.00387
6.82778
6.647
6.46112
6.27122
6.07695
1
1
1
1
1
1
1
1
1
1
1
1
1
1
1
1
1
1
1
1
1
1
1
1
1
1
1
1
1
1
1
1
1
1
1
1
1
1
1
0.999996
1.48877
6.77964
8.5016
8.35749
8.26605
8.17953
8.08337
7.97733
7.86051
7.73367
7.59795
7.45481
7.30455
7.14678
6.98289
6.81441
6.64088
6.46231
6.27911
6.09135
1
1
1
1
1
1
1
1
1
1
1
1
1
1
1
1
1
1
1
1
1
1
1
1
1
1
1
1
1
1
1
1
1
1
1
1
1
1
1
0.999999
1.01914
4.2497
8.03851
8.21713
8.18458
8.11839
8.03049
7.92864
7.81563
7.69272
7.56088
7.42177
7.27594
7.12386
6.96642
6.80418
6.63658
6.46366
6.28606
6.10492
1
1
1
1
1
1
1
1
1
1
1
1
1
1
1
1
1
1
1
1
1
1
1
1
1
1
1
1
1
1
1
1
1
1
1
1
1
1
1
1
1.00003
1.65775
6.87729
8.33322
8.20004
8.1001
8.00223
7.89615
7.782
7.65901
7.52938
7.39484
7.25439
7.10792
6.9555
6.7975
6.63401
6.4652
6.29219
6.11667
1
1
1
1
1
1
1
1
1
1
1
1
1
1
1
1
1
1
1
1
1
1
1
1
1
1
1
1
1
1
1
1
1
1
1
1
1
1
1
1
1
1.0337
4.43916
7.95368
8.08244
8.02573
7.94449
7.84738
7.73827
7.6195
7.4959
7.3678
7.23323
7.09163
6.94314
6.78856
6.62856
6.46415
6.29643
6.12599
1
1
1
1
1
1
1
1
1
1
1
1
1
1
1
1
1
1
1
1
1
1
1
1
1
1
1
1
1
1
1
1
1
1
1
1
1
1
1
1
1
1.00012
1.74031
6.81053
8.16738
8.03299
7.92717
7.82295
7.70992
7.59308
7.47518
7.35182
7.22018
7.08052
6.93401
6.782
6.62533
6.46525
6.30272
6.1374
1
1
1
1
1
1
1
1
1
1
1
1
1
1
1
1
1
1
1
1
1
1
1
1
1
1
1
1
1
1
1
1
1
1
1
1
1
1
1
1
1
1
1.04168
4.37355
7.81186
7.9305
7.86195
7.77255
7.66918
7.56264
7.45128
7.33092
7.20094
7.06329
6.91974
6.77159
6.61983
6.46506
6.30771
6.14855
1
1
1
1
1
1
1
1
1
1
1
1
1
1
1
1
1
1
1
1
1
1
1
1
1
1
1
1
1
1
1
1
1
1
1
1
1
1
1
1
1
1
1.00021
1.72204
6.59135
7.99514
7.86287
7.75723
7.65518
7.55175
7.4392
7.31651
7.18591
7.04989
6.90975
6.76601
6.61927
6.46977
6.31726
6.163
1
1
1
1
1
1
1
1
1
1
1
1
1
1
1
1
1
1
1
1
1
1
1
1
1
1
1
1
1
1
1
1
1
1
1
1
1
1
1
1
1
1
1
1.03937
4.02624
7.60302
7.77877
7.71657
7.63061
7.52866
7.4147
7.29222
7.16421
7.0324
6.89752
6.75949
6.61804
6.4735
6.3262
6.17597
1
1
1
1
1
1
1
1
1
1
1
1
1
1
1
1
1
1
1
1
1
1
1
1
1
1
1
1
1
1
1
1
1
1
1
1
1
1
1
1
1
1
1
1.00024
1.59286
6.20386
7.79924
7.7267
7.6295
7.51406
7.39459
7.27312
7.14954
7.02315
6.8935
6.76027
6.62296
6.48178
6.33773
6.19068
1
1
1
1
1
1
1
1
1
1
1
1
1
1
1
1
1
1
1
1
1
1
1
1
1
1
1
1
1
1
1
1
1
1
1
1
1
1
1
1
1
1
1
1
1.02701
3.37067
7.31319
7.69445
7.58745
7.4771
7.36594
7.25352
7.13735
7.01652
6.89064
6.76001
6.6253
6.48679
6.34476
6.20055
1
1
1
1
1
1
1
1
1
1
1
1
1
1
1
1
1
1
1
1
1
1
1
1
1
1
1
1
1
1
1
1
1
1
1
1
1
1
1
1
1
1
1
1
1.00017
1.37834
5.70408
7.73262
7.57809
7.46927
7.36304
7.25273
7.13661
7.01614
6.89122
6.76176
6.62863
6.49258
6.35333
6.21199
1
1
1
1
1
1
1
1
1
1
1
1
1
1
1
1
1
1
1
1
1
1
1
1
1
1
1
1
1
1
1
1
1
1
1
1
1
1
1
1
1
1
1
1
1
1.01164
2.69533
6.94706
7.51902
7.43585
7.34456
7.23641
7.123
7.00523
6.88319
6.75663
6.62578
6.4924
6.35768
6.22099
1
1
1
1
1
1
1
1
1
1
1
1
1
1
1
1
1
1
1
1
1
1
1
1
1
1
1
1
1
1
1
1
1
1
1
1
1
1
1
1
1
1
1
1
1
1.00006
1.19696
4.92344
7.50739
7.4557
7.35846
7.24182
7.12827
7.00965
6.88629
6.75961
6.62999
6.49883
6.36798
6.23639
1
1
1
1
1
1
1
1
1
1
1
1
1
1
1
1
1
1
1
1
1
1
1
1
1
1
1
1
1
1
1
1
1
1
1
1
1
1
1
1
1
1
1
1
1
1
1.00363
2.07343
6.41531
7.43403
7.32026
7.22188
7.11
6.99211
6.87089
6.74833
6.62508
6.50036
6.37391
6.24669
1
1
1
1
1
1
1
1
1
1
1
1
1
1
1
1
1
1
1
1
1
1
1
1
1
1
1
1
1
1
1
1
1
1
1
1
1
1
1
1
1
1
1
1
1
1
1.00002
1.0825
3.82019
7.13466
7.32372
7.22589
7.1145
6.99787
6.87919
6.76006
6.64037
6.51892
6.3946
6.26829
1
1
1
1
1
1
1
1
1
1
1
1
1
1
1
1
1
1
1
1
1
1
1
1
1
1
1
1
1
1
1
1
1
1
1
1
1
1
1
1
1
1
1
1
1
1
1
1.00101
1.53343
5.60388
7.35644
7.22628
7.10659
6.99283
6.88074
6.76727
6.65042
6.52964
6.40588
6.28022
1
1
1
1
1
1
1
1
1
1
1
1
1
1
1
1
1
1
1
1
1
1
1
1
1
1
1
1
1
1
1
1
1
1
1
1
1
1
1
1
1
1
1
1
1
1
1
1
1.0226
2.70509
6.63856
7.19042
7.09395
6.9945
6.8884
6.77491
6.65679
6.53617
6.41331
6.28866
1
1
1
1
1
1
1
1
1
1
1
1
1
1
1
1
1
1
1
1
1
1
1
1
1
1
1
1
1
1
1
1
1
1
1
1
1
1
1
1
1
1
1
1
1
1
1
1
1.00018
1.19914
4.47132
7.0834
7.1206
7.01949
6.90709
6.78834
6.66734
6.54657
6.42606
6.30427
1
1
1
1
1
1
1
1
1
1
1
1
1
1
1
1
1
1
1
1
1
1
1
1
1
1
1
1
1
1
1
1
1
1
1
1
1
1
1
1
1
1
1
1
1
1
1
1
1
1.00411
1.84378
5.82571
7.10269
7.0044
6.89096
6.77717
6.66296
6.54803
6.43225
6.31605
1
1
1
1
1
1
1
1
1
1
1
1
1
1
1
1
1
1
1
1
1
1
1
1
1
1
1
1
1
1
1
1
1
1
1
1
1
1
1
1
1
1
1
1
1
1
1
1
1
1.00002
1.05308
3.07339
6.59209
6.99422
6.89587
6.7884
6.68052
6.56885
6.4547
6.33956
1
1
1
1
1
1
1
1
1
1
1
1
1
1
1
1
1
1
1
1
1
1
1
1
1
1
1
1
1
1
1
1
1
1
1
1
1
1
1
1
1
1
1
1
1
1
1
1
1
1
1.00062
1.29319
4.62099
6.88726
6.92092
6.81418
6.70233
6.587
6.47126
6.35603
1
1
1
1
1
1
1
1
1
1
1
1
1
1
1
1
1
1
1
1
1
1
1
1
1
1
1
1
1
1
1
1
1
1
1
1
1
1
1
1
1
1
1
1
1
1
1
1
1
1
1
1.00823
1.95815
5.72773
6.88729
6.81153
6.70012
6.58977
6.47835
6.36419
1
1
1
1
1
1
1
1
1
1
1
1
1
1
1
1
1
1
1
1
1
1
1
1
1
1
1
1
1
1
1
1
1
1
1
1
1
1
1
1
1
1
1
1
1
1
1
1
1
1
1
1.00006
1.06786
3.06214
6.39068
6.81422
6.71431
6.60289
6.49589
6.3843
1
1
1
1
1
1
1
1
1
1
1
1
1
1
1
1
1
1
1
1
1
1
1
1
1
1
1
1
1
1
1
1
1
1
1
1
1
1
1
1
1
1
1
1
1
1
1
1
1
1
1
1
1.00093
1.29482
4.39794
6.63939
6.73592
6.63194
6.51774
6.40517
1
1
1
1
1
1
1
1
1
1
1
1
1
1
1
1
1
1
1
1
1
1
1
1
1
1
1
1
1
1
1
1
1
1
1
1
1
1
1
1
1
1
1
1
1
1
1
1
1
1
1
1
1
1.00869
1.84985
5.39076
6.68879
6.64275
6.5293
6.42115
1
1
1
1
1
1
1
1
1
1
1
1
1
1
1
1
1
1
1
1
1
1
1
1
1
1
1
1
1
1
1
1
1
1
1
1
1
1
1
1
1
1
1
1
1
1
1
1
1
1
1
1
1
1.00006
1.05516
2.73531
6.04835
6.63179
6.55092
6.44108
1
1
1
1
1
1
1
1
1
1
1
1
1
1
1
1
1
1
1
1
1
1
1
1
1
1
1
1
1
1
1
1
1
1
1
1
1
1
1
1
1
1
1
1
1
1
1
1
1
1
1
1
1
1
1.00074
1.21422
3.84192
6.35582
6.58059
6.47347
1
1
1
1
1
1
1
1
1
1
1
1
1
1
1
1
1
1
1
1
1
1
1
1
1
1
1
1
1
1
1
1
1
1
1
1
1
1
1
1
1
1
1
1
1
1
1
1
1
1
1
1
1
1
1
1.00537
1.58602
4.83508
6.45469
6.48962
1
1
1
1
1
1
1
1
1
1
1
1
1
1
1
1
1
1
1
1
1
1
1
1
1
1
1
1
1
1
1
1
1
1
1
1
1
1
1
1
1
1
1
1
1
1
1
1
1
1
1
1
1
1
1
1.00003
1.02907
2.22271
5.50856
6.45054
1
1
1
1
1
1
1
1
1
1
1
1
1
1
1
1
1
1
1
1
1
1
1
1
1
1
1
1
1
1
1
1
1
1
1
1
1
1
1
1
1
1
1
1
1
1
1
1
1
1
1
1
1
1
1
1
1.00033
1.11083
3.05273
5.9649
1
1
1
1
1
1
1
1
1
1
1
1
1
1
1
1
1
1
1
1
1
1
1
1
1
1
1
1
1
1
1
1
1
1
1
1
1
1
1
1
1
1
1
1
1
1
1
1
1
1
1
1
1
1
1
1
1
1.00208
1.30723
3.96778
1
1
1
1
1
1
1
1
1
1
1
1
1
1
1
1
1
1
1
1
1
1
1
1
1
1
1
1
1
1
1
1
1
1
1
1
1
1
1
1
1
1
1
1
1
1
1
1
1
1
1
1
1
1
1
1
1
1.00001
1.01005
1.67094
1
1
1
1
1
1
1
1
1
1
1
1
1
1
1
1
1
1
1
1
1
1
1
1
1
1
1
1
1
1
1
1
1
1
1
1
1
1
1
1
1
1
1
1
1
1
1
1
1
1
1
1
1
1
1
1
1
1
1.00008
1.03729
1
1
1
1
1
1
1
1
1
1
1
1
1
1
1
1
1
1
1
1
1
1
1
1
1
1
1
1
1
1
1
1
1
1
1
1
1
1
1
1
1
1
1
1
1
1
1
1
1
1
1
1
1
1
1
1
1
1
1
1.00047
1
1
1
1
1
1
1
1
1
1
1
1
1
1
1
1
1
1
1
1
1
1
1
1
1
1
1
1
1
1
1
1
1
1
1
1
1
1
1
1
1
1
1
1
1
1
1
1
1
1
1
1
1
1
1
1
1
1
1
1
1
1
1
1
1
1
1
1
1
1
1
1
1
1
1
1
1
1
1
1
1
1
1
1
1
1
1
1
1
1
1
1
1
1
1
1
1
1
1
1
1
1
1
1
1
1
1
1
1
1
1
1
1
1
1
1
1
1
1
1
1
1
1
1
1
1
1
1
1
1
1
1
1
1
1
1
1
1
1
1
1
1
1
1
1
1
1
1
1
1
1
1
1
1
1
1
1
1
1
1
1
1
1
1
1
1
1
1
1
1
1
1
1
1
1
1
1
1
1
1
1
1
1
1
1
1
1
1
1
1
1
1
1
1
1
1
1
1
1
1
1
1
1
1
1
1
1
1
1
1
1
1
1
1
1
1
1
1
1
1
1
1
1
1
1
1
1
1
1
1
1
1
1
1
1
1
1
1
1
1
1
1
1
1
1
1
1
1
1
1
1
1
1
1
1
1
1
1
1
1
1
1
1
1
1
1
1
1
1
1
1
1
1
1
1
1
1
1
1
1
1
1
1
1
1
1
1
1
1
1
1
1
1
1
1
1
1
1
1
1
1
1
1
1
1
1
1
1
1
1
1
1
1
1
1
1
1
1
1
1
1
1
1
1
1
1
1
1
1
1
1
1
1
1
1
1
1
1
1
1
1
1
1
1
1
1
1
1
1
1
1
1
1
1
1
1
1
1
1
1
1
1
1
1
1
1
1
1
1
1
1
1
1
1
1
1
1
1
1
1
1
1
1
1
1
1
1
1
1
1
1
1
1
1
1
1
1
1
1
1
1
1
1
1
1
1
1
1
1
1
1
1
1
1
1
1
1
1
1
1
1
1
1
1
1
1
1
1
1
1
1
1
1
1
1
1
1
1
1
1
1
1
1
1
1
1
1
1
1
1
1
1
1
1
1
1
1
1
1
1
1
1
1
1
1
1
1
1
1
1
1
1
1
1
1
1
1
1
1
1
1
1
1
1
1
1
1
1
1
1
1
1
1
1
1
1
1
1
1
1
1
1
1
1
1
1
1
1
1
1
1
1
1
1
1
1
1
1
1
1
1
1
1
1
1
1
1
1
1
1
1
1
1
1
1
1
1
1
1
1
1
1
1
1
1
1
1
1
1
1
1
1
1
1
1
1
1
1
1
1
1
1
1
1
1
1
1
1
1
1
1
1
1
1
1
1
1
1
1
1
1
1
1
1
1
1
1
1
1
1
1
1
1
1
1
1
1
1
1
1
1
1
1
1
1
1
1
1
1
1
1
1
1
1
1
1
1
1
1
1
1
1
1
1
1
1
1
1
1
1
1
1
1
1
1
1
1
1
1
1
1
1
1
1
1
1
1
1
1
1
1
1
1
1
1
1
1
1
1
1
1
1
1
1
1
1
1
1
1
1
1
1
1
1
1
1
1
1
1
1
1
1
1
1
1
1
1
1
1
1
1
1
1
1
1
1
1
1
1
1
1
1
1
1
1
1
1
1
1
1
1
1
1
1
1
1
1
1
1
1
1
1
1
1
1
1
1
1
1
1
1
1
1
1
1
1
1
1
1
1
1
1
1
1
1
1
1
1
1
1
1
1
1
1
1
1
1
1
1
1
1
1
1
1
1
1
1
1
1
1
1
1
1
1
1
1
1
1
1
1
1
1
1
1
1
1
1
1
1
1
1
1
1
1
1
1
1
1
1
1
1
1
1
1
1
1
1
1
1
1
1
1
1
1
1
1
1
1
1
1
1
1
1
1
1
1
1
1
1
1
1
1
1
1
1
1
1
1
1
1
1
1
1
1
1
1
1
1
1
1
1
1
1
1
1
1
1
1
1
1
1
1
1
1
1
1
1
1
1
1
1
1
1
1
1
1
1
1
1
1
1
1
1
1
1
1
1
1
1
1
1
1
1
1
1
1
1
1
1
1
1
1
1
1
1
1
1
1
1
1
1
1
1
1
1
1
1
1
1
1
1
1
1
1
1
1
1
1
1
1
1
1
1
1
1
1
1
1
1
1
1
1
1
1
1
1
1
1
1
1
1
1
1
1
1
1
1
1
1
1
1
1
1
1
1
1
1
1
1
1
1
1
1
1
1
1
1
1
1
1
1
1
1
1
1
1
1
1
1
1
1
1
1
1
1
1
1
1
1
1
1
1
1
1
1
1
1
1
1
1
1
1
1
1
1
1
1
1
1
1
1
1
1
1
1
1
1
1
1
1
1
1
1
1
1
1
1
1
1
1
1
1
1
1
1
1
1
1
1
1
1
1
1
1
1
1
1
1
1
1
1
1
1
1
1
1
1
1
1
1
1
1
1
1
1
1
1
1
1
1
1
1
1
1
1
1
1
1
1
1
1
1
1
1
1
1
1
1
1
1
1
1
1
1
1
1
1
1
1
1
1
1
1
1
1
1
1
1
1
1
1
1
1
1
1
1
1
1
1
1
1
1
1
1
1
1
1
1
1
1
1
1
1
1
1
1
1
1
1
1
1
1
1
1
1
1
1
1
1
1
1
1
1
1
1
1
1
1
1
1
1
1
1
1
1
1
1
1
1
1
1
1
1
1
1
1
1
1
1
1
1
1
1
1
1
1
1
1
1
1
1.07128
0.214192
0.0626628
0.0131054
0.0177359
0.0351627
0.0547701
0.078354
0.112581
0.16289
0.224525
0.291349
0.379357
0.488662
0.531399
0.557694
0.580452
0.614452
0.669684
0.721396
0.762806
0.802275
0.860795
0.901657
0.93233
0.936379
0.927808
0.923122
0.926546
0.947813
0.996196
1.06116
1.10219
1.12107
1.12766
1.12786
1.12581
1.12876
1.13714
1.15667
1.19421
1.22234
1.22578
1.22596
1.22386
1.22769
1.23129
1.23276
1.23682
1.25502
1.27839
1.28791
1.29556
1.3016
1.30474
1.30583
1.30484
1.30562
1.31132
1.3202
1.32759
1.32874
1.32681
1.32373
1.32235
1.32239
1.32444
1.33146
1.34337
1.34976
1.34987
1.34785
1.34539
1.34435
1.34301
1.54594
4.63984
6.1613
6.24315
6.27957
6.30729
6.31664
6.31952
6.31759
6.30652
6.28973
6.26906
6.24671
6.2237
6.19955
6.17374
6.14623
6.11653
6.08552
6.05418
6.0218
5.98678
5.94812
5.90604
5.8621
5.82031
5.78509
5.75907
5.74133
5.7262
5.70403
5.66636
5.6167
5.56421
5.51466
5.4724
5.4407
5.41919
5.40273
5.38614
5.36792
5.34851
5.32773
5.30428
5.27797
5.24959
5.21372
5.16425
5.10788
5.05194
5.00202
4.96428
4.9397
4.92087
4.9001
4.87674
4.85498
4.83732
4.82378
4.81395
4.79905
4.76532
4.70806
4.61942
4.53574
4.469
4.41899
4.38453
4.35987
4.34977
4.35171
4.35703
4.3584
4.34503
4.31658
4.27938
4.23063
4.18231
4.14044
4.10178
4.06549
4.03214
4.00272
3.9776
3.95719
3.94495
3.94009
3.93706
3.92206
3.89375
3.85069
3.78946
3.73622
3.70091
3.67719
3.65947
3.65538
3.66288
3.65774
3.63173
3.59794
3.55422
3.51723
3.4923
3.47175
3.45864
3.45276
3.44113
3.42064
3.39591
3.36732
3.34398
3.32396
3.30562
3.29012
3.2738
3.25456
3.23302
3.2045
3.17024
3.13604
3.10728
3.08612
3.06985
3.05723
3.04922
3.03694
3.0178
2.98979
2.95254
2.91931
2.89418
2.87414
2.85745
2.84188
2.82424
2.80286
2.77782
2.75342
2.73351
2.71735
2.70363
2.69179
2.68342
2.67849
2.67542
2.67195
2.66496
2.6534
2.63795
2.61554
2.57902
2.52811
2.48077
2.44881
2.43153
2.4212
2.41311
2.41027
2.42083
2.44454
2.46312
2.46276
2.45019
2.40847
1.95334
0.938982
0.4855
0.227092
0.181931
0.19037
0.172853
0.161604
0.16744
0.168103
0.17111
0.183805
0.205041
0.250236
0.32085
0.385343
0.444033
0.498664
0.547498
0.596797
0.650588
0.718443
0.793353
0.830962
0.858836
0.890989
0.9016
0.913937
0.940034
0.96758
1.0042
1.0408
1.06075
1.07694
1.09214
1.10171
1.11063
1.12072
1.13473
1.15711
1.18948
1.2113
1.21653
1.21831
1.2154
1.21826
1.2236
1.23011
1.23982
1.25884
1.27865
1.28614
1.29061
1.28884
1.28939
1.29001
1.29026
1.29464
1.30259
1.31228
1.32173
1.3247
1.3241
1.32324
1.323
1.32392
1.32644
1.33173
1.33949
1.34562
1.34786
1.34696
1.345
1.34298
1.34001
1.48351
4.49178
6.21218
6.36532
6.38168
6.36776
6.34373
6.32201
6.30252
6.28525
6.2751
6.26682
6.25375
6.23001
6.19442
6.15247
6.11225
6.081
6.05863
6.04007
6.02159
6.00053
5.97443
5.94142
5.89992
5.85204
5.80605
5.77027
5.74942
5.74026
5.73036
5.70252
5.65334
5.59742
5.54243
5.49228
5.45081
5.41924
5.39312
5.3647
5.33199
5.2979
5.26585
5.23791
5.21333
5.18787
5.15756
5.126
5.09788
5.07353
5.05179
5.03137
5.00897
4.9772
4.93486
4.88854
4.84437
4.80707
4.7737
4.74228
4.71322
4.68724
4.66606
4.64055
4.60447
4.55637
4.49575
4.43459
4.38926
4.36025
4.34165
4.33114
4.31784
4.29813
4.27426
4.24658
4.2178
4.18842
4.15953
4.13069
4.09904
4.06377
4.02538
3.98739
3.95601
3.93221
3.91302
3.89757
3.88238
3.86469
3.84096
3.81401
3.78032
3.73809
3.69902
3.67272
3.65569
3.64562
3.63418
3.62065
3.59685
3.56921
3.53574
3.50237
3.47716
3.45775
3.44077
3.42401
3.40536
3.38389
3.36201
3.33876
3.3151
3.2941
3.27561
3.26007
3.2469
3.23023
3.21005
3.18736
3.15975
3.12842
3.09707
3.07054
3.05127
3.034
3.01816
3.00465
2.98533
2.96142
2.93368
2.90326
2.87462
2.85127
2.83259
2.81715
2.80188
2.78368
2.76568
2.74667
2.7277
2.71114
2.6978
2.68698
2.67737
2.66742
2.65565
2.64261
2.62923
2.61483
2.59726
2.57393
2.54693
2.51662
2.48233
2.45211
2.43448
2.42542
2.42247
2.42915
2.43584
2.43408
2.42959
2.4236
2.39505
2.77774
1.67175
0.955961
0.593579
0.519358
0.421394
0.319135
0.283935
0.285329
0.265283
0.234667
0.236677
0.247005
0.262325
0.296061
0.324021
0.346878
0.382334
0.438163
0.48655
0.533777
0.59651
0.676029
0.725732
0.758447
0.808772
0.856951
0.899782
0.951761
1
1.02833
1.04491
1.06172
1.07465
1.07921
1.09308
1.1098
1.12341
1.14095
1.16686
1.19316
1.20446
1.21334
1.21825
1.21633
1.2199
1.2246
1.23104
1.23997
1.2563
1.2781
1.28988
1.29478
1.29363
1.29538
1.29978
1.30401
1.3077
1.31197
1.31792
1.32186
1.32127
1.3189
1.31887
1.32135
1.32627
1.33302
1.33998
1.34406
1.3444
1.34393
1.34307
1.33998
1.33613
1.33645
1.39267
4.10162
6.42987
6.47037
6.40029
6.37702
6.35924
6.34771
6.32977
6.30651
6.28825
6.27914
6.27603
6.26994
6.2479
6.20047
6.13973
6.08357
6.03994
6.00656
5.98252
5.96547
5.95113
5.9355
5.91525
5.88333
5.83859
5.79237
5.75476
5.73149
5.71869
5.70131
5.66858
5.62599
5.58097
5.5372
5.49801
5.46586
5.44121
5.41735
5.38273
5.33724
5.28606
5.23204
5.17672
5.12273
5.07679
5.04194
5.02372
5.02114
5.02731
5.03503
5.03871
5.02878
5.00063
4.96026
4.9057
4.83467
4.75403
4.67999
4.62413
4.59092
4.58171
4.5968
4.60683
4.59554
4.56869
4.53083
4.47983
4.42168
4.36663
4.31979
4.28012
4.24524
4.2178
4.19712
4.17994
4.16236
4.14481
4.12792
4.11082
4.0915
4.06793
4.03849
3.99892
3.94857
3.89569
3.85344
3.8246
3.80449
3.79653
3.79886
3.79219
3.77426
3.75012
3.71582
3.67171
3.63101
3.6037
3.58216
3.57039
3.56595
3.55069
3.52879
3.50258
3.4684
3.43053
3.40203
3.3815
3.36661
3.35489
3.33748
3.31702
3.29218
3.2623
3.23584
3.21655
3.20253
3.19474
3.18707
3.17395
3.15655
3.13169
3.09557
3.05314
3.01754
2.99393
2.97533
2.96323
2.95662
2.94295
2.92417
2.89629
2.85905
2.82375
2.79852
2.78103
2.76967
2.76338
2.75544
2.74377
2.7301
2.71323
2.69285
2.67178
2.65388
2.63843
2.62366
2.60795
2.58994
2.57044
2.55513
2.54345
2.53051
2.513
2.48902
2.4638
2.4468
2.43817
2.43241
2.42355
2.41049
2.39575
2.38381
2.36794
3.25761
2.31806
1.57519
1.07971
0.881662
0.716938
0.532108
0.490413
0.486977
0.444772
0.382058
0.377483
0.377417
0.365807
0.349823
0.343152
0.342485
0.358509
0.382424
0.399898
0.415257
0.440093
0.47762
0.533018
0.592297
0.664049
0.748145
0.807503
0.860616
0.923847
0.955193
0.975933
1.01049
1.04667
1.05952
1.08325
1.10569
1.11925
1.13677
1.16208
1.18737
1.20157
1.21169
1.21481
1.21256
1.21007
1.21177
1.21705
1.22634
1.23926
1.25627
1.27169
1.27944
1.28431
1.28943
1.29359
1.29654
1.29916
1.3046
1.31545
1.32357
1.32488
1.32267
1.31878
1.31788
1.32007
1.32468
1.33199
1.33982
1.34372
1.34466
1.34471
1.34158
1.34393
1.36778
1.51934
3.46348
6.54698
6.71858
6.47152
6.392
6.37543
6.36334
6.33868
6.30732
6.27792
6.25341
6.23701
6.23038
6.22109
6.19524
6.15182
6.09357
6.04399
6.00778
5.97687
5.95044
5.92631
5.90648
5.893
5.88161
5.85695
5.8172
5.77268
5.7279
5.68621
5.64869
5.61542
5.58179
5.54469
5.50574
5.46708
5.43275
5.4071
5.39095
5.37122
5.33872
5.30051
5.25874
5.21349
5.16814
5.12406
5.08377
5.05173
5.03012
5.01777
5.01146
5.00718
4.99896
4.97882
4.94646
4.90032
4.8331
4.75265
4.68085
4.62922
4.59468
4.57734
4.5772
4.5779
4.57306
4.56282
4.53999
4.50428
4.45074
4.39079
4.33632
4.29105
4.2551
4.22669
4.21199
4.19892
4.17619
4.14921
4.12089
4.09447
4.07125
4.05029
4.02735
3.99885
3.96362
3.92261
3.87867
3.836
3.80382
3.78468
3.77198
3.76431
3.75907
3.74555
3.72328
3.69207
3.65482
3.61917
3.59062
3.57125
3.56031
3.54817
3.52978
3.50704
3.47529
3.43576
3.40234
3.37904
3.3606
3.34716
3.33406
3.31819
3.30014
3.27564
3.24375
3.21367
3.19445
3.18065
3.16999
3.16222
3.15125
3.13477
3.11168
3.07896
3.0372
2.99394
2.96354
2.94749
2.937
2.93017
2.91838
2.90106
2.87555
2.84066
2.80557
2.78255
2.76911
2.76015
2.75516
2.74885
2.7377
2.72335
2.70254
2.67566