/*--------------------------------*- C++ -*----------------------------------*\
  =========                 |
  \\      /  F ield         | OpenFOAM: The Open Source CFD Toolbox
   \\    /   O peration     | Website:  https://openfoam.org
    \\  /    A nd           | Version:  7
     \\/     M anipulation  |
\*---------------------------------------------------------------------------*/
FoamFile
{
    version     2.0;
    format      ascii;
    class       volScalarField;
    location    "3.6";
    object      rho;
}
// * * * * * * * * * * * * * * * * * * * * * * * * * * * * * * * * * * * * * //

dimensions      [1 -3 0 0 0 0 0];

internalField   nonuniform List<scalar> 
25200
(
1.40001
1.40001
1.40001
1.40001
1.40001
1.40001
1.40001
1.40001
1.40001
1.40001
1.40001
1.40001
1.40001
1.40001
1.40001
1.40001
1.40001
1.40001
1.40001
1.40001
1.40001
1.40001
1.40001
1.40001
1.40001
1.40001
1.40001
1.40001
1.40001
1.40001
2.64648
5.17318
5.45299
5.47519
5.51144
5.53864
5.56319
5.58587
5.60935
5.63587
5.66627
5.69914
5.7325
5.76436
5.79061
5.80941
5.82423
5.84039
5.85978
5.88064
5.90029
5.91643
5.92832
5.93764
5.94655
5.95563
5.96422
5.9711
5.97607
5.97956
1.40001
1.40001
1.40001
1.40001
1.40001
1.40001
1.40001
1.40001
1.40001
1.40001
1.40001
1.40001
1.40001
1.40001
1.40001
1.40001
1.40001
1.40001
1.40001
1.40001
1.40001
1.40001
1.40001
1.40001
1.40001
1.40001
1.40001
1.40001
1.40001
1.40001
2.61888
5.15495
5.45127
5.47549
5.51163
5.53841
5.56244
5.58479
5.60829
5.63499
5.66548
5.69833
5.73152
5.7631
5.78901
5.80762
5.82238
5.83859
5.85801
5.8788
5.89829
5.91422
5.92591
5.93508
5.94387
5.95284
5.96134
5.96817
5.97313
5.97663
1.40001
1.40001
1.40001
1.40001
1.40001
1.40001
1.40001
1.40001
1.40001
1.40001
1.40001
1.40001
1.40001
1.40001
1.40001
1.40001
1.40001
1.40001
1.40001
1.40001
1.40001
1.40001
1.40001
1.40001
1.40001
1.40001
1.40001
1.40001
1.40001
1.40001
2.55953
5.13262
5.44802
5.47453
5.51052
5.53698
5.56052
5.58245
5.60592
5.63293
5.66369
5.69668
5.72968
5.76085
5.78625
5.80453
5.81922
5.83551
5.85501
5.87571
5.89496
5.91055
5.92194
5.9309
5.9395
5.94825
5.95655
5.96325
5.96815
5.97168
1.40001
1.40001
1.40001
1.40001
1.40001
1.40001
1.40001
1.40001
1.40001
1.40001
1.40001
1.40001
1.40001
1.40001
1.40001
1.40001
1.40001
1.40001
1.40001
1.40001
1.40001
1.40001
1.40001
1.40001
1.40001
1.40001
1.40001
1.40001
1.40001
1.40001
2.47616
5.09839
5.44869
5.47659
5.51157
5.53708
5.55939
5.58023
5.60312
5.63013
5.66106
5.69421
5.727
5.75769
5.78252
5.8004
5.81493
5.83119
5.85066
5.87116
5.89003
5.90519
5.91623
5.92498
5.93338
5.94183
5.94975
5.9561
5.96072
5.96412
1.40001
1.40001
1.40001
1.40001
1.40001
1.40001
1.40001
1.40001
1.40001
1.40001
1.40001
1.40001
1.40001
1.40001
1.40001
1.40001
1.40001
1.40001
1.40001
1.40001
1.40001
1.40001
1.40001
1.40001
1.40001
1.40001
1.40001
1.40001
1.40001
1.40001
2.36813
5.04714
5.44763
5.4784
5.51269
5.53729
5.55836
5.57779
5.59953
5.62603
5.65679
5.68997
5.72258
5.75289
5.77732
5.79489
5.80919
5.82522
5.84448
5.86468
5.88314
5.89786
5.90858
5.91715
5.92545
5.9337
5.94132
5.9474
5.95173
5.95505
1.40001
1.40001
1.40001
1.40001
1.40001
1.40001
1.40001
1.40001
1.40001
1.40001
1.40001
1.40001
1.40001
1.40001
1.40001
1.40001
1.40001
1.40001
1.40001
1.40001
1.40001
1.40001
1.40001
1.40001
1.40001
1.40001
1.40001
1.40001
1.40001
1.40001
2.23953
4.9754
5.44286
5.47651
5.51159
5.53592
5.55592
5.57401
5.59438
5.62003
5.65033
5.68351
5.71618
5.74643
5.77095
5.78846
5.80247
5.81795
5.83664
5.85632
5.87436
5.88878
5.89935
5.90786
5.91606
5.92402
5.93117
5.93677
5.94059
5.94369
1.40001
1.40001
1.40001
1.40001
1.40001
1.40001
1.40001
1.40001
1.40001
1.40001
1.40001
1.40001
1.40001
1.40001
1.40001
1.40001
1.40001
1.40001
1.40001
1.40001
1.40001
1.40001
1.40001
1.40001
1.40001
1.40001
1.40001
1.40001
1.40001
1.40001
2.09488
4.88139
5.43595
5.47136
5.50913
5.53431
5.55384
5.57098
5.59006
5.61449
5.64375
5.67633
5.70864
5.73848
5.763
5.78038
5.79401
5.80869
5.82657
5.84566
5.86333
5.87757
5.88806
5.89648
5.90449
5.91213
5.91881
5.92402
5.92738
5.93032
1.40001
1.40001
1.40001
1.40001
1.40001
1.40001
1.40001
1.40001
1.40001
1.40001
1.40001
1.40001
1.40001
1.40001
1.40001
1.40001
1.40001
1.40001
1.40001
1.40001
1.40001
1.40001
1.40001
1.40001
1.40001
1.40001
1.40001
1.40001
1.40001
1.40001
1.93875
4.76712
5.4336
5.46374
5.50311
5.53081
5.55175
5.56884
5.58682
5.60956
5.63713
5.66833
5.69974
5.7288
5.75333
5.77079
5.78419
5.798
5.81482
5.83299
5.85005
5.86399
5.87436
5.88266
5.89047
5.89778
5.904
5.90882
5.91171
5.91444
1.40001
1.40001
1.40001
1.40001
1.40001
1.40001
1.40001
1.40001
1.40001
1.40001
1.40001
1.40001
1.40001
1.40001
1.40001
1.40001
1.40001
1.40001
1.40001
1.40001
1.40001
1.40001
1.40001
1.40001
1.40001
1.40001
1.40001
1.40001
1.40001
1.40001
1.77697
4.62662
5.4414
5.45837
5.49521
5.52376
5.54708
5.56566
5.58359
5.60482
5.63039
5.6597
5.6899
5.71793
5.74223
5.75975
5.7729
5.7857
5.80117
5.81816
5.83441
5.84791
5.85807
5.86614
5.87367
5.88063
5.88648
5.89102
5.89356
5.89613
1.40001
1.40001
1.40001
1.40001
1.40001
1.40001
1.40001
1.40001
1.40001
1.40001
1.40001
1.40001
1.40001
1.40001
1.40001
1.40001
1.40001
1.40001
1.40001
1.40001
1.40001
1.40001
1.40001
1.40001
1.40001
1.40001
1.40001
1.40001
1.40001
1.40001
1.62348
4.4576
5.44561
5.44787
5.48186
5.51117
5.538
5.56012
5.57973
5.60011
5.62356
5.65033
5.67873
5.70534
5.72908
5.74675
5.75997
5.77201
5.78614
5.80179
5.81697
5.82971
5.83933
5.8469
5.8539
5.86033
5.86565
5.86974
5.87179
5.87403
1.40001
1.40001
1.40001
1.40001
1.40001
1.40001
1.40001
1.40001
1.40001
1.40001
1.40001
1.40001
1.40001
1.40001
1.40001
1.40001
1.40001
1.40001
1.40001
1.40001
1.40001
1.40001
1.40001
1.40001
1.40001
1.40001
1.40001
1.40001
1.40001
1.40001
1.47414
4.23504
5.43228
5.43712
5.46735
5.49637
5.52461
5.54977
5.5717
5.59223
5.61399
5.6381
5.66448
5.68986
5.71302
5.73108
5.7447
5.75628
5.76908
5.7832
5.79699
5.80859
5.81728
5.824
5.83027
5.83616
5.84108
5.84486
5.84654
5.84856
1.40001
1.40001
1.40001
1.40001
1.40001
1.40001
1.40001
1.40001
1.40001
1.40001
1.40001
1.40001
1.40001
1.40001
1.40001
1.40001
1.40001
1.40001
1.40001
1.40001
1.40001
1.40001
1.40001
1.40001
1.40001
1.40001
1.40001
1.40001
1.40001
1.40001
1.40342
3.94765
5.36783
5.40699
5.44058
5.47228
5.50218
5.53012
5.55474
5.57699
5.59909
5.62198
5.64677
5.67106
5.69367
5.71228
5.72661
5.73812
5.74977
5.76232
5.77455
5.78477
5.79229
5.79793
5.80315
5.8081
5.81209
5.81496
5.81584
5.81722
1.40001
1.40001
1.40001
1.40001
1.40001
1.40001
1.40001
1.40001
1.40001
1.40001
1.40001
1.40001
1.40001
1.40001
1.40001
1.40001
1.40001
1.40001
1.40001
1.40001
1.40001
1.40001
1.40001
1.40001
1.40001
1.40001
1.40001
1.40001
1.40001
1.40001
1.40002
3.61177
5.29866
5.37538
5.41329
5.44947
5.48125
5.51029
5.53657
5.55979
5.58124
5.60274
5.62577
5.6494
5.67137
5.69031
5.70535
5.71707
5.72778
5.7387
5.7491
5.7575
5.76324
5.76703
5.77051
5.77412
5.77717
5.77943
5.77999
5.7812
1.40001
1.40001
1.40001
1.40001
1.40001
1.40001
1.40001
1.40001
1.40001
1.40001
1.40001
1.40001
1.40001
1.40001
1.40001
1.40001
1.40001
1.40001
1.40001
1.40001
1.40001
1.40001
1.40001
1.40001
1.40001
1.40001
1.40001
1.40001
1.40001
1.40001
1.40001
3.23714
5.22716
5.3542
5.39117
5.42641
5.45816
5.48725
5.51391
5.53785
5.56004
5.58008
5.60168
5.62295
5.64438
5.66382
5.67971
5.69206
5.70224
5.71167
5.72013
5.72646
5.73011
5.73193
5.73354
5.7354
5.73653
5.73663
5.73547
5.73537
1.40001
1.40001
1.40001
1.40001
1.40001
1.40001
1.40001
1.40001
1.40001
1.40001
1.40001
1.40001
1.40001
1.40001
1.40001
1.40001
1.40001
1.40001
1.40001
1.40001
1.40001
1.40001
1.40001
1.40001
1.40001
1.40001
1.40001
1.40001
1.40001
1.40001
1.40001
2.83573
5.13658
5.35209
5.38591
5.41821
5.44562
5.47061
5.49429
5.5158
5.53544
5.55388
5.57256
5.59414
5.61429
5.63316
5.64957
5.66258
5.67252
5.68065
5.6871
5.6911
5.69209
5.69083
5.68895
5.68731
5.68556
5.68366
5.68174
5.68203
1.40001
1.40001
1.40001
1.40001
1.40001
1.40001
1.40001
1.40001
1.40001
1.40001
1.40001
1.40001
1.40001
1.40001
1.40001
1.40001
1.40001
1.40001
1.40001
1.40001
1.40001
1.40001
1.40001
1.40001
1.40001
1.40001
1.40001
1.40001
1.40001
1.40001
1.40001
2.42493
4.99936
5.38252
5.39476
5.41699
5.43862
5.46076
5.48093
5.49884
5.51498
5.53021
5.54541
5.562
5.58101
5.59907
5.61481
5.62793
5.63768
5.64462
5.64905
5.65042
5.64825
5.64356
5.63815
5.63306
5.6276
5.62063
5.61321
5.60834
1.40001
1.40001
1.40001
1.40001
1.40001
1.40001
1.40001
1.40001
1.40001
1.40001
1.40001
1.40001
1.40001
1.40001
1.40001
1.40001
1.40001
1.40001
1.40001
1.40001
1.40001
1.40001
1.40001
1.40001
1.40001
1.40001
1.40001
1.40001
1.40001
1.40001
1.40001
1.99284
4.80051
5.4487
5.42159
5.43599
5.44835
5.46044
5.47275
5.48517
5.49713
5.50889
5.52069
5.53351
5.54831
5.56325
5.57726
5.58925
5.59815
5.60352
5.60569
5.60414
5.59838
5.58959
5.57832
5.56474
5.54989
5.53563
5.52301
5.52046
1.40001
1.40001
1.40001
1.40001
1.40001
1.40001
1.40001
1.40001
1.40001
1.40001
1.40001
1.40001
1.40001
1.40001
1.40001
1.40001
1.40001
1.40001
1.40001
1.40001
1.40001
1.40001
1.40001
1.40001
1.40001
1.40001
1.40001
1.40001
1.40001
1.40001
1.40001
1.57981
4.51474
5.49605
5.43604
5.44
5.44815
5.46052
5.47072
5.47883
5.48528
5.49152
5.49849
5.5066
5.51701
5.52863
5.53901
5.54805
5.55473
5.55785
5.55718
5.55193
5.54187
5.52691
5.50759
5.48588
5.4625
5.43956
5.41171
5.38399
1.40001
1.40001
1.40001
1.40001
1.40001
1.40001
1.40001
1.40001
1.40001
1.40001
1.40001
1.40001
1.40001
1.40001
1.40001
1.40001
1.40001
1.40001
1.40001
1.40001
1.40001
1.40001
1.40001
1.40001
1.40001
1.40001
1.40001
1.40001
1.40001
1.40001
1.40001
1.40748
4.04892
5.38364
5.37969
5.41694
5.43853
5.45334
5.46565
5.47355
5.4771
5.47866
5.48051
5.48306
5.48774
5.49442
5.50078
5.50552
5.50842
5.50869
5.50381
5.49416
5.47854
5.45664
5.42799
5.39283
5.3473
5.28996
5.23358
5.19241
1.40001
1.40001
1.40001
1.40001
1.40001
1.40001
1.40001
1.40001
1.40001
1.40001
1.40001
1.40001
1.40001
1.40001
1.40001
1.40001
1.40001
1.40001
1.40001
1.40001
1.40001
1.40001
1.40001
1.40001
1.40001
1.40001
1.40001
1.40001
1.40001
1.40001
1.40001
1.4
3.45995
5.20684
5.32778
5.38135
5.40994
5.4344
5.45104
5.46147
5.4664
5.46672
5.46493
5.46256
5.46119
5.4619
5.46297
5.46233
5.46047
5.45588
5.44641
5.43139
5.40899
5.378
5.33581
5.28077
5.21159
5.12849
5.03191
4.9678
1.40001
1.40001
1.40001
1.40001
1.40001
1.40001
1.40001
1.40001
1.40001
1.40001
1.40001
1.40001
1.40001
1.40001
1.40001
1.40001
1.40001
1.40001
1.40001
1.40001
1.40001
1.40001
1.40001
1.40001
1.40001
1.40001
1.40001
1.40001
1.40001
1.40001
1.40001
1.4
2.91703
5.05079
5.29478
5.34696
5.3861
5.40831
5.42397
5.43841
5.44775
5.45053
5.44835
5.44355
5.43725
5.43157
5.42628
5.41981
5.41129
5.40051
5.38534
5.36409
5.33377
5.29231
5.23598
5.16219
5.06004
4.90243
4.54709
3.63786
1.40001
1.40001
1.40001
1.40001
1.40001
1.40001
1.40001
1.40001
1.40001
1.40001
1.40001
1.40001
1.40001
1.40001
1.40001
1.40001
1.40001
1.40001
1.40001
1.40001
1.40001
1.40001
1.40001
1.40001
1.40001
1.40001
1.40001
1.40001
1.40001
1.40001
1.40001
1.4
2.34907
4.86735
5.3086
5.33249
5.36007
5.38015
5.39636
5.40989
5.42104
5.42731
5.42757
5.42283
5.41416
5.40329
5.39159
5.37851
5.36273
5.3443
5.32184
5.29321
5.25432
5.20177
5.1298
5.03003
4.88555
4.63989
4.23778
3.24727
1.40001
1.40001
1.40001
1.40001
1.40001
1.40001
1.40001
1.40001
1.40001
1.40001
1.40001
1.40001
1.40001
1.40001
1.40001
1.40001
1.40001
1.40001
1.40001
1.40001
1.40001
1.40001
1.40001
1.40001
1.40001
1.40001
1.40001
1.40001
1.40001
1.40001
1.40001
1.40001
1.78366
4.67006
5.38603
5.33912
5.34224
5.35336
5.36631
5.37926
5.39021
5.39804
5.40055
5.39734
5.38867
5.37525
5.35837
5.33876
5.31598
5.28899
5.2578
5.22024
5.17225
5.10838
5.02115
4.8986
4.72105
4.4504
3.97404
3.12248
1.40001
1.40001
1.40001
1.40001
1.40001
1.40001
1.40001
1.40001
1.40001
1.40001
1.40001
1.40001
1.40001
1.40001
1.40001
1.40001
1.40001
1.40001
1.40001
1.40001
1.40001
1.40001
1.40001
1.40001
1.40001
1.40001
1.40001
1.40001
1.40001
1.40001
1.40001
1.40001
1.43599
4.13235
5.3544
5.31504
5.32001
5.33125
5.33995
5.34925
5.35789
5.36479
5.36781
5.36596
5.35833
5.34482
5.3251
5.30041
5.27128
5.23611
5.19546
5.14794
5.0897
5.01519
4.91406
4.7759
4.57399
4.29281
3.80501
3.12875
1.40001
1.40001
1.40001
1.40001
1.40001
1.40001
1.40001
1.40001
1.40001
1.40001
1.40001
1.40001
1.40001
1.40001
1.40001
1.40001
1.40001
1.40001
1.40001
1.40001
1.40001
1.40001
1.40001
1.40001
1.40001
1.40001
1.40001
1.40001
1.40001
1.40001
1.40001
1.40001
1.40005
3.38965
5.15169
5.27218
5.30101
5.31118
5.3181
5.32301
5.32734
5.33108
5.3325
5.32995
5.32267
5.30969
5.28943
5.26199
5.22771
5.18594
5.1365
5.07903
5.01009
4.92508
4.81305
4.66433
4.45541
4.16711
3.71546
3.1835
1.40001
1.40001
1.40001
1.40001
1.40001
1.40001
1.40001
1.40001
1.40001
1.40001
1.40001
1.40001
1.40001
1.40001
1.40001
1.40001
1.40001
1.40001
1.40001
1.40001
1.40001
1.40001
1.40001
1.40001
1.40001
1.40001
1.40001
1.40001
1.40001
1.40001
1.40001
1.40001
1.4
2.66489
4.99329
5.28774
5.29697
5.30489
5.30535
5.30422
5.30233
5.30052
5.29819
5.29256
5.28355
5.27012
5.25
5.22159
5.18425
5.13785
5.08147
5.01514
4.93636
4.84132
4.7214
4.5652
4.35725
4.07503
3.68439
3.24503
1.40001
1.40001
1.40001
1.40001
1.40001
1.40001
1.40001
1.40001
1.40001
1.40001
1.40001
1.40001
1.40001
1.40001
1.40001
1.40001
1.40001
1.40001
1.40001
1.40001
1.40001
1.40001
1.40001
1.40001
1.40001
1.40001
1.40001
1.40001
1.40001
1.40001
1.40001
1.40001
1.4
1.95989
4.77124
5.32712
5.29207
5.29595
5.29641
5.29133
5.28392
5.27552
5.26711
5.25705
5.24404
5.22798
5.20681
5.17823
5.13956
5.09056
5.0298
4.95691
4.87007
4.76661
4.64054
4.48094
4.27811
4.01211
3.67983
3.30497
1.40001
1.40001
1.40001
1.40001
1.40001
1.40001
1.40001
1.40001
1.40001
1.40001
1.40001
1.40001
1.40001
1.40001
1.40001
1.40001
1.40001
1.40001
1.40001
1.40001
1.40001
1.40001
1.40001
1.40001
1.40001
1.40001
1.40001
1.40001
1.40001
1.40001
1.40001
1.40001
1.4
1.47161
4.18743
5.3138
5.28234
5.27469
5.28049
5.27508
5.26602
5.25359
5.23976
5.22508
5.20688
5.18634
5.16202
5.13206
5.09302
5.04284
4.97999
4.90336
4.81119
4.70184
4.57156
4.41187
4.21455
3.97087
3.68389
3.35996
1.40001
1.40001
1.40001
1.40001
1.40001
1.40001
1.40001
1.40001
1.40001
1.40001
1.40001
1.40001
1.40001
1.40001
1.40001
1.40001
1.40001
1.40001
1.40001
1.40001
1.40001
1.40001
1.40001
1.40001
1.40001
1.40001
1.40001
1.40001
1.40001
1.40001
1.40001
1.40001
1.40001
1.40042
3.36964
5.09122
5.22381
5.25752
5.26386
5.25651
5.24711
5.23303
5.21568
5.19625
5.17362
5.14785
5.11875
5.08532
5.04482
4.99453
4.9309
4.85299
4.75868
4.64642
4.51421
4.35631
4.16533
3.94521
3.68861
3.40887
1.40001
1.40001
1.40001
1.40001
1.40001
1.40001
1.40001
1.40001
1.40001
1.40001
1.40001
1.40001
1.40001
1.40001
1.40001
1.40001
1.40001
1.40001
1.40001
1.40001
1.40001
1.40001
1.40001
1.40001
1.40001
1.40001
1.40001
1.40001
1.40001
1.40001
1.40001
1.40001
1.40001
1.4
2.47716
4.92601
5.2569
5.24682
5.24533
5.23983
5.22981
5.2144
5.19469
5.17132
5.1446
5.11384
5.07933
5.04104
4.99715
4.94538
4.88204
4.8045
4.7105
4.59884
4.46747
4.31222
4.12943
3.92778
3.69477
3.45369
1.40001
1.40001
1.40001
1.40001
1.40001
1.40001
1.40001
1.40001
1.40001
1.40001
1.40001
1.40001
1.40001
1.40001
1.40001
1.40001
1.40001
1.40001
1.40001
1.40001
1.40001
1.40001
1.40001
1.40001
1.40001
1.40001
1.40001
1.40001
1.40001
1.40001
1.40001
1.40001
1.40001
1.4
1.66875
4.59554
5.31783
5.25
5.22464
5.21734
5.20622
5.19083
5.17094
5.14636
5.11719
5.08303
5.04415
5.00098
4.95277
4.89785
4.8336
4.75729
4.6652
4.55594
4.42862
4.27641
4.10507
3.91821
3.7029
3.4906
1.40001
1.40001
1.40001
1.40001
1.40001
1.40001
1.40001
1.40001
1.40001
1.40001
1.40001
1.40001
1.40001
1.40001
1.40001
1.40001
1.40001
1.40001
1.40001
1.40001
1.40001
1.40001
1.40001
1.40001
1.40001
1.40001
1.40001
1.40001
1.40001
1.40001
1.40001
1.40001
1.40001
1.4
1.41153
3.80995
5.12586
5.18875
5.20596
5.19907
5.18354
5.16651
5.14613
5.12138
5.09083
5.05462
5.01279
4.96567
4.9131
4.85441
4.78807
4.71159
4.62209
4.51613
4.39442
4.24795
4.0901
3.91216
3.71439
3.52402
1.40001
1.40001
1.40001
1.40001
1.40001
1.40001
1.40001
1.40001
1.40001
1.40001
1.40001
1.40001
1.40001
1.40001
1.40001
1.40001
1.40001
1.40001
1.40001
1.40001
1.40001
1.40001
1.40001
1.40001
1.40001
1.40001
1.40001
1.40001
1.40001
1.40001
1.40001
1.40001
1.40001
1.40001
1.39991
2.80987
4.95588
5.19411
5.19188
5.18433
5.16906
5.14967
5.12655
5.09927
5.06665
5.02852
4.98451
4.93455
4.87847
4.81615
4.74712
4.66957
4.58127
4.47921
4.36173
4.22413
4.07813
3.90923
3.72995
3.55115
1.40001
1.40001
1.40001
1.40001
1.40001
1.40001
1.40001
1.40001
1.40001
1.40001
1.40001
1.40001
1.40001
1.40001
1.40001
1.40001
1.40001
1.40001
1.40001
1.40001
1.40001
1.40001
1.40001
1.40001
1.40001
1.40001
1.40001
1.40001
1.40001
1.40001
1.40001
1.40001
1.40001
1.40001
1.39998
1.85832
4.72988
5.25979
5.19935
5.16815
5.14923
5.12809
5.10351
5.07481
5.0411
5.00208
4.95706
4.90568
4.84773
4.78302
4.71154
4.6328
4.54452
4.44573
4.33063
4.20375
4.06759
3.91015
3.74777
3.57782
1.40001
1.40001
1.40001
1.40001
1.40001
1.40001
1.40001
1.40001
1.40001
1.40001
1.40001
1.40001
1.40001
1.40001
1.40001
1.40001
1.40001
1.40001
1.40001
1.40001
1.40001
1.40001
1.40001
1.40001
1.40001
1.40001
1.40001
1.40001
1.40001
1.40001
1.40001
1.40001
1.40001
1.40001
1.4
1.43662
3.94919
5.10133
5.13949
5.143
5.13068
5.10888
5.08248
5.05206
5.01695
4.977
4.93127
4.87913
4.82013
4.75419
4.68076
4.60151
4.51265
4.41529
4.30308
4.18501
4.05584
3.91115
3.76243
3.60233
1.40001
1.40001
1.40001
1.40001
1.40001
1.40001
1.40001
1.40001
1.40001
1.40001
1.40001
1.40001
1.40001
1.40001
1.40001
1.40001
1.40001
1.40001
1.40001
1.40001
1.40001
1.40001
1.40001
1.40001
1.40001
1.40001
1.40001
1.40001
1.40001
1.40001
1.40001
1.40001
1.40001
1.40001
1.4
1.39996
2.84097
4.92498
5.14002
5.13063
5.11812
5.0982
5.07009
5.03598
4.99761
4.95514
4.90774
4.85465
4.79503
4.72881
4.65431
4.57567
4.4858
4.38891
4.28121
4.16926
4.0452
3.91283
3.77451
3.62703
1.40001
1.40001
1.40001
1.40001
1.40001
1.40001
1.40001
1.40001
1.40001
1.40001
1.40001
1.40001
1.40001
1.40001
1.40001
1.40001
1.40001
1.40001
1.40001
1.40001
1.40001
1.40001
1.40001
1.40001
1.40001
1.40001
1.40001
1.40001
1.40001
1.40001
1.40001
1.40001
1.40001
1.40001
1.40001
1.39999
1.7886
4.6662
5.21053
5.13885
5.10326
5.08006
5.05061
5.0157
4.97658
4.93325
4.88509
4.8316
4.77184
4.70553
4.6316
4.55201
4.46329
4.36752
4.26464
4.15626
4.0365
3.91382
3.78272
3.6462
1.40001
1.40001
1.40001
1.40001
1.40001
1.40001
1.40001
1.40001
1.40001
1.40001
1.40001
1.40001
1.40001
1.40001
1.40001
1.40001
1.40001
1.40001
1.40001
1.40001
1.40001
1.40001
1.40001
1.40001
1.40001
1.40001
1.40001
1.40001
1.40001
1.40001
1.40001
1.40001
1.40001
1.40001
1.40001
1.4
1.42347
3.80535
5.02878
5.06737
5.07776
5.06135
5.03183
4.9968
4.95744
4.91371
4.86501
4.81114
4.75144
4.68539
4.61251
4.53249
4.44553
4.35134
4.25254
4.14648
4.03234
3.91545
3.79069
3.66361
1.40001
1.40001
1.40001
1.40001
1.40001
1.40001
1.40001
1.40001
1.40001
1.40001
1.40001
1.40001
1.40001
1.40001
1.40001
1.40001
1.40001
1.40001
1.40001
1.40001
1.40001
1.40001
1.40001
1.40001
1.40001
1.40001
1.40001
1.40001
1.40001
1.40001
1.40001
1.40001
1.40001
1.40001
1.40001
1.4
1.3999
2.60651
4.83487
5.08581
5.07377
5.05208
5.01946
4.98318
4.94263
4.89766
4.84789
4.79326
4.73316
4.66725
4.59495
4.516
4.43038
4.33825
4.24246
4.13919
4.03032
3.91715
3.79881
3.67826
1.40001
1.40001
1.40001
1.40001
1.40001
1.40001
1.40001
1.40001
1.40001
1.40001
1.40001
1.40001
1.40001
1.40001
1.40001
1.40001
1.40001
1.40001
1.40001
1.40001
1.40001
1.40001
1.40001
1.40001
1.40001
1.40001
1.40001
1.40001
1.40001
1.40001
1.40001
1.40001
1.40001
1.40001
1.40001
1.40001
1.39998
1.63916
4.37385
5.13453
5.0767
5.03625
4.99973
4.96292
4.92318
4.87915
4.83026
4.77644
4.71714
4.65192
4.58053
4.50315
4.41924
4.32946
4.23571
4.13569
4.03061
3.92078
3.80855
3.6925
1.40001
1.40001
1.40001
1.40001
1.40001
1.40001
1.40001
1.40001
1.40001
1.40001
1.40001
1.40001
1.40001
1.40001
1.40001
1.40001
1.40001
1.40001
1.40001
1.40001
1.40001
1.40001
1.40001
1.40001
1.40001
1.40001
1.40001
1.40001
1.40001
1.40001
1.40001
1.40001
1.40001
1.40001
1.40001
1.40001
1.4
1.40707
3.33276
4.93789
5.0293
5.01158
4.98154
4.94919
4.90951
4.86482
4.81563
4.76173
4.70262
4.63783
4.56729
4.49138
4.40952
4.32236
4.2309
4.13408
4.03205
3.92651
3.81879
3.70679
1.40001
1.40001
1.40001
1.40001
1.40001
1.40001
1.40001
1.40001
1.40001
1.40001
1.40001
1.40001
1.40001
1.40001
1.40001
1.40001
1.40001
1.40001
1.40001
1.40001
1.40001
1.40001
1.40001
1.40001
1.40001
1.40001
1.40001
1.40001
1.40001
1.40001
1.40001
1.40001
1.40001
1.40001
1.40001
1.40001
1.4
1.39996
2.05508
4.75115
5.09624
5.02814
4.97895
4.93949
4.89748
4.85182
4.80237
4.74853
4.68993
4.62604
4.55683
4.48257
4.40285
4.3181
4.22898
4.13476
4.03534
3.93386
3.82961
3.72234
1.40001
1.40001
1.40001
1.40001
1.40001
1.40001
1.40001
1.40001
1.40001
1.40001
1.40001
1.40001
1.40001
1.40001
1.40001
1.40001
1.40001
1.40001
1.40001
1.40001
1.40001
1.40001
1.40001
1.40001
1.40001
1.40001
1.40001
1.40001
1.40001
1.40001
1.40001
1.40001
1.40001
1.40001
1.40001
1.40001
1.40001
1.39999
1.46653
3.91951
4.99673
4.97275
4.9531
4.92063
4.88103
4.83656
4.78759
4.73404
4.67631
4.61373
4.54612
4.47369
4.39618
4.31392
4.22752
4.13614
4.04011
3.94224
3.84139
3.73894
1.40001
1.40001
1.40001
1.40001
1.40001
1.40001
1.40001
1.40001
1.40001
1.40001
1.40001
1.40001
1.40001
1.40001
1.40001
1.40001
1.40001
1.40001
1.40001
1.40001
1.40001
1.40001
1.40001
1.40001
1.40001
1.40001
1.40001
1.40001
1.40001
1.40001
1.40001
1.40001
1.40001
1.40001
1.40001
1.40001
1.40001
1.4
1.40026
2.59682
4.77017
4.96716
4.9508
4.92256
4.88383
4.83711
4.78479
4.72869
4.66935
4.606
4.5385
4.467
4.39121
4.31131
4.22749
4.1388
4.04641
3.95166
3.85436
3.7558
1.40001
1.40001
1.40001
1.40001
1.40001
1.40001
1.40001
1.40001
1.40001
1.40001
1.40001
1.40001
1.40001
1.40001
1.40001
1.40001
1.40001
1.40001
1.40001
1.40001
1.40001
1.40001
1.40001
1.40001
1.40001
1.40001
1.40001
1.40001
1.40001
1.40001
1.40001
1.40001
1.40001
1.40001
1.40001
1.40001
1.40001
1.4
1.4
1.61742
4.1794
5.01421
4.96484
4.92349
4.8792
4.83033
4.7776
4.72171
4.66223
4.59873
4.5315
4.46084
4.38657
4.30876
4.22727
4.14143
4.05271
3.96135
3.86794
3.77279
1.40001
1.40001
1.40001
1.40001
1.40001
1.40001
1.40001
1.40001
1.40001
1.40001
1.40001
1.40001
1.40001
1.40001
1.40001
1.40001
1.40001
1.40001
1.40001
1.40001
1.40001
1.40001
1.40001
1.40001
1.40001
1.40001
1.40001
1.40001
1.40001
1.40001
1.40001
1.40001
1.40001
1.40001
1.40001
1.40001
1.40001
1.40001
1.4
1.40533
2.95599
4.80179
4.92357
4.90278
4.86734
4.82371
4.77444
4.72
4.6603
4.59602
4.52813
4.4574
4.38381
4.30727
4.22752
4.14473
4.05963
3.97198
3.8822
3.79007
1.40001
1.40001
1.40001
1.40001
1.40001
1.40001
1.40001
1.40001
1.40001
1.40001
1.40001
1.40001
1.40001
1.40001
1.40001
1.40001
1.40001
1.40001
1.40001
1.40001
1.40001
1.40001
1.40001
1.40001
1.40001
1.40001
1.40001
1.40001
1.40001
1.40001
1.40001
1.40001
1.40001
1.40001
1.40001
1.40001
1.40001
1.40001
1.4
1.4
1.75678
4.34362
4.99004
4.92382
4.87449
4.82704
4.7753
4.71934
4.65891
4.59444
4.52657
4.45606
4.38312
4.30747
4.22941
4.14951
4.06738
3.98285
3.89596
3.80665
1.40001
1.40001
1.40001
1.40001
1.40001
1.40001
1.40001
1.40001
1.40001
1.40001
1.40001
1.40001
1.40001
1.40001
1.40001
1.40001
1.40001
1.40001
1.40001
1.40001
1.40001
1.40001
1.40001
1.40001
1.40001
1.40001
1.40001
1.40001
1.40001
1.40001
1.40001
1.40001
1.40001
1.40001
1.40001
1.40001
1.40001
1.40001
1.40001
1.4
1.41633
3.18956
4.8122
4.87861
4.85749
4.81922
4.77051
4.71577
4.65644
4.5931
4.52622
4.45657
4.38444
4.31012
4.23396
4.15608
4.07608
3.99375
3.90918
3.82275
1.40001
1.40001
1.40001
1.40001
1.40001
1.40001
1.40001
1.40001
1.40001
1.40001
1.40001
1.40001
1.40001
1.40001
1.40001
1.40001
1.40001
1.40001
1.40001
1.40001
1.40001
1.40001
1.40001
1.40001
1.40001
1.40001
1.40001
1.40001
1.40001
1.40001
1.40001
1.40001
1.40001
1.40001
1.40001
1.40001
1.40001
1.40001
1.40001
1.4
1.40003
1.86451
4.41162
4.94558
4.88138
4.82789
4.77517
4.71881
4.6589
4.59526
4.5288
4.46041
4.38978
4.31694
4.242
4.16509
4.08614
4.00506
3.92216
3.838
1.40001
1.40001
1.40001
1.40001
1.40001
1.40001
1.40001
1.40001
1.40001
1.40001
1.40001
1.40001
1.40001
1.40001
1.40001
1.40001
1.40001
1.40001
1.40001
1.40001
1.40001
1.40001
1.40001
1.40001
1.40001
1.40001
1.40001
1.40001
1.40001
1.40001
1.40001
1.40001
1.40001
1.40001
1.40001
1.40001
1.40001
1.40001
1.40001
1.40001
1.40001
1.42861
3.28987
4.80116
4.84079
4.81126
4.76719
4.71488
4.65702
4.59497
4.53088
4.46491
4.39628
4.32482
4.25069
4.1743
4.09594
4.01597
3.93477
3.85241
1.40001
1.40001
1.40001
1.40001
1.40001
1.40001
1.40001
1.40001
1.40001
1.40001
1.40001
1.40001
1.40001
1.40001
1.40001
1.40001
1.40001
1.40001
1.40001
1.40001
1.40001
1.40001
1.40001
1.40001
1.40001
1.40001
1.40001
1.40001
1.40001
1.40001
1.40001
1.40001
1.40001
1.40001
1.40001
1.40001
1.40001
1.40001
1.40001
1.40001
1.40001
1.40011
1.91664
4.40346
4.89847
4.83225
4.77579
4.72029
4.66103
4.59981
4.5381
4.47408
4.40652
4.33554
4.2617
4.18565
4.10785
4.02889
3.94916
3.8684
1.40001
1.40001
1.40001
1.40001
1.40001
1.40001
1.40001
1.40001
1.40001
1.40001
1.40001
1.40001
1.40001
1.40001
1.40001
1.40001
1.40001
1.40001
1.40001
1.40001
1.40001
1.40001
1.40001
1.40001
1.40001
1.40001
1.40001
1.40001
1.40001
1.40001
1.40001
1.40001
1.40001
1.40001
1.40001
1.40001
1.40001
1.40001
1.40001
1.40001
1.40001
1.40001
1.4353
3.27306
4.77009
4.79673
4.76206
4.71452
4.65961
4.60293
4.54399
4.48114
4.41412
4.34378
4.27087
4.19601
4.1197
4.04228
3.964
3.88519
1.40001
1.40001
1.40001
1.40001
1.40001
1.40001
1.40001
1.40001
1.40001
1.40001
1.40001
1.40001
1.40001
1.40001
1.40001
1.40001
1.40001
1.40001
1.40001
1.40001
1.40001
1.40001
1.40001
1.40001
1.40001
1.40001
1.40001
1.40001
1.40001
1.40001
1.40001
1.40001
1.40001
1.40001
1.40001
1.40001
1.40001
1.40001
1.40001
1.40001
1.40001
1.40001
1.40019
1.9072
4.3255
4.84834
4.78149
4.7245
4.66914
4.61361
4.55431
4.49058
4.42333
4.35363
4.28205
4.20885
4.13433
4.05868
3.98186
3.9045
1.40001
1.40001
1.40001
1.40001
1.40001
1.40001
1.40001
1.40001
1.40001
1.40001
1.40001
1.40001
1.40001
1.40001
1.40001
1.40001
1.40001
1.40001
1.40001
1.40001
1.40001
1.40001
1.40001
1.40001
1.40001
1.40001
1.40001
1.40001
1.40001
1.40001
1.40001
1.40001
1.40001
1.40001
1.40001
1.40001
1.40001
1.40001
1.40001
1.40001
1.40001
1.40001
1.40001
1.43342
3.12674
4.71803
4.75341
4.72133
4.67475
4.6197
4.55925
4.49531
4.42911
4.36129
4.29203
4.22128
4.14891
4.07514
4.00017
3.92402
1.40001
1.40001
1.40001
1.40001
1.40001
1.40001
1.40001
1.40001
1.40001
1.40001
1.40001
1.40001
1.40001
1.40001
1.40001
1.40001
1.40001
1.40001
1.40001
1.40001
1.40001
1.40001
1.40001
1.40001
1.40001
1.40001
1.40001
1.40001
1.40001
1.40001
1.40001
1.40001
1.40001
1.40001
1.40001
1.40001
1.40001
1.40001
1.40001
1.40001
1.40001
1.40001
1.40001
1.40022
1.82871
4.16965
4.78819
4.74664
4.69253
4.63043
4.56682
4.50269
4.438
4.37232
4.30529
4.23666
4.16611
4.09373
4.02
3.94492
1.40001
1.40001
1.40001
1.40001
1.40001
1.40001
1.40001
1.40001
1.40001
1.40001
1.40001
1.40001
1.40001
1.40001
1.40001
1.40001
1.40001
1.40001
1.40001
1.40001
1.40001
1.40001
1.40001
1.40001
1.40001
1.40001
1.40001
1.40001
1.40001
1.40001
1.40001
1.40001
1.40001
1.40001
1.40001
1.40001
1.40001
1.40001
1.40001
1.40001
1.40001
1.40001
1.40001
1.40001
1.42315
2.82682
4.64712
4.74866
4.69344
4.6329
4.57188
4.51079
4.44858
4.38478
4.31906
4.2514
4.18194
4.1107
4.03778
3.9638
1.40001
1.40001
1.40001
1.40001
1.40001
1.40001
1.40001
1.40001
1.40001
1.40001
1.40001
1.40001
1.40001
1.40001
1.40001
1.40001
1.40001
1.40001
1.40001
1.40001
1.40001
1.40001
1.40001
1.40001
1.40001
1.40001
1.40001
1.40001
1.40001
1.40001
1.40001
1.40001
1.40001
1.40001
1.40001
1.40001
1.40001
1.40001
1.40001
1.40001
1.40001
1.40001
1.40001
1.40001
1.40017
1.68874
3.95482
4.79016
4.71272
4.65033
4.58975
4.52829
4.46508
4.40064
4.33474
4.26716
4.19814
4.12787
4.05611
3.98334
1.40001
1.40001
1.40001
1.40001
1.40001
1.40001
1.40001
1.40001
1.40001
1.40001
1.40001
1.40001
1.40001
1.40001
1.40001
1.40001
1.40001
1.40001
1.40001
1.40001
1.40001
1.40001
1.40001
1.40001
1.40001
1.40001
1.40001
1.40001
1.40001
1.40001
1.40001
1.40001
1.40001
1.40001
1.40001
1.40001
1.40001
1.40001
1.40001
1.40001
1.40001
1.40001
1.40001
1.40001
1.40001
1.41015
2.48323
4.53078
4.70656
4.66004
4.60503
4.54217
4.47814
4.41332
4.34753
4.28039
4.21178
4.14231
4.07238
4.00161
1.40001
1.40001
1.40001
1.40001
1.40001
1.40001
1.40001
1.40001
1.40001
1.40001
1.40001
1.40001
1.40001
1.40001
1.40001
1.40001
1.40001
1.40001
1.40001
1.40001
1.40001
1.40001
1.40001
1.40001
1.40001
1.40001
1.40001
1.40001
1.40001
1.40001
1.40001
1.40001
1.40001
1.40001
1.40001
1.40001
1.40001
1.40001
1.40001
1.40001
1.40001
1.40001
1.40001
1.40001
1.40001
1.40007
1.55835
3.5951
4.71804
4.68738
4.6331
4.5673
4.5022
4.43538
4.36738
4.2988
4.22965
4.16039
4.09168
4.02287
1.40001
1.40001
1.40001
1.40001
1.40001
1.40001
1.40001
1.40001
1.40001
1.40001
1.40001
1.40001
1.40001
1.40001
1.40001
1.40001
1.40001
1.40001
1.40001
1.40001
1.40001
1.40001
1.40001
1.40001
1.40001
1.40001
1.40001
1.40001
1.40001
1.40001
1.40001
1.40001
1.40001
1.40001
1.40001
1.40001
1.40001
1.40001
1.40001
1.40001
1.40001
1.40001
1.40001
1.40001
1.40001
1.40001
1.40324
2.13175
4.30872
4.69585
4.63706
4.58008
4.51595
4.44887
4.38066
4.31257
4.24499
4.17751
4.10988
4.04236
1.40001
1.40001
1.40001
1.40001
1.40001
1.40001
1.40001
1.40001
1.40001
1.40001
1.40001
1.40001
1.40001
1.40001
1.40001
1.40001
1.40001
1.40001
1.40001
1.40001
1.40001
1.40001
1.40001
1.40001
1.40001
1.40001
1.40001
1.40001
1.40001
1.40001
1.40001
1.40001
1.40001
1.40001
1.40001
1.40001
1.40001
1.40001
1.40001
1.40001
1.40001
1.40001
1.40001
1.40001
1.40001
1.40001
1.40002
1.4692
3.07075
4.60781
4.64733
4.59774
4.53716
4.47201
4.40507
4.33789
4.27092
4.20381
4.13607
4.06806
1.40001
1.40001
1.40001
1.40001
1.40001
1.40001
1.40001
1.40001
1.40001
1.40001
1.40001
1.40001
1.40001
1.40001
1.40001
1.40001
1.40001
1.40001
1.40001
1.40001
1.40001
1.40001
1.40001
1.40001
1.40001
1.40001
1.40001
1.40001
1.40001
1.40001
1.40001
1.40001
1.40001
1.40001
1.40001
1.40001
1.40001
1.40001