/*--------------------------------*- C++ -*----------------------------------*\
  =========                 |
  \\      /  F ield         | OpenFOAM: The Open Source CFD Toolbox
   \\    /   O peration     | Website:  https://openfoam.org
    \\  /    A nd           | Version:  7
     \\/     M anipulation  |
\*---------------------------------------------------------------------------*/
FoamFile
{
    version     2.0;
    format      ascii;
    class       volScalarField;
    location    "1.4";
    object      rho;
}
// * * * * * * * * * * * * * * * * * * * * * * * * * * * * * * * * * * * * * //

dimensions      [1 -3 0 0 0 0 0];

internalField   nonuniform List<scalar> 
64512
(
1.40001
1.40001
1.40001
1.40001
1.40001
1.40001
1.40001
1.40001
1.40001
1.40001
1.40001
1.40001
1.40001
1.40001
1.40001
1.40001
1.40001
1.40001
1.40001
1.40001
1.40001
1.40001
1.40001
1.40001
1.40001
1.40001
1.40001
1.40001
1.40001
1.40001
1.40001
1.40001
1.40001
1.40001
1.40001
1.40001
1.40001
1.40001
1.40001
1.40001
1.40001
1.40001
1.40001
1.40001
1.40001
1.40001
1.40001
1.40001
1.40001
1.40001
1.40001
1.73934
4.64017
5.48629
5.48288
5.50183
5.51986
5.53627
5.55396
5.57649
5.60309
5.62996
5.65251
5.66738
5.67314
5.67292
5.67439
5.68604
5.71158
5.74492
5.77646
5.80456
5.82434
5.8359
5.83929
5.83284
5.82382
5.82077
5.83069
5.85123
5.87573
5.89641
5.90791
5.91047
5.90747
5.90401
5.90422
5.90956
5.91698
5.92006
5.91103
5.88285
5.83345
5.77441
5.73077
5.71534
1.40001
1.40001
1.40001
1.40001
1.40001
1.40001
1.40001
1.40001
1.40001
1.40001
1.40001
1.40001
1.40001
1.40001
1.40001
1.40001
1.40001
1.40001
1.40001
1.40001
1.40001
1.40001
1.40001
1.40001
1.40001
1.40001
1.40001
1.40001
1.40001
1.40001
1.40001
1.40001
1.40001
1.40001
1.40001
1.40001
1.40001
1.40001
1.40001
1.40001
1.40001
1.40001
1.40001
1.40001
1.40001
1.40001
1.40001
1.40001
1.40001
1.40001
1.40001
1.72811
4.62328
5.4821
5.48386
5.50194
5.51894
5.53464
5.55213
5.57472
5.60171
5.62894
5.65168
5.66675
5.67291
5.67311
5.67483
5.68657
5.71203
5.74511
5.77653
5.80463
5.82442
5.8358
5.8388
5.83167
5.82239
5.81952
5.82994
5.85065
5.87497
5.89523
5.90657
5.90931
5.9068
5.90385
5.90439
5.90947
5.91606
5.91845
5.90916
5.88117
5.83192
5.77298
5.72925
5.71374
1.40001
1.40001
1.40001
1.40001
1.40001
1.40001
1.40001
1.40001
1.40001
1.40001
1.40001
1.40001
1.40001
1.40001
1.40001
1.40001
1.40001
1.40001
1.40001
1.40001
1.40001
1.40001
1.40001
1.40001
1.40001
1.40001
1.40001
1.40001
1.40001
1.40001
1.40001
1.40001
1.40001
1.40001
1.40001
1.40001
1.40001
1.40001
1.40001
1.40001
1.40001
1.40001
1.40001
1.40001
1.40001
1.40001
1.40001
1.40001
1.40001
1.40001
1.40001
1.70697
4.59607
5.47912
5.48354
5.5003
5.51602
5.53126
5.54896
5.57212
5.59987
5.62756
5.65038
5.66563
5.67244
5.67336
5.6755
5.68761
5.71309
5.74558
5.77641
5.80418
5.82374
5.83507
5.83783
5.83024
5.82091
5.81821
5.82882
5.84922
5.87292
5.89264
5.9041
5.90747
5.90591
5.90387
5.90475
5.90913
5.91442
5.91581
5.90621
5.87842
5.82914
5.77022
5.72641
5.71078
1.40001
1.40001
1.40001
1.40001
1.40001
1.40001
1.40001
1.40001
1.40001
1.40001
1.40001
1.40001
1.40001
1.40001
1.40001
1.40001
1.40001
1.40001
1.40001
1.40001
1.40001
1.40001
1.40001
1.40001
1.40001
1.40001
1.40001
1.40001
1.40001
1.40001
1.40001
1.40001
1.40001
1.40001
1.40001
1.40001
1.40001
1.40001
1.40001
1.40001
1.40001
1.40001
1.40001
1.40001
1.40001
1.40001
1.40001
1.40001
1.40001
1.40001
1.40001
1.67986
4.55576
5.47393
5.48258
5.49796
5.51213
5.5268
5.54497
5.56918
5.5978
5.6256
5.64803
5.66332
5.67102
5.67303
5.67607
5.68893
5.71451
5.74609
5.77592
5.80306
5.82219
5.83335
5.83591
5.82811
5.81924
5.81706
5.82789
5.84744
5.86981
5.88859
5.90015
5.90434
5.90412
5.90346
5.90498
5.90858
5.91225
5.91211
5.90182
5.874
5.82468
5.76592
5.72231
5.70677
1.40001
1.40001
1.40001
1.40001
1.40001
1.40001
1.40001
1.40001
1.40001
1.40001
1.40001
1.40001
1.40001
1.40001
1.40001
1.40001
1.40001
1.40001
1.40001
1.40001
1.40001
1.40001
1.40001
1.40001
1.40001
1.40001
1.40001
1.40001
1.40001
1.40001
1.40001
1.40001
1.40001
1.40001
1.40001
1.40001
1.40001
1.40001
1.40001
1.40001
1.40001
1.40001
1.40001
1.40001
1.40001
1.40001
1.40001
1.40001
1.40001
1.40001
1.40001
1.64754
4.50127
5.46875
5.47898
5.49431
5.50752
5.52208
5.54123
5.56664
5.59581
5.62318
5.64473
5.65983
5.66846
5.67196
5.67651
5.69059
5.71619
5.7466
5.77507
5.80113
5.81951
5.83022
5.83278
5.82523
5.8175
5.81627
5.82733
5.84548
5.86576
5.88303
5.89448
5.89973
5.90127
5.90243
5.90487
5.90784
5.9098
5.90778
5.89646
5.8682
5.81877
5.76035
5.71724
5.70204
1.40001
1.40001
1.40001
1.40001
1.40001
1.40001
1.40001
1.40001
1.40001
1.40001
1.40001
1.40001
1.40001
1.40001
1.40001
1.40001
1.40001
1.40001
1.40001
1.40001
1.40001
1.40001
1.40001
1.40001
1.40001
1.40001
1.40001
1.40001
1.40001
1.40001
1.40001
1.40001
1.40001
1.40001
1.40001
1.40001
1.40001
1.40001
1.40001
1.40001
1.40001
1.40001
1.40001
1.40001
1.40001
1.40001
1.40001
1.40001
1.40001
1.40001
1.40001
1.60536
4.43117
5.46867
5.48029
5.4927
5.50315
5.51761
5.53792
5.56478
5.59431
5.62058
5.64067
5.65516
5.66458
5.66993
5.67642
5.69142
5.71668
5.74577
5.77311
5.79816
5.81565
5.8256
5.82821
5.82128
5.8152
5.81553
5.82694
5.84364
5.86149
5.87675
5.88754
5.89355
5.89693
5.9002
5.90377
5.90638
5.90679
5.90293
5.8904
5.86138
5.81175
5.75379
5.7114
5.69672
1.40001
1.40001
1.40001
1.40001
1.40001
1.40001
1.40001
1.40001
1.40001
1.40001
1.40001
1.40001
1.40001
1.40001
1.40001
1.40001
1.40001
1.40001
1.40001
1.40001
1.40001
1.40001
1.40001
1.40001
1.40001
1.40001
1.40001
1.40001
1.40001
1.40001
1.40001
1.40001
1.40001
1.40001
1.40001
1.40001
1.40001
1.40001
1.40001
1.40001
1.40001
1.40001
1.40001
1.40001
1.40001
1.40001
1.40001
1.40001
1.40001
1.40001
1.40001
1.54927
4.33941
5.47491
5.48465
5.49316
5.5016
5.51557
5.53629
5.56341
5.59167
5.61581
5.63461
5.64931
5.66025
5.66773
5.67572
5.69097
5.71552
5.74342
5.77023
5.79458
5.81123
5.8202
5.82259
5.81614
5.81148
5.81386
5.8259
5.84157
5.8572
5.87035
5.88001
5.88625
5.89116
5.89637
5.90108
5.90376
5.90306
5.89756
5.88382
5.85398
5.80406
5.7465
5.70483
5.69074
1.40001
1.40001
1.40001
1.40001
1.40001
1.40001
1.40001
1.40001
1.40001
1.40001
1.40001
1.40001
1.40001
1.40001
1.40001
1.40001
1.40001
1.40001
1.40001
1.40001
1.40001
1.40001
1.40001
1.40001
1.40001
1.40001
1.40001
1.40001
1.40001
1.40001
1.40001
1.40001
1.40001
1.40001
1.40001
1.40001
1.40001
1.40001
1.40001
1.40001
1.40001
1.40001
1.40001
1.40001
1.40001
1.40001
1.40001
1.40001
1.40001
1.40001
1.40001
1.46265
4.20323
5.49146
5.48816
5.49014
5.49742
5.51205
5.53409
5.56108
5.58716
5.6091
5.62741
5.64349
5.65661
5.66595
5.67436
5.68885
5.71216
5.7392
5.76607
5.79021
5.80646
5.8145
5.81623
5.80999
5.80633
5.81063
5.82352
5.83883
5.85293
5.86431
5.87268
5.87859
5.88436
5.8909
5.89652
5.8995
5.89829
5.8917
5.87693
5.84631
5.79603
5.7387
5.69754
5.68402
1.40001
1.40001
1.40001
1.40001
1.40001
1.40001
1.40001
1.40001
1.40001
1.40001
1.40001
1.40001
1.40001
1.40001
1.40001
1.40001
1.40001
1.40001
1.40001
1.40001
1.40001
1.40001
1.40001
1.40001
1.40001
1.40001
1.40001
1.40001
1.40001
1.40001
1.40001
1.40001
1.40001
1.40001
1.40001
1.40001
1.40001
1.40001
1.40001
1.40001
1.40001
1.40001
1.40001
1.40001
1.40001
1.40001
1.40001
1.40001
1.40001
1.40001
1.40001
1.40302
4.04496
5.48943
5.47857
5.48075
5.49127
5.50876
5.53197
5.55697
5.57963
5.60017
5.61961
5.63824
5.65379
5.66463
5.67268
5.68581
5.70763
5.73374
5.76077
5.78493
5.80127
5.80875
5.80945
5.80313
5.79997
5.80575
5.81947
5.83499
5.84825
5.85845
5.86581
5.87104
5.87683
5.88386
5.88997
5.8933
5.89213
5.8852
5.86978
5.83857
5.78791
5.73057
5.68966
5.67656
1.40001
1.40001
1.40001
1.40001
1.40001
1.40001
1.40001
1.40001
1.40001
1.40001
1.40001
1.40001
1.40001
1.40001
1.40001
1.40001
1.40001
1.40001
1.40001
1.40001
1.40001
1.40001
1.40001
1.40001
1.40001
1.40001
1.40001
1.40001
1.40001
1.40001
1.40001
1.40001
1.40001
1.40001
1.40001
1.40001
1.40001
1.40001
1.40001
1.40001
1.40001
1.40001
1.40001
1.40001
1.40001
1.40001
1.40001
1.40001
1.40001
1.40001
1.40001
1.40003
3.84636
5.47175
5.46942
5.47224
5.48541
5.50392
5.52654
5.54912
5.57014
5.59153
5.61326
5.63441
5.65178
5.66322
5.67034
5.68234
5.70304
5.72808
5.75482
5.77867
5.79511
5.80255
5.80224
5.7957
5.7929
5.79966
5.814
5.82991
5.84287
5.85258
5.85947
5.86403
5.86912
5.8757
5.88177
5.88532
5.88459
5.87793
5.86227
5.83067
5.7796
5.72196
5.68097
5.66814
1.40001
1.40001
1.40001
1.40001
1.40001
1.40001
1.40001
1.40001
1.40001
1.40001
1.40001
1.40001
1.40001
1.40001
1.40001
1.40001
1.40001
1.40001
1.40001
1.40001
1.40001
1.40001
1.40001
1.40001
1.40001
1.40001
1.40001
1.40001
1.40001
1.40001
1.40001
1.40001
1.40001
1.40001
1.40001
1.40001
1.40001
1.40001
1.40001
1.40001
1.40001
1.40001
1.40001
1.40001
1.40001
1.40001
1.40001
1.40001
1.40001
1.40001
1.40001
1.40001
3.63623
5.43841
5.46022
5.4641
5.47912
5.4976
5.51894
5.53972
5.56108
5.58446
5.6086
5.63136
5.6494
5.6608
5.66742
5.67924
5.6994
5.72351
5.74927
5.77209
5.78804
5.79536
5.79419
5.78765
5.78535
5.79281
5.80757
5.82373
5.83662
5.8463
5.85317
5.85722
5.86121
5.86664
5.87209
5.87574
5.87567
5.8697
5.85419
5.82244
5.77106
5.71298
5.67175
5.65908
1.40001
1.40001
1.40001
1.40001
1.40001
1.40001
1.40001
1.40001
1.40001
1.40001
1.40001
1.40001
1.40001
1.40001
1.40001
1.40001
1.40001
1.40001
1.40001
1.40001
1.40001
1.40001
1.40001
1.40001
1.40001
1.40001
1.40001
1.40001
1.40001
1.40001
1.40001
1.40001
1.40001
1.40001
1.40001
1.40001
1.40001
1.40001
1.40001
1.40001
1.40001
1.40001
1.40001
1.40001
1.40001
1.40001
1.40001
1.40001
1.40001
1.40001
1.40001
1.40001
3.41595
5.39454
5.45338
5.45741
5.4734
5.49074
5.5106
5.53084
5.55401
5.57942
5.60517
5.62822
5.64641
5.65793
5.66487
5.677
5.69673
5.72044
5.74477
5.76576
5.78034
5.7868
5.7848
5.77851
5.77694
5.78513
5.80033
5.81659
5.82942
5.83926
5.84631
5.85008
5.85296
5.85707
5.86155
5.86514
5.86571
5.86051
5.84536
5.81356
5.76184
5.70325
5.66172
5.6491
1.40001
1.40001
1.40001
1.40001
1.40001
1.40001
1.40001
1.40001
1.40001
1.40001
1.40001
1.40001
1.40001
1.40001
1.40001
1.40001
1.40001
1.40001
1.40001
1.40001
1.40001
1.40001
1.40001
1.40001
1.40001
1.40001
1.40001
1.40001
1.40001
1.40001
1.40001
1.40001
1.40001
1.40001
1.40001
1.40001
1.40001
1.40001
1.40001
1.40001
1.40001
1.40001
1.40001
1.40001
1.40001
1.40001
1.40001
1.40001
1.40001
1.40001
1.40001
1.40001
3.18425
5.34059
5.44962
5.45267
5.46878
5.48498
5.50404
5.52461
5.54909
5.57511
5.60121
5.62446
5.64331
5.6555
5.66326
5.6755
5.69422
5.71768
5.74095
5.75987
5.77266
5.77761
5.77454
5.76835
5.7675
5.77656
5.79233
5.80863
5.82133
5.83123
5.83846
5.84205
5.84409
5.84697
5.8504
5.85364
5.8546
5.8501
5.83541
5.80369
5.75175
5.69272
5.65093
5.63832
1.40001
1.40001
1.40001
1.40001
1.40001
1.40001
1.40001
1.40001
1.40001
1.40001
1.40001
1.40001
1.40001
1.40001
1.40001
1.40001
1.40001
1.40001
1.40001
1.40001
1.40001
1.40001
1.40001
1.40001
1.40001
1.40001
1.40001
1.40001
1.40001
1.40001
1.40001
1.40001
1.40001
1.40001
1.40001
1.40001
1.40001
1.40001
1.40001
1.40001
1.40001
1.40001
1.40001
1.40001
1.40001
1.40001
1.40001
1.40001
1.40001
1.40001
1.40001
1.40001
2.93904
5.27566
5.44709
5.44944
5.46542
5.48165
5.50048
5.5209
5.54511
5.57097
5.59707
5.62134
5.64102
5.65368
5.66221
5.67377
5.69096
5.71398
5.73697
5.7543
5.76538
5.76871
5.76423
5.75748
5.75686
5.76685
5.78321
5.79955
5.81233
5.82222
5.82955
5.83304
5.83454
5.83636
5.83879
5.84146
5.84248
5.83848
5.82428
5.79285
5.74089
5.68145
5.63927
5.62652
1.40001
1.40001
1.40001
1.40001
1.40001
1.40001
1.40001
1.40001
1.40001
1.40001
1.40001
1.40001
1.40001
1.40001
1.40001
1.40001
1.40001
1.40001
1.40001
1.40001
1.40001
1.40001
1.40001
1.40001
1.40001
1.40001
1.40001
1.40001
1.40001
1.40001
1.40001
1.40001
1.40001
1.40001
1.40001
1.40001
1.40001
1.40001
1.40001
1.40001
1.40001
1.40001
1.40001
1.40001
1.40001
1.40001
1.40001
1.40001
1.40001
1.40001
1.40001
1.40001
2.68303
5.19341
5.44365
5.44601
5.46291
5.48038
5.49944
5.52005
5.54296
5.56854
5.59453
5.61911
5.63909
5.65177
5.66081
5.67096
5.68676
5.70838
5.73089
5.74773
5.75763
5.7598
5.75404
5.74626
5.74519
5.75579
5.77268
5.78929
5.80234
5.81223
5.8196
5.82298
5.82411
5.82505
5.82661
5.82849
5.82919
5.82539
5.8117
5.78089
5.72919
5.66934
5.6265
5.61334
1.40001
1.40001
1.40001
1.40001
1.40001
1.40001
1.40001
1.40001
1.40001
1.40001
1.40001
1.40001
1.40001
1.40001
1.40001
1.40001
1.40001
1.40001
1.40001
1.40001
1.40001
1.40001
1.40001
1.40001
1.40001
1.40001
1.40001
1.40001
1.40001
1.40001
1.40001
1.40001
1.40001
1.40001
1.40001
1.40001
1.40001
1.40001
1.40001
1.40001
1.40001
1.40001
1.40001
1.40001
1.40001
1.40001
1.40001
1.40001
1.40001
1.40001
1.40001
1.40001
2.42142
5.08296
5.44397
5.44605
5.46318
5.48075
5.49993
5.52078
5.54358
5.5682
5.59351
5.61753
5.63705
5.64952
5.65847
5.66641
5.67972
5.69918
5.72089
5.73822
5.74813
5.75023
5.74401
5.73531
5.73333
5.7438
5.76072
5.77746
5.79079
5.80073
5.80819
5.81155
5.81257
5.81301
5.81391
5.8148
5.81474
5.81074
5.79749
5.76758
5.71643
5.65617
5.61232
5.59842
1.40001
1.40001
1.40001
1.40001
1.40001
1.40001
1.40001
1.40001
1.40001
1.40001
1.40001
1.40001
1.40001
1.40001
1.40001
1.40001
1.40001
1.40001
1.40001
1.40001
1.40001
1.40001
1.40001
1.40001
1.40001
1.40001
1.40001
1.40001
1.40001
1.40001
1.40001
1.40001
1.40001
1.40001
1.40001
1.40001
1.40001
1.40001
1.40001
1.40001
1.40001
1.40001
1.40001
1.40001
1.40001
1.40001
1.40001
1.40001
1.40001
1.40001
1.40001
1.40001
2.16392
4.94312
5.45358
5.4493
5.46637
5.48316
5.50224
5.52282
5.54469
5.56838
5.59263
5.61541
5.63358
5.64559
5.65358
5.65933
5.6698
5.68688
5.70755
5.72555
5.73645
5.73931
5.73338
5.72395
5.72082
5.73042
5.74691
5.7638
5.77772
5.78806
5.79567
5.79899
5.79993
5.8001
5.80032
5.80014
5.79893
5.79424
5.78146
5.75273
5.70243
5.64184
5.59672
5.58181
1.40001
1.40001
1.40001
1.40001
1.40001
1.40001
1.40001
1.40001
1.40001
1.40001
1.40001
1.40001
1.40001
1.40001
1.40001
1.40001
1.40001
1.40001
1.40001
1.40001
1.40001
1.40001
1.40001
1.40001
1.40001
1.40001
1.40001
1.40001
1.40001
1.40001
1.40001
1.40001
1.40001
1.40001
1.40001
1.40001
1.40001
1.40001
1.40001
1.40001
1.40001
1.40001
1.40001
1.40001
1.40001
1.40001
1.40001
1.40001
1.40001
1.40001
1.40001
1.40001
1.91263
4.78018
5.4745
5.46053
5.47336
5.48465
5.50104
5.521
5.54293
5.56626
5.58953
5.61118
5.62819
5.64015
5.64708
5.65049
5.65727
5.67098
5.68999
5.70866
5.72163
5.72638
5.72196
5.71271
5.709
5.71759
5.73326
5.74968
5.76362
5.77392
5.78138
5.78463
5.7857
5.78591
5.78571
5.78467
5.78209
5.77644
5.76392
5.73632
5.68683
5.62583
5.57932
5.56327
1.40001
1.40001
1.40001
1.40001
1.40001
1.40001
1.40001
1.40001
1.40001
1.40001
1.40001
1.40001
1.40001
1.40001
1.40001
1.40001
1.40001
1.40001
1.40001
1.40001
1.40001
1.40001
1.40001
1.40001
1.40001
1.40001
1.40001
1.40001
1.40001
1.40001
1.40001
1.40001
1.40001
1.40001
1.40001
1.40001
1.40001
1.40001
1.40001
1.40001
1.40001
1.40001
1.40001
1.40001
1.40001
1.40001
1.40001
1.40001
1.40001
1.40001
1.40001
1.40001
1.68465
4.58121
5.49362
5.46542
5.47611
5.48444
5.49944
5.51908
5.54075
5.56271
5.58365
5.60287
5.61816
5.62982
5.63549
5.63753
5.64204
5.6533
5.67118
5.69079
5.70621
5.71322
5.71073
5.70197
5.69741
5.70408
5.71827
5.73376
5.74761
5.75795
5.76531
5.76865
5.76989
5.77019
5.76965
5.76783
5.76394
5.75721
5.74471
5.71797
5.66915
5.60779
5.56008
5.54308
1.40001
1.40001
1.40001
1.40001
1.40001
1.40001
1.40001
1.40001
1.40001
1.40001
1.40001
1.40001
1.40001
1.40001
1.40001
1.40001
1.40001
1.40001
1.40001
1.40001
1.40001
1.40001
1.40001
1.40001
1.40001
1.40001
1.40001
1.40001
1.40001
1.40001
1.40001
1.40001
1.40001
1.40001
1.40001
1.40001
1.40001
1.40001
1.40001
1.40001
1.40001
1.40001
1.40001
1.40001
1.40001
1.40001
1.40001
1.40001
1.40001
1.40001
1.40001
1.40001
1.49644
4.31134
5.46407
5.44794
5.46096
5.47339
5.49012
5.50957
5.53056
5.55174
5.57209
5.59078
5.60674
5.61961
5.62491
5.62596
5.62771
5.63506
5.6498
5.66886
5.68639
5.69636
5.69711
5.69017
5.68566
5.69075
5.70346
5.71772
5.73091
5.74088
5.74781
5.75097
5.75209
5.75237
5.75176
5.74941
5.74442
5.73674
5.72406
5.69767
5.64903
5.58711
5.53836
5.5206
1.40001
1.40001
1.40001
1.40001
1.40001
1.40001
1.40001
1.40001
1.40001
1.40001
1.40001
1.40001
1.40001
1.40001
1.40001
1.40001
1.40001
1.40001
1.40001
1.40001
1.40001
1.40001
1.40001
1.40001
1.40001
1.40001
1.40001
1.40001
1.40001
1.40001
1.40001
1.40001
1.40001
1.40001
1.40001
1.40001
1.40001
1.40001
1.40001
1.40001
1.40001
1.40001
1.40001
1.40001
1.40001
1.40001
1.40001
1.40001
1.40001
1.40001
1.40001
1.40001
1.40456
3.95642
5.40091
5.41979
5.43845
5.45873
5.47878
5.49853
5.51853
5.53849
5.55814
5.57621
5.59291
5.60559
5.6101
5.61061
5.61122
5.61676
5.62965
5.64826
5.667
5.67985
5.68353
5.67839
5.67439
5.67788
5.68891
5.70158
5.71352
5.72271
5.7288
5.73133
5.73206
5.73221
5.73161
5.7288
5.72303
5.71459
5.70161
5.67517
5.62636
5.56377
5.51419
5.49597
1.40001
1.40001
1.40001
1.40001
1.40001
1.40001
1.40001
1.40001
1.40001
1.40001
1.40001
1.40001
1.40001
1.40001
1.40001
1.40001
1.40001
1.40001
1.40001
1.40001
1.40001
1.40001
1.40001
1.40001
1.40001
1.40001
1.40001
1.40001
1.40001
1.40001
1.40001
1.40001
1.40001
1.40001
1.40001
1.40001
1.40001
1.40001
1.40001
1.40001
1.40001
1.40001
1.40001
1.40001
1.40001
1.40001
1.40001
1.40001
1.40001
1.40001
1.40001
1.40001
1.40003
3.56253
5.32927
5.39178
5.41325
5.4383
5.46097
5.48241
5.50281
5.52283
5.54297
5.56158
5.57922
5.59164
5.59605
5.59646
5.5966
5.60122
5.61252
5.6299
5.64857
5.66307
5.66879
5.66616
5.66306
5.66532
5.67456
5.68536
5.69549
5.70345
5.70822
5.70967
5.70989
5.70983
5.70914
5.70604
5.69985
5.69089
5.67747
5.65048
5.60088
5.53713
5.48652
5.46775
1.40001
1.40001
1.40001
1.40001
1.40001
1.40001
1.40001
1.40001
1.40001
1.40001
1.40001
1.40001
1.40001
1.40001
1.40001
1.40001
1.40001
1.40001
1.40001
1.40001
1.40001
1.40001
1.40001
1.40001
1.40001
1.40001
1.40001
1.40001
1.40001
1.40001
1.40001
1.40001
1.40001
1.40001
1.40001
1.40001
1.40001
1.40001
1.40001
1.40001
1.40001
1.40001
1.40001
1.40001
1.40001
1.40001
1.40001
1.40001
1.40001
1.40001
1.40001
1.40001
1.40001
3.14418
5.24493
5.38102
5.40052
5.42472
5.44836
5.46986
5.49056
5.51064
5.53079
5.54922
5.5664
5.57796
5.58241
5.58327
5.58396
5.58867
5.599
5.61492
5.63244
5.64681
5.65352
5.65334
5.65095
5.65235
5.65984
5.66871
5.67674
5.68302
5.68598
5.68604
5.68574
5.68515
5.68405
5.68047
5.67383
5.66436
5.65036
5.62266
5.57219
5.50722
5.45556
5.43626
1.40001
1.40001
1.40001
1.40001
1.40001
1.40001
1.40001
1.40001
1.40001
1.40001
1.40001
1.40001
1.40001
1.40001
1.40001
1.40001
1.40001
1.40001
1.40001
1.40001
1.40001
1.40001
1.40001
1.40001
1.40001
1.40001
1.40001
1.40001
1.40001
1.40001
1.40001
1.40001
1.40001
1.40001
1.40001
1.40001
1.40001
1.40001
1.40001
1.40001
1.40001
1.40001
1.40001
1.40001
1.40001
1.40001
1.40001
1.40001
1.40001
1.40001
1.40001
1.40001
1.40001
2.71813
5.13305
5.39109
5.39673
5.41563
5.43673
5.45726
5.47855
5.49943
5.5196
5.53755
5.55359
5.56412
5.56888
5.57088
5.57316
5.57869
5.58863
5.60322
5.61908
5.632
5.63847
5.63968
5.63744
5.63842
5.64401
5.651
5.65706
5.66114
5.66197
5.66052
5.65945
5.65803
5.65627
5.65213
5.64506
5.63516
5.62043
5.5917
5.53988
5.47304
5.41966
5.39922
1.40001
1.40001
1.40001
1.40001
1.40001
1.40001
1.40001
1.40001
1.40001
1.40001
1.40001
1.40001
1.40001
1.40001
1.40001
1.40001
1.40001
1.40001
1.40001
1.40001
1.40001
1.40001
1.40001
1.40001
1.40001
1.40001
1.40001
1.40001
1.40001
1.40001
1.40001
1.40001
1.40001
1.40001
1.40001
1.40001
1.40001
1.40001
1.40001
1.40001
1.40001
1.40001
1.40001
1.40001
1.40001
1.40001
1.40001
1.40001
1.40001
1.40001
1.40001
1.40001
1.40001
2.27926
4.95498
5.43869
5.42613
5.43215
5.44334
5.45851
5.47732
5.49768
5.51647
5.53179
5.54471
5.5529
5.55735
5.56054
5.56441
5.57045
5.57966
5.59275
5.60714
5.61852
5.62427
5.62562
5.62279
5.62267
5.62632
5.63164
5.6358
5.63784
5.63633
5.63305
5.63073
5.62821
5.62544
5.62034
5.61223
5.60123
5.58522
5.55537
5.50248
5.43413
5.37912
5.35766
1.40001
1.40001
1.40001
1.40001
1.40001
1.40001
1.40001
1.40001
1.40001
1.40001
1.40001
1.40001
1.40001
1.40001
1.40001
1.40001
1.40001
1.40001
1.40001
1.40001
1.40001
1.40001
1.40001
1.40001
1.40001
1.40001
1.40001
1.40001
1.40001
1.40001
1.40001
1.40001
1.40001
1.40001
1.40001
1.40001
1.40001
1.40001
1.40001
1.40001
1.40001
1.40001
1.40001
1.40001
1.40001
1.40001
1.40001
1.40001
1.40001
1.40001
1.40001
1.40001
1.40001
1.85391
4.78048
5.49778
5.43644
5.44035
5.44484
5.4561
5.47305
5.49274
5.51129
5.52674
5.53896
5.54587
5.54986
5.55338
5.55787
5.56361
5.57136
5.58234
5.59517
5.60573
5.61098
5.61127
5.60754
5.60555
5.60686
5.61026
5.61234
5.61257
5.60888
5.60363
5.59928
5.59516
5.59095
5.5846
5.57518
5.56288
5.54556
5.51447
5.45993
5.3889
5.331
5.30723
1.40001
1.40001
1.40001
1.40001
1.40001
1.40001
1.40001
1.40001
1.40001
1.40001
1.40001
1.40001
1.40001
1.40001
1.40001
1.40001
1.40001
1.40001
1.40001
1.40001
1.40001
1.40001
1.40001
1.40001
1.40001
1.40001
1.40001
1.40001
1.40001
1.40001
1.40001
1.40001
1.40001
1.40001
1.40001
1.40001
1.40001
1.40001
1.40001
1.40001
1.40001
1.40001
1.40001
1.40001
1.40001
1.40001
1.40001
1.40001
1.40001
1.40001
1.40001
1.40001
1.40001
1.50374
4.41042
5.4848
5.44728
5.45483
5.45866
5.46449
5.47552
5.49082
5.5062
5.52048
5.53167
5.53793
5.54154
5.54493
5.54945
5.55454
5.56054
5.56872
5.57977
5.59017
5.59583
5.59563
5.59103
5.5871
5.58555
5.58637
5.58638
5.58476
5.57893
5.57162
5.56477
5.55863
5.55256
5.54449
5.53298
5.51817
5.49815
5.4647
5.40826
5.33507
5.27478
5.24975
1.40001
1.40001
1.40001
1.40001
1.40001
1.40001
1.40001
1.40001
1.40001
1.40001
1.40001
1.40001
1.40001
1.40001
1.40001
1.40001
1.40001
1.40001
1.40001
1.40001
1.40001
1.40001
1.40001
1.40001
1.40001
1.40001
1.40001
1.40001
1.40001
1.40001
1.40001
1.40001
1.40001
1.40001
1.40001
1.40001
1.40001
1.40001
1.40001
1.40001
1.40001
1.40001
1.40001
1.40001
1.40001
1.40001
1.40001
1.40001
1.40001
1.40001
1.40001
1.40001
1.40001
1.40288
3.91287
5.3568
5.38505
5.4178
5.43936
5.45344
5.46523
5.47803
5.49196
5.50725
5.52089
5.52963
5.53555
5.53986
5.54384
5.54715
5.55007
5.55404
5.56176
5.57072
5.57657
5.57647
5.57144
5.5664
5.56209
5.56019
5.55827
5.55444
5.54645
5.53679
5.52714
5.51855
5.51003
5.49946
5.48485
5.46689
5.44423
5.40875
5.34983
5.27184
5.20538
5.17508
1.40001
1.40001
1.40001
1.40001
1.40001
1.40001
1.40001
1.40001
1.40001
1.40001
1.40001
1.40001
1.40001
1.40001
1.40001
1.40001
1.40001
1.40001
1.40001
1.40001
1.40001
1.40001
1.40001
1.40001
1.40001
1.40001
1.40001
1.40001
1.40001
1.40001
1.40001
1.40001
1.40001
1.40001
1.40001
1.40001
1.40001
1.40001
1.40001
1.40001
1.40001
1.40001
1.40001
1.40001
1.40001
1.40001
1.40001
1.40001
1.40001
1.40001
1.40001
1.40001
1.40001
1.40001
3.36849
5.24113
5.3472
5.39614
5.42128
5.4367
5.4489
5.46071
5.47389
5.48828
5.50222
5.51225
5.52002
5.52636
5.53172
5.53492
5.5361
5.53703
5.54166
5.54807
5.55313
5.55312
5.54816
5.54265
5.53677
5.53247
5.52811
5.5216
5.51119
5.49891
5.48631
5.47503
5.46363
5.44955
5.431
5.40847
5.38043
5.33959
5.27452
5.19012
5.1174
5.08647
1.40001
1.40001
1.40001
1.40001
1.40001
1.40001
1.40001
1.40001
1.40001
1.40001
1.40001
1.40001
1.40001
1.40001
1.40001
1.40001
1.40001
1.40001
1.40001
1.40001
1.40001
1.40001
1.40001
1.40001
1.40001
1.40001
1.40001
1.40001
1.40001
1.40001
1.40001
1.40001
1.40001
1.40001
1.40001
1.40001
1.40001
1.40001
1.40001
1.40001
1.40001
1.40001
1.40001
1.40001
1.40001
1.40001
1.40001
1.40001
1.40001
1.40001
1.40001
1.40001
1.40001
1.40001
2.82959
5.0873
5.33907
5.37797
5.40334
5.4204
5.4316
5.44331
5.45577
5.46892
5.48254
5.49362
5.50261
5.51001
5.51547
5.51783
5.51772
5.51728
5.52023
5.52452
5.5279
5.52714
5.52192
5.5155
5.50865
5.5025
5.49611
5.48711
5.47414
5.45888
5.44311
5.42886
5.41368
5.39467
5.37113
5.342
5.30661
5.25978
5.18921
5.09575
5.00692
4.95559
1.40001
1.40001
1.40001
1.40001
1.40001
1.40001
1.40001
1.40001
1.40001
1.40001
1.40001
1.40001
1.40001
1.40001
1.40001
1.40001
1.40001
1.40001
1.40001
1.40001
1.40001
1.40001
1.40001
1.40001
1.40001
1.40001
1.40001
1.40001
1.40001
1.40001
1.40001
1.40001
1.40001
1.40001
1.40001
1.40001
1.40001
1.40001
1.40001
1.40001
1.40001
1.40001
1.40001
1.40001
1.40001
1.40001
1.40001
1.40001
1.40001
1.40001
1.40001
1.40001
1.40001
1.40001
2.28374
4.91518
5.38984
5.38435
5.39226
5.40311
5.41407
5.42676
5.43889
5.45095
5.46356
5.47424
5.48286
5.48994
5.49481
5.49676
5.49669
5.49664
5.49891
5.50102
5.502
5.49969
5.49361
5.4861
5.47847
5.47089
5.46268
5.45143
5.43583
5.41721
5.39815
5.38001
5.35967
5.3352
5.30546
5.26928
5.22423
5.16449
5.07706
4.95571
4.83898
4.77151
1.40001
1.40001
1.40001
1.40001
1.40001
1.40001
1.40001
1.40001
1.40001
1.40001
1.40001
1.40001
1.40001
1.40001
1.40001
1.40001
1.40001
1.40001
1.40001
1.40001
1.40001
1.40001
1.40001
1.40001
1.40001
1.40001
1.40001
1.40001
1.40001
1.40001
1.40001
1.40001
1.40001
1.40001
1.40001
1.40001
1.40001
1.40001
1.40001
1.40001
1.40001
1.40001
1.40001
1.40001
1.40001
1.40001
1.40001
1.40001
1.40001
1.40001
1.40001
1.40001
1.40001
1.40001
1.75235
4.7148
5.47056
5.4018
5.39546
5.39902
5.40804
5.41862
5.42873
5.43804
5.44767
5.45594
5.46249
5.46803
5.47183
5.47367
5.4745
5.47577
5.47791
5.47849
5.47705
5.47234
5.46478
5.45571
5.44665
5.43746
5.42738
5.41417
5.39619
5.37434
5.35154
5.32827
5.30248
5.27209
5.23486
5.18946
5.13161
5.05381
4.94539
4.79949
4.63771
4.53662
1.40001
1.40001
1.40001
1.40001
1.40001
1.40001
1.40001
1.40001
1.40001
1.40001
1.40001
1.40001
1.40001
1.40001
1.40001
1.40001
1.40001
1.40001
1.40001
1.40001
1.40001
1.40001
1.40001
1.40001
1.40001
1.40001
1.40001
1.40001
1.40001
1.40001
1.40001
1.40001
1.40001
1.40001
1.40001
1.40001
1.40001
1.40001
1.40001
1.40001
1.40001
1.40001
1.40001
1.40001
1.40001
1.40001
1.40001
1.40001
1.40001
1.40001
1.40001
1.40001
1.40001
1.40001
1.42834
4.21045
5.41554
5.38123
5.39209
5.39666
5.40588
5.41375
5.42128
5.42823
5.43578
5.44197
5.44615
5.44908
5.45077
5.4517
5.45292
5.45501
5.45688
5.45633
5.45226
5.44524
5.43591
5.42499
5.41386
5.40266
5.39099
5.37626
5.35607
5.33099
5.3033
5.27425
5.24278
5.20574
5.16
5.10357
5.03159
4.93483
4.79622
4.58363
4.19401
3.29283
1.40001
1.40001
1.40001
1.40001
1.40001
1.40001
1.40001
1.40001
1.40001
1.40001
1.40001
1.40001
1.40001
1.40001
1.40001
1.40001
1.40001
1.40001
1.40001
1.40001
1.40001
1.40001
1.40001
1.40001
1.40001
1.40001
1.40001
1.40001
1.40001
1.40001
1.40001
1.40001
1.40001
1.40001
1.40001
1.40001
1.40001
1.40001
1.40001
1.40001
1.40001
1.40001
1.40001
1.40001
1.40001
1.40001
1.40001
1.40001
1.40001
1.40001
1.40001
1.40001
1.40001
1.40001
1.4001
3.51927
5.23888
5.34393
5.37625
5.38914
5.39773
5.40369
5.4097
5.41685
5.42512
5.43067
5.43292
5.43326
5.43287
5.43259
5.43339
5.43526
5.43643
5.43465
5.42856
5.41979
5.40862
5.39546
5.38152
5.36754
5.35377
5.3373
5.31506
5.28666
5.25383
5.21887
5.18118
5.13704
5.08237
5.01365
4.92525
4.80363
4.62617
4.34585
3.87726
2.89338
1.40001
1.40001
1.40001
1.40001
1.40001
1.40001
1.40001
1.40001
1.40001
1.40001
1.40001
1.40001
1.40001
1.40001
1.40001
1.40001
1.40001
1.40001
1.40001
1.40001
1.40001
1.40001
1.40001
1.40001
1.40001
1.40001
1.40001
1.40001
1.40001
1.40001
1.40001
1.40001
1.40001
1.40001
1.40001
1.40001
1.40001
1.40001
1.40001
1.40001
1.40001
1.40001
1.40001
1.40001
1.40001
1.40001
1.40001
1.40001
1.40001
1.40001
1.40001
1.40001
1.40001
1.40001
1.4
2.89427
5.09904
5.3302
5.35833
5.3757
5.38491
5.39016
5.39644
5.40441
5.41399
5.4205
5.42271
5.42164
5.41952
5.41775
5.4171
5.41733
5.41631
5.41255
5.40463
5.3944
5.38161
5.36644
5.35001
5.33302
5.31656
5.29798
5.2737
5.24214
5.20451
5.16342
5.11891
5.06727
5.00344
4.92252
4.81707
4.67567
4.46587
4.17434
3.60703
2.75823
1.40001
1.40001
1.40001
1.40001
1.40001
1.40001
1.40001
1.40001
1.40001
1.40001
1.40001
1.40001
1.40001
1.40001
1.40001
1.40001
1.40001
1.40001
1.40001
1.40001
1.40001
1.40001
1.40001
1.40001
1.40001
1.40001
1.40001
1.40001
1.40001
1.40001
1.40001
1.40001
1.40001
1.40001
1.40001
1.40001
1.40001
1.40001
1.40001
1.40001
1.40001
1.40001
1.40001
1.40001
1.40001
1.40001
1.40001
1.40001
1.40001
1.40001
1.40001
1.40001
1.40001
1.40001
1.4
2.24658
4.88776
5.36252
5.35397
5.35923
5.3659
5.37419
5.3819
5.38995
5.40008
5.40773
5.41107
5.41049
5.40825
5.40556
5.4033
5.40091
5.39679
5.39046
5.38087
5.36927
5.35511
5.33835
5.31983
5.29962
5.27969
5.25821
5.23162
5.19735
5.1557
5.1088
5.05716
4.99788
4.92494
4.83334
4.71341
4.55586
4.32872
4.00557
3.45914
2.78745
1.40001
1.40001
1.40001
1.40001
1.40001
1.40001
1.40001
1.40001
1.40001
1.40001
1.40001
1.40001
1.40001
1.40001
1.40001
1.40001
1.40001
1.40001
1.40001
1.40001
1.40001
1.40001
1.40001
1.40001
1.40001
1.40001
1.40001
1.40001
1.40001
1.40001
1.40001
1.40001
1.40001
1.40001
1.40001
1.40001
1.40001
1.40001
1.40001
1.40001
1.40001
1.40001
1.40001
1.40001
1.40001
1.40001
1.40001
1.40001
1.40001
1.40001
1.40001
1.40001
1.40001
1.40001
1.40001
1.64047
4.5855
5.43037
5.37509
5.35122
5.35372
5.36158
5.36795
5.37443
5.38335
5.39147
5.39653
5.39758
5.39631
5.3935
5.39003
5.38487
5.37741
5.36797
5.35656
5.34378
5.32876
5.31105
5.29072
5.26723
5.24313
5.21796
5.18872
5.15221
5.10745
5.05564
4.99727
4.93054
4.84917
4.74807
4.61784
4.44603
4.21192
3.87812
3.40191
2.86428
1.40001
1.40001
1.40001
1.40001
1.40001
1.40001
1.40001
1.40001
1.40001
1.40001
1.40001
1.40001
1.40001
1.40001
1.40001
1.40001
1.40001
1.40001
1.40001
1.40001
1.40001
1.40001
1.40001
1.40001
1.40001
1.40001
1.40001
1.40001
1.40001
1.40001
1.40001
1.40001
1.40001
1.40001
1.40001
1.40001
1.40001
1.40001
1.40001
1.40001
1.40001
1.40001
1.40001
1.40001
1.40001
1.40001
1.40001
1.40001
1.40001
1.40001
1.40001
1.40001
1.40001
1.40001
1.40001
1.41083
3.95604
5.29146
5.31506
5.33512
5.34297
5.3516
5.35562
5.3591
5.36486
5.37141
5.37713
5.38006
5.38029
5.37815
5.37446
5.36764
5.35777
5.34541
5.33205
5.31816
5.30245
5.28413
5.26211
5.23546
5.20686
5.17737
5.14506
5.10664
5.05969
5.00416
4.94001
4.86631
4.7776
4.66834
4.53081
4.35194
4.11621
3.79655
3.39048
2.9444
1.40001
1.40001
1.40001
1.40001
1.40001
1.40001
1.40001
1.40001
1.40001
1.40001
1.40001
1.40001
1.40001
1.40001
1.40001
1.40001
1.40001
1.40001
1.40001
1.40001
1.40001
1.40001
1.40001
1.40001
1.40001
1.40001
1.40001
1.40001
1.40001
1.40001
1.40001
1.40001
1.40001
1.40001
1.40001
1.40001
1.40001