/*--------------------------------*- C++ -*----------------------------------*\
  =========                 |
  \\      /  F ield         | OpenFOAM: The Open Source CFD Toolbox
   \\    /   O peration     | Website:  https://openfoam.org
    \\  /    A nd           | Version:  7
     \\/     M anipulation  |
\*---------------------------------------------------------------------------*/
FoamFile
{
    version     2.0;
    format      ascii;
    class       volScalarField;
    location    "3.6";
    object      p;
}
// * * * * * * * * * * * * * * * * * * * * * * * * * * * * * * * * * * * * * //

dimensions      [1 -1 -2 0 0 0 0];

internalField   nonuniform List<scalar> 
1575
(
1
1
1
1
1
1
1
4.34329
10.3001
10.7929
11.0482
11.3344
11.5703
11.7671
11.9235
1
1
1
1
1
1
1
4.12873
10.1291
10.7277
10.9687
11.2247
11.4315
11.5876
11.7375
1
1
1
1
1
1
1
3.6583
9.85512
10.62
10.8506
11.0969
11.2965
11.4207
11.4771
1
1
1
1
1
1
1
3.00311
9.37491
10.4819
10.6739
10.8475
10.9421
10.9499
10.9938
1
1
1
1
1
1
1
2.18571
8.60875
10.3347
10.4751
10.5979
10.662
10.594
10.6941
1
1
1
1
1
1
1
1.3502
7.54826
10.2171
10.2154
10.2082
10.0735
9.37622
7.57497
1
1
1
1
1
1
1
1.01855
6.02512
9.66469
9.72034
9.66843
9.34735
8.59881
6.80347
1
1
1
1
1
1
1
0.999939
4.02775
9.03167
9.42703
9.24303
8.80224
8.04792
6.30774
1
1
1
1
1
1
1
0.999984
2.08471
7.98305
9.23368
8.91487
8.43634
7.59125
6.18954
1
1
1
1
1
1
1
0.999997
1.11446
6.07893
8.79302
8.47397
8.07594
7.27834
6.19171
1
1
1
1
1
1
1
1
1.00076
3.42491
7.97624
8.28213
7.83724
7.12509
6.22473
1
1
1
1
1
1
1
1
0.999994
1.39695
6.40549
8.25273
7.68535
7.01898
6.224
1
1
1
1
1
1
1
1
0.999998
1.01316
3.83518
7.63098
7.47289
6.88105
6.20867
1
1
1
1
1
1
1
1
1
1.00001
1.52974
5.99964
7.49629
6.86691
6.27994
1
1
1
1
1
1
1
1
1
1
1.02242
3.20208
6.92269
6.80325
6.28926
1
1
1
1
1
1
1
1
1
1
1.00012
1.34384
5.0372
6.88198
6.38081
1
1
1
1
1
1
1
1
1
1
1
1.01037
2.2623
5.77076
6.41247
1
1
1
1
1
1
1
1
1
1
1
1.00007
1.11785
3.47829
6.01013
1
1
1
1
1
1
1
1
1
1
1
1
1.00206
1.46518
4.3365
1
1
1
1
1
1
1
1
1
1
1
1
1.00001
1.02024
1.95746
1
1
1
1
1
1
1
1
1
1
1
1
1
1.00021
1.07465
1
1
1
1
1
1
1
1
1
1
1
1
1
1
1.00122
1
1
1
1
1
1
1
1
1
1
1
1
1
1
1.00001
1
1
1
1
1
1
1
1
1
1
1
1
1
1
1
1
1
1
1
1
1
1
1
1
1
1
1
1
1
1
1.86681
0.688922
0.374703
0.328989
0.361126
0.482377
0.634483
0.847948
1.04583
1.19991
1.29188
1.29738
1.28365
1.31427
1.35271
1.37023
1.36535
1.4879
4.38947
6.07149
6.07606
6.03084
5.96961
5.86936
5.78188
5.66703
5.5562
5.4509
5.33719
5.20804
5.06325
4.90615
4.74841
4.60742
4.49662
4.42643
4.36387
4.24987
4.12254
3.99006
3.84928
3.7121
3.59885
3.5082
3.43149
3.36761
3.31022
3.24212
3.16447
3.06743
2.94199
2.82081
2.74093
2.68686
2.63978
2.5967
2.55618
2.51114
2.46677
2.34791
3.22345
1.81479
1.25052
0.990633
0.819866
0.792566
0.762058
0.763332
0.81674
0.890784
0.974105
1.06135
1.13554
1.19477
1.24581
1.29318
1.30319
1.36048
4.07642
6.19944
6.13319
6.00796
5.95034
5.83642
5.72201
5.57226
5.45227
5.35336
5.25212
5.13994
5.02103
4.89223
4.74231
4.59074
4.46457
4.36246
4.28076
4.19704
4.09185
3.98279
3.87581
3.76264
3.64458
3.53363
3.43463
3.35205
3.28104
3.21968
3.15111
3.0686
2.97081
2.86453
2.76689
2.69379
2.64024
2.5924
2.54467
2.49265
2.43992
2.33457
4.04504
2.78039
2.05154
1.6011
1.25687
1.0508
0.94662
0.831296
0.790137
0.817943
0.881567
0.975384
1.05801
1.10548
1.14566
1.19794
1.27938
1.56252
3.61224
6.22793
6.34173
6.0428
5.90874
5.81114
5.73061
5.58944
5.47935
5.38115
5.26068
5.12664
4.99924
4.88203
4.76735
4.6446
4.50914
4.37297
4.24752
4.13794
4.03447
3.93593
3.84788
3.76757
3.68432
3.58821
3.47628
3.35828
3.25248
3.1664
3.09178
3.02593
2.96295
2.89626
2.81707
2.72933
2.65147
2.58685
2.52832
2.46801
2.40773
2.30515
4.66197
3.50638
2.75556
2.20523
1.79957
1.48871
1.3083
1.1498
1.0049
0.957133
0.913964
0.921701
0.939148
0.963272
1.00366
1.08261
1.33648
2.08273
2.9493
4.81451
6.01739
6.04591
5.97306
5.83708
5.67622
5.51016
5.40787
5.32135
5.21351
5.07884
4.93976
4.82355
4.71914
4.61563
4.50137
4.36946
4.23271
4.10974
4.00222
3.90755
3.82407
3.74797
3.67156
3.58639
3.48549
3.36678
3.24612
3.14583
3.06689
3.00189
2.94347
2.88594
2.8213
2.74294
2.65442
2.5727
2.50289
2.43482
2.37479
2.29032
5.05938
4.0533
3.32426
2.72452
2.26171
1.91493
1.66079
1.45964
1.28221
1.15699
1.04497
0.970927
0.922466
0.924834
0.940919
1.09152
1.7225
2.58509
2.78715
3.25261
4.50219
5.34963
5.76369
5.812
5.67656
5.51954
5.37632
5.26802
5.15763
5.02248
4.89446
4.78952
4.68764
4.58982
4.48551
4.36491
4.22779
4.09328
3.97862
3.88344
3.80072
3.7243
3.64694
3.56243
3.46458
3.34811
3.22524
3.12489
3.0519
2.99276
2.93767
2.88256
2.8203
2.74269
2.64529
2.54155
2.4533
2.38302
2.343
2.28357
5.31141
4.46706
3.73795
3.15211
2.69273
2.30546
2.01591
1.76018
1.56855
1.4066
1.29419
1.18267
1.06522
1.022
1.11854
1.59175
2.34244
2.63428
2.64933
2.63369
2.89073
3.75308
4.8982
5.4368
5.51088
5.50206
5.37977
5.25847
5.11457
4.94867
4.81257
4.72133
4.64002
4.55088
4.44936
4.33671
4.20447
4.06797
3.95093
3.85211
3.76257
3.67977
3.60121
3.52292
3.4382
3.33803
3.22346
3.11542
3.03222
2.9696
2.91515
2.86266
2.80449
2.7338
2.6417
2.53138
2.4309
2.36225
2.3296
2.27324
5.44252
4.71992
4.0573
3.50355
3.04382
2.65238
2.33085
2.06622
1.85161
1.66034
1.50598
1.35662
1.2328
1.29389
1.74766
2.51798
2.77842
2.71006
2.60858
2.56933
2.53836
2.62075
3.1618
4.15848
4.92622
5.20714
5.29769
5.25123
5.1115
4.90961
4.73893
4.65416
4.58267
4.49954
4.39936
4.28451
4.1548
4.03194
3.92927
3.83435
3.7398
3.64745
3.56063
3.47965
3.39941
3.31129
3.21206
3.1097
3.01879
2.94483
2.8818
2.82424
2.76539
2.69954
2.61857
2.52219
2.43249
2.3661
2.32797
2.26447
5.53823
4.92278
4.33497
3.80703
3.35108
2.97241
2.632
2.34034
2.09424
1.90664
1.72052
1.54258
1.59592
2.10095
2.9294
3.14108
3.01304
2.85351
2.72632
2.64896
2.58535
2.5409
2.50831
2.68717
3.33374
4.221
4.80205
5.05921
5.05937
4.8639
4.69944
4.61801
4.52949
4.44101
4.33804
4.21085
4.08263
3.98255
3.89716
3.81108
3.71897
3.62238
3.5273
3.4374
3.35216
3.26842
3.18338
3.09595
3.00923
2.92906
2.85742
2.79199
2.72782
2.66092
2.58932
2.51287
2.44066
2.37809
2.33133
2.25551
5.67266
5.10461
4.56267
4.06111
3.62885
3.23155
2.87998
2.59121
2.34643
2.10115
1.8935
1.97296
2.56754
3.49163
3.65449
3.47324
3.2608
3.0985
2.97241
2.85315
2.73148
2.60802
2.5035
2.41863
2.42785
2.70563
3.41674
4.23593
4.65524
4.68167
4.68361
4.60052
4.5052
4.39346
4.2659
4.12596
4.01953
3.93771
3.85903
3.77826
3.69136
3.59469
3.49361
3.39685
3.30872
3.22758
3.14997
3.07211
2.99197
2.91226
2.83699
2.76642
2.69822
2.62971
2.56216
2.49763
2.43595
2.37876
2.33025
2.24584
5.76048
5.22259
4.71935
4.27499
3.84136
3.45312
3.11789
2.81491
2.53852
2.28997
2.38165
3.08491
4.11659
4.26516
4.04239
3.77378
3.56392
3.38815
3.21205
3.04496
2.89461
2.75598
2.62274
2.50042
2.38243
2.32724
2.38331
2.74901
3.4477
4.08432
4.31171
4.46683
4.46656
4.33915
4.16722
4.05756
3.97021
3.89004
3.8129
3.73228
3.64391
3.54554
3.44487
3.35258
3.2682
3.18864
3.11154
3.03505
2.95814
2.88278
2.81109
2.74239
2.67565
2.60919
2.53887
2.46982
2.40421
2.35014
2.30584
2.22687
5.87449
5.36205
4.87287
4.44957
4.04837
3.66272
3.32101
3.02382
2.75281
2.89028
3.70631
4.77749
4.88443
4.59048
4.2997
4.06173
3.85383
3.64241
3.43554
3.24919
3.08832
2.94395
2.80459
2.65865
2.51273
2.38063
2.2754
2.22843
2.32305
2.75276
3.36445
3.93878
4.1661
4.13507
4.09479
4.02218
3.93922
3.85914
3.76763
3.67257
3.57216
3.47215
3.38227
3.30331
3.22824
3.1527
3.07509
2.9969
2.92022
2.84703
2.77742
2.71118
2.64634
2.58021
2.50778
2.43691
2.36881
2.31323
2.26816
2.2023
5.95223
5.43865
5.00256
4.59796
4.20151
3.81879
3.5128
3.25312
3.48637
4.50255
5.51205
5.61074
5.26261
4.87799
4.615
4.38635
4.14221
3.89124
3.64363
3.42832
3.24813
3.09051
2.94558
2.80456
2.66003
2.50585
2.35354
2.22358
2.17309
2.15455
2.28482
2.6972
3.27052
3.67288
3.81726
3.91736
3.91915
3.84776
3.7123
3.58706
3.47609
3.38898
3.31349
3.24377
3.17958
3.10985
3.03082
2.95057
2.87675
2.80738
2.73657
2.66412
2.60168
2.54007
2.46649
2.39472
2.33358
2.27399
2.23007
2.20006
6.02955
5.59336
5.15352
4.77712
4.35229
4.01187
3.79
4.21879
5.51362
6.40922
6.30276
5.89988
5.50424
5.20393
4.94233
4.67442
4.40217
4.12706
3.8527
3.60876
3.40725
3.23558
3.07812
2.92933
2.78318
2.63811
2.48981
2.34248
2.21364
2.09798
2.05017
2.0476
2.2008
2.62656
3.08575
3.51443
3.71236
3.69973
3.61596
3.49773
3.40082
3.32701
3.26867
3.22825
3.16169
3.07321
2.97263
2.89447
2.83222
2.77576
2.71874
2.6562
2.56176
2.46456
2.39888
2.34859
2.30857
2.2722
2.24948
2.32247
5.90435
5.75094
5.36432
4.88844
4.49399
4.38313
5.04327
6.4614
7.41548
7.25231
6.70148
6.18729
5.76699
5.48071
5.20705
4.9166
4.62647
4.33892
4.05373
3.79072
3.56607
3.37483
3.20331
3.04326
2.88716
2.73639
2.587
2.43911
2.29705
2.16187
2.05531
1.97815
1.94323
1.96712
2.13997
2.53168
3.07985
3.30185
3.37466
3.41587
3.40229
3.32067
3.23456
3.14511
3.03308
2.95294
2.92363
2.88346
2.8398
2.78713
2.70511
2.57782
2.45877
2.38561
2.34064
2.32239
2.32565
2.37198
2.45891
2.79946
4.73361
5.74441
5.49481
4.94433
4.98605
6.11598
7.58841
8.13222
8.07761
7.63007
7.11856
6.58477
6.10371
5.73571
5.42755
5.12783
4.82175
4.51833
4.22213
3.94395
3.70164
3.49437
3.31041
3.14188
2.98241
2.82957
2.6789
2.52987
2.38754
2.25455
2.13676
2.0264
1.93039
1.87408
1.8192
1.86128
2.07651
2.45074
2.77837
3.10995
3.25369
3.25392
3.19179
3.06649
2.95465
2.88212
2.82147
2.77417
2.73078
2.67548
2.60451
2.51597
2.4212
2.37031
2.35984
2.38874
2.51922
2.81355
3.09911
3.43585
2.42801
5.11761
5.28276
5.74242
7.43576
9.1599
9.22301
8.7668
8.33535
7.91536
7.44213
6.91127
6.39454
5.95994
5.60715
5.29043
4.97491
4.65795
4.35584
4.07381
3.82265
3.60284
3.40751
3.22858
3.05927
2.89611
2.73719
2.58496
2.44118
2.31133
2.19128
2.08081
1.97301
1.88391
1.80744
1.76457
1.72322
1.7638
1.94904
2.32296
2.75593
3.02243
3.04044
2.9937
2.89844
2.80827
2.75594
2.7098
2.65501
2.58673
2.52577
2.47104
2.42686
2.44902
2.57201
2.84576
3.26249
3.58608
3.72273
3.81795
1.1711
2.95602
4.67205
8.84122
10.4314
10.425
9.89332
9.23223
8.74079
8.30149
7.82767
7.30957
6.78702
6.30611
5.88386
5.52439
5.20881
4.90983
4.60741
4.31694
4.05178
3.81582
3.6065
3.41583
3.23589
3.06159
2.891
2.72708
2.57032
2.42926
2.3042
2.19677
2.0935
1.99658
1.90669
1.80138
1.69815
1.61878
1.586
1.6525
1.92016
2.33298
2.66111
2.81013
2.79577
2.75644
2.69345
2.62289
2.5655
2.54736
2.51907
2.5349
2.63285
2.89621
3.29665
3.64394
3.91046
3.91888
3.89741
3.86101
1.00421
1.31244
5.84646
12.0556
11.7555
10.8947
10.2702
9.62455
9.04008
8.50965
7.95628
7.41522
6.90898
6.44428
6.0286
5.64472
5.27581
4.91929
4.58458
4.2739
3.99997
3.76161
3.55276
3.36259
3.18204
3.00697
2.83393
2.66989
2.51383
2.37697
2.25647
2.1521
2.05332
1.96304
1.87601
1.78654
1.69154
1.59617
1.52138
1.48342
1.50295
1.61808
1.9073
2.2613
2.51821
2.62666
2.60084
2.56899
2.55741
2.59395
2.74418
3.02443
3.40029
3.77431
4.01234
4.08347
4.12642
4.10295
4.04657
3.86891
1.00003
1.05893
7.37352
12.0696
11.5461
10.8034
10.2962
9.72131
9.13641
8.5785
7.96605
7.43444
6.9806
6.55242
6.1427
5.75013
5.36862
4.99675
4.64138
4.31312
4.03094
3.78967
3.57997
3.3892
3.20686
3.02905
2.85038
2.67947
2.51812
2.38082
2.26354
2.15979
2.06187
1.96832
1.87812
1.78964
1.69664
1.60293
1.52883
1.47766
1.43237
1.39878
1.44253
1.60197
1.88832
2.20608
2.43138
2.58286
2.81027
3.12484
3.47518
3.82312
4.0677
4.15795
4.17088
4.14376
4.08531
4.05687
4.00371
3.88588
1
1.46308
7.9565
11.5635
11.3198
10.9976
10.6281
10.1059
9.52236
8.88054
8.17731
7.57296
7.0545
6.60421
6.18722
5.79086
5.40816
5.03226
4.66779
4.33213
4.04944
3.81097
3.60373
3.41441
3.232
3.05319
2.87118
2.69329
2.52521
2.38369
2.26863
2.16824
2.07763
1.98519
1.88627
1.78044
1.68578
1.60895
1.54464
1.4815
1.42441
1.37379
1.31127
1.31773
1.39297
1.62872
2.10577
2.76906
3.37611
3.92155
4.4995
4.85935
4.85956
4.71009
4.36919
4.0931
4.02032
3.98453
3.95176
3.85475
)
;

boundaryField
{
    inlet
    {
        type            fixedValue;
        value           uniform 1;
    }
    outlet
    {
        type            zeroGradient;
    }
    bottom
    {
        type            symmetryPlane;
    }
    top
    {
        type            symmetryPlane;
    }
    obstacle
    {
        type            zeroGradient;
    }
    defaultFaces
    {
        type            empty;
    }
}


// ************************************************************************* //
