/*--------------------------------*- C++ -*----------------------------------*\
  =========                 |
  \\      /  F ield         | OpenFOAM: The Open Source CFD Toolbox
   \\    /   O peration     | Website:  https://openfoam.org
    \\  /    A nd           | Version:  7
     \\/     M anipulation  |
\*---------------------------------------------------------------------------*/
FoamFile
{
    version     2.0;
    format      ascii;
    class       volScalarField;
    location    "3.6";
    object      T;
}
// * * * * * * * * * * * * * * * * * * * * * * * * * * * * * * * * * * * * * //

dimensions      [0 0 0 1 0 0 0];

internalField   nonuniform List<scalar> 
1575
(
1
1
1
1
1
1
1
1.98664
2.7057
2.74454
2.76388
2.78596
2.80567
2.82215
2.83364
1
1
1
1
1
1
1
1.95298
2.69305
2.73981
2.7582
2.7784
2.79575
2.80828
2.81846
1
1
1
1
1
1
1
1.86338
2.66532
2.72943
2.74901
2.76995
2.78611
2.79246
2.79303
1
1
1
1
1
1
1
1.71402
2.60608
2.70951
2.73235
2.75084
2.75987
2.75761
2.75812
1
1
1
1
1
1
1
1.48501
2.5028
2.67852
2.70769
2.72724
2.73949
2.74449
2.76941
1
1
1
1
1
1
1
1.15792
2.35565
2.64415
2.66957
2.68638
2.68816
2.65542
2.57237
1
1
1
1
1
1
1
1.00764
2.19598
2.58579
2.61557
2.62885
2.61796
2.57778
2.45414
1
1
1
1
1
1
1
0.999993
1.89125
2.51267
2.58282
2.57679
2.55576
2.50999
2.36484
1
1
1
1
1
1
1
0.999997
1.40747
2.3562
2.545
2.52868
2.50373
2.44669
2.32173
1
1
1
1
1
1
1
0.999999
1.04514
2.15142
2.48526
2.46996
2.45135
2.39619
2.30194
1
1
1
1
1
1
1
1
1.00033
1.72927
2.35649
2.44165
2.41194
2.35992
2.28398
1
1
1
1
1
1
1
1
0.999998
1.15321
2.13643
2.40744
2.36985
2.32383
2.26023
1
1
1
1
1
1
1
1
1
1.00516
1.77716
2.31186
2.31232
2.27882
2.2309
1
1
1
1
1
1
1
1
1
1.00001
1.19752
2.0793
2.29112
2.24604
2.20672
1
1
1
1
1
1
1
1
1
1
1.00861
1.63351
2.19305
2.20069
2.17194
1
1
1
1
1
1
1
1
1
1
1.00004
1.12878
1.93782
2.18382
2.1479
1
1
1
1
1
1
1
1
1
1
1
1.00378
1.40834
2.00712
2.12765
1
1
1
1
1
1
1
1
1
1
1
1.00002
1.04466
1.66199
2.04339
1
1
1
1
1
1
1
1
1
1
1
1
1.00068
1.16926
1.78586
1
1
1
1
1
1
1
1
1
1
1
1
1
1.00724
1.31125
1
1
1
1
1
1
1
1
1
1
1
1
1
1.00006
1.02722
1
1
1
1
1
1
1
1
1
1
1
1
1
1
1.00039
1
1
1
1
1
1
1
1
1
1
1
1
1
1
1
1
1
1
1
1
1
1
1
1
1
1
1
1
1
1
1
1
1
1
1
1
1
1
1
1
1
1
1
1
1
1.79878
1.36576
1.22661
1.25072
1.29847
1.42031
1.51186
1.60216
1.66386
1.70625
1.74196
1.74767
1.74263
1.75057
1.74744
1.74146
1.73723
1.79857
2.59495
2.86368
2.8461
2.81626
2.77705
2.73204
2.69453
2.65979
2.6333
2.61346
2.59519
2.57394
2.5475
2.51629
2.48319
2.45205
2.42611
2.40806
2.39239
2.37005
2.34722
2.32427
2.30037
2.2772
2.25759
2.24081
2.22501
2.20984
2.19434
2.1755
2.1546
2.13115
2.10427
2.08024
2.0653
2.05563
2.04708
2.03856
2.02933
2.0174
2.00399
1.97164
2.04045
1.76292
1.60507
1.52159
1.46058
1.45114
1.43091
1.43199
1.45769
1.48739
1.52571
1.56924
1.60995
1.63791
1.65002
1.66157
1.66448
1.68912
2.45674
2.78966
2.771
2.73993
2.71071
2.67252
2.63687
2.60102
2.57581
2.55875
2.54402
2.52743
2.50744
2.48327
2.45411
2.42403
2.39793
2.37606
2.35826
2.34145
2.32264
2.30428
2.28682
2.26848
2.24905
2.23011
2.21182
2.19446
2.17729
2.16074
2.14276
2.12308
2.10188
2.08055
2.062
2.04861
2.03881
2.02943
2.01889
2.00588
1.99136
1.96298
2.10809
1.91987
1.77872
1.67007
1.56568
1.48701
1.43862
1.38798
1.36405
1.37656
1.4051
1.4438
1.48202
1.50466
1.52025
1.53883
1.57086
1.67047
2.18979
2.59197
2.63622
2.59687
2.57002
2.5492
2.52821
2.50026
2.4815
2.46825
2.45414
2.43857
2.42242
2.40538
2.3867
2.36584
2.34275
2.31909
2.29712
2.27832
2.26136
2.2461
2.23309
2.22158
2.20985
2.19609
2.17886
2.15863
2.13816
2.11976
2.10296
2.08808
2.07455
2.06115
2.04625
2.03005
2.01551
2.00315
1.9913
1.97807
1.96395
1.93866
2.15602
2.00435
1.88476
1.77814
1.68443
1.59951
1.53878
1.4798
1.42223
1.40316
1.38437
1.38789
1.39286
1.40124
1.41656
1.44815
1.54166
1.7705
1.96172
2.27561
2.44218
2.46318
2.45829
2.44184
2.4173
2.39132
2.37572
2.36531
2.35375
2.33919
2.32347
2.30971
2.29605
2.28108
2.26384
2.24375
2.22283
2.20404
2.18799
2.17443
2.16304
2.15326
2.14397
2.13368
2.12075
2.10376
2.08442
2.06674
2.05163
2.03863
2.02721
2.01649
2.00476
1.99059
1.97431
1.95915
1.94619
1.93331
1.92141
1.90317
2.18395
2.06041
1.95663
1.85718
1.76665
1.6886
1.62217
1.56384
1.50787
1.46456
1.42129
1.39173
1.37014
1.37094
1.37777
1.44206
1.66049
1.88126
1.91359
1.9949
2.1913
2.30645
2.36458
2.37249
2.35637
2.33447
2.31397
2.29977
2.28621
2.26987
2.25441
2.24193
2.22916
2.21584
2.20074
2.18289
2.1625
2.14246
2.1256
2.11211
2.10093
2.09113
2.08163
2.0715
2.05941
2.04363
2.02522
2.00911
1.99687
1.98661
1.9769
1.96724
1.95646
1.94292
1.92532
1.90603
1.88971
1.87723
1.87109
1.86108
2.19376
2.09784
2.00199
1.91342
1.83426
1.75922
1.69662
1.63386
1.58158
1.5336
1.4973
1.45857
1.41602
1.40051
1.44142
1.61687
1.81442
1.87616
1.86941
1.85788
1.90777
2.06231
2.22742
2.29283
2.3022
2.29908
2.28301
2.26606
2.24662
2.22419
2.20586
2.19446
2.18442
2.17238
2.15737
2.14006
2.11988
2.09901
2.08108
2.0663
2.05349
2.04231
2.03229
2.0226
2.01177
1.99784
1.98041
1.96294
1.94918
1.93879
1.92972
1.92097
1.9112
1.89914
1.88289
1.86271
1.84419
1.83238
1.82804
1.81931
2.18753
2.11038
2.02963
1.95291
1.88159
1.81382
1.75152
1.69423
1.64421
1.59577
1.55231
1.50634
1.46669
1.49249
1.65219
1.85144
1.88908
1.87124
1.84844
1.83461
1.81735
1.82979
1.93393
2.09664
2.20102
2.23511
2.24497
2.23865
2.21941
2.19103
2.16762
2.15697
2.14845
2.13765
2.12306
2.10547
2.08549
2.06631
2.04986
2.03475
2.02039
2.00736
1.99598
1.98572
1.9751
1.96227
1.9465
1.92935
1.91385
1.9013
1.89071
1.88108
1.87116
1.85992
1.84583
1.82871
1.81278
1.80148
1.79565
1.78479
2.17434
2.11379
2.04831
1.98173
1.91733
1.85791
1.79861
1.74227
1.69026
1.64714
1.60072
1.55409
1.57453
1.72844
1.91609
1.94094
1.91412
1.87894
1.84923
1.82736
1.80744
1.79138
1.77163
1.80768
1.93118
2.0693
2.14747
2.18021
2.17936
2.15405
2.13218
2.12137
2.11127
2.10081
2.08685
2.06849
2.04978
2.03459
2.02077
2.00642
1.99167
1.97759
1.96502
1.95367
1.94252
1.93046
1.91687
1.90196
1.88691
1.87307
1.86084
1.8497
1.83877
1.82738
1.8152
1.80216
1.78992
1.77955
1.77173
1.75794
2.16015
2.10971
2.05457
1.99712
1.94192
1.88486
1.82879
1.7784
1.73167
1.68021
1.6348
1.65967
1.81561
1.99772
2.0076
1.97446
1.93342
1.89906
1.86946
1.84023
1.80996
1.77872
1.75163
1.72626
1.71841
1.77324
1.9036
2.0306
2.08394
2.08977
2.09157
2.08224
2.07127
2.05902
2.04367
2.0253
2.01126
2.00019
1.98845
1.97516
1.96082
1.94629
1.93274
1.92073
1.90991
1.89926
1.88783
1.87512
1.8614
1.8477
1.83492
1.82301
1.81154
1.80014
1.78916
1.77888
1.76901
1.75978
1.75154
1.73619
2.13693
2.09482
2.04842
2.00178
1.95026
1.89975
1.85205
1.80396
1.75523
1.70989
1.73514
1.89321
2.07993
2.07688
2.03814
1.99226
1.95337
1.9181
1.8815
1.84562
1.81166
1.77865
1.74619
1.7147
1.68834
1.66448
1.67304
1.74654
1.86836
1.96482
1.99571
2.02069
2.02226
2.00978
1.9922
1.97948
1.96928
1.96006
1.9503
1.93843
1.92439
1.90924
1.89528
1.88393
1.87437
1.86529
1.85555
1.84445
1.83214
1.81962
1.80778
1.79662
1.78598
1.77552
1.76451
1.75385
1.74361
1.73535
1.72826
1.71424
2.11436
2.07712
2.03649
1.99666
1.95387
1.90834
1.86364
1.82062
1.78102
1.81333
1.971
2.13762
2.13464
2.08994
2.04292
2.00239
1.96463
1.92513
1.88587
1.84893
1.81496
1.78263
1.75033
1.71675
1.68425
1.6533
1.62878
1.60745
1.62711
1.71438
1.81981
1.90597
1.93768
1.93823
1.94176
1.93732
1.92823
1.91958
1.90951
1.89731
1.88251
1.8673
1.85453
1.84469
1.83656
1.82881
1.82038
1.81079
1.80002
1.78874
1.77771
1.76753
1.7579
1.74804
1.73688
1.72597
1.71551
1.70741
1.70068
1.68991
2.09196
2.05278
2.01923
1.98514
1.94737
1.90546
1.86893
1.84067
1.88876
2.05156
2.19446
2.18936
2.14194
2.08888
2.0484
2.01069
1.96984
1.92704
1.88386
1.84457
1.80974
1.77761
1.74701
1.7169
1.68591
1.65278
1.61965
1.59029
1.57679
1.56618
1.59546
1.67925
1.77614
1.83639
1.86347
1.88808
1.89085
1.88333
1.86837
1.85364
1.83841
1.82572
1.815
1.80614
1.79933
1.79225
1.78374
1.77465
1.76569
1.75629
1.74576
1.73495
1.72595
1.71699
1.70585
1.69497
1.68635
1.67714
1.67046
1.67052
2.07202
2.04071
2.0069
1.97714
1.93805
1.9045
1.88942
1.96242
2.14178
2.24016
2.22604
2.17651
2.12618
2.08602
2.04906
2.00921
1.96693
1.92313
1.8788
1.83814
1.80307
1.772
1.74277
1.71448
1.68601
1.65701
1.62686
1.59695
1.56925
1.54378
1.53181
1.52915
1.56373
1.6488
1.72919
1.80141
1.83559
1.83496
1.82722
1.81595
1.80446
1.79363
1.78465
1.77951
1.77144
1.76125
1.74942
1.74045
1.73348
1.72679
1.71925
1.71031
1.69557
1.67975
1.66984
1.66306
1.6592
1.65512
1.65632
1.67862
2.03101
2.02535
1.99894
1.96115
1.92404
1.92917
2.02542
2.19583
2.28636
2.26794
2.21261
2.15723
2.10855
2.07319
2.03807
1.99917
1.95847
1.91699
1.87518
1.83557
1.80064
1.77001
1.74168
1.71427
1.68662
1.65926
1.63159
1.60356
1.5755
1.54837
1.52554
1.5091
1.50159
1.5078
1.54851
1.63099
1.72997
1.76422
1.77818
1.79105
1.79021
1.77803
1.76404
1.75029
1.73345
1.72359
1.72257
1.71935
1.71505
1.70859
1.69647
1.67554
1.65599
1.64515
1.63847
1.63928
1.64275
1.6566
1.67834
1.75288
1.82966
1.99578
1.97977
1.93813
1.95337
2.09523
2.24115
2.2911
2.28291
2.24393
2.19842
2.14851
2.10051
2.06102
2.02588
1.99025
1.95285
1.91411
1.87455
1.83623
1.80207
1.77218
1.74493
1.71916
1.69397
1.66909
1.64367
1.61752
1.59171
1.56689
1.54423
1.52237
1.50282
1.49006
1.47909
1.49129
1.54433
1.62307
1.68333
1.74632
1.76472
1.7633
1.75243
1.7333
1.71628
1.70419
1.69416
1.68805
1.68296
1.67536
1.66453
1.65041
1.63415
1.62841
1.62968
1.63774
1.66545
1.72191
1.77254
1.8324
1.4202
1.86838
1.92156
1.9931
2.16666
2.30471
2.31777
2.28596
2.25724
2.22529
2.18738
2.14291
2.09705
2.05629
2.02136
1.98798
1.95281
1.91599
1.8798
1.84505
1.81301
1.78395
1.75729
1.73221
1.70784
1.6835
1.65872
1.63356
1.60874
1.58562
1.56354
1.5422
1.52047
1.50175
1.48614
1.47645
1.46617
1.47725
1.52519
1.61162
1.69341
1.73573
1.73408
1.72569
1.70961
1.69329
1.68398
1.67616
1.66722
1.65614
1.64584
1.6357
1.63073
1.63667
1.66219
1.7126
1.78137
1.83017
1.84999
1.86498
1.06171
1.5315
1.79141
2.22339
2.36673
2.37268
2.34835
2.31237
2.28498
2.25664
2.22309
2.18401
2.14183
2.10057
2.06198
2.02672
1.99379
1.96141
1.92747
1.89343
1.86063
1.82983
1.80116
1.77403
1.74762
1.72123
1.69445
1.6675
1.64065
1.61567
1.59281
1.57235
1.55206
1.53276
1.51437
1.49059
1.466
1.44527
1.43858
1.4581
1.52899
1.62073
1.68008
1.70673
1.702
1.69202
1.67952
1.66625
1.6554
1.65208
1.64637
1.64948
1.66896
1.71751
1.78389
1.83686
1.8714
1.8696
1.86492
1.85848
1.00139
1.11239
1.99032
2.53945
2.52586
2.47442
2.43695
2.39758
2.36089
2.32484
2.28441
2.24272
2.20083
2.1593
2.11946
2.08046
2.04075
1.99995
1.95916
1.91902
1.88146
1.84673
1.81456
1.78394
1.75407
1.72462
1.69505
1.66633
1.63802
1.61213
1.58847
1.56741
1.54713
1.52849
1.51006
1.49024
1.468
1.44403
1.42375
1.41315
1.41921
1.45332
1.52928
1.61151
1.66261
1.67949
1.6733
1.66562
1.66083
1.66707
1.69408
1.74266
1.80302
1.85872
1.89232
1.90352
1.90181
1.89577
1.88502
1.85671
1.00001
1.02977
2.32677
2.72088
2.66525
2.59537
2.55003
2.50184
2.45184
2.40317
2.34916
2.30098
2.25784
2.21468
2.17138
2.12829
2.08435
2.03893
1.99283
1.94766
1.90638
1.86897
1.83469
1.8023
1.77078
1.73989
1.70866
1.67818
1.64831
1.62158
1.59775
1.57617
1.55554
1.53554
1.51559
1.49515
1.47271
1.44853
1.42797
1.41319
1.4002
1.39149
1.40514
1.45234
1.52922
1.60309
1.64786
1.67513
1.71714
1.77181
1.82427
1.87127
1.90282
1.91647
1.92067
1.91466
1.90191
1.89363
1.88196
1.85967
1
1.251
2.47966
2.7666
2.73439
2.69043
2.64476
2.58975
2.53143
2.46898
2.40168
2.34218
2.28902
2.24038
2.19369
2.14799
2.10215
2.05486
2.00638
1.95911
1.91679
1.87907
1.84469
1.81224
1.78059
1.74947
1.71762
1.68582
1.65461
1.62695
1.60343
1.58232
1.56293
1.54274
1.52041
1.4954
1.47184
1.45143
1.43331
1.41516
1.39896
1.38466
1.36627
1.36844
1.39288
1.4632
1.58194
1.71315
1.81335
1.89406
1.9696
2.01314
2.0133
1.99582
1.95339
1.91276
1.89643
1.88636
1.87702
1.85613
)
;

boundaryField
{
    inlet
    {
        type            fixedValue;
        value           uniform 1;
    }
    outlet
    {
        type            inletOutlet;
        inletValue      uniform 1;
        value           nonuniform List<scalar> 
20
(
1.96889
1.96177
1.93789
1.90352
1.86249
1.82074
1.78589
1.7585
1.73628
1.71432
1.6901
1.67072
1.67801
1.75115
1.83097
1.8648
1.85846
1.85664
1.85894
1.85567
)
;
    }
    bottom
    {
        type            symmetryPlane;
    }
    top
    {
        type            symmetryPlane;
    }
    obstacle
    {
        type            zeroGradient;
    }
    defaultFaces
    {
        type            empty;
    }
}


// ************************************************************************* //
