/*--------------------------------*- C++ -*----------------------------------*\
  =========                 |
  \\      /  F ield         | OpenFOAM: The Open Source CFD Toolbox
   \\    /   O peration     | Website:  https://openfoam.org
    \\  /    A nd           | Version:  7
     \\/     M anipulation  |
\*---------------------------------------------------------------------------*/
FoamFile
{
    version     2.0;
    format      ascii;
    class       volScalarField;
    location    "5";
    object      p;
}
// * * * * * * * * * * * * * * * * * * * * * * * * * * * * * * * * * * * * * //

dimensions      [0 2 -2 0 0 0 0];

internalField   nonuniform List<scalar> 
306000
(
-0.335131
-0.338973
-0.340355
-0.342316
-0.343745
-0.345182
-0.346519
-0.347874
-0.349269
-0.350745
-0.352327
-0.354036
-0.355884
-0.357883
-0.360038
-0.362353
-0.364829
-0.367466
-0.370262
-0.373212
-0.376314
-0.379561
-0.382947
-0.386466
-0.390107
-0.393864
-0.397724
-0.401677
-0.405711
-0.409812
-0.413964
-0.418154
-0.422363
-0.426574
-0.430768
-0.434925
-0.439023
-0.44304
-0.446954
-0.45074
-0.454375
-0.457834
-0.461089
-0.464118
-0.466892
-0.469386
-0.471576
-0.473435
-0.474939
-0.476063
-0.476785
-0.477083
-0.476934
-0.476319
-0.475216
-0.473607
-0.47147
-0.46879
-0.46554
-0.461669
-0.335168
-0.339005
-0.340387
-0.342345
-0.343774
-0.345209
-0.346545
-0.3479
-0.349294
-0.35077
-0.352352
-0.35406
-0.355908
-0.357907
-0.360062
-0.362377
-0.364854
-0.367491
-0.370286
-0.373237
-0.376339
-0.379586
-0.382973
-0.386492
-0.390135
-0.393891
-0.397753
-0.401707
-0.405741
-0.409843
-0.413997
-0.418188
-0.422398
-0.426611
-0.430806
-0.434965
-0.439064
-0.443084
-0.447
-0.450788
-0.454426
-0.457886
-0.461144
-0.464175
-0.466952
-0.469449
-0.471641
-0.473503
-0.47501
-0.476137
-0.476862
-0.477163
-0.477017
-0.476405
-0.475306
-0.4737
-0.471567
-0.468892
-0.465647
-0.461774
-0.335243
-0.339071
-0.340449
-0.342404
-0.34383
-0.345264
-0.346598
-0.347951
-0.349344
-0.35082
-0.352401
-0.354109
-0.355957
-0.357955
-0.36011
-0.362426
-0.364902
-0.367539
-0.370335
-0.373286
-0.376389
-0.379637
-0.383025
-0.386545
-0.390189
-0.393947
-0.39781
-0.401765
-0.405802
-0.409906
-0.414062
-0.418255
-0.422469
-0.426684
-0.430883
-0.435044
-0.439148
-0.443171
-0.447091
-0.450884
-0.454526
-0.457991
-0.461254
-0.46429
-0.467072
-0.469574
-0.471772
-0.473639
-0.475151
-0.476285
-0.477016
-0.477322
-0.477183
-0.476577
-0.475484
-0.473886
-0.471761
-0.469095
-0.46586
-0.461982
-0.335356
-0.339169
-0.340543
-0.342492
-0.343914
-0.345345
-0.346677
-0.348029
-0.34942
-0.350894
-0.352475
-0.354182
-0.356029
-0.358028
-0.360183
-0.362498
-0.364974
-0.367612
-0.370408
-0.37336
-0.376464
-0.379713
-0.383102
-0.386624
-0.390269
-0.39403
-0.397895
-0.401853
-0.405893
-0.409999
-0.414159
-0.418356
-0.422574
-0.426794
-0.430997
-0.435164
-0.439272
-0.443301
-0.447227
-0.451027
-0.454675
-0.458147
-0.461418
-0.464461
-0.46725
-0.469761
-0.471967
-0.473842
-0.475363
-0.476505
-0.477244
-0.47756
-0.477429
-0.476833
-0.475751
-0.474163
-0.47205
-0.469399
-0.466178
-0.462293
-0.335505
-0.3393
-0.340668
-0.342609
-0.344027
-0.345453
-0.346782
-0.348131
-0.349521
-0.350993
-0.352572
-0.354279
-0.356126
-0.358123
-0.360278
-0.362593
-0.36507
-0.367708
-0.370506
-0.373459
-0.376564
-0.379814
-0.383205
-0.386729
-0.390377
-0.39414
-0.398008
-0.40197
-0.406013
-0.410124
-0.414288
-0.41849
-0.422713
-0.426939
-0.431148
-0.435321
-0.439437
-0.443474
-0.447408
-0.451216
-0.454873
-0.458354
-0.461634
-0.464687
-0.467487
-0.470008
-0.472225
-0.474111
-0.475643
-0.476796
-0.477547
-0.477874
-0.477756
-0.477172
-0.476103
-0.47453
-0.472431
-0.469799
-0.466599
-0.462703
-0.335691
-0.339462
-0.340824
-0.342755
-0.344167
-0.345588
-0.346913
-0.348259
-0.349646
-0.351117
-0.352694
-0.354399
-0.356246
-0.358243
-0.360397
-0.362713
-0.36519
-0.367829
-0.370627
-0.373581
-0.376687
-0.37994
-0.383333
-0.386859
-0.39051
-0.394277
-0.398148
-0.402114
-0.406162
-0.410278
-0.414448
-0.418656
-0.422886
-0.427119
-0.431336
-0.435517
-0.439642
-0.443688
-0.447632
-0.45145
-0.455118
-0.458611
-0.461903
-0.464968
-0.467781
-0.470315
-0.472545
-0.474445
-0.47599
-0.477157
-0.477922
-0.478264
-0.47816
-0.477592
-0.476539
-0.474983
-0.472904
-0.470295
-0.46712
-0.46321
-0.335913
-0.339656
-0.34101
-0.342929
-0.344334
-0.345749
-0.347069
-0.348412
-0.349796
-0.351264
-0.35284
-0.354543
-0.356389
-0.358385
-0.36054
-0.362855
-0.365333
-0.367972
-0.370771
-0.373727
-0.376835
-0.38009
-0.383486
-0.387015
-0.390669
-0.394439
-0.398316
-0.402287
-0.40634
-0.410462
-0.414639
-0.418854
-0.423091
-0.427333
-0.431559
-0.43575
-0.439885
-0.443942
-0.447898
-0.451729
-0.45541
-0.458916
-0.462222
-0.465302
-0.468129
-0.470679
-0.472924
-0.47484
-0.476402
-0.477585
-0.478367
-0.478726
-0.47864
-0.478089
-0.477056
-0.475521
-0.473463
-0.470881
-0.467736
-0.46381
-0.336172
-0.339882
-0.341226
-0.343132
-0.344528
-0.345936
-0.347251
-0.348589
-0.349969
-0.351435
-0.353009
-0.354711
-0.356555
-0.358551
-0.360705
-0.36302
-0.365498
-0.368138
-0.370938
-0.373896
-0.377006
-0.380263
-0.383662
-0.387195
-0.390853
-0.394628
-0.398509
-0.402486
-0.406545
-0.410674
-0.414859
-0.419082
-0.423329
-0.42758
-0.431817
-0.436019
-0.440166
-0.444236
-0.448205
-0.45205
-0.455745
-0.459267
-0.462589
-0.465686
-0.468531
-0.471098
-0.473361
-0.475296
-0.476876
-0.478078
-0.478879
-0.479257
-0.479191
-0.478661
-0.47765
-0.476139
-0.474106
-0.471555
-0.468445
-0.464498
-0.336466
-0.340139
-0.341472
-0.343362
-0.344749
-0.346149
-0.347457
-0.34879
-0.350167
-0.351629
-0.353201
-0.354901
-0.356743
-0.358738
-0.360892
-0.363207
-0.365686
-0.368327
-0.371128
-0.374087
-0.3772
-0.38046
-0.383862
-0.387398
-0.391061
-0.394841
-0.398728
-0.402711
-0.406777
-0.410914
-0.415107
-0.41934
-0.423596
-0.427859
-0.432107
-0.436322
-0.440483
-0.444567
-0.448551
-0.452412
-0.456124
-0.459663
-0.463004
-0.466119
-0.468983
-0.47157
-0.473854
-0.475809
-0.47741
-0.478633
-0.479456
-0.479855
-0.479812
-0.479305
-0.478318
-0.476833
-0.474828
-0.472311
-0.46924
-0.46527
-0.336795
-0.340426
-0.341747
-0.343619
-0.344996
-0.346386
-0.347688
-0.349015
-0.350388
-0.351847
-0.353415
-0.355113
-0.356954
-0.358948
-0.361101
-0.363416
-0.365895
-0.368537
-0.37134
-0.374301
-0.377415
-0.380679
-0.384084
-0.387625
-0.391292
-0.395078
-0.398971
-0.402961
-0.407035
-0.411181
-0.415383
-0.419626
-0.423894
-0.428168
-0.432429
-0.436658
-0.440834
-0.444933
-0.448934
-0.452812
-0.456543
-0.460102
-0.463462
-0.466598
-0.469483
-0.472092
-0.474398
-0.476376
-0.478
-0.479247
-0.480093
-0.480516
-0.480497
-0.480015
-0.479055
-0.477598
-0.475624
-0.473144
-0.470117
-0.46612
-0.337158
-0.340743
-0.342051
-0.343903
-0.345269
-0.346649
-0.347943
-0.349264
-0.350631
-0.352086
-0.353651
-0.355347
-0.357186
-0.359179
-0.361331
-0.363646
-0.366125
-0.368768
-0.371572
-0.374535
-0.377653
-0.380919
-0.384328
-0.387873
-0.391546
-0.395337
-0.399238
-0.403235
-0.407318
-0.411473
-0.415685
-0.419939
-0.424219
-0.428506
-0.432782
-0.437026
-0.441217
-0.445334
-0.449353
-0.45325
-0.457001
-0.46058
-0.463962
-0.467121
-0.470029
-0.472662
-0.474992
-0.476994
-0.478643
-0.479915
-0.480787
-0.481236
-0.481243
-0.480789
-0.479856
-0.47843
-0.476489
-0.474048
-0.47107
-0.467041
-0.337554
-0.34109
-0.342382
-0.344214
-0.345566
-0.346935
-0.348221
-0.349535
-0.350897
-0.352347
-0.353909
-0.355602
-0.357439
-0.35943
-0.361581
-0.363896
-0.366376
-0.369019
-0.371825
-0.37479
-0.37791
-0.38118
-0.384593
-0.388143
-0.391821
-0.395619
-0.399526
-0.403532
-0.407624
-0.411788
-0.416012
-0.420278
-0.42457
-0.428872
-0.433162
-0.437423
-0.441631
-0.445766
-0.449804
-0.453722
-0.457494
-0.461096
-0.464501
-0.467684
-0.470617
-0.473275
-0.475631
-0.47766
-0.479336
-0.480635
-0.481534
-0.48201
-0.482045
-0.48162
-0.480718
-0.479324
-0.477417
-0.475017
-0.472092
-0.468027
-0.337983
-0.341465
-0.342741
-0.34455
-0.345889
-0.347245
-0.348521
-0.349828
-0.351184
-0.352629
-0.354187
-0.355877
-0.357712
-0.359701
-0.361852
-0.364166
-0.366646
-0.36929
-0.372098
-0.375065
-0.378187
-0.381461
-0.384878
-0.388433
-0.392117
-0.395922
-0.399836
-0.40385
-0.407952
-0.412127
-0.416362
-0.42064
-0.424947
-0.429263
-0.433569
-0.437847
-0.442074
-0.446228
-0.450287
-0.454226
-0.458021
-0.461647
-0.465076
-0.468284
-0.471244
-0.473929
-0.476313
-0.47837
-0.480074
-0.481401
-0.482329
-0.482835
-0.482899
-0.482504
-0.481634
-0.480274
-0.478402
-0.476046
-0.473178
-0.469071
-0.338444
-0.341867
-0.343126
-0.344911
-0.346235
-0.347577
-0.348844
-0.350142
-0.351492
-0.352932
-0.354486
-0.356172
-0.358004
-0.359992
-0.362141
-0.364455
-0.366935
-0.36958
-0.372389
-0.375358
-0.378484
-0.38176
-0.385182
-0.388742
-0.392432
-0.396244
-0.400166
-0.404189
-0.4083
-0.412486
-0.416733
-0.421025
-0.425346
-0.429677
-0.434001
-0.438296
-0.442542
-0.446717
-0.450797
-0.454759
-0.458578
-0.462229
-0.465684
-0.468919
-0.471907
-0.47462
-0.477033
-0.479119
-0.480853
-0.482211
-0.483168
-0.483705
-0.4838
-0.483436
-0.482599
-0.481274
-0.479439
-0.477126
-0.47432
-0.470166
-0.338936
-0.342297
-0.343538
-0.345295
-0.346604
-0.347932
-0.349188
-0.350477
-0.35182
-0.353254
-0.354803
-0.356486
-0.358315
-0.360301
-0.362449
-0.364762
-0.367242
-0.369887
-0.372698
-0.375669
-0.378797
-0.382078
-0.385504
-0.389069
-0.392765
-0.396584
-0.400515
-0.404547
-0.408668
-0.412865
-0.417125
-0.42143
-0.425766
-0.430114
-0.434454
-0.438768
-0.443034
-0.44723
-0.451333
-0.455319
-0.459163
-0.462839
-0.466322
-0.469585
-0.472601
-0.475344
-0.477787
-0.479904
-0.481669
-0.483058
-0.484047
-0.484615
-0.484742
-0.484411
-0.483607
-0.482318
-0.480521
-0.478252
-0.475511
-0.471305
-0.339458
-0.342753
-0.343974
-0.345704
-0.346995
-0.348308
-0.349553
-0.350833
-0.352167
-0.353596
-0.35514
-0.356818
-0.358645
-0.360628
-0.362774
-0.365086
-0.367565
-0.370212
-0.373023
-0.375996
-0.379128
-0.382412
-0.385842
-0.389413
-0.393115
-0.396941
-0.40088
-0.404921
-0.409053
-0.413262
-0.417534
-0.421854
-0.426205
-0.430569
-0.434928
-0.439261
-0.443548
-0.447766
-0.451892
-0.455902
-0.459771
-0.463475
-0.466985
-0.470277
-0.473323
-0.476097
-0.478571
-0.48072
-0.482517
-0.483938
-0.48496
-0.485561
-0.48572
-0.485422
-0.484652
-0.483399
-0.481641
-0.479415
-0.476745
-0.472479
-0.340009
-0.343235
-0.344435
-0.346135
-0.347408
-0.348705
-0.349937
-0.351207
-0.352534
-0.353955
-0.355494
-0.357168
-0.358991
-0.360971
-0.363115
-0.365426
-0.367905
-0.370552
-0.373365
-0.37634
-0.379473
-0.382761
-0.386196
-0.389772
-0.393481
-0.397314
-0.401261
-0.405312
-0.409454
-0.413675
-0.41796
-0.422294
-0.426661
-0.431042
-0.435419
-0.439772
-0.44408
-0.44832
-0.45247
-0.456505
-0.460401
-0.464132
-0.467671
-0.470993
-0.47407
-0.476875
-0.479381
-0.481563
-0.483393
-0.484847
-0.485902
-0.486536
-0.486729
-0.486465
-0.485729
-0.484513
-0.482794
-0.48061
-0.478013
-0.473681
-0.340588
-0.343741
-0.344919
-0.346587
-0.347841
-0.349121
-0.350341
-0.3516
-0.352918
-0.354332
-0.355865
-0.357534
-0.359353
-0.361331
-0.363473
-0.365782
-0.368261
-0.370907
-0.373721
-0.376697
-0.379834
-0.383124
-0.386564
-0.390145
-0.39386
-0.3977
-0.401656
-0.405716
-0.409869
-0.414102
-0.418401
-0.422749
-0.427131
-0.43153
-0.435926
-0.440299
-0.444628
-0.448891
-0.453065
-0.457126
-0.461048
-0.464807
-0.468376
-0.471728
-0.474836
-0.477673
-0.480212
-0.482427
-0.484291
-0.485779
-0.486868
-0.487536
-0.487763
-0.487533
-0.486832
-0.485652
-0.483972
-0.48183
-0.47931
-0.474902
-0.341194
-0.34427
-0.345425
-0.347061
-0.348295
-0.349557
-0.350763
-0.35201
-0.353319
-0.354726
-0.356252
-0.357916
-0.359731
-0.361705
-0.363845
-0.366152
-0.36863
-0.371276
-0.37409
-0.377068
-0.380207
-0.383501
-0.386944
-0.390531
-0.394252
-0.398099
-0.402063
-0.406133
-0.410297
-0.414541
-0.418853
-0.423216
-0.427614
-0.43203
-0.436445
-0.440838
-0.445189
-0.449475
-0.453673
-0.45776
-0.46171
-0.465497
-0.469095
-0.472478
-0.475618
-0.478488
-0.48106
-0.483309
-0.485207
-0.48673
-0.487853
-0.488555
-0.488817
-0.488621
-0.487954
-0.486811
-0.485169
-0.483066
-0.480629
-0.476136
-0.341825
-0.344822
-0.345953
-0.347555
-0.348768
-0.35001
-0.351202
-0.352437
-0.353736
-0.355135
-0.356655
-0.358313
-0.360123
-0.362094
-0.36423
-0.366536
-0.369012
-0.371658
-0.374472
-0.377452
-0.380592
-0.383889
-0.387336
-0.390928
-0.394655
-0.398509
-0.402481
-0.40656
-0.410734
-0.414991
-0.419316
-0.423693
-0.428108
-0.432541
-0.436974
-0.441387
-0.44576
-0.450069
-0.454292
-0.458404
-0.462381
-0.466197
-0.469826
-0.473239
-0.476411
-0.479314
-0.48192
-0.484203
-0.486136
-0.487693
-0.488851
-0.489588
-0.489884
-0.489722
-0.48909
-0.487983
-0.486378
-0.484312
-0.481962
-0.477373
-0.342481
-0.345396
-0.346501
-0.348067
-0.349258
-0.350481
-0.351657
-0.35288
-0.354169
-0.355559
-0.357071
-0.358724
-0.360529
-0.362495
-0.364628
-0.366931
-0.369406
-0.372051
-0.374865
-0.377846
-0.380988
-0.384287
-0.387738
-0.391334
-0.395067
-0.398928
-0.402908
-0.406996
-0.411181
-0.415449
-0.419786
-0.424178
-0.428608
-0.433059
-0.43751
-0.441944
-0.446338
-0.45067
-0.454918
-0.459056
-0.46306
-0.466905
-0.470563
-0.474008
-0.477212
-0.480147
-0.482787
-0.485104
-0.487072
-0.488664
-0.489858
-0.490629
-0.490959
-0.490832
-0.490234
-0.489161
-0.487595
-0.485561
-0.483303
-0.478607
-0.343161
-0.345989
-0.347069
-0.348598
-0.349766
-0.350968
-0.352129
-0.353338
-0.354616
-0.355997
-0.357501
-0.359147
-0.360946
-0.362908
-0.365038
-0.367338
-0.369811
-0.372455
-0.375268
-0.378249
-0.381393
-0.384695
-0.388149
-0.391749
-0.395487
-0.399354
-0.403342
-0.407439
-0.411633
-0.415913
-0.420263
-0.424669
-0.429114
-0.433582
-0.438052
-0.442505
-0.44692
-0.451275
-0.455547
-0.459711
-0.463742
-0.467615
-0.471303
-0.474779
-0.478015
-0.480983
-0.483657
-0.486008
-0.488011
-0.489638
-0.490867
-0.491673
-0.492038
-0.491944
-0.49138
-0.490341
-0.488812
-0.486807
-0.484647
-0.479827
-0.343862
-0.346603
-0.347655
-0.349146
-0.35029
-0.351471
-0.352614
-0.35381
-0.355076
-0.356447
-0.357943
-0.359582
-0.361376
-0.363332
-0.365458
-0.367755
-0.370225
-0.372867
-0.37568
-0.378661
-0.381806
-0.385109
-0.388566
-0.39217
-0.395913
-0.399786
-0.403781
-0.407886
-0.41209
-0.416381
-0.420743
-0.425163
-0.429623
-0.434107
-0.438595
-0.443068
-0.447504
-0.451881
-0.456177
-0.460366
-0.464424
-0.468325
-0.472042
-0.475548
-0.478816
-0.481817
-0.484525
-0.48691
-0.488947
-0.49061
-0.491873
-0.492714
-0.493113
-0.493053
-0.492522
-0.491516
-0.490023
-0.488043
-0.485987
-0.481027
-0.344584
-0.347234
-0.348259
-0.349709
-0.350829
-0.351987
-0.353114
-0.354295
-0.355549
-0.35691
-0.358397
-0.360028
-0.361815
-0.363766
-0.365887
-0.36818
-0.370647
-0.373288
-0.376099
-0.37908
-0.382225
-0.38553
-0.388989
-0.392596
-0.396343
-0.400222
-0.404224
-0.408337
-0.41255
-0.416851
-0.421225
-0.425658
-0.430133
-0.434632
-0.439138
-0.443629
-0.448086
-0.452485
-0.456804
-0.461018
-0.465102
-0.469031
-0.472777
-0.476313
-0.479611
-0.482645
-0.485385
-0.487805
-0.489876
-0.491573
-0.492871
-0.493747
-0.494179
-0.494153
-0.493654
-0.492681
-0.491224
-0.489261
-0.487319
-0.482198
-0.345326
-0.347883
-0.348879
-0.350288
-0.351382
-0.352518
-0.353626
-0.354792
-0.356033
-0.357383
-0.358861
-0.360484
-0.362264
-0.364209
-0.366325
-0.368614
-0.371077
-0.373715
-0.376525
-0.379504
-0.382649
-0.385955
-0.389416
-0.393026
-0.396777
-0.400661
-0.404668
-0.408788
-0.41301
-0.41732
-0.421706
-0.426151
-0.43064
-0.435154
-0.439677
-0.444186
-0.448663
-0.453083
-0.457425
-0.461663
-0.465772
-0.469728
-0.473502
-0.477067
-0.480397
-0.483462
-0.486235
-0.488688
-0.490793
-0.492524
-0.493856
-0.494766
-0.495232
-0.495239
-0.494772
-0.493829
-0.492407
-0.490457
-0.488639
-0.483332
-0.346085
-0.348547
-0.349514
-0.350881
-0.351949
-0.35306
-0.35415
-0.3553
-0.356528
-0.357866
-0.359334
-0.360949
-0.362721
-0.364659
-0.366769
-0.369053
-0.371513
-0.374147
-0.376955
-0.379933
-0.383077
-0.386383
-0.389845
-0.393457
-0.397211
-0.401099
-0.405112
-0.409239
-0.413468
-0.417788
-0.422183
-0.42664
-0.431142
-0.435671
-0.44021
-0.444737
-0.449232
-0.453672
-0.458036
-0.462297
-0.466431
-0.470412
-0.474214
-0.477808
-0.481167
-0.484263
-0.487068
-0.489553
-0.491692
-0.493457
-0.494823
-0.495767
-0.496266
-0.496305
-0.495869
-0.494956
-0.49357
-0.491623
-0.489943
-0.484418
-0.346862
-0.349227
-0.350163
-0.351487
-0.352528
-0.353614
-0.354685
-0.355818
-0.357032
-0.358358
-0.359816
-0.361421
-0.363185
-0.365116
-0.36722
-0.369499
-0.371953
-0.374584
-0.377388
-0.380364
-0.383507
-0.386812
-0.390275
-0.393888
-0.397645
-0.401536
-0.405554
-0.409686
-0.413923
-0.41825
-0.422656
-0.427123
-0.431637
-0.43618
-0.440733
-0.445277
-0.44979
-0.45425
-0.458634
-0.462917
-0.467075
-0.471082
-0.474909
-0.478531
-0.481919
-0.485045
-0.487881
-0.490398
-0.492569
-0.494367
-0.495767
-0.496743
-0.497275
-0.497346
-0.496941
-0.496056
-0.494705
-0.492754
-0.491227
-0.485448
-0.347654
-0.34992
-0.350825
-0.352105
-0.353118
-0.354179
-0.355229
-0.356345
-0.357544
-0.358858
-0.360304
-0.3619
-0.363655
-0.365579
-0.367675
-0.369948
-0.372397
-0.375023
-0.377824
-0.380797
-0.383938
-0.387242
-0.390704
-0.394318
-0.398076
-0.401971
-0.405992
-0.410129
-0.414371
-0.418706
-0.42312
-0.427598
-0.432123
-0.436678
-0.441246
-0.445804
-0.450334
-0.454812
-0.459216
-0.463521
-0.467701
-0.471731
-0.475584
-0.479232
-0.482648
-0.485802
-0.488668
-0.491216
-0.493419
-0.49525
-0.496682
-0.497691
-0.498255
-0.498357
-0.497982
-0.497124
-0.49581
-0.493843
-0.49249
-0.486412
-0.34846
-0.350626
-0.351499
-0.352734
-0.353718
-0.354752
-0.355782
-0.35688
-0.358064
-0.359364
-0.360799
-0.362384
-0.36413
-0.366045
-0.368134
-0.3704
-0.372844
-0.375464
-0.378261
-0.38123
-0.384368
-0.38767
-0.391131
-0.394745
-0.398504
-0.4024
-0.406423
-0.410565
-0.414812
-0.419154
-0.423575
-0.428061
-0.432596
-0.437163
-0.441743
-0.446316
-0.450862
-0.455357
-0.459779
-0.464103
-0.468305
-0.472357
-0.476234
-0.479907
-0.48335
-0.486532
-0.489427
-0.492005
-0.494238
-0.4961
-0.497564
-0.498605
-0.499201
-0.499333
-0.498987
-0.498156
-0.496878
-0.494885
-0.493729
-0.4873
-0.349279
-0.351342
-0.352183
-0.353372
-0.354327
-0.355335
-0.356343
-0.357422
-0.358591
-0.359877
-0.361299
-0.362873
-0.364609
-0.366515
-0.368595
-0.370854
-0.373291
-0.375906
-0.378697
-0.381661
-0.384795
-0.388095
-0.391554
-0.395167
-0.398925
-0.402822
-0.406848
-0.410992
-0.415243
-0.41959
-0.424017
-0.428511
-0.433055
-0.437633
-0.442224
-0.44681
-0.45137
-0.455881
-0.46032
-0.464662
-0.468884
-0.472957
-0.476856
-0.480554
-0.484021
-0.48723
-0.490152
-0.492758
-0.495021
-0.496914
-0.498408
-0.49948
-0.500107
-0.500269
-0.499952
-0.499145
-0.497906
-0.495873
-0.494942
-0.488101
-0.350109
-0.352069
-0.352877
-0.35402
-0.354944
-0.355924
-0.35691
-0.357971
-0.359122
-0.360394
-0.361803
-0.363365
-0.36509
-0.366986
-0.369058
-0.371308
-0.373738
-0.376346
-0.379131
-0.38209
-0.38522
-0.388515
-0.391971
-0.395582
-0.399339
-0.403236
-0.407262
-0.411408
-0.415662
-0.420013
-0.424446
-0.428946
-0.433498
-0.438084
-0.442685
-0.447283
-0.451855
-0.45638
-0.460835
-0.465194
-0.469434
-0.473527
-0.477447
-0.481167
-0.484657
-0.487891
-0.490839
-0.493473
-0.495765
-0.497686
-0.499211
-0.500313
-0.50097
-0.501161
-0.500873
-0.500089
-0.49889
-0.496804
-0.496125
-0.488788
-0.350949
-0.352805
-0.353579
-0.354675
-0.355569
-0.35652
-0.357484
-0.358524
-0.359659
-0.360915
-0.362311
-0.36386
-0.365574
-0.367459
-0.369521
-0.371762
-0.374183
-0.376784
-0.379562
-0.382515
-0.385639
-0.38893
-0.392382
-0.395989
-0.399744
-0.403639
-0.407665
-0.411812
-0.416068
-0.420421
-0.424857
-0.429363
-0.433921
-0.438514
-0.443124
-0.447732
-0.452315
-0.456853
-0.461322
-0.465696
-0.469952
-0.474064
-0.478003
-0.481743
-0.485256
-0.488513
-0.491485
-0.494145
-0.496464
-0.498413
-0.499966
-0.501098
-0.501784
-0.502004
-0.501744
-0.500982
-0.499825
-0.497674
-0.497297
-0.489335
-0.351798
-0.353549
-0.354289
-0.355336
-0.356199
-0.357122
-0.358062
-0.359082
-0.360199
-0.361439
-0.36282
-0.364356
-0.366058
-0.367932
-0.369983
-0.372214
-0.374626
-0.377218
-0.379988
-0.382934
-0.386051
-0.389337
-0.392784
-0.396387
-0.400139
-0.404031
-0.408055
-0.412201
-0.416457
-0.420812
-0.425251
-0.42976
-0.434322
-0.438922
-0.443539
-0.448155
-0.452748
-0.457297
-0.461777
-0.466166
-0.470437
-0.474564
-0.478521
-0.48228
-0.485813
-0.489091
-0.492087
-0.494771
-0.497115
-0.499091
-0.500672
-0.501832
-0.502546
-0.502794
-0.502561
-0.50182
-0.500706
-0.498471
-0.498443
-0.489907
-0.352653
-0.354299
-0.355005
-0.356004
-0.356835
-0.357728
-0.358644
-0.359643
-0.360741
-0.361965
-0.363331
-0.364853
-0.366541
-0.368403
-0.370443
-0.372663
-0.375065
-0.377647
-0.380409
-0.383346
-0.386456
-0.389735
-0.393176
-0.396773
-0.40052
-0.404409
-0.40843
-0.412574
-0.416829
-0.421184
-0.425623
-0.430134
-0.4347
-0.439304
-0.443927
-0.448549
-0.45315
-0.457708
-0.462199
-0.466599
-0.470883
-0.475025
-0.478998
-0.482774
-0.486325
-0.489624
-0.49264
-0.495347
-0.497715
-0.499716
-0.501323
-0.50251
-0.503252
-0.503527
-0.50332
-0.5026
-0.501528
-0.499208
-0.499296
-0.490871
-0.353515
-0.355055
-0.355726
-0.356675
-0.357474
-0.358337
-0.359229
-0.360206
-0.361285
-0.362491
-0.363841
-0.365349
-0.367023
-0.368872
-0.370899
-0.373108
-0.375499
-0.378071
-0.380822
-0.38375
-0.386852
-0.390122
-0.393556
-0.397147
-0.400888
-0.404772
-0.408789
-0.412929
-0.417182
-0.421534
-0.425974
-0.430485
-0.435052
-0.439659
-0.444285
-0.448913
-0.45352
-0.458085
-0.462585
-0.466995
-0.47129
-0.475444
-0.47943
-0.483222
-0.48679
-0.490106
-0.493142
-0.49587
-0.49826
-0.500285
-0.501917
-0.503129
-0.503898
-0.504199
-0.504019
-0.503317
-0.502274
-0.500036
-0.499897
-0.491817
-0.354382
-0.355815
-0.356451
-0.357351
-0.358117
-0.358949
-0.359816
-0.36077
-0.36183
-0.363018
-0.364351
-0.365843
-0.367503
-0.369338
-0.371352
-0.373548
-0.375926
-0.378487
-0.381228
-0.384145
-0.387237
-0.390498
-0.393923
-0.397506
-0.40124
-0.405117
-0.409129
-0.413264
-0.417513
-0.421862
-0.4263
-0.43081
-0.435377
-0.439984
-0.444613
-0.449243
-0.453855
-0.458425
-0.462932
-0.467349
-0.471654
-0.475818
-0.479817
-0.483621
-0.487204
-0.490536
-0.49359
-0.496337
-0.498747
-0.500794
-0.502449
-0.503686
-0.50448
-0.504807
-0.504652
-0.503975
-0.502933
-0.50079
-0.500481
-0.49264
-0.355251
-0.356578
-0.357179
-0.358029
-0.358761
-0.359562
-0.360403
-0.361335
-0.362374
-0.363543
-0.364859
-0.366335
-0.367979
-0.369799
-0.371799
-0.373981
-0.376347
-0.378895
-0.381623
-0.38453
-0.387611
-0.390861
-0.394276
-0.39785
-0.401576
-0.405445
-0.409449
-0.413578
-0.417821
-0.422166
-0.426599
-0.431107
-0.435672
-0.440278
-0.444907
-0.449539
-0.454152
-0.458726
-0.463237
-0.467661
-0.471973
-0.476146
-0.480154
-0.483969
-0.487565
-0.490911
-0.493981
-0.496745
-0.499174
-0.501241
-0.502918
-0.504178
-0.504996
-0.505347
-0.505216
-0.504563
-0.503529
-0.501446
-0.50104
-0.493356
-0.356123
-0.357344
-0.357908
-0.358708
-0.359407
-0.360176
-0.360991
-0.3619
-0.362917
-0.364067
-0.365365
-0.366823
-0.368451
-0.370255
-0.37224
-0.374408
-0.376759
-0.379293
-0.382009
-0.384902
-0.387971
-0.39121
-0.394614
-0.398177
-0.401893
-0.405752
-0.409748
-0.413869
-0.418105
-0.422443
-0.426871
-0.431374
-0.435935
-0.440539
-0.445166
-0.449797
-0.454411
-0.458986
-0.4635
-0.467928
-0.472244
-0.476424
-0.480439
-0.484264
-0.48787
-0.491229
-0.494312
-0.497091
-0.499537
-0.501623
-0.50332
-0.504602
-0.505442
-0.505817
-0.50571
-0.505079
-0.504057
-0.502017
-0.501546
-0.493974
-0.356995
-0.35811
-0.358639
-0.359388
-0.360053
-0.36079
-0.361579
-0.362463
-0.363458
-0.364588
-0.365867
-0.367307
-0.368917
-0.370705
-0.372674
-0.374826
-0.377162
-0.379681
-0.382382
-0.385262
-0.388317
-0.391543
-0.394934
-0.398486
-0.40219
-0.406039
-0.410024
-0.414135
-0.418362
-0.422693
-0.427113
-0.431609
-0.436165
-0.440764
-0.445387
-0.450016
-0.454628
-0.459203
-0.463717
-0.468147
-0.472466
-0.47665
-0.480672
-0.484503
-0.488118
-0.491487
-0.494581
-0.497374
-0.499835
-0.501938
-0.503653
-0.504955
-0.505817
-0.506214
-0.506129
-0.50552
-0.504513
-0.502505
-0.501992
-0.494495
-0.357866
-0.358876
-0.359369
-0.360068
-0.360699
-0.361404
-0.362164
-0.363024
-0.363997
-0.365105
-0.366364
-0.367785
-0.369378
-0.371147
-0.373099
-0.375234
-0.377554
-0.380057
-0.382743
-0.385607
-0.388648
-0.391859
-0.395237
-0.398775
-0.402466
-0.406302
-0.410276
-0.414376
-0.418592
-0.422913
-0.427324
-0.431812
-0.436361
-0.440953
-0.445571
-0.450194
-0.454803
-0.459375
-0.463888
-0.468317
-0.472637
-0.476823
-0.480848
-0.484685
-0.488306
-0.491683
-0.494787
-0.497591
-0.500066
-0.502183
-0.503915
-0.505236
-0.506117
-0.506535
-0.506472
-0.505884
-0.504894
-0.50291
-0.502372
-0.494919
-0.358736
-0.359642
-0.360098
-0.360747
-0.361343
-0.362015
-0.362748
-0.363582
-0.364532
-0.365619
-0.366857
-0.368258
-0.369831
-0.371582
-0.373515
-0.375633
-0.377935
-0.380421
-0.38309
-0.385938
-0.388962
-0.392158
-0.39552
-0.399043
-0.402719
-0.406542
-0.410502
-0.414589
-0.418793
-0.423102
-0.427503
-0.43198
-0.43652
-0.441103
-0.445713
-0.45033
-0.454934
-0.459501
-0.46401
-0.468437
-0.472756
-0.476942
-0.480968
-0.484808
-0.488433
-0.491816
-0.494928
-0.497741
-0.500227
-0.502357
-0.504105
-0.505442
-0.506342
-0.506779
-0.506737
-0.506168
-0.505196
-0.50323
-0.502683
-0.495247
-0.359603
-0.360405
-0.360826
-0.361423
-0.361984
-0.362623
-0.363328
-0.364136
-0.365062
-0.366127
-0.367343
-0.368724
-0.370276
-0.372008
-0.373922
-0.37602
-0.378303
-0.380771
-0.383422
-0.386252
-0.389258
-0.392437
-0.395782
-0.399289
-0.402949
-0.406756
-0.410701
-0.414774
-0.418964
-0.42326
-0.427647
-0.432113
-0.436641
-0.441214
-0.445815
-0.450423
-0.455018
-0.459579
-0.464082
-0.468504
-0.47282
-0.477004
-0.48103
-0.48487
-0.488498
-0.491884
-0.495002
-0.497823
-0.500318
-0.502459
-0.50422
-0.505572
-0.506489
-0.506945
-0.506922
-0.506371
-0.505419
-0.503464
-0.502921
-0.495481
-0.360466
-0.361165
-0.36155
-0.362097
-0.362623
-0.363228
-0.363905
-0.364686
-0.365588
-0.366629
-0.367823
-0.369182
-0.370713
-0.372424
-0.374317
-0.376395
-0.378659
-0.381107
-0.383738
-0.386549
-0.389536
-0.392696
-0.396024
-0.399512
-0.403155
-0.406945
-0.410873
-0.414929
-0.419104
-0.423384
-0.427757
-0.432209
-0.436723
-0.441284
-0.445873
-0.45047
-0.455056
-0.459608
-0.464103
-0.468519
-0.472829
-0.477009
-0.481032
-0.484871
-0.488498
-0.491887
-0.495008
-0.497834
-0.500337
-0.502488
-0.50426
-0.505625
-0.506558
-0.50703
-0.507026
-0.506491
-0.505559
-0.503612
-0.503082
-0.495621
-0.361323
-0.361921
-0.36227
-0.362767
-0.363258
-0.363829
-0.364477
-0.365231
-0.366107
-0.367124
-0.368295
-0.369631
-0.371141
-0.37283
-0.374701
-0.376758
-0.379
-0.381427
-0.384037
-0.386828
-0.389795
-0.392935
-0.396242
-0.399711
-0.403335
-0.407105
-0.411015
-0.415054
-0.41921
-0.423474
-0.42783
-0.432266
-0.436766
-0.441312
-0.445887
-0.450472
-0.455046
-0.459587
-0.464072
-0.468479
-0.472782
-0.476955
-0.480973
-0.484809
-0.488435
-0.491823
-0.494946
-0.497776
-0.500284
-0.502442
-0.504224
-0.505601
-0.506547
-0.507034
-0.507047
-0.506528
-0.505616
-0.503673
-0.503164
-0.495668
-0.362174
-0.362672
-0.362986
-0.363432
-0.363888
-0.364426
-0.365043
-0.36577
-0.36662
-0.367613
-0.36876
-0.370072
-0.371558
-0.373224
-0.375073
-0.377107
-0.379327
-0.381732
-0.38432
-0.387088
-0.390033
-0.393151
-0.396437
-0.399885
-0.403488
-0.407238
-0.411127
-0.415146
-0.419284
-0.423528
-0.427867
-0.432285
-0.436767
-0.441297
-0.445857
-0.450426
-0.454986
-0.459514
-0.463988
-0.468384
-0.472677
-0.476842
-0.480854
-0.484684
-0.488306
-0.491692
-0.494815
-0.497646
-0.500158
-0.502322
-0.504111
-0.505498
-0.506456
-0.506957
-0.506986
-0.506481
-0.505589
-0.503646
-0.503163
-0.495622
-0.363018
-0.363417
-0.363696
-0.364093
-0.364513
-0.365016
-0.365604
-0.366302
-0.367127
-0.368093
-0.369215
-0.370503
-0.371965
-0.373607
-0.375432
-0.377442
-0.379638
-0.382019
-0.384583
-0.387328
-0.39025
-0.393345
-0.396608
-0.400033
-0.403614
-0.407342
-0.411209
-0.415206
-0.419323
-0.423546
-0.427865
-0.432263
-0.436727
-0.441238
-0.44578
-0.450333
-0.454877
-0.45939
-0.46385
-0.468233
-0.472515
-0.47667
-0.480672
-0.484495
-0.488111
-0.491494
-0.494614
-0.497445
-0.499959
-0.502127
-0.503922
-0.505317
-0.506286
-0.506799
-0.506842
-0.506348
-0.505477
-0.503531
-0.503079
-0.495484
-0.363853
-0.364156
-0.364399
-0.364747
-0.365132
-0.365601
-0.366159
-0.366828
-0.367625
-0.368566
-0.369662
-0.370924
-0.372361
-0.373977
-0.375777
-0.377762
-0.379933
-0.382289
-0.384828
-0.387548
-0.390446
-0.393516
-0.396754
-0.400155
-0.403711
-0.407415
-0.411259
-0.415233
-0.419327
-0.423528
-0.427824
-0.432201
-0.436644
-0.441135
-0.445657
-0.450192
-0.454718
-0.459214
-0.463658
-0.468026
-0.472295
-0.476437
-0.480429
-0.484242
-0.487851
-0.491228
-0.494344
-0.497173
-0.499687
-0.501857
-0.503657
-0.505059
-0.506036
-0.506559
-0.506615
-0.506131
-0.505279
-0.503328
-0.50291
-0.495253
-0.36468
-0.364887
-0.365096
-0.365395
-0.365745
-0.366179
-0.366706
-0.367347
-0.368116
-0.369029
-0.370099
-0.371335
-0.372745
-0.374335
-0.376108
-0.378067
-0.380211
-0.382541
-0.385054
-0.387747
-0.390618
-0.393662
-0.396875
-0.400249
-0.40378
-0.407458
-0.411277
-0.415226
-0.419294
-0.423472
-0.427744
-0.432098
-0.436517
-0.440987
-0.445488
-0.450001
-0.454508
-0.458985
-0.463411
-0.467763
-0.472016
-0.476145
-0.480123
-0.483926
-0.487525
-0.490894
-0.494005
-0.49683
-0.499342
-0.501513
-0.503316
-0.504722
-0.505706
-0.506237
-0.506305
-0.50583
-0.504996
-0.503037
-0.502656
-0.49493
-0.365496
-0.36561
-0.365785
-0.366035
-0.36635
-0.36675
-0.367246
-0.367857
-0.368598
-0.369483
-0.370525
-0.371734
-0.373117
-0.374679
-0.376425
-0.378356
-0.380472
-0.382774
-0.385259
-0.387925
-0.390768
-0.393784
-0.396969
-0.400316
-0.403819
-0.40747
-0.411262
-0.415184
-0.419226
-0.423377
-0.427624
-0.431952
-0.436348
-0.440793
-0.445271
-0.449762
-0.454247
-0.458704
-0.46311
-0.467443
-0.471679
-0.475792
-0.479756
-0.483546
-0.487134
-0.490494
-0.493597
-0.496417
-0.498926
-0.501096
-0.502899
-0.504308
-0.505298
-0.505836
-0.505913
-0.505445
-0.504628
-0.502658
-0.502317
-0.494515
-0.366301
-0.366325
-0.366465
-0.366668
-0.366948
-0.367313
-0.367778
-0.368359
-0.369071
-0.369927
-0.370941
-0.372121
-0.373476
-0.37501
-0.376726
-0.378628
-0.380716
-0.382988
-0.385444
-0.38808
-0.390894