/*--------------------------------*- C++ -*----------------------------------*\
  =========                 |
  \\      /  F ield         | OpenFOAM: The Open Source CFD Toolbox
   \\    /   O peration     | Website:  https://openfoam.org
    \\  /    A nd           | Version:  7
     \\/     M anipulation  |
\*---------------------------------------------------------------------------*/
FoamFile
{
    version     2.0;
    format      ascii;
    class       volScalarField;
    location    "3.6";
    object      rho;
}
// * * * * * * * * * * * * * * * * * * * * * * * * * * * * * * * * * * * * * //

dimensions      [1 -3 0 0 0 0 0];

internalField   nonuniform List<scalar> 
6300
(
1.40001
1.40001
1.40001
1.40001
1.40001
1.40001
1.40001
1.40001
1.40001
1.40001
1.40001
1.40001
1.40001
1.40001
1.40001
4.03723
5.4437
5.49108
5.55079
5.60832
5.66269
5.71331
5.76046
5.80484
5.84679
5.88538
5.91905
5.9448
5.96352
5.97722
1.40001
1.40001
1.40001
1.40001
1.40001
1.40001
1.40001
1.40001
1.40001
1.40001
1.40001
1.40001
1.40001
1.40001
1.40001
3.97605
5.42699
5.48426
5.54404
5.60203
5.65603
5.70606
5.75244
5.79588
5.83672
5.874
5.90637
5.931
5.94863
5.96191
1.40001
1.40001
1.40001
1.40001
1.40001
1.40001
1.40001
1.40001
1.40001
1.40001
1.40001
1.40001
1.40001
1.40001
1.40001
3.85637
5.4082
5.47079
5.53038
5.58902
5.64293
5.69278
5.73884
5.78182
5.82197
5.85823
5.88916
5.91218
5.92784
5.93994
1.40001
1.40001
1.40001
1.40001
1.40001
1.40001
1.40001
1.40001
1.40001
1.40001
1.40001
1.40001
1.40001
1.40001
1.40001
3.68077
5.38076
5.45318
5.51126
5.56998
5.62297
5.67168
5.71647
5.75816
5.7971
5.8321
5.86158
5.88302
5.89686
5.90796
1.40001
1.40001
1.40001
1.40001
1.40001
1.40001
1.40001
1.40001
1.40001
1.40001
1.40001
1.40001
1.40001
1.40001
1.40001
3.44863
5.34069
5.43304
5.48897
5.54708
5.59864
5.6456
5.68829
5.72742
5.76342
5.7953
5.82198
5.84134
5.85332
5.86464
1.40001
1.40001
1.40001
1.40001
1.40001
1.40001
1.40001
1.40001
1.40001
1.40001
1.40001
1.40001
1.40001
1.40001
1.40001
3.16248
5.28015
5.41267
5.46557
5.52072
5.56892
5.61236
5.65154
5.6874
5.7208
5.75063
5.77501
5.79053
5.79668
5.80198
1.40001
1.40001
1.40001
1.40001
1.40001
1.40001
1.40001
1.40001
1.40001
1.40001
1.40001
1.40001
1.40001
1.40001
1.40001
2.82491
5.18205
5.4002
5.44752
5.49625
5.53782
5.57458
5.60753
5.63739
5.66429
5.68682
5.70239
5.71254
5.71511
5.72581
1.40001
1.40001
1.40001
1.40001
1.40001
1.40001
1.40001
1.40001
1.40001
1.40001
1.40001
1.40001
1.40001
1.40001
1.40001
2.45054
5.03316
5.42074
5.44444
5.48187
5.51455
5.54206
5.56487
5.58406
5.60024
5.61478
5.62393
5.62946
5.6203
5.60214
1.40001
1.40001
1.40001
1.40001
1.40001
1.40001
1.40001
1.40001
1.40001
1.40001
1.40001
1.40001
1.40001
1.40001
1.40001
2.04735
4.8128
5.43797
5.44237
5.47218
5.49387
5.51007
5.52077
5.52721
5.53012
5.52928
5.51364
5.48327
5.44532
5.42109
1.40001
1.40001
1.40001
1.40001
1.40001
1.40001
1.40001
1.40001
1.40001
1.40001
1.40001
1.40001
1.40001
1.40001
1.40001
1.63483
4.54223
5.47707
5.42575
5.45081
5.46686
5.47417
5.47306
5.46504
5.45087
5.42595
5.38675
5.3351
5.26116
5.21418
1.40001
1.40001
1.40001
1.40001
1.40001
1.40001
1.40001
1.40001
1.40001
1.40001
1.40001
1.40001
1.40001
1.40001
1.40001
1.41471
4.02913
5.3422
5.35638
5.40229
5.41993
5.42621
5.41655
5.3957
5.36408
5.31562
5.24091
5.11812
4.78698
3.9174
1.40001
1.40001
1.40001
1.40001
1.40001
1.40001
1.40001
1.40001
1.40001
1.40001
1.40001
1.40001
1.40001
1.40001
1.40001
1.39999
3.35712
5.16849
5.28762
5.33889
5.35919
5.36608
5.35102
5.32058
5.27177
5.19495
5.0783
4.87137
4.52482
3.59582
1.40001
1.40001
1.40001
1.40001
1.40001
1.40001
1.40001
1.40001
1.40001
1.40001
1.40001
1.40001
1.40001
1.40001
1.40001
1.4
2.6703
4.96819
5.25988
5.29297
5.3067
5.30489
5.28375
5.24493
5.17885
5.07663
4.92787
4.67772
4.30783
3.46545
1.40001
1.40001
1.40001
1.40001
1.40001
1.40001
1.40001
1.40001
1.40001
1.40001
1.40001
1.40001
1.40001
1.40001
1.40001
1.4
1.98309
4.75023
5.27508
5.25688
5.25496
5.24292
5.21351
5.16444
5.08595
4.96593
4.79348
4.53753
4.13528
3.45341
1.40001
1.40001
1.40001
1.40001
1.40001
1.40001
1.40001
1.40001
1.40001
1.40001
1.40001
1.40001
1.40001
1.40001
1.40001
1.40001
1.48129
4.14861
5.27394
5.22331
5.20083
5.17551
5.13647
5.07766
4.99206
4.86485
4.6797
4.42533
4.02613
3.48642
1.40001
1.40001
1.40001
1.40001
1.40001
1.40001
1.40001
1.40001
1.40001
1.40001
1.40001
1.40001
1.40001
1.40001
1.40001
1.40001
1.40054
3.29828
5.1013
5.16363
5.14134
5.10815
5.06144
4.99269
4.89902
4.77032
4.58879
4.33716
3.97194
3.54092
1.40001
1.40001
1.40001
1.40001
1.40001
1.40001
1.40001
1.40001
1.40001
1.40001
1.40001
1.40001
1.40001
1.40001
1.40001
1.40001
1.4
2.30476
4.87854
5.17269
5.12809
5.08461
5.0183
4.9306
4.82223
4.68585
4.50982
4.26595
3.94907
3.58922
1.40001
1.40001
1.40001
1.40001
1.40001
1.40001
1.40001
1.40001
1.40001
1.40001
1.40001
1.40001
1.40001
1.40001
1.40001
1.40001
1.4
1.55386
4.30938
5.20231
5.11939
5.05146
4.96837
4.87044
4.75371
4.61689
4.44122
4.21242
3.94021
3.63679
1.40001
1.40001
1.40001
1.40001
1.40001
1.40001
1.40001
1.40001
1.40001
1.40001
1.40001
1.40001
1.40001
1.40001
1.40001
1.40001
1.4
1.40256
3.32572
4.99642
5.046
5.0031
4.92088
4.8213
4.7018
4.56352
4.38718
4.17506
3.9361
3.67227
1.40001
1.40001
1.40001
1.40001
1.40001
1.40001
1.40001
1.40001
1.40001
1.40001
1.40001
1.40001
1.40001
1.40001
1.40001
1.40001
1.40001
1.39998
2.17028
4.79858
5.0631
4.97252
4.88794
4.79401
4.67642
4.5301
4.35735
4.15975
3.94121
3.7041
1.40001
1.40001
1.40001
1.40001
1.40001
1.40001
1.40001
1.40001
1.40001
1.40001
1.40001
1.40001
1.40001
1.40001
1.40001
1.40001
1.40001
1.4
1.50008
4.00957
4.97846
4.91273
4.85148
4.76543
4.65216
4.50921
4.34028
4.15304
3.94811
3.72955
1.40001
1.40001
1.40001
1.40001
1.40001
1.40001
1.40001
1.40001
1.40001
1.40001
1.40001
1.40001
1.40001
1.40001
1.40001
1.40001
1.40001
1.4
1.4008
2.74056
4.7631
4.89054
4.84427
4.76235
4.64625
4.50415
4.34012
4.15863
3.9634
3.7601
1.40001
1.40001
1.40001
1.40001
1.40001
1.40001
1.40001
1.40001
1.40001
1.40001
1.40001
1.40001
1.40001
1.40001
1.40001
1.40001
1.40001
1.4
1.4
1.67495
4.25148
4.9418
4.85461
4.75981
4.63502
4.49369
4.33711
4.16532
3.98201
3.79344
1.40001
1.40001
1.40001
1.40001
1.40001
1.40001
1.40001
1.40001
1.40001
1.40001
1.40001
1.40001
1.40001
1.40001
1.40001
1.40001
1.40001
1.40001
1.4
1.40925
3.0613
4.76594
4.80819
4.72931
4.61559
4.48471
4.33671
4.1745
4.00403
3.82662
1.40001
1.40001
1.40001
1.40001
1.40001
1.40001
1.40001
1.40001
1.40001
1.40001
1.40001
1.40001
1.40001
1.40001
1.40001
1.40001
1.40001
1.40001
1.4
1.40001
1.80473
4.31696
4.86538
4.74143
4.62102
4.48982
4.34377
4.18762
4.02659
3.85877
1.40001
1.40001
1.40001
1.40001
1.40001
1.40001
1.40001
1.40001
1.40001
1.40001
1.40001
1.40001
1.40001
1.40001
1.40001
1.40001
1.40001
1.40001
1.40001
1.40001
1.42131
3.15287
4.72644
4.70808
4.61025
4.4882
4.34678
4.19772
4.04503
3.88854
1.40001
1.40001
1.40001
1.40001
1.40001
1.40001
1.40001
1.40001
1.40001
1.40001
1.40001
1.40001
1.40001
1.40001
1.40001
1.40001
1.40001
1.40001
1.40001
1.40001
1.40007
1.84579
4.22503
4.75615
4.63216
4.50397
4.36186
4.21853
4.07259
3.92452
1.40001
1.40001
1.40001
1.40001
1.40001
1.40001
1.40001
1.40001
1.40001
1.40001
1.40001
1.40001
1.40001
1.40001
1.40001
1.40001
1.40001
1.40001
1.40001
1.40001
1.40001
1.42554
2.98095
4.63145
4.62011
4.50287
4.37185
4.23755
4.10118
3.96128
1.40001
1.40001
1.40001
1.40001
1.40001
1.40001
1.40001
1.40001
1.40001
1.40001
1.40001
1.40001
1.40001
1.40001
1.40001
1.40001
1.40001
1.40001
1.40001
1.40001
1.40001
1.40016
1.7613
3.99898
4.67061
4.53215
4.40738
4.27564
4.14172
4.00437
1.40001
1.40001
1.40001
1.40001
1.40001
1.40001
1.40001
1.40001
1.40001
1.40001
1.40001
1.40001
1.40001
1.40001
1.40001
1.40001
1.40001
1.40001
1.40001
1.40001
1.40001
1.40001
1.41637
2.58467
4.43437
4.5524
4.43825
4.31131
4.17625
4.03814
1.40001
1.40001
1.40001
1.40001
1.40001
1.40001
1.40001
1.40001
1.40001
1.40001
1.40001
1.40001
1.40001
1.40001
1.40001
1.40001
1.40001
1.40001
1.40001
1.40001
1.40001
1.40001
1.40013
1.59593
3.56504
4.60215
4.49013
4.36371
4.22507
4.08501
1.40001
1.40001
1.40001
1.40001
1.40001
1.40001
1.40001
1.40001
1.40001
1.40001
1.40001
1.40001
1.40001
1.40001
1.40001
1.40001
1.40001
1.40001
1.40001
1.40001
1.40001
1.40001
1.40001
1.40509
2.13546
4.17067
4.52139
4.38995
4.25985
4.12758
1.40001
1.40001
1.40001
1.40001
1.40001
1.40001
1.40001
1.40001
1.40001
1.40001
1.40001
1.40001
1.40001
1.40001
1.40001
1.40001
1.40001
1.40001
1.40001
1.40001
1.40001
1.40001
1.40001
1.40003
1.47006
2.92599
4.39897
4.41804
4.31194
4.18642
1.40001
1.40001
1.40001
1.40001
1.40001
1.40001
1.40001
1.40001
1.40001
1.40001
1.40001
1.40001
1.40001
1.40001
1.40001
1.40001
1.40001
1.40001
1.40001
1.40001
1.40001
1.40001
1.40001
1.40001
1.40109
1.72947
3.6389
4.44548
4.37015
4.24181
1.40001
1.40001
1.40001
1.40001
1.40001
1.40001
1.40001
1.40001
1.40001
1.40001
1.40001
1.40001
1.40001
1.40001
1.40001
1.40001
1.40001
1.40001
1.40001
1.40001
1.40001
1.40001
1.40001
1.40001
1.40001
1.41449
2.21545
4.06422
4.39353
4.29705
1.40001
1.40001
1.40001
1.40001
1.40001
1.40001
1.40001
1.40001
1.40001
1.40001
1.40001
1.40001
1.40001
1.40001
1.40001
1.40001
1.40001
1.40001
1.40001
1.40001
1.40001
1.40001
1.40001
1.40001
1.40001
1.40014
1.48626
2.81766
4.23927
4.34262
1.40001
1.40001
1.40001
1.40001
1.40001
1.40001
1.40001
1.40001
1.40001
1.40001
1.40001
1.40001
1.40001
1.40001
1.40001
1.40001
1.40001
1.40001
1.40001
1.40001
1.40001
1.40001
1.40001
1.40001
1.40001
1.40001
1.40166
1.67679
3.37836
4.30018
1.40001
1.40001
1.40001
1.40001
1.40001
1.40001
1.40001
1.40001
1.40001
1.40001
1.40001
1.40001
1.40001
1.40001
1.40001
1.40001
1.40001
1.40001
1.40001
1.40001
1.40001
1.40001
1.40001
1.40001
1.40001
1.40001
1.40001
1.41114
2.01109
3.76644
1.40001
1.40001
1.40001
1.40001
1.40001
1.40001
1.40001
1.40001
1.40001
1.40001
1.40001
1.40001
1.40001
1.40001
1.40001
1.40001
1.40001
1.40001
1.40001
1.40001
1.40001
1.40001
1.40001
1.40001
1.40001
1.40001
1.40001
1.40011
1.44913
2.41929
1.40001
1.40001
1.40001
1.40001
1.40001
1.40001
1.40001
1.40001
1.40001
1.40001
1.40001
1.40001
1.40001
1.40001
1.40001
1.40001
1.40001
1.40001
1.40001
1.40001
1.40001
1.40001
1.40001
1.40001
1.40001
1.40001
1.40001
1.40001
1.40081
1.5382
1.40001
1.40001
1.40001
1.40001
1.40001
1.40001
1.40001
1.40001
1.40001
1.40001
1.40001
1.40001
1.40001
1.40001
1.40001
1.40001
1.40001
1.40001
1.40001
1.40001
1.40001
1.40001
1.40001
1.40001
1.40001
1.40001
1.40001
1.40001
1.40001
1.40355
1.40001
1.40001
1.40001
1.40001
1.40001
1.40001
1.40001
1.40001
1.40001
1.40001
1.40001
1.40001
1.40001
1.40001
1.40001
1.40001
1.40001
1.40001
1.40001
1.40001
1.40001
1.40001
1.40001
1.40001
1.40001
1.40001
1.40001
1.40001
1.40001
1.40003
1.40001
1.40001
1.40001
1.40001
1.40001
1.40001
1.40001
1.40001
1.40001
1.40001
1.40001
1.40001
1.40001
1.40001
1.40001
1.40001
1.40001
1.40001
1.40001
1.40001
1.40001
1.40001
1.40001
1.40001
1.40001
1.40001
1.40001
1.40001
1.40001
1.40001
1.40001
1.40001
1.40001
1.40001
1.40001
1.40001
1.40001
1.40001
1.40001
1.40001
1.40001
1.40001
1.40001
1.40001
1.40001
1.40001
1.40001
1.40001
1.40001
1.40001
1.40001
1.40001
1.40001
1.40001
1.40001
1.40001
1.40001
1.40001
1.40001
1.40001
1.40001
1.40001
1.40001
1.40001
1.40001
1.40001
1.40001
1.40001
1.40001
1.40001
1.40001
1.40001
1.40001
1.40001
1.40001
1.40001
1.40001
1.40001
1.40001
1.40001
1.40001
1.40001
1.40001
1.40001
1.40001
1.40001
1.40001
1.40001
1.40001
1.40001
1.40001
1.40001
1.40001
1.40001
1.40001
1.40001
1.40001
1.40001
1.40001
1.40001
1.40001
1.40001
1.40001
1.40001
1.40001
1.40001
1.40001
1.40001
1.40001
1.40001
1.40001
1.40001
1.40001
1.40001
1.40001
1.40001
1.40001
1.40001
1.40001
1.40001
1.40001
1.40001
1.40001
1.40001
1.40001
1.40001
1.40001
1.40001
1.40001
1.40001
1.40001
1.40001
1.40001
1.40001
1.40001
1.40001
1.40001
1.40001
1.40001
1.40001
1.40001
1.40001
1.40001
1.40001
1.40001
1.40001
1.40001
1.40001
1.40001
1.40001
1.40001
1.40001
1.40001
1.40001
1.40001
1.40001
1.40001
1.40001
1.40001
1.40001
1.40001
1.40001
1.40001
1.40001
1.40001
1.40001
1.40001
1.40001
1.40001
1.40001
1.40001
1.40001
1.40001
1.40001
1.40001
1.40001
1.40001
1.40001
1.40001
1.40001
1.40001
1.40001
1.40001
1.40001
1.40001
1.40001
1.40001
1.40001
1.40001
1.40001
1.40001
1.40001
1.40001
1.40001
1.40001
1.40001
1.40001
1.40001
1.40001
1.40001
1.40001
1.40001
1.40001
1.40001
1.40001
1.40001
1.40001
1.40001
1.40001
1.40001
1.40001
1.40001
1.40001
1.40001
1.40001
1.40001
1.40001
1.40001
1.40001
1.40001
1.40001
1.40001
1.40001
1.40001
1.40001
1.40001
1.40001
1.40001
1.40001
1.40001
1.40001
1.40001
1.40001
1.40001
1.40001
1.40001
1.40001
1.40001
1.40001
1.40001
1.22653
0.436974
0.19324
0.149657
0.170185
0.200211
0.258312
0.355926
0.488192
0.612134
0.662633
0.6816
0.712637
0.778967
0.894902
0.999767
1.01404
1.00619
0.964841
0.94583
0.947546
0.974728
1.03542
1.06514
1.06807
1.05871
1.04134
1.04343
1.05618
1.08419
1.10553
1.10685
1.09914
1.08702
1.08727
1.09416
1.14259
2.34198
2.93395
2.96086
2.98718
3.00134
3.01413
3.02325
3.02699
3.0234
3.01147
2.9936
2.97658
2.96489
2.95819
2.95086
2.9354
2.91159
2.88694
2.86723
2.85394
2.84539
2.83628
2.81979
2.79499
2.76954
2.74916
2.73558
2.72563
2.71174
2.68924
2.66195
2.6356
2.61444
2.59882
2.57931
2.55144
2.52146
2.4909
2.46447
2.44291
2.42681
2.4115
2.39227
2.37117
2.34943
2.32729
2.30655
2.28792
2.27226
2.25749
2.24107
2.22204
2.20187
2.1796
2.15651
2.13544
2.11783
2.10262
2.09072
2.07917
2.06335
2.04107
2.00841
1.97782
1.95997
1.94737
1.93637
1.92575
1.91222
1.89613
1.87519
1.8526
1.83628
1.82403
1.81409
1.80545
1.79413
1.77817
1.75209
1.71943
1.69595
1.68504
1.67125
1.88632
1.1341
0.770982
0.584452
0.509537
0.463807
0.440805
0.448679
0.476757
0.518041
0.554557
0.586984
0.627999
0.679837
0.76727
0.88135
0.92706
0.948112
0.955834
0.95615
0.965011
0.994176
1.04264
1.07538
1.08079
1.08211
1.07583
1.06934
1.07144
1.08098
1.10208
1.11723
1.12023
1.11917
1.11488
1.11217
1.12161
2.2509
2.97622
3.05392
3.06559
3.05742
3.04551
3.03704
3.03444
3.03607
3.03612
3.02325
2.99964
2.97923
2.97021
2.97049
2.97157
2.9624
2.93763
2.90551
2.87537
2.85206
2.84115
2.83755
2.82441
2.79648
2.76587
2.73812
2.71423
2.69794
2.68602
2.67279
2.65413
2.63197
2.60984
2.58581
2.56089
2.53661
2.5132
2.49178
2.46928
2.44415
2.41931
2.39728
2.37841
2.36185
2.34436
2.32383
2.30113
2.278
2.25682
2.23783
2.22276
2.20811
2.19094
2.17245
2.15138
2.12885
2.10774
2.09036
2.07417
2.05896
2.04055
2.01743
1.99261
1.96808
1.94865
1.93552
1.92479
1.91369
1.89974
1.88294
1.86337
1.84376
1.82685
1.81264
1.79934
1.78704
1.77419
1.75684
1.73536
1.71179
1.69259
1.67262
2.37428
1.71271
1.33333
1.03701
0.845722
0.737413
0.640913
0.5922
0.592144
0.594122
0.607487
0.643224
0.679621
0.689583
0.698077
0.751867
0.841252
0.903414
0.958365
1.00731
1.0388
1.07201
1.1018
1.11095
1.1174
1.12862
1.14137
1.14448
1.14139
1.13134
1.12816
1.1325
1.14299
1.1594
1.16312
1.16187
1.16856
2.12682
3.15892
3.21187
3.18233
3.18516
3.1748
3.15484
3.13903
3.13299
3.1377
3.14241
3.12392
3.08879
3.05582
3.03515
3.03064
3.03493
3.03501
3.01805
2.98584
2.94905
2.91842
2.89901
2.89006
2.87665
2.85084
2.81771
2.77996
2.74635
2.72145
2.70764
2.70106
2.68661
2.6601
2.62944
2.59546
2.56575
2.54404
2.52976
2.51567
2.49364
2.46691
2.43493
2.40581
2.3859
2.37084
2.35876
2.34106
2.31794
2.28774
2.25526
2.23146
2.21475
2.20373
2.19556
2.18263
2.16535
2.14137
2.10913
2.07746
2.05457
2.03932
2.02728
2.01319
1.99598
1.97183
1.94399
1.92462
1.91259
1.90364
1.89371
1.88117
1.86478
1.84244
1.81871
1.79975
1.78325
1.76774
1.75678
1.74729
1.73476
1.71564
1.68149
2.72507
2.15145
1.73764
1.45916
1.236
1.07849
0.943942
0.81044
0.780222
0.780203
0.76257
0.742916
0.721229
0.694859
0.67628
0.684235
0.720289
0.788352
0.87136
0.945788
1.0062
1.04467
1.07896
1.09546
1.10784
1.13047
1.16923
1.19532
1.19771
1.19038
1.17271
1.17245
1.18166
1.19658
1.20004
1.20989
1.2696
2.01229
3.39737
3.52241
3.38578
3.34282
3.33536
3.31741
3.29517
3.2723
3.25952
3.25876
3.25637
3.23581
3.2016
3.16299
3.13709
3.12023
3.11368
3.11
3.09581
3.07082
3.03829
3.00288
2.97302
2.94732
2.92468
2.89849
2.86963
2.83509
2.8027
2.77961
2.76275
2.74922
2.72831
2.70396
2.6756
2.64151
2.60816
2.58318
2.56226
2.54169
2.51972
2.49619
2.46871
2.43833
2.414
2.39623
2.37915
2.3596
2.3368
2.31009
2.27967
2.2518
2.23346
2.21939
2.20782
2.19384
2.17535
2.1482
2.11293
2.08324
2.06597
2.0529
2.04081
2.02758
2.01044
1.98204
1.94767
1.92711
1.91595
1.90725
1.89768
1.88504
1.86781
1.84262
1.81267
1.78892
1.77584
1.76712
1.76045
1.75202
1.74099
1.70545
2.93608
2.49058
2.10603
1.77822
1.53382
1.37308
1.25237
1.1272
0.985003
0.910409
0.887736
0.862776
0.834231
0.799319
0.752077
0.71883
0.723988
0.738818
0.769421
0.819145
0.883199
0.933986
0.976828
1.02797
1.06601
1.0998
1.14522
1.18382
1.19242
1.19236
1.18588
1.19217
1.20301
1.21818
1.23414
1.31576
1.58152
1.96595
3.09972
3.70778
3.63559
3.52081
3.47915
3.44968
3.42857
3.39977
3.37519
3.36181
3.35223
3.3499
3.33444
3.30431
3.26227
3.22643
3.20351
3.18951
3.184
3.17201
3.15024
3.11814
3.07248
3.0289
2.998
2.97164
2.94506
2.91672
2.88605
2.85506
2.82835
2.80632
2.78684
2.76791
2.7479
2.72467
2.69343
2.65342
2.61751
2.59261
2.57202
2.55284
2.53292
2.50905
2.47876
2.44589
2.41958
2.39877
2.37935
2.35952
2.33747
2.31181
2.28399
2.25902
2.23822
2.21853
2.19792
2.17551
2.1518
2.12791
2.10587
2.08893
2.07491
2.06098
2.04519
2.02325
1.99265
1.96249
1.9428
1.92947
1.91668
1.90239
1.88543
1.8646
1.84075
1.81793
1.80081
1.78941
1.7802
1.77053
1.76029
1.7286
3.11002
2.71701
2.3723
2.09457
1.83471
1.59647
1.46343
1.37433
1.26754
1.13881
1.03153
0.992319
0.975563
0.951793
0.910295
0.856824
0.806549
0.784069
0.783762
0.793774
0.801853
0.81891
0.83968
0.878555
0.93405
0.979699
1.03064
1.09203
1.14654
1.17567
1.18594
1.19677
1.20317
1.22426
1.30877
1.59838
2.0301
2.1197
2.44705
3.25962
3.61665
3.6372
3.60305
3.55398
3.50327
3.46417
3.42609
3.41079
3.39918
3.40064
3.40025
3.37937
3.34354
3.29478
3.25557
3.23354
3.22116
3.21652
3.19974
3.17276
3.13197
3.07931
3.03873
3.01437
2.99191
2.96902
2.94431
2.91589
2.88367
2.85618
2.83608
2.81862
2.79941
2.7771
2.74706
2.70398
2.65898
2.63184
2.61357
2.59621
2.57796
2.55757
2.52947
2.49008
2.45449
2.43286
2.41593
2.39914
2.38088
2.35837
2.32825
2.29509
2.26782
2.2455
2.22554
2.20782
2.19158
2.17314
2.14909
2.12413
2.10542
2.08945
2.07272
2.05382
2.03081
2.00248
1.97408
1.95279
1.93614
1.91976
1.90267
1.88631
1.87097
1.85441
1.83527
1.81681
1.80247
1.78967
1.77628
1.74666
3.23515
2.89992
2.57154
2.31128
2.09085
1.8746
1.67596
1.53274
1.44826
1.36165
1.26928
1.15835
1.06548
1.0364
1.01293
0.979441
0.94279
0.904025
0.857864
0.818212
0.814712
0.820448
0.836776
0.844274
0.852271
0.863036
0.883404
0.929851
1.00127
1.07536
1.1461
1.18048
1.20107
1.30088
1.60114
1.94755
2.18781
2.23314
2.26764
2.5227
3.14327
3.52905
3.61658
3.61083
3.54386
3.49258
3.45001
3.42449
3.41126
3.40949
3.41327
3.39985
3.37425
3.33641
3.28607
3.24923
3.22777
3.21447
3.2004
3.17857
3.15269
3.11553
3.07188
3.04138
3.01922
2.99799
2.97594
2.95236
2.92438
2.89168
2.86349
2.84203
2.82031
2.79564
2.76649
2.73143
2.69212
2.65891
2.63774
2.6203
2.60254
2.58273
2.55732
2.52261
2.48493
2.4586
2.44078
2.42438
2.40698
2.38531
2.35399
2.31461
2.28308
2.26322
2.24822
2.23525
2.22271
2.20793
2.18578
2.15447
2.12707
2.10856
2.09242
2.07666
2.05906
2.03471
2.00221
1.96958
1.94646
1.93036
1.91765
1.90714
1.89679
1.88438
1.86706
1.84352
1.82002
1.80115
1.78586
1.76037
3.33756
3.03757
2.74664
2.50088
2.26744
2.06522
1.90045
1.74518
1.58098
1.4847
1.43023
1.35115
1.25152
1.14294
1.08728
1.07633
1.06193
1.03386
0.987562
0.918781
0.875011
0.872082
0.869121
0.85885
0.855599
0.852491
0.846561
0.850169
0.871809
0.92133
0.993812
1.07679
1.20189
1.53646
1.90565
2.10075
2.1814
2.23834
2.25432
2.28033
2.49546
3.05235
3.46328
3.58203
3.55607
3.50442
3.47285
3.44583
3.42147
3.40942
3.40073
3.3937
3.37595
3.35182
3.31552
3.26313
3.22249
3.1982
3.1803
3.1737
3.16004
3.13695
3.10198
3.05829
3.02922
3.00796
2.9883
2.96843
2.94614
2.91671
2.87749
2.84209
2.81654
2.79284
2.7691
2.74506
2.7178
2.68415
2.65092
2.6287
2.61053
2.59144
2.56976
2.54394
2.51282
2.47982
2.45388
2.43508
2.41738
2.39643
2.36827
2.33171
2.29904
2.28073
2.26794
2.25695
2.24414
2.22832
2.20579
2.17308
2.13902
2.11832
2.10544
2.09178
2.07396
2.05182
2.02411
1.99126
1.95939
1.93964
1.9288
1.91953
1.91107
1.90185
1.88953
1.86775
1.83573
1.80537
1.78972
1.76971
3.41013
3.14221
2.88249
2.65694
2.43207
2.21673
2.062
1.92908
1.77595
1.62935
1.52456
1.46696
1.4057
1.32381
1.22949
1.15118
1.12596
1.11437
1.08949
1.04752
0.985126
0.935771
0.924239
0.909281
0.878591
0.868778
0.87203
0.868863
0.864593
0.86788
0.884921
0.960016
1.27176
1.69585
1.90261
2.01274
2.07563
2.13559
2.19843
2.24683
2.28421
2.46123
2.97337
3.3709
3.48376
3.4995
3.48904
3.47073
3.44952
3.42023
3.39362
3.37476
3.36574
3.35164
3.32876
3.28915
3.23124
3.19362
3.17494
3.16978
3.16287
3.14319
3.11662
3.07532
3.03286
3.00829
2.98867
2.97198
2.95198
2.92759
2.89101
2.84537
2.81121
2.78897
2.77017
2.75332
2.73388
2.70784
2.67165
2.63608
2.61182
2.59227
2.57341
2.5538
2.53083
2.50142
2.46828
2.43984
2.41737
2.3968
2.37556
2.35226
2.32617
2.29993
2.27931
2.26201
2.24427
2.22633
2.20738
2.18396
2.15488
2.12603
2.1033
2.08545
2.07003
2.05453
2.03636
2.01515
1.98926
1.96222
1.94593
1.93737
1.92912
1.91698
1.90012
1.877
1.85024
1.82406
1.80632
1.785
3.46882
3.23066
2.99006
2.77654
2.57643
2.3767
2.20105
2.05183
1.92732
1.80748
1.68484
1.55463
1.48342
1.44221
1.38263
1.30488
1.21983
1.17463
1.16298
1.14581
1.10887
1.04605
0.998083
0.985332
0.961464
0.924749
0.912787
0.903276
0.889477
0.893443
0.956295
1.19829
1.55785
1.70111
1.76243
1.78962
1.83753
1.91629
2.00968
2.09072
2.1621
2.21093
2.36702
2.83906
3.25985
3.42269
3.48526
3.47653
3.46677
3.44229
3.39965
3.363
3.3468
3.33859
3.32538
3.3031
3.26528
3.21736
3.18728
3.16926
3.15567
3.13816
3.11529
3.0838
3.03962
3.00716
2.98588
2.96791
2.94965
2.92911
2.90087
2.85642
2.81393
2.79199
2.77565
2.76086
2.74299
2.722
2.69243
2.65174
2.61642
2.59324
2.574
2.55551
2.53625
2.51239
2.47945
2.4439
2.41883
2.40124
2.38548
2.36927
2.34796
2.31677
2.28285
2.2581
2.23958
2.22224
2.20517
2.18748
2.16475
2.13329
2.10261
2.08223
2.06728
2.05351
2.04153
2.02949
2.01517
1.99518
1.96812
1.94062
1.91979
1.90299
1.88578
1.8703
1.85823
1.84509
1.82948
1.79565
3.51558
3.29671
3.07882
2.88083
2.68227
2.49676
2.34061
2.184
2.02684
1.92341
1.82729
1.70762
1.59022
1.51157
1.47525
1.43212
1.36607
1.28109
1.21984
1.20429
1.18802
1.15057
1.09039
1.04902
1.03084
1.00677
0.97439
0.953304
0.946572
0.997767
1.22782
1.54662
1.7367
1.73294
1.72164
1.71677
1.7221
1.73822
1.76783
1.82045
1.88888
1.95834
2.02077
2.18128
2.61991
3.1331
3.35915
3.4506
3.47304
3.44728
3.41736
3.36615
3.33136
3.3153
3.30754
3.29951
3.28145
3.25218
3.20871
3.17346
3.15111
3.13011
3.10726
3.07996
3.0434
3.00686
2.98344
2.9655
2.94923
2.93076
2.90859
2.87463
2.82948
2.79933
2.78126
2.76438
2.74594
2.72622
2.7021
2.6681
2.6288
2.59837
2.57595
2.55577
2.53561
2.51323
2.48407
2.44769
2.42161
2.40684
2.39276
2.37803
2.35944
2.32862
2.28566
2.25203
2.23198
2.21681
2.20287
2.18845
2.17064
2.14311
2.10705
2.07991
2.06531
2.05479
2.04783
2.04013
2.02894
2.01436
1.98699
1.94711
1.91524
1.89528
1.88031
1.86964
1.86058
1.85149
1.83996
1.8028
3.55872
3.35429
3.15719
2.96847
2.77828
2.60327
2.45103
2.30425
2.15678
2.03092
1.92275
1.83297
1.74034
1.63873
1.54594
1.50388
1.46914
1.41039
1.32597
1.26555
1.2469
1.22314
1.18201
1.12879
1.09897
1.07609
1.04817
1.04808
1.10316
1.32735
1.63524
1.79383
1.80343
1.78503
1.76586
1.75828
1.75106
1.73766
1.73591
1.73986
1.75397
1.77945
1.80256
1.82776
1.93567
2.30513
2.88327
3.2327
3.38687
3.43565
3.42957
3.38858
3.32624
3.29394
3.27656
3.27512
3.27833
3.26094
3.2291
3.18259
3.14435
3.11945
3.09599
3.07146
3.04286
3.01019
2.98425
2.96694
2.95279
2.93457
2.9138
2.88775
2.85048
2.80942
2.7823
2.76266
2.74366
2.72392
2.7025
2.67678
2.64312
2.60783
2.58033
2.55815
2.53682
2.51414
2.48823
2.45757
2.42622
2.40727
2.39571
2.38157
2.36229
2.33368
2.29406
2.25438
2.22937
2.21282
2.19896
2.18594
2.17184
2.15203
2.12401
2.09463
2.07411
2.06191
2.05195
2.04514
2.03761
2.02274
1.99572
1.95279
1.91281
1.89184
1.88159
1.87511
1.8685
1.85816
1.8434
1.80402
3.59961
3.40767
3.22603
3.04265
2.86233
2.70439
2.55131
2.39842
2.26744
2.15279
2.03289
1.91156
1.83875
1.7654
1.67329
1.57996
1.52712
1.49334
1.43892
1.36343
1.30742
1.28023
1.24981
1.20796
1.16662
1.13519
1.13887
1.21268
1.47988
1.79638
1.91122
1.88993
1.86748
1.85875
1.86154
1.85556
1.84
1.80933
1.76925
1.75388
1.75319
1.75545
1.7668
1.76795
1.7626
1.78977
1.99956
2.49809
2.99289
3.29637
3.39905
3.40005
3.34912
3.29014
3.2633
3.25218
3.25903
3.253
3.22995
3.19099
3.14078
3.10724
3.08467
3.06378
3.04296
3.02217
2.9988
2.97139
2.94629
2.92728
2.9101
2.89061
2.86293
2.82276
2.78089
2.75358
2.73483
2.71768
2.69963
2.67909
2.65179
2.61686
2.58387
2.55928
2.53833
2.51778
2.49574
2.46892
2.43642
2.40723
2.38366
2.36431
2.34679
2.32812
2.30239
2.27009
2.23841
2.21512
2.19814
2.18276
2.1681
2.15383
2.13868
2.11993
2.09615
2.07346
2.05674
2.04256
2.02605
2.00699
1.98489
1.95748
1.93001
1.90739
1.88763
1.86881
1.85267
1.83906
1.82398
1.79652
3.64198
3.46169
3.28775
3.11144
2.94615
2.79282
2.64268
2.49466
2.36795
2.25011
2.13829
2.02323
1.92945
1.85088
1.78019
1.69703
1.60796
1.55242
1.515
1.46479
1.39348
1.33887
1.3101
1.27514
1.23545
1.24116
1.33508
1.63059
1.97504
2.06988
2.03032
1.97392
1.95525
1.9537
1.95642
1.94361
1.92412
1.8982
1.854
1.82323
1.80667
1.79177
1.78155
1.7762
1.77179
1.76213
1.75709
1.81751
2.11702
2.66078
3.09489
3.31322
3.35577
3.32084
3.27102
3.24879
3.24348
3.23815
3.21875
3.19087
3.14355
3.10062
3.07792
3.06039
3.04782
3.03307
3.0111
2.97936
2.94365
2.91658
2.89692
2.87765
2.85709
2.82907
2.79014
2.75283
2.72584
2.70608
2.68924
2.67146
2.65162
2.62497
2.59022
2.55937
2.53775
2.5199
2.50203
2.48037
2.44864
2.40902
2.37579
2.35325
2.33509
2.31799
2.30248
2.28523
2.26034
2.22728
2.19927
2.18201
2.16935
2.15864
2.14787
2.13509
2.11706
2.08997
2.05919
2.03308
2.01244
1.99231
1.97092
1.95596
1.94399
1.92746
1.90142
1.87173
1.84755
1.82673
1.80941
1.79153
3.68546
3.51629
3.34669
3.17955
3.02628
2.87565
2.7234
2.58845
2.46556
2.34431
2.22322
2.12393
2.03318
1.93847
1.84621
1.78196
1.71084
1.63072
1.57224
1.53578
1.48159
1.4112
1.3662
1.33389
1.3501
1.47234
1.75497
2.09331
2.2206
2.20112
2.13659
2.06649
2.0444
2.03895
2.03866
2.02748
2.00978
1.98722
1.94891
1.90589
1.88182
1.86546
1.84875
1.8326
1.81575
1.79633
1.76729
1.75095
1.75902
1.87945
2.27244
2.78881
3.17676
3.26791
3.28926
3.25757
3.24161
3.23484
3.21548
3.19303
3.14976
3.10243
3.07876
3.06352
3.05658
3.04341
3.02228
2.99164
2.94742
2.90495
2.87976
2.86204
2.84442
2.82526
2.80013
2.76396
2.7248
2.69747
2.67937
2.66441
2.64798
2.62717
2.59759
2.56362
2.54013
2.52381
2.50798
2.48731
2.45621
2.41437
2.37371
2.34656
2.32788
2.31423
2.30288
2.29115
2.27415
2.24844
2.21769
2.19072
2.17166
2.15888
2.15089
2.14276
2.12701
2.0996
2.06187
2.02681
1.99901
1.97922
1.96768
1.95935
1.94883
1.93609
1.91541
1.88184
1.84615
1.81887
1.80378
1.79323
3.72896
3.56811
3.40577
3.25139
3.10197
2.95211
2.80664
2.67839
2.55253
2.43034
2.31327
2.21447
2.11795
2.02718
1.9306
1.85879
1.79321
1.72302
1.65163
1.59764
1.5465
1.49243
1.44325
1.46476
1.63808
1.94015
2.20082
2.3284
2.31379
2.27703
2.23078
2.17706
2.14249
2.12837
2.12133
2.1112
2.0931
2.06843
2.0348
1.99026
1.95631
1.93873
1.92189
1.90313
1.88061
1.85573
1.82707
1.79174
1.76015
1.76071
1.78974
1.98169
2.44242
2.91123
3.18975
3.23015
3.25261
3.25115
3.22711
3.20419
3.16329
3.11631
3.08586
3.07004
3.06252
3.05128
3.03289
3.00734
2.96414
2.90673
2.86796
2.84748
2.83144
2.81828
2.80173
2.77918
2.74564
2.70495
2.67354
2.65333
2.638
2.62172
2.60197
2.57661
2.54796
2.51986
2.49342
2.47109
2.45099
2.42215
2.38741
2.35788
2.33542
2.31621
2.29995
2.28699
2.27653
2.26086
2.23471
2.20439
2.18006
2.16268
2.14601
2.12856
2.1115
2.09148
2.06279
2.02765
1.99872
1.98182
1.97127
1.96313
1.95774
1.94507
1.92197
1.88633
1.85157
1.82997
1.81887
1.80369
3.77478
3.62032
3.46627
3.31994
3.17363
3.02435
2.88942
2.76125
2.63586
2.50906
2.40339
2.30075
2.20232
2.10322
2.01907
1.94252
1.86665
1.79804
1.73228
1.66381
1.60806
1.57307
1.61831
1.84833
2.22561
2.38957
2.43057
2.39752
2.36216
2.34627
2.32663
2.29392
2.25095
2.22637
2.2097
2.1902
2.16881
2.14313
2.10964
2.07206
2.04176
2.01778
1.99539
1.9742
1.95198
1.92503
1.89176
1.85436
1.82154
1.79798
1.77945
1.78498
1.84139
2.10298
2.56993
2.96184
3.15907
3.23677
3.23557
3.21433
3.18206
3.14943
3.10937
3.07958
3.06407
3.05144
3.03491
3.01445
2.98471
2.93437
2.87428
2.84129
2.8247
2.81139
2.8005
2.78519
2.76436
2.7299
2.68507
2.6502
2.62763
2.61153
2.59712
2.58079
2.55622
2.52357
2.49163
2.46405
2.43836
2.41755
2.39758
2.37394
2.34889
2.32638
2.30597
2.28466
2.26257
2.2472
2.23398
2.21331
2.18924
2.16417
2.1385
2.11453
2.09362
2.07542
2.05699
2.03544
2.01671
2.00096
1.98493
1.96806
1.94711
1.92587
1.90292
1.87826
1.86409
1.85366
1.8429
1.81955
3.81588
3.66857
3.52469
3.38086
3.23544
3.09703
2.96767
2.83875
2.71008
2.59327
2.48794
2.38288
2.28174
2.18354
2.10492
2.02307
1.94661
1.87249
1.79767
1.74188
1.71037
1.78555
2.03411
2.44549
2.63424
2.60612
2.55219
2.48513
2.45702
2.4491
2.4323
2.40167
2.35938
2.32269
2.2968
2.27115
2.24352
2.2139
2.17976
2.14243
2.11182
2.08912
2.06785
2.04621
2.02175
1.99225
1.95725
1.91714
1.87877
1.85402
1.83091
1.81405
1.80981
1.81073
1.89067
2.1887
2.62436
3.01959
3.13714
3.19539
3.21538
3.18517
3.15548
3.10436
3.06553
3.04713
3.02935
3.01164
2.99154
2.96049
2.91098
2.85818
2.82843
2.81207
2.7981
2.7843
2.76834
2.74747
2.71299
2.66663
2.62732
2.60313
2.58684
2.57218
2.55581
2.53449
2.50616
2.47139
2.43852
2.41456
2.39629
2.37809
2.35851
2.3385
2.31385
2.28524
2.25906
2.23668
2.22028
2.20897
2.19163
2.16464
2.13432
2.10786
2.08426
2.06431
2.05226
2.04631
2.03899
2.02451
2.00058
1.96754
1.93529
1.90912
1.89126
1.88313
1.87869
1.87012
1.85944
1.82907
3.8606
3.71719
3.57869
3.43799
3.29594
3.16627
3.03962
2.91161
2.78461
2.67638
2.56781
2.46487
2.35799
2.27081
2.1858
2.10213
2.01944
1.94013
1.87466
1.88195
2.01218
2.30501
2.60076