/*--------------------------------*- C++ -*----------------------------------*\
  =========                 |
  \\      /  F ield         | OpenFOAM: The Open Source CFD Toolbox
   \\    /   O peration     | Website:  https://openfoam.org
    \\  /    A nd           | Version:  9
     \\/     M anipulation  |
\*---------------------------------------------------------------------------*/
FoamFile
{
    format      ascii;
    class       surfaceScalarField;
    location    "4.4";
    object      phi;
}
// * * * * * * * * * * * * * * * * * * * * * * * * * * * * * * * * * * * * * //

dimensions      [0 3 -1 0 0 0 0];

internalField   nonuniform List<scalar> 
16735
(
-0.0126974
0.0126974
-2.70774e-10
-0.0349409
0.0222434
-6.62719e-10
-0.0632645
0.0283236
-1.0053e-09
-0.0963307
0.0330663
-1.33887e-09
-0.133537
0.0372062
-1.67559e-09
-0.172861
0.0393241
-1.95188e-09
-0.210985
0.0381237
-2.10699e-09
-0.240091
0.0291067
-2.03778e-09
-0.254758
0.0146664
-1.70765e-09
-0.018167
-9.32982e-10
-0.236591
-0.0121821
0.0248796
-0.0336754
0.0437367
-0.0610118
0.05566
-0.0927166
0.064771
-0.128056
0.0725459
-0.164915
0.0761826
-0.200093
0.0733024
-0.225775
0.0547882
-0.236588
0.0254797
-0.0406147
-0.214141
-0.0111827
0.0360623
-0.0312124
0.0637665
-0.0566254
0.081073
-0.085688
0.0938335
-0.117417
0.104275
-0.149522
0.108288
-0.179012
0.102792
-0.198341
0.0741174
-0.202111
0.0292495
-0.0701215
-0.172604
-0.00975952
0.0458218
-0.0276836
0.0816906
-0.0503349
0.103724
-0.0756296
0.119128
-0.102236
0.130881
-0.127635
0.133687
-0.149043
0.1242
-0.159818
0.0848918
-0.154191
0.0236226
-0.107868
-0.116444
-0.00799856
0.0538203
-0.0232765
0.0969685
-0.0424653
0.122913
-0.063084
0.139747
-0.0833801
0.151177
-0.100594
0.150901
-0.112002
0.135609
-0.112805
0.0856943
-0.096034
0.00685177
-0.153924
-0.0499788
-0.00600573
0.0598261
-0.0182239
0.109187
-0.0334164
0.138106
-0.0487128
0.155043
-0.0619065
0.164371
-0.0700467
0.159041
-0.0701615
0.135724
-0.0604018
0.0759346
-0.0312523
-0.0222978
-0.207507
0.0223317
-0.00390028
0.0637263
-0.0127902
0.118077
-0.0236381
0.148954
-0.0332508
0.164656
-0.03898
0.1701
-0.0378449
0.157906
-0.0261816
0.12406
-0.0064855
0.0562385
0.0350512
-0.0638345
-0.26864
0.0961837
-0.00180699
0.0655333
-0.00725702
0.123527
-0.0136058
0.155302
-0.0174561
0.168506
-0.0157679
0.168412
-0.00589562
0.148034
0.0169167
0.101248
0.0474806
0.0256747
0.0987135
-0.115067
-0.337748
0.167822
0.000155492
0.0653778
-0.00190676
0.125589
-0.00380051
0.157196
-0.00209381
0.1668
0.0066564
0.159661
0.0247234
0.129967
0.0564134
0.069558
0.0968525
-0.0147644
0.157528
-0.175743
-0.413715
0.233494
0.00187114
0.0635067
0.00298877
0.124471
0.00536151
0.154823
0.0123255
0.159836
0.0273086
0.144678
0.0522166
0.105059
0.090932
0.0308426
0.140183
-0.0640155
0.210151
-0.24571
-0.494983
0.291419
0.00325548
0.0602512
0.00719735
0.120529
0.0134399
0.148581
0.0250481
0.148227
0.0453852
0.124341
0.0757635
0.0746805
0.119795
-0.0131886
0.177658
-0.121879
0.256801
-0.324854
-0.579335
0.341154
0.00424429
0.0560069
0.0105255
0.114248
0.0200839
0.139022
0.0356145
0.132697
0.0603016
0.0996542
0.0950807
0.0399014
0.143806
-0.0619138
0.210975
-0.189048
0.298303
-0.412182
-0.663767
0.382735
0.00480725
0.0511997
0.0128525
0.106203
0.0250664
0.126808
0.0437376
0.114026
0.0718303
0.0715614
0.110627
0.0011049
0.165021
-0.116308
0.242257
-0.266285
0.334941
-0.504865
-0.744831
0.416004
0.00494906
0.0462506
0.0141405
0.0970115
0.0283032
0.112646
0.049392
0.0929368
0.0802835
0.0406699
0.123822
-0.042434
0.185982
-0.178467
0.272623
-0.352925
0.366047
-0.59829
-0.819562
0.440778
0.00470884
0.0415418
0.0144473
0.0872731
0.0298989
0.0971941
0.0529184
0.0699173
0.0867852
0.00680308
0.136831
-0.0924802
0.208447
-0.250083
0.301404
-0.445882
0.39045
-0.687336
-0.886168
0.457056
0.00415726
0.0373845
0.0139312
0.0774991
0.0301776
0.0809476
0.0550879
0.0450071
0.093094
-0.031203
0.151793
-0.151179
0.232423
-0.330713
0.326654
-0.540113
0.407299
-0.76798
-0.944212
0.465343
0.00339124
0.0339933
0.0128464
0.068044
0.0296916
0.0641024
0.0570903
0.0176084
0.101199
-0.0753121
0.169659
-0.219638
0.256168
-0.417222
0.346398
-0.630343
0.416543
-0.838125
-0.994319
0.46665
0.00252618
0.0314671
0.0115248
0.0590454
0.0291782
0.046449
0.0603197
-0.0135331
0.11251
-0.127502
0.189654
-0.296782
0.277249
-0.504818
0.359588
-0.712683
0.418888
-0.897425
-1.03765
0.462222
0.00168478
0.0297823
0.01034
0.0503902
0.0294579
0.027331
0.066
-0.0500751
0.127152
-0.188655
0.209697
-0.379327
0.293768
-0.588888
0.366247
-0.785162
0.415456
-0.946634
-1.07543
0.453238
0.000982597
0.0287997
0.00965059
0.0417222
0.0312864
0.00569516
0.0747382
-0.0935269
0.143929
-0.257846
0.227483
-0.46288
0.304911
-0.666316
0.367042
-0.847293
0.407427
-0.987019
-1.10868
0.440674
0.000511628
0.0282881
0.00975574
0.0324781
0.0351877
-0.0197368
0.0862756
-0.144615
0.160902
-0.332473
0.241419
-0.543397
0.310702
-0.735599
0.36311
-0.899701
0.39751
-1.02142
-1.1369
0.425724
0.000325293
0.0279628
0.0108613
0.021942
0.0413112
-0.0501866
0.099598
-0.202902
0.176185
-0.40906
0.250897
-0.61811
0.31164
-0.796341
0.355703
-0.943764
0.387681
-1.0534
-1.16128
0.412068
0.000436812
0.027526
0.0130632
0.00931567
0.0493804
-0.0865039
0.113313
-0.266834
0.188511
-0.484258
0.256017
-0.685615
0.308549
-0.848873
0.346104
-0.981319
0.373959
-1.08125
-1.18256
0.39524
0.000839115
0.0266869
0.016355
-0.00620022
0.0587873
-0.128936
0.126071
-0.334118
0.197346
-0.555533
0.257235
-0.745505
0.302352
-0.89399
0.334367
-1.01333
0.359328
-1.10621
-1.20276
0.379526
0.00151265
0.0251742
0.0206244
-0.025312
0.0687741
-0.177086
0.136876
-0.40222
0.202685
-0.621341
0.255141
-0.797961
0.293711
-0.93256
0.321324
-1.04095
0.343683
-1.12857
-1.2212
0.362125
0.0024384
0.0227358
0.0256607
-0.0485342
0.0785698
-0.229995
0.145199
-0.468849
0.204811
-0.680954
0.250323
-0.843473
0.283272
-0.965508
0.307223
-1.0649
0.327403
-1.14875
-1.23865
0.344844
0.00361493
0.0191209
0.0311904
-0.0761097
0.0874753
-0.28628
0.150904
-0.532278
0.204126
-0.734176
0.243338
-0.882685
0.271484
-0.993655
0.292431
-1.08585
0.310733
-1.16705
-1.25486
0.326944
0.00505604
0.0140648
0.0369184
-0.107972
0.0949772
-0.344339
0.154101
-0.591402
0.201061
-0.781135
0.234655
-0.91628
0.258732
-1.01773
0.277137
-1.10425
0.293733
-1.18365
-1.26999
0.308865
0.00676798
0.00729686
0.0425745
-0.143779
0.100785
-0.402549
0.155018
-0.645635
0.196032
-0.822149
0.224675
-0.944923
0.245286
-1.03834
0.261503
-1.12047
0.276528
-1.19868
-1.28394
0.290477
0.00872273
-0.00142588
0.0479246
-0.18298
0.104836
-0.459461
0.153924
-0.694723
0.189413
-0.857638
0.213717
-0.969227
0.231359
-1.05598
0.245633
-1.13474
0.259142
-1.21218
-1.29667
0.271879
0.0108501
-0.012276
0.0527531
-0.224883
0.107187
-0.513895
0.151098
-0.738635
0.181532
-0.888072
0.202041
-0.989736
0.217099
-1.07104
0.229601
-1.14724
0.241623
-1.2242
-1.30812
0.253068
0.0130577
-0.0253338
0.0568645
-0.26869
0.107957
-0.564987
0.146805
-0.777483
0.172665
-0.913931
0.189847
-1.00692
0.202621
-1.08382
0.213458
-1.15808
0.223988
-1.23473
-1.3182
0.234073
0.0152506
-0.0405844
0.0601061
-0.313546
0.107301
-0.612182
0.141291
-0.811472
0.163038
-0.935679
0.177288
-1.02117
0.188001
-1.09453
0.197241
-1.16732
0.206262
-1.24376
-1.32686
0.214913
0.0173514
-0.0579358
0.0623876
-0.358582
0.105387
-0.655181
0.134778
-0.840863
0.152837
-0.953738
0.164483
-1.03281
0.1733
-1.10335
0.180976
-1.175
0.188459
-1.25124
-1.33401
0.195611
0.0192996
-0.0772353
0.0636826
-0.402965
0.102385
-0.693884
0.127464
-0.865942
0.142214
-0.968488
0.151522
-1.04212
0.158559
-1.11038
0.164679
-1.18112
0.170599
-1.25716
-1.3396
0.176188
0.0210417
-0.098277
0.0640146
-0.445938
0.0984549
-0.728324
0.119524
-0.887011
0.131294
-0.980258
0.138473
-1.0493
0.143809
-1.11572
0.148369
-1.18568
0.152696
-1.26149
-1.34357
0.156671
0.022524
-0.120801
0.0634365
-0.48685
0.0937443
-0.758632
0.111104
-0.904371
0.120177
-0.989331
0.12539
-1.05451
0.129077
-1.11941
0.132067
-1.18867
0.134771
-1.26419
-1.34588
0.137083
0.0236936
-0.144495
0.0620014
-0.525158
0.0883853
-0.785016
0.10233
-0.918315
0.108944
-0.995946
0.112314
-1.05788
0.114385
-1.12148
0.115791
-1.19007
0.116844
-1.26524
-1.3465
0.117454
0.0245071
-0.169002
0.0598959
-0.560547
0.082502
-0.807622
0.0933053
-0.929119
0.0976601
-1.0003
0.099277
-1.0595
0.0997506
-1.12195
0.0995586
-1.18988
0.0989378
-1.26462
-1.34537
0.0978159
0.0249375
-0.193939
0.0572312
-0.59284
0.0762074
-0.826598
0.0841143
-0.937025
0.0863748
-1.00256
0.0863063
-1.05943
0.0851929
-1.12084
0.0833867
-1.18807
0.0810761
-1.26231
-1.3425
0.0782062
0.0249759
-0.218915
0.0540713
-0.621936
0.0695989
-0.842126
0.0748268
-0.942253
0.0751287
-1.00286
0.0734241
-1.05773
0.0707285
-1.11814
0.0672938
-1.18464
0.0632823
-1.2583
-1.3379
0.0586801
0.024632
-0.243547
0.0504906
-0.647795
0.0627617
-0.854397
0.0655015
-0.944993
0.0639541
-1.00132
0.0606495
-1.05442
0.056374
-1.11387
0.0513015
-1.17957
0.0455651
-1.25256
-1.33153
0.0391931
0.0239323
-0.267479
0.0465627
-0.670425
0.0557655
-0.863599
0.056186
-0.945414
0.0528771
-0.998007
0.0479998
-1.04955
0.0421453
-1.10801
0.0354327
-1.17285
0.0279744
-1.2451
-1.32331
0.0197598
0.0229155
-0.290395
0.0423571
-0.689867
0.0486561
-0.869898
0.0469186
-0.943676
0.0419195
-0.993008
0.0354912
-1.04312
0.0280581
-1.10058
0.0196982
-1.16449
0.0105767
-1.23598
-1.31306
0.000320525
0.0216262
-0.312021
0.0379384
-0.706179
0.0414928
-0.873453
0.0377316
-0.939915
0.0311003
-0.986376
0.0231376
-1.03515
0.0141276
-1.09157
0.00407137
-1.15444
-0.00663255
-1.22528
-1.30102
-0.0186667
0.0201104
-0.332132
0.0333659
-0.719434
0.0343249
-0.874412
0.0286525
-0.934243
0.0204348
-0.978159
0.010946
-1.02567
0.000334524
-1.08096
-0.0112295
-1.14287
-0.023744
-1.21276
-1.28727
-0.0375016
0.0184119
-0.350544
0.0286925
-0.729715
0.0271932
-0.872913
0.0197045
-0.926754
0.00992763
-0.968382
-0.0010936
-1.01464
-0.0131363
-1.06891
-0.0263122
-1.1297
-0.0406037
-1.19847
-1.27175
-0.0561165
0.0165711
-0.367115
0.023965
-0.737109
0.0201318
-0.869079
0.0109063
-0.917528
-0.000468144
-0.957007
-0.0127998
-1.00231
-0.0264256
-1.05529
-0.0411925
-1.11493
-0.057207
-1.18246
-1.25449
-0.0744711
0.0146244
-0.381739
0.0192241
-0.741708
0.013167
-0.863022
0.00225577
-0.906617
-0.0104349
-0.944317
-0.0243371
-0.98841
-0.0394868
-1.04014
-0.0558371
-1.09858
-0.0735375
-1.16476
-1.23549
-0.0925412
0.0126048
-0.394344
0.0145052
-0.743609
0.00631005
-0.854827
-0.00613343
-0.894174
-0.0202664
-0.930184
-0.0356535
-0.973023
-0.0523042
-1.02349
-0.0702209
-1.08066
-0.0895771
-1.1454
-1.21476
-0.110299
0.0105423
-0.404886
0.0098419
-0.742908
-0.000476471
-0.844509
-0.0143306
-0.88032
-0.0298891
-0.914625
-0.0467307
-0.956181
-0.0648616
-1.00536
-0.0843229
-1.0612
-0.105307
-1.12442
-1.19235
-0.127722
0.00846137
-0.413348
0.00527233
-0.739719
-0.00685636
-0.83238
-0.0223297
-0.864846
-0.0392856
-0.897669
-0.0575559
-0.937911
-0.0771446
-0.985768
-0.0981242
-1.04022
-0.120707
-1.10183
-1.16827
-0.144784
0.00638008
-0.419728
0.00085996
-0.734199
-0.0131355
-0.818385
-0.030116
-0.847866
-0.0484466
-0.879339
-0.0681173
-0.91824
-0.0891386
-0.964747
-0.111608
-1.01775
-0.13576
-1.07768
-1.14257
-0.161462
0.00431602
-0.424044
-0.00367213
-0.726211
-0.0192553
-0.802802
-0.0376771
-0.829444
-0.0573614
-0.859655
-0.078404
-0.897198
-0.10083
-0.942321
-0.124759
-0.993826
-0.150448
-1.05199
-1.11528
-0.177737
0.00229924
-0.426343
-0.00803964
-0.715872
-0.0251996
-0.785642
-0.045005
-0.809638
-0.0660205
-0.838639
-0.0884056
-0.874813
-0.112207
-0.91852
-0.137564
-0.968468
-0.164757
-1.0248
-1.08646
-0.193582
0.000393183
-0.426736
-0.0122285
-0.70325
-0.030959
-0.766911
-0.0520949
-0.788502
-0.074415
-0.816319
-0.0981118
-0.851116
-0.123255
-0.893376
-0.15001
-0.941714
-0.178669
-0.996142
-1.05615
-0.208971
-0.00172046
-0.425016
-0.0162601
-0.688711
-0.0365223
-0.746649
-0.0589422
-0.766082
-0.0825365
-0.792725
-0.107513
-0.82614
-0.133966
-0.866923
-0.162086
-0.913593
-0.192171
-0.966057
-1.02441
-0.223913
-0.00375561
-0.42126
-0.0201386
-0.672328
-0.0418778
-0.72491
-0.065542
-0.742418
-0.0903771
-0.76789
-0.116598
-0.799918
-0.144329
-0.839192
-0.173795
-0.884127
-0.205256
-0.934596
-0.991288
-0.238379
-0.00569334
-0.415567
-0.0238632
-0.654158
-0.0470191
-0.701754
-0.0718894
-0.717548
-0.0979294
-0.74185
-0.125359
-0.772488
-0.154337
-0.810214
-0.185134
-0.85333
-0.217888
-0.901842
-0.957045
-0.252131
-0.00754758
-0.408019
-0.0274319
-0.634274
-0.0519419
-0.677244
-0.0779798
-0.69151
-0.105186
-0.714643
-0.133788
-0.743887
-0.163981
-0.780021
-0.196052
-0.821259
-0.230079
-0.867815
-0.922118
-0.265006
-0.00932113
-0.398698
-0.0308426
-0.612752
-0.0566432
-0.651443
-0.0838087
-0.664345
-0.112142
-0.68631
-0.141877
-0.714152
-0.173246
-0.748651
-0.206489
-0.788017
-0.241248
-0.833056
-0.885036
-0.27833
-0.0110139
-0.387684
-0.034093
-0.589673
-0.0611206
-0.624416
-0.0893719
-0.636093
-0.11879
-0.656892
-0.149619
-0.683323
-0.18211
-0.71616
-0.216415
-0.753712
-0.252406
-0.797065
-0.846363
-0.29108
-0.0126249
-0.375059
-0.0371808
-0.565117
-0.0653722
-0.596224
-0.0946657
-0.6068
-0.125125
-0.626433
-0.157006
-0.651442
-0.190575
-0.682591
-0.225971
-0.718316
-0.263297
-0.759739
-0.806366
-0.303293
-0.0141525
-0.360907
-0.0401038
-0.539166
-0.0693963
-0.566932
-0.0996863
-0.57651
-0.131141
-0.594978
-0.164027
-0.618557
-0.198617
-0.648001
-0.235054
-0.681878
-0.273564
-0.721229
-0.765138
-0.314792
-0.0155953
-0.345311
-0.0428603
-0.511901
-0.0731911
-0.536601
-0.10443
-0.545271
-0.136834
-0.562574
-0.170677
-0.584713
-0.206241
-0.612437
-0.243696
-0.644424
-0.283327
-0.681598
-0.722797
-0.325668
-0.0169512
-0.32836
-0.0454484
-0.483404
-0.0767551
-0.505294
-0.108894
-0.513132
-0.142197
-0.529271
-0.176947
-0.549963
-0.213435
-0.575949
-0.251856
-0.606003
-0.29253
-0.640924
-0.679411
-0.335915
-0.0182184
-0.310142
-0.0478669
-0.453755
-0.0800869
-0.473074
-0.113075
-0.480143
-0.147226
-0.495121
-0.182831
-0.514358
-0.220192
-0.538588
-0.259528
-0.566667
-0.301178
-0.599274
-0.635051
-0.345538
-0.0193941
-0.290748
-0.0501145
-0.423035
-0.083185
-0.440004
-0.11697
-0.446358
-0.151916
-0.460175
-0.188322
-0.477952
-0.226502
-0.500408
-0.266697
-0.526472
-0.309257
-0.556715
-0.589778
-0.35453
-0.0204751
-0.270272
-0.05219
-0.39132
-0.0860481
-0.406146
-0.120576
-0.411831
-0.156262
-0.424489
-0.193414
-0.440799
-0.232359
-0.461463
-0.273354
-0.485476
-0.316757
-0.513312
-0.543655
-0.36288
-0.0214552
-0.248817
-0.0540918
-0.358683
-0.0886754
-0.371562
-0.12389
-0.376615
-0.160261
-0.388119
-0.198102
-0.402958
-0.237754
-0.421811
-0.27949
-0.443741
-0.323669
-0.469133
-0.496748
-0.370577
-0.0223194
-0.226498
-0.0558188
-0.325184
-0.0910665
-0.336314
-0.126911
-0.340771
-0.163908
-0.351123
-0.20238
-0.364486
-0.242681
-0.38151
-0.285094
-0.401327
-0.329983
-0.424244
-0.449122
-0.377609
-0.023102
-0.203396
-0.0573729
-0.290913
-0.0932213
-0.300466
-0.129636
-0.304355
-0.167201
-0.313558
-0.206244
-0.325443
-0.247133
-0.340621
-0.290161
-0.358299
-0.33569
-0.378715
-0.400845
-0.383966
-0.0238201
-0.179576
-0.0587559
-0.255977
-0.0951394
-0.264082
-0.132063
-0.267431
-0.170136
-0.275486
-0.209689
-0.285889
-0.251104
-0.299206
-0.294683
-0.314721
-0.340782
-0.332616
-0.35199
-0.389637
-0.0244571
-0.155119
-0.0599675
-0.220467
-0.0968199
-0.22723
-0.134191
-0.230061
-0.172709
-0.236967
-0.212712
-0.245887
-0.25459
-0.257327
-0.298652
-0.270659
-0.34525
-0.286019
-0.302629
-0.394611
-0.0250072
-0.130112
-0.061007
-0.184467
-0.0982621
-0.189975
-0.136017
-0.192306
-0.17492
-0.198064
-0.215309
-0.205498
-0.257585
-0.215051
-0.302063
-0.226182
-0.349089
-0.238993
-0.252837
-0.398881
-0.0254676
-0.104644
-0.0618741
-0.14806
-0.0994652
-0.152384
-0.13754
-0.154231
-0.176766
-0.158838
-0.217477
-0.164787
-0.260086
-0.172441
-0.304909
-0.181359
-0.352289
-0.191613
-0.202687
-0.402439
-0.025837
-0.0788068
-0.0625683
-0.111329
-0.100428
-0.114524
-0.138761
-0.115899
-0.178244
-0.119355
-0.219214
-0.123817
-0.26209
-0.129564
-0.307189
-0.13626
-0.354849
-0.143953
-0.152254
-0.405282
-0.0261146
-0.0526923
-0.0630892
-0.0743546
-0.101151
-0.0764614
-0.139677
-0.0773731
-0.179354
-0.079678
-0.220518
-0.0826531
-0.263595
-0.0864876
-0.308901
-0.0909547
-0.35677
-0.0960836
-0.101614
-0.40741
-0.0262998
-0.0263925
-0.0634366
-0.0372178
-0.101634
-0.0382644
-0.140288
-0.0387188
-0.180094
-0.0398714
-0.221389
-0.041359
-0.264599
-0.0432772
-0.310042
-0.0455117
-0.358049
-0.0480762
-0.0508398
-0.408824
-0.0263925
-9.24985e-11
-0.0636103
-1.34557e-10
-0.101875
-1.3969e-10
-0.140594
-1.38176e-10
-0.180465
-1.37983e-10
-0.221824
-1.36224e-10
-0.265101
-1.34735e-10
-0.310613
-1.32917e-10
-0.358689
-1.30352e-10
-1.26728e-10
-0.409529
-0.0263925
0.0263925
-0.0636103
0.0372178
-0.101875
0.0382644
-0.140594
0.0387188
-0.180465
0.0398714
-0.221824
0.041359
-0.265101
0.0432772
-0.310613
0.0455117
-0.358689
0.0480762
0.0508398
-0.409529
-0.0262998
0.0526923
-0.0634366
0.0743546
-0.101634
0.0764614
-0.140288
0.0773731
-0.180094
0.079678
-0.221389
0.0826531
-0.264599
0.0864876
-0.310042
0.0909547
-0.358049
0.0960836
0.101614
-0.408824
-0.0261146
0.0788068
-0.0630892
0.111329
-0.101151
0.114524
-0.139677
0.115899
-0.179354
0.119355
-0.220518
0.123817
-0.263595
0.129564
-0.308901
0.13626
-0.35677
0.143953
0.152254
-0.40741
-0.025837
0.104644
-0.0625683
0.14806
-0.100428
0.152384
-0.138761
0.154231
-0.178244
0.158838
-0.219214
0.164787
-0.26209
0.172441
-0.307189
0.181359
-0.354849
0.191613
0.202687
-0.405282
-0.0254676
0.130112
-0.0618741
0.184467
-0.0994652
0.189975
-0.13754
0.192306
-0.176766
0.198064
-0.217477
0.205498
-0.260086
0.215051
-0.304909
0.226182
-0.352289
0.238993
0.252837
-0.402439
-0.0250072
0.155119
-0.061007
0.220467
-0.0982621
0.22723
-0.136017
0.230061
-0.17492
0.236967
-0.215309
0.245887
-0.257585
0.257327
-0.302063
0.270659
-0.349089
0.286019
0.302629
-0.398881
-0.0244571
0.179576
-0.0599675
0.255977
-0.0968199
0.264082
-0.134191
0.267431
-0.172709
0.275486
-0.212712
0.285889
-0.25459
0.299206
-0.298652
0.314721
-0.34525
0.332616
0.35199
-0.394611
-0.0238201
0.203396
-0.0587559
0.290913
-0.0951394
0.300466
-0.132063
0.304355
-0.170136
0.313558
-0.209689
0.325443
-0.251104
0.340621
-0.294683
0.358299
-0.340782
0.378715
0.400845
-0.389637
-0.023102
0.226498
-0.0573729
0.325184
-0.0932213
0.336314
-0.129636
0.340771
-0.167201
0.351123
-0.206244
0.364486
-0.247133
0.38151
-0.290161
0.401327
-0.33569
0.424244
0.449121
-0.383966
-0.0223194
0.248817
-0.0558188
0.358683
-0.0910665
0.371562
-0.126911
0.376615
-0.163908
0.388119
-0.20238
0.402958
-0.242681
0.421811
-0.285094
0.443741
-0.329983
0.469133
0.496748
-0.377609
-0.0214552
0.270272
-0.0540918
0.39132
-0.0886754
0.406146
-0.12389
0.411831
-0.160261
0.424489
-0.198102
0.440799
-0.237754
0.461463
-0.27949
0.485476
-0.323669
0.513312
0.543655
-0.370577
-0.0204751
0.290748
-0.05219
0.423035
-0.0860481
0.440004
-0.120576
0.446358
-0.156262
0.460175
-0.193414
0.477952
-0.232359
0.500408
-0.273354
0.526472
-0.316757
0.556715
0.589778
-0.36288
-0.0193941
0.310142
-0.0501145
0.453755
-0.083185
0.473074
-0.11697
0.480143
-0.151916
0.495121
-0.188322
0.514358
-0.226502
0.538588
-0.266697
0.566667
-0.309257
0.599274
0.635051
-0.35453
-0.0182184
0.32836
-0.0478669
0.483404
-0.0800869
0.505294
-0.113075
0.513132
-0.147226
0.529271
-0.182831
0.549963
-0.220192
0.575949
-0.259528
0.606003
-0.301178
0.640924
0.679411
-0.345538
-0.0169512
0.345311
-0.0454484
0.511901
-0.0767551
0.536601
-0.108894
0.545271
-0.142197
0.562574
-0.176947
0.584713
-0.213435
0.612437
-0.251856
0.644424
-0.29253
0.681598
0.722797
-0.335915
-0.0155953
0.360907
-0.0428603
0.539166
-0.0731911
0.566932
-0.10443
0.57651
-0.136834
0.594978
-0.170677
0.618557
-0.206241
0.648001
-0.243696
0.681878
-0.283327
0.721229
0.765138
-0.325668
-0.0141525
0.375059
-0.0401038
0.565117
-0.0693963
0.596224
-0.0996863
0.6068
-0.131141
0.626433
-0.164027
0.651442
-0.198617
0.682591
-0.235054
0.718316
-0.273564
0.759739
0.806366
-0.314792
-0.0126249
0.387684
-0.0371808
0.589673
-0.0653722
0.624416
-0.0946657
0.636093
-0.125125
0.656892
-0.157006
0.683323
-0.190575
0.71616
-0.225971
0.753712
-0.263297
0.797065
0.846363
-0.303293
-0.0110139
0.398698
-0.034093
0.612752
-0.0611206
0.651443
-0.0893719
0.664345
-0.11879
0.68631
-0.149619
0.714152
-0.18211
0.748651
-0.216415
0.788017
-0.252406
0.833056
0.885036
-0.29108
-0.00932113
0.408019
-0.0308426
0.634274
-0.0566432
0.677244
-0.0838087
0.69151
-0.112142
0.714643
-0.141877
0.743887
-0.173246
0.780021
-0.206489
0.821259
-0.241248
0.867815
0.922118
-0.27833
-0.00754758
0.415567
-0.0274319
0.654158
-0.0519419
0.701754
-0.0779798
0.717548
-0.105186
0.74185
-0.133788
0.772488
-0.163981
0.810214
-0.196052
0.85333
-0.230079
0.901842
0.957045
-0.265006
-0.00569334
0.42126
-0.0238632
0.672328
-0.0470191
0.72491
-0.0718894
0.742418
-0.0979294
0.76789
-0.125359
0.799918
-0.154337
0.839192
-0.185134
0.884127
-0.217888
0.934596
0.991288
-0.252131
-0.00375561
0.425016
-0.0201386
0.688711
-0.0418778
0.746649
-0.065542
0.766082
-0.0903771
0.792725
-0.116598
0.82614
-0.144329
0.866923
-0.173795
0.913593
-0.205256
0.966057
1.02441
-0.238379
-0.00172046
0.426736
-0.0162601
0.70325
-0.0365223
0.766911
-0.0589422
0.788502
-0.0825365
0.816319
-0.107513
0.851116
-0.133966
0.893376
-0.162086
0.941714
-0.192171
0.996142
1.05615
-0.223913
0.000393183
0.426343
-0.0122285
0.715872
-0.030959
0.785642
-0.0520949
0.809638
-0.074415
0.838639
-0.0981118
0.874813
-0.123255
0.91852
-0.15001
0.968468
-0.178669
1.0248
1.08646
-0.208971
0.00229924
0.424044
-0.00803964
0.726211
-0.0251996
0.802802
-0.045005
0.829444
-0.0660205
0.859655
-0.0884056
0.897198
-0.112207
0.942321
-0.137564
0.993826
-0.164757
1.05199
1.11528
-0.193582
0.00431602
0.419728
-0.00367213
0.734199
-0.0192553
0.818385
-0.0376771
0.847866
-0.0573614
0.879339
-0.078404
0.91824
-0.10083
0.964747
-0.124759
1.01775
-0.150448
1.07768
1.14257
-0.177737
0.00638008
0.413348
0.00085996
0.739719
-0.0131355
0.83238
-0.030116
0.864846
-0.0484466
0.897669
-0.0681173
0.937911
-0.0891386
0.985768
-0.111608
1.04022
-0.13576
1.10183
1.16827
-0.161462
0.00846137
0.404886
0.00527233
0.742908
-0.00685636
0.844509
-0.0223297
0.88032
-0.0392856
0.914625
-0.0575559
0.956181
-0.0771446
1.00536
-0.0981242
1.0612
-0.120707
1.12442
1.19235
-0.144784
0.0105423
0.394344
0.0098419
0.743609
-0.000476471
0.854827
-0.0143306
0.894174
-0.0298891
0.930184
-0.0467307
0.973023
-0.0648616
1.02349
-0.0843229
1.08066
-0.105307
1.1454
1.21476
-0.127722
0.0126048
0.381739
0.0145052
0.741708
0.00631005
0.863022
-0.00613343
0.906617
-0.0202664
0.944317
-0.0356535
0.98841
-0.0523042
1.04014
-0.0702209
1.09858
-0.0895771
1.16476
1.23549
-0.110299
0.0146244
0.367115
0.0192241
0.737109
0.013167
0.869079
0.00225577
0.917528
-0.0104349
0.957007
-0.0243371
1.00231
-0.0394868
1.05529
-0.0558371
1.11493
-0.0735375
1.18246
1.25449
-0.0925412
0.0165711
0.350544
0.023965
0.729715
0.0201318
0.872913
0.0109063
0.926754
-0.000468144
0.968382
-0.0127998
1.01464
-0.0264256
1.06891
-0.0411925
1.1297
-0.057207
1.19847
1.27175
-0.0744711
0.0184119
0.332132
0.0286925
0.719434
0.0271932
0.874412
0.0197045
0.934243
0.00992763
0.978159
-0.0010936
1.02567
-0.0131363
1.08096
-0.0263122
1.14287
-0.0406037
1.21276
1.28727
-0.0561165
0.0201104
0.312021
0.0333659
0.706179
0.0343249
0.873453
0.0286525
0.939915
0.0204348
0.986376
0.010946
1.03515
0.000334524
1.09157
-0.0112295
1.15444
-0.023744
1.22528
1.30102
-0.0375016
0.0216262
0.290395
0.0379384
0.689867
0.0414928
0.869898
0.0377316
0.943676
0.0311003
0.993008
0.0231376
1.04312
0.0141276
1.10058
0.00407137
1.16449
-0.00663255
1.23598
1.31306
-0.0186667
0.0229155
0.267479
0.0423571
0.670425
0.0486561
0.863599
0.0469186
0.945414
0.0419195
0.998007
0.0354912
1.04955
0.0280581
1.10801
0.0196982
1.17285
0.0105767
1.2451
1.32331
0.000320525
0.0239323
0.243547
0.0465627
0.647795
0.0557655
0.854397
0.056186
0.944993
0.0528771
1.00132
0.0479998
1.05442
0.0421453
1.11387
0.0354327
1.17957
0.0279744
1.25256
1.33153
0.0197598
0.024632
0.218915
0.0504906
0.621936
0.0627617
0.842126
0.0655015
0.942253
0.0639541
1.00286
0.0606495
1.05773
0.056374
1.11814
0.0513015
1.18464
0.0455651
1.2583
1.3379
0.0391931
0.0249759
0.193939
0.0540713
0.59284
0.0695989
0.826598
0.0748268
0.937025
0.0751287
1.00256
0.0734241
1.05943
0.0707285
1.12084
0.0672938
1.18807
0.0632823
1.26231
1.3425
0.0586801
0.0249375
0.169002
0.0572312
0.560547
0.0762074
0.807622
0.0841143
0.929119
0.0863748
1.0003
0.0863063
1.0595
0.0851929
1.12195
0.0833867
1.18988
0.0810761
1.26462
1.34537
0.0782062
0.0245071
0.144495
0.0598959
0.525158
0.082502
0.785016
0.0933053
0.918315
0.0976601
0.995946
0.099277
1.05788
0.0997506
1.12148
0.0995586
1.19007
0.0989378
1.26524
1.3465
0.0978159
0.0236936
0.120801
0.0620014
0.48685
0.0883853
0.758632
0.10233
0.904371
0.108944
0.989331
0.112314
1.05451
0.114385
1.11941
0.115791
1.18867
0.116844
1.26419
1.34588
0.117454
0.022524
0.098277
0.0634365
0.445938
0.0937443
0.728324
0.111104
0.887011
0.120177
0.980258
0.12539
1.0493
0.129077
1.11572
0.132067
1.18568
0.134771
1.26149
1.34357
0.137083
0.0210417
0.0772353
0.0640146
0.402965
0.0984549
0.693884
0.119524
0.865942
0.131294
0.968488
0.138473
1.04212
0.143809
1.11038
0.148369
1.18112
0.152696
1.25716
1.3396
0.156671
0.0192996
0.0579358
0.0636826
0.358582
0.102385
0.655181
0.127464
0.840863
0.142214
0.953738
0.151522
1.03281
0.158559
1.10335
0.164679
1.175
0.170599
1.25124
1.33401
0.176188
0.0173514
0.0405844
0.0623876
0.313546
0.105387
0.612182
0.134778
0.811472
0.152837
0.935679
0.164483
1.02117
0.1733
1.09453
0.180976
1.16732
0.188459
1.24376
1.32686
0.195611
0.0152506
0.0253338
0.0601061
0.26869
0.107301
0.564987
0.141291
0.777483
0.163038
0.913931
0.177288
1.00692
0.188001
1.08382
0.197241
1.15808
0.206262
1.23473
1.3182
0.214913
0.0130577
0.012276
0.0568645
0.224883
0.107957
0.513895
0.146805
0.738635
0.172665
0.888072
0.189847
0.989736
0.202621
1.07104
0.213458
1.14724
0.223988
1.2242
1.30812
0.234073
0.0108501
0.00142588
0.0527531
0.18298
0.107187
0.459461
0.151098
0.694723
0.181532
0.857638
0.202041
0.969227
0.217099
1.05598
0.229601
1.13474
0.241623
1.21218
1.29667
0.253068
0.00872273
-0.00729686
0.0479246
0.143779
0.104836
0.402549
0.153924
0.645635
0.189413
0.822149
0.213717
0.944923
0.231359
1.03834
0.245633
1.12047
0.259142
1.19868
1.28394
0.271879
0.00676798
-0.0140648
0.0425745
0.107972
0.100785
0.344339
0.155018
0.591402
0.196032
0.781135
0.224675
0.91628
0.245286
1.01773
0.261503
1.10425
0.276528
1.18365
1.26999
0.290477
0.00505604
-0.0191209
0.0369184
0.0761097
0.0949772
0.28628
0.154101
0.532278
0.201061
0.734176
0.234655
0.882685
0.258732
0.993655
0.277137
1.08585
0.293733
1.16705
1.25486
0.308865
0.00361493
-0.0227358
0.0311904
0.0485342
0.0874753
0.229995
0.150904
0.468849
0.204126
0.680954
0.243338
0.843473
0.271484
0.965508
0.292431
1.0649
0.310733
1.14875
1.23865
0.326944
0.0024384
-0.0251742
0.0256607
0.025312
0.0785698
0.177086
0.145199
0.40222
0.204811
0.621341
0.250323
0.797961
0.283272
0.93256
0.307223
1.04095
0.327403
1.12857
1.2212
0.344844
0.00151265
-0.0266869
0.0206244
0.00620022
0.0687741
0.128936
0.136876
0.334118
0.202685
0.555533
0.255141
0.745505
0.293711
0.89399
0.321324
1.01333
0.343683
1.10621
1.20276
0.362125
0.000839115
-0.027526
0.016355
-0.00931567
0.0587873
0.0865039
0.126071
0.266834
0.197346
0.484258
0.257235
0.685615
0.302352
0.848873
0.334367
0.981319
0.359328
1.08125
1.18256
0.379526
0.000436812
-0.0279628
0.0130632
-0.021942
0.0493804
0.0501866
0.113313
0.202902
0.188511
0.40906
0.256017
0.61811
0.308549
0.796341
0.346104
0.943764
0.373959
1.0534
1.16128
0.39524
0.000325293
-0.0282881
0.0108613
-0.0324781
0.0413112
0.0197368
0.099598
0.144615
0.176185
0.332473
0.250897
0.543397
0.31164
0.735599
0.355703
0.899701
0.387681
1.02142
1.1369
0.412068
0.000511628
-0.0287997
0.00975574
-0.0417222
0.0351877
-0.00569516
0.0862756
0.0935269
0.160902
0.257846
0.241419
0.46288
0.310702
0.666316
0.36311
0.847293
0.39751
0.987019
1.10868
0.425724
0.000982597
-0.0297823
0.00965059
-0.0503902
0.0312864
-0.027331
0.0747382
0.0500751
0.143929
0.188655
0.227483
0.379327
0.304911
0.588888
0.367042
0.785162
0.407427
0.946634
1.07543
0.440674
0.00168478
-0.0314671
0.01034
-0.0590454
0.0294579
-0.046449
0.066
0.0135331
0.127152
0.127502
0.209697
0.296782
0.293768
0.504818
0.366247
0.712683
0.415456
0.897425
1.03765
0.453238
0.00252618
-0.0339933
0.0115248
-0.068044
0.0291782
-0.0641024
0.0603197
-0.0176084
0.11251
0.0753121
0.189654
0.219638
0.277249
0.417222
0.359588
0.630343
0.418888
0.838125
0.994319
0.462222
0.00339124
-0.0373845
0.0128464
-0.0774991
0.0296916
-0.0809476
0.0570903
-0.0450071
0.101199
0.031203
0.169659
0.151179
0.256168
0.330713
0.346398
0.540113
0.416543
0.76798
0.944212
0.46665
0.00415726
-0.0415418
0.0139312
-0.0872731
0.0301776
-0.0971941
0.0550879
-0.0699173
0.093094
-0.00680308
0.151793
0.0924802
0.232423
0.250083
0.326654
0.445882
0.407299
0.687336
0.886168
0.465343
0.00470884
-0.0462506
0.0144473
-0.0970115
0.0298989
-0.112646
0.0529184
-0.0929368
0.0867852
-0.0406699
0.136831
0.042434
0.208447
0.178467
0.301404
0.352925
0.39045
0.59829
0.819562
0.457056
0.00494906
-0.0511997
0.0141405
-0.106203
0.0283032
-0.126808
0.049392
-0.114026
0.0802835
-0.0715614
0.123822
-0.0011049
0.185982
0.116308
0.272623
0.266285
0.366047
0.504865
0.744831
0.440778
0.00480725
-0.0560069
0.0128525
-0.114248
0.0250664
-0.139022
0.0437376
-0.132697
0.0718303
-0.0996542
0.110627
-0.0399014
0.165021
0.0619138
0.242257
0.189048
0.334941
0.412182
0.663767
0.416004
0.00424429
-0.0602512
0.0105255
-0.120529
0.0200839
-0.148581
0.0356145
-0.148227
0.0603016
-0.124341
0.0950807
-0.0746805
0.143806
0.0131886
0.210975
0.121879
0.298303
0.324854
0.579335
0.382735
0.00325548
-0.0635067
0.00719735
-0.124471
0.0134399
-0.154823
0.0250481
-0.159836
0.0453852
-0.144678
0.0757635
-0.105059
0.119795
-0.0308426
0.177658
0.0640155
0.256801
0.24571
0.494983
0.341154
0.00187114
-0.0653778
0.00298877
-0.125589
0.00536151
-0.157196
0.0123255
-0.1668
0.0273086
-0.159661
0.0522166
-0.129967
0.090932
-0.069558
0.140183
0.0147644
0.210151
0.175743
0.413715
0.291419
0.000155492
-0.0655333