/*--------------------------------*- C++ -*----------------------------------*\
  =========                 |
  \\      /  F ield         | OpenFOAM: The Open Source CFD Toolbox
   \\    /   O peration     | Website:  https://openfoam.org
    \\  /    A nd           | Version:  9
     \\/     M anipulation  |
\*---------------------------------------------------------------------------*/
FoamFile
{
    format      ascii;
    class       surfaceScalarField;
    location    "5.9";
    object      phi;
}
// * * * * * * * * * * * * * * * * * * * * * * * * * * * * * * * * * * * * * //

dimensions      [0 3 -1 0 0 0 0];

internalField   nonuniform List<scalar> 
16735
(
-0.00157487
0.00157487
1.30531e-10
-0.00431546
0.00274059
2.69928e-10
-0.00733417
0.0030187
3.45649e-10
-0.00987157
0.00253741
3.51541e-10
-0.0113444
0.00147281
2.96856e-10
-0.01119
-0.000154399
1.72261e-10
-0.00887395
-0.00231604
-1.89234e-11
-0.0037643
-0.00510965
-2.87094e-10
0.0042324
-0.0079967
-6.15959e-10
-0.0117335
-9.9601e-10
0.0159659
-0.00154122
0.00311609
-0.00419904
0.0053984
-0.0070845
0.00590417
-0.0094331
0.00488601
-0.0106524
0.00269215
-0.0101685
-0.000638369
-0.00743187
-0.00505263
-0.00181745
-0.0107241
0.00686805
-0.0166822
-0.0242936
0.0194281
-0.00147459
0.00459068
-0.00396809
0.00789191
-0.00658894
0.00852502
-0.00856253
0.00685959
-0.00927855
0.00340816
-0.00813996
-0.00177696
-0.00456538
-0.00862721
0.0020814
-0.0173709
0.0120981
-0.0266989
-0.0384731
0.0262777
-0.00137622
0.0059669
-0.00362636
0.010142
-0.00585489
0.0107535
-0.0072724
0.0082771
-0.00724268
0.00337844
-0.00513468
-0.00388495
-0.000283908
-0.013478
0.00789098
-0.0255457
0.019826
-0.0386339
-0.055013
0.0363658
-0.00124796
0.00721486
-0.00317921
0.0120733
-0.004893
0.0124673
-0.00558077
0.00896487
-0.00457333
0.002371
-0.00120388
-0.0072544
0.00522281
-0.0199047
0.0154535
-0.0357764
0.0299043
-0.0530847
-0.0745834
0.0494747
-0.00109208
0.00830694
-0.00263341
0.0136146
-0.00371674
0.0135507
-0.00351047
0.0087586
-0.00130529
0.000165821
0.00361231
-0.012172
0.0119878
-0.0282801
0.0246588
-0.0484474
0.0421471
-0.070573
-0.0977614
0.0653252
-0.000911207
0.00921814
-0.00199677
0.0147002
-0.00234182
0.0138957
-0.00108825
0.00750503
0.00251589
-0.00343832
0.00924008
-0.0188962
0.0198856
-0.0389257
0.0353605
-0.0639223
0.0563332
-0.0915457
-0.125013
0.083585
-0.00070822
0.00992636
-0.00127784
0.0152698
-0.000785522
0.0134034
0.0016557
0.0050638
0.00684487
-0.00862749
0.0156065
-0.0276578
0.0288024
-0.0521216
0.0473909
-0.0825108
0.0722103
-0.116365
-0.15668
0.103877
-0.00048619
0.0104126
-0.000485314
0.015269
0.000934103
0.011984
0.00469038
0.00130752
0.0116312
-0.0155683
0.0226337
-0.0386603
0.0386172
-0.0681051
0.0605664
-0.10446
0.0895008
-0.1453
-0.192963
0.125784
-0.000248954
0.0106615
0.000370276
0.0146497
0.00279831
0.00955595
0.0079833
-0.00387747
0.0168217
-0.0244068
0.0302389
-0.0520774
0.0492022
-0.0870684
0.0746917
-0.129949
0.107905
-0.178513
-0.233911
0.148854
1.14784e-05
0.01065
0.00128317
0.013378
0.0047892
0.00604991
0.011502
-0.0105902
0.0223628
-0.0352676
0.0383368
-0.0680515
0.0604245
-0.109156
0.0895626
-0.159088
0.127107
-0.216057
-0.279414
0.172609
0.000271462
0.0103786
0.00224349
0.011406
0.00688947
0.00140394
0.0152147
-0.0189155
0.0282006
-0.0482534
0.0468407
-0.0866916
0.0721465
-0.134462
0.104968
-0.191909
0.146776
-0.257865
-0.329194
0.196555
0.000544803
0.00983376
0.00324452
0.00870628
0.0090829
-0.00443444
0.0190911
-0.0289237
0.0342821
-0.0634445
0.0556623
-0.108072
0.0842264
-0.163026
0.120691
-0.228373
0.166574
-0.303748
-0.382808
0.220188
0.000826277
0.00900749
0.00428004
0.00525252
0.0113547
-0.0115091
0.0231018
-0.0406709
0.0405546
-0.0808973
0.0647119
-0.132229
0.0965172
-0.194831
0.136507
-0.268363
0.186153
-0.353393
-0.439658
0.243003
0.00111448
0.007893
0.00534467
0.00102234
0.0136913
-0.0198558
0.0272189
-0.0541984
0.0469654
-0.100644
0.0738975
-0.159161
0.108866
-0.2298
0.15219
-0.311687
0.205164
-0.406367
-0.499009
0.264515
0.00140857
0.00648443
0.00643394
-0.00400303
0.0160804
-0.0295022
0.0314147
-0.0695328
0.053461
-0.12269
0.0831238
-0.188824
0.121114
-0.267791
0.167504
-0.358077
0.223259
-0.462122
-0.560028
0.284278
0.00170805
0.00477638
0.00754406
-0.00983905
0.01851
-0.0404681
0.035662
-0.0866848
0.059986
-0.147014
0.0922907
-0.221128
0.133096
-0.308596
0.182214
-0.407195
0.240092
-0.52
-0.621875
0.301938
0.0020127
0.00276369
0.00867167
-0.016498
0.0209686
-0.052765
0.0399322
-0.105648
0.0664823
-0.173564
0.101293
-0.255939
0.14464
-0.351944
0.196086
-0.458641
0.255334
-0.579247
-0.683802
0.317261
0.00232244
0.000441242
0.00981354
-0.0239891
0.0234442
-0.0663956
0.0441951
-0.126399
0.0728874
-0.202257
0.110017
-0.293069
0.155576
-0.397502
0.208907
-0.511973
0.268718
-0.639058
-0.745345
0.330261
0.00263726
-0.00219602
0.0109662
-0.0323181
0.0259237
-0.081353
0.0484179
-0.148894
0.0791339
-0.232972
0.118345
-0.332279
0.165722
-0.444879
0.220432
-0.566683
0.28012
-0.698746
-0.807073
0.341848
0.00295702
-0.00515304
0.0121258
-0.0414868
0.0283926
-0.0976198
0.0525645
-0.173066
0.0851497
-0.265558
0.126151
-0.373281
0.174885
-0.493613
0.230273
-0.622071
0.289656
-0.758129
-0.880985
0.363568
0.0032814
-0.00843444
0.0132874
-0.0514928
0.0308342
-0.115167
0.0565953
-0.198827
0.0908591
-0.299822
0.133313
-0.415735
0.182889
-0.543189
0.238186
-0.677368
0.296224
-0.816166
-0.947487
0.362726
0.00360978
-0.0120442
0.0144452
-0.0623282
0.0332296
-0.133951
0.0604674
-0.226064
0.0961844
-0.335539
0.139713
-0.459264
0.189593
-0.593068
0.244052
-0.731827
0.299971
-0.872085
-1.00753
0.360018
0.00394113
-0.0159853
0.0155921
-0.0739792
0.0355574
-0.153916
0.064135
-0.254642
0.101048
-0.372451
0.145246
-0.503462
0.194889
-0.642711
0.24787
-0.784808
0.301173
-0.925388
-1.06186
0.355497
0.00427397
-0.0202593
0.0167196
-0.0864248
0.037794
-0.174991
0.0675503
-0.284398
0.105373
-0.410274
0.149819
-0.547908
0.198702
-0.691594
0.249661
-0.835767
0.299913
-0.975641
-1.11099
0.349045
0.00460635
-0.0248657
0.0178178
-0.0996362
0.0399136
-0.197087
0.0706645
-0.315149
0.109089
-0.448699
0.153354
-0.592173
0.200985
-0.739225
0.249467
-0.884249
0.29633
-1.0225
-1.15532
0.340659
0.00493581
-0.0298015
0.0188757
-0.113576
0.0418889
-0.2201
0.0734289
-0.346689
0.112131
-0.487401
0.155794
-0.635836
0.201722
-0.785154
0.247363
-0.92989
0.290604
-1.06574
-1.19515
0.330432
0.00525944
-0.0350609
0.0198811
-0.128198
0.0436917
-0.24391
0.075797
-0.378794
0.114443
-0.526048
0.157098
-0.678491
0.200928
-0.828984
0.243448
-0.97241
0.282933
-1.10523
-1.23073
0.318518
0.00557388
-0.0406348
0.0208208
-0.143445
0.0452935
-0.268383
0.0777257
-0.411227
0.115981
-0.564303
0.15725
-0.719759
0.198645
-0.870378
0.237844
-1.01161
0.273525
-1.14091
-1.26231
0.3051
0.00587541
-0.0465102
0.0216815
-0.159251
0.0466667
-0.293368
0.0791768
-0.443737
0.116713
-0.60184
0.156253
-0.759298
0.194938
-0.909064
0.23069
-1.04736
0.262587
-1.17281
-1.29009
0.290373
0.00616004
-0.0526702
0.0224491
-0.17554
0.0477852
-0.318704
0.0801186
-0.47607
0.116622
-0.638343
0.154128
-0.796805
0.189892
-0.944828
0.222135
-1.0796
0.250322
-1.20099
-1.3143
0.274526
0.00642359
-0.0590938
0.0231103
-0.192227
0.0486252
-0.344219
0.0805266
-0.507972
0.115701
-0.673517
0.150916
-0.832019
0.183607
-0.97752
0.212332
-1.10833
0.23692
-1.22558
-1.33512
0.257739
0.00666178
-0.0657556
0.023652
-0.209217
0.0491662
-0.369733
0.0803841
-0.53919
0.11396
-0.707093
0.14667
-0.86473
0.176192
-1.00704
0.201436
-1.13357
0.222558
-1.2467
-1.35273
0.240176
0.00687034
-0.072626
0.0240621
-0.226409
0.0493913
-0.395063
0.079683
-0.569481
0.11142
-0.73883
0.141458
-0.894768
0.16776
-1.03334
0.189592
-1.1554
0.207397
-1.26451
-1.36732
0.221985
0.00704511
-0.0796711
0.0243296
-0.243693
0.0492877
-0.420021
0.0784233
-0.598617
0.108112
-0.768518
0.135354
-0.922011
0.158427
-1.05642
0.176943
-1.17392
0.191583
-1.27915
-1.37903
0.203294
0.00718215
-0.0868532
0.0244453
-0.260956
0.0488472
-0.444423
0.0766129
-0.626383
0.104076
-0.795981
0.128437
-0.946372
0.148308
-1.07629
0.163618
-1.18923
0.175244
-1.29078
-1.388
0.184216
0.0072778
-0.094131
0.0244015
-0.27808
0.048066
-0.468087
0.0742669
-0.652583
0.0993599
-0.821074
0.120793
-0.967805
0.137512
-1.09301
0.149737
-1.20145
0.158493
-1.29953
-1.39436
0.164848
0.00732878
-0.10146
0.0241925
-0.294944
0.0469451
-0.49084
0.071407
-0.677045
0.0940173
-0.843684
0.112503
-0.986291
0.126143
-1.10665
0.135409
-1.21072
0.141429
-1.30555
-1.39821
0.145275
0.00733226
-0.108792
0.0238147
-0.311426
0.0454894
-0.512514
0.0680602
-0.699616
0.0881047
-0.863729
0.103653
-1.00184
0.1143
-1.11729
0.12073
-1.21715
0.124138
-1.30896
-1.39964
0.125569
0.00728593
-0.116078
0.0232664
-0.327407
0.0437084
-0.532956
0.0642584
-0.720166
0.081681
-0.881151
0.0943229
-1.01448
0.102072
-1.12504
0.105788
-1.22087
0.106697
-1.30987
-1.39873
0.105793
0.00718799
-0.123266
0.0225481
-0.342767
0.0416148
-0.552023
0.0600367
-0.738588
0.0748059
-0.89592
0.0845896
-1.02427
0.0895417
-1.12999
0.09066
-1.22198
0.0891689
-1.30838
-1.39557
0.0860039
0.00703727
-0.130303
0.0216623
-0.357392
0.0392247
-0.569586
0.0554328
-0.754796
0.0675389
-0.908026
0.0745263
-1.03125
0.0767852
-1.13225
0.0754136
-1.22061
0.0716121
-1.30458
-1.3902
0.0662462
0.00683316
-0.137136
0.0206132
-0.371172
0.0365568
-0.585529
0.0504861
-0.768725
0.0599381
-0.917478
0.0642014
-1.03552
0.0638703
-1.13192
0.0601091
-1.21685
0.0540768
-1.29854
-1.38269
0.0465611
0.00657568
-0.143712
0.0194069
-0.384003
0.0336323
-0.599755
0.045237
-0.78033
0.0520599
-0.924301
0.0536784
-1.03713
0.0508584
-1.1291
0.0448004
-1.21079
0.036608
-1.29035
-1.37306
0.0269804
0.00626546
-0.149978
0.0180512
-0.395789
0.0304736
-0.612177
0.039726
-0.789583
0.043958
-0.928533
0.0430157
-1.03619
0.0378047
-1.12389
0.0295369
-1.20253
0.0192499
-1.28006
-1.36131
0.00750191
0.00590367
-0.155881
0.016555
-0.40644
0.0271049
-0.622727
0.0339931
-0.796471
0.0356833
-0.930224
0.032267
-1.03278
0.0247573
-1.11638
0.0143581
-1.19213
0.00209519
-1.2678
-1.34749
-0.01173
0.0054921
-0.161373
0.0149287
-0.415877
0.0235509
-0.631349
0.0280774
-0.800997
0.0272839
-0.92943
0.0214821
-1.02697
0.0117612
-1.10666
-0.000753136
-1.17961
-0.0149927
-1.25356
-1.33175
-0.0307277
0.005033
-0.166406
0.0131834
-0.424027
0.0198367
-0.638002
0.022017
-0.803178
0.0188043
-0.926217
0.0107059
-1.01888
-0.00114297
-1.09481
-0.0155854
-1.16517
-0.0318377
-1.23731
-1.31408
-0.0495082
0.00452915
-0.170935
0.011331
-0.430829
0.0159877
-0.642659
0.0158485
-0.803038
0.0102858
-0.920655
-4.49701e-05
-1.00854
-0.0139036
-1.08095
-0.0302774
-1.1488
-0.0484382
-1.21915
-1.29449
-0.068029
0.00398373
-0.174919
0.00938401
-0.436229
0.0120291
-0.645304
0.0096065
-0.800616
0.00176973
-0.912818
-0.0106607
-0.996114
-0.0265051
-1.06511
-0.0447509
-1.13055
-0.064774
-1.19913
-1.273
-0.0862613
0.00340034
-0.17832
0.00735512
-0.440184
0.00798568
-0.645935
0.0033251
-0.795955
-0.0067109
-0.902782
-0.0211808
-0.981644
-0.0389131
-1.04738
-0.0589746
-1.11049
-0.0808206
-1.17728
-1.24964
-0.10418
0.00278294
-0.181102
0.00525854
-0.442659
0.00388277
-0.644559
-0.00296712
-0.789105
-0.0151237
-0.890625
-0.0315503
-0.965218
-0.0510988
-1.02783
-0.0729207
-1.08867
-0.0965529
-1.15365
-1.22443
-0.121761
0.00213588
-0.183238
0.00311069
-0.443634
-0.000232013
-0.641216
-0.00924201
-0.780095
-0.023439
-0.876428
-0.0417409
-0.946916
-0.0630361
-1.00653
-0.0865636
-1.06514
-0.111945
-1.12827
-1.1974
-0.138981
0.00146477
-0.184703
0.000933587
-0.443103
-0.00442949
-0.635853
-0.0154734
-0.769051
-0.0316291
-0.860273
-0.0517273
-0.926818
-0.0747011
-0.983558
-0.0998787
-1.03996
-0.126972
-1.10117
-1.16855
-0.155818
0.000772155
-0.185475
-0.00128224
-0.441049
-0.00859009
-0.628545
-0.021634
-0.756007
-0.0396692
-0.842237
-0.0614863
-0.905001
-0.0860719
-0.958973
-0.112842
-1.01319
-0.141607
-1.07241
-1.13791
-0.172246
3.03143e-05
-0.185506
-0.00352887
-0.437489
-0.012725
-0.619349
-0.0277013
-0.741031
-0.0475365
-0.822402
-0.0709972
-0.88154
-0.0971283
-0.932841
-0.125432
-0.984888
-0.155823
-1.04202
-1.1055
-0.188241
-0.000680627
-0.184825
-0.00577155
-0.432399
-0.0168168
-0.608304
-0.0336545
-0.724193
-0.0552105
-0.800846
-0.0802412
-0.856509
-0.107852
-0.90523
-0.137628
-0.955113
-0.169595
-1.01005
-1.07131
-0.203779
-0.00141251
-0.183412
-0.00800431
-0.425807
-0.0208485
-0.59546
-0.0394742
-0.705568
-0.0626726
-0.777648
-0.0892015
-0.82998
-0.118228
-0.876204
-0.149411
-0.92393
-0.182897
-0.976563
-1.03538
-0.218828
-0.00214949
-0.181263
-0.0102167
-0.41774
-0.0248041
-0.580873
-0.0451425
-0.685229
-0.0699061
-0.752884
-0.0978628
-0.802024
-0.128239
-0.845828
-0.160766
-0.891403
-0.195689
-0.94164
-0.99778
-0.233291
-0.00288599
-0.178377
-0.0123981
-0.408227
-0.0286686
-0.564602
-0.0506434
-0.663254
-0.0768958
-0.726632
-0.106211
-0.772708
-0.137876
-0.814163
-0.171677
-0.857602
-0.207922
-0.905396
-0.958513
-0.247189
-0.00361742
-0.17476
-0.0145383
-0.397307
-0.0324282
-0.546712
-0.0559621
-0.63972
-0.083628
-0.698966
-0.114235
-0.7421
-0.14713
-0.781269
-0.182137
-0.822594
-0.21921
-0.868323
-0.919292
-0.258431
-0.00433945
-0.17042
-0.0166278
-0.385018
-0.0360698
-0.52727
-0.0610852
-0.614705
-0.0900901
-0.669961
-0.121924
-0.710267
-0.155992
-0.747201
-0.19216
-0.786426
-0.230455
-0.830028
-0.878806
-0.270941
-0.00504797
-0.165372
-0.0186574
-0.371409
-0.0395815
-0.506346
-0.0660003
-0.588286
-0.0962708
-0.639691
-0.129266
-0.677271
-0.16445
-0.712017
-0.201727
-0.749149
-0.24117
-0.790585
-0.837051
-0.282924
-0.00573907
-0.159633
-0.0206186
-0.356529
-0.0429521
-0.484013
-0.0706964
-0.560542
-0.10216
-0.608227
-0.136253
-0.643178
-0.172495
-0.675774
-0.210827
-0.710817
-0.251354
-0.750059
-0.79412
-0.294285
-0.00640905
-0.153224
-0.0225035
-0.340435
-0.0461717
-0.460345
-0.0751632
-0.53155
-0.107748
-0.575642
-0.142875
-0.608051
-0.180119
-0.638531
-0.219453
-0.671483
-0.261013
-0.708499
-0.75009
-0.305042
-0.00705438
-0.14617
-0.0243047
-0.323184
-0.0492309
-0.435418
-0.0793916
-0.50139
-0.113027
-0.542007
-0.149125
-0.571953
-0.187313
-0.600343
-0.227597
-0.631198
-0.270139
-0.665958
-0.705025
-0.315204
-0.00767175
-0.138498
-0.0260152
-0.304841
-0.0521213
-0.409312
-0.0833733
-0.470138
-0.117988
-0.507393
-0.154995
-0.534945
-0.19407
-0.561268
-0.235251
-0.590017
-0.278723
-0.622486
-0.658984
-0.324765
-0.00825805
-0.13024
-0.0276289
-0.28547
-0.0548354
-0.382106
-0.0871006
-0.437872
-0.122625
-0.471868
-0.160478
-0.497092
-0.200383
-0.521364
-0.242406
-0.547993
-0.286755
-0.578137
-0.612022
-0.333717
-0.00881041
-0.121429
-0.0291399
-0.265141
-0.057366
-0.35388
-0.0905666
-0.404672
-0.126931
-0.435504
-0.165568
-0.458454
-0.206244
-0.480689
-0.249054
-0.505183
-0.294224
-0.532967
-0.564197
-0.342049
-0.00932615
-0.112103
-0.030543
-0.243924
-0.0597069
-0.324716
-0.0937649
-0.370614
-0.130899
-0.39837
-0.170258
-0.419096
-0.211645
-0.439301
-0.255185
-0.461643
-0.301119
-0.487032
-0.515568
-0.349748
-0.00980282
-0.1023
-0.0318333
-0.221893
-0.0618523
-0.294697
-0.0966901
-0.335776
-0.134525
-0.360535
-0.174542
-0.379079
-0.216581
-0.397261
-0.26079
-0.417434
-0.307428
-0.440394
-0.466197
-0.356799
-0.0102382
-0.0920623
-0.0330066
-0.199125
-0.0637973
-0.263906
-0.0993369
-0.300236
-0.137803
-0.322069
-0.178414
-0.338468
-0.221044
-0.354631
-0.265862
-0.372617
-0.313141
-0.393115
-0.41615
-0.363189
-0.0106302
-0.081432
-0.0340591
-0.175696
-0.0655373
-0.232428
-0.101701
-0.264073
-0.140729
-0.283041
-0.18187
-0.297327
-0.225029
-0.311472
-0.270392
-0.327253
-0.318247
-0.34526
-0.365493
-0.368904
-0.0109772
-0.0704548
-0.0349873
-0.151686
-0.0670682
-0.200347
-0.103778
-0.227363
-0.143298
-0.243522
-0.184904
-0.255721
-0.228528
-0.267848
-0.274373
-0.281408
-0.322737
-0.296896
-0.314297
-0.373933
-0.0112775
-0.0591774
-0.0357882
-0.127175
-0.0683868
-0.167748
-0.105565
-0.190185
-0.145506
-0.203581
-0.187513
-0.213715
-0.231537
-0.223823
-0.277798
-0.235147
-0.326601
-0.248093
-0.262635
-0.378263
-0.0115298
-0.0476476
-0.0364595
-0.102245
-0.06949
-0.134718
-0.107058
-0.152616
-0.147352
-0.163287
-0.189692
-0.171374
-0.234052
-0.179463
-0.280661
-0.188539
-0.329833
-0.198921
-0.210581
-0.381887
-0.0117329
-0.0359146
-0.036999
-0.0769793
-0.0703754
-0.101341
-0.108256
-0.114736
-0.148831
-0.122712
-0.19144
-0.128765
-0.236069
-0.134834
-0.282958
-0.14165
-0.332427
-0.149451
-0.158213
-0.384795
-0.0118861
-0.0240285
-0.0374051
-0.0514603
-0.0710412
-0.0677054
-0.109156
-0.0766206
-0.149943
-0.0819257
-0.192753
-0.0859556
-0.237584
-0.0900018
-0.284684
-0.0945508
-0.334376
-0.0997588
-0.105608
-0.386982
-0.0119886
-0.0120399
-0.0376765
-0.0257724
-0.0714858
-0.033896
-0.109757
-0.0383494
-0.150685
-0.0409981
-0.193629
-0.0430114
-0.238596
-0.0450348
-0.285836
-0.0473107
-0.335678
-0.0499168
-0.0528436
-0.388442
-0.0120399
1.14842e-10
-0.0378124
2.49376e-10
-0.0717084
3.25941e-10
-0.110058
3.54508e-10
-0.151056
3.57136e-10
-0.194067
3.47829e-10
-0.239102
3.3499e-10
-0.286413
3.22902e-10
-0.33633
3.08158e-10
2.92841e-10
-0.389173
-0.0120399
0.0120399
-0.0378124
0.0257724
-0.0717084
0.033896
-0.110058
0.0383494
-0.151056
0.0409981
-0.194067
0.0430114
-0.239102
0.0450348
-0.286413
0.0473107
-0.33633
0.0499168
0.0528436
-0.389173
-0.0119886
0.0240285
-0.0376765
0.0514603
-0.0714858
0.0677054
-0.109757
0.0766206
-0.150685
0.0819257
-0.193629
0.0859556
-0.238596
0.0900018
-0.285836
0.0945508
-0.335678
0.0997588
0.105608
-0.388442
-0.0118861
0.0359146
-0.0374051
0.0769793
-0.0710412
0.101341
-0.109156
0.114736
-0.149943
0.122712
-0.192753
0.128765
-0.237584
0.134834
-0.284684
0.14165
-0.334376
0.149451
0.158213
-0.386982
-0.0117329
0.0476476
-0.036999
0.102245
-0.0703754
0.134718
-0.108256
0.152616
-0.148831
0.163287
-0.19144
0.171374
-0.236069
0.179463
-0.282958
0.188539
-0.332427
0.198921
0.210581
-0.384795
-0.0115298
0.0591774
-0.0364595
0.127175
-0.06949
0.167748
-0.107058
0.190185
-0.147352
0.203581
-0.189692
0.213715
-0.234052
0.223823
-0.280661
0.235147
-0.329833
0.248093
0.262635
-0.381887
-0.0112775
0.0704548
-0.0357882
0.151686
-0.0683868
0.200347
-0.105565
0.227363
-0.145506
0.243522
-0.187513
0.255721
-0.231537
0.267848
-0.277798
0.281408
-0.326601
0.296896
0.314297
-0.378263
-0.0109772
0.081432
-0.0349873
0.175696
-0.0670682
0.232428
-0.103778
0.264073
-0.143298
0.283041
-0.184904
0.297327
-0.228528
0.311472
-0.274373
0.327253
-0.322737
0.34526
0.365493
-0.373933
-0.0106302
0.0920623
-0.0340591
0.199125
-0.0655373
0.263906
-0.101701
0.300236
-0.140729
0.322069
-0.18187
0.338468
-0.225029
0.354631
-0.270392
0.372617
-0.318247
0.393115
0.41615
-0.368904
-0.0102382
0.1023
-0.0330066
0.221893
-0.0637973
0.294697
-0.0993369
0.335776
-0.137803
0.360535
-0.178414
0.379079
-0.221044
0.397261
-0.265862
0.417434
-0.313141
0.440394
0.466197
-0.363189
-0.00980282
0.112103
-0.0318333
0.243924
-0.0618523
0.324716
-0.0966901
0.370614
-0.134525
0.39837
-0.174542
0.419096
-0.216581
0.439301
-0.26079
0.461643
-0.307428
0.487032
0.515568
-0.356799
-0.00932615
0.121429
-0.030543
0.265141
-0.0597069
0.35388
-0.0937649
0.404672
-0.130899
0.435504
-0.170258
0.458454
-0.211645
0.480689
-0.255185
0.505183
-0.301119
0.532967
0.564197
-0.349748
-0.00881041
0.13024
-0.0291399
0.28547
-0.057366
0.382106
-0.0905666
0.437872
-0.126931
0.471868
-0.165568
0.497092
-0.206244
0.521364
-0.249054
0.547993
-0.294224
0.578137
0.612022
-0.342049
-0.00825805
0.138498
-0.0276289
0.304841
-0.0548354
0.409312
-0.0871006
0.470138
-0.122625
0.507393
-0.160478
0.534945
-0.200383
0.561268
-0.242406
0.590017
-0.286755
0.622486
0.658984
-0.333717
-0.00767175
0.14617
-0.0260152
0.323184
-0.0521213
0.435418
-0.0833733
0.50139
-0.117988
0.542007
-0.154995
0.571953
-0.19407
0.600343
-0.235251
0.631198
-0.278723
0.665958
0.705025
-0.324765
-0.00705438
0.153224
-0.0243047
0.340435
-0.0492309
0.460345
-0.0793916
0.53155
-0.113027
0.575642
-0.149125
0.608051
-0.187313
0.638531
-0.227597
0.671483
-0.270139
0.708499
0.75009
-0.315204
-0.00640905
0.159633
-0.0225035
0.356529
-0.0461717
0.484013
-0.0751632
0.560542
-0.107748
0.608227
-0.142875
0.643178
-0.180119
0.675774
-0.219453
0.710817
-0.261013
0.750059
0.79412
-0.305042
-0.00573907
0.165372
-0.0206186
0.371409
-0.0429521
0.506346
-0.0706964
0.588286
-0.10216
0.639691
-0.136253
0.677271
-0.172495
0.712017
-0.210827
0.749149
-0.251354
0.790585
0.837051
-0.294285
-0.00504797
0.17042
-0.0186574
0.385018
-0.0395815
0.52727
-0.0660003
0.614705
-0.0962708
0.669961
-0.129266
0.710267
-0.16445
0.747201
-0.201727
0.786426
-0.24117
0.830028
0.878806
-0.282924
-0.00433945
0.17476
-0.0166278
0.397307
-0.0360698
0.546712
-0.0610852
0.63972
-0.0900901
0.698966
-0.121924
0.7421
-0.155992
0.781269
-0.19216
0.822594
-0.230455
0.868323
0.919292
-0.270941
-0.00361742
0.178377
-0.0145383
0.408227
-0.0324282
0.564602
-0.0559621
0.663254
-0.083628
0.726632
-0.114235
0.772708
-0.14713
0.814163
-0.182137
0.857602
-0.21921
0.905396
0.958513
-0.258431
-0.00288599
0.181263
-0.0123981
0.41774
-0.0286686
0.580873
-0.0506434
0.685229
-0.0768958
0.752884
-0.106211
0.802024
-0.137876
0.845828
-0.171677
0.891403
-0.207922
0.94164
0.99778
-0.247189
-0.00214949
0.183412
-0.0102167
0.425807
-0.0248041
0.59546
-0.0451425
0.705568
-0.0699061
0.777648
-0.0978628
0.82998
-0.128239
0.876204
-0.160766
0.92393
-0.195689
0.976563
1.03538
-0.233291
-0.00141251
0.184825
-0.00800431
0.432399
-0.0208485
0.608304
-0.0394742
0.724193
-0.0626726
0.800846
-0.0892015
0.856509
-0.118228
0.90523
-0.149411
0.955113
-0.182897
1.01005
1.07131
-0.218828
-0.000680627
0.185506
-0.00577155
0.437489
-0.0168168
0.619349
-0.0336545
0.741031
-0.0552105
0.822402
-0.0802412
0.88154
-0.107852
0.932841
-0.137628
0.984888
-0.169595
1.04202
1.1055
-0.203779
3.03143e-05
0.185475
-0.00352887
0.441049
-0.012725
0.628545
-0.0277013
0.756007
-0.0475365
0.842237
-0.0709972
0.905001
-0.0971283
0.958973
-0.125432
1.01319
-0.155823
1.07241
1.13791
-0.188241
0.000772155
0.184703
-0.00128224
0.443103
-0.00859009
0.635853
-0.021634
0.769051
-0.0396692
0.860273
-0.0614863
0.926818
-0.0860719
0.983558
-0.112842
1.03996
-0.141607
1.10117
1.16855
-0.172246
0.00146477
0.183238
0.000933587
0.443634
-0.00442949
0.641216
-0.0154734
0.780095
-0.0316291
0.876428
-0.0517273
0.946916
-0.0747011
1.00653
-0.0998787
1.06514
-0.126972
1.12827
1.1974
-0.155818
0.00213588
0.181102
0.00311069
0.442659
-0.000232013
0.644559
-0.00924201
0.789105
-0.023439
0.890625
-0.0417409
0.965218
-0.0630361
1.02783
-0.0865636
1.08867
-0.111945
1.15365
1.22443
-0.138981
0.00278294
0.17832
0.00525854
0.440184
0.00388277
0.645935
-0.00296712
0.795955
-0.0151237
0.902782
-0.0315503
0.981644
-0.0510988
1.04738
-0.0729207
1.11049
-0.0965529
1.17728
1.24964
-0.121761
0.00340034
0.174919
0.00735512
0.436229
0.00798568
0.645304
0.0033251
0.800616
-0.0067109
0.912818
-0.0211808
0.996114
-0.0389131
1.06511
-0.0589746
1.13055
-0.0808206
1.19913
1.273
-0.10418
0.00398373
0.170935
0.00938401
0.430829
0.0120291
0.642659
0.0096065
0.803038
0.00176973
0.920655
-0.0106607
1.00854
-0.0265051
1.08095
-0.0447509
1.1488
-0.064774
1.21915
1.29449
-0.0862613
0.00452915
0.166406
0.011331
0.424027
0.0159877
0.638002
0.0158485
0.803178
0.0102858
0.926217
-4.49701e-05
1.01888
-0.0139036
1.09481
-0.0302774
1.16517
-0.0484382
1.23731
1.31408
-0.068029
0.005033
0.161373
0.0131834
0.415877
0.0198367
0.631349
0.022017
0.800997
0.0188043
0.92943
0.0107059
1.02697
-0.00114297
1.10666
-0.0155854
1.17961
-0.0318377
1.25356
1.33175
-0.0495082
0.0054921
0.155881
0.0149287
0.40644
0.0235509
0.622727
0.0280774
0.796471
0.0272839
0.930224
0.0214821
1.03278
0.0117612
1.11638
-0.000753136
1.19213
-0.0149927
1.2678
1.34749
-0.0307277
0.00590367
0.149978
0.016555
0.395789
0.0271049
0.612177
0.0339931
0.789583
0.0356833
0.928533
0.032267
1.03619
0.0247573
1.12389
0.0143581
1.20253
0.00209519
1.28006
1.36131
-0.01173
0.00626546
0.143712
0.0180512
0.384003
0.0304736
0.599755
0.039726
0.78033
0.043958
0.924301
0.0430157
1.03713
0.0378047
1.1291
0.0295369
1.21079
0.0192499
1.29035
1.37306
0.00750191
0.00657568
0.137136
0.0194069
0.371172
0.0336323
0.585529
0.045237
0.768725
0.0520599
0.917478
0.0536784
1.03552
0.0508584
1.13192
0.0448004
1.21685
0.036608
1.29854
1.38269
0.0269804
0.00683316
0.130303
0.0206132
0.357392
0.0365568
0.569586
0.0504861
0.754796
0.0599381
0.908026
0.0642014
1.03125
0.0638703
1.13225
0.0601091
1.22061
0.0540768
1.30458
1.3902
0.0465611
0.00703727
0.123266
0.0216623
0.342767
0.0392247
0.552023
0.0554328
0.738588
0.0675389
0.89592
0.0745263
1.02427
0.0767852
1.12999
0.0754136
1.22198
0.0716121
1.30838
1.39557
0.0662462
0.00718799
0.116078
0.0225481
0.327407
0.0416148
0.532956
0.0600367
0.720166
0.0748059
0.881151
0.0845896
1.01448
0.0895417
1.12504
0.09066
1.22087
0.0891689
1.30987
1.39873
0.0860039
0.00728593
0.108792
0.0232664
0.311426
0.0437084
0.512514
0.0642584
0.699616
0.081681
0.863729
0.0943229
1.00184
0.102072
1.11729
0.105788
1.21715
0.106697
1.30896
1.39964
0.105793
0.00733226
0.10146
0.0238147
0.294944
0.0454894
0.49084
0.0680602
0.677045
0.0881047
0.843684
0.103653
0.986291
0.1143
1.10665
0.12073
1.21072
0.124138
1.30555
1.39821
0.125569
0.00732878
0.094131
0.0241925
0.27808
0.0469451
0.468087
0.071407
0.652583
0.0940173
0.821074
0.112503
0.967805
0.126143
1.09301
0.135409
1.20145
0.141429
1.29953
1.39436
0.145275
0.0072778
0.0868532
0.0244015
0.260956
0.048066
0.444423
0.0742669
0.626383
0.0993599
0.795981
0.120793
0.946372
0.137512
1.07629
0.149737
1.18923
0.158493
1.29078
1.388
0.164848
0.00718215
0.0796711
0.0244453
0.243693
0.0488472
0.420021
0.0766129
0.598617
0.104076
0.768518
0.128437
0.922011
0.148308
1.05642
0.163618
1.17392
0.175244
1.27915
1.37903
0.184216
0.00704511
0.072626
0.0243296
0.226409
0.0492877
0.395063
0.0784233
0.569481
0.108112
0.73883
0.135354
0.894768
0.158427
1.03334
0.176943
1.1554
0.191583
1.26451
1.36732
0.203294
0.00687034
0.0657556
0.0240621
0.209217
0.0493913
0.369733
0.079683
0.53919
0.11142
0.707093
0.141458
0.86473
0.16776
1.00704
0.189592
1.13357
0.207397
1.2467
1.35273
0.221985
0.00666178
0.0590938
0.023652
0.192227
0.0491662
0.344219
0.0803841
0.507972
0.11396
0.673517
0.14667
0.832019
0.176192
0.97752
0.201436
1.10833
0.222558
1.22558
1.33512
0.240176
0.00642359
0.0526702
0.0231103
0.17554
0.0486252
0.318704
0.0805266
0.47607
0.115701
0.638343
0.150916
0.796805
0.183607
0.944828
0.212332
1.0796
0.23692
1.20099
1.3143
0.257739
0.00616004
0.0465102
0.0224491
0.159251
0.0477852
0.293368
0.0801186
0.443737
0.116622
0.60184
0.154128
0.759298
0.189892
0.909064
0.222135
1.04736
0.250322
1.17281
1.29009
0.274526
0.00587541
0.0406348
0.0216815
0.143445
0.0466667
0.268383
0.0791768
0.411227
0.116713
0.564303
0.156253
0.719759
0.194938
0.870378
0.23069
1.01161
0.262587
1.14091
1.26231
0.290373
0.00557388
0.0350609
0.0208208
0.128198
0.0452935
0.24391
0.0777257
0.378794
0.115981
0.526048
0.15725
0.678491
0.198645
0.828984
0.237844
0.97241
0.273525
1.10523
1.23073
0.3051
0.00525944
0.0298015
0.0198811
0.113576
0.0436917
0.2201
0.075797
0.346689
0.114443
0.487401
0.157098
0.635836
0.200928
0.785154
0.243448
0.92989
0.282933
1.06574
1.19515
0.318518
0.00493581
0.0248657
0.0188757
0.0996362
0.0418889
0.197087
0.0734289
0.315149
0.112131
0.448699
0.155794
0.592173
0.201722
0.739225
0.247363
0.884249
0.290604
1.0225
1.15532
0.330432
0.00460635
0.0202593
0.0178178
0.0864248
0.0399136
0.174991
0.0706645
0.284398
0.109089
0.410274
0.153354
0.547908
0.200985
0.691594
0.249467
0.835767
0.29633
0.975641
1.11099
0.340659
0.00427397
0.0159853
0.0167196
0.0739792
0.037794
0.153916
0.0675503
0.254642
0.105373
0.372451
0.149819
0.503462
0.198702
0.642711
0.249661
0.784808
0.299913
0.925388
1.06186
0.349045
0.00394113
0.0120442
0.0155921
0.0623282
0.0355574
0.133951
0.064135
0.226064
0.101048
0.335539
0.145246
0.459264
0.194889
0.593068
0.24787
0.731827
0.301173
0.872085
1.00753
0.355497
0.00360978
0.00843444
0.0144452
0.0514928
0.0332296
0.115167
0.0604674
0.198827
0.0961844
0.299822
0.139713
0.415735
0.189593
0.543189
0.244052
0.677368
0.299971
0.816166
0.947487
0.360018
0.0032814
0.00515304
0.0132874
0.0414868
0.0308342
0.0976198
0.0565953
0.173066
0.0908591
0.265558
0.133313
0.373281
0.182889
0.493613
0.238186
0.622071
0.296224
0.758129
0.880985
0.362726
0.00295702
0.00219602
0.0121258
0.0323181
0.0283926
0.081353
0.0525645
0.148894
0.0851497
0.232972
0.126151
0.332279
0.174885
0.444879
0.230273
0.566683
0.289656
0.698746
0.807073
0.363568
0.00263726
-0.000441242
0.0109662
0.0239891
0.0259237
0.0663956
0.0484179
0.126399
0.0791339
0.202257
0.118345
0.293069
0.165722
0.397502
0.220432
0.511973
0.28012
0.639058
0.745345
0.341848
0.00232244
-0.00276369
0.00981354
0.016498
0.0234442
0.052765
0.0441951
0.105648
0.0728874
0.173564
0.110017
0.255939
0.155576
0.351944
0.208907
0.458641
0.268718
0.579247
0.683802
0.330261
0.0020127
-0.00477638
0.00867167
0.00983905
0.0209686
0.0404681
0.0399322
0.0866848
0.0664823
0.147014
0.101293
0.221128
0.14464
0.308596
0.196086
0.407195
0.255334
0.52
0.621875
0.317261
0.00170805
-0.00648443
0.00754406
0.00400303
0.01851
0.0295022
0.035662
0.0695328
0.059986
0.12269
0.0922907
0.188824
0.133096
0.267791
0.182214
0.358077
0.240092
0.462122
0.560028
0.301938
0.00140857
-0.007893
0.00643394
-0.00102234
0.0160804
0.0198558
0.0314147
0.0541984
0.053461
0.100644
0.0831238
0.159161
0.121114
0.2298
0.167504
0.311687
0.223259
0.406367
0.499009
0.284278
0.00111448
-0.00900749
0.00534467
-0.00525252
0.0136913
0.0115091
0.0272189
0.0406709
0.0469654
0.0808973
0.0738975
0.132229
0.108866
0.194831
0.15219
0.268363
0.205164
0.353393
0.439658
0.264515
0.000826277
-0.00983376
0.00428004
-0.00870628
0.0113547
0.00443444
0.0231018
0.0289237
0.0405546
0.0634445
0.0647119
0.108072
0.0965172
0.163026
0.136507
0.228373
0.186153
0.303748
0.382808
0.243003
0.000544803
-0.0103786
0.00324452
-0.011406
0.0090829
-0.00140394
0.0190911
0.0189155
0.0342821
0.0482534
0.0556623
0.0866916
0.0842264
0.134462
0.120691
0.191909
0.166574
0.257865
0.329194
0.220188
0.000271462
-0.01065
0.00224349
-0.013378
0.00688947
-0.00604992
0.0152147
0.0105902
0.0282006
0.0352676
0.0468407
0.0680515
0.0721465
0.109156
0.104968
0.159088
0.146776
0.216057
0.279414
0.196555
1.14784e-05
-0.0106615