/*--------------------------------*- C++ -*----------------------------------*\
  =========                 |
  \\      /  F ield         | OpenFOAM: The Open Source CFD Toolbox
   \\    /   O peration     | Website:  https://openfoam.org
    \\  /    A nd           | Version:  9
     \\/     M anipulation  |
\*---------------------------------------------------------------------------*/
FoamFile
{
    format      ascii;
    class       volVectorField;
    location    "5.9";
    object      U;
}
// * * * * * * * * * * * * * * * * * * * * * * * * * * * * * * * * * * * * * //

dimensions      [0 1 -1 0 0 0 0];

internalField   nonuniform List<vector> 
8500
(
(-0.00393118 0.00135681 0)
(-0.0149227 0.00202147 -7.31641e-23)
(-0.0282346 0.00181177 -4.05161e-24)
(-0.0368926 0.0011271 7.53272e-37)
(-0.0407834 0.000211544 -1.06021e-23)
(-0.0388517 -0.000821374 8.89212e-24)
(-0.0315856 -0.0018999 -5.60926e-23)
(-0.0178271 -0.00300424 -8.36761e-23)
(-0.000978747 -0.00387709 -7.17589e-23)
(0.0228783 -0.00480612 -3.62412e-24)
(-0.00408501 0.00403709 2.05063e-22)
(-0.0149173 0.00600476 6.83676e-23)
(-0.0277287 0.00537047 2.74483e-22)
(-0.0357186 0.00332052 0)
(-0.038797 0.000584516 0)
(-0.0359389 -0.00249896 1.71003e-23)
(-0.0276652 -0.00571648 4.17317e-23)
(-0.0127479 -0.00899427 8.91185e-23)
(0.00518251 -0.0116259 5.42697e-23)
(0.0307299 -0.014356 1.44996e-23)
(-0.00438458 0.0066183 -1.82219e-22)
(-0.0148931 0.00981057 0)
(-0.026704 0.00873617 -2.58482e-22)
(-0.033361 0.00533317 0)
(-0.0348198 0.000808618 -4.25465e-23)
(-0.0301166 -0.00428043 3.56842e-23)
(-0.0198335 -0.00959005 0)
(-0.00262686 -0.0149433 0)
(0.0174453 -0.0193404 0)
(0.0463486 -0.0237126 0)
(-0.00481394 0.00903738 3.69989e-22)
(-0.0148232 0.0133254 -2.76814e-22)
(-0.0251348 0.0117854 -6.49428e-23)
(-0.0298001 0.00704971 -4.02501e-22)
(-0.0288433 0.00078973 -3.9243e-22)
(-0.021394 -0.00623099 3.43769e-23)
(-0.00811172 -0.0135708 -2.88697e-23)
(0.012475 -0.0208452 3.14594e-22)
(0.0356979 -0.0269634 2.42323e-24)
(0.0695574 -0.0327346 2.76585e-22)
(-0.00534974 0.0112356 -3.69989e-22)
(-0.014668 0.0164427 -3.59901e-22)
(-0.0229826 0.0144023 9.77073e-23)
(-0.0250057 0.00836253 5.35338e-22)
(-0.020853 0.000441461 -4.59831e-23)
(-0.00978719 -0.00840436 5.64812e-22)
(0.00745939 -0.0176601 0)
(0.0324855 -0.0267089 -3.58372e-22)
(0.059787 -0.0344472 -6.89136e-23)
(0.100086 -0.0412747 -3.81258e-22)
(-0.00596182 0.0131602 9.4331e-23)
(-0.0143752 0.0190658 5.96771e-22)
(-0.020196 0.0164816 -4.63663e-22)
(-0.0189369 0.00917471 1.35636e-24)
(-0.0108269 -0.000312288 -3.95451e-22)
(0.00469904 -0.0108455 1.44445e-22)
(0.0268154 -0.0218413 -5.82237e-23)
(0.0572863 -0.0325136 4.49103e-22)
(0.0895305 -0.0417525 -7.43145e-23)
(0.137583 -0.0491787 2.19151e-22)
(-0.00661396 0.0147653 4.77035e-23)
(-0.0138814 0.0211097 0)
(-0.0167111 0.0179316 -4.61596e-24)
(-0.0115414 0.0094031 0)
(0.00126413 -0.00153332 7.03838e-22)
(0.0220612 -0.0135911 -5.67674e-22)
(0.0498962 -0.026124 0)
(0.0867304 -0.0381896 1.44227e-24)
(0.124703 -0.048819 0)
(0.181615 -0.0562827 0)
(-0.0072649 0.0160135 -7.82098e-22)
(-0.0131121 0.0225033 -8.08291e-23)
(-0.0124517 0.0186766 6.01072e-22)
(-0.00275522 0.00898174 1.07857e-22)
(0.015457 -0.00326579 -7.10078e-22)
(0.0422955 -0.0166568 -4.31243e-22)
(0.0766397 -0.0304967 -5.88739e-23)
(0.120652 -0.0436605 4.54552e-22)
(0.16504 -0.0555646 -7.50716e-23)
(0.231672 -0.0624134 5.59744e-23)
(-0.00786944 0.0168765 8.80499e-22)
(-0.0119833 0.0231904 -6.64376e-22)
(-0.00732948 0.0186591 -2.02057e-22)
(0.00749768 0.00786437 1.11904e-22)
(0.0317986 -0.0055346 7.1324e-22)
(0.0654006 -0.020036 6.45013e-22)
(0.106978 -0.0349199 -5.92438e-23)
(0.158866 -0.0488364 9.29548e-23)
(0.210249 -0.0618829 -1.44623e-22)
(0.287155 -0.0673922 5.82619e-23)
(-0.00837908 0.017334 8.11627e-22)
(-0.0104035 0.0231334 6.6348e-22)
(-0.00124497 0.0178414 -9.66045e-22)
(0.0193046 0.00602669 -1.13025e-22)
(0.0503452 -0.00834147 0)
(0.0913786 -0.0236991 0)
(0.140837 -0.0393283 0)
(0.201162 -0.0536067 -1.46537e-21)
(0.26 -0.0676386 -5.98871e-22)
(0.347373 -0.0710406 4.24452e-22)
(-0.00873992 0.0173697 -1.63975e-21)
(-0.00827566 0.0223171 0)
(0.00591027 0.0162092 2.21544e-21)
(0.0327632 0.00346938 9.03678e-22)
(0.0711608 -0.0116616 9.26271e-23)
(0.120234 -0.027591 0)
(0.178134 -0.04363 -9.40515e-22)
(0.247299 -0.057839 7.344e-22)
(0.313929 -0.0726632 5.98865e-22)
(0.411538 -0.0731837 -4.24464e-22)
(-0.00889701 0.016985 9.3157e-22)
(-0.00549226 0.0207379 -8.68417e-23)
(0.0142513 0.0137708 -1.11433e-21)
(0.0479791 0.00022004 -1.01527e-21)
(0.094315 -0.0154414 0)
(0.151968 -0.0316284 1.18175e-21)
(0.218773 -0.0477054 -6.20507e-24)
(0.297005 -0.0613827 6.50447e-22)
(0.371624 -0.0767534 6.83351e-22)
(0.478768 -0.0736591 -4.19157e-22)
(-0.00880047 0.0161924 -1.48221e-24)
(-0.00194325 0.0184068 1.48679e-21)
(0.0239016 0.0105597 -1.43859e-22)
(0.0650638 -0.00366547 8.09597e-22)
(0.119879 -0.0195972 4.67684e-22)
(0.186575 -0.0356984 3.05846e-22)
(0.262636 -0.0514074 9.39776e-22)
(0.349961 -0.0640743 -8.38224e-22)
(0.432617 -0.0796749 -4.67758e-22)
(0.548086 -0.0723286 3.02181e-22)
(-0.00839618 0.0150045 0)
(0.00248073 0.0153607 -1.2287e-21)
(0.0349878 0.00663409 -1.45923e-22)
(0.08413 -0.00810225 9.88538e-24)
(0.147918 -0.0240145 7.43156e-22)
(0.224035 -0.0396593 -1.04462e-21)
(0.309572 -0.0545635 9.51878e-22)
(0.405799 -0.0657452 -9.71474e-23)
(0.496371 -0.0811693 0)
(0.61842 -0.0690933 0)
(-0.00763023 0.0134428 1.11633e-22)
(0.00789005 0.0116538 -1.44757e-21)
(0.0476359 0.00207708 0)
(0.105288 -0.0129763 -1.04666e-22)
(0.178489 -0.0285482 9.62605e-23)
(0.264302 -0.0433418 0)
(0.359385 -0.0569806 -9.58989e-22)
(0.464093 -0.0662318 -7.5331e-22)
(0.562268 -0.0809682 1.39019e-22)
(0.688632 -0.0639197 -1.17187e-22)
(-0.00645008 0.0115364 -1.11565e-22)
(0.0143939 0.00735671 1.54123e-21)
(0.0619683 -0.00300417 0)
(0.128637 -0.0181455 -1.05847e-21)
(0.211626 -0.0330253 9.72505e-23)
(0.307298 -0.0465532 -1.21855e-21)
(0.411824 -0.0584519 -1.16875e-22)
(0.524356 -0.0653859 8.51584e-22)
(0.629608 -0.0788107 0)
(0.757542 -0.0568687 8.28575e-22)
(-0.0048047 0.00932102 -1.77639e-21)
(0.0220975 0.00255632 -9.55256e-23)
(0.0781 -0.00847951 -1.46736e-22)
(0.154264 -0.0234413 1.22792e-22)
(0.247338 -0.0372474 -1.5424e-21)
(0.352897 -0.0490826 1.21854e-21)
(0.466568 -0.0587673 9.76287e-22)
(0.586039 -0.0630855 7.61547e-22)
(0.6976 -0.0744542 1.22854e-21)
(0.823937 -0.0480747 -7.1167e-22)
(-0.00264489 0.00683773 1.89018e-21)
(0.0311001 -0.00264516 0)
(0.0961332 -0.0141975 1.37435e-21)
(0.18223 -0.0286722 -1.24404e-22)
(0.285591 -0.0409969 3.09968e-21)
(0.40092 -0.0507087 0)
(0.523224 -0.0577274 -9.7628e-22)
(0.648547 -0.0592465 4.26806e-24)
(0.765372 -0.0676572 -1.36754e-21)
(0.886517 -0.0376583 1.17186e-22)
(7.62024e-05 0.00413279 0)
(0.041492 -0.00813146 1.54542e-21)
(0.116153 -0.0199879 -1.22569e-21)
(0.212569 -0.033627 0)
(0.326309 -0.0440422 -1.55728e-21)
(0.451121 -0.0512092 0)
(0.581321 -0.0551624 9.8668e-22)
(0.711274 -0.0538294 -7.65803e-22)
(0.832053 -0.0581752 -1.21806e-21)
(0.944229 -0.0260123 -8.43932e-22)
(0.00340256 0.00125713 -2.41559e-22)
(0.0533524 -0.0137737 -1.34262e-21)
(0.138223 -0.0256643 0)
(0.245274 -0.0380802 0)
(0.369358 -0.0461465 0)
(0.503186 -0.0503707 -1.52136e-22)
(0.64031 -0.050948 -9.94973e-22)
(0.773599 -0.0468212 -1.00454e-22)
(0.896836 -0.0459833 1.21805e-21)
(0.997549 -0.0156736 9.6094e-22)
(0.00737465 -0.00173398 0)
(0.0667467 -0.0194319 -1.59764e-21)
(0.16238 -0.0310275 0)
(0.2803 -0.0417975 0)
(0.414545 -0.0470746 0)
(0.556725 -0.0479989 1.53077e-22)
(0.69957 -0.0450053 -1.24424e-21)
(0.834798 -0.0382057 8.61608e-23)
(0.958605 -0.0319165 9.03519e-22)
(1.0502 -0.0114498 9.3601e-22)
(0.0120286 -0.00478117 0)
(0.0817242 -0.0249567 1.59764e-21)
(0.188628 -0.0358697 -1.30005e-21)
(0.317551 -0.0445422 0)
(0.461612 -0.0466023 -1.61873e-21)
(0.611282 -0.0439258 0)
(0.758436 -0.037287 9.95676e-22)
(0.894015 -0.0279991 -7.78326e-22)
(1.01524 -0.017785 -1.20525e-21)
(1.1019 -0.00829135 -9.29937e-22)
(0.0173956 -0.00782121 2.15964e-21)
(0.098315 -0.0301914 0)
(0.21694 -0.0399781 1.14107e-21)
(0.356879 -0.0460817 1.33034e-22)
(0.510245 -0.0445251 3.25263e-21)
(0.666347 -0.0380192 0)
(0.816238 -0.0277786 -1.00195e-21)
(0.950474 -0.0162064 -1.5566e-21)
(1.06652 -0.00334784 -1.04503e-21)
(1.14755 0.000448585 -1.3751e-23)
(0.0235006 -0.0107873 -2.29017e-21)
(0.116528 -0.0349737 1.0958e-22)
(0.247248 -0.0431396 1.61111e-22)
(0.398086 -0.0461953 -1.3482e-22)
(0.560068 -0.0406665 -1.6339e-21)
(0.721374 -0.0301916 1.29022e-21)
(0.872333 -0.0165085 1.00194e-21)
(1.00352 -0.00290688 7.78271e-22)
(1.11249 0.0115502 1.18959e-21)
(1.18652 0.012629 -1.0346e-21)
(0.0303615 -0.0136093 1.32957e-22)
(0.136348 -0.0391381 1.5926e-21)
(0.279445 -0.0451458 0)
(0.440921 -0.0446801 -9.31156e-22)
(0.610659 -0.0348856 -1.07069e-22)
(0.775794 -0.0204056 -1.29022e-21)
(0.926123 -0.00355474 1.20665e-22)
(1.05264 0.011728 6.71826e-22)
(1.1532 0.0268567 0)
(1.21926 0.0265286 9.2837e-22)
(0.037988 -0.0162142 -1.42001e-22)
(0.157736 -0.0425182 -1.70421e-21)
(0.313384 -0.0457971 0)
(0.485085 -0.0413584 1.17524e-22)
(0.66156 -0.0270834 -1.08116e-22)
(0.82904 -0.00867637 0)
(0.977069 0.0109581 -1.00244e-21)
(1.09746 0.0274767 -7.73292e-22)
(1.18871 0.0424725 -1.40199e-22)
(1.24621 0.041253 -1.18196e-22)
(0.0463805 -0.0185266 0)
(0.180625 -0.0449496 -1.96843e-21)
(0.348878 -0.0449082 1.77968e-22)
(0.530236 -0.0360827 -1.09218e-23)
(0.712284 -0.0172056 -8.43152e-22)
(0.880566 0.004931 -1.45977e-21)
(1.02471 0.0268677 1.13372e-21)
(1.13772 0.0440987 0)
(1.21914 0.0582743 0)
(1.26783 0.0562463 0)
(0.055529 -0.0204695 7.36729e-24)
(0.20492 -0.0462725 1.65736e-21)
(0.3857 -0.042312 1.80393e-22)
(0.575995 -0.0287405 1.21272e-21)
(0.762336 -0.00524456 7.33169e-22)
(0.92986 0.0203065 -1.56698e-22)
(1.06867 0.0439839 1.00626e-21)
(1.17332 0.061354 -6.52783e-22)
(1.24468 0.0741249 -6.95232e-22)
(1.28466 0.0711444 5.42759e-22)
(0.0654122 -0.0219652 1.06514e-21)
(0.230499 -0.0463348 1.19261e-22)
(0.423588 -0.0378642 -1.42789e-21)
(0.621954 -0.0192576 -1.10038e-21)
(0.811223 0.0087616 0)
(0.976466 0.0373021 1.304e-21)
(1.10868 0.062099 -7.44266e-24)
(1.20424 0.0790149 8.41073e-22)
(1.26561 0.0898891 4.85581e-22)
(1.29722 0.0857189 -4.28645e-22)
(0.0759966 -0.0229362 -2.4319e-21)
(0.25721 -0.044995 0)
(0.462246 -0.031447 2.87036e-21)
(0.66769 -0.00759994 9.67442e-22)
(0.858471 0.0247321 1.1136e-22)
(1.01999 0.0557403 0)
(1.14455 0.0809989 -9.8666e-22)
(1.23057 0.0968752 7.2985e-22)
(1.28223 0.105445 5.37051e-22)
(1.30605 0.099835 -4.04253e-22)
(0.0872358 -0.0233068 1.2247e-21)
(0.284877 -0.0421255 9.21479e-22)
(0.501354 -0.0229722 -1.61648e-21)
(0.712769 0.00622556 1.45615e-22)
(0.903637 0.0425477 0)
(1.06011 0.0754228 0)
(1.17618 0.100471 0)
(1.25248 0.114753 -1.44526e-21)
(1.29491 0.120692 -5.37054e-22)
(1.31161 0.113421 4.04239e-22)
(0.0990707 -0.0230045 1.10647e-21)
(0.313295 -0.0376159 -9.10347e-22)
(0.540567 -0.0123842 9.42072e-23)
(0.756763 0.022172 0)
(0.946318 0.0620561 8.51163e-22)
(1.09659 0.0961381 5.62982e-22)
(1.20357 0.120311 6.38415e-23)
(1.2702 0.132495 -6.64029e-23)
(1.30399 0.135547 1.30728e-22)
(1.31435 0.126445 -5.13646e-23)
(0.111428 -0.0219611 -1.25392e-21)
(0.34224 -0.0313757 1.13468e-22)
(0.579528 0.000338769 7.29591e-22)
(0.799254 0.0401544 -2.07252e-22)
(0.98616 0.0830784 -6.38396e-22)
(1.12924 0.11767 -7.98546e-22)
(1.22677 0.140328 6.2984e-23)
(1.28397 0.149969 3.58738e-22)
(1.30984 0.149951 0)
(1.31466 0.138903 -4.19772e-23)
(0.124224 -0.020115 -7.93647e-23)
(0.371464 -0.0233369 0)
(0.617873 0.0151833 2.19161e-24)
(0.839848 0.0600523 0)
(1.02286 0.105415 8.4051e-22)
(1.15796 0.139802 -6.21893e-22)
(1.2459 0.160348 0)
(1.29409 0.167071 1.03181e-23)
(1.3128 0.163859 0)
(1.31288 0.150803 0)
(0.137359 -0.0174125 -1.55058e-22)
(0.400705 -0.013457 1.00681e-21)
(0.655234 0.0321008 -8.26839e-22)
(0.878177 0.0817141 1.39992e-22)
(1.05619 0.128851 -3.81785e-22)
(1.18272 0.162323 -7.10339e-23)
(1.26111 0.180215 0)
(1.30084 0.183713 2.54485e-22)
(1.31321 0.17724 6.34814e-23)
(1.30931 0.16216 1.6399e-22)
(0.150724 -0.0138096 -6.39832e-22)
(0.429688 -0.00172024 -4.14436e-22)
(0.691253 0.051008 -1.35702e-22)
(0.913911 0.104961 5.59531e-22)
(1.08594 0.153165 4.89524e-23)
(1.20352 0.185032 6.10242e-22)
(1.2726 0.19979 0)
(1.30451 0.199827 -3.06082e-22)
(1.31135 0.190075 5.16958e-23)
(1.30419 0.172989 -3.62557e-22)
(0.164199 -0.00927327 -6.39831e-22)
(0.45813 0.0118603 4.14845e-22)
(0.725582 0.0717888 -4.09829e-24)
(0.946758 0.12959 -6.53079e-22)
(1.112 0.178128 -3.55251e-22)
(1.22044 0.207738 -3.42502e-23)
(1.28058 0.21895 2.87634e-23)
(1.30538 0.215355 3.40682e-22)
(1.30749 0.202349 -4.63897e-24)
(1.29773 0.183306 1.17272e-22)
(0.177657 -0.00378343 -3.17618e-22)
(0.485745 0.0272421 0)
(0.757894 0.0942959 -3.63449e-22)
(0.976471 0.155381 0)
(1.13429 0.203513 -4.48364e-22)
(1.23356 0.230264 3.88862e-23)
(1.28526 0.237586 0)
(1.30372 0.230253 0)
(1.30188 0.214052 0)
(1.29011 0.19312 0)
(0.190962 0.00266634 2.79194e-22)
(0.512248 0.0443532 1.31621e-22)
(0.787885 0.118354 3.63449e-22)
(1.00285 0.182101 0)
(1.15276 0.229095 0)
(1.24301 0.252442 -1.59248e-23)
(1.28688 0.255606 6.06808e-23)
(1.29977 0.244482 6.56256e-23)
(1.29471 0.225172 5.61411e-23)
(1.28147 0.202434 -9.07623e-24)
(0.203975 0.0100676 -4.89176e-24)
(0.537363 0.063092 -1.22918e-22)
(0.815281 0.143762 5.81032e-24)
(1.02573 0.209505 7.61578e-24)
(1.16743 0.254656 -1.18138e-23)
(1.24897 0.274122 4.55769e-24)
(1.28567 0.272925 -5.25817e-23)
(1.29376 0.258009 -6.11909e-23)
(1.28616 0.2357 -4.28759e-23)
(1.27194 0.211247 1.29257e-24)
(0.216552 0.0183962 0)
(0.560821 0.0833286 -1.19365e-22)
(0.83984 0.170297 -4.53008e-24)
(1.04499 0.237342 8.5716e-24)
(1.17836 0.279984 1.64073e-37)
(1.25158 0.295162 -1.15008e-37)
(1.28183 0.28947 -4.70615e-23)
(1.2859 0.270804 -5.29123e-23)
(1.2764 0.245623 -3.85893e-23)
(1.26163 0.219553 0)
(0.228551 0.0276122 3.35353e-22)
(0.582373 0.104906 9.7579e-23)
(0.861354 0.19772 3.55952e-22)
(1.06058 0.265362 -1.66751e-23)
(1.18561 0.304877 0)
(1.25104 0.315433 1.3626e-23)
(1.27559 0.305174 3.06659e-23)
(1.27636 0.282838 5.70777e-23)
(1.26555 0.254925 3.03195e-23)
(1.2506 0.22734 6.96741e-24)
(0.23983 0.0376594 -2.98643e-22)
(0.601787 0.127644 0)
(0.879655 0.225775 -3.36026e-22)
(1.07245 0.29331 0)
(1.1893 0.329143 -3.76663e-23)
(1.24753 0.334817 3.15914e-23)
(1.26715 0.319977 0)
(1.26533 0.294084 0)
(1.25373 0.263587 0)
(1.23895 0.234591 0)
(0.250255 0.0484661 5.61806e-22)
(0.618857 0.151337 -3.64351e-22)
(0.894609 0.254198 -7.91784e-23)
(1.08061 0.320939 -3.57798e-22)
(1.18956 0.352599 -3.45486e-22)
(1.24124 0.353205 2.35388e-23)
(1.2567 0.333822 -1.97681e-23)
(1.25294 0.304513 1.49665e-22)
(1.24105 0.271586 4.06991e-24)
(1.22672 0.241281 8.57744e-23)
(0.259696 0.0599449 -5.61806e-22)
(0.633401 0.175762 -4.31126e-22)
(0.906124 0.282714 1.11165e-22)
(1.08511 0.348006 4.30403e-22)
(1.18652 0.375075 -1.98228e-23)
(1.23237 0.370497 3.67673e-22)
(1.24441 0.346659 0)
(1.23935 0.314097 -1.69746e-22)
(1.22759 0.278905 -2.17612e-23)
(1.21393 0.247378 -1.02227e-22)
(0.268032 0.0719943 1.28237e-22)
(0.645267 0.200681 7.4514e-22)
(0.914145 0.31105 -4.9789e-22)
(1.086 0.374273 -1.01516e-22)
(1.18037 0.396408 -2.5749e-22)
(1.22112 0.3866 5.26315e-23)
(1.23046 0.358437 -3.24811e-23)
(1.22465 0.322802 1.56151e-22)
(1.21347 0.285536 -2.52264e-23)
(1.20062 0.252856 5.3776e-23)
(0.275157 0.0844997 6.26323e-23)
(0.654335 0.22584 0)
(0.918653 0.338927 3.54672e-23)
(1.0834 0.399515 0)
(1.17127 0.416451 5.16391e-22)
(1.20766 0.401431 -3.31099e-22)
(1.21499 0.369112 0)
(1.20895 0.330581 -2.29294e-23)
(1.19875 0.291453 0)
(1.18693 0.257681 0)
(0.280974 0.0973347 -9.09871e-22)
(0.660516 0.250978 -8.21295e-23)
(0.919666 0.366074 5.97911e-22)
(1.07744 0.423514 7.6574e-23)
(1.15941 0.435063 -5.28716e-22)
(1.19218 0.414913 -1.82106e-22)
(1.19817 0.378647 -2.46754e-23)
(1.1924 0.337411 7.51327e-23)
(1.18344 0.296596 -1.60156e-23)
(1.17289 0.261855 4.16261e-24)
(0.285404 0.110363 1.01351e-21)
(0.663755 0.275826 -6.3554e-22)
(0.917236 0.392223 -1.69563e-22)
(1.06825 0.446067 8.86233e-23)
(1.14497 0.452118 4.16165e-22)
(1.17486 0.426968 2.76527e-22)
(1.18015 0.386993 -2.05206e-23)
(1.17509 0.343277 -3.51809e-23)
(1.16758 0.300942 -1.6192e-23)
(1.15853 0.265334 4.19625e-24)
(0.288383 0.123439 7.67231e-22)
(0.66403 0.300116 6.24659e-22)
(0.911449 0.417114 -7.10627e-22)
(1.05601 0.466982 -7.96391e-23)
(1.12817 0.467501 0)
(1.15589 0.437534 0)
(1.16106 0.394104 0)
(1.15711 0.348148 -1.72086e-22)
(1.15127 0.304469 -6.34867e-24)
(1.14389 0.268083 -3.04223e-23)
(0.289866 0.136414 -1.45468e-21)
(0.661351 0.323576 0)
(0.902421 0.4405 1.515e-21)
(1.0409 0.486082 4.3789e-22)
(1.1092 0.481104 0)
(1.13546 0.446556 0)
(1.14102 0.399942 -9.41257e-23)
(1.13852 0.35199 6.12023e-23)
(1.13457 0.307151 6.34872e-24)
(1.129 0.270071 3.0421e-23)
(0.289826 0.149133 7.63999e-22)
(0.655764 0.345943 -6.42623e-23)
(0.890304 0.462148 -7.09206e-22)
(1.02313 0.5032 -4.7937e-22)
(1.08826 0.49283 3.47457e-23)
(1.11372 0.453978 1.49776e-22)
(1.12015 0.404478 6.931e-23)
(1.11942 0.354774 -3.65181e-23)
(1.11752 0.308959 -7.44226e-23)
(1.1139 0.271266 8.84926e-23)
(0.288254 0.161441 -3.56497e-24)
(0.647349 0.366957 8.07145e-22)
(0.875273 0.481843 -7.88878e-23)
(1.00288 0.518183 2.43262e-22)
(1.06557 0.502592 1.19544e-22)
(1.09084 0.459751 -6.57802e-23)
(1.09859 0.407679 1.43355e-23)
(1.09988 0.356476 4.56219e-23)
(1.10018 0.309872 -9.69115e-23)
(1.09862 0.271638 -6.63067e-23)
(0.285166 0.173182 0)
(0.636224 0.386375 -6.90816e-22)
(0.857478 0.499367 -6.49099e-23)
(0.980409 0.530914 -8.57093e-23)
(1.04134 0.510312 -1.20379e-22)
(1.06699 0.463834 -6.02063e-23)
(1.07646 0.40952 -1.26525e-22)
(1.08 0.357072 0)
(1.08259 0.309867 0)
(1.08322 0.271158 0)
(0.280588 0.184201 4.61624e-23)
(0.622521 0.403977 -4.8535e-22)
(0.837115 0.514519 0)
(0.955964 0.541274 -9.93843e-23)
(1.01577 0.515934 9.38975e-24)
(1.04234 0.466194 0)
(1.05388 0.409975 1.17167e-22)
(1.05986 0.356546 1.99335e-22)
(1.0648 0.308927 -4.49857e-23)
(1.06772 0.269794 3.78759e-23)
(0.274551 0.194332 -3.21787e-23)
(0.606403 0.419549 5.12366e-22)
(0.814449 0.527154 0)
(0.929772 0.549149 -1.01665e-22)
(0.989071 0.519408 5.05387e-25)
(1.01705 0.466801 2.38399e-22)
(1.03096 0.409026 3.07398e-23)
(1.03954 0.354883 -2.25186e-22)
(1.04686 0.307039 0)
(1.05215 0.267516 -4.10424e-22)
(0.267135 0.203428 -2.01878e-22)
(0.588045 0.432875 -1.67368e-23)
(0.78973 0.537133 -3.49402e-24)
(0.902073 0.554456 2.92395e-24)
(0.961453 0.520692 2.92518e-22)
(0.991272 0.465636 -2.38401e-22)
(1.00782 0.406659 -3.34484e-22)
(1.01912 0.352073 -3.05875e-22)
(1.02883 0.304193 -5.36974e-22)
(1.03655 0.264287 3.5845e-22)
(0.258444 0.211378 2.21814e-22)
(0.567642 0.44377 0)
(0.763214 0.544324 -1.08348e-22)
(0.873117 0.557128 9.37386e-24)
(0.933121 0.519756 -7.21747e-22)
(0.965168 0.462683 0)
(0.984586 0.402863 3.34486e-22)
(0.998705 0.348112 -5.30465e-23)
(1.01074 0.300375 6.09751e-22)
(1.02097 0.260063 -6.12629e-23)
(0.248569 0.218054 0)
(0.545428 0.452085 -1.40525e-22)
(0.735165 0.548622 9.71474e-23)
(0.843153 0.557116 0)
(0.904279 0.516581 4.2923e-22)
(0.938892 0.457935 0)
(0.96137 0.397636 -4.78873e-22)
(0.97837 0.343001 3.58926e-22)
(0.99266 0.295578 6.94577e-22)
(1.00555 0.254798 5.73653e-22)
(0.237622 0.223344 3.70431e-23)
(0.52165 0.45769 1.09426e-22)
(0.705859 0.549946 0)
(0.812436 0.554387 0)
(0.87513 0.511159 0)
(0.912597 0.451394 7.48221e-23)
(0.938289 0.390981 3.51354e-22)
(0.958208 0.336749 5.43946e-23)
(0.974754 0.289834 -6.94581e-22)
(0.990411 0.248618 -6.45553e-22)
(0.22573 0.22715 0)
(0.496565 0.460477 4.68612e-22)
(0.675577 0.548237 0)
(0.781216 0.548924 0)
(0.845872 0.503496 0)
(0.886432 0.443067 -8.62428e-23)
(0.915453 0.382904 7.65508e-22)
(0.93833 0.329361 -1.82569e-22)
(0.957302 0.283228 -6.44065e-22)
(0.975544 0.241559 -6.71765e-22)
(0.213034 0.22939 0)
(0.470441 0.460363 -4.68613e-22)
(0.644602 0.543462 6.04139e-22)
(0.749743 0.540729 0)
(0.8167 0.493607 9.69929e-22)
(0.860543 0.43297 0)
(0.892972 0.373415 -6.20112e-22)
(0.91886 0.320811 5.64564e-22)
(0.940461 0.275741 8.44738e-22)
(0.961301 0.23517 6.73285e-22)
(0.199683 0.229998 -1.10501e-21)
(0.443553 0.457291 0)
(0.613219 0.535608 -5.18478e-22)
(0.718262 0.52982 -7.16876e-23)
(0.787806 0.481518 -2.07014e-21)
(0.835073 0.421128 0)
(0.870949 0.362533 7.55781e-22)
(0.899853 0.311117 4.84909e-23)
(0.924056 0.267254 8.72201e-22)
(0.947008 0.228173 8.76974e-25)
(0.185835 0.228925 1.17596e-21)
(0.41618 0.451231 -5.9564e-23)
(0.581712 0.524685 -1.00158e-22)
(0.687017 0.516232 -8.38172e-23)
(0.759374 0.46727 1.10021e-21)
(0.81016 0.407574 -1.0109e-21)
(0.849492 0.350281 -7.55785e-22)
(0.88139 0.300304 -6.13062e-22)
(0.908151 0.257816 -9.87905e-22)
(0.933036 0.220329 9.33173e-22)
(0.171655 0.226138 -8.37106e-23)
(0.388607 0.442178 -1.0443e-21)
(0.550362 0.510728 0)
(0.656242 0.500016 7.13737e-22)
(0.731585 0.450911 8.04841e-23)
(0.785939 0.392348 1.01091e-21)
(0.828703 0.336691 -1.04202e-22)
(0.863553 0.288397 -6.17519e-22)
(0.89282 0.247465 0)
(0.91954 0.211654 -8.30882e-22)
(0.157308 0.221625 1.02733e-22)
(0.361113 0.430157 1.11458e-21)
(0.519444 0.493793 0)
(0.626165 0.481239 -2.29409e-23)
(0.704614 0.432503 8.87282e-23)
(0.762541 0.375499 0)
(0.808682 0.321798 9.43642e-22)
(0.846419 0.275423 7.05147e-22)
(0.878125 0.236225 1.39426e-22)
(0.906602 0.202186 -1.17433e-22)
(0.142965 0.215389 0)
(0.333979 0.415215 1.58493e-21)
(0.489228 0.473958 -1.41621e-22)
(0.597008 0.459983 7.95371e-23)
(0.678626 0.412119 7.90989e-22)
(0.740091 0.357086 1.41211e-21)
(0.789526 0.305648 -1.06889e-21)
(0.830063 0.261415 0)
(0.864122 0.224122 0)
(0.894291 0.191948 0)
(0.128793 0.207455 -8.03492e-24)
(0.307476 0.397428 -1.32959e-21)
(0.459973 0.45132 1.56045e-22)
(0.56898 0.436347 -1.09673e-21)
(0.653781 0.389841 -6.86784e-22)
(0.718708 0.337173 2.34313e-22)
(0.771326 0.28829 -1.06337e-21)
(0.814558 0.246413 7.23484e-22)
(0.850869 0.211187 8.02903e-22)
(0.882663 0.180966 -6.35936e-22)
(0.11496 0.197861 -1.03013e-21)
(0.28187 0.376895 -1.09871e-22)
(0.431926 0.426 1.4049e-21)
(0.542284 0.410443 1.11931e-21)
(0.630231 0.365764 0)
(0.698506 0.315835 -1.33908e-21)
(0.75417 0.269783 -5.08843e-23)
(0.799969 0.230464 -9.30716e-22)
(0.838418 0.197457 -5.63224e-22)
(0.871764 0.169276 5.06661e-22)
(0.101628 0.186668 2.40757e-21)
(0.257414 0.35374 0)
(0.405325 0.398136 -2.9037e-21)
(0.517108 0.382398 -9.78377e-22)
(0.608117 0.33999 -1.18064e-22)
(0.679591 0.293153 0)
(0.73814 0.250192 1.10608e-21)
(0.78636 0.21362 -8.98562e-22)
(0.826818 0.182977 -7.00004e-22)
(0.861637 0.156917 5.44315e-22)
(0.0889525 0.17395 -1.24657e-21)
(0.23435 0.328108 -9.66661e-22)
(0.380391 0.367883 1.68659e-21)
(0.49363 0.352351 -1.5715e-22)
(0.587573 0.312633 0)
(0.662064 0.269216 0)
(0.72331 0.229587 0)
(0.773791 0.195939 1.82819e-21)
(0.816116 0.167793 7.00006e-22)
(0.852316 0.143936 -5.44315e-22)
(0.077082 0.159799 -1.23856e-21)
(0.212903 0.300166 9.55419e-22)
(0.357331 0.335415 1.02904e-22)
(0.472013 0.320453 0)
(0.56872 0.283814 -1.02542e-21)
(0.646015 0.244121 -7.02529e-22)
(0.709754 0.208046 -7.93675e-23)
(0.762315 0.177485 1.41884e-22)
(0.806356 0.151959 -1.83956e-22)
(0.843834 0.130381 7.43049e-23)
(0.0661549 0.144322 1.39851e-21)
(0.193284 0.270102 -1.29054e-22)
(0.336336 0.300922 -1.07903e-21)
(0.452408 0.286868 2.47583e-22)
(0.55167 0.253664 7.64362e-22)
(0.63153 0.217971 1.00021e-21)
(0.697534 0.185651 -8.19367e-23)
(0.751984 0.158324 -4.6632e-22)
(0.797576 0.13553 0)
(0.836219 0.116304 7.06672e-23)
(0.0562985 0.12764 9.34125e-23)
(0.175681 0.238121 0)
(0.317576 0.264606 -3.13038e-23)
(0.434949 0.251768 0)
(0.536526 0.222321 -1.09188e-21)
(0.618685 0.190874 8.43799e-22)
(0.686711 0.16249 0)
(0.742842 0.138531 1.10325e-23)
(0.789812 0.118569 0)
(0.829499 0.10176 0)
(0.0476273 0.109887 1.87574e-22)
(0.160266 0.204444 -1.22268e-21)
(0.301205 0.226684 1.00966e-21)
(0.419757 0.215338 -1.78083e-22)
(0.523375 0.189929 4.71407e-22)
(0.607547 0.162946 1.30308e-22)
(0.677335 0.138656 0)
(0.734929 0.118181 -3.80589e-22)
(0.783096 0.101139 -1.0268e-22)
(0.823694 0.0868078 -3.05482e-22)
(0.0402422 0.0912067 8.05877e-22)
(0.147188 0.169308 -1.80616e-21)
(0.287356 0.187384 1.7294e-22)
(0.406936 0.177766 -7.40292e-22)
(0.512297 0.156639 -8.44902e-23)
(0.598174 0.134306 -8.62484e-22)
(0.669451 0.114245 0)
(0.728281 0.0973547 5.19732e-22)
(0.777456 0.0833064 -9.56815e-23)
(0.818826 0.0715064 6.95658e-22)
(0.0342287 0.0717548 -8.05877e-22)
(0.136571 0.13296 6.61308e-22)
(0.27614 0.146942 -1.18834e-22)
(0.396573 0.139252 8.71033e-22)
(0.503355 0.122608 4.9534e-22)
(0.590616 0.105077 5.3098e-23)
(0.663098 0.0893573 -4.45921e-23)
(0.722926 0.0761337 -5.82516e-22)
(0.772915 0.0651422 4.43715e-24)
(0.814912 0.055917 -2.31317e-22)
(0.0296567 0.051694 4.16755e-22)
(0.128519 0.0956592 0)
(0.267648 0.105604 4.89142e-22)
(0.388739 0.0999976 0)
(0.496602 0.0879954 6.99318e-23)
(0.584913 0.0753868 -5.86535e-23)
(0.658307 0.0640957 0)
(0.718889 0.0546036 0)
(0.769492 0.0467175 0)
(0.811963 0.0401025 0)
(0.0265789 0.0311935 -3.65976e-22)
(0.123107 0.0576718 -1.32763e-22)
(0.261949 0.0636214 -4.89142e-22)
(0.383486 0.0602121 0)
(0.492078 0.052965 0)
(0.581094 0.0453652 2.70506e-23)
(0.655099 0.0385653 -1.09455e-22)
(0.716188 0.0328514 -1.33202e-22)
(0.767202 0.0281057 -1.27123e-22)
(0.809992 0.0241264 2.07038e-23)
(0.025031 0.0104275 -6.58444e-24)
(0.120388 0.0192701 1.43969e-22)
(0.259088 0.0212504 -6.97501e-24)
(0.380851 0.0201063 2.39162e-23)
(0.489809 0.017683 -9.61365e-24)
(0.57918 0.015144 0)
(0.653492 0.0128731 8.67374e-23)
(0.714834 0.0109654 1.33202e-22)
(0.766055 0.0093811 9.63762e-23)
(0.809005 0.00805294 1.47126e-23)
(0.025031 -0.0104275 -6.58444e-24)
(0.120388 -0.0192701 1.43969e-22)
(0.259088 -0.0212504 -6.97501e-24)
(0.380851 -0.0201063 2.39162e-23)
(0.489809 -0.017683 -9.61365e-24)
(0.57918 -0.015144 0)
(0.653492 -0.0128731 7.63223e-23)
(0.714834 -0.0109654 1.4196e-22)
(0.766055 -0.0093811 1.0254e-22)
(0.809005 -0.00805294 0)
(0.0265789 -0.0311935 -4.67533e-22)
(0.123107 -0.0576718 -1.74045e-22)
(0.261949 -0.0636214 -5.18727e-22)
(0.383486 -0.0602121 2.47585e-23)
(0.492078 -0.052965 0)
(0.581094 -0.0453652 -2.70506e-23)
(0.655099 -0.0385653 -6.402e-23)
(0.716188 -0.0328514 -1.33202e-22)
(0.767202 -0.0281057 -7.79579e-23)
(0.809992 -0.0241264 -2.07038e-23)
(0.0296567 -0.051694 4.16755e-22)
(0.128519 -0.0956592 0)
(0.267648 -0.105604 4.89142e-22)
(0.388739 -0.0999976 0)
(0.496602 -0.0879954 6.99318e-23)
(0.584913 -0.0753868 -5.86535e-23)
(0.658307 -0.0640957 0)
(0.718889 -0.0546036 0)
(0.769492 -0.0467175 0)
(0.811963 -0.0401025 0)
(0.0342287 -0.0717548 -8.05877e-22)
(0.136571 -0.13296 5.15162e-22)
(0.27614 -0.146942 1.18834e-22)
(0.396573 -0.139252 5.9568e-22)
(0.503355 -0.122608 6.45072e-22)
(0.590616 -0.105077 -5.3098e-23)
(0.663098 -0.0893573 4.45921e-23)
(0.722926 -0.0761337 -4.56948e-22)
(0.772915 -0.0651422 -4.43715e-24)
(0.814912 -0.0559171 -3.87863e-22)
(0.0402422 -0.0912067 8.05877e-22)
(0.147188 -0.169308 6.29693e-22)
(0.287356 -0.187384 -1.7294e-22)
(0.406936 -0.177766 -7.26419e-22)
(0.512297 -0.156639 6.25438e-23)
(0.598174 -0.134306 -8.62484e-22)
(0.669451 -0.114245 0)
(0.728281 -0.0973547 5.19732e-22)
(0.777456 -0.0833064 9.56815e-23)
(0.818826 -0.0715064 5.34486e-22)
(0.0476273 -0.109887 -1.87574e-22)
(0.160266 -0.204444 1.22268e-21)
(0.301205 -0.226684 7.8902e-22)
(0.419757 -0.215338 1.78083e-22)
(0.523375 -0.189929 5.93897e-22)
(0.607547 -0.162946 -1.95571e-22)
(0.677335 -0.138656 8.61866e-23)
(0.734929 -0.118181 -6.24485e-22)
(0.783096 -0.101139 1.0268e-22)
(0.823694 -0.0868078 -3.05482e-22)
(0.0562985 -0.12764 -9.34125e-23)
(0.175681 -0.238121 0)
(0.317576 -0.264606 -3.13038e-23)
(0.434949 -0.251768 0)
(0.536526 -0.222321 -1.09188e-21)
(0.618685 -0.190874 8.43799e-22)
(0.686711 -0.16249 0)
(0.742842 -0.138531 1.10325e-23)
(0.789812 -0.118569 0)
(0.829499 -0.10176 0)
(0.0661549 -0.144322 1.39851e-21)
(0.193284 -0.270102 1.29054e-22)
(0.336336 -0.300922 -7.60105e-22)
(0.452408 -0.286868 -1.61325e-22)
(0.55167 -0.253664 1.28648e-21)
(0.63153 -0.217971 5.93865e-22)
(0.697534 -0.185651 8.19367e-23)
(0.751984 -0.158324 -5.83128e-22)
(0.797576 -0.13553 9.83525e-23)
(0.836219 -0.116304 -7.06672e-23)
(0.077082 -0.159799 -1.55847e-21)
(0.212903 -0.300166 9.77906e-22)
(0.357331 -0.335415 9.45215e-23)
(0.472013 -0.320453 -1.65217e-22)
(0.56872 -0.283814 -1.02542e-21)
(0.646015 -0.244121 -8.91543e-22)
(0.709754 -0.208046 7.93675e-23)
(0.762315 -0.177485 -8.55103e-23)
(0.806356 -0.151959 1.83956e-22)
(0.843834 -0.130381 -7.43049e-23)
(0.0889525 -0.17395 -1.24657e-21)
(0.23435 -0.328108 -9.66661e-22)
(0.380391 -0.367883 1.31102e-21)
(0.49363 -0.352351 1.5715e-22)
(0.587573 -0.312633 0)
(0.662064 -0.269216 0)
(0.72331 -0.229587 0)
(0.773791 -0.195939 1.82819e-21)
(0.816116 -0.167793 7.00006e-22)
(0.852316 -0.143936 -5.44315e-22)
(0.101628 -0.186668 2.40757e-21)
(0.257414 -0.35374 0)
(0.405325 -0.398136 -2.9037e-21)
(0.517108 -0.382398 -1.11931e-21)
(0.608117 -0.33999 0)
(0.679591 -0.293153 0)
(0.73814 -0.250192 1.10608e-21)
(0.78636 -0.21362 -8.98562e-22)
(0.826818 -0.182977 -7.00004e-22)
(0.861637 -0.156917 5.44315e-22)
(0.11496 -0.197861 -1.29187e-21)
(0.28187 -0.376895 1.09871e-22)
(0.431926 -0.426 1.4049e-21)
(0.542284 -0.410443 1.25224e-21)
(0.630231 -0.365764 -1.11359e-22)
(0.698506 -0.315835 -1.33908e-21)
(0.75417 -0.269783 -5.08843e-23)
(0.799969 -0.230464 -7.25983e-22)
(0.838418 -0.197457 -7.3561e-22)
(0.871764 -0.169276 5.06661e-22)
(0.128793 -0.207455 8.03492e-24)
(0.307476 -0.397428 -1.50158e-21)
(0.459973 -0.45132 -1.56045e-22)
(0.56898 -0.436347 -8.47942e-22)
(0.653781 -0.389841 -6.95542e-22)
(0.718708 -0.337173 -2.49592e-22)
(0.771326 -0.28829 -1.04701e-21)
(0.814558 -0.246413 9.33209e-22)
(0.850869 -0.211187 4.95926e-22)
(0.882663 -0.180966 -3.77386e-22)
(0.142965 -0.215389 0)
(0.333979 -0.415215 1.24624e-21)
(0.489228 -0.473958 1.41621e-22)
(0.597008 -0.459983 7.95371e-23)
(0.678626 -0.412119 7.90989e-22)
(0.740091 -0.357086 1.11384e-21)
(0.789526 -0.305648 -9.36612e-22)
(0.830063 -0.261415 9.94023e-23)
(0.864122 -0.224122 0)
(0.894291 -0.191948 0)