/*--------------------------------*- C++ -*----------------------------------*\
  =========                 |
  \\      /  F ield         | OpenFOAM: The Open Source CFD Toolbox
   \\    /   O peration     | Website:  https://openfoam.org
    \\  /    A nd           | Version:  7
     \\/     M anipulation  |
\*---------------------------------------------------------------------------*/
FoamFile
{
    version     2.0;
    format      ascii;
    class       volVectorField;
    location    "3.5";
    object      U;
}
// * * * * * * * * * * * * * * * * * * * * * * * * * * * * * * * * * * * * * //

dimensions      [0 1 -1 0 0 0 0];

internalField   nonuniform List<vector> 
64512
(
(3 9.58089e-17 0)
(3 2.3434e-16 0)
(3 2.6481e-16 0)
(3 -7.9764e-17 0)
(3 -6.02895e-16 0)
(3 -5.55247e-16 0)
(3 -2.83071e-16 0)
(3 -1.92268e-16 0)
(3 1.23803e-16 0)
(3 3.56038e-16 0)
(3 -1.83559e-16 0)
(3 -4.15219e-16 0)
(3 -4.02755e-16 0)
(3 -7.25648e-17 0)
(3 3.6387e-16 0)
(3 7.12555e-16 0)
(3 1.33854e-15 0)
(3 1.13456e-15 0)
(3 9.39603e-16 0)
(3 1.20078e-15 0)
(3 1.13317e-15 0)
(3 6.9664e-16 0)
(3 6.75021e-16 0)
(3 5.27917e-16 0)
(3 6.67201e-16 0)
(3 1.13438e-15 0)
(3 8.06492e-16 0)
(3 -2.75464e-16 0)
(3 -1.05358e-15 0)
(3 -5.77064e-16 0)
(3 -1.05683e-16 0)
(3 -4.81019e-17 0)
(3 2.54612e-16 0)
(3 1.04829e-15 0)
(3 1.93276e-15 0)
(3 1.31481e-15 0)
(3 6.52656e-16 0)
(3 3.08068e-16 0)
(3 1.56864e-16 0)
(3 1.12467e-16 0)
(3 2.2758e-16 0)
(3 -2.64261e-16 0)
(3 -9.84121e-16 0)
(3 -1.43069e-15 0)
(3 -5.97983e-16 0)
(3 -9.59544e-17 0)
(3 -1.53631e-16 0)
(3 -3.26818e-16 0)
(3 -1.36244e-15 0)
(1.11737 0.00457086 0)
(0.766404 0.00455462 0)
(0.74893 0.00510588 0)
(0.735361 0.0056793 0)
(0.72008 0.00605239 0)
(0.704594 0.00652942 0)
(0.688565 0.00689803 0)
(0.67244 0.00694287 0)
(0.656756 0.00659347 0)
(0.641867 0.00614783 0)
(0.627563 0.00592032 0)
(0.613384 0.00598135 0)
(0.598943 0.00629214 0)
(0.583976 0.00676319 0)
(0.568399 0.00720194 0)
(0.552512 0.00731635 0)
(0.536978 0.00701527 0)
(0.522198 0.00665149 0)
(0.507807 0.00662312 0)
(0.493013 0.00698486 0)
(0.477265 0.00744838 0)
(0.460845 0.00755116 0)
(0.444638 0.00730751 0)
(0.428928 0.00725477 0)
(0.413222 0.00751549 0)
(0.397183 0.00771394 0)
(0.380929 0.00772759 0)
(0.36444 0.00774869 0)
(0.347561 0.00784981 0)
(0.330334 0.00796932 0)
(0.313063 0.00810109 0)
(0.296069 0.00825615 0)
(0.279503 0.00840385 0)
(0.26329 0.00851545 0)
(0.247134 0.00860505 0)
(0.230627 0.00869856 0)
(0.213406 0.00881185 0)
(0.195305 0.00895213 0)
(0.176381 0.00913094 0)
(0.156824 0.00935494 0)
(0.136808 0.00961599 0)
(0.116425 0.00989453 0)
(0.0956975 0.0101715 0)
(0.0746563 0.0104261 0)
(0.0533596 0.0106602 0)
(0.0319495 0.010749 0)
(0.0108031 0.0108319 0)
(3 2.38739e-16 0)
(3 7.11806e-16 0)
(3 5.66875e-16 0)
(3 1.64179e-16 0)
(3 -4.5977e-16 0)
(3 -1.4599e-16 0)
(3 1.66391e-16 0)
(3 5.512e-16 0)
(3 5.03529e-16 0)
(3 3.04241e-16 0)
(3 -2.23338e-16 0)
(3 -1.00402e-15 0)
(3 -1.53845e-15 0)
(3 -1.03773e-15 0)
(3 -4.00496e-16 0)
(3 2.57833e-16 0)
(3 5.84033e-16 0)
(3 7.9247e-16 0)
(3 9.7273e-16 0)
(3 2.11618e-15 0)
(3 2.9001e-15 0)
(3 2.14815e-15 0)
(3 1.47211e-15 0)
(3 1.10264e-15 0)
(3 8.88521e-16 0)
(3 2.15388e-15 0)
(3 1.82843e-15 0)
(3 -2.01058e-16 0)
(3 -1.23965e-15 0)
(3 -7.38264e-16 0)
(3 1.00722e-15 0)
(3 1.25495e-15 0)
(3 1.44853e-15 0)
(3 2.27943e-15 0)
(3 2.4977e-15 0)
(3 1.93228e-15 0)
(3 8.28873e-16 0)
(3 6.33525e-17 0)
(3 3.1754e-16 0)
(3 2.67593e-16 0)
(3 1.31036e-17 0)
(3 -1.02359e-15 0)
(3 -1.60577e-15 0)
(3 -1.3358e-15 0)
(3 -3.34381e-16 0)
(3 2.53888e-16 0)
(3 2.60885e-16 0)
(3 -6.12416e-17 0)
(3 -4.94704e-16 0)
(1.12333 0.0201929 0)
(0.764307 0.017701 0)
(0.745517 0.0145123 0)
(0.732142 0.016203 0)
(0.717018 0.0173904 0)
(0.701769 0.0189253 0)
(0.685979 0.0201518 0)
(0.670023 0.0204901 0)
(0.654334 0.0196466 0)
(0.639284 0.0182989 0)
(0.624785 0.0174621 0)
(0.610478 0.0175249 0)
(0.596007 0.0184151 0)
(0.581107 0.0198388 0)
(0.565663 0.0211966 0)
(0.549885 0.021635 0)
(0.53437 0.0208603 0)
(0.519466 0.0198163 0)
(0.504867 0.019683 0)
(0.489945 0.0207188 0)
(0.47419 0.0220914 0)
(0.457828 0.0224019 0)
(0.441696 0.0217105 0)
(0.425968 0.0215655 0)
(0.410201 0.022361 0)
(0.394066 0.022981 0)
(0.377727 0.0230363 0)
(0.361214 0.0230864 0)
(0.344382 0.023349 0)
(0.327248 0.0236642 0)
(0.310068 0.0240484 0)
(0.293128 0.0245448 0)
(0.27658 0.0250433 0)
(0.26038 0.025434 0)
(0.244277 0.0257457 0)
(0.22789 0.026055 0)
(0.210864 0.026415 0)
(0.193023 0.0268528 0)
(0.17441 0.0274042 0)
(0.155195 0.0280882 0)
(0.135535 0.0288831 0)
(0.115506 0.0297368 0)
(0.0951112 0.0306029 0)
(0.0743553 0.0314243 0)
(0.0532714 0.0322013 0)
(0.0319783 0.0325472 0)
(0.0108466 0.0329024 0)
(3 7.13523e-17 0)
(3 2.57233e-16 0)
(3 7.17542e-17 0)
(3 -8.2684e-17 0)
(3 1.5764e-17 0)
(3 4.16445e-16 0)
(3 3.47541e-16 0)
(3 4.65944e-16 0)
(3 1.30607e-16 0)
(3 -5.61525e-17 0)
(3 -4.9283e-17 0)
(3 -4.42477e-16 0)
(3 -8.44729e-16 0)
(3 -9.13897e-16 0)
(3 -9.87453e-16 0)
(3 -6.53133e-16 0)
(3 -3.04629e-16 0)
(3 9.22743e-17 0)
(3 4.23757e-16 0)
(3 1.11145e-15 0)
(3 1.6339e-15 0)
(3 2.07262e-15 0)
(3 1.84422e-15 0)
(3 1.09773e-15 0)
(3 1.42817e-15 0)
(3 1.67209e-15 0)
(3 1.36886e-15 0)
(3 8.02657e-16 0)
(3 -1.03103e-15 0)
(3 -2.06931e-15 0)
(3 -1.45057e-15 0)
(3 1.46698e-15 0)
(3 1.80668e-15 0)
(3 1.34513e-15 0)
(3 1.04258e-15 0)
(3 6.64571e-16 0)
(3 1.87221e-16 0)
(3 4.4251e-16 0)
(3 4.33796e-16 0)
(3 4.32414e-16 0)
(3 -2.55195e-16 0)
(3 -9.01976e-16 0)
(3 -1.3061e-15 0)
(3 -1.04581e-15 0)
(3 -1.82761e-15 0)
(3 -2.26496e-15 0)
(3 -1.0663e-15 0)
(3 -1.23648e-16 0)
(3 -2.32655e-16 0)
(1.14073 0.0346364 0)
(0.766615 0.0306083 0)
(0.746347 0.0250881 0)
(0.732262 0.0271919 0)
(0.716983 0.0290538 0)
(0.701788 0.0314599 0)
(0.686147 0.0334497 0)
(0.670318 0.0341563 0)
(0.654575 0.0330829 0)
(0.639248 0.0310653 0)
(0.624346 0.0296577 0)
(0.609674 0.0296214 0)
(0.594973 0.0309289 0)
(0.580023 0.0331461 0)
(0.564661 0.0353181 0)
(0.548977 0.0360887 0)
(0.533492 0.0349678 0)
(0.518455 0.0333589 0)
(0.503558 0.0331146 0)
(0.488397 0.0347272 0)
(0.472532 0.0369144 0)
(0.456112 0.0374405 0)
(0.439972 0.0363694 0)
(0.424149 0.0361447 0)
(0.408258 0.0374055 0)
(0.391935 0.0383859 0)
(0.37538 0.0384694 0)
(0.358688 0.0385775 0)
(0.341748 0.0390435 0)
(0.324552 0.039572 0)
(0.307302 0.040175 0)
(0.290231 0.0409331 0)
(0.273482 0.0416835 0)
(0.257053 0.0422582 0)
(0.240759 0.042713 0)
(0.224273 0.0431754 0)
(0.207265 0.0437275 0)
(0.18956 0.0444058 0)
(0.17119 0.0452683 0)
(0.152305 0.0463539 0)
(0.133044 0.0476405 0)
(0.113465 0.0490542 0)
(0.0935456 0.0505283 0)
(0.0732556 0.0519666 0)
(0.0525959 0.0533566 0)
(0.0316428 0.0540381 0)
(0.0107672 0.054767 0)
(3 -9.07563e-17 0)
(3 -3.68883e-16 0)
(3 -2.13181e-16 0)
(3 -1.66243e-17 0)
(3 3.11802e-16 0)
(3 3.92694e-16 0)
(3 2.33079e-16 0)
(3 -3.82535e-16 0)
(3 -2.91431e-16 0)
(3 -2.63127e-16 0)
(3 -5.01935e-16 0)
(3 2.5022e-16 0)
(3 4.21209e-16 0)
(3 4.61808e-16 0)
(3 2.9621e-16 0)
(3 8.21859e-16 0)
(3 7.86849e-16 0)
(3 7.49318e-16 0)
(3 1.87752e-17 0)
(3 -2.48831e-16 0)
(3 4.27053e-16 0)
(3 1.42486e-15 0)
(3 1.15066e-15 0)
(3 6.1072e-16 0)
(3 4.66437e-16 0)
(3 3.1993e-16 0)
(3 6.71444e-16 0)
(3 3.36893e-16 0)
(3 -1.07141e-15 0)
(3 -1.59008e-15 0)
(3 -1.19182e-15 0)
(3 2.53057e-16 0)
(3 1.05191e-15 0)
(3 3.90181e-16 0)
(3 1.2064e-17 0)
(3 3.95547e-16 0)
(3 9.55674e-16 0)
(3 7.27668e-16 0)
(3 2.46338e-16 0)
(3 4.01367e-16 0)
(3 3.10217e-16 0)
(3 7.38649e-16 0)
(3 1.872e-16 0)
(3 -1.70792e-15 0)
(3 -1.96751e-15 0)
(3 -1.80827e-15 0)
(3 -1.11697e-15 0)
(3 -7.49967e-17 0)
(3 -1.19557e-15 0)
(1.16539 0.0485032 0)
(0.768076 0.0438552 0)
(0.746804 0.0358906 0)
(0.732569 0.038006 0)
(0.717565 0.040387 0)
(0.702748 0.0435402 0)
(0.687514 0.0462498 0)
(0.672003 0.047442 0)
(0.656341 0.0464381 0)
(0.64086 0.0440194 0)
(0.625689 0.0420753 0)
(0.61079 0.0418546 0)
(0.596002 0.0434514 0)
(0.581138 0.0463213 0)
(0.565976 0.0492067 0)
(0.550447 0.0503386 0)
(0.535004 0.0490426 0)
(0.519841 0.0470285 0)
(0.504668 0.046717 0)
(0.489309 0.0488544 0)
(0.473385 0.0517875 0)
(0.456908 0.0525573 0)
(0.440719 0.0511942 0)
(0.424737 0.050928 0)
(0.408686 0.0526327 0)
(0.392157 0.0539873 0)
(0.375367 0.0541541 0)
(0.358468 0.0543847 0)
(0.341371 0.0551053 0)
(0.324035 0.0558768 0)
(0.306601 0.0567067 0)
(0.289253 0.0577182 0)
(0.27212 0.0587015 0)
(0.255242 0.0594333 0)
(0.238509 0.0599921 0)
(0.221659 0.0605508 0)
(0.204402 0.0612151 0)
(0.186573 0.0620276 0)
(0.168201 0.0630722 0)
(0.149431 0.0644224 0)
(0.130397 0.0660782 0)
(0.111153 0.0679635 0)
(0.0916611 0.0700076 0)
(0.0718512 0.0720743 0)
(0.0516826 0.0741293 0)
(0.0311528 0.0752211 0)
(0.0106368 0.0764237 0)
(3 -2.52369e-17 0)
(3 1.63045e-16 0)
(3 7.82959e-16 0)
(3 8.09607e-16 0)
(3 2.76698e-16 0)
(3 1.76634e-16 0)
(3 2.03111e-17 0)
(3 6.58732e-18 0)
(3 -1.24447e-16 0)
(3 1.35644e-18 0)
(3 8.61671e-17 0)
(3 6.91374e-17 0)
(3 3.61304e-18 0)
(3 7.87084e-17 0)
(3 -2.67628e-17 0)
(3 6.96294e-16 0)
(3 1.20494e-15 0)
(3 7.81182e-16 0)
(3 6.14996e-16 0)
(3 7.70602e-16 0)
(3 1.06453e-15 0)
(3 9.94255e-16 0)
(3 1.06801e-15 0)
(3 1.10047e-15 0)
(3 8.03521e-16 0)
(3 -2.45954e-16 0)
(3 -7.0146e-16 0)
(3 -1.42697e-15 0)
(3 -1.92902e-15 0)
(3 -1.68878e-15 0)
(3 -5.41367e-16 0)
(3 -1.58102e-16 0)
(3 1.15033e-16 0)
(3 6.98958e-16 0)
(3 9.50418e-16 0)
(3 8.0989e-16 0)
(3 3.3792e-16 0)
(3 2.32827e-16 0)
(3 1.20408e-16 0)
(3 -1.3479e-16 0)
(3 2.50381e-16 0)
(3 1.62202e-15 0)
(3 9.83444e-16 0)
(3 -3.88182e-16 0)
(3 -8.36367e-16 0)
(3 -8.05691e-16 0)
(3 -1.46657e-15 0)
(3 -1.87435e-15 0)
(3 -2.63315e-16 0)
(1.19868 0.0628518 0)
(0.769519 0.0574173 0)
(0.746734 0.0470937 0)
(0.732238 0.0487741 0)
(0.717477 0.0515037 0)
(0.702992 0.055326 0)
(0.688109 0.0587454 0)
(0.672858 0.0605607 0)
(0.657205 0.0599074 0)
(0.641507 0.057322 0)
(0.62604 0.0548414 0)
(0.610919 0.0542794 0)
(0.596106 0.0559861 0)
(0.58145 0.0593543 0)
(0.566626 0.06287 0)
(0.551363 0.0644163 0)
(0.53604 0.063116 0)
(0.52086 0.0608149 0)
(0.505562 0.0604144 0)
(0.490193 0.0629783 0)
(0.474416 0.0665722 0)
(0.458045 0.0676226 0)
(0.441927 0.066052 0)
(0.425903 0.0657497 0)
(0.409846 0.0678519 0)
(0.393299 0.0695966 0)
(0.37646 0.0699169 0)
(0.35952 0.0703468 0)
(0.342406 0.071381 0)
(0.325041 0.0724328 0)
(0.30751 0.0735058 0)
(0.289947 0.0747779 0)
(0.272464 0.0760071 0)
(0.255128 0.0769175 0)
(0.2379 0.0776038 0)
(0.220585 0.0782732 0)
(0.202934 0.0790421 0)
(0.184795 0.0799425 0)
(0.166196 0.0810726 0)
(0.147279 0.082544 0)
(0.128201 0.0844014 0)
(0.109043 0.0865987 0)
(0.0897904 0.0890976 0)
(0.0703506 0.0917341 0)
(0.050646 0.094456 0)
(0.0305565 0.0960022 0)
(0.010466 0.0977455 0)
(3 9.44699e-17 0)
(3 1.87218e-16 0)
(3 4.24596e-16 0)
(3 6.93254e-17 0)
(3 -2.50508e-16 0)
(3 -2.18506e-16 0)
(3 -2.57402e-16 0)
(3 -4.1692e-17 0)
(3 -5.63661e-16 0)
(3 -6.11291e-16 0)
(3 -6.93379e-16 0)
(3 -6.39454e-16 0)
(3 -4.29898e-16 0)
(3 1.44879e-16 0)
(3 4.67231e-16 0)
(3 3.77463e-16 0)
(3 1.20244e-16 0)
(3 -1.29295e-16 0)
(3 1.3726e-15 0)
(3 1.78585e-15 0)
(3 1.64371e-15 0)
(3 8.33162e-16 0)
(3 2.98036e-16 0)
(3 1.48432e-16 0)
(3 1.90218e-16 0)
(3 3.28159e-17 0)
(3 -8.6908e-16 0)
(3 -2.85156e-15 0)
(3 -2.91545e-15 0)
(3 -1.64856e-15 0)
(3 -9.26614e-16 0)
(3 -4.77427e-16 0)
(3 -3.4488e-16 0)
(3 4.51262e-16 0)
(3 1.08046e-15 0)
(3 1.07159e-15 0)
(3 5.05188e-16 0)
(3 1.01811e-17 0)
(3 -1.02433e-15 0)
(3 -1.72741e-15 0)
(3 -7.345e-16 0)
(3 9.0379e-16 0)
(3 1.64613e-15 0)
(3 1.13878e-15 0)
(3 3.92226e-17 0)
(3 -7.33596e-16 0)
(3 -1.2826e-15 0)
(3 -1.74315e-15 0)
(3 -6.53063e-15 0)
(1.24239 0.0776555 0)
(0.771508 0.0713497 0)
(0.746791 0.0588615 0)
(0.731958 0.0596758 0)
(0.717356 0.0625499 0)
(0.703149 0.0668614 0)
(0.688589 0.0710519 0)
(0.673512 0.0735988 0)
(0.657811 0.0734775 0)
(0.641891 0.0709102 0)
(0.626168 0.0678889 0)
(0.610855 0.0668204 0)
(0.596041 0.0684564 0)
(0.58161 0.0721677 0)
(0.567128 0.0762378 0)
(0.55211 0.0782625 0)
(0.536864 0.0771226 0)
(0.521665 0.0746452 0)
(0.506279 0.0741344 0)
(0.490945 0.0770179 0)
(0.475371 0.0811829 0)
(0.459133 0.0825621 0)
(0.443086 0.0808783 0)
(0.427045 0.0805526 0)
(0.411064 0.0830215 0)
(0.394629 0.0851933 0)
(0.377874 0.0857497 0)
(0.361002 0.0864497 0)
(0.343942 0.0878439 0)
(0.326588 0.0892082 0)
(0.308994 0.0905433 0)
(0.291264 0.0920902 0)
(0.27349 0.0935843 0)
(0.25576 0.0946988 0)
(0.238093 0.0955409 0)
(0.220359 0.0963504 0)
(0.202347 0.0972474 0)
(0.183903 0.0982385 0)
(0.165034 0.0994164 0)
(0.145868 0.100918 0)
(0.12658 0.102838 0)
(0.107306 0.105178 0)
(0.0880917 0.107971 0)
(0.0688641 0.111048 0)
(0.0495425 0.11437 0)
(0.0298721 0.116362 0)
(0.0102522 0.118654 0)
(3 -2.0839e-17 0)
(3 -4.84303e-16 0)
(3 -8.29827e-16 0)
(3 -6.15624e-16 0)
(3 -7.71814e-17 0)
(3 -2.58664e-17 0)
(3 -2.25324e-16 0)
(3 -4.30833e-16 0)
(3 -4.02576e-16 0)
(3 -8.32218e-16 0)
(3 -1.13225e-15 0)
(3 -3.03064e-16 0)
(3 1.7249e-16 0)
(3 3.35821e-17 0)
(3 1.62393e-16 0)
(3 -2.73036e-16 0)
(3 -6.43135e-16 0)
(3 6.99942e-17 0)
(3 6.59155e-16 0)
(3 8.78606e-16 0)
(3 6.73584e-16 0)
(3 3.28356e-16 0)
(3 -5.26603e-16 0)
(3 -1.04592e-15 0)
(3 -8.04691e-16 0)
(3 -1.38602e-16 0)
(3 -4.25565e-16 0)
(3 -1.61078e-15 0)
(3 -1.78478e-15 0)
(3 -1.48416e-15 0)
(3 -6.95107e-16 0)
(3 -2.66947e-16 0)
(3 3.95261e-18 0)
(3 -2.50841e-17 0)
(3 6.29824e-16 0)
(3 7.72936e-16 0)
(3 5.65106e-16 0)
(3 -7.23427e-17 0)
(3 -2.75638e-16 0)
(3 -6.36944e-16 0)
(3 -4.50012e-16 0)
(3 1.05802e-16 0)
(3 1.84057e-16 0)
(3 5.23491e-16 0)
(3 -1.52285e-16 0)
(3 -1.02763e-16 0)
(3 7.40849e-16 0)
(3 1.8616e-16 0)
(3 -3.55433e-15 0)
(1.29796 0.0926423 0)
(0.774519 0.0853925 0)
(0.747144 0.0714015 0)
(0.73179 0.0709678 0)
(0.717108 0.0736838 0)
(0.703102 0.0783152 0)
(0.68896 0.0831696 0)
(0.674206 0.0866121 0)
(0.658556 0.0872182 0)
(0.642419 0.0848352 0)
(0.626376 0.0812936 0)
(0.610756 0.0795307 0)
(0.595817 0.0808886 0)
(0.58153 0.0847895 0)
(0.567356 0.0893532 0)
(0.552572 0.0919213 0)
(0.537388 0.0910844 0)
(0.522183 0.0885162 0)
(0.506739 0.0878553 0)
(0.491437 0.0909334 0)
(0.476061 0.0955748 0)
(0.459941 0.0973314 0)
(0.443943 0.0956195 0)
(0.427916 0.0952708 0)
(0.412102 0.0980682 0)
(0.395931 0.100697 0)
(0.379419 0.101563 0)
(0.362771 0.102586 0)
(0.345909 0.104372 0)
(0.328697 0.106072 0)
(0.311174 0.107685 0)
(0.293427 0.109525 0)
(0.275527 0.111314 0)
(0.257566 0.112675 0)
(0.23961 0.113721 0)
(0.221594 0.114722 0)
(0.203338 0.115798 0)
(0.184679 0.116921 0)
(0.165583 0.118163 0)
(0.146148 0.119669 0)
(0.126557 0.121582 0)
(0.106998 0.123948 0)
(0.0875921 0.126891 0)
(0.0683065 0.130249 0)
(0.0490915 0.134047 0)
(0.029566 0.136419 0)
(0.0101626 0.139204 0)
(3 5.96331e-17 0)
(3 1.68056e-16 0)
(3 -1.6942e-16 0)
(3 -3.26394e-17 0)
(3 8.41543e-17 0)
(3 3.26167e-17 0)
(3 -2.10952e-16 0)
(3 -9.54035e-16 0)
(3 -7.99238e-16 0)
(3 -3.64085e-16 0)
(3 -9.78946e-17 0)
(3 -8.92281e-17 0)
(3 -9.63001e-17 0)
(3 3.99833e-16 0)
(3 4.37683e-16 0)
(3 3.77595e-16 0)
(3 5.30195e-16 0)
(3 5.65447e-16 0)
(3 -1.53305e-16 0)
(3 -9.36314e-16 0)
(3 -3.11859e-16 0)
(3 -9.23212e-17 0)
(3 4.11959e-17 0)
(3 2.23483e-16 0)
(3 -5.61875e-18 0)
(3 -1.86405e-16 0)
(3 -4.16143e-16 0)
(3 -9.71825e-16 0)
(3 -9.50975e-16 0)
(3 -7.58661e-16 0)
(3 -6.52124e-16 0)
(3 1.33488e-16 0)
(3 5.29265e-16 0)
(3 3.94701e-16 0)
(3 6.99036e-16 0)
(3 6.03276e-16 0)
(3 4.90386e-16 0)
(3 3.577e-16 0)
(3 7.97258e-16 0)
(3 1.47777e-15 0)
(3 1.02704e-15 0)
(3 5.73426e-16 0)
(3 -3.90267e-16 0)
(3 -1.02266e-16 0)
(3 1.97265e-16 0)
(3 2.95931e-16 0)
(3 3.34873e-16 0)
(3 2.60687e-16 0)
(3 -3.38668e-15 0)
(1.36694 0.107416 0)
(0.779225 0.0991517 0)
(0.747797 0.0850065 0)
(0.731783 0.0830749 0)
(0.716607 0.0851586 0)
(0.702561 0.0897373 0)
(0.688838 0.0951538 0)
(0.674616 0.0994593 0)
(0.659321 0.100941 0)
(0.643231 0.0990244 0)
(0.627018 0.0951229 0)
(0.611085 0.0925578 0)
(0.59587 0.093403 0)
(0.581553 0.0972906 0)
(0.567578 0.102255 0)
(0.552992 0.105407 0)
(0.537863 0.104995 0)
(0.522666 0.102412 0)
(0.507183 0.101567 0)
(0.491871 0.104726 0)
(0.476626 0.109772 0)
(0.460544 0.111974 0)
(0.444488 0.11033 0)
(0.428396 0.109954 0)
(0.412682 0.113021 0)
(0.396747 0.116102 0)
(0.380466 0.117314 0)
(0.364048 0.118682 0)
(0.347413 0.120865 0)
(0.330399 0.122906 0)
(0.313044 0.124795 0)
(0.295432 0.126923 0)
(0.277611 0.129016 0)
(0.259654 0.130648 0)
(0.241659 0.131935 0)
(0.223606 0.133176 0)
(0.205333 0.13449 0)
(0.186653 0.135806 0)
(0.167481 0.137162 0)
(0.147877 0.138705 0)
(0.128023 0.140619 0)
(0.108151 0.142987 0)
(0.0884441 0.14603 0)
(0.0689049 0.149587 0)
(0.0495282 0.153792 0)
(0.0298198 0.156508 0)
(0.0102761 0.159749 0)
(3 3.53806e-17 0)
(3 4.26679e-16 0)
(3 7.68094e-16 0)
(3 3.98299e-16 0)
(3 -2.37689e-16 0)
(3 -2.97414e-16 0)
(3 7.37562e-17 0)
(3 1.15256e-16 0)
(3 -6.21103e-17 0)
(3 2.51042e-16 0)
(3 2.50326e-16 0)
(3 9.52886e-17 0)
(3 1.48576e-16 0)
(3 3.30366e-16 0)
(3 4.97352e-16 0)
(3 8.44549e-16 0)
(3 7.3377e-16 0)
(3 6.21353e-16 0)
(3 -2.66134e-16 0)
(3 -8.7062e-16 0)
(3 -1.05462e-15 0)
(3 -1.13798e-15 0)
(3 3.16595e-16 0)
(3 6.07595e-16 0)
(3 1.02606e-16 0)
(3 -6.79701e-16 0)
(3 -3.80773e-16 0)
(3 6.07366e-16 0)
(3 7.8185e-16 0)
(3 1.63704e-16 0)
(3 1.76202e-16 0)
(3 1.84256e-16 0)
(3 5.96435e-16 0)
(3 9.24783e-16 0)
(3 1.86336e-15 0)
(3 1.8391e-15 0)
(3 1.23478e-15 0)
(3 5.42796e-16 0)
(3 5.10691e-16 0)
(3 1.58027e-15 0)
(3 2.13606e-15 0)
(3 1.91502e-15 0)
(3 7.04699e-16 0)
(3 -3.85368e-16 0)
(3 -1.86092e-16 0)
(3 -1.47649e-16 0)
(3 -6.65637e-16 0)
(3 -7.6739e-16 0)
(3 -3.95659e-15 0)
(1.45142 0.121602 0)
(0.786479 0.112279 0)
(0.748676 0.0999748 0)
(0.731946 0.0963189 0)
(0.715943 0.0972972 0)
(0.701526 0.101343 0)
(0.687982 0.106937 0)
(0.674291 0.112027 0)
(0.659546 0.114464 0)
(0.643813 0.113188 0)
(0.627734 0.109207 0)
(0.611732 0.10589 0)
(0.596312 0.10607 0)
(0.58192 0.109753 0)
(0.568122 0.114997 0)
(0.553784 0.118723 0)
(0.538776 0.118817 0)
(0.52366 0.116275 0)
(0.508228 0.11521 0)
(0.492964 0.118368 0)
(0.477901 0.123794 0)
(0.461901 0.126562 0)
(0.445778 0.125131 0)
(0.4296 0.124758 0)
(0.413908 0.128031 0)
(0.398109 0.131528 0)
(0.38193 0.133086 0)
(0.365588 0.134787 0)
(0.349007 0.137355 0)
(0.332007 0.139725 0)
(0.314634 0.14187 0)
(0.29699 0.144269 0)
(0.279113 0.146667 0)
(0.261059 0.148594 0)
(0.242949 0.150167 0)
(0.224803 0.151707 0)
(0.206474 0.153329 0)
(0.187749 0.154908 0)
(0.168503 0.156438 0)
(0.148764 0.158055 0)
(0.128722 0.159985 0)
(0.108643 0.162337 0)
(0.0887615 0.165448 0)
(0.0690933 0.169143 0)
(0.0496786 0.173709 0)
(0.029905 0.176757 0)
(0.0103394 0.180442 0)
(3 1.66774e-17 0)
(3 3.84129e-17 0)
(3 2.9784e-16 0)
(3 3.7002e-16 0)
(3 1.15114e-16 0)
(3 -2.90562e-16 0)
(3 2.45997e-16 0)
(3 1.53811e-15 0)
(3 1.26024e-15 0)
(3 5.54193e-16 0)
(3 7.68182e-17 0)
(3 -3.04484e-16 0)
(3 -5.15063e-16 0)
(3 -1.03071e-15 0)
(3 -5.04524e-16 0)
(3 -6.37683e-16 0)
(3 -1.42794e-15 0)
(3 -7.13138e-16 0)
(3 -2.99635e-16 0)
(3 -7.97023e-18 0)
(3 -5.33752e-16 0)
(3 -1.58199e-17 0)
(3 1.04589e-15 0)
(3 4.07007e-16 0)
(3 -1.09468e-16 0)
(3 -6.40409e-16 0)
(3 2.03891e-16 0)
(3 2.07224e-15 0)
(3 1.95582e-15 0)
(3 1.57873e-15 0)
(3 1.31343e-15 0)
(3 9.82789e-16 0)
(3 1.20815e-15 0)
(3 7.10594e-16 0)
(3 1.00529e-15 0)
(3 9.23178e-16 0)
(3 6.50662e-16 0)
(3 1.13563e-15 0)
(3 1.67401e-15 0)
(3 6.13216e-16 0)
(3 1.80352e-16 0)
(3 2.92986e-16 0)
(3 -2.55967e-16 0)
(3 -6.92913e-16 0)
(3 -8.08586e-16 0)
(3 -8.8178e-16 0)
(3 -1.10248e-15 0)
(3 -1.10211e-15 0)
(3 -1.51646e-15 0)
(1.5544 0.134984 0)
(0.796911 0.124729 0)
(0.749857 0.116343 0)
(0.732326 0.110569 0)
(0.715246 0.110095 0)
(0.700381 0.113329 0)
(0.686724 0.118643 0)
(0.673455 0.124298 0)
(0.659255 0.127637 0)
(0.643918 0.127128 0)
(0.628061 0.123293 0)
(0.612125 0.11936 0)
(0.596574 0.118816 0)
(0.582082 0.122161 0)
(0.568423 0.127582 0)
(0.554346 0.131865 0)
(0.539482 0.132521 0)
(0.524473 0.13006 0)
(0.509161 0.128697 0)
(0.494053 0.131756 0)
(0.479355 0.137553 0)
(0.463668 0.141016 0)
(0.447692 0.139955 0)
(0.431644 0.139623 0)
(0.416145 0.143047 0)
(0.400611 0.14692 0)
(0.384611 0.148831 0)
(0.368378 0.150877 0)
(0.351845 0.153848 0)
(0.334804 0.156576 0)
(0.317318 0.15899 0)
(0.299518 0.161657 0)
(0.281452 0.164367 0)
(0.263169 0.166616 0)
(0.244809 0.168512 0)
(0.22643 0.170394 0)
(0.207903 0.172363 0)
(0.188999 0.174242 0)
(0.169561 0.175973 0)
(0.149602 0.177681 0)
(0.129321 0.179631 0)
(0.109005 0.181943 0)
(0.0889323 0.185076 0)
(0.0691238 0.188827 0)
(0.0496805 0.193687 0)
(0.0298819 0.197036 0)
(0.0103607 0.201144 0)
(3 -1.11406e-16 0)
(3 -4.28539e-16 0)
(3 -3.08533e-16 0)
(3 1.04144e-16 0)
(3 3.50728e-16 0)
(3 2.05952e-16 0)
(3 -1.23501e-16 0)
(3 -3.45271e-16 0)
(3 -2.49778e-16 0)
(3 -6.00075e-16 0)
(3 3.42014e-17 0)
(3 -7.15446e-17 0)
(3 -1.23488e-16 0)
(3 -8.90719e-17 0)
(3 -6.08496e-16 0)
(3 -1.73371e-15 0)
(3 -1.85781e-15 0)
(3 -1.55979e-15 0)
(3 -1.08694e-15 0)
(3 -3.70653e-16 0)
(3 -5.84095e-16 0)
(3 -1.80002e-16 0)
(3 5.43562e-16 0)
(3 7.05477e-16 0)
(3 5.96412e-16 0)
(3 3.57227e-16 0)
(3 4.34947e-16 0)
(3 1.74906e-15 0)
(3 2.04363e-15 0)
(3 2.23778e-15 0)
(3 1.53212e-15 0)
(3 1.10615e-15 0)
(3 9.14676e-16 0)
(3 5.31508e-16 0)
(3 -3.47267e-16 0)
(3 -5.17709e-16 0)
(3 1.75598e-16 0)
(3 1.00756e-15 0)
(3 2.74745e-16 0)
(3 -9.07993e-16 0)
(3 -1.2387e-15 0)
(3 -1.95366e-15 0)
(3 -1.58857e-15 0)
(3 -1.0084e-15 0)
(3 -1.24774e-15 0)
(3 -1.7507e-15 0)
(3 -2.11309e-15 0)
(3 -1.91949e-15 0)
(3 -6.93831e-15 0)
(1.67999 0.147109 0)
(0.810673 0.137158 0)
(0.752031 0.133908 0)
(0.733579 0.125318 0)
(0.715264 0.123205 0)
(0.699871 0.125441 0)
(0.686212 0.130662 0)
(0.673136 0.136514 0)
(0.659369 0.140616 0)
(0.644337 0.140926 0)
(0.628576 0.137401 0)
(0.612599 0.132988 0)
(0.596799 0.131689 0)
(0.582013 0.134586 0)
(0.568282 0.140081 0)
(0.554319 0.1449 0)
(0.539471 0.146164 0)
(0.524412 0.143826 0)
(0.509084 0.142052 0)
(0.49399 0.144851 0)
(0.479608 0.150988 0)
(0.4643 0.15526 0)
(0.448543 0.154724 0)
(0.43273 0.154459 0)
(0.41755 0.157988 0)
(0.402433 0.162213 0)
(0.386778 0.164489 0)
(0.370839 0.166886 0)
(0.354558 0.170293 0)
(0.337669 0.173434 0)
(0.320229 0.17616 0)
(0.302405 0.179128 0)
(0.284262 0.182188 0)
(0.265835 0.184814 0)
(0.247275 0.187091 0)
(0.228669 0.18936 0)
(0.209908 0.191711 0)
(0.190761 0.193915 0)
(0.171064 0.19587 0)
(0.150829 0.197682 0)
(0.13026 0.199656 0)
(0.109656 0.201901 0)
(0.0893258 0.205003 0)
(0.0692951 0.208707 0)
(0.0497455 0.213763 0)
(0.0298766 0.217354 0)
(0.0103784 0.221839 0)
(3 8.47879e-17 0)
(3 -1.55221e-16 0)
(3 -6.25825e-16 0)
(3 -5.69828e-16 0)
(3 -4.88102e-17 0)
(3 8.29758e-17 0)
(3 -2.58923e-16 0)
(3 -1.37488e-15 0)
(3 -1.01668e-15 0)
(3 -5.016e-16 0)
(3 1.01735e-16 0)
(3 3.55143e-16 0)
(3 1.30616e-16 0)
(3 -2.85448e-16 0)
(3 -1.71233e-15 0)
(3 -1.97449e-15 0)
(3 -1.27441e-15 0)
(3 -1.03979e-15 0)
(3 -1.1174e-15 0)
(3 -1.10805e-15 0)
(3 -1.04214e-15 0)
(3 -9.27124e-16 0)
(3 -1.15535e-15 0)
(3 -5.63783e-16 0)
(3 -5.74715e-16 0)
(3 -6.20145e-16 0)
(3 -1.17059e-16 0)
(3 1.255e-15 0)
(3 2.11796e-15 0)
(3 2.90364e-15 0)
(3 2.52161e-15 0)
(3 1.50902e-15 0)
(3 -4.85681e-18 0)
(3 -4.57223e-17 0)
(3 -8.40482e-16 0)
(3 -6.53184e-16 0)
(3 3.22321e-17 0)
(3 -1.91503e-16 0)
(3 -9.06592e-16 0)
(3 -1.34353e-15 0)
(3 -1.64261e-15 0)
(3 -2.59215e-15 0)
(3 -2.08332e-15 0)
(3 -1.46632e-15 0)
(3 -1.24288e-15 0)
(3 -1.213e-15 0)
(3 -1.61504e-15 0)
(3 -1.38717e-15 0)
(3 -2.93929e-15 0)
(1.831 0.156391 0)
(0.827147 0.150759 0)
(0.755352 0.152111 0)
(0.736676 0.140529 0)
(0.717135 0.136198 0)
(0.701075 0.137211 0)
(0.687202 0.14199 0)
(0.674456 0.14847 0)
(0.661056 0.153424 0)
(0.646328 0.154659 0)
(0.630638 0.151655 0)
(0.614583 0.146933 0)
(0.598492 0.144888 0)
(0.583317 0.147274 0)
(0.569373 0.152756 0)
(0.555431 0.158076 0)
(0.540526 0.160006 0)
(0.525282 0.1579 0)
(0.509785 0.155657 0)
(0.494465 0.157999 0)
(0.480132 0.164347 0)
(0.465025 0.169447 0)
(0.449279 0.169532 0)
(0.433478 0.169291 0)
(0.418391 0.172822 0)
(0.403521 0.177329 0)
(0.388107 0.179936 0)
(0.372434 0.18265 0)
(0.356477 0.186496 0)
(0.339892 0.190102 0)
(0.322696 0.193195 0)
(0.305082 0.196516 0)
(0.287117 0.199997 0)
(0.268789 0.203084 0)
(0.250229 0.205827 0)
(0.231533 0.208556 0)
(0.212606 0.211346 0)
(0.193233 0.213926 0)
(0.173266 0.216154 0)
(0.152731 0.218115 0)
(0.131839 0.220142 0)
(0.110885 0.22231 0)
(0.090204 0.225338 0)
(0.0698275 0.228889 0)
(0.0500363 0.234027 0)
(0.0299919 0.237775 0)
(0.0104204 0.242566 0)
(3 1.4416e-16 0)
(3 2.97898e-16 0)
(3 -1.01632e-16 0)
(3 -1.09414e-17 0)
(3 -4.55805e-17 0)
(3 -3.17553e-16 0)
(3 -4.94558e-16 0)
(3 -5.30878e-16 0)
(3 -1.30404e-16 0)
(3 1.69158e-16 0)
(3 -2.90263e-16 0)
(3 -4.3082e-16 0)
(3 -1.31736e-15 0)
(3 -1.56962e-15 0)
(3 -1.41537e-15 0)
(3 -9.99745e-16 0)
(3 -1.00068e-15 0)
(3 -1.04169e-15 0)
(3 -1.3667e-15 0)
(3 -1.4828e-15 0)
(3 -8.83393e-16 0)
(3 -1.21594e-15 0)
(3 -2.17352e-15 0)
(3 -1.91545e-15 0)
(3 -1.5914e-15 0)
(3 -1.51669e-15 0)
(3 -6.85962e-16 0)
(3 9.43111e-16 0)
(3 1.40243e-15 0)
(3 1.77907e-15 0)
(3 1.40224e-15 0)
(3 4.98812e-16 0)
(3 4.77542e-17 0)
(3 -2.42871e-16 0)
(3 -4.63108e-16 0)
(3 -2.32933e-16 0)
(3 -5.15577e-16 0)
(3 -9.5936e-16 0)
(3 -8.79589e-16 0)
(3 -4.07568e-16 0)
(3 -5.90942e-16 0)
(3 -5.65413e-16 0)
(3 -8.07708e-16 0)
(3 -1.85723e-15 0)
(3 -1.83229e-15 0)
(3 -9.67903e-16 0)
(3 -2.41591e-16 0)
(3 -3.63243e-16 0)
(3 -3.59032e-15 0)
(2.00402 0.16213 0)
(0.845323 0.166582 0)
(0.757755 0.169923 0)
(0.739623 0.15654 0)
(0.7197 0.149594 0)
(0.703206 0.148761 0)
(0.688942 0.152897 0)
(0.67627 0.159692 0)
(0.663344 0.165869 0)
(0.649105 0.16795 0)
(0.633842 0.16569 0)
(0.618097 0.160911 0)
(0.602064 0.158133 0)
(0.586746 0.159934 0)
(0.572769 0.165317 0)
(0.558992 0.171102 0)
(0.544155 0.173785 0)
(0.528748 0.172122 0)
(0.513057 0.169483 0)
(0.49739 0.171273 0)
(0.48291 0.177747 0)
(0.467881 0.183704 0)
(0.451968 0.184555 0)
(0.43594 0.184334 0)
(0.420642 0.187768 0)
(0.405699 0.192453 0)
(0.390225 0.195306 0)
(0.374523 0.198226 0)
(0.358643 0.20243 0)
(0.342196 0.206491 0)
(0.325151 0.209969 0)
(0.307733 0.213675 0)
(0.290011 0.217641 0)
(0.271903 0.221282 0)
(0.253483 0.224586 0)
(0.234831 0.22786 0)
(0.215861 0.231164 0)
(0.196372 0.234197 0)
(0.176236 0.23678 0)
(0.155485 0.238968 0)
(0.134315 0.241114 0)
(0.113 0.243235 0)
(0.0918913 0.246186 0)
(0.0710318 0.249516 0)
(0.0508127 0.254638 0)
(0.0304026 0.258454 0)
(0.0105519 0.263472 0)
(3 -7.28782e-17 0)
(3 -1.50489e-17 0)
(3 1.1523e-16 0)
(3 1.95254e-16 0)
(3 -4.03561e-17 0)
(3 -1.06162e-16 0)
(3 -1.84162e-17 0)
(3 5.24808e-16 0)
(3 2.42805e-16 0)
(3 1.3648e-16 0)
(3 -2.28763e-16 0)
(3 -1.17512e-15 0)
(3 -1.33603e-15 0)
(3 -1.13954e-15 0)
(3 -5.067e-16 0)
(3 -3.99841e-16 0)
(3 -5.26892e-16 0)
(3 -6.77892e-16 0)
(3 -8.53661e-16 0)
(3 -9.12517e-16 0)
(3 -1.39725e-15 0)
(3 -2.04217e-15 0)
(3 -2.43657e-15 0)
(3 -1.85712e-15 0)
(3 -9.68968e-16 0)
(3 -6.08894e-16 0)
(3 1.16818e-16 0)
(3 6.97292e-16 0)
(3 4.34189e-16 0)
(3 -6.50082e-16 0)
(3 -8.86644e-16 0)
(3 -1.29915e-15 0)
(3 -9.45229e-16 0)
(3 -4.83234e-16 0)
(3 1.9126e-16 0)
(3 5.54176e-17 0)
(3 -3.31297e-16 0)
(3 -3.49464e-16 0)
(3 -4.06947e-16 0)
(3 -1.61497e-16 0)
(3 2.20828e-16 0)
(3 1.19655e-15 0)
(3 1.15388e-15 0)
(3 1.23233e-16 0)
(3 -3.72378e-16 0)
(3 -3.81218e-16 0)
(3 1.1468e-16 0)
(3 3.41599e-16 0)
(3 -3.39403e-15 0)
(2.19308 0.162896 0)
(0.866324 0.184967 0)
(0.756634 0.186361 0)
(0.740774 0.172167 0)
(0.721733 0.163879 0)
(0.705483 0.161117 0)
(0.691059 0.164334 0)
(0.678077 0.17106 0)
(0.664968 0.177973 0)
(0.650504 0.181491 0)
(0.635146 0.179779 0)
(0.61934 0.17515 0)
(0.603326 0.171694 0)
(0.587934 0.172759 0)
(0.57407 0.177909 0)
(0.560738 0.184139 0)
(0.546327 0.18766 0)
(0.531093 0.186661 0)
(0.51557 0.183739 0)
(0.499908 0.184813 0)
(0.485622 0.191214 0)
(0.471121 0.197972 0)
(0.45542 0.199728 0)
(0.439422 0.199585 0)
(0.424017 0.202893 0)
(0.408995 0.207734 0)
(0.393362 0.210825 0)
(0.377447 0.213884 0)
(0.361417 0.218356 0)
(0.344912 0.222827 0)
(0.327852 0.226658 0)
(0.310505 0.230717 0)
(0.292964 0.235163 0)
(0.275068 0.239388 0)
(0.256817 0.2433 0)
(0.238263 0.247173 0)
(0.219322 0.251061 0)
(0.199804 0.254639 0)
(0.179587 0.257694 0)
(0.158688 0.260232 0)
(0.137274 0.262609 0)
(0.115583 0.264759 0)
(0.0939918 0.267665 0)
(0.0725684 0.270742 0)
(0.0518079 0.275761 0)
(0.0309404 0.279553 0)
(0.0107115 0.284715 0)
(3 5.46548e-17 0)
(3 -1.06184e-17 0)
(3 1.10447e-16 0)
(3 2.13734e-16 0)
(3 2.12296e-16 0)
(3 6.79336e-16 0)
(3 8.88835e-16 0)
(3 6.61183e-16 0)
(3 5.69023e-16 0)
(3 6.52999e-16 0)
(3 7.88671e-16 0)
(3 2.99223e-16 0)
(3 -1.821e-16 0)
(3 -3.30984e-16 0)
(3 -1.76075e-16 0)
(3 -2.82425e-16 0)
(3 -4.51246e-16 0)
(3 -8.47796e-16 0)
(3 -1.05179e-15 0)
(3 -1.43719e-15 0)
(3 -1.95439e-15 0)
(3 -2.51062e-15 0)
(3 -2.48176e-15 0)
(3 -2.19482e-15 0)
(3 -1.13497e-15 0)
(3 -4.89497e-17 0)
(3 9.50667e-16 0)
(3 7.86418e-16 0)
(3 4.62083e-16 0)
(3 -7.86641e-16 0)
(3 -1.2031e-15 0)
(3 -2.00105e-15 0)
(3 -1.51185e-15 0)
(3 -5.55272e-16 0)
(3 1.32983e-16 0)
(3 1.90032e-16 0)
(3 -7.43029e-17 0)
(3 3.4363e-16 0)
(3 -1.37576e-16 0)
(3 -1.8688e-16 0)
(3 1.00209e-15 0)
(3 1.40511e-15 0)
(3 1.61147e-15 0)
(3 2.05218e-15 0)
(3 1.78099e-15 0)
(3 3.9439e-16 0)
(3 2.81993e-16 0)
(3 1.72801e-16 0)
(3 5.6913e-16 0)
(2.39871 0.162362 0)
(0.897594 0.207149 0)
(0.760306 0.201638 0)
(0.748683 0.187129 0)
(0.73132 0.177719 0)
(0.714948 0.173905 0)
(0.699176 0.176232 0)
(0.684774 0.183204 0)
(0.67035 0.190948 0)
(0.655011 0.195284 0)
(0.638896 0.194633 0)
(0.622772 0.189931 0)
(0.60649 0.185775 0)
(0.590696 0.185864 0)
(0.576448 0.190508 0)
(0.563131 0.197 0)
(0.548902 0.201349 0)
(0.533665 0.201191 0)
(0.518213 0.19814 0)
(0.502542 0.198324 0)
(0.488406 0.204381 0)
(0.474593 0.211839 0)
(0.459298 0.214694 0)
(0.443484 0.21479 0)
(0.428067 0.218031 0)
(0.413068 0.223088 0)
(0.397364 0.226486 0)
(0.381289 0.229678 0)
(0.365116 0.23436 0)
(0.348534 0.23922 0)
(0.331385 0.243402 0)
(0.313969 0.247783 0)
(0.296433 0.252676 0)
(0.278586 0.257465 0)
(0.260381 0.261975 0)
(0.241865 0.266448 0)
(0.222972 0.270951 0)
(0.203511 0.275151 0)
(0.183331 0.278794 0)
(0.162395 0.281827 0)
(0.140815 0.284578 0)
(0.118778 0.286877 0)
(0.0966843 0.289814 0)
(0.0746297 0.292652 0)
(0.0532012 0.297512 0)
(0.0317317 0.301203 0)
(0.0109549 0.306428 0)