/*--------------------------------*- C++ -*----------------------------------*\
  =========                 |
  \\      /  F ield         | OpenFOAM: The Open Source CFD Toolbox
   \\    /   O peration     | Website:  https://openfoam.org
    \\  /    A nd           | Version:  9
     \\/     M anipulation  |
\*---------------------------------------------------------------------------*/
FoamFile
{
    format      ascii;
    class       surfaceScalarField;
    location    "53";
    object      phi;
}
// * * * * * * * * * * * * * * * * * * * * * * * * * * * * * * * * * * * * * //

dimensions      [0 3 -1 0 0 0 0];

internalField   nonuniform List<scalar> 
16735
(
-0.0029891
0.00299042
-1.32328e-06
-0.00897682
0.0059908
-3.07628e-06
-0.0168426
0.00787019
-4.45785e-06
-0.0258619
0.00902505
-5.68622e-06
-0.0359267
0.010072
-7.18409e-06
-0.0464582
0.0105405
-8.95769e-06
-0.0585469
0.0121
-1.13061e-05
-0.0695053
0.010972
-1.36261e-05
-0.0842464
0.0147571
-1.60475e-05
0.0111197
-1.78203e-05
-0.0953483
-0.00293786
0.00592829
-0.00883015
0.0118831
-0.0165594
0.0155994
-0.0253923
0.017858
-0.0352075
0.0198872
-0.0453949
0.0207279
-0.0570394
0.0237444
-0.0673541
0.0212868
-0.0813807
0.0287837
0.0209688
-0.0912299
-0.00283761
0.0087659
-0.00854194
0.0175874
-0.0160012
0.0230587
-0.0244645
0.0263212
-0.0337819
0.0292047
-0.0432873
0.0302333
-0.0540345
0.0344915
-0.0630735
0.0303259
-0.0756833
0.0413936
0.0283626
-0.0830771
-0.00269262
0.0114585
-0.00812215
0.0230169
-0.015184
0.0301206
-0.0231008
0.034238
-0.0316745
0.0377783
-0.0401719
0.0387307
-0.0495501
0.0438697
-0.0566972
0.037473
-0.0671982
0.0518946
0.0321901
-0.0710257
-0.00250911
0.0139676
-0.0075852
0.028093
-0.014131
0.0366664
-0.0213336
0.0414406
-0.0289214
0.0453661
-0.0361017
0.045911
-0.0436096
0.0513777
-0.0482586
0.042122
-0.055936
0.0595719
0.031459
-0.0552049
-0.00229493
0.0162626
-0.00694936
0.0327475
-0.0128702
0.0425872
-0.0192039
0.0477743
-0.0255688
0.051731
-0.0311444
0.0514866
-0.0362397
0.056473
-0.0377847
0.043667
-0.0418072
0.0635944
0.025289
-0.0356373
-0.00205921
0.0183218
-0.006236
0.0369242
-0.0114348
0.047786
-0.0167589
0.0530984
-0.0216697
0.0566418
-0.0253779
0.0551948
-0.0274661
0.0585612
-0.0253083
0.0415091
-0.0245422
0.0628284
0.0129092
-0.0121624
-0.00181196
0.0201337
-0.00546846
0.0405807
-0.00986153
0.0521791
-0.0140486
0.0572855
-0.0172782
0.0598714
-0.0188795
0.056796
-0.017299
0.0569807
-0.0109262
0.0351363
-0.0035229
0.0554251
-0.00700438
0.0163907
-0.00156353
0.0216973
-0.0046708
0.043688
-0.00818771
0.055696
-0.0111205
0.0602183
-0.0124403
0.0611912
-0.0117086
0.0560643
-0.00566376
0.0509359
0.00546298
0.0240096
0.0205816
0.0403065
-0.0375312
0.0511084
-0.00132398
0.0230212
-0.00386616
0.0462302
-0.0064487
0.0582785
-0.00801337
0.0617829
-0.00717864
0.0603565
-0.00390002
0.0527857
0.00716758
0.0398683
0.0242995
0.0068777
0.0490114
0.0155945
-0.0811297
0.0926099
-0.0011025
0.0241237
-0.00307498
0.0482027
-0.00467432
0.0598779
-0.00475201
0.0618606
-0.00144761
0.0570521
0.00488105
0.0464571
0.0214424
0.0233069
0.0450554
-0.0167353
0.0820053
-0.0213554
-0.14036
0.141236
-0.000906616
0.0250304
-0.00231285
0.0496089
-0.00288413
0.0604492
-0.0013507
0.0603272
0.00458194
0.0511195
0.0148484
0.0361906
0.0377833
0.000372009
0.0686067
-0.0475587
0.119812
-0.0725603
-0.216432
0.195884
-0.000741592
0.025772
-0.00158831
0.0504556
-0.00107823
0.0599391
0.00229445
0.0569545
0.0111835
0.0422304
0.0262098
0.0211644
0.0565204
-0.0299386
0.0963074
-0.0873457
0.162759
-0.139012
-0.307379
0.253706
-0.000609902
0.0263819
-0.000901245
0.050747
0.000746914
0.0582909
0.00620922
0.0514922
0.0185539
0.0298857
0.0395236
0.000194685
0.0780115
-0.0684265
0.129225
-0.13856
0.21044
-0.220227
-0.407491
0.310552
-0.000511886
0.0268937
-0.000239071
0.0504742
0.00262922
0.0554226
0.0104814
0.04364
0.0269272
0.0134399
0.0553005
-0.0281786
0.102622
-0.115748
0.166982
-0.20292
0.2604
-0.313644
-0.509032
0.361941
-0.000438489
0.0273322
0.000416999
0.0496187
0.00466683
0.0511728
0.0153051
0.0330018
0.0366427
-0.00789764
0.0738455
-0.0653815
0.130567
-0.172469
0.207484
-0.279837
0.308014
-0.414175
-0.605134
0.404116
-0.000378702
0.0277109
0.00110777
0.0481322
0.00696219
0.0453184
0.020939
0.019025
0.0481506
-0.0351093
0.0951425
-0.112373
0.161332
-0.238659
0.247534
-0.366039
0.348347
-0.514987
-0.691645
0.434857
-0.000320197
0.0280311
0.00188493
0.0459271
0.00965113
0.0375522
0.0276896
0.000986537
0.0618898
-0.0693094
0.11881
-0.169293
0.193197
-0.313045
0.283601
-0.456444
0.37824
-0.609627
-0.767154
0.453749
-0.000246172
0.0282773
0.00280819
0.0428727
0.0128936
0.0274668
0.0358647
-0.0219846
0.0780503
-0.111495
0.143944
-0.235187
0.2236
-0.392701
0.31274
-0.545584
0.396976
-0.693862
-0.832196
0.462018
-0.000136408
0.0284137
0.00394393
0.0387924
0.0168659
0.0145449
0.045703
-0.0508217
0.096328
-0.16212
0.169017
-0.307876
0.250056
-0.47374
0.333398
-0.628927
0.405607
-0.766071
-0.88886
0.462271
3.0629e-05
0.0283831
0.00536244
0.0334605
0.0217482
-0.0018409
0.0572757
-0.0863492
0.115841
-0.220685
0.192167
-0.384203
0.270851
-0.552423
0.345542
-0.703618
0.407142
-0.82767
-0.944866
0.463148
0.000248464
0.0281346
0.00713814
0.0265709
0.0276986
-0.0224014
0.0703773
-0.129028
0.135276
-0.285583
0.211771
-0.460698
0.285255
-0.625908
0.350304
-0.768667
0.405199
-0.882565
-0.993459
0.453792
0.000555417
0.0275792
0.00934861
0.0177777
0.0348022
-0.047855
0.084467
-0.178693
0.153215
-0.354331
0.226848
-0.534332
0.293445
-0.692504
0.34988
-0.825102
0.39755
-0.930235
-1.03473
0.438819
0.000961764
0.0266174
0.0120711
0.0066684
0.0430036
-0.0787875
0.0987249
-0.234414
0.168488
-0.424094
0.237116
-0.60296
0.296284
-0.751671
0.344953
-0.873771
0.386503
-0.971786
-1.07168
0.423454
0.00147888
0.0251386
0.0153723
-0.00722498
0.0520643
-0.11548
0.112216
-0.294565
0.180393
-0.492272
0.242831
-0.665398
0.294661
-0.803501
0.336695
-0.915805
0.373222
-1.00831
-1.10462
0.406164
0.00212069
0.0230179
0.0192825
-0.0243868
0.0615797
-0.157777
0.124092
-0.357077
0.188706
-0.556886
0.244496
-0.721188
0.289524
-0.848529
0.325949
-0.95223
0.358235
-1.0406
-1.13447
0.388087
0.00290867
0.0201092
0.0237639
-0.0452419
0.0710397
-0.205053
0.133757
-0.419794
0.193541
-0.61667
0.242735
-0.770382
0.281673
-0.887467
0.313383
-0.983939
0.342166
-1.06938
-1.16163
0.369326
0.0038756
0.0162336
0.0286979
-0.0700642
0.0798975
-0.256252
0.140922
-0.480819
0.195217
-0.670965
0.238167
-0.813332
0.271772
-0.921073
0.299519
-1.01169
0.325294
-1.09516
-1.18639
0.35005
0.00506166
0.0111719
0.0339001
-0.0989026
0.0876534
-0.310006
0.14556
-0.538725
0.194141
-0.719546
0.231359
-0.850551
0.260349
-0.950062
0.284724
-1.03606
0.307869
-1.1183
-1.20893
0.330409
0.00649815
0.00467379
0.0391525
-0.131557
0.0939493
-0.364802
0.147813
-0.592589
0.190744
-0.762476
0.222802
-0.882609
0.247808
-0.975068
0.269272
-1.05753
0.290037
-1.13907
-1.22934
0.310451
0.00818495
-0.00351116
0.0442325
-0.167605
0.098608
-0.419178
0.147908
-0.641889
0.185437
-0.800005
0.212902
-0.910074
0.23446
-0.996626
0.253353
-1.07642
0.271904
-1.15762
-1.24769
0.290252
0.0100778
-0.013589
0.0489237
-0.20645
0.101602
-0.471856
0.146109
-0.686396
0.178591
-0.832487
0.20199
-0.933473
0.220534
-1.01517
0.237104
-1.09299
0.253546
-1.17406
-1.26399
0.269847
0.0120965
-0.0256855
0.0530231
-0.247377
0.103002
-0.521835
0.142686
-0.72608
0.170526
-0.860327
0.190328
-0.953276
0.206201
-1.03104
0.220621
-1.10741
0.235017
-1.18846
-1.27825
0.249277
0.0141458
-0.0398313
0.0563591
-0.28959
0.102933
-0.568409
0.137896
-0.761043
0.161511
-0.883942
0.178122
-0.969887
0.191587
-1.04451
0.203974
-1.1198
0.216361
-1.20084
-1.29047
0.228576
0.016138
-0.0559693
0.0588135
-0.332266
0.101548
-0.611143
0.131976
-0.791471
0.151768
-0.903733
0.165529
-0.983648
0.176784
-1.05576
0.187214
-1.13023
0.197615
-1.21124
-1.30063
0.207779
0.0180022
-0.0739715
0.0603305
-0.374594
0.0990101
-0.649823
0.125142
-0.817603
0.141477
-0.920069
0.152673
-0.994844
0.161864
-1.06495
0.170384
-1.13875
0.178811
-1.21967
-1.30874
0.186917
0.0196798
-0.0936513
0.0609102
-0.415825
0.0954817
-0.684394
0.11758
-0.839701
0.130789
-0.933279
0.139647
-1.0037
0.146878
-1.07218
0.153521
-1.14539
0.159979
-1.22613
-1.31478
0.166024
0.021118
-0.114769
0.0605922
-0.455299
0.091115
-0.714917
0.109454
-0.85804
0.119824
-0.943649
0.126524
-1.0104
0.131871
-1.07753
0.136655
-1.15017
0.141148
-1.23062
-1.31877
0.145133
0.0222666
-0.137036
0.0594348
-0.492467
0.0860485
-0.741531
0.100904
-0.872895
0.10868
-0.951425
0.11336
-1.01508
0.116876
-1.08105
0.119813
-1.15311
0.122347
-1.23316
-1.3207
0.124279
0.0230822
-0.160118
0.0575236
-0.526908
0.0804085
-0.764416
0.092047
-0.884534
0.0974347
-0.956813
0.1002
-1.01785
0.101923
-1.08277
0.103022
-1.15421
0.103604
-1.23374
-1.3206
0.103503
0.0235361
-0.183654
0.0550384
-0.558411
0.0743134
-0.783691
0.0829776
-0.893198
0.0861504
-0.959986
0.0870825
-1.01878
0.0870375
-1.08272
0.0863043
-1.15348
0.084949
-1.23238
-1.31851
0.0828583
0.0236166
-0.207271
0.052045
-0.586839
0.0678676
-0.799513
0.0737752
-0.899106
0.074877
-0.961087
0.0740361
-1.01794
0.0722433
-1.08093
0.0696827
-1.15091
0.0664021
-1.2291
-1.31442
0.0623106
0.0233288
-0.2306
0.0486149
-0.612125
0.0611617
-0.81206
0.0645062
-0.90245
0.063654
-0.960235
0.061087
-1.01537
0.0575622
-1.07741
0.0531834
-1.14654
0.0479811
-1.2239
-1.30831
0.0418771
0.022694
-0.253294
0.0448221
-0.634253
0.0542753
-0.821513
0.0552253
-0.9034
0.0525138
-0.957524
0.0482575
-1.01111
0.0430142
-1.07216
0.0368323
-1.14035
0.0297306
-1.2168
-1.30017
0.0215835
0.0217454
-0.275039
0.0407369
-0.653245
0.0472598
-0.828036
0.0459761
-0.902117
0.0414831
-0.953031
0.0355679
-1.0052
0.0286181
-1.06521
0.0206432
-1.13238
0.0117144
-1.20787
-1.28982
0.00137178
0.0205238
-0.295563
0.0364249
-0.669146
0.0401724
-0.831784
0.0367951
-0.898739
0.0305847
-0.94682
0.0230355
-0.99765
0.0143919
-1.05657
0.00459336
-1.12258
-0.00605467
-1.19722
-1.2775
-0.0183826
0.0190725
-0.314635
0.0319466
-0.68202
0.0330662
-0.832903
0.0277131
-0.893386
0.019837
-0.938944
0.0106703
-0.988483
0.000320626
-1.04622
-0.0111178
-1.11114
-0.0237064
-1.18463
-1.26334
-0.0378611
0.0174342
-0.332069
0.0273563
-0.691942
0.0259849
-0.831532
0.0187567
-0.886158
0.00924652
-0.929434
-0.00152521
-0.977712
-0.0134191
-1.03433
-0.0265747
-1.09799
-0.0410597
-1.17015
-1.24733
-0.0570727
0.0156488
-0.347718
0.0227026
-0.698996
0.0189647
-0.827794
0.00994639
-0.87714
-0.00119959
-0.918288
-0.0133992
-0.965512
-0.0269577
-1.02077
-0.0418013
-1.08314
-0.0581175
-1.15383
-1.22947
-0.0759703
0.013753
-0.361471
0.0180277
-0.703271
0.0120334
-0.8218
0.00127422
-0.866381
-0.011267
-0.905747
-0.0250861
-0.951693
-0.0402487
-1.00561
-0.056763
-1.06663
-0.0748604
-1.13573
-1.2098
-0.0945352
0.0117803
-0.373252
0.0133688
-0.704859
0.00520203
-0.813633
-0.00711473
-0.854064
-0.021173
-0.891689
-0.0365394
-0.936326
-0.0532753
-0.98887
-0.0714352
-1.04847
-0.0912729
-1.1159
-1.18833
-0.112738
0.00976086
-0.383012
0.00876105
-0.703859
-0.00150371
-0.803368
-0.015328
-0.84024
-0.0308616
-0.876155
-0.0477403
-0.919448
-0.0660213
-0.970589
-0.0857963
-1.02869
-0.107336
-1.09436
-1.16511
-0.130559
0.00771973
-0.390732
0.00424443
-0.700384
-0.00789297
-0.791231
-0.023339
-0.824794
-0.0403155
-0.859178
-0.0586748
-0.901088
-0.0784714
-0.950793
-0.099828
-1.00734
-0.123033
-1.07115
-1.14017
-0.147975
0.00567574
-0.396408
-7.7245e-05
-0.694631
-0.0141519
-0.777156
-0.0311332
-0.807812
-0.0495239
-0.840788
-0.0693303
-0.881282
-0.0906109
-0.929512
-0.113514
-0.984434
-0.138348
-1.04632
-1.11355
-0.164964
0.00364691
-0.400055
-0.00464005
-0.686344
-0.020249
-0.761547
-0.0386959
-0.789365
-0.0584753
-0.821008
-0.0796951
-0.860062
-0.102426
-0.906781
-0.126839
-0.960021
-0.153263
-1.01989
-1.08532
-0.1815
0.00166966
-0.401725
-0.00894294
-0.675731
-0.0261658
-0.744324
-0.0460179
-0.769513
-0.0671593
-0.799867
-0.0897579
-0.837464
-0.113903
-0.882636
-0.139789
-0.934134
-0.167759
-0.991923
-1.05552
-0.197557
-0.000218679
-0.401506
-0.013078
-0.662872
-0.0318927
-0.72551
-0.0530947
-0.748311
-0.0755663
-0.777395
-0.0995077
-0.813522
-0.12503
-0.857114
-0.152355
-0.90681
-0.181823
-0.962456
-1.0242
-0.213139
-0.00234696
-0.399159
-0.0170617
-0.648157
-0.0374167
-0.705155
-0.0599203
-0.725808
-0.0836869
-0.753629
-0.108934
-0.788275
-0.135799
-0.830249
-0.164536
-0.878072
-0.195446
-0.931546
-0.991435
-0.228215
-0.00432632
-0.394833
-0.0208927
-0.631591
-0.0427265
-0.683321
-0.0664889
-0.702045
-0.0915128
-0.728605
-0.118026
-0.761762
-0.1462
-0.802076
-0.176327
-0.847944
-0.208582
-0.899291
-0.95747
-0.242546
-0.00621911
-0.388613
-0.0245679
-0.613242
-0.0478158
-0.660073
-0.0727949
-0.677066
-0.0990357
-0.702364
-0.126776
-0.734022
-0.156223
-0.772629
-0.187681
-0.816486
-0.22124
-0.865732
-0.922707
-0.256004
-0.00803167
-0.380582
-0.0280842
-0.59319
-0.0526801
-0.635477
-0.078833
-0.650913
-0.106249
-0.674948
-0.135174
-0.705096
-0.165853
-0.74195
-0.198544
-0.783796
-0.232955
-0.831321
-0.885749
-0.269913
-0.00976434
-0.370817
-0.0314383
-0.571516
-0.0573157
-0.6096
-0.0845984
-0.623631
-0.113145
-0.646402
-0.143214
-0.675026
-0.175067
-0.710097
-0.208877
-0.749986
-0.244548
-0.795649
-0.847204
-0.283094
-0.0114157
-0.359402
-0.0346272
-0.548304
-0.0617199
-0.582507
-0.0900864
-0.595264
-0.119718
-0.616771
-0.150886
-0.643858
-0.183866
-0.677117
-0.218818
-0.715033
-0.255867
-0.7586
-0.807321
-0.295749
-0.0129838
-0.346418
-0.0376483
-0.52364
-0.0658902
-0.554265
-0.0952927
-0.565862
-0.125962
-0.586102
-0.158179
-0.611641
-0.192225
-0.643071
-0.228265
-0.678994
-0.266535
-0.72033
-0.766174
-0.307682
-0.0144665
-0.331951
-0.040499
-0.497607
-0.0698245
-0.52494
-0.100213
-0.535473
-0.13187
-0.554445
-0.165086
-0.578425
-0.20015
-0.608007
-0.237249
-0.641895
-0.276676
-0.680903
-0.723881
-0.318969
-0.0158614
-0.31609
-0.0431772
-0.470292
-0.0735206
-0.494596
-0.104845
-0.504148
-0.137438
-0.521853
-0.171599
-0.544263
-0.207626
-0.571979
-0.245729
-0.603793
-0.286232
-0.6404
-0.680515
-0.329598
-0.0171661
-0.298924
-0.0456812
-0.441776
-0.0769769
-0.4633
-0.109183
-0.471942
-0.142659
-0.488377
-0.177711
-0.509211
-0.214647
-0.535043
-0.253699
-0.564741
-0.295208
-0.598892
-0.636148
-0.339575
-0.0183776
-0.280546
-0.0480093
-0.412145
-0.0801914
-0.431118
-0.113226
-0.438908
-0.147528
-0.454075
-0.183414
-0.473325
-0.221204
-0.497253
-0.261145
-0.524799
-0.30359
-0.556447
-0.590847
-0.348892
-0.019492
-0.261054
-0.05016
-0.381477
-0.0831628
-0.398115
-0.116968
-0.405102
-0.152041
-0.419002
-0.188704
-0.436662
-0.227287
-0.45867
-0.268057
-0.48403
-0.311369
-0.513135
-0.544678
-0.357538
-0.0205026
-0.240552
-0.0521313
-0.349848
-0.08589
-0.364357
-0.120409
-0.370583
-0.156194
-0.383218
-0.193573
-0.399283
-0.232891
-0.419352
-0.274425
-0.442496
-0.318534
-0.469026
-0.497709
-0.365503
-0.0213948
-0.219157
-0.0539223
-0.317321
-0.0883726
-0.329906
-0.123545
-0.33541
-0.159981
-0.346782
-0.198016
-0.361248
-0.238007
-0.379362
-0.28024
-0.400262
-0.325076
-0.424189
-0.450008
-0.372776
-0.0222137
-0.196943
-0.0555351
-0.283999
-0.0906102
-0.294831
-0.126375
-0.299646
-0.163401
-0.309756
-0.202029
-0.322619
-0.242629
-0.338762
-0.285495
-0.357396
-0.330986
-0.378698
-0.401649
-0.379346
-0.0229589
-0.173984
-0.0569703
-0.249988
-0.0926021
-0.2592
-0.128895
-0.263353
-0.166448
-0.272202
-0.205607
-0.283461
-0.246751
-0.297618
-0.290183
-0.313964
-0.336257
-0.332625
-0.352703
-0.385203
-0.0236183
-0.150366
-0.0582277
-0.215378
-0.0943474
-0.22308
-0.131104
-0.226597
-0.169121
-0.234185
-0.208745
-0.243837
-0.250368
-0.255995
-0.294298
-0.270034
-0.34088
-0.286042
-0.303246
-0.390338
-0.024187
-0.126179
-0.0593066
-0.180259
-0.0958451
-0.186541
-0.133
-0.189442
-0.171417
-0.195768
-0.211442
-0.203812
-0.253476
-0.21396
-0.297833
-0.225678
-0.344851
-0.239024
-0.253354
-0.394743
-0.0246628
-0.101516
-0.0602065
-0.144715
-0.0970945
-0.149653
-0.134582
-0.151955
-0.173333
-0.157017
-0.213693
-0.163453
-0.256071
-0.171582
-0.300783
-0.180966
-0.348161
-0.191645
-0.203102
-0.398413
-0.0250444
-0.0764718
-0.0609269
-0.108833
-0.0980949
-0.112485
-0.135849
-0.1142
-0.174868
-0.117997
-0.215496
-0.122825
-0.25815
-0.128928
-0.303145
-0.135972
-0.350809
-0.143981
-0.152566
-0.401345
-0.0253311
-0.0511408
-0.0614675
-0.0726961
-0.0988456
-0.0751072
-0.136801
-0.076245
-0.176021
-0.0787771
-0.21685
-0.0819954
-0.259711
-0.0860668
-0.304918
-0.0907657
-0.352794
-0.0961043
-0.101823
-0.403538
-0.0255224
-0.0256183
-0.061828
-0.0363905
-0.0993464
-0.0375888
-0.137435
-0.0381562
-0.17679
-0.0394223
-0.217754
-0.0410315
-0.260753
-0.043068
-0.3061
-0.0454182
-0.354117
-0.0480872
-0.0509443
-0.404996
-0.0256181
-2.20948e-07
-0.0620083
-3.2738e-07
-0.0995968
-3.32253e-07
-0.137753
-3.26071e-07
-0.177175
-3.23633e-07
-0.218206
-3.21467e-07
-0.261274
-3.20199e-07
-0.306691
-3.18607e-07
-0.354778
-3.16459e-07
-3.12432e-07
-0.405722
-0.0256181
0.0256179
-0.0620083
0.0363899
-0.0995968
0.0375882
-0.137753
0.0381555
-0.177175
0.0394217
-0.218206
0.0410308
-0.261274
0.0430674
-0.306691
0.0454176
-0.354778
0.0480866
0.0509437
-0.405722
-0.0255224
0.0511403
-0.061828
0.0726955
-0.0993464
0.0751065
-0.137435
0.0762444
-0.17679
0.0787765
-0.217754
0.0819947
-0.260753
0.0860661
-0.3061
0.0907651
-0.354117
0.0961037
0.101822
-0.404996
-0.0253311
0.0764714
-0.0614675
0.108832
-0.0988456
0.112485
-0.136801
0.114199
-0.176021
0.117997
-0.21685
0.122824
-0.259711
0.128927
-0.304918
0.135971
-0.352794
0.14398
0.152566
-0.403538
-0.0250444
0.101516
-0.0609269
0.144714
-0.0980949
0.149653
-0.135849
0.151954
-0.174868
0.157016
-0.215496
0.163452
-0.25815
0.171581
-0.303145
0.180966
-0.350809
0.191644
0.203101
-0.401345
-0.0246628
0.126179
-0.0602065
0.180258
-0.0970945
0.186541
-0.134582
0.189442
-0.173333
0.195767
-0.213693
0.203811
-0.256071
0.21396
-0.300783
0.225677
-0.348161
0.239023
0.253353
-0.398413
-0.024187
0.150366
-0.0593066
0.215378
-0.0958451
0.223079
-0.133
0.226596
-0.171417
0.234184
-0.211442
0.243836
-0.253476
0.255995
-0.297833
0.270033
-0.344851
0.286042
0.303245
-0.394743
-0.0236183
0.173984
-0.0582277
0.249987
-0.0943474
0.259199
-0.131104
0.263352
-0.169121
0.272202
-0.208745
0.28346
-0.250368
0.297618
-0.294298
0.313963
-0.340881
0.332624
0.352702
-0.390338
-0.0229589
0.196943
-0.0569703
0.283999
-0.0926021
0.294831
-0.128895
0.299645
-0.166448
0.309755
-0.205607
0.322619
-0.246751
0.338762
-0.290183
0.357395
-0.336257
0.378698
0.401648
-0.385203
-0.0222137
0.219156
-0.0555351
0.31732
-0.0906102
0.329906
-0.126375
0.335409
-0.163401
0.346781
-0.202029
0.361247
-0.242629
0.379361
-0.285495
0.400262
-0.330986
0.424189
0.450008
-0.379346
-0.0213948
0.240551
-0.0539223
0.349847
-0.0883726
0.364356
-0.123545
0.370582
-0.159981
0.383217
-0.198016
0.399282
-0.238007
0.419352
-0.28024
0.442495
-0.325076
0.469025
0.497708
-0.372776
-0.0205026
0.261054
-0.0521313
0.381476
-0.0858901
0.398115
-0.120409
0.405101
-0.156194
0.419002
-0.193573
0.436661
-0.232891
0.458669
-0.274425
0.484029
-0.318534
0.513134
0.544677
-0.365503
-0.019492
0.280546
-0.05016
0.412144
-0.0831629
0.431118
-0.116968
0.438907
-0.152041
0.454074
-0.188704
0.473324
-0.227287
0.497253
-0.268057
0.524799
-0.311369
0.556446
0.590847
-0.357538
-0.0183777
0.298923
-0.0480093
0.441776
-0.0801914
0.4633
-0.113226
0.471941
-0.147528
0.488377
-0.183414
0.509211
-0.221204
0.535042
-0.261145
0.56474
-0.30359
0.598891
0.636148
-0.348892
-0.0171662
0.31609
-0.0456812
0.470291
-0.0769769
0.494595
-0.109183
0.504148
-0.142659
0.521852
-0.177711
0.544263
-0.214647
0.571979
-0.2537
0.603792
-0.295208
0.6404
0.680515
-0.339575
-0.0158614
0.331951
-0.0431772
0.497607
-0.0735207
0.524939
-0.104845
0.535472
-0.137438
0.554445
-0.171599
0.578424
-0.207626
0.608006
-0.245729
0.641895
-0.286232
0.680903
0.723881
-0.329598
-0.0144665
0.346418
-0.040499
0.523639
-0.0698245
0.554264
-0.100214
0.565861
-0.13187
0.586101
-0.165086
0.61164
-0.20015
0.64307
-0.237249
0.678993
-0.276676
0.72033
0.766173
-0.318969
-0.0129838
0.359401
-0.0376483
0.548304
-0.0658903
0.582506
-0.0952928
0.595263
-0.125962
0.61677
-0.158179
0.643857
-0.192225
0.677117
-0.228265
0.715033
-0.266535
0.7586
0.807321
-0.307682
-0.0114157
0.370817
-0.0346273
0.571515
-0.0617199
0.609599
-0.0900864
0.62363
-0.119718
0.646402
-0.150886
0.675026
-0.183866
0.710097
-0.218818
0.749985
-0.255867
0.795649
0.847203
-0.295749
-0.00976436
0.380581
-0.0314383
0.593189
-0.0573157
0.635476
-0.0845984
0.650913
-0.113145
0.674948
-0.143214
0.705095
-0.175067
0.74195
-0.208877
0.783795
-0.244548
0.83132
0.885749
-0.283094
-0.00803169
0.388613
-0.0280842
0.613242
-0.0526801
0.660072
-0.0788331
0.677066
-0.106249
0.702363
-0.135174
0.734021
-0.165853
0.772628
-0.198544
0.816486
-0.232955
0.865731
0.922706
-0.269913
-0.00621913
0.394832
-0.024568
0.631591
-0.0478159
0.68332
-0.0727949
0.702045
-0.0990358
0.728604
-0.126776
0.761761
-0.156223
0.802075
-0.187681
0.847944
-0.221241
0.899291
0.957469
-0.256004
-0.00432634
0.399159
-0.0208927
0.648157
-0.0427266
0.705154
-0.0664889
0.725807
-0.0915128
0.753628
-0.118026
0.788275
-0.1462
0.830249
-0.176327
0.878071
-0.208582
0.931546
0.991434
-0.242546
-0.00234698
0.401506
-0.0170618
0.662872
-0.0374168
0.725509
-0.0599204
0.748311
-0.083687
0.777395
-0.108934
0.813522
-0.135799
0.857113
-0.164536
0.906809
-0.195446
0.962455
1.0242
-0.228215
-0.000218711
0.401724
-0.013078
0.675731
-0.0318927
0.744324
-0.0530948
0.769513
-0.0755663
0.799866
-0.0995078
0.837463
-0.12503
0.882636
-0.152355
0.934134
-0.181823
0.991923
1.05552
-0.213139
0.00166964
0.400055
-0.00894299
0.686344
-0.0261659
0.761547
-0.046018
0.789365
-0.0671594
0.821008
-0.089758
0.860062
-0.113903
0.906781
-0.13979
0.96002
-0.167759
1.01989
1.08532
-0.197557
0.00364688
0.396408
-0.0046401
0.694631
-0.0202491
0.777156
-0.038696
0.807812
-0.0584754
0.840787
-0.0796952
0.881281
-0.102426
0.929511
-0.126839
0.984434
-0.153263
1.04632
1.11355
-0.1815
0.0056757
0.390732
-7.73176e-05
0.700384
-0.014152
0.79123
-0.0311332
0.824793
-0.049524
0.859178
-0.0693304
0.901088
-0.090611
0.950792
-0.113514
1.00734
-0.138348
1.07115
1.14017
-0.164964
0.0077197
0.383012
0.00424437
0.703859
-0.00789305
0.803368
-0.0233391
0.840239
-0.0403156
0.876154
-0.0586749
0.919447
-0.0784715
0.970588
-0.0998281
1.02869
-0.123033
1.09436
1.16511
-0.147975
0.00976082
0.373252
0.00876099
0.704859
-0.0015038
0.813633
-0.0153281
0.854063
-0.0308617
0.891688
-0.0477404
0.936326
-0.0660214
0.988869
-0.0857964
1.04847
-0.107336
1.1159
1.18833
-0.130559
0.0117803
0.361471
0.0133688
0.70327
0.00520193
0.821799
-0.00711483
0.86638
-0.0211731
0.905746
-0.0365395
0.951692
-0.0532754
1.00561
-0.0714352
1.06663
-0.091273
1.13573
1.2098
-0.112738
0.013753
0.347718
0.0180276
0.698996
0.0120333
0.827794
0.00127411
0.877139
-0.0112671
0.918287
-0.0250863
0.965511
-0.0402488
1.02077
-0.0567631
1.08314
-0.0748604
1.15383
1.22947
-0.0945353
0.0156488
0.33207
0.0227025
0.691942
0.0189646
0.831532
0.00994627
0.886158
-0.00119971
0.929433
-0.0133993
0.977711
-0.0269578
1.03433
-0.0418013
1.09799
-0.0581175
1.17015
1.24733
-0.0759703
0.0174341
0.314635
0.0273563
0.68202
0.0259848
0.832903
0.0187565
0.893386
0.00924639
0.938944
-0.00152534
0.988483
-0.0134193
1.04622
-0.0265748
1.11114
-0.0410597
1.18463
1.26334
-0.0570727
0.0190724
0.295563
0.0319465
0.669146
0.0330661
0.831783
0.027713
0.898739
0.0198369
0.94682
0.0106702
0.997649
0.000320495
1.05657
-0.0111179
1.12258
-0.0237065
1.19722
1.27749
-0.0378611
0.0205237
0.275039
0.0364248
0.653245
0.0401722
0.828036
0.0367949
0.902116
0.0305846
0.95303
0.0230353
1.0052
0.0143917
1.06521
0.00459324
1.13238
-0.00605475
1.20787
1.28982
-0.0183826
0.0217454
0.253294
0.0407367
0.634253
0.0472596
0.821513
0.045976
0.9034
0.0414829
0.957523
0.0355677
1.01111
0.0286179
1.07216
0.020643
1.14035
0.0117143
1.2168
1.30016
0.00137174
0.022694
0.2306
0.044822
0.612125
0.0542752
0.81206
0.0552251
0.90245
0.0525136
0.960235
0.0482573
1.01537
0.0430141
1.07741
0.0368322
1.14653
0.0297305
1.2239
1.30831
0.0215834
0.0233288
0.207271
0.0486148
0.586839
0.0611615
0.799513
0.064506
0.899105
0.0636538
0.961087
0.0610867
1.01794
0.057562
1.08093
0.0531833
1.15091
0.047981
1.2291
1.31442
0.0418771
0.0236166
0.183655
0.0520448
0.558411
0.0678674
0.783691
0.073775
0.893198
0.0748767
0.959985
0.0740359
1.01878
0.0722431
1.08272
0.0696825
1.15347
0.0664019
1.23238
1.31851
0.0623105
0.0235361
0.160119
0.0550383
0.526909
0.0743132
0.764416
0.0829774
0.884534
0.0861502
0.956812
0.0870822
1.01785
0.0870373
1.08277
0.0863041
1.15421
0.0849488
1.23374
1.3206
0.0828582
0.0230822
0.137036
0.0575235
0.492467
0.0804083
0.741531
0.0920468
0.872895
0.0974344
0.951425
0.1002
1.01508
0.101923
1.08105
0.103022
1.15311
0.103604
1.23315
1.3207
0.103503
0.0222665
0.11477
0.0594347
0.455299
0.0860483
0.714917
0.100904
0.85804
0.10868
0.943649
0.113359
1.0104
0.116876
1.07753
0.119813
1.15017
0.122346
1.23062
1.31877
0.124279
0.021118
0.0936518
0.0605921
0.415825
0.0911148
0.684395
0.109454
0.839701
0.119824
0.933278
0.126523
1.0037
0.131871
1.07218
0.136654
1.14539
0.141147
1.22613
1.31478
0.145133
0.0196798
0.073972
0.0609101
0.374595
0.0954815
0.649823
0.117579
0.817603
0.130789
0.920069
0.139647
0.994844
0.146878
1.06495
0.15352
1.13874
0.159978
1.21967
1.30874
0.166024
0.0180022
0.0559699
0.0603304
0.332267
0.0990099
0.611144
0.125141
0.791472
0.141477
0.903733
0.152673
0.983648
0.161863
1.05576
0.170384
1.13022
0.178811
1.21124
1.30063
0.186917
0.016138
0.0398318
0.0588134
0.289591
0.101548
0.56841
0.131976
0.761043
0.151767
0.883942
0.165529
0.969886
0.176784
1.04451
0.187213
1.1198
0.197615
1.20084
1.29046
0.207779
0.0141458
0.0256861
0.0563591
0.247378
0.102933
0.521836
0.137896
0.72608
0.161511
0.860327
0.178121
0.953276
0.191586
1.03104
0.203973
1.10741
0.216361
1.18845
1.27825
0.228576
0.0120965
0.0135895
0.0530231
0.206451
0.103002
0.471857
0.142686
0.686396
0.170525
0.832487
0.190328
0.933473
0.2062
1.01517
0.22062
1.09299
0.235016
1.17406
1.26399
0.249276
0.0100779
0.00351165
0.0489237
0.167605
0.101602
0.419179
0.146109
0.64189
0.17859
0.800005
0.201989
0.910074
0.220533
0.996625
0.237103
1.07642
0.253545
1.15762
1.24769
0.269846
0.00818498
-0.00467333
0.0442325
0.131558
0.0986079
0.364803
0.147908
0.59259
0.185437
0.762477
0.212901
0.882609
0.234459
0.975067
0.253353
1.05752
0.271903
1.13907
1.22934
0.290251
0.00649818
-0.0111715
0.0391525
0.0989036
0.0939492
0.310007
0.147813
0.538726
0.190743
0.719546
0.222801
0.850551
0.247807
0.950062
0.269272
1.03606
0.290036
1.1183
1.20893
0.310451
0.0050617
-0.0162332
0.0339002
0.0700651
0.0876534
0.256253
0.14556
0.48082
0.19414
0.670966
0.231359
0.813333
0.260348
0.921073
0.284723
1.01168
0.307869
1.09516
1.18639
0.330408
0.00387565
-0.0201089
0.028698
0.0452428
0.0798975
0.205054
0.140922
0.419796
0.195216
0.616671
0.238166
0.770383
0.271771
0.887467
0.299518
0.983938
0.325293
1.06938
1.16163
0.350049
0.00290872
-0.0230176
0.023764
0.0243876
0.0710398
0.157778
0.133756
0.357079
0.193541
0.556887
0.242734
0.721189
0.281672
0.848529
0.313381
0.952229
0.342165
1.0406
1.13447
0.369325
0.00212075
-0.0251383
0.0192826
0.00722571
0.0615798
0.115481
0.124092
0.294567
0.188705
0.492274
0.244496
0.665399
0.289523
0.803502
0.325947
0.915805
0.358233
1.00831
1.10462
0.388086
0.00147895
-0.0266173
0.0153724
-0.00666775
0.0520645
0.0787888
0.112216
0.234416
0.180393
0.424096
0.24283
0.602962
0.294659
0.751672
0.336693
0.873771
0.37322
0.971784
1.07167
0.406163
0.000961849
-0.0275791
0.0120712
-0.0177771
0.0430038
0.0478562
0.0987251
0.178695
0.168488
0.354334
0.237116
0.534334
0.296282
0.692505
0.344951
0.825102
0.386501
0.930234
1.03472
0.423452
0.000555506
-0.0281346
0.00934879
-0.0265704
0.0348024
0.0224025
0.0844672
0.12903
0.153215
0.285586
0.226848
0.460701
0.293443
0.62591
0.349878
0.768667
0.397547
0.882565
0.993455
0.438817
0.000248551
-0.0283832
0.00713832
-0.0334602
0.0276989
0.00184198
0.0703775
0.0863512
0.135276
0.220688
0.21177
0.384206
0.285254
0.552427
0.350302
0.70362
0.405196
0.82767
0.944862
0.453789
3.07026e-05
-0.0284139
0.00536259
-0.0387921
0.0217484
-0.0145438
0.057276
0.0508237
0.115841
0.162123
0.192167
0.30788
0.27085
0.473744
0.34554
0.628929
0.407138
0.766072
0.888856
0.463145
-0.00013634
-0.0282776
0.00394402
-0.0428724
0.016866
-0.0274658
0.0457031
0.0219866
0.0963281
0.111498
0.169017
0.235191
0.250055
0.392706
0.333396
0.545587
0.405604
0.693865
0.832192
0.462267
-0.000246132
-0.0280314
0.00280822
-0.0459268
0.0128936
-0.0375512
0.0358647
-0.000984559
0.0780503
0.0693125
0.143944
0.169298
0.223599
0.313051
0.312738
0.456448
0.396972
0.609631
0.767151
0.462013
-0.000320191
-0.0277112
0.00188486
-0.0481318
0.00965095
-0.0453173
0.0276893
-0.0190229
0.0618895
0.0351123
0.118809
0.112378
0.193196
0.238665
0.283599
0.366045
0.378237
0.514993
0.691644
0.453744
-0.000378735
-0.0273325
0.00110759
-0.0496182
0.00696182
-0.0511715
0.0209384
-0.0329995
0.04815
0.00790076
0.0951418
0.0653862
0.161331
0.172476
0.247532
0.279843
0.348343
0.414182
0.605136
0.434851
-0.000438564
-0.0268939
0.00041671
-0.0504734
0.00466624
-0.055421
0.0153042
-0.0436375
0.0366416
-0.0134366
0.0738443
0.0281836
0.130565
0.115755
0.207482
0.202927
0.30801
0.313654
0.509036
0.40411
-0.000512
-0.0263819
-0.00023948
-0.050746
0.00262842
-0.0582889
0.0104801
-0.0514893
0.0269256
-0.029882
0.0552985
-0.000189405
0.102619
0.0684341
0.166979
0.138567
0.260395
0.220238
0.407498
0.361933
-0.000610061
-0.0257719
-0.000901762
-0.0504543
0.000745915
-0.0599366
0.00620765
-0.056951
0.0185518
-0.0422261
0.0395209
-0.0211585
0.0780082
0.0299468
0.129222
0.087354
0.210435
0.139024
0.307388
0.310544
-0.000741789
-0.0250301
-0.00158893
-0.0496071
-0.00107943
-0.0604461
0.00229257
-0.060323
0.0111809
-0.0511144
0.0262063
-0.036184
0.0565161
-0.000362953
0.0963021
0.047568
0.162753
0.0725735
0.216444
0.253697
-0.000906845
-0.0241232
-0.00231354
-0.0482004
-0.00288546
-0.0598741
-0.00135275
-0.0618557
0.00457897
-0.0570461
0.0148443
-0.0464493
0.0377782
-0.0232968
0.0686001
0.0167461
0.119804
0.0213698
0.140375
0.195873
-0.00110275
-0.0230205
-0.00307573
-0.0462274
-0.00467575
-0.0582741
-0.00475425
-0.0617772