/*--------------------------------*- C++ -*----------------------------------*\
  =========                 |
  \\      /  F ield         | OpenFOAM: The Open Source CFD Toolbox
   \\    /   O peration     | Website:  https://openfoam.org
    \\  /    A nd           | Version:  7
     \\/     M anipulation  |
\*---------------------------------------------------------------------------*/
FoamFile
{
    version     2.0;
    format      ascii;
    class       surfaceScalarField;
    location    "3.5";
    object      phi;
}
// * * * * * * * * * * * * * * * * * * * * * * * * * * * * * * * * * * * * * //

dimensions      [0 3 -1 0 0 0 0];

internalField   nonuniform List<scalar> 
21785
(
-1.50954e-13
1.51982e-13
-4.1228e-13
4.15848e-13
-7.53109e-13
4.80046e-13
-1.02733e-12
4.06837e-13
-1.15745e-12
2.6224e-13
-1.11177e-12
8.73936e-14
-8.88937e-13
-8.85044e-14
-1.70714e-13
-2.56072e-13
6.5764e-13
-5.11397e-13
1.52246e-12
-7.52346e-13
2.62381e-12
-9.71162e-13
3.92677e-12
-1.16941e-12
5.40558e-12
-1.34908e-12
7.03711e-12
-1.50614e-12
8.78749e-12
-1.62793e-12
1.09842e-11
-1.7132e-12
1.31122e-11
-1.87633e-12
1.52187e-11
-1.98701e-12
1.74866e-11
-2.09624e-12
1.98614e-11
-2.20738e-12
2.22873e-11
-2.30024e-12
2.47393e-11
-2.35885e-12
2.72085e-11
-2.37976e-12
2.96775e-11
-2.36416e-12
3.24007e-11
-2.32308e-12
3.50853e-11
-2.3482e-12
3.7563e-11
-2.37328e-12
4.00466e-11
-2.37203e-12
4.25025e-11
-2.34409e-12
4.49114e-11
-2.29368e-12
4.72519e-11
-2.22139e-12
4.94945e-11
-2.12127e-12
5.19155e-11
-1.99701e-12
5.41683e-11
-1.94394e-12
5.61571e-11
-1.88308e-12
5.80755e-11
-1.80058e-12
5.98926e-11
-1.69726e-12
6.15909e-11
-1.57672e-12
6.31521e-11
-1.4382e-12
6.45508e-11
-1.27463e-12
6.60813e-11
-1.08987e-12
6.73804e-11
-9.82918e-13
6.83628e-11
-8.72074e-13
6.92308e-11
-7.44145e-13
-5.99958e-13
6.99566e-11
-2.86066e-13
5.92998e-13
-7.46153e-13
1.15448e-12
-1.21879e-12
1.20796e-12
-1.47468e-12
9.09731e-13
-1.35893e-12
3.91415e-13
-7.74296e-13
-2.52155e-13
3.42664e-13
-9.58404e-13
2.28395e-12
-1.70262e-12
4.76737e-12
-2.50454e-12
7.53715e-12
-3.29705e-12
1.08582e-11
-4.06034e-12
1.46966e-11
-4.77982e-12
1.90174e-11
-5.44822e-12
2.37879e-11
-6.05417e-12
2.89768e-11
-6.58574e-12
3.4845e-11
-7.0531e-12
4.09711e-11
-7.58177e-12
4.71291e-11
-7.97545e-12
5.35949e-11
-8.33867e-12
6.03265e-11
-8.67161e-12
6.72434e-11
-8.94978e-12
7.42816e-11
-9.1558e-12
8.14084e-11
-9.28621e-12
8.86071e-11
-9.34711e-12
9.60772e-11
-9.36514e-12
1.03564e-10
-9.35692e-12
1.10749e-10
-9.34044e-12
1.17876e-10
-9.27332e-12
1.24904e-10
-9.14744e-12
1.318e-10
-8.96426e-12
1.3853e-10
-8.72608e-12
1.45073e-10
-8.43646e-12
1.5165e-10
-8.11733e-12
1.57965e-10
-7.79586e-12
1.63761e-10
-7.46046e-12
1.69279e-10
-7.08798e-12
1.74486e-10
-6.67241e-12
1.79357e-10
-6.21586e-12
1.83873e-10
-5.71992e-12
1.88021e-10
-5.18732e-12
1.92046e-10
-4.6402e-12
1.95648e-10
-4.10988e-12
1.98582e-10
-3.58055e-12
2.01107e-10
-3.03122e-12
-2.45594e-12
2.03203e-10
-2.75482e-13
1.00787e-12
-6.55066e-13
1.79054e-12
-9.14043e-13
1.7026e-12
-7.8289e-13
1.00768e-12
-6.94278e-14
-9.4049e-14
1.35737e-12
-1.45082e-12
3.58416e-12
-2.95553e-12
6.89943e-12
-4.54207e-12
1.10816e-11
-6.19107e-12
1.58111e-11
-7.81936e-12
2.13607e-11
-9.39847e-12
2.76964e-11
-1.09035e-11
3.47828e-11
-1.23164e-11
4.25767e-11
-1.36168e-11
5.10284e-11
-1.47901e-11
6.0275e-11
-1.58377e-11
7.01663e-11
-1.69731e-11
8.0129e-11
-1.7822e-11
9.0523e-11
-1.8576e-11
1.01321e-10
-1.92427e-11
1.12431e-10
-1.98016e-11
1.23754e-10
-2.02368e-11
1.35228e-10
-2.05462e-11
1.46814e-10
-2.07333e-11
1.58699e-10
-2.08148e-11
1.70578e-10
-2.07913e-11
1.82144e-10
-2.07047e-11
1.93602e-10
-2.05189e-11
2.04894e-10
-2.02288e-11
2.15973e-10
-1.98349e-11
2.26794e-10
-1.93407e-11
2.37318e-10
-1.87544e-11
2.47747e-10
-1.80941e-11
2.57776e-10
-1.73736e-11
2.67118e-10
-1.65992e-11
2.75995e-10
-1.57519e-11
2.84368e-10
-1.48305e-11
2.92204e-10
-1.3838e-11
2.99478e-10
-1.27791e-11
3.06169e-10
-1.16619e-11
3.12503e-10
-1.05049e-11
3.18186e-10
-9.32849e-12
3.22944e-10
-8.12972e-12
3.27026e-10
-6.89503e-12
-5.62367e-12
3.30416e-10
-1.64843e-13
1.30463e-12
-2.61454e-13
2.13611e-12
-6.3316e-14
1.73411e-12
7.12693e-13
4.56205e-13
2.2748e-12
-1.4306e-12
4.76732e-12
-3.71693e-12
8.28561e-12
-6.24712e-12
1.31077e-11
-8.91051e-12
1.90733e-11
-1.16477e-11
2.581e-11
-1.43586e-11
3.36008e-11
-1.69889e-11
4.24091e-11
-1.9502e-11
5.22018e-11
-2.18683e-11
6.29213e-11
-2.40605e-11
7.44984e-11
-2.60672e-11
8.68566e-11
-2.78949e-11
1.0039e-10
-2.98228e-11
1.13945e-10
-3.13112e-11
1.28035e-10
-3.25989e-11
1.42648e-10
-3.36969e-11
1.57688e-10
-3.46114e-11
1.73021e-10
-3.53355e-11
1.88563e-10
-3.58702e-11
2.04245e-10
-3.62138e-11
2.20256e-10
-3.63704e-11
2.36217e-10
-3.63374e-11
2.51864e-10
-3.61567e-11
2.67361e-10
-3.58066e-11
2.82633e-10
-3.52902e-11
2.97616e-10
-3.46106e-11
3.1225e-10
-3.37717e-11
3.26479e-10
-3.27822e-11
3.40495e-10
-3.16567e-11
3.53968e-10
-3.0405e-11
3.6661e-10
-2.90422e-11
3.78621e-10
-2.75529e-11
3.89948e-10
-2.59465e-11
4.00552e-10
-2.42306e-11
4.10397e-10
-2.24125e-11
4.19449e-10
-2.05032e-11
4.27931e-10
-1.85188e-11
4.35539e-10
-1.64769e-11
4.41993e-10
-1.43804e-11
4.47532e-10
-1.22207e-11
-1.00084e-11
4.52133e-10
1.13218e-14
1.42387e-12
3.36366e-13
2.05844e-12
1.16233e-12
1.1365e-12
2.76777e-12
-9.24664e-13
5.36141e-12
-3.79631e-12
9.08777e-12
-7.21389e-12
1.40426e-11
-1.09746e-11
2.04852e-11
-1.49241e-11
2.83114e-11
-1.89523e-11
3.71072e-11
-2.29566e-11
4.71602e-11
-2.68371e-11
5.84299e-11
-3.05492e-11
7.08839e-11
-3.40518e-11
8.44421e-11
-3.73151e-11
9.90228e-11
-4.03402e-11
1.14255e-10
-4.31439e-11
1.31336e-10
-4.58951e-11
1.48319e-10
-4.8191e-11
1.65925e-10
-5.01606e-11
1.84149e-10
-5.18434e-11
2.02888e-10
-5.31641e-11
2.21986e-10
-5.42257e-11
2.41344e-10
-5.50205e-11
2.60874e-10
-5.55422e-11
2.80758e-10
-5.57841e-11
3.0054e-10
-5.57163e-11
3.20002e-10
-5.54274e-11
3.39274e-10
-5.48736e-11
3.58267e-10
-5.40726e-11
3.769e-10
-5.30343e-11
3.95099e-10
-5.17634e-11
4.1279e-10
-5.02691e-11
4.30157e-10
-4.85637e-11
4.46842e-10
-4.66577e-11
4.62566e-10
-4.45692e-11
4.77503e-10
-4.22812e-11
4.9159e-10
-3.98223e-11
5.04779e-10
-3.72065e-11
5.17023e-10
-3.44436e-11
5.2828e-10
-3.15477e-11
5.38762e-10
-2.85344e-11
5.48165e-10
-2.54205e-11
5.56202e-10
-2.22155e-11
5.631e-10
-1.89073e-11
-1.55261e-11
5.68832e-10
2.22272e-13
1.3328e-12
1.07186e-12
1.45611e-12
2.63595e-12
-1.9948e-13
5.19622e-12
-3.26043e-12
8.95029e-12
-7.32144e-12
1.40331e-11
-1.20658e-11
2.05355e-11
-1.72493e-11
2.87057e-11
-2.26783e-11
3.84338e-11
-2.81553e-11
4.93526e-11
-3.36718e-11
6.16931e-11
-3.89567e-11
7.542e-11
-4.40313e-11
9.04937e-11
-4.88311e-11
1.06802e-10
-5.33228e-11
1.24256e-10
-5.75264e-11
1.42289e-10
-6.1414e-11
1.6272e-10
-6.51144e-11
1.83006e-10
-6.82756e-11
2.03975e-10
-7.10418e-11
2.2571e-10
-7.30097e-11
2.47926e-10
-7.49019e-11
2.7057e-10
-7.63902e-11
2.9352e-10
-7.74894e-11
3.16674e-10
-7.82166e-11
3.40235e-10
-7.86067e-11
3.63576e-10
-7.86501e-11
3.86637e-10
-7.82993e-11
4.09454e-10
-7.74905e-11
4.31935e-10
-7.63486e-11
4.5399e-10
-7.48823e-11
4.75532e-10
-7.30949e-11
4.9647e-10
-7.09998e-11
5.16981e-10
-6.86096e-11
5.36663e-10
-6.59111e-11
5.5529e-10
-6.30005e-11
5.72967e-10
-5.97511e-11
5.89635e-10
-5.6281e-11
6.05241e-10
-5.26002e-11
6.19729e-10
-4.8718e-11
6.3305e-10
-4.46543e-11
6.45406e-10
-4.04274e-11
6.56472e-10
-3.60247e-11
6.66007e-10
-3.15476e-11
6.74176e-10
-2.68652e-11
-2.20999e-11
6.80963e-10
4.43594e-13
1.02254e-12
1.91928e-12
6.02819e-13
4.26487e-12
-2.0536e-12
7.85669e-12
-6.36356e-12
1.28566e-11
-1.18393e-11
1.93775e-11
-1.8118e-11
2.74984e-11
-2.49144e-11
3.75135e-11
-3.20311e-11
4.91363e-11
-3.92671e-11
6.22922e-11
-4.61864e-11
7.69208e-11
-5.30421e-11
9.30969e-11
-5.97593e-11
1.10741e-10
-6.62278e-11
1.29706e-10
-7.23797e-11
1.4996e-10
-7.80784e-11
1.70764e-10
-8.32831e-11
1.94397e-10
-8.6244e-11
2.17811e-10
-9.04837e-11
2.42407e-10
-9.41694e-11
2.67108e-10
-9.75059e-11
2.92678e-10
-9.99948e-11
3.1869e-10
-1.01959e-10
3.45026e-10
-1.03404e-10
3.7156e-10
-1.04343e-10
3.98521e-10
-1.04812e-10
4.25305e-10
-1.04969e-10
4.51856e-10
-1.04335e-10
4.78004e-10
-1.03236e-10
5.03767e-10
-1.01711e-10
5.29042e-10
-9.97335e-11
5.53725e-10
-9.73249e-11
5.77713e-10
-9.452e-11
6.01204e-10
-9.13785e-11
6.23664e-10
-8.79397e-11
6.4509e-10
-8.3891e-11
6.65317e-10
-7.95436e-11
6.84401e-10
-7.49322e-11
7.02271e-10
-7.00313e-11
7.18859e-10
-6.48584e-11
7.34107e-10
-5.94466e-11
7.4825e-10
-5.38608e-11
7.60829e-10
-4.81398e-11
7.7184e-10
-4.199e-11
7.81177e-10
-3.57372e-11
-2.94101e-11
7.88944e-10
8.53413e-13
9.76696e-13
2.80674e-12
-6.24855e-13
5.95252e-12
-4.72643e-12
1.06245e-11
-1.05574e-11
1.69255e-11
-1.76555e-11
2.49427e-11
-2.56364e-11
3.4721e-11
-3.41776e-11
4.65616e-11
-4.30094e-11
6.04614e-11
-5.18934e-11
7.56651e-11
-6.07591e-11
9.24793e-11
-6.94417e-11
1.10991e-10
-7.77328e-11
1.31101e-10
-8.55875e-11
1.52766e-10
-9.298e-11
1.75808e-10
-9.9899e-11
2.01255e-10
-1.06275e-10
2.26051e-10
-1.1211e-10
2.52555e-10
-1.17215e-10
2.8007e-10
-1.21643e-10
3.08258e-10
-1.25437e-10
3.37029e-10
-1.28553e-10
3.66264e-10
-1.30999e-10
3.95836e-10
-1.32791e-10
4.2561e-10
-1.33925e-10
4.55641e-10
-1.34399e-10
4.85977e-10
-1.34165e-10
5.15722e-10
-1.33369e-10
5.45021e-10
-1.32065e-10
5.73905e-10
-1.30131e-10
6.02225e-10
-1.2761e-10
6.2986e-10
-1.24534e-10
6.56687e-10
-1.20925e-10
6.82881e-10
-1.16796e-10
7.08272e-10
-1.12186e-10
7.32209e-10
-1.07113e-10
7.5482e-10
-1.01695e-10
7.76182e-10
-9.58292e-11
7.96183e-10
-8.95705e-11
8.1474e-10
-8.29583e-11
8.3177e-10
-7.60209e-11
8.47496e-10
-6.87774e-11
8.61807e-10
-6.12596e-11
8.7406e-10
-5.35328e-11
8.84467e-10
-4.56845e-11
-3.76243e-11
8.93153e-10
1.03732e-12
2.65378e-13
3.51446e-12
-2.8892e-12
7.59758e-12
-8.59729e-12
1.34237e-11
-1.61774e-11
2.10922e-11
-2.51201e-11
3.0669e-11
-3.5005e-11
4.21891e-11
-4.54809e-11
5.59544e-11
-5.62466e-11
7.18386e-11
-6.70988e-11
8.91811e-11
-7.79326e-11
1.08362e-10
-8.84671e-11
1.2931e-10
-9.85602e-11
1.51921e-10
-1.08125e-10
1.76149e-10
-1.17107e-10
2.01887e-10
-1.25472e-10
2.30087e-10
-1.3319e-10
2.57847e-10
-1.40279e-10
2.87319e-10
-1.46449e-10
3.1781e-10
-1.51805e-10
3.49078e-10
-1.56391e-10
3.80942e-10
-1.6018e-10
4.13282e-10
-1.63161e-10
4.45982e-10
-1.65324e-10
4.78896e-10
-1.66664e-10
5.12113e-10
-1.67177e-10
5.45493e-10
-1.66839e-10
5.78205e-10
-1.65902e-10
6.10563e-10
-1.6422e-10
6.42426e-10
-1.61798e-10
6.73655e-10
-1.58659e-10
7.0412e-10
-1.54829e-10
7.33701e-10
-1.50332e-10
7.62532e-10
-1.45189e-10
7.90473e-10
-1.39414e-10
8.16743e-10
-1.33208e-10
8.41695e-10
-1.26451e-10
8.65232e-10
-1.19171e-10
8.87264e-10
-1.11411e-10
9.07704e-10
-1.03211e-10
9.26473e-10
-9.46015e-11
9.43771e-10
-8.5607e-11
9.59466e-10
-7.62555e-11
9.72865e-10
-6.67514e-11
9.84367e-10
-5.69842e-11
-4.69882e-11
9.93937e-10
1.12429e-12
-7.42295e-13
4.2173e-12
-5.73954e-12
9.22052e-12
-1.33754e-11
1.62215e-11
-2.29618e-11
2.52849e-11
-3.39713e-11
3.64518e-11
-4.59597e-11
4.97429e-11
-5.85537e-11
6.54106e-11
-7.14409e-11
8.32397e-11
-8.44355e-11
1.02794e-10
-9.72705e-11
1.24312e-10
-1.09781e-10
1.47694e-10
-1.2179e-10
1.72814e-10
-1.33177e-10
1.99602e-10
-1.43851e-10
2.27975e-10
-1.53751e-10
2.58802e-10
-1.62838e-10
2.89542e-10
-1.71271e-10
3.219e-10
-1.78527e-10
3.5528e-10
-1.8486e-10
3.89496e-10
-1.90293e-10
4.24344e-10
-1.94801e-10
4.59695e-10
-1.98349e-10
4.95425e-10
-2.009e-10
5.31371e-10
-2.02449e-10
5.67658e-10
-2.03011e-10
6.03836e-10
-2.02611e-10
6.39487e-10
-2.01368e-10
6.74744e-10
-1.99262e-10
7.09456e-10
-1.96287e-10
7.43471e-10
-1.92464e-10
7.76647e-10
-1.87813e-10
8.08857e-10
-1.8236e-10
8.40245e-10
-1.76136e-10
8.70457e-10
-1.69194e-10
8.99053e-10
-1.61615e-10
9.26207e-10
-1.53401e-10
9.51815e-10
-1.44571e-10
9.75783e-10
-1.35171e-10
9.98019e-10
-1.25243e-10
1.01844e-09
-1.14825e-10
1.03726e-09
-1.03954e-10
1.05414e-09
-9.27043e-11
1.06872e-09
-8.11397e-11
1.08123e-09
-6.92879e-11
-5.71769e-11
1.09163e-09
1.28572e-12
-1.90042e-12
4.94675e-12
-9.15388e-12
1.08418e-11
-1.90425e-11
1.90027e-11
-3.09004e-11
2.94572e-11
-4.42039e-11
4.22154e-11
-5.84976e-11
5.72731e-11
-7.33919e-11
7.47958e-11
-8.85591e-11
9.46782e-11
-1.03774e-10
1.16403e-10
-1.18766e-10
1.40225e-10
-1.3336e-10
1.6602e-10
-1.47367e-10
1.93645e-10
-1.60651e-10
2.23e-10
-1.73099e-10
2.53999e-10
-1.84635e-10
2.87312e-10
-1.95206e-10
3.21071e-10
-2.04978e-10
3.56216e-10
-2.13409e-10
3.92394e-10
-2.20772e-10
4.29444e-10
-2.27083e-10
4.67182e-10
-2.32318e-10
5.05461e-10
-2.36436e-10
5.44146e-10
-2.39424e-10
5.83029e-10
-2.41165e-10
6.22229e-10
-2.41759e-10
6.61196e-10
-2.41212e-10
6.99649e-10
-2.39662e-10
7.37669e-10
-2.37083e-10
7.75104e-10
-2.33486e-10
8.11786e-10
-2.28904e-10
8.47561e-10
-2.23359e-10
8.82283e-10
-2.16876e-10
9.16079e-10
-2.09484e-10
9.48557e-10
-2.01253e-10
9.79353e-10
-1.92229e-10
1.0086e-09
-1.82445e-10
1.03617e-09
-1.71934e-10
1.06198e-09
-1.60756e-10
1.08592e-09
-1.48962e-10
1.10792e-09
-1.36596e-10
1.12813e-09
-1.23703e-10
1.14624e-09
-1.10375e-10
1.16192e-09
-9.6633e-11
1.17537e-09
-8.25443e-11
-6.81499e-11
1.18656e-09
1.47812e-12
-3.25141e-12
5.69047e-12
-1.3121e-11
1.24546e-11
-2.5579e-11
2.17528e-11
-3.99727e-11
3.358e-11
-5.57988e-11
4.7916e-11
-7.2601e-11
6.47289e-11
-8.99785e-11
8.4113e-11
-1.07588e-10
1.06053e-10
-1.25147e-10
1.29928e-10
-1.42429e-10
1.56031e-10
-1.59211e-10
1.84218e-10
-1.75286e-10
2.14329e-10
-1.90521e-10
2.4623e-10
-2.04799e-10
2.79826e-10
-2.18036e-10
3.15576e-10
-2.30191e-10
3.52321e-10
-2.41383e-10
3.9019e-10
-2.51053e-10
4.2909e-10
-2.59479e-10
4.68889e-10
-2.66676e-10
5.09432e-10
-2.72629e-10
5.50541e-10
-2.7732e-10
5.92175e-10
-2.80283e-10
6.33895e-10
-2.8221e-10
6.75938e-10
-2.82929e-10
7.17601e-10
-2.82549e-10
7.58758e-10
-2.8069e-10
7.99434e-10
-2.77601e-10
8.39478e-10
-2.73316e-10
8.78718e-10
-2.67894e-10
9.16989e-10
-2.61373e-10
9.54129e-10
-2.53777e-10
9.90226e-10
-2.45133e-10
1.02492e-09
-2.35521e-10
1.05782e-09
-2.24956e-10
1.08907e-09
-2.13498e-10
1.11852e-09
-2.01182e-10
1.14609e-09
-1.88092e-10
1.17166e-09
-1.74294e-10
1.19515e-09
-1.59844e-10
1.21668e-09
-1.44791e-10
1.23601e-09
-1.2923e-10
1.25273e-09
-1.13176e-10
1.26708e-09
-9.67061e-11
-7.98693e-11
1.279e-09
1.67618e-12
-4.80073e-12
6.41968e-12
-1.76209e-11
1.40513e-11
-3.2985e-11
2.44625e-11
-5.01584e-11
3.76351e-11
-6.87356e-11
5.35241e-11
-8.82506e-11
7.20735e-11
-1.08295e-10
9.33455e-11
-1.28512e-10
1.17295e-10
-1.48534e-10
1.43306e-10
-1.68238e-10
1.71695e-10
-1.87356e-10
2.02254e-10
-2.05561e-10
2.34822e-10
-2.22811e-10
2.69232e-10
-2.38976e-10
3.05366e-10
-2.53963e-10
3.43512e-10
-2.67692e-10
3.83226e-10
-2.8025e-10
4.23775e-10
-2.91399e-10
4.65353e-10
-3.01012e-10
5.07851e-10
-3.08992e-10
5.511e-10
-3.15408e-10
5.95388e-10
-3.20304e-10
6.39505e-10
-3.24088e-10
6.83893e-10
-3.263e-10
7.28477e-10
-3.27016e-10
7.73051e-10
-3.26457e-10
8.16846e-10
-3.24326e-10
8.60123e-10
-3.20743e-10
9.02688e-10
-3.15702e-10
9.44387e-10
-3.09368e-10
9.85059e-10
-3.01789e-10
1.02454e-09
-2.92999e-10
1.06285e-09
-2.83023e-10
1.09969e-09
-2.71892e-10
1.13463e-09
-2.59699e-10
1.16782e-09
-2.46503e-10
1.19908e-09
-2.32248e-10
1.22833e-09
-2.17118e-10
1.25546e-09
-2.01187e-10
1.28038e-09
-1.84522e-10
1.30317e-09
-1.67178e-10
1.32366e-09
-1.492e-10
1.34138e-09
-1.30699e-10
1.35661e-09
-1.11747e-10
-9.22983e-11
1.36923e-09
1.8716e-12
-6.54411e-12
7.10341e-12
-2.26093e-11
1.56545e-11
-4.09326e-11
2.71286e-11
-6.1152e-11
4.16095e-11
-8.27521e-11
5.90146e-11
-1.05219e-10
7.92651e-11
-1.28131e-10
1.0247e-10
-1.51146e-10
1.28356e-10
-1.73876e-10
1.56476e-10
-1.96157e-10
1.87219e-10
-2.17459e-10
2.20108e-10
-2.38049e-10
2.55097e-10
-2.57657e-10
2.91982e-10
-2.76028e-10
3.30642e-10
-2.92932e-10
3.71207e-10
-3.08242e-10
4.13556e-10
-3.21444e-10
4.5686e-10
-3.3391e-10
5.01288e-10
-3.44703e-10
5.46561e-10
-3.53763e-10
5.92539e-10
-3.61082e-10
6.39153e-10
-3.66714e-10
6.86042e-10
-3.70741e-10
7.33129e-10
-3.73113e-10
7.80174e-10
-3.73853e-10
8.27519e-10
-3.73049e-10
8.73932e-10
-3.70533e-10
9.19834e-10
-3.66234e-10
9.64836e-10
-3.60531e-10
1.00891e-09
-3.53255e-10
1.05189e-09
-3.44486e-10
1.09361e-09
-3.34341e-10
1.13411e-09
-3.22925e-10
1.17301e-09
-3.10269e-10
1.2099e-09
-2.96374e-10
1.24505e-09
-2.81122e-10
1.27805e-09
-2.64924e-10
1.3089e-09
-2.47716e-10
1.33751e-09
-2.29532e-10
1.36379e-09
-2.10476e-10
1.38784e-09
-1.90686e-10
1.40942e-09
-1.70208e-10
1.42808e-09
-1.49146e-10
1.44422e-09
-1.27309e-10
-1.05162e-10
1.4575e-09
2.07244e-12
-8.16224e-12
7.95956e-12
-2.7624e-11
1.72415e-11
-4.94666e-11
2.97116e-11
-7.31533e-11
4.54576e-11
-9.80064e-11
6.43476e-11
-1.23586e-10
8.62561e-11
-1.49491e-10
1.11366e-10
-1.75361e-10
1.39186e-10
-2.0086e-10
1.69665e-10
-2.25622e-10
2.02407e-10
-2.49615e-10
2.37499e-10
-2.72538e-10
2.74874e-10
-2.94184e-10
3.14335e-10
-3.14466e-10
3.55655e-10
-3.33294e-10
3.99373e-10
-3.50555e-10
4.43467e-10
-3.6574e-10
4.89448e-10
-3.795e-10
5.36589e-10
-3.9146e-10
5.84582e-10
-4.01522e-10
6.33222e-10
-4.0963e-10
6.82398e-10
-4.15799e-10
7.31906e-10
-4.201e-10
7.81594e-10
-4.22568e-10
8.31146e-10
-4.23257e-10
8.81145e-10
-4.2164e-10
9.30269e-10
-4.18624e-10
9.78499e-10
-4.13929e-10
1.02599e-09
-4.07387e-10
1.07244e-09
-3.99115e-10
1.11766e-09
-3.89196e-10
1.1615e-09
-3.77718e-10
1.20407e-09
-3.64757e-10
1.245e-09
-3.50261e-10
1.284e-09
-3.34391e-10
1.32082e-09
-3.17319e-10
1.35551e-09
-2.99035e-10
1.38797e-09
-2.79575e-10
1.41804e-09
-2.59035e-10
1.44561e-09
-2.37524e-10
1.47085e-09
-2.1515e-10
1.49346e-09
-1.91896e-10
1.51328e-09
-1.67962e-10
1.53008e-09
-1.43521e-10
-1.18571e-10
1.54398e-09
2.29646e-12
-1.01292e-11
8.68126e-12
-3.35208e-11
1.86391e-11
-5.92339e-11
3.21931e-11
-8.65138e-11
4.92167e-11
-1.14838e-10
6.95837e-11
-1.43751e-10
9.31538e-11
-1.72842e-10
1.20098e-10
-2.01735e-10
1.49986e-10
-2.30139e-10
1.82455e-10
-2.57749e-10
2.17388e-10
-2.8441e-10
2.54789e-10
-3.09799e-10
2.94479e-10
-3.33758e-10
3.36301e-10
-3.56185e-10
3.80057e-10
-3.7697e-10
4.26684e-10
-3.95985e-10
4.72999e-10
-4.12685e-10
5.21553e-10
-4.27683e-10
5.7135e-10
-4.40732e-10
6.22044e-10
-4.51785e-10
6.73355e-10
-4.60744e-10
7.25128e-10
-4.6755e-10
7.77201e-10
-4.72209e-10
8.29383e-10
-4.74749e-10
8.81954e-10
-4.75205e-10
9.34053e-10
-4.73365e-10
9.85556e-10
-4.69797e-10
1.03631e-09
-4.64369e-10
1.08621e-09
-4.57006e-10
1.13496e-09
-4.47724e-10
1.18238e-09
-4.3657e-10
1.22834e-09
-4.23617e-10
1.27305e-09
-4.08946e-10
1.31595e-09
-3.92641e-10
1.35673e-09
-3.74836e-10
1.39531e-09
-3.55681e-10
1.43169e-09
-3.35165e-10
1.46569e-09
-3.13371e-10
1.49718e-09
-2.90375e-10
1.52603e-09
-2.66257e-10
1.55253e-09
-2.41115e-10
1.57615e-09
-2.15037e-10
1.59678e-09
-1.88246e-10
1.61433e-09
-1.60857e-10
-1.32891e-10
1.62889e-09
2.42468e-12
-1.2438e-11
9.21488e-12
-4.00794e-11
1.99813e-11
-6.97835e-11
3.45876e-11
-1.00915e-10
5.28828e-11
-1.32935e-10
7.47194e-11
-1.65381e-10
9.99452e-11
-1.97841e-10
1.28672e-10
-2.29944e-10
1.60508e-10
-2.61512e-10
1.9496e-10
-2.92033e-10
2.32099e-10
-3.21391e-10
2.71769e-10
-3.49333e-10
3.13752e-10
-3.75663e-10
3.57915e-10
-4.00252e-10
4.04087e-10
-4.22985e-10
4.53638e-10
-4.43731e-10
5.02231e-10
-4.62251e-10
5.53288e-10
-4.78479e-10
6.05613e-10
-4.92586e-10
6.58914e-10
-5.04586e-10
7.12872e-10
-5.14386e-10
7.67276e-10
-5.21877e-10
8.21942e-10
-5.26979e-10
8.76662e-10
-5.29629e-10
9.31988e-10
-5.29814e-10
9.86281e-10
-5.2764e-10
1.04011e-09
-5.23425e-10
1.09326e-09
-5.17145e-10
1.14551e-09
-5.0884e-10
1.19658e-09
-4.98478e-10
1.24623e-09
-4.86044e-10
1.29432e-09
-4.71582e-10
1.34107e-09
-4.55171e-10
1.38586e-09
-4.37121e-10
1.42838e-09
-4.17246e-10
1.46868e-09
-3.95809e-10
1.50668e-09
-3.72905e-10
1.54221e-09
-3.48627e-10
1.57513e-09
-3.23048e-10
1.60527e-09
-2.96226e-10
1.63296e-09
-2.68248e-10
1.65751e-09
-2.39352e-10
1.67894e-09
-2.09518e-10
1.69724e-09
-1.78959e-10
-1.4781e-10
1.71241e-09
2.55174e-12
-1.4864e-11
9.78163e-12
-4.70644e-11
2.13037e-11
-8.10803e-11
3.69254e-11
-1.16319e-10
5.64661e-11
-1.52255e-10
7.97487e-11
-1.88436e-10
1.066e-10
-2.24454e-10
1.36967e-10
-2.59939e-10
1.70809e-10
-2.94736e-10
2.07266e-10
-3.28296e-10
2.46556e-10
-3.60494e-10
2.88465e-10
-3.91072e-10
3.3274e-10
-4.19807e-10
3.79239e-10
-4.46553e-10
4.27818e-10
-4.71214e-10
4.79989e-10
-4.93753e-10
5.31206e-10
-5.1429e-10
5.84699e-10
-5.31828e-10
6.39421e-10
-5.47033e-10
6.95191e-10
-5.59974e-10
7.51712e-10
-5.70576e-10
8.08746e-10
-5.78715e-10
8.66095e-10
-5.84267e-10
9.23484e-10
-5.8708e-10
9.81388e-10
-5.87065e-10
1.03793e-09
-5.84546e-10
1.09407e-09
-5.7964e-10
1.14947e-09
-5.72392e-10
1.20399e-09
-5.62956e-10
1.25734e-09
-5.51334e-10
1.30923e-09
-5.37494e-10
1.35947e-09
-5.21465e-10
1.40806e-09
-5.03301e-10
1.45488e-09
-4.83499e-10
1.49916e-09
-4.61498e-10
1.54112e-09
-4.37713e-10
1.58066e-09
-4.12269e-10
1.61767e-09
-3.85313e-10
1.65198e-09
-3.56978e-10
1.68343e-09
-3.27335e-10
1.71218e-09
-2.9645e-10
1.73777e-09
-2.64629e-10
1.76002e-09
-2.31647e-10
1.77901e-09
-1.97819e-10
-1.6334e-10
1.79473e-09
2.69681e-12
-1.74388e-11
1.03662e-11
-5.4489e-11
2.26103e-11
-9.30946e-11
3.92163e-11
-1.32691e-10
5.99724e-11
-1.72761e-10
8.46715e-11
-2.1288e-10
1.13117e-10
-2.5265e-10
1.45063e-10
-2.91702e-10
1.80897e-10
-3.29805e-10
2.19345e-10
-3.6654e-10
2.60763e-10
-4.01688e-10
3.04915e-10
-4.34977e-10
3.51512e-10
-4.66178e-10
4.00352e-10
-4.95128e-10
4.51257e-10
-5.21768e-10
5.05556e-10
-5.45993e-10
5.59876e-10
-5.69438e-10
6.15761e-10
-5.88938e-10
6.72794e-10
-6.05251e-10
7.30916e-10
-6.18407e-10
7.89906e-10
-6.28694e-10
8.49537e-10
-6.36316e-10
9.09617e-10
-6.41396e-10
9.69791e-10
-6.44103e-10
1.03017e-09
-6.44474e-10
1.08908e-09
-6.44173e-10
1.14758e-09
-6.38522e-10
1.20513e-09
-6.30271e-10
1.2618e-09
-6.19513e-10
1.31736e-09
-6.0643e-10
1.37145e-09
-5.91007e-10
1.42383e-09
-5.73308e-10
1.47405e-09
-5.53373e-10
1.52308e-09
-5.31672e-10
1.56915e-09
-5.07558e-10
1.61277e-09
-4.81356e-10
1.65383e-09
-4.53274e-10
1.69224e-09
-4.23484e-10
1.72788e-09
-3.92209e-10
1.76059e-09
-3.59581e-10
1.79028e-09
-3.25669e-10
1.81705e-09
-2.90858e-10
1.84015e-09
-2.54577e-10
1.8598e-09
-2.17402e-10
-1.79473e-10
1.87603e-09
2.85411e-12
-2.01731e-11
1.09501e-11
-6.23423e-11
2.38867e-11
-1.058e-10
4.14701e-11
-1.50032e-10
6.34073e-11
-1.94429e-10
8.94824e-11
-2.38682e-10
1.19485e-10
-2.824e-10
1.53047e-10
-3.25209e-10
1.9077e-10
-3.66698e-10
2.31195e-10
-4.06726e-10
2.74734e-10
-4.44939e-10
3.21153e-10
-4.81063e-10
3.70102e-10
-5.14791e-10
4.21265e-10
-5.46097e-10
4.7456e-10
-5.74927e-10
5.29514e-10
-6.01232e-10
5.87651e-10
-6.2478e-10
6.46502e-10
-6.45586e-10
7.06477e-10
-6.63541e-10
7.67223e-10
-6.78491e-10
8.28631e-10
-6.90435e-10
8.90563e-10
-6.99349e-10
9.52752e-10
-7.05149e-10
1.01503e-09
-7.07817e-10
1.0758e-09
-7.07469e-10
1.1398e-09
-7.05165e-10
1.2006e-09
-6.99364e-10
1.2604e-09
-6.9039e-10
1.31915e-09
-6.78479e-10
1.37682e-09
-6.63834e-10
1.43298e-09
-6.46707e-10
1.4874e-09
-6.27238e-10
1.53918e-09
-6.05478e-10
1.59045e-09
-5.81551e-10
1.63839e-09
-5.55249e-10
1.68374e-09
-5.26698e-10
1.72635e-09
-4.95874e-10
1.76611e-09
-4.63144e-10
1.80297e-09
-4.28797e-10
1.83687e-09
-3.93014e-10
1.86736e-09
-3.55866e-10
1.89551e-09
-3.17283e-10
1.9194e-09
-2.78216e-10
1.93974e-09
-2.37581e-10
-1.96125e-10
1.95648e-09
3.02488e-12
-2.30747e-11
1.15229e-11
-7.05986e-11
2.51122e-11
-1.19162e-10
4.37259e-11
-1.68073e-10
6.67796e-11
-2.17092e-10
9.41699e-11
-2.65794e-10
1.25672e-10
-3.13695e-10
1.60979e-10
-3.60413e-10
2.0044e-10
-4.05375e-10
2.4283e-10
-4.48864e-10
2.8848e-10
-4.9027e-10
3.37214e-10
-5.29437e-10
3.88419e-10
-5.66612e-10
4.41838e-10
-6.01127e-10
4.97371e-10
-6.32506e-10
5.54726e-10
-6.6056e-10
6.1518e-10
-6.83519e-10
6.76428e-10
-7.0614e-10
7.38928e-10
-7.2551e-10
8.02183e-10
-7.41535e-10
8.66109e-10
-7.54198e-10
9.30652e-10
-7.63571e-10
9.95451e-10
-7.69661e-10
1.06025e-09
-7.72506e-10
1.12242e-09
-7.72113e-10
1.18945e-09
-7.68609e-10
1.2529e-09
-7.62357e-10
1.31515e-09
-7.52721e-10
1.37614e-09
-7.39544e-10
1.43583e-09
-7.24413e-10
1.49391e-09
-7.06036e-10
1.5502e-09
-6.84651e-10
1.60375e-09
-6.60462e-10
1.65702e-09
-6.33087e-10
1.70687e-09
-6.04648e-10
1.75411e-09
-5.72604e-10
1.79831e-09
-5.40145e-10
1.8394e-09
-5.0525e-10
1.87744e-09
-4.67926e-10
1.91245e-09
-4.28589e-10
1.94417e-09
-3.87771e-10
1.9726e-09
-3.45714e-10
1.99787e-09
-3.02457e-10
2.01887e-09
-2.58344e-10
-2.13236e-10
2.03615e-09
3.21992e-12
-2.58524e-11
1.20772e-11
-7.89705e-11
2.64771e-11
-1.32729e-10
4.5901e-11
-1.86722e-10
6.99813e-11
-2.40602e-10
9.86746e-11
-2.93794e-10
1.3168e-10
-3.45934e-10
1.68911e-10
-3.96684e-10
2.09875e-10
-4.45409e-10
2.54236e-10
-4.92184e-10
3.01896e-10
-5.36802e-10
3.52279e-10
-5.78924e-10
4.05705e-10
-6.18213e-10
4.6176e-10
-6.54747e-10
5.20029e-10
-6.8846e-10
5.81885e-10
-7.19207e-10
6.41993e-10
-7.45529e-10
7.05796e-10
-7.69419e-10
7.70885e-10
-7.89945e-10
8.36761e-10
-8.0695e-10
9.03206e-10
-8.20398e-10
9.70232e-10
-8.30368e-10
1.03749e-09
-8.36881e-10
1.10476e-09
-8.39916e-10
1.1693e-09
-8.39616e-10
1.23831e-09
-8.32074e-10
1.30439e-09
-8.24735e-10
1.36946e-09
-8.14939e-10
1.43171e-09
-8.02182e-10
1.49397e-09
-7.84875e-10
1.55437e-09
-7.64627e-10
1.6128e-09
-7.41474e-10
1.66896e-09
-7.15504e-10
1.72271e-09
-6.85651e-10
1.77566e-09
-6.53406e-10
1.82279e-09
-6.20911e-10
1.86896e-09
-5.84876e-10
1.91201e-09
-5.46608e-10
1.95164e-09
-5.06091e-10
1.98775e-09
-4.6364e-10
2.02039e-09
-4.19583e-10
2.0497e-09
-3.74186e-10
2.07556e-09
-3.27082e-10
2.09732e-09
-2.79224e-10
-2.30396e-10
2.11513e-09
3.36047e-12
-2.88716e-11
1.27346e-11
-8.78534e-11
2.77861e-11
-1.47309e-10
4.79685e-11
-2.06766e-10
7.31617e-11
-2.65652e-10
1.03122e-10
-3.23558e-10
1.37563e-10
-3.80114e-10
1.76709e-10
-4.34952e-10
2.19367e-10
-4.87918e-10
2.65504e-10
-5.38372e-10
3.15162e-10
-5.86262e-10
3.6776e-10
-6.31478e-10
4.2321e-10
-6.73707e-10
4.81294e-10
-7.12888e-10
5.41687e-10
-7.48936e-10
6.07084e-10
-7.81675e-10
6.68671e-10
-8.09985e-10
7.34861e-10
-8.3513e-10
8.02484e-10
-8.56719e-10
8.70916e-10
-8.74814e-10
9.39807e-10
-8.8912e-10
1.00921e-09
-8.99752e-10
1.0789e-09
-9.06611e-10
1.14841e-09
-9.09543e-10
1.21917e-09
-9.08399e-10
1.28698e-09
-9.0299e-10
1.35459e-09
-8.94608e-10
1.42164e-09
-8.82718e-10
1.48751e-09
-8.67522e-10
1.55179e-09
-8.48959e-10
1.61421e-09
-8.27017e-10
1.67454e-09
-8.01703e-10
1.73376e-09
-7.73005e-10
1.78917e-09
-7.42553e-10
1.84172e-09
-7.07588e-10
1.8917e-09
-6.70466e-10
1.93941e-09
-6.31387e-10
1.98411e-09
-5.90211e-10
2.02512e-09
-5.46757e-10
2.06232e-09
-5.01063e-10
2.09585e-09
-4.53416e-10
2.12646e-09
-4.04146e-10
2.15269e-09
-3.53272e-10
2.17511e-09
-3.01455e-10
-2.48542e-10
2.19357e-09
3.4638e-12
-3.22176e-11
1.3253e-11
-9.74139e-11
2.8883e-11
-1.6275e-10
4.99885e-11
-2.27716e-10
7.62919e-11
-2.91822e-10
1.07534e-10
-3.54621e-10
1.43438e-10
-4.15738e-10
1.84044e-10
-4.74829e-10
2.28654e-10
-5.32119e-10
2.76681e-10
-5.86342e-10
3.28217e-10
-6.37744e-10
3.8291e-10
-6.86152e-10
4.40403e-10
-7.3133e-10
5.00542e-10
-7.73131e-10
5.63104e-10
-8.11447e-10
6.31743e-10
-8.46096e-10
6.95277e-10
-8.76888e-10
7.6377e-10
-9.03232e-10
8.33618e-10
-9.25932e-10
9.04538e-10
-9.45093e-10
9.75808e-10
-9.60378e-10
1.04765e-09
-9.71781e-10
1.11994e-09
-9.791e-10
1.19218e-09
-9.81989e-10
1.26597e-09
-9.80256e-10
1.33541e-09
-9.74465e-10
1.40534e-09
-9.64855e-10
1.47448e-09
-9.51541e-10
1.54258e-09
-9.34951e-10
1.60912e-09
-9.14915e-10
1.67378e-09
-8.91161e-10
1.73634e-09
-8.63526e-10
1.79627e-09
-8.32042e-10
1.85526e-09
-8.01027e-10
1.90912e-09
-7.62963e-10
1.96022e-09
-7.22299e-10
2.00919e-09
-6.79604e-10
2.05541e-09
-6.35041e-10
2.09795e-09
-5.88335e-10
2.13648e-09
-5.3932e-10
2.17105e-09
-4.88107e-10
2.20275e-09
-4.34989e-10
2.22946e-09
-3.80186e-10
2.25257e-09
-3.24239e-10
-2.67188e-10
2.27158e-09
3.56164e-12
-3.5659e-11
1.37303e-11
-1.07331e-10
2.99834e-11
-1.78777e-10
5.19797e-11
-2.49505e-10
7.94e-11
-3.19033e-10
1.11937e-10
-3.86912e-10
1.493e-10
-4.5278e-10
1.90975e-10
-5.16315e-10
2.37783e-10
-5.77904e-10
2.87643e-10
-6.36081e-10
3.41082e-10
-6.91131e-10
3.97807e-10
-7.42823e-10
4.5738e-10
-7.90908e-10
5.19628e-10
-8.35211e-10
5.84424e-10
-8.75705e-10
6.55476e-10
-9.12448e-10
7.219e-10
-9.45983e-10
7.92464e-10
-9.73705e-10
8.64249e-10
-9.9741e-10
9.3751e-10
-1.01868e-09
1.01109e-09
-1.03232e-09
1.08545e-09
-1.04196e-09
1.16058e-09
-1.04772e-09
1.23581e-09
-1.05006e-09
1.31206e-09
-1.04902e-09
1.38384e-09
-1.04921e-09
1.45599e-09
-1.03805e-09
1.52694e-09
-1.02321e-09
1.59705e-09
-1.0048e-09
1.66598e-09
-9.82781e-10
1.73318e-09
-9.56735e-10
1.79825e-09
-9.26604e-10
1.85649e-09
-8.9269e-10
1.92132e-09
-8.61246e-10
1.97676e-09
-8.2087e-10
2.02887e-09
-7.76982e-10
2.07869e-09
-7.30458e-10
2.12612e-09
-6.81899e-10
2.17014e-09
-6.31332e-10
2.21011e-09
-5.78598e-10
2.2459e-09
-5.23642e-10
2.27866e-09
-4.66616e-10
2.30595e-09
-4.07925e-10
2.32968e-09
-3.47702e-10
-2.8634e-10
2.34917e-09
3.67439e-12
-3.92326e-11
1.42123e-11
-1.17619e-10
3.1079e-11
-1.95389e-10
5.39454e-11
-2.72075e-10
8.24819e-11
-3.47228e-10
1.16311e-10
-4.2039e-10
1.55119e-10
-4.91245e-10
1.97679e-10
-5.59475e-10
2.46709e-10
-6.25265e-10
2.98377e-10
-6.87629e-10
3.5376e-10
-7.46494e-10
4.12565e-10
-8.01518e-10
4.7432e-10
-8.52501e-10
5.38707e-10
-8.99299e-10
6.05565e-10
-9.42013e-10
6.78021e-10
-9.80733e-10
7.48418e-10
-1.01879e-09
8.21123e-10
-1.04989e-09
8.93458e-10
-1.07527e-09
9.72427e-10
-1.0932e-09
1.04812e-09
-1.10999e-09
1.12457e-09
-1.12203e-09
1.20124e-09
-1.12925e-09
1.27804e-09
-1.13138e-09
1.35118e-09
-1.12849e-09
1.43253e-09
-1.12388e-09
1.50656e-09
-1.11293e-09
1.57938e-09
-1.09722e-09
1.65138e-09
-1.07708e-09
1.72276e-09
-1.05274e-09
1.79249e-09
-1.0242e-09
1.85997e-09
-9.91843e-10
1.91431e-09
-9.56345e-10
1.98668e-09
-9.21872e-10
2.04421e-09
-8.80021e-10
2.09776e-09
-8.33773e-10
2.14841e-09
-7.83781e-10
2.19677e-09
-7.31093e-10
2.24199e-09
-6.76286e-10
2.28331e-09
-6.19338e-10
2.32036e-09
-5.60287e-10
2.35407e-09
-4.99163e-10
2.38224e-09
-4.364e-10
2.40656e-09
-3.71816e-10
-3.06015e-10
2.42648e-09
3.81427e-12
-4.29536e-11
1.47181e-11
-1.28283e-10
3.21834e-11
-2.12585e-10
5.58812e-11
-2.95437e-10
8.55232e-11
-3.76418e-10
1.20596e-10
-4.55032e-10
1.60806e-10
-5.31111e-10
2.04407e-10
-6.04321e-10
2.55342e-10
-6.74233e-10
3.0884e-10
-7.40905e-10
3.66296e-10
-8.03714e-10
4.27285e-10
-8.62255e-10
4.91318e-10
-9.1629e-10