/*--------------------------------*- C++ -*----------------------------------*\
  =========                 |
  \\      /  F ield         | OpenFOAM: The Open Source CFD Toolbox
   \\    /   O peration     | Website:  https://openfoam.org
    \\  /    A nd           | Version:  7
     \\/     M anipulation  |
\*---------------------------------------------------------------------------*/
FoamFile
{
    version     2.0;
    format      ascii;
    class       volScalarField;
    location    "1.1";
    object      T;
}
// * * * * * * * * * * * * * * * * * * * * * * * * * * * * * * * * * * * * * //

dimensions      [0 0 0 1 0 0 0];

internalField   nonuniform List<scalar> 
64512
(
1
1
1
1
1
1
1
1
1
1
1
1
1
1
1
1
1
1
1
1
1
1
1
1
1
1
1
1
1
1
1
1
1
1
1
1
1
1
1
1
1
1
1
1
1
1
1
1
1
1
1
1
1
1.8483
2.69435
2.76299
2.76134
2.76467
2.76219
2.7571
2.75345
2.75401
2.76009
2.77401
2.78963
2.80042
2.80915
2.81047
2.80896
2.80651
2.80607
2.80913
2.81631
2.82372
2.83011
2.83474
2.8373
2.83948
2.84278
2.84768
2.85299
2.8575
2.86173
2.86594
2.87021
2.87453
2.87896
2.8835
2.88853
2.89493
2.90718
2.93621
2.98943
3.05635
3.10771
3.12672
1
1
1
1
1
1
1
1
1
1
1
1
1
1
1
1
1
1
1
1
1
1
1
1
1
1
1
1
1
1
1
1
1
1
1
1
1
1
1
1
1
1
1
1
1
1
1
1
1
1
1
1
1
1.83917
2.69336
2.76238
2.76142
2.76414
2.76176
2.7567
2.75318
2.75387
2.76001
2.77405
2.78954
2.80031
2.80879
2.81013
2.80866
2.80627
2.80589
2.80893
2.81609
2.82353
2.82995
2.83467
2.83727
2.83945
2.84266
2.84742
2.85263
2.85719
2.86161
2.86607
2.87053
2.87483
2.87895
2.88304
2.88777
2.89427
2.90701
2.93648
2.98987
3.05666
3.10785
3.12664
1
1
1
1
1
1
1
1
1
1
1
1
1
1
1
1
1
1
1
1
1
1
1
1
1
1
1
1
1
1
1
1
1
1
1
1
1
1
1
1
1
1
1
1
1
1
1
1
1
1
1
1
1
1.81992
2.69062
2.76124
2.76053
2.76273
2.76048
2.75557
2.75244
2.75345
2.7599
2.77421
2.78955
2.80014
2.80821
2.80952
2.80806
2.80568
2.80544
2.80853
2.81568
2.82323
2.82968
2.8345
2.83716
2.83942
2.84261
2.84719
2.85216
2.85663
2.86123
2.86608
2.87087
2.87519
2.87894
2.8825
2.88685
2.89348
2.90691
2.937
2.99072
3.05747
3.10857
3.12719
1
1
1
1
1
1
1
1
1
1
1
1
1
1
1
1
1
1
1
1
1
1
1
1
1
1
1
1
1
1
1
1
1
1
1
1
1
1
1
1
1
1
1
1
1
1
1
1
1
1
1
1
1
1.79519
2.68498
2.75947
2.75892
2.76096
2.75872
2.75391
2.75132
2.7529
2.75987
2.77465
2.78971
2.79992
2.8074
2.8086
2.80713
2.80475
2.80465
2.80785
2.81503
2.82275
2.82927
2.83422
2.83697
2.83936
2.84257
2.84701
2.85171
2.85599
2.86068
2.86584
2.87093
2.87528
2.87875
2.88189
2.8859
2.89262
2.90678
2.93768
2.99202
3.05894
3.10993
3.12837
1
1
1
1
1
1
1
1
1
1
1
1
1
1
1
1
1
1
1
1
1
1
1
1
1
1
1
1
1
1
1
1
1
1
1
1
1
1
1
1
1
1
1
1
1
1
1
1
1
1
1
1
1
1.76336
2.67683
2.75734
2.75663
2.7586
2.75618
2.75152
2.74973
2.75231
2.76017
2.77556
2.79014
2.79973
2.8064
2.8074
2.80592
2.80354
2.80355
2.80691
2.81414
2.82208
2.82875
2.83384
2.83668
2.83922
2.84256
2.84689
2.85134
2.85539
2.85998
2.86525
2.87049
2.87491
2.87831
2.8813
2.88512
2.89189
2.90661
2.93832
2.99349
3.06084
3.11189
3.13032
1
1
1
1
1
1
1
1
1
1
1
1
1
1
1
1
1
1
1
1
1
1
1
1
1
1
1
1
1
1
1
1
1
1
1
1
1
1
1
1
1
1
1
1
1
1
1
1
1
1
1
1
1
1.72107
2.66535
2.75499
2.7538
2.75554
2.75283
2.74858
2.74786
2.75196
2.76112
2.77708
2.79081
2.79947
2.80514
2.80594
2.80448
2.80212
2.80223
2.80573
2.813
2.82119
2.82807
2.83333
2.83627
2.83898
2.84248
2.84676
2.85098
2.85483
2.85917
2.86433
2.86952
2.87402
2.87755
2.8807
2.88455
2.89134
2.90634
2.93867
2.99478
3.06285
3.11421
3.1329
1
1
1
1
1
1
1
1
1
1
1
1
1
1
1
1
1
1
1
1
1
1
1
1
1
1
1
1
1
1
1
1
1
1
1
1
1
1
1
1
1
1
1
1
1
1
1
1
1
1
1
1
1
1.66819
2.64962
2.75234
2.75052
2.75154
2.74869
2.74525
2.7458
2.75228
2.76296
2.7791
2.79146
2.79897
2.80356
2.80415
2.80273
2.80045
2.80064
2.80429
2.81158
2.82005
2.82727
2.83273
2.83582
2.83864
2.84226
2.84648
2.85049
2.85419
2.85825
2.86312
2.86814
2.87267
2.87645
2.87999
2.88409
2.89086
2.90592
2.93872
2.99571
3.06467
3.11656
3.13572
1
1
1
1
1
1
1
1
1
1
1
1
1
1
1
1
1
1
1
1
1
1
1
1
1
1
1
1
1
1
1
1
1
1
1
1
1
1
1
1
1
1
1
1
1
1
1
1
1
1
1
1
1
1.60295
2.62886
2.74988
2.74715
2.74625
2.74348
2.74208
2.74441
2.75335
2.76579
2.78136
2.79176
2.79802
2.80159
2.80197
2.80064
2.79854
2.79888
2.80275
2.81003
2.81876
2.82636
2.83204
2.8353
2.83819
2.84177
2.84583
2.84964
2.85328
2.85716
2.86174
2.86655
2.87109
2.8751
2.87912
2.88356
2.89026
2.90528
2.93847
2.99622
3.06609
3.11859
3.13829
1
1
1
1
1
1
1
1
1
1
1
1
1
1
1
1
1
1
1
1
1
1
1
1
1
1
1
1
1
1
1
1
1
1
1
1
1
1
1
1
1
1
1
1
1
1
1
1
1
1
1
1
1
1.52967
2.60371
2.74632
2.7426
2.73997
2.73802
2.7392
2.74446
2.75535
2.76932
2.78343
2.79159
2.79654
2.79917
2.79934
2.79813
2.79636
2.79699
2.80122
2.80847
2.81737
2.8253
2.83117
2.83464
2.83756
2.84099
2.8448
2.84839
2.852
2.85582
2.86021
2.8649
2.86944
2.87363
2.87798
2.8827
2.8894
2.90436
2.93789
2.99635
3.06701
3.11998
3.14011
1
1
1
1
1
1
1
1
1
1
1
1
1
1
1
1
1
1
1
1
1
1
1
1
1
1
1
1
1
1
1
1
1
1
1
1
1
1
1
1
1
1
1
1
1
1
1
1
1
1
1
1
1
1.45268
2.57407
2.74018
2.73498
2.73327
2.7336
2.7374
2.74589
2.75843
2.77277
2.78473
2.7908
2.79456
2.79636
2.79625
2.79512
2.79387
2.79498
2.79982
2.80709
2.81606
2.82418
2.8301
2.83375
2.8367
2.83992
2.84342
2.84677
2.85034
2.85415
2.85851
2.86318
2.86774
2.87205
2.87655
2.88141
2.88814
2.90313
2.937
2.99614
3.06739
3.12059
3.14086
1
1
1
1
1
1
1
1
1
1
1
1
1
1
1
1
1
1
1
1
1
1
1
1
1
1
1
1
1
1
1
1
1
1
1
1
1
1
1
1
1
1
1
1
1
1
1
1
1
1
1
1
1
1.36903
2.5341
2.7299
2.72595
2.7276
2.73119
2.73796
2.74895
2.76205
2.77532
2.78499
2.78935
2.79217
2.79321
2.79273
2.79162
2.79097
2.79279
2.7986
2.80606
2.81505
2.82313
2.82885
2.83254
2.83548
2.83852
2.8418
2.84494
2.8484
2.85216
2.85655
2.8613
2.86592
2.8703
2.87481
2.87966
2.88641
2.90152
2.93576
2.9955
3.0673
3.12062
3.14079
1
1
1
1
1
1
1
1
1
1
1
1
1
1
1
1
1
1
1
1
1
1
1
1
1
1
1
1
1
1
1
1
1
1
1
1
1
1
1
1
1
1
1
1
1
1
1
1
1
1
1
1
1
1.2728
2.4765
2.71647
2.71914
2.72506
2.73247
2.74181
2.75374
2.76584
2.77667
2.78406
2.78707
2.78913
2.78961
2.78878
2.78768
2.78761
2.79038
2.79741
2.80542
2.81449
2.82228
2.82744
2.83094
2.8338
2.83677
2.84001
2.84305
2.84633
2.84996
2.85431
2.85916
2.86388
2.86832
2.87277
2.8775
2.88421
2.89948
2.93405
2.99429
3.06667
3.12026
3.14024
1
1
1
1
1
1
1
1
1
1
1
1
1
1
1
1
1
1
1
1
1
1
1
1
1
1
1
1
1
1
1
1
1
1
1
1
1
1
1
1
1
1
1
1
1
1
1
1
1
1
1
1
1
1.14912
2.39949
2.70681
2.71849
2.72788
2.73778
2.74817
2.75884
2.76878
2.77664
2.78179
2.78392
2.78531
2.7854
2.78437
2.78345
2.78395
2.78781
2.79609
2.80507
2.81429
2.82154
2.82583
2.82889
2.83161
2.83463
2.83807
2.84119
2.84428
2.84767
2.85185
2.85675
2.86159
2.86605
2.8704
2.87493
2.88156
2.89698
2.93175
2.99235
3.06531
3.1194
3.13926
1
1
1
1
1
1
1
1
1
1
1
1
1
1
1
1
1
1
1
1
1
1
1
1
1
1
1
1
1
1
1
1
1
1
1
1
1
1
1
1
1
1
1
1
1
1
1
1
1
1
1
1
1
1.01076
2.31362
2.7072
2.72102
2.7319
2.7431
2.75348
2.76255
2.77049
2.77594
2.77868
2.77962
2.78031
2.78021
2.77957
2.77916
2.78035
2.78533
2.79461
2.80486
2.81421
2.8206
2.82387
2.82635
2.82887
2.83204
2.83588
2.83928
2.84219
2.8453
2.84921
2.85411
2.85905
2.86355
2.86769
2.87195
2.8786
2.89407
2.9288
2.98957
3.06314
3.11797
3.1379
1
1
1
1
1
1
1
1
1
1
1
1
1
1
1
1
1
1
1
1
1
1
1
1
1
1
1
1
1
1
1
1
1
1
1
1
1
1
1
1
1
1
1
1
1
1
1
1
1
1
1
1
1
1.00006
2.21903
2.70292
2.72383
2.73662
2.7483
2.75782
2.76505
2.77077
2.77401
2.77452
2.77422
2.77405
2.7739
2.77432
2.77494
2.7773
2.78355
2.79365
2.80475
2.81399
2.81917
2.82142
2.82328
2.82559
2.82898
2.83337
2.83715
2.83996
2.84285
2.84651
2.85132
2.85633
2.86085
2.86474
2.86865
2.8753
2.89071
2.92517
2.98591
3.0601
3.11589
3.13614
1
1
1
1
1
1
1
1
1
1
1
1
1
1
1
1
1
1
1
1
1
1
1
1
1
1
1
1
1
1
1
1
1
1
1
1
1
1
1
1
1
1
1
1
1
1
1
1
1
1
1
1
1
1
2.1077
2.69507
2.72584
2.7392
2.75088
2.75992
2.76612
2.76958
2.77045
2.76934
2.7676
2.76675
2.76694
2.76846
2.77091
2.77507
2.78288
2.7936
2.80479
2.8133
2.81701
2.8183
2.81961
2.82185
2.82556
2.83051
2.83469
2.83745
2.84019
2.84366
2.84835
2.85339
2.85793
2.86161
2.86518
2.87173
2.88693
2.92091
2.98142
3.05617
3.11304
3.13382
1
1
1
1
1
1
1
1
1
1
1
1
1
1
1
1
1
1
1
1
1
1
1
1
1
1
1
1
1
1
1
1
1
1
1
1
1
1
1
1
1
1
1
1
1
1
1
1
1
1
1
1
1
1
1.98079
2.67848
2.72542
2.74011
2.75138
2.75949
2.76455
2.76609
2.76544
2.76318
2.76038
2.75891
2.75976
2.76251
2.76711
2.77367
2.78313
2.79437
2.80499
2.81202
2.81403
2.81456
2.81545
2.81777
2.82192
2.82735
2.8318
2.83458
2.83717
2.8405
2.84512
2.85019
2.85477
2.8583
2.86158
2.86791
2.88273
2.91606
2.97616
3.05137
3.1093
3.13074
1
1
1
1
1
1
1
1
1
1
1
1
1
1
1
1
1
1
1
1
1
1
1
1
1
1
1
1
1
1
1
1
1
1
1
1
1
1
1
1
1
1
1
1
1
1
1
1
1
1
1
1
1
1
1.84388
2.65337
2.72153
2.73781
2.74873
2.75584
2.75983
2.76035
2.75932
2.75672
2.75355
2.75176
2.75293
2.75693
2.76375
2.7729
2.78404
2.79573
2.80506
2.80993
2.81023
2.81014
2.81078
2.81337
2.81815
2.82405
2.82868
2.83146
2.83381
2.83696
2.84153
2.84662
2.85127
2.85473
2.85784
2.86388
2.87817
2.91069
2.97022
3.04573
3.10462
3.1267
1
1
1
1
1
1
1
1
1
1
1
1
1
1
1
1
1
1
1
1
1
1
1
1
1
1
1
1
1
1
1
1
1
1
1
1
1
1
1
1
1
1
1
1
1
1
1
1
1
1
1
1
1
1
1.69481
2.61601
2.71363
2.73035
2.74126
2.748
2.75213
2.75316
2.75243
2.75034
2.74754
2.746
2.74766
2.75277
2.76143
2.77258
2.78503
2.7966
2.80424
2.80682
2.80594
2.80515
2.80564
2.80869
2.81426
2.82074
2.82554
2.82821
2.8302
2.83305
2.83744
2.8425
2.84719
2.85065
2.85376
2.85954
2.8732
2.90482
2.96366
3.03933
3.09902
3.12164
1
1
1
1
1
1
1
1
1
1
1
1
1
1
1
1
1
1
1
1
1
1
1
1
1
1
1
1
1
1
1
1
1
1
1
1
1
1
1
1
1
1
1
1
1
1
1
1
1
1
1
1
1
1
1.52009
2.55638
2.70227
2.71846
2.7298
2.73726
2.74253
2.74523
2.74562
2.74474
2.74321
2.74255
2.74481
2.75087
2.76058
2.77273
2.7856
2.79619
2.80169
2.80231
2.80073
2.7996
2.80013
2.80378
2.81026
2.81741
2.82241
2.82491
2.82649
2.82886
2.83286
2.83778
2.84246
2.84599
2.84926
2.85483
2.86786
2.89853
2.95654
3.03215
3.0924
3.11537
1
1
1
1
1
1
1
1
1
1
1
1
1
1
1
1
1
1
1
1
1
1
1
1
1
1
1
1
1
1
1
1
1
1
1
1
1
1
1
1
1
1
1
1
1
1
1
1
1
1
1
1
1
1
1.31888
2.47668
2.69549
2.70559
2.71771
2.72716
2.73423
2.73851
2.74023
2.74047
2.74052
2.74108
2.74423
2.75124
2.76138
2.77328
2.78503
2.7937
2.79716
2.79685
2.79488
2.79374
2.7945
2.79875
2.80605
2.81381
2.8191
2.82149
2.8227
2.82454
2.82797
2.83255
2.83703
2.84064
2.84402
2.84944
2.86193
2.89169
2.9488
3.0242
3.08485
3.10801
1
1
1
1
1
1
1
1
1
1
1
1
1
1
1
1
1
1
1
1
1
1
1
1
1
1
1
1
1
1
1
1
1
1
1
1
1
1
1
1
1
1
1
1
1
1
1
1
1
1
1
1
1
1
1.12766
2.39044
2.69613
2.70294
2.7135
2.72279
2.72965
2.73387
2.73562
2.7366
2.73792
2.73984
2.74411
2.75205
2.76236
2.77342
2.78317
2.78932
2.79114
2.79053
2.78861
2.78768
2.78886
2.79374
2.80165
2.80983
2.8154
2.81778
2.81869
2.82002
2.82286
2.82698
2.83114
2.83468
2.83805
2.84331
2.85532
2.88416
2.94029
3.01534
3.0762
3.09941
1
1
1
1
1
1
1
1
1
1
1
1
1
1
1
1
1
1
1
1
1
1
1
1
1
1
1
1
1
1
1
1
1
1
1
1
1
1
1
1
1
1
1
1
1
1
1
1
1
1
1
1
1
1
1.00498
2.29269
2.69078
2.70413
2.7156
2.72439
2.73024
2.73294
2.73378
2.73503
2.73706
2.73973
2.74454
2.75268
2.76277
2.77236
2.77954
2.7834
2.78413
2.78345
2.78193
2.78156
2.7834
2.78898
2.79726
2.80553
2.81117
2.81351
2.81418
2.8151
2.81745
2.82114
2.82495
2.8282
2.83131
2.83625
2.84768
2.87557
2.93066
3.00535
3.06651
3.08978
1
1
1
1
1
1
1
1
1
1
1
1
1
1
1
1
1
1
1
1
1
1
1
1
1
1
1
1
1
1
1
1
1
1
1
1
1
1
1
1
1
1
1
1
1
1
1
1
1
1
1
1
1
1
1.00002
2.16587
2.68688
2.70998
2.72026
2.72827
2.73277
2.73417
2.73407
2.73445
2.73592
2.73862
2.7436
2.7514
2.76102
2.76881
2.77399
2.77641
2.77669
2.77605
2.77508
2.7754
2.77822
2.78449
2.79292
2.801
2.80644
2.80856
2.80896
2.80955
2.81154
2.81496
2.81853
2.82142
2.82409
2.82849
2.83916
2.86586
2.91966
2.99388
3.05536
3.07872
1
1
1
1
1
1
1
1
1
1
1
1
1
1
1
1
1
1
1
1
1
1
1
1
1
1
1
1
1
1
1
1
1
1
1
1
1
1
1
1
1
1
1
1
1
1
1
1
1
1
1
1
1
1
1
2.00763
2.66698
2.71166
2.72177
2.72855
2.73217
2.73292
2.73249
2.73254
2.7335
2.73574
2.74027
2.7473
2.7562
2.7628
2.76693
2.7687
2.76902
2.76867
2.76847
2.76958
2.7734
2.78027
2.78863
2.79623
2.8012
2.80286
2.80294
2.80323
2.80493
2.80823
2.81169
2.81429
2.81638
2.81993
2.82945
2.85461
2.90684
2.98057
3.04268
3.06644
1
1
1
1
1
1
1
1
1
1
1
1
1
1
1
1
1
1
1
1
1
1
1
1
1
1
1
1
1
1
1
1
1
1
1
1
1
1
1
1
1
1
1
1
1
1
1
1
1
1
1
1
1
1
1
1.81431
2.61733
2.7025
2.71437
2.72328
2.72771
2.72912
2.729
2.729
2.72949
2.73073
2.73411
2.74005
2.74814
2.75435
2.75827
2.76004
2.76088
2.76144
2.76238
2.76459
2.7692
2.77633
2.7842
2.79097
2.79528
2.79646
2.79622
2.79616
2.7975
2.80067
2.80416
2.80665
2.80827
2.81089
2.81902
2.84221
2.89228
2.96506
3.0277
3.05184
1
1
1
1
1
1
1
1
1
1
1
1
1
1
1
1
1
1
1
1
1
1
1
1
1
1
1
1
1
1
1
1
1
1
1
1
1
1
1
1
1
1
1
1
1
1
1
1
1
1
1
1
1
1
1
1.54306
2.52075
2.69042
2.69761
2.70805
2.71519
2.71995
2.72216
2.72291
2.72307
2.72371
2.726
2.73077
2.73804
2.74451
2.74903
2.75148
2.75318
2.75493
2.75704
2.76022
2.76531
2.77232
2.77941
2.78518
2.78877
2.7895
2.78892
2.78838
2.78928
2.79214
2.79567
2.79821
2.79947
2.80104
2.80729
2.82782
2.87514
2.94679
3.01023
3.03526
1
1
1
1
1
1
1
1
1
1
1
1
1
1
1
1
1
1
1
1
1
1
1
1
1
1
1
1
1
1
1
1
1
1
1
1
1
1
1
1
1
1
1
1
1
1
1
1
1
1
1
1
1
1
1
1.21051
2.40583
2.6808
2.68399
2.69389
2.70383
2.71125
2.71562
2.71739
2.71736
2.71761
2.71929
2.72306
2.72951
2.73587
2.74027
2.74277
2.74518
2.74821
2.7515
2.7558
2.76141
2.76818
2.7743
2.77892
2.78168
2.78199
2.78105
2.77997
2.78036
2.78266
2.78605
2.78865
2.78966
2.7903
2.7946
2.81217
2.85609
2.92563
2.98898
3.01408
1
1
1
1
1
1
1
1
1
1
1
1
1
1
1
1
1
1
1
1
1
1
1
1
1
1
1
1
1
1
1
1
1
1
1
1
1
1
1
1
1
1
1
1
1
1
1
1
1
1
1
1
1
1
1
1.01068
2.31558
2.67187
2.67318
2.68498
2.69609
2.70395
2.70843
2.71046
2.71102
2.71171
2.71346
2.71669
2.72223
2.72838
2.73293
2.73592
2.73913
2.74308
2.74688
2.75163
2.75727
2.76346
2.76856
2.7721
2.77402
2.7739
2.7727
2.77111
2.77089
2.77243
2.77533
2.77775
2.7784
2.77819
2.78029
2.79372
2.83263
2.89919
2.96252
2.98896
1
1
1
1
1
1
1
1
1
1
1
1
1
1
1
1
1
1
1
1
1
1
1
1
1
1
1
1
1
1
1
1
1
1
1
1
1
1
1
1
1
1
1
1
1
1
1
1
1
1
1
1
1
1
1
1.00004
2.16615
2.66121
2.67997
2.69133
2.69909
2.70497
2.70845
2.70999
2.71065
2.71093
2.71189
2.71398
2.71797
2.7233
2.72763
2.73081
2.73445
2.73878
2.7426
2.74726
2.75248
2.75777
2.76192
2.76458
2.76578
2.76527
2.76382
2.76183
2.76094
2.76166
2.76365
2.7654
2.7653
2.76412
2.76406
2.77323
2.80669
2.869
2.92955
2.95189
1
1
1
1
1
1
1
1
1
1
1
1
1
1
1
1
1
1
1
1
1
1
1
1
1
1
1
1
1
1
1
1
1
1
1
1
1
1
1
1
1
1
1
1
1
1
1
1
1
1
1
1
1
1
1
1
1.96069
2.63539
2.68376
2.69499
2.70271
2.70704
2.70912
2.7099
2.71019
2.71017
2.71047
2.71193
2.71477
2.7194
2.72355
2.7268
2.73052
2.73462
2.73817
2.74227
2.74661
2.75078
2.75404
2.75605
2.75673
2.75601
2.75436
2.75219
2.7507
2.75052
2.75118
2.75178
2.75059
2.74751
2.74509
2.74956
2.77392
2.82619
2.88101
2.901
1
1
1
1
1
1
1
1
1
1
1
1
1
1
1
1
1
1
1
1
1
1
1
1
1
1
1
1
1
1
1
1
1
1
1
1
1
1
1
1
1
1
1
1
1
1
1
1
1
1
1
1
1
1
1
1
1.66661
2.5468
2.67839
2.69014
2.69877
2.70434
2.70715
2.70795
2.70797
2.70764
2.70726
2.70835
2.71064
2.71505
2.71941
2.7229
2.72648
2.72996
2.73304
2.73636
2.73953
2.74248
2.74489
2.74639
2.74674
2.74596
2.74427
2.74215
2.7403
2.73912
2.73838
2.73728
2.73421
2.72848
2.72267
2.72184
2.73625
2.77669
2.82566
2.85227
1
1
1
1
1
1
1
1
1
1
1
1
1
1
1
1
1
1
1
1
1
1
1
1
1
1
1
1
1
1
1
1
1
1
1
1
1
1
1
1
1
1
1
1
1
1
1
1
1
1
1
1
1
1
1
1
1.28765
2.42308
2.66868
2.67344
2.68523
2.69518
2.70051
2.70198
2.70209
2.70164
2.70108
2.70213
2.70454
2.70916
2.7141
2.71794
2.72138
2.72423
2.72682
2.72932
2.73134
2.73313
2.73465
2.73564
2.73573
2.73491
2.73338
2.73151
2.72957
2.72756
2.72533
2.72216
2.71658
2.70779
2.69708
2.68993
2.69259
2.70382
2.69256
2.58985
1
1
1
1
1
1
1
1
1
1
1
1
1
1
1
1
1
1
1
1
1
1
1
1
1
1
1
1
1
1
1
1
1
1
1
1
1
1
1
1
1
1
1
1
1
1
1
1
1
1
1
1
1
1
1
1
1.02003
2.30698
2.65347
2.66049
2.67301
2.68414
2.69043
2.69293
2.69367
2.69331
2.69269
2.69369
2.69635
2.70127
2.70692
2.71128
2.71472
2.71716
2.71926
2.72098
2.72195
2.72265
2.72335
2.72394
2.72392
2.72315
2.72186
2.72023
2.71832
2.71572
2.71211
2.70668
2.69829
2.68623
2.67064
2.65472
2.64011
2.62251
2.57858
2.41271
1
1
1
1
1
1
1
1
1
1
1
1
1
1
1
1
1
1
1
1
1
1
1
1
1
1
1
1
1
1
1
1
1
1
1
1
1
1
1
1
1
1
1
1
1
1
1
1
1
1
1
1
1
1
1
1
1.00009
2.13063
2.63239
2.66033
2.67249
2.67826
2.68175
2.68388
2.68473
2.68469
2.68397
2.68485
2.68762
2.69227
2.69823
2.70311
2.70671
2.70903
2.71059
2.71161
2.71174
2.71163
2.71178
2.71209
2.71196
2.71115
2.70993
2.70842
2.7065
2.70345
2.69859
2.691
2.67974
2.66443
2.64398
2.62013
2.59048
2.55726
2.47008
2.30486
1
1
1
1
1
1
1
1
1
1
1
1
1
1
1
1
1
1
1
1
1
1
1
1
1
1
1
1
1
1
1
1
1
1
1
1
1
1
1
1
1
1
1
1
1
1
1
1
1
1
1
1
1
1
1
1
1
1.87475
2.59354
2.65812
2.66928
2.6742
2.67721
2.67869
2.67878
2.67831
2.67686
2.677
2.67913
2.68337
2.68922
2.69457
2.69843
2.70087
2.70177
2.70214
2.70168
2.70083
2.7004
2.7004
2.70017
2.69934
2.69799
2.69637
2.69419
2.69065
2.68462
2.67515
2.66128
2.64307
2.61876
2.58829
2.54919
2.4951
2.39593
2.23807
1
1
1
1
1
1
1
1
1
1
1
1
1
1
1
1
1
1
1
1
1
1
1
1
1
1
1
1
1
1
1
1
1
1
1
1
1
1
1
1
1
1
1
1
1
1
1
1
1
1
1
1
1
1
1
1
1
1.5051
2.48847
2.65182
2.66052
2.66742
2.67254
2.67449
2.67421
2.6733
2.67148
2.67068
2.67215
2.67597
2.68117
2.68666
2.69071
2.69318
2.69332
2.69314
2.69227
2.69086
2.68986
2.68942
2.68894
2.68798
2.68631
2.6843
2.68156
2.67738
2.67018
2.65907
2.64306
2.62235
2.5954
2.55976
2.51444
2.44734
2.35153
2.22962
1
1
1
1
1
1
1
1
1
1
1
1
1
1
1
1
1
1
1
1
1
1
1
1
1
1
1
1
1
1
1
1
1
1
1
1
1
1
1
1
1
1
1
1
1
1
1
1
1
1
1
1
1
1
1
1
1
1.07904
2.34056
2.64939
2.65295
2.65913
2.6655
2.66907
2.66946
2.66864
2.66675
2.66503
2.66582
2.66908
2.67397
2.67952
2.68388
2.6864
2.68598
2.68526
2.68386
2.68195
2.68033
2.67924
2.67829
2.67704
2.67498
2.67243
2.66895
2.66385
2.65548
2.64289
2.62523
2.60253
2.57377
2.53578
2.48636
2.41655
2.32592
2.21792
1
1
1
1
1
1
1
1
1
1
1
1
1
1
1
1
1
1
1
1
1
1
1
1
1
1
1
1
1
1
1
1
1
1
1
1
1
1
1
1
1
1
1
1
1
1
1
1
1
1
1
1
1
1
1
1
1
1.00127
2.17446
2.61827
2.64065
2.65172
2.65788
2.6615
2.66293
2.66259
2.66146
2.65959
2.65995
2.66261
2.66737
2.67277
2.67729
2.67969
2.67918
2.67812
2.67636
2.67417
2.67201
2.67011
2.66836
2.6665
2.66394
2.6608
2.65649
2.65033
2.64083
2.62694
2.60798
2.5838
2.55362
2.51514
2.46531
2.39749
2.31443
2.22034
1
1
1
1
1
1
1
1
1
1
1
1
1
1
1
1
1
1
1
1
1
1
1
1
1
1
1
1
1
1
1
1
1
1
1
1
1
1
1
1
1
1
1
1
1
1
1
1
1
1
1
1
1
1
1
1
1
0.999997
1.89911
2.57918
2.63497
2.64559
2.65109
2.65423
2.65572
2.65578
2.65532
2.65359
2.65359
2.65568
2.66032
2.66578
2.67029
2.67266
2.67254
2.67139
2.6694
2.66709
2.6645
2.66178
2.65902
2.65625
2.65303
2.64926
2.64416
2.63695
2.62644
2.61154
2.59165
2.56633
2.53534
2.49672
2.44918
2.38602
2.31069
2.22766
1
1
1
1
1
1
1
1
1
1
1
1
1
1
1
1
1
1
1
1
1
1
1
1
1
1
1
1
1
1
1
1
1
1
1
1
1
1
1
1
1
1
1
1
1
1
1
1
1
1
1
1
1
1
1
1
1
0.999999
1.48555
2.47454
2.6253
2.63373
2.64125
2.64586
2.64764
2.6481
2.64826
2.64676
2.64653
2.64821
2.65263
2.65808
2.66253
2.66506
2.66554
2.66435
2.66227
2.65992
2.65708
2.65374
2.65003
2.64625
2.64223
2.63774
2.63187
2.62375
2.61239
2.59681
2.57641
2.55042
2.51919
2.48001
2.43614
2.37852
2.31133
2.23712
1
1
1
1
1
1
1
1
1
1
1
1
1
1
1
1
1
1
1
1
1
1
1
1
1
1
1
1
1
1
1
1
1
1
1
1
1
1
1
1
1
1
1
1
1
1
1
1
1
1
1
1
1
1
1
1
1
1
1.05767
2.32336
2.62702
2.62737
2.63268
2.63822
2.64052
2.64106
2.64123
2.63988
2.63919
2.64026
2.64397
2.64911
2.65369
2.65674
2.65799
2.65696
2.65481
2.65218
2.64894
2.64514
2.64079
2.63624
2.63146
2.6262
2.61951
2.61058
2.59855
2.58258
2.56212
2.53619
2.50485
2.46647
2.42506
2.37203
2.31263
2.24623
1
1
1
1
1
1
1
1
1
1
1
1
1
1
1
1
1
1
1
1
1
1
1
1
1
1
1
1
1
1
1
1
1
1
1
1
1
1
1
1
1
1
1
1
1
1
1
1
1
1
1
1
1
1
1
1
1
1
1.00069
2.11533
2.59007
2.61467
2.62659
2.63255
2.63443
2.63513
2.63515
2.6341
2.63289
2.63316
2.63555
2.63965
2.64392
2.64741
2.64948
2.6488
2.64672
2.64367
2.63985
2.63556
2.63078
2.62577
2.62046
2.6145
2.60704
2.59739
2.58483
2.56865
2.54844
2.52312
2.49228
2.45582
2.41524
2.36626
2.314
2.25384
1
1
1
1
1
1
1
1
1
1
1
1
1
1
1
1
1
1
1
1
1
1
1
1
1
1
1
1
1
1
1
1
1
1
1
1
1
1
1
1
1
1
1
1
1
1
1
1
1
1
1
1
1
1
1
1
1
1
0.999998
1.74455
2.52228
2.61134
2.62054
2.6251
2.62768
2.62838
2.62833
2.62783
2.62665
2.62632
2.62746
2.63026
2.63389
2.6375
2.64014
2.63988
2.63794
2.63444
2.62991
2.62508
2.61999
2.61474
2.60916
2.60264
2.59446
2.58415
2.57115
2.5548
2.53491
2.51049
2.48093
2.44642
2.4072
2.36227
2.31546
2.26021
1
1
1
1
1
1
1
1
1
1
1
1
1
1
1
1
1
1
1
1
1
1
1
1
1
1
1
1
1
1
1
1
1
1
1
1
1
1
1
1
1
1
1
1
1
1
1
1
1
1
1
1
1
1
1
1
1
1
1
1.23355
2.38079
2.60858
2.61003
2.61432
2.61862
2.61997
2.6203
2.62055
2.61979
2.61932
2.61972
2.62147
2.62438
2.62759
2.63013
2.6301
2.62831
2.62457
2.61955
2.61423
2.60883
2.60335
2.59756
2.59062
2.58184
2.571
2.55767
2.54122
2.52167
2.49808
2.47032
2.43789
2.40065
2.35977
2.31661
2.26633
1
1
1
1
1
1
1
1
1
1
1
1
1
1
1
1
1
1
1
1
1
1
1
1
1
1
1
1
1
1
1
1
1
1
1
1
1
1
1
1
1
1
1
1
1
1
1
1
1
1
1
1
1
1
1
1
1
1
1
1.01148
2.21231
2.57788
2.5948
2.60602
2.61143
2.61166
2.61207
2.61241
2.61201
2.61159
2.61177
2.61311
2.61566
2.61829
2.62016
2.62004
2.61825
2.61445
2.60921
2.60352
2.5978
2.59208
2.58604
2.57872
2.5694
2.55813
2.54469
2.52833
2.50925
2.48613
2.46035
2.42966
2.39433
2.35709
2.317
2.27253
1
1
1
1
1
1
1
1
1
1
1
1
1
1
1
1
1
1
1
1
1
1
1
1
1
1
1
1
1
1
1
1
1
1
1
1
1
1
1
1
1
1
1
1
1
1
1
1
1
1
1
1
1
1
1
1
1
1
1
1.00002
1.86599
2.52598
2.58665
2.59885
2.60363
2.605
2.60484
2.60492
2.60475
2.60414
2.60405
2.60497
2.60713
2.60908
2.6101
2.60983
2.60808
2.60444
2.59927
2.59333
2.5873
2.58127
2.5749
2.56723
2.55749
2.54594
2.53257
2.51654
2.49798
2.47521
2.451
2.42147
2.38834
2.35445
2.31728
2.27814
1
1
1
1
1
1
1
1
1
1
1
1
1
1
1
1
1
1
1
1
1
1
1
1
1
1
1
1
1
1
1
1
1
1
1
1
1
1
1
1
1
1
1
1
1
1
1
1
1
1
1
1
1
1
1
1
1
1
1
1
1.3442
2.40252
2.58566
2.58752
2.59267
2.59655
2.59643
2.59655
2.59671
2.59642
2.59661
2.59745
2.59888
2.6
2.60017
2.59962
2.59785
2.59458
2.58973
2.58373
2.57749
2.57122
2.56453
2.55659
2.54658
2.5348
2.52145
2.50573
2.48759
2.46552
2.44215
2.41378
2.38353
2.35194
2.31705
2.28163
1
1
1
1
1
1
1
1
1
1
1
1
1
1
1
1
1
1
1
1
1
1
1
1
1
1
1
1
1
1
1
1
1
1
1
1
1
1
1
1
1
1
1
1
1
1
1
1
1
1
1
1
1
1
1
1
1
1
1
1
1.02583
2.24138
2.56228
2.57402
2.58365
2.58873
2.58813
2.58817
2.58836
2.5886
2.58926
2.59007
2.59058
2.59088
2.59042
2.58942
2.58768
2.58481
2.58029
2.57438
2.56809
2.56173
2.5549
2.5469
2.53686
2.52494
2.51147
2.49589
2.47798
2.45706
2.43417
2.40742
2.37985
2.34961
2.31707
2.28467
1
1
1
1
1
1
1
1
1
1
1
1
1
1
1
1
1
1
1
1
1
1
1
1
1
1
1
1
1
1
1
1
1
1
1
1
1
1
1
1
1
1
1
1
1
1
1
1
1
1
1
1
1
1
1
1
1
1
1
1
1.00011
1.89203
2.51209
2.56334
2.57579
2.58074
2.58085
2.5806
2.58048
2.58084
2.5816
2.58225
2.58217
2.58168
2.58068
2.57937
2.57762
2.57484
2.57058
2.56481
2.55863
2.55236
2.54563
2.53785
2.52813
2.5163
2.50255
2.48677
2.46904
2.44937
2.42709
2.40225
2.37655
2.34752
2.31751
2.28741
1
1
1
1
1
1
1
1
1
1
1
1
1
1
1
1
1
1
1
1
1
1
1
1
1
1
1
1
1
1
1
1
1
1
1
1
1
1
1
1
1
1
1
1
1
1
1
1
1
1
1
1
1
1
1
1
1
1
1
1
1
1.34459
2.392
2.56445
2.5643
2.56858
2.57219
2.57215
2.572
2.57228
2.57286
2.57335
2.57305
2.57218
2.57092
2.56946
2.56765
2.56483
2.56064
2.55506
2.54893
2.54274
2.53622
2.52882
2.51978
2.50843
2.49446
2.47855
2.46118
2.44236
2.42101
2.39784
2.37394
2.34677
2.3188
2.29022
1
1
1
1
1
1
1
1
1
1
1
1
1
1
1
1
1
1
1
1
1
1
1
1
1
1
1
1
1
1
1
1
1
1
1
1
1
1
1
1
1
1
1
1
1
1
1
1
1
1
1
1
1
1
1
1
1
1
1
1
1
1.02549
2.22273
2.53868
2.54833
2.55856
2.56458
2.56403
2.56395
2.56414
2.56447
2.56464
2.56406
2.56291
2.56123
2.55966
2.55761
2.55472
2.55049
2.54514
2.53904
2.53286
2.52646
2.51939
2.51107
2.50037
2.48682
2.47118
2.45415
2.43576
2.41543
2.39386
2.37168
2.34593
2.31987
2.29255
1
1
1
1
1
1
1
1
1
1
1
1
1
1
1
1
1
1
1
1
1
1
1
1
1
1
1
1
1
1
1
1
1
1
1
1
1
1
1
1
1
1
1
1
1
1
1
1
1
1
1
1
1
1
1
1
1
1
1
1
1
1.0001
1.82746
2.47793
2.53867
2.55187
2.55752
2.55701
2.55665
2.55629
2.55632
2.55633
2.55569
2.55447
2.55255
2.55053
2.54794
2.54477
2.54059
2.53535
2.52948
2.52304
2.51655
2.50957
2.50169
2.49183
2.47929
2.46441
2.4478
2.42986
2.41044
2.39048
2.36944
2.34483
2.32057
2.29451
1
1
1
1
1
1
1
1
1
1
1
1
1
1
1
1
1
1
1
1
1
1
1
1
1
1
1
1
1
1
1
1
1
1
1
1
1
1
1
1
1
1
1
1
1
1
1
1
1
1
1
1
1
1
1
1
1
1
1
1
1
1
1.22839
2.33788
2.54145
2.54122
2.54568
2.54828
2.54804
2.54754
2.54717
2.54714
2.54682
2.54609
2.54453
2.54219
2.53901
2.53531
2.531
2.52586
2.51999
2.51356
2.50662
2.4997
2.49196
2.48276
2.47141
2.45754
2.44162
2.42431
2.40571
2.38708
2.36644
2.34318
2.32038
2.29559
1
1
1
1
1
1
1
1
1
1
1
1
1
1
1
1
1
1
1
1
1
1
1
1
1
1
1
1
1
1
1
1
1
1
1
1
1
1
1
1
1
1
1
1
1
1
1
1
1
1
1
1
1
1
1
1
1
1
1
1
1
1
1.01063
2.1363
2.50763
2.5224
2.5344
2.54065
2.54021
2.53937
2.53827
2.53763
2.53754
2.53727
2.53633
2.53413
2.53081
2.52657
2.52179
2.51659
2.5107
2.5043
2.49709
2.49018
2.48243
2.47359
2.46319
2.45038
2.43555
2.41901
2.40123
2.38336
2.36298
2.3414
2.31953
2.29564
1
1
1
1
1
1
1
1
1
1
1
1
1
1
1
1
1
1
1
1
1
1
1
1
1
1
1
1
1
1
1
1
1
1
1
1
1
1
1
1
1
1
1
1
1
1
1
1
1
1
1
1
1
1
1
1
1
1
1
1
1
1
1.00001
1.66408
2.43096
2.51745
2.52565
2.5314
2.53168
2.53107
2.52966
2.52804
2.52759
2.52743
2.52701
2.52552
2.52267
2.51832
2.51298
2.5073
2.50145
2.49496
2.48792
2.48108
2.47343
2.46472
2.4548
2.4429
2.42928
2.41355
2.39667
2.37915
2.35957
2.33907
2.31737
2.29458
1
1
1
1
1
1
1
1
1
1
1
1
1
1
1
1
1
1
1
1
1
1
1
1
1
1
1
1
1
1
1
1
1
1
1
1
1
1
1
1
1
1
1
1
1
1
1
1
1
1
1
1
1
1
1
1
1
1
1
1
1
1
0.999999
1.10989
2.2656
2.51416
2.51514
2.52002
2.52296
2.52254
2.52082
2.51842
2.51712
2.51697
2.51697
2.51615
2.51401
2.51008
2.5045
2.49811
2.49182
2.48543
2.47889
2.47237
2.4649
2.45631
2.44653
2.43534
2.42273
2.40789
2.39194
2.37491
2.35611
2.3358
2.31442
2.2929
1
1
1
1
1
1
1
1
1
1
1
1
1
1
1
1
1
1
1
1
1
1
1
1
1
1
1
1
1
1
1
1
1
1
1
1
1
1
1
1
1
1
1
1
1
1
1
1
1
1
1
1
1
1
1
1
1
1
1
1
1
1
1
1.00235
1.95038
2.46086
2.49607
2.50998
2.51568
2.51527
2.51321
2.51014
2.50752
2.50667
2.50666
2.50623
2.50477
2.50153
2.49614
2.48933
2.48238
2.47584
2.46979
2.46374
2.45669
2.44835
2.43863
2.42786
2.41577
2.40176
2.3867
2.37028
2.35197
2.33182
2.3115
2.2911
1
1
1
1
1
1
1
1
1
1
1
1
1
1
1
1
1
1
1
1
1
1
1
1
1
1
1
1
1
1
1
1
1
1
1
1
1
1
1
1
1
1
1
1
1
1
1
1
1
1
1
1
1
1
1
1
1
1
1
1
1
1
1
0.999998
1.34024
2.33647
2.50242
2.50065
2.50489
2.5061
2.50454
2.50159
2.4981
2.49622
2.49598
2.49575
2.49474
2.49213
2.48735
2.48071
2.47345
2.46634
2.46012
2.45459
2.44816
2.44033
2.43095
2.42052
2.40866
2.39539
2.38117
2.36543
2.34763
2.32833
2.30924
2.28969
1
1
1
1
1
1
1
1
1
1
1
1
1
1
1
1
1
1
1
1
1
1
1
1
1
1
1
1
1
1
1
1
1
1
1
1
1
1
1
1
1
1
1
1
1
1
1
1
1
1
1
1
1
1
1
1
1
1
1
1
1
1
1
0.999999
1.02439
2.14774
2.47425
2.48242
2.49203
2.49693
2.49621
2.4937
2.49008
2.48755
2.48664
2.48627
2.48531
2.48296
2.47876
2.47266
2.46542
2.45782
2.45075
2.44486
2.43906
2.43191
2.42326
2.41328
2.40185
2.38932
2.37569
2.36047
2.34332
2.32521
2.30706
2.28829
1
1
1
1
1
1
1
1
1
1
1
1
1
1
1
1
1
1
1
1
1
1
1
1
1
1
1
1
1
1
1
1
1
1
1
1
1
1
1
1
1
1
1
1
1
1
1
1
1
1
1
1
1
1
1
1
1
1
1
1
1
1
1
1
1.00009
1.6512
2.39461
2.47825
2.48366
2.48655
2.48681
2.4853
2.48251
2.47987
2.47805
2.47687
2.47552
2.47325
2.46966
2.46447
2.45776
2.45002
2.44214
2.43511
2.42903
2.42229
2.4145
2.40552
2.39512
2.38349
2.37047
2.35585
2.33958
2.32257
2.30501
2.28688
1
1
1
1
1
1
1
1
1
1
1
1
1
1
1
1
1
1
1
1
1
1
1
1
1
1
1
1
1
1
1
1
1
1
1
1
1
1
1
1
1
1
1
1
1
1
1
1
1
1
1
1
1
1
1
1
1
1
1
1
1
1
1
1
1
1.10456
2.22773
2.47411
2.47228
2.475
2.4777
2.47724
2.47536
2.47264
2.46984
2.46761
2.4657
2.46349
2.46048
2.45627
2.4504
2.44296
2.43467
2.42654
2.41929
2.41236
2.40524
2.39755
2.38846
2.37775
2.36542
2.35141
2.33604
2.31998
2.30296
2.28534
1
1
1
1
1
1
1
1
1
1
1
1
1
1
1
1
1
1
1
1
1
1
1
1
1
1
1
1
1
1
1
1
1
1
1
1
1
1
1
1
1
1
1
1
1
1
1
1
1
1
1
1
1
1
1
1
1
1
1
1
1
1
1
1
1
1.00203
1.84543
2.40841
2.45123
2.46486
2.47039
2.47007
2.46846
2.4656
2.46204
2.45874
2.45591
2.45348
2.45079
2.4473
2.44239
2.4358
2.42784
2.41924
2.41078
2.40283
2.39568
2.38884
2.38101
2.37149
2.36023
2.34718
2.33275
2.31745
2.301
2.2838
1
1
1
1
1
1
1
1
1
1
1
1
1
1
1
1
1
1
1
1
1
1
1
1
1
1
1
1
1
1
1
1
1
1
1
1
1
1
1
1
1
1
1
1
1
1
1
1
1
1
1
1
1
1
1
1
1
1
1
1
1
1
1
1
1
1
1.20582
2.25865
2.45743
2.455
2.45915
2.46055
2.45926
2.45669
2.45325
2.4496
2.44618
2.44343
2.44106
2.43825
2.43424
2.4286
2.42131
2.41276
2.40366
2.39476
2.38699
2.38026
2.3732
2.36477
2.35456
2.34262
2.32918
2.31456
2.29871
2.28198
1
1
1
1
1
1
1
1
1
1
1
1
1
1
1
1
1
1
1
1
1
1
1
1
1
1
1
1
1
1
1
1
1
1
1
1
1
1
1
1
1
1
1
1
1
1
1
1
1
1
1
1
1
1
1
1
1
1
1
1
1
1
1
1
1
1
1.00861
1.97228
2.41172
2.43349
2.44561
2.45159
2.451
2.44842
2.44472
2.44072
2.43713
2.43421
2.43182
2.42928
2.42597
2.42116
2.41462
2.40647
2.3973
2.38787
2.37932
2.37203
2.36499
2.35715
2.34794
2.3371
2.32474
2.31115
2.29619
2.28
1
1
1
1
1
1
1
1
1
1
1
1
1
1
1
1
1
1
1
1
1
1
1
1
1
1
1
1
1
1
1
1
1
1
1
1
1
1
1
1
1
1
1
1
1
1
1
1
1
1
1
1
1
1
1
1
1
1
1
1
1
1
1
1
1
1
1.00001
1.31303
2.27469
2.43928
2.43642
2.44072
2.44236
2.44013
2.43602
2.43151
2.42749
2.42444
2.42224
2.4201
2.41738
2.4134
2.40768
2.40026
2.39152
2.38208
2.37286
2.36468
2.35733
2.34973
2.34105
2.3309
2.31934
2.30678
2.293
2.27758
1
1
1
1
1
1
1
1
1
1
1
1
1
1
1
1
1
1
1
1
1
1
1
1
1
1
1
1
1
1
1
1
1
1
1
1
1
1
1
1
1
1
1
1
1
1
1
1
1
1
1
1
1
1
1
1
1
1
1
1
1
1
1
1
1
1
1
1.02067
2.0413
2.40499
2.4164
2.42596
2.4314
2.43099
2.4282
2.42389
2.41923
2.41557
2.41299
2.41102
2.40865
2.40511
2.39998
2.39333
2.38534
2.37638
2.36707
2.35824
2.35018
2.3422
2.3337
2.32419
2.31343
2.30186
2.28925
2.27474
1
1
1
1
1
1
1
1
1
1
1
1
1
1
1
1
1
1
1
1
1
1
1
1
1
1
1
1
1
1
1
1
1
1
1
1
1
1
1
1
1
1
1
1
1
1
1
1
1
1
1
1
1
1
1
1
1
1
1
1
1
1
1
1
1
1
1
1.00007
1.41371
2.28438
2.41952
2.41685
2.41995
2.42123
2.41978
2.41641
2.41185
2.40739
2.40404
2.4015
2.39905
2.39586
2.39131
2.3855
2.37857
2.37055
2.36168
2.35256
2.34378
2.33527
2.32672
2.3177
2.30764
2.29681
2.28508
2.27136
1
1
1
1
1
1
1
1
1
1
1
1
1
1
1
1
1
1
1
1
1
1
1
1
1
1
1
1
1
1
1
1
1
1
1
1
1
1
1
1
1
1
1
1
1
1
1
1
1
1
1
1
1
1
1
1
1
1
1
1
1
1
1
1
1
1
1
1
1.03675
2.07229
2.39258
2.40019
2.40529
2.40919
2.40988
2.40817
2.40486
2.40063
2.39622
2.39247
2.38944
2.38629
2.38215
2.3769
2.37081
2.36381
2.35578
2.34697
2.33794
2.32899
2.32016
2.3113
2.30175
2.29145
2.28043
2.26757
1
1
1
1
1
1
1
1
1
1
1
1
1
1
1
1
1
1
1
1
1
1
1
1
1
1
1
1
1
1
1
1
1
1
1
1
1
1
1
1
1
1
1
1
1
1
1
1
1
1
1
1
1
1
1
1
1
1
1
1
1
1
1
1
1
1
1
1
1.00024
1.46442
2.27968
2.40003
2.39706
2.39924
2.40074
2.39969
2.39731
2.39359
2.38876
2.38386
2.37979
2.3763
2.37264
2.36812
2.36263
2.35638
2.34922
2.34107
2.33231
2.3233
2.3143
2.30546
2.29624
2.28629
2.27572
2.26366
1
1
1
1
1
1
1
1
1
1
1
1
1
1
1
1
1
1
1
1
1
1
1
1
1
1
1
1
1
1
1
1
1
1
1
1
1
1
1
1
1
1
1
1
1
1
1
1
1
1
1
1
1
1
1
1
1
1
1
1
1
1