/*--------------------------------*- C++ -*----------------------------------*\
  =========                 |
  \\      /  F ield         | OpenFOAM: The Open Source CFD Toolbox
   \\    /   O peration     | Website:  https://openfoam.org
    \\  /    A nd           | Version:  7
     \\/     M anipulation  |
\*---------------------------------------------------------------------------*/
FoamFile
{
    version     2.0;
    format      ascii;
    class       volScalarField;
    location    "3.3";
    object      rho;
}
// * * * * * * * * * * * * * * * * * * * * * * * * * * * * * * * * * * * * * //

dimensions      [1 -3 0 0 0 0 0];

internalField   nonuniform List<scalar> 
1575
(
1.40001
1.40001
1.40001
1.40001
1.40001
1.40001
1.40001
3.03375
5.33824
5.50684
5.58636
5.68051
5.76239
5.83772
5.89855
1.40001
1.40001
1.40001
1.40001
1.40001
1.40001
1.40001
2.93302
5.27239
5.48282
5.55684
5.64069
5.71419
5.77782
5.8382
1.40001
1.40001
1.40001
1.40001
1.40001
1.40001
1.40001
2.72145
5.17976
5.45012
5.51655
5.59518
5.6692
5.7281
5.75752
1.40001
1.40001
1.40001
1.40001
1.40001
1.40001
1.40001
2.42524
5.03562
5.42558
5.46378
5.51282
5.55012
5.56119
5.58656
1.40001
1.40001
1.40001
1.40001
1.40001
1.40001
1.40001
2.03537
4.8058
5.40749
5.40615
5.43244
5.44762
5.40873
5.41683
1.40001
1.40001
1.40001
1.40001
1.40001
1.40001
1.40001
1.60806
4.46409
5.42063
5.35708
5.31288
5.24228
4.94678
4.13883
1.40001
1.40001
1.40001
1.40001
1.40001
1.40001
1.40001
1.41175
3.82108
5.22689
5.19236
5.13837
4.98873
4.6645
3.8789
1.40001
1.40001
1.40001
1.40001
1.40001
1.40001
1.40001
1.39994
2.9628
5.01566
5.0947
5.01298
4.8094
4.48102
3.7263
1.40001
1.40001
1.40001
1.40001
1.40001
1.40001
1.40001
1.39999
2.0633
4.72225
5.07106
4.92609
4.70162
4.33586
3.72205
1.40001
1.40001
1.40001
1.40001
1.40001
1.40001
1.40001
1.4
1.49179
3.93295
4.94201
4.79141
4.6028
4.24284
3.75256
1.40001
1.40001
1.40001
1.40001
1.40001
1.40001
1.40001
1.4
1.40057
2.74581
4.7323
4.74721
4.54526
4.21926
3.80467
1.40001
1.40001
1.40001
1.40001
1.40001
1.40001
1.40001
1.40001
1.4
1.6854
4.16699
4.79466
4.53835
4.22259
3.84747
1.40001
1.40001
1.40001
1.40001
1.40001
1.40001
1.40001
1.40001
1.4
1.41021
2.97031
4.61908
4.52512
4.2221
3.88814
1.40001
1.40001
1.40001
1.40001
1.40001
1.40001
1.40001
1.40001
1.4
1.40001
1.76458
4.01117
4.58121
4.27625
3.97815
1.40001
1.40001
1.40001
1.40001
1.40001
1.40001
1.40001
1.40001
1.40001
1.40001
1.4167
2.67098
4.41568
4.33154
4.05243
1.40001
1.40001
1.40001
1.40001
1.40001
1.40001
1.40001
1.40001
1.40001
1.40001
1.4001
1.63617
3.59839
4.4183
4.16066
1.40001
1.40001
1.40001
1.40001
1.40001
1.40001
1.40001
1.40001
1.40001
1.40001
1.40001
1.40723
2.19472
4.01181
4.22853
1.40001
1.40001
1.40001
1.40001
1.40001
1.40001
1.40001
1.40001
1.40001
1.40001
1.40001
1.40005
1.48446
2.86283
4.10806
1.40001
1.40001
1.40001
1.40001
1.40001
1.40001
1.40001
1.40001
1.40001
1.40001
1.40001
1.40001
1.40155
1.7169
3.34308
1.40001
1.40001
1.40001
1.40001
1.40001
1.40001
1.40001
1.40001
1.40001
1.40001
1.40001
1.40001
1.40001
1.41462
2.03412
1.40001
1.40001
1.40001
1.40001
1.40001
1.40001
1.40001
1.40001
1.40001
1.40001
1.40001
1.40001
1.40001
1.40016
1.45508
1.40001
1.40001
1.40001
1.40001
1.40001
1.40001
1.40001
1.40001
1.40001
1.40001
1.40001
1.40001
1.40001
1.40001
1.40094
1.40001
1.40001
1.40001
1.40001
1.40001
1.40001
1.40001
1.40001
1.40001
1.40001
1.40001
1.40001
1.40001
1.40001
1.40001
1.40001
1.40001
1.40001
1.40001
1.40001
1.40001
1.40001
1.40001
1.40001
1.40001
1.40001
1.40001
1.40001
1.40001
1.40001
1.40001
1.40001
1.40001
1.40001
1.40001
1.40001
1.40001
1.40001
1.40001
1.40001
1.40001
1.40001
1.40001
1.40001
1.40001
1.49336
0.663086
0.410235
0.398912
0.412055
0.47121
0.595925
0.746804
0.855562
0.928219
0.982115
1.04126
1.06908
1.09305
1.09591
1.09511
1.08967
1.08214
1.0928
2.31995
3.07416
3.08155
3.07836
3.0728
3.06167
3.03607
3.01037
2.972
2.92184
2.86421
2.80856
2.76052
2.71667
2.67506
2.63664
2.6056
2.57021
2.51751
2.46223
2.40318
2.33994
2.28512
2.2466
2.21478
2.18988
2.1653
2.13548
2.1024
2.0615
2.00635
1.939
1.88461
1.85271
1.82993
1.80908
1.79077
1.77233
1.75128
1.72953
1.66657
2.23015
1.43774
1.05271
0.916629
0.812773
0.766451
0.765528
0.75846
0.78005
0.822959
0.873305
0.936131
1.00083
1.05584
1.07489
1.08433
1.08372
1.08017
1.15597
2.29274
3.20727
3.21181
3.15632
3.1246
3.09398
3.05918
3.03193
2.98876
2.93677
2.88695
2.83951
2.79253
2.74039
2.68835
2.64177
2.60353
2.56859
2.52618
2.47869
2.42946
2.37702
2.3201
2.27016
2.23083
2.19591
2.16325
2.13163
2.09947
2.06294
2.01648
1.96167
1.90812
1.86631
1.83837
1.81548
1.79439
1.77319
1.74907
1.7242
1.66685
2.6793
2.05628
1.59829
1.30315
1.13533
1.00324
0.927262
0.863916
0.831314
0.852309
0.891814
0.937782
0.99237
1.04133
1.07544
1.10269
1.11806
1.18323
1.47495
2.2238
3.31871
3.42233
3.36863
3.3127
3.24366
3.19602
3.15655
3.11288
3.06014
3.00045
2.94285
2.88181
2.81981
2.75793
2.70225
2.65711
2.61174
2.56611
2.51861
2.47033
2.42142
2.37264
2.32722
2.28238
2.23521
2.18853
2.14384
2.10093
2.05902
2.02044
1.98423
1.94586
1.90287
1.86459
1.8342
1.8088
1.78445
1.75661
1.72687
1.66881
3.00965
2.4652
2.05424
1.71811
1.48143
1.31277
1.17731
1.09661
1.01497
0.972186
0.937034
0.923581
0.937398
0.964277
1.00523
1.0505
1.11724
1.40401
1.91644
2.1445
2.7168
3.17436
3.45408
3.4805
3.40085
3.33393
3.25861
3.19927
3.1533
3.10343
3.04838
2.98165
2.91347
2.84705
2.78508
2.73141
2.68303
2.63616
2.58856
2.53906
2.48849
2.44036
2.3942
2.34649
2.29545
2.24127
2.18661
2.13576
2.09191
2.05442
2.01943
1.98409
1.94492
1.9022
1.86118
1.82823
1.8005
1.77026
1.73879
1.68685
3.22611
2.75185
2.37447
2.05494
1.77682
1.59277
1.43061
1.30414
1.19779
1.11086
1.03303
0.974713
0.942689
0.946169
0.959037
0.998079
1.20957
1.72012
2.07538
2.1306
2.21052
2.51624
3.03476
3.33309
3.45284
3.43526
3.35537
3.27544
3.19821
3.14211
3.09599
3.05061
2.99738
2.93482
2.86826
2.80167
2.74048
2.68772
2.64073
2.59551
2.55064
2.50599
2.45925
2.40813
2.35171
2.29073
2.23034
2.178
2.13631
2.10047
2.06669
2.0328
1.99526
1.95083
1.89984
1.85129
1.81342
1.77962
1.75244
1.7126
3.37201
2.97011
2.61355
2.30262
2.04031
1.82805
1.66135
1.50516
1.38475
1.28705
1.20168
1.13507
1.05693
1.01384
1.03034
1.17966
1.59613
1.94708
2.00456
2.00696
1.99133
2.03349
2.28462
2.76651
3.2091
3.36894
3.36649
3.31098
3.21128
3.1393
3.1019
3.0739
3.04422
2.9944
2.93109
2.85578
2.77986
2.71626
2.66619
2.62324
2.58323
2.54334
2.49988
2.45051
2.39462
2.33295
2.27008
2.21393
2.16987
2.13408
2.10131
2.06886
2.03365
1.99193
1.94037
1.88357
1.83532
1.79815
1.77497
1.74035
3.46943
3.11501
2.79912
2.50738
2.25436
2.03039
1.8598
1.70328
1.56911
1.44962
1.35575
1.26052
1.18578
1.13711
1.25044
1.64588
2.0217
2.04381
2.008
1.96802
1.96425
1.95491
1.96513
2.08479
2.45118
2.928
3.21392
3.29236
3.23759
3.14665
3.10816
3.08568
3.05531
3.01189
2.95661
2.88437
2.80744
2.7408
2.68642
2.64027
2.59901
2.5597
2.51861
2.47306
2.42124
2.3619
2.29818
2.23945
2.19322
2.15576
2.12116
2.08679
2.05066
2.01011
1.96151
1.9071
1.8592
1.82458
1.80312
1.76752
3.55529
3.24921
2.96014
2.68188
2.443
2.23203
2.03671
1.86925
1.73371
1.6125
1.50172
1.39984
1.33442
1.44325
1.84067
2.21422
2.23215
2.1566
2.08057
2.02657
1.98566
1.96185
1.94858
1.93382
1.9557
2.15416
2.56875
2.99582
3.14972
3.14326
3.12857
3.10076
3.05905
3.00956
2.95546
2.89191
2.82785
2.76779
2.71016
2.65511
2.60679
2.56517
2.52514
2.4837
2.4377
2.38146
2.31458
2.25174
2.20539
2.16874
2.13459
2.09986
2.06271
2.02108
1.97375
1.92479
1.88256
1.85081
1.82938
1.79059
3.67049
3.38141
3.1031
2.84252
2.60894
2.39484
2.20008
2.03266
1.88824
1.75102
1.63121
1.55319
1.67338
2.10216
2.48787
2.48261
2.39557
2.30311
2.23334
2.172
2.10839
2.05108
1.99543
1.94338
1.91804
1.90912
1.96475
2.23519
2.67099
2.97082
3.04287
3.10369
3.08742
3.02137
2.95006
2.89841
2.84753
2.79691
2.73994
2.67599
2.61629
2.56976
2.52983
2.49177
2.451
2.39837
2.32893
2.2604
2.21266
2.17722
2.14459
2.11056
2.07298
2.03013
1.98364
1.93902
1.9009
1.87157
1.85023
1.80752
3.77278
3.4898
3.21669
2.98095
2.75954
2.54138
2.34836
2.18388
2.02273
1.88529
1.78712
1.91908
2.38748
2.78542
2.77216
2.66613
2.56308
2.48426
2.40522
2.31869
2.23468
2.1589
2.09323
2.03342
1.97955
1.93058
1.91662
1.91539
2.01121
2.31152
2.65129
2.92989
3.00909
2.99214
2.9681
2.91834
2.87769
2.83196
2.76816
2.6948
2.6245
2.5724
2.53185
2.49525
2.45674
2.40817
2.34286
2.27263
2.22031
2.18352
2.15181
2.12009
2.08491
2.04368
1.99797
1.9509
1.90968
1.87927
1.85921
1.81799
3.89039
3.61447
3.34723
3.11203
2.89513
2.68597
2.49472
2.31845
2.16043
2.05745
2.2226
2.75931
3.1344
3.09186
2.95616
2.83791
2.75262
2.66413
2.56967
2.47768
2.38878
2.30026
2.21889
2.14579
2.0809
2.02215
1.96134
1.91236
1.87307
1.88658
1.99539
2.2809
2.60164
2.82762
2.88628
2.92425
2.91784
2.87593
2.79416
2.70475
2.63179
2.58263
2.5424
2.50386
2.46223
2.41243
2.35215
2.28759
2.2335
2.19275
2.15832
2.12661
2.09393
2.05648
2.01307
1.96513
1.92251
1.88741
1.86237
1.82029
3.98891
3.70971
3.467
3.24028
3.01863
2.81328
2.62135
2.45515
2.34425
2.55732
3.163
3.55561
3.46666
3.27921
3.12981
3.02857
2.93298
2.83253
2.73104
2.63062
2.53259
2.43703
2.34609
2.26314
2.18559
2.11319
2.04011
1.97346
1.90593
1.85664
1.82235
1.83501
1.95426
2.23668
2.53827
2.76625
2.85174
2.84905
2.8075
2.70985
2.64162
2.5988
2.55713
2.51447
2.47013
2.41588
2.35504
2.29869
2.24851
2.2037
2.16457
2.12869
2.09293
2.05808
2.01824
1.97137
1.92645
1.89041
1.86802
1.83183
4.07695
3.84071
3.60095
3.37414
3.15789
2.94132
2.75985
2.67678
2.96517
3.60557
3.97946
3.87359
3.66109
3.48149
3.34657
3.22847
3.11104
2.99766
2.88744
2.77811
2.67023
2.56554
2.46757
2.37751
2.29306
2.21384
2.13663
2.06243
1.98915
1.91389
1.84673
1.80147
1.75882
1.77761
1.92401
2.20911
2.51527
2.69635
2.71456
2.68801
2.65953
2.62432
2.5738
2.5237
2.47251
2.41668
2.36147
2.31382
2.26921
2.22246
2.1751
2.13629
2.10664
2.0704
2.02648
1.97746
1.93498
1.90252
1.8748
1.83727
4.07061
3.98095
3.75172
3.51141
3.27364
3.05489
3.06398
3.46852
4.13517
4.43387
4.30654
4.07146
3.87797
3.72377
3.57569
3.42931
3.29186
3.1614
3.03522
2.91189
2.79374
2.6816
2.5768
2.47823
2.3837
2.29365
2.20749
2.12465
2.04874
1.97396
1.90429
1.83099
1.76695
1.73602
1.70424
1.73678
1.8891
2.16302
2.40853
2.54358
2.615
2.60849
2.56778
2.5015
2.45055
2.40597
2.36547
2.32705
2.28333
2.23396
2.18831
2.14286
2.08389
2.03358
2.00132
1.9774
1.9568
1.93163
1.91044
1.87031
3.59218
4.00965
3.88868
3.64433
3.36562
3.46241
4.09337
4.77785
4.91595
4.77892
4.53624
4.31637
4.1311
3.95737
3.78831
3.62186
3.45738
3.3001
3.15445
3.01952
2.89393
2.77671
2.667
2.56181
2.45933
2.36197
2.27067
2.18438
2.10265
2.02367
1.9511
1.87543
1.8149
1.75173
1.68329
1.6492
1.62652
1.67144
1.8386
2.08301
2.35135
2.49702
2.49644
2.47409
2.44721
2.3994
2.35538
2.30785
2.26623
2.23757
2.19669
2.13528
2.06774
2.02154
2.00366
1.98559
1.97439
1.9546
1.94818
2.03884
2.33176
3.75302
3.88145
3.78222
4.0422
4.79171
5.47277
5.54441
5.29178
4.99249
4.75966
4.53079
4.3195
4.12687
3.94484
3.76697
3.58992
3.41472
3.2463
3.09728
2.96736
2.84953
2.73774
2.62727
2.51639
2.4065
2.30493
2.22009
2.14699
2.07228
1.99496
1.9177
1.84073
1.76073
1.68817
1.62782
1.583
1.5616
1.55719
1.61685
1.79258
2.06867
2.25347
2.35494
2.39998
2.40099
2.38241
2.33208
2.26453
2.20197
2.14612
2.08651
2.0474
2.03019
2.02775
2.02667
2.03841
2.09282
2.19541
2.45068
1.52396
2.6535
3.49084
4.49105
5.70653
5.9914
5.9633
5.82494
5.54283
5.23766
4.97222
4.71568
4.45621
4.22784
4.02975
3.85158
3.68186
3.5049
3.32377
3.157
3.01223
2.88272
2.76247
2.64627
2.5334
2.42477
2.32527
2.23566
2.15206
2.07423
2.00125
1.92959
1.85471
1.78234
1.71927
1.65899
1.60462
1.5582
1.53
1.5064
1.5085
1.5728
1.76877
1.99008
2.17372
2.30348
2.31046
2.29395
2.24214
2.16731
2.11331
2.0769
2.06598
2.06683
2.09383
2.18252
2.33176
2.51116
2.6739
2.78867
1.40377
1.61567
2.76239
5.87373
6.66261
6.32306
6.02018
5.82899
5.58043
5.28791
4.99765
4.75273
4.52197
4.29621
4.08037
3.87096
3.67291
3.49986
3.34765
3.19851
3.05224
2.91862
2.79916
2.68978
2.58705
2.47985
2.36874
2.26372
2.17073
2.09669
2.0341
1.97655
1.91262
1.84816
1.78775
1.72716
1.66724
1.61062
1.55241
1.49832
1.46358
1.43532
1.45516
1.55176
1.73425
1.97904
2.14881
2.1668
2.13987
2.11134
2.10956
2.12912
2.18782
2.28273
2.44134
2.64237
2.82846
2.94299
2.99258
2.95854
1.40003
1.40835
2.90242
6.02344
6.37536
6.07867
5.84851
5.65218
5.4424
5.1905
4.94132
4.73108
4.51265
4.29097
4.07466
3.86334
3.66193
3.47771
3.31019
3.16279
3.03139
2.91065
2.79461
2.67573
2.55496
2.43733
2.33198
2.24208
2.16264
2.09358
2.02325
1.95258
1.88221
1.81501
1.75405
1.6942
1.6409
1.58781
1.54013
1.49375
1.45286
1.41772
1.38856
1.36575
1.39793
1.51872
1.72395
1.93029
2.02906
2.10706
2.23032
2.41866
2.59314
2.75234
2.87384
2.92532
2.98853
3.02596
3.0228
2.96654
1.40001
1.40015
3.12495
5.70371
5.95868
5.93598
5.86306
5.71105
5.49856
5.24117
4.98363
4.75501
4.52567
4.29744
4.07585
3.86032
3.65232
3.45991
3.29277
3.15302
3.03044
2.91609
2.80172
2.67919
2.55215
2.42886
2.32197
2.23516
2.15968
2.09188
2.02059
1.95028
1.88
1.81003
1.74702
1.68616
1.6362
1.58477
1.53867
1.49564
1.44921
1.41225
1.36783
1.33868
1.31079
1.31812
1.37291
1.54173
1.84672
2.23629
2.58004
2.88207
3.14452
3.33049
3.3836
3.30838
3.21725
3.11795
3.0091
2.90758
)
;

boundaryField
{
    inlet
    {
        type            calculated;
        value           uniform 1.40001;
    }
    outlet
    {
        type            calculated;
        value           nonuniform List<scalar> 
20
(
1.66825
1.6676
1.66951
1.68709
1.71196
1.7394
1.76665
1.78984
1.8069
1.81718
1.81949
1.8303
1.83739
1.87228
2.0412
2.45284
2.78876
2.95897
2.96725
2.9083
)
;
    }
    bottom
    {
        type            symmetryPlane;
    }
    top
    {
        type            symmetryPlane;
    }
    obstacle
    {
        type            calculated;
        value           nonuniform List<scalar> 
65
(
5.89855
5.8382
5.75752
5.58656
5.41683
1.49336
0.663086
0.410235
0.398912
0.412055
0.47121
0.595925
0.746804
0.855562
0.928219
0.982115
1.04126
1.06908
1.09305
1.09591
1.09511
1.08967
1.08214
1.0928
2.31995
3.07416
3.08155
3.07836
3.0728
3.06167
3.03607
3.01037
2.972
2.92184
2.86421
2.80856
2.76052
2.71667
2.67506
2.63664
2.6056
2.57021
2.51751
2.46223
2.40318
2.33994
2.28512
2.2466
2.21478
2.18988
2.1653
2.13548
2.1024
2.0615
2.00635
1.939
1.88461
1.85271
1.82993
1.80908
1.79077
1.77233
1.75128
1.72953
1.66657
)
;
    }
    defaultFaces
    {
        type            empty;
    }
}


// ************************************************************************* //
