/*--------------------------------*- C++ -*----------------------------------*\
  =========                 |
  \\      /  F ield         | OpenFOAM: The Open Source CFD Toolbox
   \\    /   O peration     | Website:  https://openfoam.org
    \\  /    A nd           | Version:  7
     \\/     M anipulation  |
\*---------------------------------------------------------------------------*/
FoamFile
{
    version     2.0;
    format      ascii;
    class       volScalarField;
    location    "3.3";
    object      T;
}
// * * * * * * * * * * * * * * * * * * * * * * * * * * * * * * * * * * * * * //

dimensions      [0 0 0 1 0 0 0];

internalField   nonuniform List<scalar> 
1575
(
1
1
1
1
1
1
1
1.97383
2.69845
2.74721
2.77124
2.79578
2.81271
2.82305
2.83083
1
1
1
1
1
1
1
1.94023
2.68593
2.7423
2.76545
2.78812
2.80247
2.80889
2.8157
1
1
1
1
1
1
1
1.85018
2.65831
2.73117
2.75633
2.77961
2.79162
2.7922
2.79032
1
1
1
1
1
1
1
1.70027
2.59962
2.71071
2.74042
2.76051
2.76539
2.75809
2.75599
1
1
1
1
1
1
1
1.47015
2.49572
2.67728
2.71403
2.73786
2.7467
2.74593
2.7669
1
1
1
1
1
1
1
1.14025
2.3495
2.64569
2.67561
2.69578
2.69577
2.65971
2.57068
1
1
1
1
1
1
1
1.0059
2.19192
2.58626
2.61877
2.6361
2.6249
2.58275
2.45373
1
1
1
1
1
1
1
0.999991
1.88609
2.51103
2.58644
2.58311
2.56265
2.51671
2.36757
1
1
1
1
1
1
1
0.999997
1.40205
2.35133
2.54862
2.53345
2.50914
2.45451
2.32787
1
1
1
1
1
1
1
0.999999
1.04459
2.14468
2.48543
2.47154
2.45564
2.40267
2.30819
1
1
1
1
1
1
1
1
1.00032
1.71591
2.35208
2.443
2.41417
2.36343
2.28885
1
1
1
1
1
1
1
1
0.999998
1.14718
2.12805
2.40628
2.37047
2.32516
2.263
1
1
1
1
1
1
1
1
1
1.00473
1.7553
2.30085
2.31515
2.28001
2.23183
1
1
1
1
1
1
1
1
1
1.00001
1.18468
2.0655
2.28935
2.24524
2.2069
1
1
1
1
1
1
1
1
1
1
1.00745
1.6003
2.17197
2.20372
2.17322
1
1
1
1
1
1
1
1
1
1
1.00003
1.11338
1.91363
2.1811
2.14599
1
1
1
1
1
1
1
1
1
1
1
1.00295
1.38187
1.99662
2.12411
1
1
1
1
1
1
1
1
1
1
1
1.00001
1.03807
1.63603
2.0267
1
1
1
1
1
1
1
1
1
1
1
1
1.00054
1.15122
1.76252
1
1
1
1
1
1
1
1
1
1
1
1
1
1.0058
1.2873
1
1
1
1
1
1
1
1
1
1
1
1
1
1.00005
1.02292
1
1
1
1
1
1
1
1
1
1
1
1
1
1
1.0003
1
1
1
1
1
1
1
1
1
1
1
1
1
1
1
1
1
1
1
1
1
1
1
1
1
1
1
1
1
1
1
1
1
1
1
1
1
1
1
1
1
1
1
1
1
1.79772
1.30876
1.18822
1.27647
1.34562
1.42603
1.50471
1.56865
1.61933
1.69055
1.75863
1.76964
1.75806
1.74196
1.73577
1.73852
1.73736
1.72738
1.7295
2.51814
2.84709
2.8253
2.78006
2.72929
2.68977
2.65855
2.63776
2.61642
2.59266
2.56632
2.53817
2.50868
2.47723
2.44563
2.41772
2.39762
2.38106
2.36307
2.34561
2.32498
2.29961
2.27388
2.25131
2.22945
2.21032
2.19351
2.17787
2.1639
2.14876
2.12847
2.10178
2.0779
2.06111
2.04641
2.03126
2.01692
2.00332
1.98989
1.97781
1.95107
2.03955
1.73716
1.55057
1.52462
1.49607
1.46003
1.42207
1.41707
1.43981
1.48807
1.53904
1.57901
1.60938
1.62943
1.63994
1.65212
1.65984
1.65689
1.70052
2.36182
2.76177
2.74275
2.69211
2.65234
2.6212
2.59681
2.57985
2.55888
2.53646
2.51641
2.49685
2.4746
2.44656
2.41599
2.38837
2.36746
2.35218
2.33824
2.32421
2.30861
2.28933
2.26509
2.24048
2.21813
2.19701
2.17802
2.16215
2.14908
2.13656
2.12067
2.09988
2.07714
2.05701
2.04084
2.02563
2.01078
1.9964
1.98177
1.96852
1.94411
2.10651
1.92282
1.76294
1.64771
1.56891
1.48848
1.43004
1.38855
1.37253
1.3891
1.41638
1.4408
1.47206
1.49714
1.51587
1.53529
1.54844
1.59399
1.75458
2.0974
2.51109
2.56361
2.54779
2.52942
2.50563
2.4903
2.47615
2.46029
2.44226
2.42492
2.41064
2.39458
2.37468
2.35074
2.32731
2.30869
2.29231
2.27842
2.26553
2.25246
2.2378
2.22101
2.20379
2.18538
2.16494
2.1444
2.12593
2.11023
2.09656
2.08466
2.07295
2.05863
2.04055
2.02248
2.00642
1.99184
1.97767
1.96242
1.94759
1.92239
2.15719
2.01189
1.8885
1.77101
1.67455
1.59636
1.52701
1.47905
1.43091
1.40711
1.38644
1.38045
1.38566
1.39722
1.417
1.43974
1.47755
1.63423
1.88786
1.9722
2.17255
2.31811
2.3957
2.42658
2.40963
2.39219
2.3695
2.35163
2.33886
2.32736
2.31656
2.30286
2.28727
2.26934
2.25044
2.23367
2.21939
2.20662
2.1944
2.18178
2.16852
2.1557
2.14314
2.12933
2.11343
2.0956
2.07737
2.0607
2.04688
2.03586
2.02611
2.0157
2.00252
1.9864
1.96957
1.95503
1.94206
1.92772
1.91285
1.88948
2.18834
2.06726
1.96126
1.86145
1.76131
1.68944
1.62085
1.56341
1.50977
1.46262
1.41844
1.38698
1.36727
1.36869
1.37516
1.39646
1.5198
1.77423
1.94229
1.94606
1.96262
2.06223
2.21607
2.30023
2.34127
2.33797
2.31806
2.29471
2.27336
2.25884
2.24749
2.2372
2.22486
2.20931
2.19167
2.17343
2.15661
2.14241
2.13024
2.11876
2.10741
2.0962
2.08447
2.07146
2.05649
2.03932
2.0215
2.00593
1.99396
1.98419
1.97539
1.96654
1.95611
1.94238
1.92505
1.90738
1.89274
1.87889
1.86706
1.8493
2.19762
2.10368
2.01038
1.91949
1.83414
1.76089
1.69964
1.63635
1.58176
1.53505
1.49266
1.45782
1.41672
1.39324
1.40282
1.49199
1.72065
1.86981
1.88176
1.87482
1.85391
1.86448
1.95025
2.10283
2.2335
2.27175
2.27646
2.26216
2.23548
2.21522
2.20308
2.19415
2.18582
2.17239
2.15531
2.13491
2.11395
2.09624
2.08268
2.07145
2.06108
2.05054
2.03871
2.02507
2.00957
1.99232
1.97446
1.95842
1.94606
1.93626
1.92749
1.91895
1.90959
1.89776
1.88189
1.86316
1.84651
1.83338
1.82483
1.81049
2.19057
2.11359
2.03804
1.96005
1.88595
1.81521
1.75679
1.69882
1.64613
1.59641
1.55386
1.50833
1.47024
1.44948
1.5208
1.73297
1.89548
1.88752
1.86379
1.83944
1.82356
1.80797
1.79738
1.83691
1.96845
2.11687
2.19511
2.22136
2.20816
2.18474
2.1713
2.16216
2.15226
2.14005
2.12459
2.10432
2.08293
2.0646
2.04993
2.03786
2.02718
2.0165
2.00441
1.99035
1.97446
1.95682
1.93823
1.92117
1.90788
1.89723
1.88741
1.87762
1.86731
1.85544
1.84066
1.82355
1.80837
1.79776
1.79113
1.77798
2.1759
2.11606
2.05339
1.98634
1.92374
1.86352
1.8022
1.74505
1.69644
1.65003
1.60426
1.56045
1.53387
1.59697
1.79143
1.94362
1.93859
1.90166
1.86204
1.83181
1.80933
1.79013
1.77032
1.74413
1.74364
1.81355
1.95836
2.09331
2.13857
2.1431
2.1376
2.129
2.11651
2.1031
2.08786
2.06965
2.05216
2.03678
2.02234
2.00865
1.99667
1.98579
1.9741
1.96094
1.94617
1.92871
1.90839
1.88941
1.8757
1.86512
1.85536
1.84531
1.8343
1.82157
1.80685
1.79164
1.77884
1.76996
1.76418
1.75166
2.16132
2.1119
2.05724
2.00107
1.94578
1.88974
1.83433
1.78293
1.73539
1.68675
1.64139
1.61447
1.67662
1.86833
2.00918
2.00198
1.9633
1.92111
1.88473
1.85151
1.81882
1.78763
1.75525
1.72299
1.6995
1.67614
1.69427
1.7975
1.94361
2.04038
2.05908
2.0791
2.07607
2.06129
2.04416
2.02979
2.01621
2.00477
1.99263
1.97826
1.9643
1.95306
1.94258
1.9316
1.91926
1.90325
1.882
1.8608
1.84637
1.83625
1.82736
1.81811
1.80744
1.79443
1.77978
1.76581
1.75442
1.74656
1.74114
1.72893
2.13833
2.09704
2.04998
2.00345
1.9559
1.90417
1.85503
1.81013
1.7614
1.71639
1.68755
1.7528
1.94431
2.07337
2.06182
2.01889
1.97706
1.94092
1.90342
1.86353
1.82431
1.78671
1.7518
1.7181
1.68635
1.65777
1.64215
1.62769
1.66681
1.78009
1.8892
1.97186
1.9948
1.99695
1.99759
1.98907
1.9784
1.96807
1.956
1.94123
1.92578
1.9144
1.90553
1.89708
1.88747
1.87428
1.85524
1.83378
1.81784
1.80752
1.79949
1.79179
1.78291
1.77143
1.75752
1.74269
1.7302
1.72213
1.7174
1.70692
2.11375
2.07781
2.03776
1.99793
1.95544
1.91184
1.86843
1.8242
1.78013
1.75782
1.83253
2.0313
2.1371
2.11715
2.0686
2.02409
1.98754
1.94938
1.90936
1.87012
1.83165
1.79275
1.75493
1.71851
1.68498
1.65471
1.62528
1.60059
1.58221
1.58102
1.62331
1.72917
1.83005
1.89522
1.91802
1.939
1.9394
1.93125
1.91539
1.89799
1.88299
1.87362
1.86678
1.86027
1.85225
1.84077
1.82466
1.80598
1.79003
1.77885
1.7707
1.76398
1.757
1.74795
1.73577
1.72116
1.70844
1.69921
1.69353
1.6838
2.08894
2.05047
2.01818
1.98535
1.94913
1.90978
1.86936
1.83106
1.81545
1.90268
2.10917
2.20351
2.17297
2.11483
2.06549
2.0268
1.98865
1.94895
1.90922
1.87005
1.83167
1.7936
1.75586
1.71958
1.685
1.6529
1.62175
1.59427
1.56647
1.54771
1.53195
1.53635
1.58453
1.68383
1.77737
1.8462
1.87599
1.8783
1.87214
1.85506
1.84229
1.83467
1.82873
1.82352
1.81677
1.80522
1.78997
1.77516
1.76169
1.74988
1.74087
1.73399
1.72737
1.72008
1.7098
1.69634
1.68352
1.67498
1.6712
1.66438
2.07065
2.03788
2.00503
1.97362
1.94083
1.90431
1.86639
1.86919
1.97382
2.16803
2.2494
2.21683
2.15846
2.10686
2.06369
2.0228
1.98096
1.93994
1.90054
1.8625
1.8254
1.7889
1.75359
1.71981
1.68734
1.65671
1.6272
1.59939
1.57235
1.54571
1.52132
1.50715
1.4922
1.50002
1.55783
1.65791
1.75258
1.8026
1.8106
1.81201
1.80912
1.80282
1.79493
1.78941
1.78198
1.77005
1.7569
1.74615
1.73605
1.72449
1.71258
1.705
1.70096
1.69448
1.68426
1.67125
1.66058
1.65389
1.64793
1.64139
2.02607
2.02114
1.993
1.96086
1.92553
1.89597
1.90858
2.04283
2.22357
2.28364
2.24822
2.19076
2.14023
2.09729
2.05472
2.01141
1.96928
1.92874
1.88999
1.85292
1.81771
1.78414
1.7519
1.72018
1.68878
1.65804
1.62833
1.6002
1.57531
1.55114
1.52897
1.50582
1.48416
1.47347
1.46601
1.48048
1.54168
1.63641
1.7094
1.74914
1.77021
1.76922
1.76234
1.75279
1.7459
1.73669
1.72739
1.72057
1.71261
1.7015
1.68954
1.67761
1.66319
1.65364
1.64891
1.64574
1.64292
1.63811
1.63332
1.62902
1.81737
1.98834
1.97626
1.94384
1.91066
1.94954
2.11117
2.26588
2.29466
2.2656
2.2171
2.16905
2.12626
2.08468
2.04307
2.00162
1.96093
1.92198
1.88468
1.84863
1.81437
1.78232
1.75226
1.72314
1.69418
1.66578
1.63809
1.61119
1.58597
1.56247
1.5417
1.51919
1.50141
1.48205
1.45961
1.44956
1.44313
1.46141
1.52503
1.60841
1.69022
1.7262
1.72603
1.72514
1.72238
1.71162
1.70075
1.69125
1.68454
1.68019
1.67009
1.65245
1.63503
1.62692
1.62647
1.62559
1.62581
1.62249
1.62573
1.67073
1.39794
1.83432
1.94506
1.94104
2.01517
2.17374
2.30035
2.32412
2.28344
2.23555
2.19479
2.15317
2.11432
2.0763
2.03714
1.99732
1.95875
1.92176
1.88562
1.85161
1.82057
1.79187
1.76453
1.73727
1.70897
1.67973
1.65193
1.62873
1.60901
1.58835
1.56584
1.54215
1.51841
1.49351
1.46931
1.44828
1.43201
1.42277
1.42029
1.44448
1.51159
1.60259
1.65309
1.68312
1.69659
1.69761
1.69311
1.6806
1.66518
1.65122
1.63768
1.62105
1.61285
1.61302
1.61579
1.61946
1.62799
1.65304
1.69203
1.78303
1.05315
1.49411
1.77743
2.02514
2.27522
2.32585
2.34972
2.33678
2.2989
2.25655
2.21741
2.17524
2.12917
2.08729
2.05031
2.0163
1.98255
1.94613
1.9077
1.87137
1.83874
1.80868
1.78044
1.75319
1.72628
1.69883
1.67207
1.64774
1.62555
1.60444
1.58282
1.55963
1.5347
1.51069
1.48935
1.46782
1.44737
1.42879
1.41509
1.40412
1.39963
1.42526
1.49816
1.57061
1.62714
1.66317
1.66386
1.65966
1.64862
1.63227
1.61917
1.60722
1.60728
1.61021
1.62365
1.65687
1.70778
1.76587
1.81373
1.84733
1.00127
1.09492
1.53337
2.30441
2.50034
2.45779
2.42472
2.39642
2.35417
2.3056
2.25928
2.21788
2.17546
2.1336
2.0937
2.05364
2.01299
1.97526
1.94132
1.9078
1.87363
1.84094
1.811
1.78338
1.75709
1.72889
1.6985
1.66895
1.64208
1.61996
1.60052
1.58187
1.56043
1.53823
1.51727
1.49597
1.47391
1.45162
1.42671
1.40237
1.3845
1.36686
1.37331
1.41091
1.48039
1.56669
1.61577
1.61803
1.613
1.61021
1.61107
1.61949
1.63975
1.67165
1.72215
1.7831
1.83614
1.86816
1.88137
1.87361
1.00001
1.00305
1.80002
2.68241
2.68413
2.61386
2.54487
2.48314
2.42495
2.36573
2.31311
2.27082
2.22684
2.18139
2.13598
2.09019
2.04506
2.00229
1.96254
1.9266
1.89337
1.86156
1.82988
1.79662
1.76224
1.7287
1.69858
1.67179
1.64644
1.62307
1.59941
1.5761
1.5526
1.52941
1.50747
1.48522
1.46441
1.44282
1.42197
1.40055
1.38018
1.36139
1.34488
1.3312
1.34454
1.39644
1.47564
1.5449
1.57847
1.60693
1.65014
1.70932
1.75768
1.7992
1.83155
1.84689
1.8653
1.87676
1.87887
1.86553
1
1.00004
2.08437
2.82265
2.77266
2.70982
2.63965
2.56522
2.49221
2.42199
2.36014
2.30798
2.25683
2.20611
2.15678
2.10816
2.05984
2.01352
1.97176
1.93557
1.90295
1.87176
1.83981
1.80518
1.76898
1.73334
1.7016
1.67418
1.64874
1.62505
1.60076
1.57745
1.55404
1.52989
1.50668
1.48329
1.46306
1.44181
1.42153
1.40129
1.3788
1.35929
1.33658
1.32073
1.305
1.30765
1.33279
1.40667
1.52215
1.64897
1.74952
1.83155
1.89806
1.94455
1.96565
1.94994
1.92871
1.90417
1.87783
1.84863
)
;

boundaryField
{
    inlet
    {
        type            fixedValue;
        value           uniform 1;
    }
    outlet
    {
        type            inletOutlet;
        inletValue      uniform 1;
        value           nonuniform List<scalar> 
20
(
1.94911
1.94323
1.92158
1.88921
1.84999
1.81147
1.77885
1.75239
1.72952
1.70768
1.68454
1.66577
1.64128
1.62731
1.66879
1.78145
1.84727
1.87333
1.86508
1.84817
)
;
    }
    bottom
    {
        type            symmetryPlane;
    }
    top
    {
        type            symmetryPlane;
    }
    obstacle
    {
        type            zeroGradient;
    }
    defaultFaces
    {
        type            empty;
    }
}


// ************************************************************************* //
