/*--------------------------------*- C++ -*----------------------------------*\
  =========                 |
  \\      /  F ield         | OpenFOAM: The Open Source CFD Toolbox
   \\    /   O peration     | Website:  https://openfoam.org
    \\  /    A nd           | Version:  7
     \\/     M anipulation  |
\*---------------------------------------------------------------------------*/
FoamFile
{
    version     2.0;
    format      ascii;
    class       volScalarField;
    location    "3.1";
    object      T;
}
// * * * * * * * * * * * * * * * * * * * * * * * * * * * * * * * * * * * * * //

dimensions      [0 0 0 1 0 0 0];

internalField   nonuniform List<scalar> 
64512
(
1
1
1
1
1
1
1
1
1
1
1
1
1
1
1
1
1
1
1
1
1
1
1
1
1
1
1
1
1
1
1
1
1
1
1
1
1
1
1
1
1
1
1
1
1
1
1
1
1
2.21021
2.68567
2.68937
2.69419
2.70066
2.70771
2.71471
2.72109
2.72637
2.73018
2.73244
2.73354
2.73417
2.73497
2.73665
2.74019
2.74618
2.75375
2.76087
2.76563
2.76748
2.76768
2.76749
2.76743
2.76845
2.77177
2.77711
2.78272
2.78686
2.7889
2.7896
2.79007
2.79102
2.79271
2.79488
2.79707
2.799
2.80067
2.80219
2.80361
2.80498
2.80638
2.80798
2.80988
2.81178
2.81321
2.81391
1
1
1
1
1
1
1
1
1
1
1
1
1
1
1
1
1
1
1
1
1
1
1
1
1
1
1
1
1
1
1
1
1
1
1
1
1
1
1
1
1
1
1
1
1
1
1
1
1
2.2041
2.68387
2.68957
2.69444
2.70085
2.70784
2.71484
2.7212
2.72643
2.73016
2.73235
2.73339
2.73397
2.73474
2.73646
2.74008
2.74614
2.75374
2.76084
2.76556
2.76736
2.76754
2.76736
2.76732
2.76836
2.77169
2.77701
2.78258
2.78669
2.78871
2.7894
2.78989
2.79086
2.79257
2.79475
2.79692
2.79882
2.80048
2.802
2.80342
2.80478
2.80618
2.80775
2.80962
2.81151
2.81295
2.81367
1
1
1
1
1
1
1
1
1
1
1
1
1
1
1
1
1
1
1
1
1
1
1
1
1
1
1
1
1
1
1
1
1
1
1
1
1
1
1
1
1
1
1
1
1
1
1
1
1
2.19104
2.68179
2.68949
2.69456
2.70101
2.70802
2.71507
2.72142
2.72656
2.73014
2.73218
2.73309
2.73359
2.73433
2.73607
2.7398
2.74596
2.75363
2.76075
2.76542
2.76718
2.76734
2.76715
2.76715
2.76822
2.77154
2.77682
2.78234
2.78639
2.78838
2.78908
2.7896
2.79061
2.79234
2.79452
2.79667
2.79855
2.80019
2.8017
2.80311
2.80447
2.80584
2.80739
2.80923
2.8111
2.81254
2.81328
1
1
1
1
1
1
1
1
1
1
1
1
1
1
1
1
1
1
1
1
1
1
1
1
1
1
1
1
1
1
1
1
1
1
1
1
1
1
1
1
1
1
1
1
1
1
1
1
1
2.17166
2.67865
2.68911
2.69459
2.70124
2.70836
2.71548
2.72182
2.72681
2.73018
2.732
2.73274
2.73314
2.73381
2.73554
2.73932
2.74555
2.75327
2.76046
2.76517
2.76694
2.76711
2.76693
2.76695
2.768
2.77128
2.77647
2.78191
2.78592
2.78789
2.7886
2.78916
2.79022
2.79199
2.79417
2.79628
2.79813
2.79975
2.80125
2.80267
2.80401
2.80535
2.80685
2.80864
2.81049
2.81194
2.81269
1
1
1
1
1
1
1
1
1
1
1
1
1
1
1
1
1
1
1
1
1
1
1
1
1
1
1
1
1
1
1
1
1
1
1
1
1
1
1
1
1
1
1
1
1
1
1
1
1
2.14622
2.67494
2.6883
2.69433
2.70131
2.70857
2.71576
2.72211
2.727
2.73019
2.73184
2.73246
2.73276
2.73335
2.73499
2.73869
2.74486
2.75258
2.75988
2.76476
2.76666
2.76689
2.7667
2.76673
2.76771
2.77085
2.77589
2.78125
2.78525
2.78725
2.788
2.78861
2.78971
2.7915
2.79367
2.79576
2.79758
2.79919
2.8007
2.80212
2.80344
2.80473
2.80616
2.80789
2.80971
2.81115
2.81192
1
1
1
1
1
1
1
1
1
1
1
1
1
1
1
1
1
1
1
1
1
1
1
1
1
1
1
1
1
1
1
1
1
1
1
1
1
1
1
1
1
1
1
1
1
1
1
1
1
2.11456
2.67116
2.68711
2.6936
2.70098
2.70844
2.71578
2.7222
2.72705
2.73016
2.73173
2.73229
2.73254
2.73304
2.7345
2.73796
2.74391
2.75152
2.75896
2.76413
2.76629
2.76666
2.76646
2.76649
2.76734
2.77025
2.77508
2.78036
2.78438
2.78645
2.78727
2.78792
2.78904
2.79083
2.79299
2.79506
2.79687
2.79849
2.80002
2.80145
2.80274
2.80396
2.80531
2.80698
2.80876
2.8102
2.81098
1
1
1
1
1
1
1
1
1
1
1
1
1
1
1
1
1
1
1
1
1
1
1
1
1
1
1
1
1
1
1
1
1
1
1
1
1
1
1
1
1
1
1
1
1
1
1
1
1
2.07616
2.66743
2.68563
2.69233
2.70001
2.70771
2.71526
2.72187
2.72683
2.72999
2.7316
2.73219
2.73244
2.73287
2.73411
2.73718
2.74272
2.75009
2.75761
2.76318
2.76574
2.76633
2.76614
2.76615
2.76684
2.76946
2.77403
2.77922
2.78331
2.7855
2.78639
2.78707
2.78818
2.78995
2.79208
2.79415
2.79597
2.79762
2.79918
2.80061
2.80187
2.80304
2.80433
2.80594
2.8077
2.80914
2.80993
1
1
1
1
1
1
1
1
1
1
1
1
1
1
1
1
1
1
1
1
1
1
1
1
1
1
1
1
1
1
1
1
1
1
1
1
1
1
1
1
1
1
1
1
1
1
1
1
1
2.03033
2.66342
2.68389
2.69045
2.69824
2.70606
2.71379
2.72072
2.72606
2.72954
2.73139
2.73212
2.73242
2.7328
2.7338
2.73639
2.74138
2.74835
2.75588
2.76187
2.76495
2.76587
2.76571
2.76569
2.76621
2.7685
2.77277
2.77785
2.78202
2.78436
2.78534
2.78604
2.78713
2.78885
2.79096
2.79305
2.79492
2.79662
2.79822
2.79965
2.80087
2.80197
2.80319
2.80475
2.80649
2.80792
2.80869
1
1
1
1
1
1
1
1
1
1
1
1
1
1
1
1
1
1
1
1
1
1
1
1
1
1
1
1
1
1
1
1
1
1
1
1
1
1
1
1
1
1
1
1
1
1
1
1
1
1.97601
2.65828
2.68212
2.6881
2.69574
2.70349
2.71133
2.71862
2.72455
2.72864
2.73097
2.73199
2.7324
2.73276
2.73355
2.73561
2.7399
2.74632
2.75372
2.76011
2.76383
2.76519
2.7651
2.76508
2.76544
2.76741
2.77135
2.77631
2.78055
2.78304
2.78412
2.78482
2.78586
2.78751
2.7896
2.79172
2.79367
2.79544
2.79706
2.79848
2.79965
2.80069
2.80187
2.8034
2.80511
2.80651
2.80727
1
1
1
1
1
1
1
1
1
1
1
1
1
1
1
1
1
1
1
1
1
1
1
1
1
1
1
1
1
1
1
1
1
1
1
1
1
1
1
1
1
1
1
1
1
1
1
1
1
1.91175
2.65058
2.68091
2.68559
2.69259
2.70004
2.70795
2.71562
2.72228
2.72723
2.73034
2.73187
2.73248
2.73284
2.73343
2.73494
2.73843
2.74414
2.75126
2.75799
2.76242
2.76435
2.76438
2.76436
2.76459
2.76623
2.76982
2.77461
2.77891
2.78157
2.78274
2.78345
2.78442
2.786
2.78806
2.79023
2.79227
2.7941
2.79575
2.79713
2.79824
2.79922
2.80037
2.80189
2.80358
2.80495
2.80568
1
1
1
1
1
1
1
1
1
1
1
1
1
1
1
1
1
1
1
1
1
1
1
1
1
1
1
1
1
1
1
1
1
1
1
1
1
1
1
1
1
1
1
1
1
1
1
1
1
1.83679
2.63856
2.68075
2.6832
2.68882
2.69571
2.70361
2.71169
2.71912
2.7251
2.72918
2.73143
2.73237
2.73276
2.73318
2.73417
2.73681
2.7417
2.74837
2.75534
2.76051
2.76314
2.76347
2.76345
2.76359
2.76494
2.76816
2.77276
2.77711
2.77993
2.78121
2.78192
2.78282
2.7843
2.78633
2.78856
2.79068
2.79257
2.79422
2.79555
2.7966
2.79754
2.79868
2.8002
2.80188
2.80322
2.80392
1
1
1
1
1
1
1
1
1
1
1
1
1
1
1
1
1
1
1
1
1
1
1
1
1
1
1
1
1
1
1
1
1
1
1
1
1
1
1
1
1
1
1
1
1
1
1
1
1
1.75236
2.62048
2.68209
2.68176
2.68542
2.69133
2.6989
2.70719
2.71526
2.72218
2.72727
2.73038
2.73185
2.73241
2.73269
2.73328
2.73513
2.73917
2.74525
2.75226
2.75807
2.76145
2.76224
2.76227
2.76237
2.76347
2.76633
2.77071
2.77508
2.77807
2.77948
2.78019
2.78102
2.78241
2.78441
2.78669
2.7889
2.79085
2.79248
2.79376
2.79474
2.79564
2.7968
2.79833
2.8
2.80131
2.80198
1
1
1
1
1
1
1
1
1
1
1
1
1
1
1
1
1
1
1
1
1
1
1
1
1
1
1
1
1
1
1
1
1
1
1
1
1
1
1
1
1
1
1
1
1
1
1
1
1
1.65689
2.59458
2.68321
2.68151
2.68382
2.68818
2.69476
2.70268
2.71097
2.71856
2.72459
2.72861
2.73075
2.73161
2.7319
2.73225
2.73349
2.73673
2.74214
2.74897
2.75526
2.75936
2.76076
2.76091
2.761
2.76189
2.7644
2.76852
2.77286
2.776
2.77754
2.77827
2.77904
2.78034
2.7823
2.78463
2.78692
2.78891
2.79051
2.79172
2.79264
2.79352
2.79469
2.79624
2.79792
2.7992
2.79985
1
1
1
1
1
1
1
1
1
1
1
1
1
1
1
1
1
1
1
1
1
1
1
1
1
1
1
1
1
1
1
1
1
1
1
1
1
1
1
1
1
1
1
1
1
1
1
1
1
1.54629
2.55846
2.68351
2.68154
2.68338
2.68637
2.69155
2.69849
2.70636
2.7142
2.72094
2.72587
2.72883
2.73023
2.73072
2.73101
2.73187
2.73442
2.73914
2.74559
2.75209
2.75677
2.75886
2.75922
2.75936
2.76009
2.7623
2.76614
2.77042
2.77368
2.77536
2.77613
2.77685
2.77807
2.77999
2.78235
2.78469
2.78671
2.78829
2.78944
2.79031
2.79117
2.79234
2.79391
2.7956
2.79687
2.79751
1
1
1
1
1
1
1
1
1
1
1
1
1
1
1
1
1
1
1
1
1
1
1
1
1
1
1
1
1
1
1
1
1
1
1
1
1
1
1
1
1
1
1
1
1
1
1
1
1
1.42315
2.51159
2.68241
2.68092
2.68338
2.6856
2.68932
2.69484
2.7018
2.7093
2.71635
2.72204
2.7259
2.72804
2.72897
2.72943
2.73016
2.73222
2.73628
2.74218
2.74862
2.7537
2.75649
2.75722
2.7575
2.75818
2.76014
2.76367
2.76781
2.77113
2.77294
2.77376
2.77445
2.77561
2.77747
2.77983
2.7822
2.78424
2.78579
2.7869
2.78774
2.78857
2.78975
2.79133
2.79302
2.7943
2.79494
1
1
1
1
1
1
1
1
1
1
1
1
1
1
1
1
1
1
1
1
1
1
1
1
1
1
1
1
1
1
1
1
1
1
1
1
1
1
1
1
1
1
1
1
1
1
1
1
1
1.29048
2.45298
2.68025
2.67951
2.68276
2.68498
2.68808
2.6922
2.6977
2.70432
2.71121
2.71736
2.72201
2.72497
2.72657
2.72743
2.72827
2.73005
2.73353
2.73875
2.74488
2.75015
2.75359
2.75485
2.75539
2.7561
2.75787
2.76108
2.76501
2.76831
2.77025
2.77116
2.77185
2.77295
2.77474
2.77705
2.77943
2.78147
2.78302
2.78411
2.78492
2.78573
2.7869
2.78847
2.79016
2.79143
2.79206
1
1
1
1
1
1
1
1
1
1
1
1
1
1
1
1
1
1
1
1
1
1
1
1
1
1
1
1
1
1
1
1
1
1
1
1
1
1
1
1
1
1
1
1
1
1
1
1
1
1.15728
2.38745
2.67914
2.67907
2.68197
2.68449
2.68736
2.69073
2.69502
2.70043
2.70652
2.7125
2.71753
2.7212
2.72356
2.72501
2.72617
2.72783
2.73083
2.73532
2.74095
2.74621
2.75014
2.75204
2.75298
2.75381
2.75546
2.75834
2.762
2.76524
2.76728
2.76831
2.76905
2.7701
2.77179
2.77401
2.77633
2.77837
2.77993
2.78102
2.78182
2.78262
2.78377
2.78533
2.787
2.78825
2.78885
1
1
1
1
1
1
1
1
1
1
1
1
1
1
1
1
1
1
1
1
1
1
1
1
1
1
1
1
1
1
1
1
1
1
1
1
1
1
1
1
1
1
1
1
1
1
1
1
1
1.03472
2.32277
2.67924
2.67916
2.68118
2.68427
2.68765
2.69113
2.69482
2.69881
2.70332
2.70827
2.71305
2.71709
2.7201
2.72221
2.72381
2.72551
2.72813
2.73192
2.7369
2.74197
2.7462
2.74874
2.75017
2.75122
2.75282
2.75541
2.75876
2.76191
2.76405
2.76521
2.76601
2.76702
2.76859
2.77067
2.77291
2.77493
2.77651
2.77763
2.77844
2.77922
2.78035
2.78185
2.78348
2.78468
2.78524
1
1
1
1
1
1
1
1
1
1
1
1
1
1
1
1
1
1
1
1
1
1
1
1
1
1
1
1
1
1
1
1
1
1
1
1
1
1
1
1
1
1
1
1
1
1
1
1
1
1.00073
2.24329
2.67925
2.68053
2.68259
2.6855
2.68847
2.69154
2.69466
2.69789
2.7014
2.70532
2.70946
2.7134
2.71676
2.7194
2.72143
2.7232
2.72551
2.72866
2.73291
2.73761
2.74191
2.745
2.74696
2.74831
2.74991
2.75224
2.75528
2.75828
2.76049
2.76181
2.7627
2.76369
2.76513
2.76704
2.76916
2.77112
2.77271
2.77385
2.77469
2.77547
2.77657
2.778
2.77957
2.78071
2.78122
1
1
1
1
1
1
1
1
1
1
1
1
1
1
1
1
1
1
1
1
1
1
1
1
1
1
1
1
1
1
1
1
1
1
1
1
1
1
1
1
1
1
1
1
1
1
1
1
1
1
2.14025
2.67222
2.68052
2.68388
2.68744
2.6904
2.69313
2.69572
2.69844
2.7014
2.70462
2.70807
2.71154
2.71472
2.71741
2.71949
2.72121
2.72318
2.72572
2.72918
2.73334
2.73748
2.74092
2.74334
2.74501
2.74665
2.74878
2.75151
2.75435
2.75661
2.75809
2.7591
2.76008
2.76139
2.76311
2.76506
2.76694
2.76852
2.76969
2.77056
2.77137
2.77241
2.77372
2.77519
2.77623
2.77667
1
1
1
1
1
1
1
1
1
1
1
1
1
1
1
1
1
1
1
1
1
1
1
1
1
1
1
1
1
1
1
1
1
1
1
1
1
1
1
1
1
1
1
1
1
1
1
1
1
1
2.01086
2.65127
2.67876
2.68315
2.68679
2.69007
2.69303
2.69584
2.69866
2.70147
2.70444
2.70754
2.71064
2.71349
2.71594
2.71795
2.71946
2.72106
2.7231
2.72583
2.72938
2.73316
2.73668
2.73939
2.74135
2.74305
2.74501
2.74747
2.75011
2.75239
2.75401
2.75513
2.75613
2.75732
2.75884
2.7606
2.76235
2.76387
2.76504
2.76595
2.76678
2.76775
2.76892
2.77029
2.77124
2.77161
1
1
1
1
1
1
1
1
1
1
1
1
1
1
1
1
1
1
1
1
1
1
1
1
1
1
1
1
1
1
1
1
1
1
1
1
1
1
1
1
1
1
1
1
1
1
1
1
1
1
1.85669
2.61385
2.67113
2.67873
2.68433
2.68831
2.69168
2.69483
2.69775
2.70063
2.70363
2.70672
2.7098
2.71264
2.71501
2.7169
2.71833
2.7195
2.72104
2.72307
2.72593
2.72922
2.73251
2.73527
2.73739
2.73913
2.74095
2.74315
2.74559
2.74782
2.74954
2.75078
2.75179
2.75288
2.75423
2.75577
2.75734
2.75877
2.75994
2.76086
2.76167
2.76251
2.76354
2.76474
2.76557
2.76584
1
1
1
1
1
1
1
1
1
1
1
1
1
1
1
1
1
1
1
1
1
1
1
1
1
1
1
1
1
1
1
1
1
1
1
1
1
1
1
1
1
1
1
1
1
1
1
1
1
1
1.68659
2.56115
2.65858
2.66916
2.67656
2.68166
2.68652
2.69104
2.69494
2.69854
2.70202
2.7054
2.70863
2.71148
2.71384
2.71568
2.71708
2.71819
2.71938
2.72089
2.72308
2.72576
2.72862
2.73119
2.73328
2.73499
2.73665
2.73859
2.74078
2.74292
2.74467
2.74598
2.74701
2.74803
2.7492
2.75051
2.75185
2.75314
2.75422
2.75512
2.75582
2.7565
2.75741
2.75847
2.75922
2.75944
1
1
1
1
1
1
1
1
1
1
1
1
1
1
1
1
1
1
1
1
1
1
1
1
1
1
1
1
1
1
1
1
1
1
1
1
1
1
1
1
1
1
1
1
1
1
1
1
1
1
1.46376
2.47931
2.64897
2.65549
2.66424
2.67158
2.67798
2.68341
2.68837
2.69326
2.69795
2.70243
2.70644
2.70974
2.71222
2.71407
2.71546
2.7166
2.71768
2.71893
2.72062
2.72286
2.7251
2.72728
2.72916
2.73072
2.73218
2.73383
2.73574
2.7377
2.73941
2.74075
2.74178
2.74275
2.74375
2.74474
2.74585
2.74698
2.74795
2.74874
2.74928
2.74975
2.75041
2.75126
2.75186
2.75198
1
1
1
1
1
1
1
1
1
1
1
1
1
1
1
1
1
1
1
1
1
1
1
1
1
1
1
1
1
1
1
1
1
1
1
1
1
1
1
1
1
1
1
1
1
1
1
1
1
1
1.20075
2.39123
2.65049
2.64609
2.65161
2.65893
2.66649
2.67324
2.67946
2.68537
2.6911
2.69677
2.70193
2.70618
2.70932
2.71156
2.71322
2.71457
2.71577
2.717
2.71835
2.72006
2.72196
2.72366
2.72515
2.72644
2.72761
2.72892
2.73048
2.73219
2.73378
2.73508
2.73609
2.73696
2.73771
2.73842
2.73927
2.74017
2.74092
2.74143
2.74167
2.74185
2.74226
2.74293
2.74347
2.74358
1
1
1
1
1
1
1
1
1
1
1
1
1
1
1
1
1
1
1
1
1
1
1
1
1
1
1
1
1
1
1
1
1
1
1
1
1
1
1
1
1
1
1
1
1
1
1
1
1
1
1.01175
2.32422
2.65407
2.64644
2.64971
2.65399
2.65901
2.66424
2.67002
2.6761
2.68244
2.68886
2.695
2.70031
2.70437
2.70734
2.70962
2.71152
2.71317
2.71468
2.71608
2.71747
2.71893
2.72021
2.72129
2.72223
2.72304
2.72394
2.72509
2.72646
2.72785
2.72903
2.72995
2.73061
2.73109
2.73153
2.73206
2.73264
2.73309
2.73328
2.73318
2.73298
2.73295
2.73318
2.73344
2.73333
1
1
1
1
1
1
1
1
1
1
1
1
1
1
1
1
1
1
1
1
1
1
1
1
1
1
1
1
1
1
1
1
1
1
1
1
1
1
1
1
1
1
1
1
1
1
1
1
1
1
1.00004
2.21251
2.65386
2.65118
2.65215
2.65419
2.65712
2.6604
2.66397
2.66832
2.67385
2.68021
2.68663
2.6925
2.69738
2.70122
2.70432
2.70699
2.70937
2.71148
2.71322
2.71466
2.71597
2.71694
2.7176
2.71812
2.71855
2.71899
2.71964
2.7206
2.72168
2.72257
2.72327
2.72367
2.72386
2.72396
2.7241
2.72426
2.72426
2.72396
2.72321
2.72229
2.72169
2.72155
2.72161
2.72154
1
1
1
1
1
1
1
1
1
1
1
1
1
1
1
1
1
1
1
1
1
1
1
1
1
1
1
1
1
1
1
1
1
1
1
1
1
1
1
1
1
1
1
1
1
1
1
1
1
1
1
2.06429
2.65578
2.65639
2.65758
2.6587
2.65946
2.66076
2.66283
2.66547
2.66892
2.67314
2.67846
2.68404
2.68913
2.69352
2.69733
2.70081
2.70405
2.70696
2.70933
2.7111
2.71249
2.71346
2.71391
2.71407
2.71411
2.71413
2.71429
2.71474
2.7153
2.7158
2.71614
2.7162
2.71603
2.71572
2.71536
2.71496
2.71435
2.71336
2.71192
2.71031
2.70891
2.70777
2.70685
2.70593
1
1
1
1
1
1
1
1
1
1
1
1
1
1
1
1
1
1
1
1
1
1
1
1
1
1
1
1
1
1
1
1
1
1
1
1
1
1
1
1
1
1
1
1
1
1
1
1
1
1
1
1.86786
2.61487
2.66092
2.66069
2.66111
2.66175
2.66216
2.6632
2.66441
2.66615
2.66902
2.67252
2.67659
2.68098
2.68526
2.68935
2.69334
2.69727
2.70097
2.70408
2.70642
2.70814
2.7093
2.70982
2.70984
2.70966
2.7093
2.70905
2.70895
2.7088
2.70876
2.70861
2.70823
2.70759
2.70675
2.70577
2.70466
2.70325
2.70134
2.69874
2.69562
2.69247
2.68985
2.68789
2.68707
1
1
1
1
1
1
1
1
1
1
1
1
1
1
1
1
1
1
1
1
1
1
1
1
1
1
1
1
1
1
1
1
1
1
1
1
1
1
1
1
1
1
1
1
1
1
1
1
1
1
1
1.61844
2.52021
2.65155
2.65539
2.65868
2.66105
2.66295
2.66394
2.66486
2.66602
2.66742
2.66937
2.67188
2.67481
2.67803
2.68157
2.68543
2.68956
2.69369
2.69741
2.70036
2.70258
2.70414
2.70499
2.70516
2.70496
2.70446
2.70387
2.70314
2.70236
2.70162
2.70082
2.69984
2.69859
2.69708
2.69532
2.6933
2.69079
2.68758
2.68346
2.67869
2.67374
2.6689
2.66336
2.65799
1
1
1
1
1
1
1
1
1
1
1
1
1
1
1
1
1
1
1
1
1
1
1
1
1
1
1
1
1
1
1
1
1
1
1
1
1
1
1
1
1
1
1
1
1
1
1
1
1
1
1
1.29656
2.3988
2.64029
2.64197
2.64896
2.65466
2.6588
2.66167
2.66386
2.66551
2.66685
2.66822
2.66956
2.67106
2.67291
2.67525
2.67821
2.6818
2.68577
2.68966
2.69304
2.69572
2.69775
2.69912
2.69974
2.69969
2.69929
2.69847
2.69729
2.69589
2.6944
2.69282
2.69108
2.68907
2.68673
2.68401
2.68084
2.67699
2.6722
2.66613
2.65856
2.64905
2.63752
2.62566
2.6166
1
1
1
1
1
1
1
1
1
1
1
1
1
1
1
1
1
1
1
1
1
1
1
1
1
1
1
1
1
1
1
1
1
1
1
1
1
1
1
1
1
1
1
1
1
1
1
1
1
1
1
1.02591
2.29512
2.63778
2.63419
2.63762
2.64292
2.64999
2.65553
2.65973
2.6628
2.66501
2.66673
2.66806
2.66906
2.6699
2.67099
2.67269
2.67512
2.67821
2.68166
2.68497
2.68783
2.69021
2.69207
2.69333
2.69374
2.6935
2.69268
2.69125
2.68935
2.68715
2.68475
2.68212
2.67918
2.67582
2.67192
2.66738
2.66188
2.65502
2.64608
2.63435
2.61939
2.60127
2.5836
2.57617
1
1
1
1
1
1
1
1
1
1
1
1
1
1
1
1
1
1
1
1
1
1
1
1
1
1
1
1
1
1
1
1
1
1
1
1
1
1
1
1
1
1
1
1
1
1
1
1
1
1
1
1.00013
2.16793
2.62419
2.62379
2.6283
2.63429
2.6407
2.64671
2.65216
2.65681
2.66056
2.66347
2.66557
2.6669
2.66759
2.66805
2.66871
2.66992
2.67178
2.67422
2.67695
2.67949
2.68185
2.68396
2.68578
2.68681
2.68685
2.68623
2.68475
2.68251
2.67973
2.67655
2.67299
2.66899
2.66445
2.65918
2.65303
2.64558
2.63624
2.62406
2.60782
2.58486
2.5494
2.48375
2.34316
1
1
1
1
1
1
1
1
1
1
1
1
1
1
1
1
1
1
1
1
1
1
1
1
1
1
1
1
1
1
1
1
1
1
1
1
1
1
1
1
1
1
1
1
1
1
1
1
1
1
1
0.999999
1.9743
2.60867
2.62851
2.63102
2.6327
2.63529
2.639
2.64371
2.64869
2.65344
2.65768
2.6611
2.66346
2.66474
2.66525
2.6655
2.66589
2.66668
2.66798
2.66974
2.67154
2.67339
2.67528
2.67724
2.67879
2.6793
2.6789
2.67757
2.67524
2.67208
2.66825
2.66381
2.65868
2.65281
2.646
2.63802
2.62837
2.61624
2.60026
2.57789
2.54475
2.49027
2.40893
2.1988
1
1
1
1
1
1
1
1
1
1
1
1
1
1
1
1
1
1
1
1
1
1
1
1
1
1
1
1
1
1
1
1
1
1
1
1
1
1
1
1
1
1
1
1
1
1
1
1
1
1
1
1
1.70464
2.53901
2.62758
2.63007
2.63237
2.63362
2.63517
2.63767
2.64126
2.6456
2.65025
2.65458
2.65805
2.66037
2.66154
2.66197
2.66213
2.66236
2.66282
2.6636
2.6645
2.66548
2.66669
2.66824
2.66986
2.67074
2.67058
2.66951
2.66729
2.66398
2.65968
2.65447
2.64827
2.64105
2.6326
2.62267
2.61067
2.59562
2.57567
2.5481
2.5066
2.44916
2.32881
2.12035
1
1
1
1
1
1
1
1
1
1
1
1
1
1
1
1
1
1
1
1
1
1
1
1
1
1
1
1
1
1
1
1
1
1
1
1
1
1
1
1
1
1
1
1
1
1
1
1
1
1
1
1
1.35008
2.4135
2.62567
2.62467
2.62746
2.62987
2.63184
2.63371
2.63609
2.63923
2.64311
2.6473
2.65118
2.65429
2.65634
2.65743
2.65791
2.6581
2.65822
2.65838
2.65849
2.65858
2.65886
2.65949
2.66054
2.66135
2.66131
2.66049
2.65851
2.65525
2.65073
2.64495
2.63783
2.62934
2.61925
2.60733
2.59291
2.57509
2.55154
2.51984
2.47315
2.40457
2.2775
2.0939
1
1
1
1
1
1
1
1
1
1
1
1
1
1
1
1
1
1
1
1
1
1
1
1
1
1
1
1
1
1
1
1
1
1
1
1
1
1
1
1
1
1
1
1
1
1
1
1
1
1
1
1
1.03572
2.28778
2.62277
2.61874
2.62014
2.6236
2.62715
2.62955
2.63184
2.63438
2.63735
2.64068
2.64411
2.64727
2.64979
2.65153
2.65264
2.65323
2.65345
2.65339
2.65312
2.65257
2.65198
2.65151
2.65152
2.65163
2.65144
2.65064
2.64883
2.64573
2.64119
2.63509
2.62728
2.61772
2.60615
2.5924
2.57568
2.55525
2.52879
2.49335
2.44393
2.36904
2.2527
2.10302
1
1
1
1
1
1
1
1
1
1
1
1
1
1
1
1
1
1
1
1
1
1
1
1
1
1
1
1
1
1
1
1
1
1
1
1
1
1
1
1
1
1
1
1
1
1
1
1
1
1
1
1
1.00024
2.13338
2.60033
2.6049
2.61103
2.61628
2.62076
2.62423
2.62728
2.63003
2.63262
2.63518
2.63776
2.64038
2.64269
2.64463
2.6462
2.64736
2.64801
2.64812
2.64785
2.6471
2.64595
2.64457
2.64329
2.64229
2.64139
2.64021
2.63832
2.63533
2.63087
2.62469
2.61649
2.60617
2.59341
2.57809
2.55937
2.5366
2.50783
2.4699
2.41914
2.34468
2.24465
2.12021
1
1
1
1
1
1
1
1
1
1
1
1
1
1
1
1
1
1
1
1
1
1
1
1
1
1
1
1
1
1
1
1
1
1
1
1
1
1
1
1
1
1
1
1
1
1
1
1
1
1
1
1
0.999998
1.89508
2.56729
2.60596
2.60944
2.61277
2.61566
2.61881
2.62223
2.62541
2.62814
2.63039
2.63235
2.63425
2.63598
2.63756
2.6391
2.64051
2.64163
2.64218
2.64212
2.64154
2.64022
2.63828
2.63599
2.63374
2.63171
2.62973
2.62739
2.62426
2.61982
2.61367
2.60536
2.59463
2.58109
2.56455
2.54431
2.51966
2.48911
2.4501
2.39876
2.32957
2.24343
2.13717
1
1
1
1
1
1
1
1
1
1
1
1
1
1
1
1
1
1
1
1
1
1
1
1
1
1
1
1
1
1
1
1
1
1
1
1
1
1
1
1
1
1
1
1
1
1
1
1
1
1
1
1
1
1.53811
2.46697
2.60552
2.60582
2.60744
2.60982
2.61319
2.61671
2.62019
2.62325
2.62564
2.62744
2.62889
2.63007
2.63102
2.63207
2.63325
2.63446
2.63537
2.63571
2.6354
2.63428
2.63222
2.62938
2.62612
2.62285
2.61972
2.6165
2.61283
2.60813
2.60193
2.59366
2.58286
2.56902
2.55174
2.53051
2.50459
2.47294
2.43366
2.3828
2.32021
2.24566
2.15416
1
1
1
1
1
1
1
1
1
1
1
1
1
1
1
1
1
1
1
1
1
1
1
1
1
1
1
1
1
1
1
1
1
1
1
1
1
1
1
1
1
1
1
1
1
1
1
1
1
1
1
1
1
1.10835
2.32948
2.60524
2.59897
2.59957
2.60227
2.60631
2.61016
2.61393
2.61738
2.62019
2.62226
2.62372
2.62459
2.62505
2.6255
2.62612
2.62697
2.62788
2.6285
2.62845
2.62772
2.62589
2.62294
2.61913
2.61486
2.61053
2.60616
2.60157
2.59627
2.58979
2.58149
2.57078
2.55702
2.53957
2.51794
2.4914
2.4595
2.41993
2.37148
2.31544
2.24888
2.16902
1
1
1
1
1
1
1
1
1
1
1
1
1
1
1
1
1
1
1
1
1
1
1
1
1
1
1
1
1
1
1
1
1
1
1
1
1
1
1
1
1
1
1
1
1
1
1
1
1
1
1
1
1
1.00287
2.19262
2.58476
2.58479
2.58937
2.59402
2.59857
2.60265
2.60669
2.61046
2.61377
2.61638
2.6182
2.61921
2.61949
2.61951
2.61956
2.61976
2.62018
2.62066
2.62078
2.62033
2.61891
2.61622
2.61233
2.60751
2.60222
2.59667
2.59092
2.58467
2.57755
2.56897
2.5583
2.5448
2.52766
2.50626
2.47987
2.44825
2.40918
2.36397
2.31289
2.25169
2.18232
1
1
1
1
1
1
1
1
1
1
1
1
1
1
1
1
1
1
1
1
1
1
1
1
1
1
1
1
1
1
1
1
1
1
1
1
1
1
1
1
1
1
1
1
1
1
1
1
1
1
1
1
1
0.999988
1.94537
2.55648
2.58559
2.58861
2.59117
2.59334
2.59609
2.59945
2.60306
2.60656
2.6096
2.6119
2.61333
2.61382
2.61368
2.61334
2.61297
2.61272
2.6127
2.61265
2.61228
2.61118
2.60889
2.60527
2.60037
2.59453
2.58806
2.58121
2.57384
2.5658
2.55662
2.54573
2.5324
2.51578
2.49508
2.46947
2.43885
2.40125
2.35874
2.31145
2.25471
2.19491
1
1
1
1
1
1
1
1
1
1
1
1
1
1
1
1
1
1
1
1
1
1
1
1
1
1
1
1
1
1
1
1
1
1
1
1
1
1
1
1
1
1
1
1
1
1
1
1
1
1
1
1
1
0.999997
1.5554
2.46145
2.58673
2.58657
2.5876
2.58857
2.59043
2.59305
2.59601
2.59924
2.60234
2.60493
2.6068
2.60773
2.60769
2.60729
2.60659
2.60575
2.60503
2.60446
2.60383
2.60276
2.6008
2.5976
2.59297
2.58703
2.58005
2.57235
2.56398
2.55492
2.54484
2.53341
2.52
2.50382
2.48405
2.45958
2.4308
2.39504
2.35506
2.31132
2.25917
2.20648
1
1
1
1
1
1
1
1
1
1
1
1
1
1
1
1
1
1
1
1
1
1
1
1
1
1
1
1
1
1
1
1
1
1
1
1
1
1
1
1
1
1
1
1
1
1
1
1
1
1
1
1
1
0.999999
1.09113
2.31721
2.58741
2.58131
2.58169
2.58324
2.58513
2.5872
2.58948
2.59211
2.5949
2.59748
2.59957
2.60095
2.60131
2.60101
2.60025
2.59909
2.59779
2.59658
2.59543
2.59411
2.5922
2.5893
2.58505
2.57935
2.5723
2.56415
2.55506
2.54516
2.53414
2.5219
2.50808
2.49204
2.47302
2.44992
2.42307
2.38928
2.35278
2.31223
2.26439
2.21604
1
1
1
1
1
1
1
1
1
1
1
1
1
1
1
1
1
1
1
1
1
1
1
1
1
1
1
1
1
1
1
1
1
1
1
1
1
1
1
1
1
1
1
1
1
1
1
1
1
1
1
1
1
1
1.00198
2.15782
2.56173
2.56683
2.57264
2.57642
2.57928
2.58153
2.58355
2.58562
2.58786
2.59008
2.59205
2.5936
2.59437
2.59426
2.59364
2.59247
2.59087
2.58911
2.58733
2.58551
2.58335
2.58048
2.57651
2.57115
2.56435
2.5562
2.54681
2.53628
2.52454
2.51155
2.49705
2.48082
2.46231
2.44042
2.41472
2.38393
2.3518
2.31303
2.2686
2.22417
1
1
1
1
1
1
1
1
1
1
1
1
1
1
1
1
1
1
1
1
1
1
1
1
1
1
1
1
1
1
1
1
1
1
1
1
1
1
1
1
1
1
1
1
1
1
1
1
1
1
1
1
1
1
0.999987
1.85293
2.51945
2.56017
2.56576
2.56982
2.57313
2.57568
2.57773
2.57959
2.58139
2.58313
2.58471
2.5861
2.58703
2.58716
2.58674
2.58571
2.58407
2.58201
2.57972
2.57733
2.5747
2.57158
2.56762
2.5625
2.55603
2.54815
2.53885
2.52813
2.51596
2.50243
2.48739
2.47061
2.45229
2.43094
2.40655
2.37935
2.34973
2.31192
2.27291
2.23215
1
1
1
1
1
1
1
1
1
1
1
1
1
1
1
1
1
1
1
1
1
1
1
1
1
1
1
1
1
1
1
1
1
1
1
1
1
1
1
1
1
1
1
1
1
1
1
1
1
1
1
1
1
1
0.999997
1.40382
2.40742
2.55795
2.55725
2.56052
2.5653
2.56868
2.57119
2.57322
2.5749
2.57633
2.57757
2.57863
2.57945
2.57971
2.57942
2.57857
2.57705
2.57495
2.57238
2.56952
2.56638
2.56285
2.55865
2.55354
2.5473
2.53975
2.53078
2.52024
2.50808
2.49434
2.479
2.46179
2.44324
2.42232
2.39928
2.37408
2.34518
2.31067
2.2775
2.23891
1
1
1
1
1
1
1
1
1
1
1
1
1
1
1
1
1
1
1
1
1
1
1
1
1
1
1
1
1
1
1
1
1
1
1
1
1
1
1
1
1
1
1
1
1
1
1
1
1
1
1
1
1
1
0.999999
1.04239
2.25701
2.55988
2.55373
2.55449
2.55738
2.56071
2.56366
2.5661
2.56801
2.56947
2.57059
2.57141
2.57203
2.57224
2.57199
2.57123
2.56986
2.56785
2.5652
2.56208
2.55853
2.55457
2.54999
2.54467
2.53841
2.53107
2.52242
2.51226
2.50044
2.48689
2.47162
2.45419
2.43573
2.41514
2.39223
2.36811
2.34041
2.31028
2.27965
2.24276
1
1
1
1
1
1
1
1
1
1
1
1
1
1
1
1
1
1
1
1
1
1
1
1
1
1
1
1
1
1
1
1
1
1
1
1
1
1
1
1
1
1
1
1
1
1
1
1
1
1
1
1
1
1
1
1.00031
2.01187
2.52466
2.54247
2.54804
2.55142
2.55411
2.55627
2.55852
2.56052
2.56212
2.56332
2.56413
2.56461
2.5647
2.56441
2.56365
2.56236
2.56046
2.55788
2.5547
2.55095
2.54666
2.54173
2.5361
2.52964
2.5223
2.51383
2.50403
2.4927
2.47965
2.46482
2.44762
2.42958
2.40863
2.38607
2.36344
2.33693
2.309
2.27912
2.24602
1
1
1
1
1
1
1
1
1
1
1
1
1
1
1
1
1
1
1
1
1
1
1
1
1
1
1
1
1
1
1
1
1
1
1
1
1
1
1
1
1
1
1
1
1
1
1
1
1
1
1
1
1
1
1
0.999998
1.57421
2.43501
2.54609
2.54474
2.54569
2.54798
2.54975
2.55144
2.55308
2.55458
2.55584
2.55674
2.55723
2.55723
2.55689
2.55607
2.55477
2.55292
2.55043
2.54731
2.54353
2.53909
2.5339
2.52799
2.52124
2.51371
2.50522
2.49561
2.48471
2.47222
2.45803
2.44161
2.42396
2.40292
2.38175
2.35977
2.33322
2.30674
2.27898
2.2499
1
1
1
1
1
1
1
1
1
1
1
1
1
1
1
1
1
1
1
1
1
1
1
1
1
1
1
1
1
1
1
1
1
1
1
1
1
1
1
1
1
1
1
1
1
1
1
1
1
1
1
1
1
1
1
1
1.08904
2.28631
2.54547
2.5381
2.53905
2.54088
2.54294
2.54429
2.54557
2.54681
2.54799
2.54896
2.54955
2.54958
2.54922
2.54837
2.54702
2.54517
2.54275
2.53974
2.53606
2.53163
2.52635
2.52025
2.51327
2.50553
2.49687
2.48728
2.47665
2.46458
2.45108
2.43556
2.41838
2.3985
2.37868
2.35581
2.33009
2.30619
2.27989
2.25238
1
1
1
1
1
1
1
1
1
1
1
1
1
1
1
1
1
1
1
1
1
1
1
1
1
1
1
1
1
1
1
1
1
1
1
1
1
1
1
1
1
1
1
1
1
1
1
1
1
1
1
1
1
1
1
1
1.00174
2.08288
2.51408
2.5223
2.52911
2.53423
2.5366
2.53766
2.53862
2.53945
2.54031
2.54115
2.54173
2.54181
2.54146
2.5406
2.53922
2.53733
2.53494
2.53201
2.52845
2.52412
2.51887
2.51273
2.50567
2.49777
2.48896
2.47924
2.46871
2.45683
2.44385
2.42907
2.41283
2.39461
2.37515
2.35222
2.3293
2.3062
2.28019
2.2533
1
1
1
1
1
1
1
1
1
1
1
1
1
1
1
1
1
1
1
1
1
1
1
1
1
1
1
1
1
1
1
1
1
1
1
1
1
1
1
1
1
1
1
1
1
1
1
1
1
1
1
1
1
1
1
1
0.99999
1.65413
2.43874
2.52622
2.5262
2.52735
2.52975
2.5314
2.53228
2.53274
2.53314
2.5336
2.53394
2.53392
2.53355
2.53268
2.53127
2.52937
2.52699
2.52412
2.52067
2.51646
2.51134
2.50532
2.49835
2.49041
2.48152
2.4717
2.46117
2.44927
2.43661
2.42249
2.40716
2.39011
2.3713
2.35017
2.32909
2.30569
2.28012
2.25454
1
1
1
1
1
1
1
1
1
1
1
1
1
1
1
1
1
1
1
1
1
1
1
1
1
1
1
1
1
1
1
1
1
1
1
1
1
1
1
1
1
1
1
1
1
1
1
1
1
1
1
1
1
1
1
1
0.999997
1.11655
2.29243
2.52716
2.51865
2.51939
2.52122
2.52374
2.52511
2.52587
2.52618
2.52632
2.52632
2.52616
2.52565
2.52469
2.52324
2.52131
2.51892
2.51607
2.51266
2.50855
2.50359
2.49778
2.49102
2.48324
2.47443
2.4646
2.45408
2.44203
2.42962
2.41599
2.40104
2.38508
2.36762
2.34838
2.32775
2.30439
2.28085
2.257
1
1
1
1
1
1
1
1
1
1
1
1
1
1
1
1
1
1
1
1
1
1
1
1
1
1
1
1
1
1
1
1
1
1
1
1
1
1
1
1
1
1
1
1
1
1
1
1
1
1
1
1
1
1
1
1
1
1.00312
2.09662
2.49771
2.50123
2.5068
2.51279
2.51559
2.51746
2.51879
2.51935
2.51932
2.51911
2.51868
2.51794
2.51682
2.51526
2.51326
2.51082
2.50793
2.50451
2.50046
2.49566
2.49013
2.48365
2.47615
2.46759
2.45788
2.44738
2.43534
2.4232
2.40964
2.39502
2.38021
2.36377
2.34541
2.32526
2.30415
2.2825
2.25955
1
1
1
1
1
1
1
1
1
1
1
1
1
1
1
1
1
1
1
1
1
1
1
1
1
1
1
1
1
1
1
1
1
1
1
1
1
1
1
1
1
1
1
1
1
1
1
1
1
1
1
1
1
1
1
1
1
0.999985
1.65192
2.42289
2.5052
2.5047
2.50561
2.50774
2.5101
2.51176
2.51261
2.51256
2.51222
2.51155
2.51054
2.50918
2.50744
2.50529
2.50272
2.4997
2.4962
2.49216
2.4875
2.4822
2.47605
2.46889
2.4607
2.45125
2.44091
2.42915
2.41714
2.40355
2.38961
2.37541
2.35917
2.34144
2.32314
2.30421
2.28317
2.26068
1
1
1
1
1
1
1
1
1
1
1
1
1
1
1
1
1
1
1
1
1
1
1
1
1
1
1
1
1
1
1
1
1
1
1
1
1
1
1
1
1
1
1
1
1
1
1
1
1
1
1
1
1
1
1
1
1
0.999996
1.11473
2.27443
2.50786
2.49869
2.49834
2.49956
2.50203
2.5038
2.50508
2.50547
2.5052
2.50452
2.5034
2.50189
2.49997
2.49763
2.49485
2.49163
2.48797
2.48388
2.47932
2.47417
2.46824
2.46153
2.45369
2.44464
2.43465
2.42336
2.41143
2.39818
2.38487
2.3705
2.3544
2.33791
2.32137
2.3034
2.28252
2.26135
1
1
1
1
1
1
1
1
1
1
1
1
1
1
1
1
1
1
1
1
1
1
1
1
1
1
1
1
1
1
1
1
1
1
1
1
1
1
1
1
1
1
1
1
1
1
1
1
1
1
1
1
1
1
1
1
1
0.999999
1.00291
2.05017
2.4761
2.48085
2.48665
2.49224
2.49434
2.49588
2.49733
2.49814
2.49796
2.49734
2.49624
2.4947
2.49269
2.49021
2.48722
2.48376
2.47989
2.47567
2.47109
2.466
2.46031
2.45375
2.4464
2.43789
2.42839
2.41763
2.40598
2.39329
2.38007
2.36551
2.35032
2.33491
2.31883
2.30085
2.28093
2.2622
1
1
1
1
1
1
1
1
1
1
1
1
1
1
1
1
1
1
1
1
1
1
1
1
1
1
1
1
1
1
1
1
1
1
1
1
1
1
1
1
1
1
1
1
1
1
1
1
1
1
1
1
1
1
1
1
1
1
0.999989
1.55028
2.3844
2.48175
2.48345
2.48637
2.48699
2.48829
2.48982
2.49083
2.49069
2.49011
2.48908
2.48763
2.48566
2.48313
2.48002
2.47637
2.4723
2.46788
2.46315
2.45802
2.45238
2.44602
2.43896
2.43094
2.42201
2.41189
2.4007
2.3885
2.37533
2.36129
2.34705
2.33172
2.31562
2.29809
2.27999
2.26285
1
1
1
1
1
1
1
1
1
1
1
1
1
1
1
1
1
1
1
1
1
1
1
1
1
1
1
1
1
1
1
1
1
1
1
1
1
1
1
1
1
1
1
1
1
1
1
1
1
1
1
1
1
1
1
1
1
1
0.999997
1.07786
2.22519
2.48202
2.47792
2.47818
2.47856
2.48001
2.48181
2.48289
2.48284
2.48238
2.48149
2.48019
2.47839
2.47599
2.47296
2.46929
2.4651
2.46048
2.45552
2.45023
2.44452
2.43828
2.43143
2.42374
2.41533
2.40586
2.3952
2.38353
2.37082
2.35759
2.34351
2.328
2.31257
2.29627
2.27957
2.26268
1
1
1
1
1
1
1
1
1
1
1
1
1
1
1
1
1
1
1
1
1
1
1
1
1
1
1
1
1
1
1
1
1
1
1
1
1
1
1
1
1
1
1
1
1
1
1
1
1
1
1
1
1
1
1
1
1
1
0.999999
1.00117
1.90246
2.43793
2.46387
2.46716
2.46896
2.47234
2.47444
2.47535
2.47528
2.47483
2.47393
2.47266
2.47098
2.4688
2.46599
2.46249
2.45835
2.45362
2.44846
2.44293
2.43705
2.43079
2.42404
2.41661
2.40858
2.39957
2.38946
2.37844
2.36643
2.3538
2.33978
2.32477
2.31034
2.2949
2.27869
2.26149
1
1
1
1
1
1
1
1
1
1
1
1
1
1
1
1
1
1
1
1
1
1
1
1
1
1
1
1
1
1
1
1
1
1
1
1
1
1
1
1
1
1
1
1
1
1
1
1
1
1
1
1
1
1
1
1
1
1
1
0.999996
1.30345
2.31343
2.46909
2.46138
2.46286
2.46478
2.46637
2.46688
2.46695
2.46668
2.46592
2.46474
2.46318
2.46124
2.45876
2.4556
2.45171
2.44706
2.44181
2.43608
2.42999
2.4236
2.41682
2.40955
2.40175
2.39302
2.38344
2.37308
2.36177
2.34964
2.33605
2.32207
2.30829
2.2931
2.27684
2.25987
1
1
1
1
1
1
1
1
1
1
1
1
1
1
1
1
1
1
1
1
1
1
1
1
1
1
1
1
1
1
1
1
1
1
1
1
1
1
1
1
1
1
1
1
1
1
1
1
1
1
1
1
1
1
1
1
1
1
1
0.999999
1.02096
2.1449
2.44935
2.44876
2.45229
2.45602
2.45658
2.45719
2.45784
2.45803
2.45757
2.45656
2.4551
2.45332
2.45112
2.44838
2.44488
2.44056
2.43547
2.42973
2.42353
2.41699
2.41009
2.40283
2.39511
2.38653
2.37737
2.36753
2.35681
2.34525
2.33243
2.3194
2.30586
2.29085
2.27502
2.25905
1
1
1
1
1
1
1
1
1
1
1
1
1
1
1
1
1
1
1
1
1
1
1
1
1
1
1
1
1
1
1
1
1
1
1
1
1
1
1
1
1
1
1
1
1
1
1
1
1
1
1
1
1
1
1
1
1
1
1
1
1.00005
1.68269
2.37933
2.44808
2.45033
2.4501
2.44846
2.44873
2.44945
2.44978
2.44937
2.44839
2.44694
2.44519
2.44314
2.44072
2.43766
2.43382
2.42911
2.4236
2.41746
2.41083
2.40377
2.39641
2.38863
2.38015
2.37132
2.36183
2.35158
2.34062
2.32871
2.31627
2.30291
2.28847
2.27359
2.2587
1
1
1
1
1
1
1
1
1
1
1
1
1
1
1
1
1
1
1
1
1
1
1
1