/*--------------------------------*- C++ -*----------------------------------*\
  =========                 |
  \\      /  F ield         | OpenFOAM: The Open Source CFD Toolbox
   \\    /   O peration     | Website:  https://openfoam.org
    \\  /    A nd           | Version:  9
     \\/     M anipulation  |
\*---------------------------------------------------------------------------*/
FoamFile
{
    format      ascii;
    class       surfaceScalarField;
    location    "20.4";
    object      phi;
}
// * * * * * * * * * * * * * * * * * * * * * * * * * * * * * * * * * * * * * //

dimensions      [0 3 -1 0 0 0 0];

internalField   nonuniform List<scalar> 
16735
(
-0.00303322
0.00303322
4.08077e-09
-0.00910577
0.00607254
7.21782e-09
-0.0170936
0.00798787
8.31767e-09
-0.0262763
0.00918262
8.52946e-09
-0.0365647
0.0102884
8.41542e-09
-0.0473952
0.0108305
7.73198e-09
-0.0599185
0.0125233
6.11212e-09
-0.0714647
0.0115462
2.64925e-09
-0.0871166
0.0156519
-3.34935e-09
0.0123753
-1.32153e-08
-0.0994919
-0.0029798
0.00601302
-0.00895295
0.0120457
-0.016798
0.0158329
-0.0257839
0.0181685
-0.0358057
0.0203102
-0.0462632
0.021288
-0.0582933
0.0245534
-0.0691145
0.0223674
-0.0839181
0.0304556
0.0232964
-0.0948392
-0.00287533
0.00888835
-0.00865283
0.0178232
-0.0162158
0.0233959
-0.0248124
0.0267651
-0.0343041
0.029802
-0.0440261
0.0310099
-0.0550687
0.035596
-0.0644672
0.0317659
-0.0776129
0.0436013
0.0314044
-0.085721
-0.0027244
0.0116128
-0.00821625
0.023315
-0.0153647
0.0305443
-0.0233878
0.0347882
-0.0320921
0.0385063
-0.0407355
0.0396534
-0.0502918
0.0451524
-0.0576128
0.0390868
-0.0683489
0.0543374
0.0355109
-0.0724554
-0.00253369
0.0141464
-0.00765886
0.0284402
-0.0142707
0.0371561
-0.0215475
0.042065
-0.0292152
0.046174
-0.0364637
0.0469019
-0.0440225
0.0527112
-0.0486531
0.0437174
-0.0562603
0.0619446
0.0346329
-0.0553823
-0.00231156
0.016458
-0.00700038
0.033129
-0.0129644
0.0431202
-0.0193382
0.0484388
-0.0257303
0.052566
-0.0312984
0.05247
-0.0363237
0.0577365
-0.0376807
0.0450744
-0.0413715
0.0656354
0.0279735
-0.0347121
-0.00206772
0.0185257
-0.00626368
0.037325
-0.0114824
0.0483389
-0.0168129
0.0537693
-0.0217002
0.0574533
-0.0253348
0.0561045
-0.0272508
0.0596526
-0.0247791
0.0426027
-0.0234868
0.0643431
0.0148995
-0.0104128
-0.00181273
0.0203385
-0.00547363
0.0409859
-0.00986416
0.0527294
-0.0140266
0.0579317
-0.0171874
0.0606142
-0.0186632
0.0575803
-0.0168314
0.0578208
-0.0100781
0.0358494
-0.0019654
0.0562304
-0.00584911
0.0187832
-0.00155742
0.0218959
-0.0046556
0.0440841
-0.00814964
0.0562235
-0.0110309
0.060813
-0.0122439
0.0618271
-0.0113505
0.056687
-0.00498792
0.0514582
0.00660159
0.0242599
0.0223217
0.0405103
-0.0373807
0.0538532
-0.00131227
0.0232082
-0.00383384
0.0466056
-0.00637619
0.0587658
-0.00786782
0.0623046
-0.00689555
0.0608549
-0.00343885
0.0532303
0.00794916
0.0400702
0.0255675
0.00664158
0.0509458
0.0151319
-0.082026
0.0955911
-0.00108672
0.0242949
-0.00302952
0.0485484
-0.004575
0.0603113
-0.00456366
0.0622932
-0.00108995
0.0573811
0.00545349
0.0466868
0.0223441
0.0231795
0.0464237
-0.017438
0.0840837
-0.022528
-0.142345
0.144403
-0.000888455
0.0251833
-0.00225858
0.0499185
-0.00276616
0.0608189
-0.00113507
0.0606622
0.00496766
0.0512784
0.0154808
0.0361737
0.03878
-0.000119631
0.0700856
-0.0487436
0.122044
-0.0744861
-0.219496
0.199194
-0.000722709
0.025906
-0.00152951
0.0507253
-0.000948694
0.0602381
0.00253631
0.0571772
0.0116035
0.0422112
0.0269006
0.0208766
0.0576038
-0.0308228
0.0979451
-0.0890849
0.165177
-0.141718
-0.311388
0.25707
-0.000591828
0.0264979
-0.000841766
0.0509753
0.000877789
0.0585185
0.00645975
0.0515952
0.0189976
0.0296734
0.0402793
-0.000405154
0.0791882
-0.0697317
0.131058
-0.140954
0.213031
-0.223691
-0.412177
0.31382
-0.000495961
0.0269938
-0.000181534
0.0506609
0.00276065
0.0555763
0.0107379
0.0436179
0.0273935
0.0130178
0.056134
-0.0291456
0.103913
-0.117511
0.168982
-0.206023
0.263043
-0.317752
-0.514075
0.364941
-0.000424951
0.0274188
0.000469769
0.0497661
0.00479639
0.0512497
0.0155704
0.0328439
0.0371426
-0.00855442
0.0747681
-0.0667711
0.131991
-0.174734
0.20956
-0.283591
0.310503
-0.418696
-0.610263
0.406691
-0.000368137
0.0277869
0.00115622
0.0482418
0.00709109
0.0453148
0.0212216
0.0187134
0.0487048
-0.0360376
0.0961599
-0.114226
0.162866
-0.241441
0.249548
-0.370273
0.350491
-0.519638
-0.6967
0.436927
-0.000312552
0.0280995
0.00192969
0.0459995
0.0097835
0.037461
0.0280029
0.000493999
0.0625216
-0.0705563
0.119915
-0.171619
0.194762
-0.316288
0.285406
-0.460917
0.379941
-0.614173
-0.772076
0.455318
-0.000240925
0.0283404
0.00285126
0.0429074
0.0130361
0.0272762
0.0362241
-0.022694
0.0787726
-0.113105
0.145103
-0.23795
0.225086
-0.396271
0.314224
-0.550055
0.398231
-0.69818
-0.83699
0.463145
-0.000132637
0.028473
0.00398827
0.0387864
0.0170274
0.0142371
0.0461218
-0.0517884
0.0971319
-0.164115
0.170169
-0.310987
0.251365
-0.477467
0.334522
-0.633212
0.406471
-0.770129
-0.893546
0.463026
3.34969e-05
0.0284395
0.00541189
0.0334081
0.0219386
-0.00228965
0.0577606
-0.0876104
0.116693
-0.223047
0.193238
-0.387533
0.271921
-0.55615
0.346327
-0.707619
0.40772
-0.831522
-0.949139
0.463313
0.000252165
0.0281874
0.007197
0.0264632
0.0279275
-0.0230202
0.0709225
-0.130605
0.136126
-0.28825
0.212702
-0.464109
0.286069
-0.629517
0.350817
-0.772367
0.405461
-0.886165
-0.997366
0.453688
0.000560877
0.0276265
0.00942146
0.0176026
0.0350757
-0.0486744
0.0850531
-0.180583
0.15401
-0.357207
0.227607
-0.537706
0.294018
-0.695928
0.350164
-0.828513
0.397581
-0.933582
-1.03835
0.43856
0.000969904
0.0266566
0.0121625
0.00641002
0.0433217
-0.0798336
0.0993216
-0.236583
0.169187
-0.427072
0.237697
-0.606216
0.296646
-0.754877
0.345049
-0.876916
0.38637
-0.974903
-1.07504
0.423065
0.0014905
0.0251661
0.0154863
-0.00758575
0.0524192
-0.116767
0.112789
-0.296953
0.180974
-0.495256
0.243245
-0.668487
0.294849
-0.806481
0.336645
-0.918712
0.372962
-1.01122
-1.10776
0.405676
0.00213661
0.0230295
0.0194211
-0.0248702
0.0619573
-0.159303
0.124612
-0.359608
0.189161
-0.559805
0.244762
-0.724088
0.289572
-0.851291
0.325785
-0.954924
0.357882
-1.04332
-1.1374
0.387524
0.00292996
0.0200995
0.0239263
-0.0458666
0.0714219
-0.206798
0.134205
-0.42239
0.193876
-0.619476
0.242874
-0.773087
0.28161
-0.890027
0.313132
-0.986446
0.341742
-1.07193
-1.16436
0.368704
0.00390377
0.0161957
0.0288802
-0.070843
0.0802649
-0.258183
0.141288
-0.483414
0.195442
-0.673629
0.238201
-0.815846
0.271623
-0.923449
0.299201
-1.01402
0.324817
-1.09754
-1.18893
0.349383
0.0050984
0.0110973
0.0340962
-0.0998408
0.0879888
-0.312076
0.145844
-0.541269
0.19427
-0.722055
0.231309
-0.852886
0.260133
-0.952272
0.284356
-1.03825
0.30735
-1.12054
-1.21128
0.329708
0.00654472
0.00455263
0.0393554
-0.132651
0.0942408
-0.366961
0.14802
-0.595048
0.190792
-0.764828
0.222684
-0.884778
0.247541
-0.977129
0.268866
-1.05957
0.289487
-1.14116
-1.23152
0.309726
0.00824137
-0.00368874
0.0444349
-0.168845
0.0988499
-0.421376
0.148044
-0.644242
0.185418
-0.802201
0.212731
-0.912091
0.234154
-0.998552
0.252919
-1.07834
0.271331
-1.15957
-1.2497
0.289511
0.0101426
-0.0138314
0.0491184
-0.207821
0.101793
-0.474051
0.146183
-0.688632
0.178516
-0.834535
0.201778
-0.935353
0.220199
-1.01697
0.236648
-1.09479
0.252957
-1.17588
-1.26584
0.269096
0.0121671
-0.0259985
0.0532033
-0.248857
0.103145
-0.523992
0.142706
-0.728193
0.170407
-0.862236
0.190084
-0.955031
0.205844
-1.03273
0.22015
-1.10909
0.234418
-1.19015
-1.27995
0.248524
0.0142193
-0.0402178
0.0565189
-0.291157
0.10303
-0.570504
0.13787
-0.763033
0.161357
-0.885722
0.177854
-0.971528
0.191215
-1.04609
0.203493
-1.12137
0.215757
-1.20241
-1.29202
0.227826
0.0162121
-0.0564299
0.058949
-0.333893
0.101604
-0.613159
0.131912
-0.79334
0.151585
-0.905396
0.165244
-0.985186
0.176401
-1.05725
0.186727
-1.1317
0.19701
-1.21269
-1.30204
0.207035
0.0180749
-0.0745048
0.0604396
-0.376258
0.0990306
-0.65175
0.125046
-0.819356
0.141273
-0.921623
0.152374
-0.996287
0.161473
-1.06635
0.169895
-1.14012
0.178209
-1.22101
-1.31002
0.186185
0.0197493
-0.0942541
0.0609925
-0.417501
0.0954709
-0.686229
0.117458
-0.841343
0.130569
-0.934734
0.139339
-1.00506
0.146484
-1.0735
0.153032
-1.14666
0.159383
-1.22736
-1.31594
0.165307
0.0211827
-0.115437
0.0606485
-0.456967
0.0910775
-0.716658
0.109312
-0.859578
0.119592
-0.945013
0.12621
-1.01168
0.131476
-1.07876
0.136169
-1.15136
0.140562
-1.23175
-1.31981
0.144433
0.0223248
-0.137762
0.0594657
-0.494108
0.0859882
-0.74318
0.100747
-0.874336
0.108439
-0.952705
0.113043
-1.01628
0.116482
-1.0822
0.119333
-1.15421
0.121772
-1.23419
-1.32164
0.123598
0.0231325
-0.160894
0.057534
-0.528509
0.0803294
-0.765975
0.0918776
-0.885885
0.097188
-0.958016
0.0998827
-1.01897
0.101531
-1.08385
0.10255
-1.15523
0.103043
-1.23469
-1.32144
0.102844
0.0235775
-0.184472
0.0550315
-0.559964
0.0742189
-0.785163
0.0827994
-0.894465
0.0859005
-0.961117
0.0867656
-1.01984
0.0866505
-1.08373
0.0858403
-1.15442
0.0844024
-1.23325
-1.31926
0.0822214
0.0236483
-0.20812
0.0520226
-0.588338
0.0677609
-0.800901
0.0735907
-0.900295
0.0746258
-0.962152
0.0737216
-1.01894
0.0718622
-1.08187
0.069229
-1.15178
0.065871
-1.22989
-1.31508
0.0616963
0.0233509
-0.231471
0.048579
-0.613566
0.0610455
-0.813368
0.0643177
-0.903567
0.0634031
-0.961237
0.0607761
-1.01631
0.0571881
-1.07829
0.0527412
-1.14734
0.0474673
-1.22462
-1.3089
0.0412849
0.0227067
-0.254178
0.0447747
-0.635634
0.0541518
-0.822745
0.0550345
-0.90445
0.0522644
-0.958467
0.0479513
-1.01199
0.0426481
-1.07298
0.0364025
-1.14109
0.0292353
-1.21745
-1.30068
0.0210141
0.0217495
-0.275927
0.0406799
-0.654564
0.0471305
-0.829195
0.0457845
-0.903104
0.0412363
-0.953919
0.0352671
-1.00603
0.0282608
-1.06598
0.0202259
-1.13306
0.0112392
-1.20846
-1.29025
0.000811575
0.0205201
-0.296447
0.0363602
-0.670404
0.0400392
-0.832874
0.0366039
-0.899669
0.0303415
-0.947657
0.0227406
-0.998425
0.0140446
-1.05728
0.00418613
-1.1232
-0.00651808
-1.19776
-1.27788
-0.0188877
0.0190622
-0.315509
0.0318758
-0.683218
0.0329306
-0.833929
0.0275235
-0.894261
0.019598
-0.939731
0.0103814
-0.989208
-2.64097e-05
-1.04687
-0.0115047
-1.11172
-0.0241493
-1.18511
-1.26369
-0.0383465
0.0174183
-0.332928
0.0272809
-0.693081
0.0258483
-0.832496
0.0185694
-0.886983
0.00901161
-0.930173
-0.00180207
-0.978395
-0.0137438
-1.03493
-0.0269485
-1.09852
-0.0414835
-1.17058
-1.24763
-0.057536
0.0156284
-0.348556
0.0226239
-0.700076
0.018828
-0.8287
0.00976225
-0.877917
-0.00142306
-0.918988
-0.0136708
-0.966147
-0.0272721
-1.02133
-0.0421612
-1.08363
-0.058522
-1.15422
-1.22974
-0.0764127
0.013729
-0.362285
0.0179469
-0.704294
0.0118973
-0.822651
0.00109103
-0.867111
-0.0114882
-0.906409
-0.0253496
-0.952285
-0.0405526
-1.00613
-0.057109
-1.06707
-0.0752466
-1.13608
-1.21003
-0.0949562
0.0117535
-0.374039
0.0132871
-0.705828
0.00506669
-0.814431
-0.00728998
-0.854754
-0.0213884
-0.89231
-0.0367943
-0.93688
-0.0535686
-0.989353
-0.0717672
-1.04887
-0.0916413
-1.11621
-1.18854
-0.113138
0.00973191
-0.38377
0.00867945
-0.704775
-0.00163201
-0.804119
-0.0154992
-0.840887
-0.0310707
-0.876739
-0.0479866
-0.919964
-0.0663038
-0.971035
-0.0861145
-1.02906
-0.107687
-1.09463
-1.16528
-0.130939
0.00768915
-0.39146
0.00416423
-0.70125
-0.00802049
-0.791934
-0.0235057
-0.825402
-0.0405181
-0.859726
-0.0589125
-0.901569
-0.0787432
-0.951205
-0.100133
-1.00767
-0.123368
-1.0714
-1.14032
-0.148335
0.00564404
-0.397104
-0.000173643
-0.695433
-0.0142771
-0.777831
-0.0312948
-0.808384
-0.0497199
-0.841301
-0.0695595
-0.88173
-0.090872
-0.929892
-0.113805
-0.984739
-0.138666
-1.04654
-1.11368
-0.165305
0.00361518
-0.400719
-0.00472115
-0.687096
-0.0203711
-0.762181
-0.0388524
-0.789903
-0.0586646
-0.821489
-0.0799157
-0.860479
-0.102676
-0.907132
-0.127117
-0.960298
-0.153565
-1.02009
-1.08542
-0.181823
0.00163886
-0.402358
-0.00902194
-0.676435
-0.0262846
-0.744918
-0.0461693
-0.770018
-0.067342
-0.800316
-0.0899701
-0.837851
-0.114143
-0.882959
-0.140055
-0.934386
-0.168047
-0.992096
-1.0556
-0.197863
-0.000257242
-0.4021
-0.0131552
-0.663537
-0.0320078
-0.726066
-0.053241
-0.748785
-0.0757423
-0.777815
-0.0997117
-0.813881
-0.12526
-0.85741
-0.152609
-0.907037
-0.182096
-0.962608
-1.02427
-0.213429
-0.00238066
-0.39972
-0.0171369
-0.648781
-0.037528
-0.705675
-0.0600615
-0.726251
-0.0838564
-0.75402
-0.10913
-0.788608
-0.136019
-0.830521
-0.164778
-0.878278
-0.195706
-0.931681
-0.99149
-0.228489
-0.00435927
-0.395361
-0.0209658
-0.632175
-0.042834
-0.683806
-0.066625
-0.70246
-0.0916758
-0.728969
-0.118214
-0.762069
-0.14641
-0.802325
-0.176558
-0.84813
-0.208829
-0.899409
-0.957513
-0.242805
-0.0062514
-0.389109
-0.0246388
-0.613787
-0.0479195
-0.660526
-0.072926
-0.677454
-0.0991925
-0.702703
-0.126956
-0.734306
-0.156424
-0.772857
-0.187901
-0.816654
-0.221476
-0.865834
-0.922742
-0.256248
-0.00806327
-0.381046
-0.0281529
-0.593698
-0.05278
-0.635899
-0.0789593
-0.651274
-0.106399
-0.675263
-0.135347
-0.705358
-0.166046
-0.742159
-0.198753
-0.783946
-0.233177
-0.831411
-0.885777
-0.270142
-0.00979517
-0.371251
-0.0315047
-0.571988
-0.057412
-0.609991
-0.08472
-0.623966
-0.11329
-0.646693
-0.14338
-0.675267
-0.175251
-0.710287
-0.209076
-0.750121
-0.244759
-0.795728
-0.847224
-0.283312
-0.0114457
-0.359805
-0.0346914
-0.548742
-0.0618127
-0.58287
-0.0902034
-0.595575
-0.119857
-0.61704
-0.151045
-0.64408
-0.184042
-0.67729
-0.219008
-0.715155
-0.256067
-0.758669
-0.807335
-0.295956
-0.013013
-0.346792
-0.0377103
-0.524045
-0.0659796
-0.554601
-0.0954054
-0.56615
-0.126095
-0.58635
-0.158331
-0.611844
-0.192393
-0.643228
-0.228446
-0.679103
-0.266725
-0.720389
-0.766182
-0.307878
-0.0144948
-0.332297
-0.0405589
-0.497981
-0.0699106
-0.525249
-0.100322
-0.535738
-0.131999
-0.554673
-0.165232
-0.57861
-0.200312
-0.608149
-0.237422
-0.641992
-0.276857
-0.680954
-0.723884
-0.319154
-0.015889
-0.316408
-0.0432351
-0.470635
-0.0736037
-0.494881
-0.10495
-0.504392
-0.137561
-0.522061
-0.171739
-0.544432
-0.207781
-0.572108
-0.245894
-0.603879
-0.286404
-0.640444
-0.680514
-0.329774
-0.0171929
-0.299215
-0.0457371
-0.442091
-0.077057
-0.463561
-0.109284
-0.472165
-0.142778
-0.488567
-0.177846
-0.509364
-0.214795
-0.535158
-0.253857
-0.564818
-0.295372
-0.598929
-0.636144
-0.339742
-0.0184036
-0.280812
-0.0480634
-0.412431
-0.0802688
-0.431355
-0.113323
-0.439111
-0.147643
-0.454247
-0.183544
-0.473463
-0.221346
-0.497357
-0.261296
-0.524867
-0.303747
-0.556478
-0.590841
-0.34905
-0.0195172
-0.261295
-0.0502123
-0.381736
-0.0832377
-0.39833
-0.117063
-0.405286
-0.152152
-0.419157
-0.188829
-0.436786
-0.227424
-0.458763
-0.268202
-0.484089
-0.311518
-0.513161
-0.54467
-0.357689
-0.0205271
-0.240767
-0.0521821
-0.350081
-0.0859626
-0.364549
-0.1205
-0.370748
-0.156301
-0.383357
-0.193694
-0.399393
-0.233022
-0.419434
-0.274564
-0.442548
-0.318677
-0.469048
-0.4977
-0.365648
-0.0214186
-0.219349
-0.0539716
-0.317528
-0.088443
-0.330078
-0.123634
-0.335557
-0.160085
-0.346905
-0.198133
-0.361345
-0.238133
-0.379434
-0.280374
-0.400308
-0.325214
-0.424208
-0.449999
-0.372914
-0.0222367
-0.197112
-0.0555829
-0.284182
-0.0906787
-0.294982
-0.126461
-0.299775
-0.163502
-0.309864
-0.202142
-0.322705
-0.242751
-0.338825
-0.285624
-0.357435
-0.331119
-0.378713
-0.401639
-0.379478
-0.0229813
-0.174131
-0.057017
-0.250146
-0.0926688
-0.25933
-0.128979
-0.263465
-0.166547
-0.272296
-0.205717
-0.283535
-0.24687
-0.297672
-0.290308
-0.313997
-0.336385
-0.332637
-0.352693
-0.38533
-0.0236401
-0.150491
-0.0582733
-0.215513
-0.0944126
-0.223191
-0.131185
-0.226692
-0.169217
-0.234264
-0.208853
-0.243899
-0.250484
-0.256041
-0.29442
-0.270061
-0.341005
-0.286052
-0.303237
-0.390461
-0.0242084
-0.126282
-0.0593513
-0.18037
-0.095909
-0.186633
-0.13308
-0.189521
-0.171511
-0.195833
-0.211547
-0.203863
-0.25359
-0.213998
-0.297951
-0.2257
-0.344972
-0.239031
-0.253346
-0.394863
-0.0246839
-0.101598
-0.0602504
-0.144803
-0.0971573
-0.149727
-0.134661
-0.152017
-0.173426
-0.157069
-0.213796
-0.163493
-0.256182
-0.171611
-0.300898
-0.180984
-0.348279
-0.191651
-0.203096
-0.39853
-0.0250652
-0.0765331
-0.0609702
-0.108898
-0.0981568
-0.11254
-0.135927
-0.114247
-0.17496
-0.118036
-0.215598
-0.122855
-0.25826
-0.128949
-0.303259
-0.135985
-0.350925
-0.143985
-0.152561
-0.401459
-0.0253517
-0.0511814
-0.0615103
-0.0727398
-0.0989069
-0.0751434
-0.136878
-0.0762759
-0.176111
-0.0788028
-0.216951
-0.0820153
-0.259819
-0.0860811
-0.30503
-0.0907741
-0.352908
-0.0961067
-0.101819
-0.40365
-0.0255429
-0.0256385
-0.0618705
-0.0364122
-0.0994072
-0.0376067
-0.137512
-0.0381714
-0.176879
-0.039435
-0.217854
-0.0410413
-0.26086
-0.043075
-0.306211
-0.0454222
-0.35423
-0.0480883
-0.0509424
-0.405107
-0.0256385
6.62302e-10
-0.0620507
8.72177e-10
-0.0996574
8.34767e-10
-0.137829
7.76964e-10
-0.177264
7.24464e-10
-0.218305
6.74586e-10
-0.26138
6.29371e-10
-0.306802
5.89218e-10
-0.354891
5.53886e-10
5.20749e-10
-0.405833
-0.0256385
0.0256385
-0.0620507
0.0364122
-0.0996574
0.0376067
-0.137829
0.0381714
-0.177264
0.039435
-0.218305
0.0410413
-0.26138
0.043075
-0.306802
0.0454222
-0.354891
0.0480883
0.0509424
-0.405833
-0.0255429
0.0511814
-0.0618705
0.0727398
-0.0994072
0.0751434
-0.137512
0.0762759
-0.176879
0.0788028
-0.217854
0.0820153
-0.26086
0.0860811
-0.306211
0.0907741
-0.35423
0.0961067
0.101819
-0.405107
-0.0253517
0.0765331
-0.0615103
0.108898
-0.0989069
0.11254
-0.136878
0.114247
-0.176111
0.118036
-0.216951
0.122855
-0.259819
0.128949
-0.30503
0.135985
-0.352908
0.143985
0.152561
-0.40365
-0.0250652
0.101598
-0.0609702
0.144803
-0.0981568
0.149727
-0.135927
0.152017
-0.17496
0.157069
-0.215598
0.163493
-0.25826
0.171611
-0.303259
0.180984
-0.350925
0.191651
0.203096
-0.401459
-0.0246839
0.126282
-0.0602504
0.18037
-0.0971573
0.186634
-0.134661
0.189521
-0.173426
0.195833
-0.213796
0.203863
-0.256182
0.213998
-0.300898
0.2257
-0.348279
0.239031
0.253346
-0.39853
-0.0242084
0.150491
-0.0593513
0.215513
-0.095909
0.223191
-0.13308
0.226692
-0.171511
0.234264
-0.211547
0.243899
-0.25359
0.256041
-0.297951
0.270061
-0.344972
0.286052
0.303237
-0.394863
-0.0236401
0.174131
-0.0582733
0.250146
-0.0944126
0.25933
-0.131185
0.263465
-0.169217
0.272296
-0.208853
0.283535
-0.250484
0.297672
-0.29442
0.313997
-0.341005
0.332637
0.352693
-0.390461
-0.0229813
0.197112
-0.057017
0.284182
-0.0926688
0.294982
-0.128979
0.299775
-0.166547
0.309864
-0.205717
0.322705
-0.24687
0.338825
-0.290308
0.357435
-0.336385
0.378713
0.401639
-0.38533
-0.0222367
0.219349
-0.0555829
0.317528
-0.0906787
0.330078
-0.126461
0.335557
-0.163502
0.346905
-0.202142
0.361345
-0.242751
0.379434
-0.285624
0.400308
-0.331119
0.424208
0.449999
-0.379478
-0.0214186
0.240767
-0.0539716
0.350081
-0.088443
0.364549
-0.123634
0.370748
-0.160085
0.383357
-0.198133
0.399393
-0.238133
0.419434
-0.280374
0.442548
-0.325214
0.469048
0.4977
-0.372914
-0.0205271
0.261295
-0.0521821
0.381736
-0.0859626
0.39833
-0.1205
0.405286
-0.156301
0.419157
-0.193694
0.436786
-0.233022
0.458763
-0.274564
0.484089
-0.318677
0.513161
0.54467
-0.365648
-0.0195172
0.280812
-0.0502123
0.412431
-0.0832377
0.431355
-0.117063
0.439111
-0.152152
0.454247
-0.188829
0.473463
-0.227424
0.497357
-0.268202
0.524867
-0.311518
0.556478
0.590841
-0.357689
-0.0184036
0.299215
-0.0480634
0.442091
-0.0802688
0.463561
-0.113323
0.472165
-0.147643
0.488567
-0.183544
0.509364
-0.221346
0.535158
-0.261296
0.564818
-0.303747
0.598929
0.636144
-0.34905
-0.0171929
0.316408
-0.0457371
0.470635
-0.077057
0.494881
-0.109284
0.504392
-0.142778
0.522061
-0.177846
0.544432
-0.214795
0.572108
-0.253857
0.603879
-0.295372
0.640444
0.680514
-0.339742
-0.015889
0.332297
-0.0432351
0.497981
-0.0736037
0.525249
-0.10495
0.535738
-0.137561
0.554673
-0.171739
0.57861
-0.207781
0.608149
-0.245894
0.641992
-0.286404
0.680954
0.723884
-0.329774
-0.0144948
0.346792
-0.0405589
0.524045
-0.0699106
0.554601
-0.100322
0.56615
-0.131999
0.58635
-0.165232
0.611844
-0.200312
0.643228
-0.237422
0.679103
-0.276857
0.720389
0.766182
-0.319154
-0.013013
0.359805
-0.0377103
0.548742
-0.0659796
0.58287
-0.0954054
0.595575
-0.126095
0.61704
-0.158331
0.64408
-0.192393
0.67729
-0.228446
0.715155
-0.266725
0.758669
0.807335
-0.307878
-0.0114457
0.371251
-0.0346914
0.571988
-0.0618127
0.609991
-0.0902034
0.623966
-0.119857
0.646693
-0.151045
0.675267
-0.184042
0.710287
-0.219008
0.750121
-0.256067
0.795728
0.847224
-0.295956
-0.00979517
0.381046
-0.0315047
0.593698
-0.057412
0.635899
-0.08472
0.651274
-0.11329
0.675263
-0.14338
0.705358
-0.175251
0.742159
-0.209076
0.783946
-0.244759
0.831411
0.885777
-0.283312
-0.00806327
0.389109
-0.0281529
0.613787
-0.05278
0.660526
-0.0789593
0.677454
-0.106399
0.702703
-0.135347
0.734306
-0.166046
0.772857
-0.198753
0.816654
-0.233177
0.865834
0.922742
-0.270142
-0.0062514
0.395361
-0.0246388
0.632175
-0.0479195
0.683806
-0.072926
0.70246
-0.0991925
0.728969
-0.126956
0.762069
-0.156424
0.802325
-0.187901
0.84813
-0.221476
0.899409
0.957513
-0.256248
-0.00435927
0.39972
-0.0209658
0.648781
-0.042834
0.705675
-0.066625
0.726251
-0.0916758
0.75402
-0.118214
0.788608
-0.14641
0.830521
-0.176558
0.878278
-0.208829
0.931681
0.99149
-0.242805
-0.00238066
0.4021
-0.0171369
0.663537
-0.037528
0.726066
-0.0600615
0.748785
-0.0838564
0.777815
-0.10913
0.813881
-0.136019
0.85741
-0.164778
0.907037
-0.195706
0.962608
1.02427
-0.228489
-0.000257242
0.402358
-0.0131552
0.676435
-0.0320078
0.744918
-0.053241
0.770018
-0.0757423
0.800316
-0.0997117
0.837851
-0.12526
0.882959
-0.152609
0.934386
-0.182096
0.992096
1.0556
-0.213429
0.00163886
0.400719
-0.00902194
0.687096
-0.0262846
0.762181
-0.0461693
0.789903
-0.067342
0.821489
-0.0899701
0.860479
-0.114143
0.907132
-0.140055
0.960298
-0.168047
1.02009
1.08542
-0.197863
0.00361518
0.397104
-0.00472115
0.695433
-0.0203711
0.777831
-0.0388524
0.808384
-0.0586646
0.841301
-0.0799157
0.88173
-0.102676
0.929892
-0.127117
0.984739
-0.153565
1.04654
1.11368
-0.181823
0.00564404
0.39146
-0.000173643
0.70125
-0.0142771
0.791934
-0.0312948
0.825402
-0.0497199
0.859726
-0.0695595
0.901569
-0.090872
0.951205
-0.113805
1.00767
-0.138666
1.0714
1.14032
-0.165305
0.00768915
0.38377
0.00416423
0.704775
-0.00802049
0.804119
-0.0235057
0.840887
-0.0405181
0.876739
-0.0589125
0.919964
-0.0787432
0.971035
-0.100133
1.02906
-0.123368
1.09463
1.16528
-0.148335
0.00973191
0.374039
0.00867945
0.705828
-0.00163201
0.814431
-0.0154992
0.854754
-0.0310707
0.89231
-0.0479867
0.93688
-0.0663038
0.989353
-0.0861145
1.04887
-0.107687
1.11621
1.18854
-0.130939
0.0117535
0.362285
0.0132871
0.704294
0.00506669
0.822651
-0.00728998
0.867111
-0.0213884
0.906409
-0.0367943
0.952285
-0.0535686
1.00613
-0.0717672
1.06707
-0.0916413
1.13608
1.21003
-0.113138
0.013729
0.348556
0.0179469
0.700076
0.0118973
0.8287
0.00109103
0.877917
-0.0114882
0.918988
-0.0253496
0.966147
-0.0405526
1.02133
-0.057109
1.08363
-0.0752466
1.15422
1.22974
-0.0949562
0.0156284
0.332928
0.0226239
0.693081
0.018828
0.832496
0.00976225
0.886983
-0.00142306
0.930173
-0.0136708
0.978395
-0.0272721
1.03493
-0.0421612
1.09852
-0.058522
1.17058
1.24763
-0.0764127
0.0174183
0.315509
0.0272809
0.683218
0.0258483
0.833929
0.0185694
0.894261
0.00901161
0.939731
-0.00180207
0.989208
-0.0137438
1.04687
-0.0269485
1.11172
-0.0414835
1.18511
1.26369
-0.057536
0.0190622
0.296447
0.0318758
0.670404
0.0329306
0.832874
0.0275235
0.899669
0.019598
0.947657
0.0103814
0.998425
-2.64103e-05
1.05728
-0.0115047
1.1232
-0.0241493
1.19776
1.27788
-0.0383465
0.0205201
0.275927
0.0363602
0.654564
0.0400392
0.829195
0.0366039
0.903104
0.0303415
0.953919
0.0227406
1.00603
0.0140446
1.06598
0.00418613
1.13306
-0.00651808
1.20846
1.29025
-0.0188877
0.0217495
0.254178
0.0406799
0.635634
0.0471305
0.822745
0.0457845
0.90445
0.0412363
0.958467
0.0352671
1.01199
0.0282608
1.07298
0.0202259
1.14109
0.0112392
1.21745
1.30068
0.000811574
0.0227067
0.231471
0.0447747
0.613566
0.0541518
0.813368
0.0550345
0.903567
0.0522644
0.961237
0.0479513
1.01631
0.0426481
1.07829
0.0364025
1.14734
0.0292353
1.22462
1.3089
0.0210141
0.0233509
0.20812
0.048579
0.588338
0.0610455
0.800901
0.0643177
0.900295
0.0634031
0.962152
0.0607761
1.01894
0.0571881
1.08187
0.0527412
1.15178
0.0474673
1.22989
1.31508
0.0412849
0.0236483
0.184472
0.0520226
0.559964
0.0677609
0.785163
0.0735907
0.894465
0.0746258
0.961117
0.0737216
1.01984
0.0718622
1.08373
0.069229
1.15442
0.065871
1.23325
1.31926
0.0616963
0.0235775
0.160894
0.0550315
0.528509
0.0742189
0.765975
0.0827994
0.885885
0.0859005
0.958016
0.0867656
1.01897
0.0866505
1.08385
0.0858403
1.15523
0.0844024
1.23469
1.32144
0.0822214
0.0231325
0.137762
0.057534
0.494108
0.0803294
0.74318
0.0918776
0.874336
0.097188
0.952705
0.0998827
1.01628
0.101531
1.0822
0.10255
1.15421
0.103043
1.23419
1.32164
0.102844
0.0223248
0.115437
0.0594657
0.456967
0.0859882
0.716658
0.100747
0.859578
0.108439
0.945013
0.113043
1.01168
0.116482
1.07876
0.119333
1.15136
0.121772
1.23175
1.31981
0.123598
0.0211827
0.0942541
0.0606485
0.417501
0.0910775
0.686229
0.109312
0.841343
0.119592
0.934734
0.12621
1.00506
0.131475
1.0735
0.136169
1.14666
0.140562
1.22736
1.31594
0.144433
0.0197493
0.0745048
0.0609925
0.376258
0.0954709
0.65175
0.117458
0.819356
0.130569
0.921623
0.139339
0.996287
0.146484
1.06635
0.153032
1.14012
0.159383
1.22101
1.31002
0.165307
0.0180749
0.0564299
0.0604396
0.333893
0.0990306
0.613159
0.125046
0.79334
0.141273
0.905396
0.152374
0.985186
0.161473
1.05725
0.169895
1.1317
0.178209
1.21269
1.30204
0.186185
0.0162121
0.0402178
0.058949
0.291157
0.101604
0.570504
0.131912
0.763033
0.151585
0.885722
0.165244
0.971528
0.176401
1.04609
0.186727
1.12137
0.19701
1.20241
1.29202
0.207035
0.0142193
0.0259985
0.0565189
0.248857
0.10303
0.523992
0.13787
0.728193
0.161357
0.862236
0.177854
0.955031
0.191215
1.03273
0.203493
1.10909
0.215757
1.19015
1.27995
0.227826
0.0121671
0.0138314
0.0532033
0.207821
0.103145
0.474051
0.142706
0.688632
0.170407
0.834535
0.190084
0.935353
0.205844
1.01697
0.22015
1.09479
0.234418
1.17588
1.26584
0.248524
0.0101426
0.00368874
0.0491184
0.168845
0.101793
0.421376
0.146183
0.644242
0.178516
0.802201
0.201778
0.912091
0.220199
0.998552
0.236648
1.07834
0.252957
1.15957
1.2497
0.269096
0.00824137
-0.00455263
0.0444349
0.132651
0.0988499
0.366961
0.148044
0.595048
0.185418
0.764828
0.212731
0.884778
0.234154
0.977129
0.252919
1.05957
0.271331
1.14116
1.23152
0.289511
0.00654472
-0.0110973
0.0393554
0.0998408
0.0942408
0.312076
0.14802
0.541269
0.190792
0.722055
0.222684
0.852886
0.247541
0.952272
0.268866
1.03825
0.289487
1.12054
1.21128
0.309726
0.0050984
-0.0161957
0.0340962
0.070843
0.0879888
0.258183
0.145844
0.483414
0.19427
0.673629
0.231309
0.815846
0.260133
0.923449
0.284356
1.01402
0.30735
1.09754
1.18893
0.329708
0.00390377
-0.0200995
0.0288802
0.0458666
0.0802649
0.206798
0.141288
0.42239
0.195442
0.619476
0.238201
0.773087
0.271623
0.890027
0.299201
0.986446
0.324817
1.07193
1.16436
0.349383
0.00292996
-0.0230295
0.0239263
0.0248703
0.0714219
0.159303
0.134205
0.359608
0.193876
0.559805
0.242874
0.724088
0.28161
0.851291
0.313132
0.954924
0.341742
1.04332
1.1374
0.368704
0.00213661
-0.0251661
0.0194211
0.00758575
0.0619573
0.116767
0.124612
0.296953
0.189161
0.495256
0.244762
0.668487
0.289572
0.806481
0.325785
0.918712
0.357882
1.01122
1.10776
0.387524
0.0014905
-0.0266566
0.0154863
-0.00641002
0.0524192
0.0798336
0.112789
0.236583
0.180974
0.427072
0.243245
0.606216
0.294849
0.754877
0.336645
0.876916
0.372962
0.974903
1.07504
0.405676
0.000969904
-0.0276265
0.0121625
-0.0176026
0.0433217
0.0486744
0.0993216
0.180583
0.169187
0.357207
0.237697
0.537706
0.296646
0.695928
0.345049
0.828513
0.38637
0.933582
1.03835
0.423065
0.000560877
-0.0281874
0.00942146
-0.0264632
0.0350757
0.0230202
0.0850531
0.130605
0.15401
0.28825
0.227607
0.464109
0.294018
0.629517
0.350164
0.772367
0.397581
0.886165
0.997366
0.43856
0.000252165
-0.0284395
0.007197
-0.0334081
0.0279275
0.00228965
0.0709225
0.0876104
0.136126
0.223047
0.212702
0.387533
0.286069
0.55615
0.350817
0.707619
0.405461
0.831522
0.949139
0.453688
3.34971e-05
-0.028473
0.00541189
-0.0387864
0.0219386
-0.0142371
0.0577606
0.0517884
0.116693
0.164115
0.193238
0.310987
0.271921
0.477467
0.346327
0.633212
0.40772
0.770129
0.893546
0.463313
-0.000132637
-0.0283404
0.00398827
-0.0429074
0.0170274
-0.0272762
0.0461218
0.022694
0.0971319
0.113105
0.170169
0.23795
0.251365
0.396271
0.334522
0.550055
0.406471
0.69818
0.83699
0.463026
-0.000240925
-0.0280995
0.00285126
-0.0459995
0.0130361
-0.037461
0.0362241
-0.000494
0.0787726
0.0705563
0.145103
0.171619
0.225086
0.316288
0.314224
0.460917
0.398231
0.614173
0.772076
0.463145
-0.000312551
-0.0277869
0.00192969
-0.0482418
0.0097835
-0.0453148
0.0280029
-0.0187134
0.0625216
0.0360376
0.119915
0.114226
0.194762
0.241441
0.285406
0.370273
0.379941
0.519638
0.6967
0.455318
-0.000368137
-0.0274188
0.00115622
-0.0497661
0.00709109
-0.0512497
0.0212216
-0.0328439
0.0487048
0.00855442
0.0961599
0.0667711
0.162866
0.174734
0.249548
0.283591
0.350491
0.418696
0.610263
0.436927
-0.00042495
-0.0269938
0.00046977
-0.0506609
0.0047964
-0.0555763
0.0155704
-0.0436179
0.0371426
-0.0130178
0.0747681
0.0291456
0.131991
0.117511
0.20956
0.206023
0.310503
0.317752
0.514075
0.406691
-0.00049596
-0.0264979
-0.000181532
-0.0509753
0.00276065
-0.0585185
0.0107379
-0.0515952
0.0273936
-0.0296734
0.056134
0.00040515
0.103913
0.0697317
0.168982
0.140954
0.263043
0.223691
0.412177
0.364941
-0.000591827
-0.025906
-0.000841765
-0.0507254
0.000877792
-0.0602381
0.00645975
-0.0571772
0.0189976
-0.0422112
0.0402793
-0.0208766
0.0791882
0.0308228
0.131058
0.0890849
0.213031
0.141718
0.311388
0.31382
-0.000722708
-0.0251833
-0.00152951
-0.0499185
-0.000948691
-0.0608189
0.00253632
-0.0606622
0.0116035
-0.0512784
0.0269006
-0.0361737
0.0576038
0.000119627
0.0979451
0.0487436
0.165177
0.0744861
0.219496
0.25707
-0.000888455
-0.0242949
-0.00225858
-0.0485484
-0.00276616
-0.0603113
-0.00113507
-0.0622933
0.00496766
-0.0573812
0.0154808
-0.0466869
0.03878
-0.0231795
0.0700857
0.017438
0.122044
0.022528
0.142345
0.199194
-0.00108672
-0.0232082
-0.00302952
-0.0466056
-0.004575
-0.0587658