/*--------------------------------*- C++ -*----------------------------------*\
  =========                 |
  \\      /  F ield         | OpenFOAM: The Open Source CFD Toolbox
   \\    /   O peration     | Website:  https://openfoam.org
    \\  /    A nd           | Version:  9
     \\/     M anipulation  |
\*---------------------------------------------------------------------------*/
FoamFile
{
    format      ascii;
    class       surfaceScalarField;
    location    "3.5";
    object      phi;
}
// * * * * * * * * * * * * * * * * * * * * * * * * * * * * * * * * * * * * * //

dimensions      [0 3 -1 0 0 0 0];

internalField   nonuniform List<scalar> 
16735
(
-0.0155084
0.0155084
-8.06442e-10
-0.041701
0.0261926
-1.38864e-09
-0.0739871
0.0322862
-1.66018e-09
-0.110297
0.0363095
-1.78495e-09
-0.148873
0.0385762
-1.7644e-09
-0.185812
0.0369394
-1.49772e-09
-0.214991
0.0291791
-9.31317e-10
-0.225095
0.0101034
1.60902e-12
-0.206836
-0.0182582
1.15717e-09
-0.0595223
2.26042e-09
-0.147314
-0.0148737
0.0303821
-0.040188
0.0515069
-0.0713578
0.0634559
-0.106169
0.0711207
-0.142744
0.0751514
-0.177111
0.0713065
-0.203232
0.0552994
-0.210015
0.0168868
-0.188259
-0.0400143
-0.12114
-0.126642
-0.0136406
0.0440227
-0.0372391
0.0751054
-0.0662321
0.092449
-0.0981408
0.103029
-0.130872
0.107883
-0.160367
0.100802
-0.180777
0.0757088
-0.181658
0.0177677
-0.153762
-0.0679101
-0.186176
-0.0887249
-0.0118802
0.0559029
-0.0330033
0.0962285
-0.0588651
0.118311
-0.0866377
0.130802
-0.113957
0.135202
-0.136729
0.123574
-0.149383
0.0883621
-0.142678
0.0110627
-0.107125
-0.103463
-0.254787
-0.0385137
-0.00969413
0.065597
-0.0276942
0.114229
-0.0496159
0.140233
-0.0722443
0.15343
-0.0929213
0.155879
-0.107635
0.138288
-0.111089
0.0918161
-0.0958432
-0.00418335
-0.0518504
-0.147456
-0.326209
0.0195708
-0.00720917
0.0728062
-0.0215785
0.128598
-0.038927
0.157581
-0.0556627
0.170166
-0.0688393
0.169055
-0.0747016
0.144151
-0.0681213
0.0852358
-0.0439261
-0.0283785
0.00893782
-0.20032
-0.399045
0.0817741
-0.00457052
0.0773767
-0.0149643
0.138992
-0.0273038
0.169921
-0.0376778
0.18054
-0.042879
0.174257
-0.039648
0.14092
-0.022858
0.0684458
0.0102982
-0.0615348
0.0699817
-0.260003
-0.473776
0.144712
-0.00193404
0.0793108
-0.00818669
0.145244
-0.0152954
0.177029
-0.0191282
0.184373
-0.0162738
0.171402
-0.00432725
0.128973
0.0222775
0.0418411
0.0649662
-0.104223
0.130277
-0.325315
-0.548774
0.205276
0.000553833
0.0787569
-0.00158908
0.147387
-0.00348356
0.178924
-0.000924235
0.181813
0.00978768
0.16069
0.0303116
0.108449
0.0652073
0.00694537
0.116688
-0.155705
0.186911
-0.395538
-0.622727
0.260864
0.00273617
0.0760208
0.00448617
0.145637
0.0076652
0.175745
0.0163679
0.173111
0.0341265
0.142932
0.0619899
0.0805858
0.104397
-0.0354619
0.163955
-0.215262
0.237966
-0.469549
-0.694303
0.309542
0.0045016
0.0715192
0.00973593
0.140403
0.0175467
0.167934
0.0316875
0.15897
0.0554928
0.119126
0.0895519
0.0465266
0.138907
-0.0848174
0.205991
-0.282347
0.28235
-0.545908
-0.762283
0.35033
0.00576123
0.0657579
0.0139008
0.132263
0.0256977
0.156137
0.0444313
0.140236
0.0730434
0.0905142
0.112461
0.00710915
0.168854
-0.14121
0.242789
-0.356281
0.319618
-0.622736
-0.825577
0.382912
0.0064703
0.0592876
0.0168068
0.121927
0.0317984
0.141145
0.0541515
0.117883
0.0864063
0.0582594
0.13116
-0.0376447
0.195214
-0.205265
0.274687
-0.435754
0.349687
-0.697737
-0.883309
0.40742
0.00663106
0.0526566
0.0183849
0.110173
0.0356961
0.123834
0.0607246
0.0928548
0.0960606
0.0229234
0.147106
-0.0886898
0.219265
-0.277424
0.301882
-0.518372
0.37263
-0.768484
-0.934963
0.424284
0.00629262
0.046364
0.01869
0.0977756
0.0374716
0.105053
0.0645119
0.0658145
0.103402
-0.015967
0.162348
-0.147636
0.241774
-0.35685
0.324198
-0.600796
0.388631
-0.832916
-0.98049
0.434157
0.00554676
0.0408172
0.0179105
0.0854118
0.0375031
0.0854601
0.066499
0.0368186
0.110535
-0.0600027
0.178511
-0.215612
0.262509
-0.440848
0.341228
-0.679515
0.398059
-0.889747
-1.0203
0.437871
0.00452054
0.0362967
0.0163647
0.0735677
0.0364747
0.0653501
0.0682327
0.00506052
0.119505
-0.111275
0.195935
-0.292042
0.280454
-0.525367
0.352693
-0.751753
0.401526
-0.938579
-1.05514
0.436363
0.00336554
0.0329311
0.0144789
0.0624543
0.0353356
0.0444934
0.0714459
-0.0310498
0.131384
-0.171213
0.213533
-0.374192
0.294495
-0.60633
0.358692
-0.81595
0.39986
-0.979747
-1.0859
0.430617
0.00224267
0.0306884
0.0127402
0.0519568
0.0351533
0.0220803
0.0774481
-0.0733445
0.145803
-0.239568
0.229509
-0.457898
0.304
-0.680821
0.359701
-0.871651
0.393983
-1.01403
-1.11328
0.421364
0.0013022
0.0293863
0.0116143
0.0416447
0.0368682
-0.0031736
0.0866138
-0.12309
0.16123
-0.314184
0.242325
-0.538992
0.30896
-0.747456
0.356516
-0.919206
0.384796
-1.04231
-1.1378
0.409322
0.000661251
0.028725
0.0114841
0.0308219
0.0410261
-0.0327157
0.0983034
-0.180367
0.175765
-0.391646
0.251224
-0.614451
0.309772
-0.806004
0.350076
-0.959511
0.374297
-1.06653
-1.16078
0.397274
0.000383537
0.0283415
0.0125925
0.0186129
0.0476154
-0.0677386
0.111197
-0.243949
0.187909
-0.468357
0.256162
-0.682704
0.306969
-0.856812
0.341028
-0.993569
0.364873
-1.09038
-1.18126
0.385356
0.000478508
0.027863
0.0150234
0.00406802
0.0561088
-0.108824
0.123799
-0.31164
0.196903
-0.541461
0.257501
-0.743303
0.301194
-0.900505
0.330505
-1.02288
0.351884
-1.11176
-1.19924
0.369857
0.000929798
0.0269332
0.0186977
-0.0136998
0.0657002
-0.155827
0.134881
-0.38082
0.202596
-0.609176
0.255709
-0.796415
0.293156
-0.937952
0.318408
-1.04813
0.338176
-1.13152
-1.21668
0.355619
0.00170761
0.0252255
0.0233871
-0.0353793
0.0755187
-0.207958
0.14371
-0.449011
0.205188
-0.670654
0.251316
-0.842544
0.28334
-0.969977
0.305399
-1.07019
0.323524
-1.14965
-1.23273
0.339577
0.00278412
0.0224414
0.0287647
-0.0613599
0.0847447
-0.263938
0.150023
-0.514289
0.205028
-0.725659
0.244814
-0.88233
0.272227
-0.997389
0.291602
-1.08957
0.308295
-1.16634
-1.24811
0.323676
0.00414786
0.0182936
0.0345001
-0.0917122
0.0927606
-0.322199
0.153864
-0.575393
0.202512
-0.774307
0.236649
-0.916466
0.260139
-1.02088
0.277294
-1.10672
0.29268
-1.18173
-1.2625
0.307073
0.00579353
0.0125
0.0402678
-0.126186
0.0991717
-0.381103
0.155428
-0.631649
0.198036
-0.816915
0.227192
-0.945623
0.247358
-1.04105
0.262598
-1.12196
0.276728
-1.19586
-1.27603
0.290256
0.00769639
0.00480365
0.0458116
-0.164302
0.10385
-0.439141
0.154969
-0.682768
0.191956
-0.853902
0.216754
-0.970421
0.234078
-1.05837
0.247632
-1.13551
0.260549
-1.20878
-1.28856
0.273072
0.00979603
-0.00499237
0.0509124
-0.205418
0.106831
-0.49506
0.152753
-0.72869
0.18459
-0.885739
0.205584
-0.991415
0.220452
-1.07324
0.23247
-1.14753
0.244163
-1.22047
-1.30003
0.255637
0.0120047
-0.0169971
0.0553706
-0.248784
0.108218
-0.547907
0.149037
-0.769509
0.176209
-0.912911
0.193878
-1.00908
0.206589
-1.08595
0.217165
-1.15811
0.227618
-1.23092
-1.31036
0.237946
0.0142295
-0.0312266
0.0590203
-0.293575
0.108152
-0.597039
0.14406
-0.805416
0.16704
-0.935891
0.181791
-1.02384
0.192568
-1.09673
0.201754
-1.16729
0.210929
-1.2401
-1.31947
0.220037
0.0163904
-0.0476169
0.0617502
-0.338935
0.106793
-0.642082
0.138041
-0.836664
0.157265
-0.955115
0.169438
-1.03601
0.178447
-1.10574
0.186267
-1.17511
0.194122
-1.24795
-1.32727
0.201929
0.0184257
-0.0660426
0.0635121
-0.384021
0.104305
-0.682875
0.131177
-0.863536
0.147037
-0.970975
0.156908
-1.04588
0.164267
-1.1131
0.170724
-1.18157
0.177212
-1.25444
-1.33371
0.183649
0.0202836
-0.0863262
0.0643113
-0.428049
0.100847
-0.719411
0.12364
-0.886329
0.13648
-0.983815
0.14427
-1.05367
0.150058
-1.11888
0.155135
-1.18664
0.160216
-1.25952
-1.33871
0.165217
0.0219128
-0.108239
0.0641892
-0.470325
0.0965653
-0.751787
0.11558
-0.905344
0.125696
-0.993931
0.131576
-1.05955
0.135843
-1.12315
0.139517
-1.19032
0.14315
-1.26315
-1.34222
0.146659
0.02326
-0.131499
0.0631977
-0.510263
0.0915931
-0.780182
0.107124
-0.920875
0.114766
-1.00157
0.118867
-1.06365
0.121642
-1.12593
0.123887
-1.19256
0.126032
-1.2653
-1.34419
0.127998
0.0242762
-0.155775
0.0614397
-0.547426
0.0860512
-0.804794
0.0983794
-0.933203
0.103758
-1.00695
0.106175
-1.06607
0.107471
-1.12722
0.108262
-1.19335
0.10888
-1.26592
-1.34456
0.109258
0.0249262
-0.180701
0.0591072
-0.581607
0.0800542
-0.825741
0.0894331
-0.942582
0.0927217
-1.01024
0.093524
-1.06687
0.0933444
-1.12704
0.0926543
-1.19266
0.0917142
-1.26498
-1.34332
0.0904684
0.0251914
-0.205893
0.0562524
-0.612668
0.0737028
-0.843191
0.0803579
-0.949237
0.0816994
-1.01158
0.080936
-1.06611
0.0792779
-1.12539
0.0770804
-1.19047
0.0745553
-1.26245
-1.34042
0.0716618
0.0250716
-0.230964
0.0529444
-0.640541
0.0670833
-0.85733
0.0712135
-0.953367
0.0707234
-1.01109
0.0684281
-1.06381
0.0652856
-1.12224
0.0615558
-1.18674
0.0574231
-1.25832
-1.33589
0.0528874
0.0245841
-0.255548
0.0492549
-0.665212
0.0602734
-0.868349
0.0620498
-0.955144
0.0598199
-1.00886
0.056016
-1.06001
0.0513814
-1.11761
0.0461002
-1.18146
0.0403231
-1.25254
-1.32966
0.0340935
0.0237609
-0.279309
0.0452533
-0.686704
0.0533229
-0.876418
0.052907
-0.954728
0.0490105
-1.00496
0.0437139
-1.05471
0.0375775
-1.11147
0.030734
-1.17461
0.0233184
-1.24513
-1.32163
0.0152902
0.0226429
-0.301952
0.0410046
-0.705066
0.0462823
-0.881696
0.0438181
-0.952263
0.0383139
-0.999461
0.0315359
-1.04793
0.0238856
-1.10382
0.0154619
-1.16619
0.00647434
-1.23614
-1.31167
-0.00349188
0.0212749
-0.323227
0.0365688
-0.72036
0.0392053
-0.884332
0.0348114
-0.947869
0.0277459
-0.992395
0.0194935
-1.03968
0.0103205
-1.09465
0.000200772
-1.15607
-0.0102946
-1.22564
-1.29998
-0.0219836
0.0197009
-0.342928
0.0320006
-0.73266
0.0321358
-0.884467
0.0259115
-0.941645
0.0173178
-0.983801
0.00758701
-1.02995
-0.00308857
-1.08397
-0.01461
-1.14455
-0.026963
-1.21329
-1.28658
-0.0403577
0.0179622
-0.36089
0.0273486
-0.742046
0.0251096
-0.882228
0.01714
-0.933676
0.00702645
-0.973688
-0.00413459
-1.01879
-0.0162656
-1.07184
-0.0293503
-1.13146
-0.0434371
-1.1992
-1.27145
-0.0585734
0.0160963
-0.376987
0.0226561
-0.748606
0.0181561
-0.877728
0.00851161
-0.924031
-0.00308279
-0.962093
-0.0156117
-1.00626
-0.02927
-1.05818
-0.0439236
-1.11681
-0.0597073
-1.18342
-1.25456
-0.0765931
0.0141372
-0.391124
0.0179608
-0.75243
0.0112974
-0.871065
-2.59249e-05
-0.912708
-0.0128939
-0.949225
-0.0269207
-0.992232
-0.0420757
-1.04303
-0.0582984
-1.10059
-0.0757565
-1.16596
-1.23592
-0.0943913
0.0121158
-0.40324
0.0132961
-0.75361
0.00453842
-0.862307
-0.00819585
-0.899974
-0.0225455
-0.934876
-0.038029
-0.976748
-0.0546668
-1.02639
-0.0724499
-1.0828
-0.0915648
-1.14685
-1.21555
-0.111939
0.0100593
-0.413299
0.00869291
-0.752243
-0.00206712
-0.851547
-0.0162545
-0.885786
-0.0320011
-0.919129
-0.0489207
-0.959829
-0.0670271
-1.00828
-0.0863557
-1.06347
-0.107111
-1.12609
-1.19345
-0.129209
0.00799008
-0.421289
0.0041886
-0.748442
-0.00837861
-0.83898
-0.024124
-0.870041
-0.0412458
-0.902007
-0.0595811
-0.941493
-0.0791403
-0.988725
-0.0999953
-1.04262
-0.122371
-1.10372
-1.16965
-0.146173
0.00592466
-0.427214
-0.000121375
-0.742396
-0.0145624
-0.824539
-0.0317911
-0.852812
-0.0502701
-0.883528
-0.0699977
-0.921766
-0.0909903
-0.967733
-0.113349
-1.02026
-0.137323
-1.07974
-1.14417
-0.162801
0.00387903
-0.431093
-0.00468216
-0.733835
-0.0205932
-0.808628
-0.0392429
-0.834162
-0.0590629
-0.863708
-0.0801586
-0.90067
-0.102562
-0.94533
-0.126399
-0.996424
-0.151945
-1.0542
-1.11705
-0.179062
0.00188808
-0.432981
-0.00897909
-0.722968
-0.0264545
-0.791153
-0.0464707
-0.814146
-0.0676141
-0.842565
-0.0900519
-0.878232
-0.113839
-0.921542
-0.139128
-0.971135
-0.166216
-1.02711
-1.08835
-0.194923
5.233e-05
-0.433033
-0.0131053
-0.70981
-0.0321387
-0.772119
-0.0534708
-0.792814
-0.0759137
-0.820122
-0.0996659
-0.85448
-0.124808
-0.8964
-0.151519
-0.944424
-0.180112
-0.998516
-1.05811
-0.210352
-0.00213567
-0.430897
-0.0170829
-0.694863
-0.0376331
-0.751569
-0.060238
-0.770209
-0.0839525
-0.796408
-0.108989
-0.829443
-0.135455
-0.869934
-0.163558
-0.916321
-0.193615
-0.96846
-1.02638
-0.225347
-0.0041409
-0.426756
-0.0209125
-0.678091
-0.0429249
-0.729557
-0.0667667
-0.746367
-0.0917215
-0.771453
-0.11801
-0.803155
-0.145769
-0.842175
-0.175244
-0.886846
-0.206714
-0.93699
-0.993215
-0.239875
-0.00605532
-0.420701
-0.0245927
-0.659554
-0.0480085
-0.706141
-0.0730514
-0.721325
-0.0992124
-0.745292
-0.126718
-0.775649
-0.155741
-0.813152
-0.186572
-0.856015
-0.219369
-0.904193
-0.958896
-0.253688
-0.00788919
-0.412812
-0.0281214
-0.639322
-0.0528796
-0.681383
-0.0790869
-0.695117
-0.106417
-0.717961
-0.135103
-0.746964
-0.165357
-0.782897
-0.197486
-0.823887
-0.231587
-0.870092
-0.923877
-0.266606
-0.00964454
-0.403167
-0.031496
-0.61747
-0.0575348
-0.655344
-0.0848681
-0.667784
-0.113328
-0.689501
-0.143157
-0.717135
-0.174603
-0.751452
-0.207922
-0.790568
-0.24278
-0.835233
-0.886631
-0.280026
-0.011321
-0.391846
-0.0347142
-0.594077
-0.0619715
-0.628087
-0.0903902
-0.639365
-0.11994
-0.659951
-0.150872
-0.686203
-0.183453
-0.71887
-0.217849
-0.756172
-0.253954
-0.799129
-0.847784
-0.292801
-0.0129174
-0.378929
-0.0377733
-0.569221
-0.0661875
-0.599672
-0.0956486
-0.609904
-0.126244
-0.629356
-0.158238
-0.654209
-0.19191
-0.685198
-0.227412
-0.72067
-0.264867
-0.761673
-0.80762
-0.305031
-0.0144321
-0.364497
-0.040671
-0.542982
-0.0701805
-0.570163
-0.100639
-0.579445
-0.132236
-0.597759
-0.165244
-0.621201
-0.199948
-0.650494
-0.236504
-0.684113
-0.275152
-0.723025
-0.766227
-0.316546
-0.0158634
-0.348633
-0.0434051
-0.51544
-0.0739484
-0.53962
-0.105358
-0.548036
-0.137908
-0.565209
-0.171882
-0.587227
-0.207572
-0.614805
-0.245156
-0.646529
-0.284932
-0.683249
-0.723724
-0.327435
-0.0172092
-0.331424
-0.0459737
-0.486676
-0.0774894
-0.508104
-0.1098
-0.515725
-0.143255
-0.531754
-0.178144
-0.552338
-0.214766
-0.578183
-0.253325
-0.60797
-0.294149
-0.642426
-0.680182
-0.33769
-0.0184676
-0.312957
-0.0483752
-0.456768
-0.0808014
-0.475678
-0.113964
-0.482563
-0.148271
-0.497446
-0.184022
-0.516587
-0.221526
-0.540679
-0.261006
-0.568489
-0.302807
-0.600625
-0.635673
-0.347316
-0.0196357
-0.293321
-0.0506081
-0.425796
-0.0838827
-0.442403
-0.117844
-0.448602
-0.152951
-0.462339
-0.18951
-0.480029
-0.227839
-0.50235
-0.268183
-0.528145
-0.310891
-0.557917
-0.590261
-0.356303
-0.0207101
-0.272611
-0.0526709
-0.393835
-0.0867316
-0.408343
-0.121438
-0.413896
-0.15729
-0.426487
-0.1946
-0.442718
-0.233699
-0.463251
-0.274846
-0.486998
-0.318393
-0.51437
-0.544013
-0.364642
-0.021685
-0.250926
-0.054562
-0.360958
-0.0893468
-0.373558
-0.124742
-0.3785
-0.161283
-0.389947
-0.199287
-0.404714
-0.239097
-0.42344
-0.280985
-0.445111
-0.325303
-0.470052
-0.496994
-0.372322
-0.0225454
-0.22838
-0.0562798
-0.327224
-0.0917278
-0.33811
-0.127755
-0.342473
-0.164926
-0.352776
-0.203565
-0.366075
-0.244027
-0.382978
-0.286591
-0.402546
-0.331611
-0.425032
-0.449273
-0.379332
-0.023321
-0.205059
-0.057826
-0.292719
-0.0938743
-0.302061
-0.130474
-0.305873
-0.168215
-0.315035
-0.207428
-0.326861
-0.248481
-0.341926
-0.291658
-0.359369
-0.337309
-0.379381
-0.40092
-0.385662
-0.0240349
-0.181025
-0.0592023
-0.257551
-0.0957854
-0.265478
-0.132895
-0.268763
-0.171147
-0.276784
-0.210874
-0.287134
-0.252453
-0.300346
-0.296177
-0.315645
-0.342388
-0.33317
-0.352005
-0.391303
-0.0246688
-0.156356
-0.0604084
-0.221812
-0.0974604
-0.228426
-0.135019
-0.231205
-0.173719
-0.238083
-0.213896
-0.246957
-0.255939
-0.258304
-0.300144
-0.271441
-0.346844
-0.286469
-0.302603
-0.396246
-0.0252165
-0.131139
-0.0614436
-0.185585
-0.0988981
-0.190972
-0.136841
-0.193262
-0.175928
-0.198996
-0.216493
-0.206392
-0.258934
-0.215863
-0.30355
-0.226825
-0.350668
-0.239351
-0.252786
-0.400485
-0.0256752
-0.105464
-0.0623071
-0.148953
-0.100098
-0.153181
-0.138363
-0.154997
-0.177773
-0.159586
-0.218662
-0.165503
-0.261435
-0.173089
-0.306392
-0.181868
-0.353855
-0.191887
-0.202627
-0.404015
-0.0260432
-0.0794209
-0.0629986
-0.111997
-0.101058
-0.115122
-0.139581
-0.116474
-0.17925
-0.119917
-0.220399
-0.124355
-0.263438
-0.13005
-0.308668
-0.136639
-0.356404
-0.144151
-0.152197
-0.406834
-0.0263198
-0.0531011
-0.0635176
-0.0747994
-0.101779
-0.0768601
-0.140496
-0.0777568
-0.18036
-0.080053
-0.221703
-0.0830118
-0.264942
-0.0868109
-0.310376
-0.0912055
-0.358314
-0.0962125
-0.10157
-0.408941
-0.0265044
-0.0265968
-0.0638637
-0.0374401
-0.10226
-0.0384638
-0.141106
-0.0389107
-0.1811
-0.040059
-0.222573
-0.0415384
-0.265946
-0.0434387
-0.311515
-0.0456366
-0.359587
-0.0481396
-0.0508161
-0.410342
-0.0265968
-1.91956e-10
-0.0640369
-2.63265e-10
-0.102501
-2.57523e-10
-0.141411
-2.55474e-10
-0.18147
-2.43623e-10
-0.223009
-2.43461e-10
-0.266448
-2.38055e-10
-0.312084
-2.35381e-10
-0.360224
-2.31015e-10
-2.24961e-10
-0.41104
-0.0265968
0.0265968
-0.0640369
0.0374401
-0.102501
0.0384638
-0.141411
0.0389107
-0.18147
0.040059
-0.223009
0.0415384
-0.266448
0.0434387
-0.312084
0.0456366
-0.360224
0.0481396
0.0508161
-0.41104
-0.0265044
0.0531011
-0.0638637
0.0747994
-0.10226
0.0768601
-0.141106
0.0777568
-0.1811
0.080053
-0.222573
0.0830118
-0.265946
0.0868109
-0.311515
0.0912055
-0.359587
0.0962125
0.10157
-0.410342
-0.0263198
0.0794209
-0.0635176
0.111997
-0.101779
0.115122
-0.140496
0.116474
-0.18036
0.119917
-0.221703
0.124355
-0.264942
0.13005
-0.310376
0.136639
-0.358314
0.144151
0.152197
-0.408941
-0.0260432
0.105464
-0.0629986
0.148953
-0.101058
0.153181
-0.139581
0.154997
-0.17925
0.159586
-0.220399
0.165503
-0.263438
0.173089
-0.308668
0.181868
-0.356404
0.191887
0.202627
-0.406834
-0.0256752
0.131139
-0.0623071
0.185585
-0.100098
0.190972
-0.138363
0.193262
-0.177773
0.198996
-0.218662
0.206392
-0.261435
0.215863
-0.306392
0.226825
-0.353855
0.239351
0.252786
-0.404015
-0.0252165
0.156356
-0.0614436
0.221812
-0.0988981
0.228426
-0.136841
0.231205
-0.175928
0.238083
-0.216493
0.246957
-0.258934
0.258304
-0.30355
0.271441
-0.350668
0.286469
0.302603
-0.400485
-0.0246688
0.181025
-0.0604084
0.257551
-0.0974604
0.265478
-0.135019
0.268763
-0.173719
0.276784
-0.213896
0.287134
-0.255939
0.300346
-0.300144
0.315645
-0.346844
0.33317
0.352005
-0.396246
-0.0240349
0.205059
-0.0592023
0.292719
-0.0957854
0.302061
-0.132895
0.305873
-0.171147
0.315035
-0.210874
0.326861
-0.252453
0.341926
-0.296177
0.359369
-0.342388
0.379381
0.40092
-0.391303
-0.023321
0.22838
-0.057826
0.327224
-0.0938743
0.33811
-0.130474
0.342473
-0.168215
0.352776
-0.207428
0.366075
-0.248481
0.382978
-0.291658
0.402546
-0.337309
0.425032
0.449273
-0.385662
-0.0225454
0.250926
-0.0562798
0.360958
-0.0917278
0.373558
-0.127755
0.3785
-0.164926
0.389947
-0.203565
0.404714
-0.244027
0.42344
-0.286591
0.445111
-0.331611
0.470052
0.496994
-0.379332
-0.021685
0.272611
-0.054562
0.393835
-0.0893468
0.408343
-0.124742
0.413896
-0.161283
0.426487
-0.199287
0.442718
-0.239097
0.463251
-0.280985
0.486998
-0.325303
0.51437
0.544013
-0.372322
-0.0207101
0.293321
-0.0526709
0.425796
-0.0867316
0.442403
-0.121438
0.448602
-0.15729
0.462339
-0.1946
0.480029
-0.233699
0.50235
-0.274846
0.528145
-0.318393
0.557917
0.590261
-0.364642
-0.0196357
0.312957
-0.0506081
0.456768
-0.0838827
0.475678
-0.117844
0.482563
-0.152951
0.497446
-0.18951
0.516587
-0.227839
0.540679
-0.268183
0.568489
-0.310891
0.600625
0.635673
-0.356303
-0.0184676
0.331424
-0.0483752
0.486676
-0.0808014
0.508104
-0.113964
0.515725
-0.148271
0.531754
-0.184022
0.552338
-0.221526
0.578183
-0.261006
0.60797
-0.302807
0.642426
0.680182
-0.347316
-0.0172092
0.348633
-0.0459737
0.51544
-0.0774894
0.53962
-0.1098
0.548036
-0.143255
0.565209
-0.178144
0.587227
-0.214766
0.614805
-0.253325
0.646529
-0.294149
0.683249
0.723724
-0.33769
-0.0158634
0.364497
-0.0434051
0.542982
-0.0739484
0.570163
-0.105358
0.579445
-0.137908
0.597759
-0.171882
0.621201
-0.207572
0.650494
-0.245156
0.684113
-0.284932
0.723025
0.766227
-0.327435
-0.0144321
0.378929
-0.040671
0.569221
-0.0701805
0.599672
-0.100639
0.609904
-0.132236
0.629356
-0.165244
0.654209
-0.199948
0.685198
-0.236504
0.72067
-0.275152
0.761673
0.80762
-0.316546
-0.0129174
0.391846
-0.0377733
0.594077
-0.0661875
0.628087
-0.0956486
0.639365
-0.126244
0.659951
-0.158238
0.686203
-0.19191
0.71887
-0.227412
0.756172
-0.264867
0.799129
0.847784
-0.305031
-0.011321
0.403167
-0.0347142
0.61747
-0.0619715
0.655344
-0.0903902
0.667784
-0.11994
0.689501
-0.150872
0.717135
-0.183453
0.751452
-0.217849
0.790568
-0.253954
0.835233
0.886631
-0.292801
-0.00964454
0.412812
-0.031496
0.639322
-0.0575348
0.681383
-0.0848681
0.695117
-0.113328
0.717961
-0.143157
0.746964
-0.174603
0.782897
-0.207922
0.823887
-0.24278
0.870092
0.923877
-0.280026
-0.00788919
0.420701
-0.0281214
0.659554
-0.0528796
0.706141
-0.0790869
0.721325
-0.106417
0.745292
-0.135103
0.775649
-0.165357
0.813152
-0.197486
0.856015
-0.231587
0.904193
0.958896
-0.266606
-0.00605532
0.426756
-0.0245927
0.678091
-0.0480085
0.729557
-0.0730514
0.746367
-0.0992124
0.771453
-0.126718
0.803155
-0.155741
0.842175
-0.186572
0.886846
-0.219369
0.93699
0.993215
-0.253688
-0.0041409
0.430897
-0.0209125
0.694863
-0.0429249
0.751569
-0.0667667
0.770209
-0.0917215
0.796408
-0.11801
0.829443
-0.145769
0.869934
-0.175244
0.916321
-0.206714
0.96846
1.02638
-0.239875
-0.00213567
0.433033
-0.0170829
0.70981
-0.0376331
0.772119
-0.060238
0.792814
-0.0839525
0.820122
-0.108989
0.85448
-0.135455
0.8964
-0.163558
0.944424
-0.193615
0.998516
1.05811
-0.225347
5.233e-05
0.432981
-0.0131053
0.722968
-0.0321387
0.791153
-0.0534708
0.814146
-0.0759137
0.842565
-0.0996659
0.878232
-0.124808
0.921542
-0.151519
0.971135
-0.180112
1.02711
1.08835
-0.210352
0.00188808
0.431093
-0.00897909
0.733835
-0.0264545
0.808628
-0.0464707
0.834162
-0.0676141
0.863708
-0.0900519
0.90067
-0.113839
0.94533
-0.139128
0.996424
-0.166216
1.0542
1.11705
-0.194923
0.00387903
0.427214
-0.00468216
0.742396
-0.0205932
0.824539
-0.0392429
0.852812
-0.0590629
0.883528
-0.0801586
0.921766
-0.102562
0.967733
-0.126399
1.02026
-0.151945
1.07974
1.14417
-0.179062
0.00592466
0.421289
-0.000121376
0.748442
-0.0145624
0.83898
-0.0317911
0.870041
-0.0502701
0.902007
-0.0699977
0.941493
-0.0909903
0.988725
-0.113349
1.04262
-0.137323
1.10372
1.16965
-0.162801
0.00799008
0.413299
0.0041886
0.752243
-0.00837861
0.851547
-0.024124
0.885786
-0.0412458
0.919129
-0.0595811
0.959829
-0.0791403
1.00828
-0.0999953
1.06347
-0.122371
1.12609
1.19345
-0.146173
0.0100593
0.40324
0.00869291
0.75361
-0.00206712
0.862307
-0.0162545
0.899974
-0.0320011
0.934876
-0.0489207
0.976748
-0.0670271
1.02639
-0.0863557
1.0828
-0.107111
1.14685
1.21555
-0.129209
0.0121158
0.391124
0.0132961
0.75243
0.00453842
0.871065
-0.00819585
0.912708
-0.0225455
0.949225
-0.038029
0.992232
-0.0546668
1.04303
-0.0724499
1.10059
-0.0915648
1.16596
1.23592
-0.111939
0.0141372
0.376987
0.0179608
0.748606
0.0112974
0.877728
-2.5925e-05
0.924031
-0.0128939
0.962093
-0.0269207
1.00626
-0.0420757
1.05818
-0.0582984
1.11681
-0.0757565
1.18342
1.25456
-0.0943913
0.0160963
0.36089
0.0226561
0.742046
0.0181561
0.882228
0.00851161
0.933676
-0.00308279
0.973688
-0.0156117
1.01879
-0.02927
1.07184
-0.0439236
1.13146
-0.0597073
1.1992
1.27145
-0.0765931
0.0179622
0.342928
0.0273486
0.73266
0.0251096
0.884467
0.01714
0.941645
0.00702645
0.983801
-0.00413459
1.02995
-0.0162656
1.08397
-0.0293503
1.14455
-0.0434371
1.21329
1.28658
-0.0585734
0.0197009
0.323227
0.0320006
0.72036
0.0321358
0.884332
0.0259115
0.947869
0.0173178
0.992395
0.00758701
1.03968
-0.00308857
1.09465
-0.01461
1.15607
-0.026963
1.22564
1.29998
-0.0403577
0.0212749
0.301952
0.0365688
0.705066
0.0392053
0.881696
0.0348114
0.952263
0.0277459
0.999461
0.0194935
1.04793
0.0103205
1.10382
0.000200772
1.16619
-0.0102946
1.23614
1.31167
-0.0219836
0.0226429
0.279309
0.0410046
0.686704
0.0462823
0.876418
0.0438181
0.954728
0.0383139
1.00496
0.0315359
1.05471
0.0238856
1.11147
0.0154619
1.17461
0.00647434
1.24513
1.32163
-0.00349188
0.0237609
0.255548
0.0452533
0.665212
0.0533229
0.868349
0.052907
0.955144
0.0490105
1.00886
0.0437139
1.06001
0.0375775
1.11761
0.030734
1.18146
0.0233184
1.25254
1.32966
0.0152902
0.0245841
0.230964
0.0492549
0.640541
0.0602734
0.85733
0.0620498
0.953367
0.0598199
1.01109
0.056016
1.06381
0.0513814
1.12224
0.0461002
1.18674
0.0403231
1.25832
1.33589
0.0340935
0.0250716
0.205893
0.0529444
0.612668
0.0670833
0.843191
0.0712135
0.949237
0.0707234
1.01158
0.0684281
1.06611
0.0652856
1.12539
0.0615558
1.19047
0.0574231
1.26245
1.34042
0.0528874
0.0251914
0.180701
0.0562524
0.581607
0.0737028
0.825741
0.0803579
0.942582
0.0816994
1.01024
0.080936
1.06687
0.0792779
1.12704
0.0770804
1.19266
0.0745553
1.26498
1.34332
0.0716618
0.0249262
0.155775
0.0591072
0.547426
0.0800542
0.804794
0.0894331
0.933203
0.0927217
1.00695
0.093524
1.06607
0.0933444
1.12722
0.0926543
1.19335
0.0917142
1.26592
1.34456
0.0904684
0.0242762
0.131499
0.0614397
0.510263
0.0860512
0.780182
0.0983794
0.920875
0.103758
1.00157
0.106175
1.06365
0.107471
1.12593
0.108262
1.19256
0.10888
1.2653
1.34419
0.109258
0.02326
0.108239
0.0631977
0.470325
0.0915931
0.751787
0.107124
0.905344
0.114766
0.993931
0.118867
1.05955
0.121642
1.12315
0.123887
1.19032
0.126032
1.26315
1.34222
0.127998
0.0219128
0.0863262
0.0641892
0.428049
0.0965653
0.719411
0.11558
0.886329
0.125696
0.983815
0.131576
1.05367
0.135843
1.11888
0.139517
1.18664
0.14315
1.25952
1.33871
0.146659
0.0202836
0.0660426
0.0643113
0.384021
0.100847
0.682875
0.12364
0.863536
0.13648
0.970975
0.14427
1.04588
0.150058
1.1131
0.155135
1.18157
0.160216
1.25444
1.33371
0.165217
0.0184257
0.0476169
0.0635121
0.338935
0.104305
0.642082
0.131177
0.836664
0.147037
0.955115
0.156908
1.03601
0.164267
1.10574
0.170724
1.17511
0.177212
1.24795
1.32727
0.183649
0.0163904
0.0312266
0.0617502
0.293575
0.106793
0.597039
0.138041
0.805416
0.157265
0.935891
0.169438
1.02384
0.178447
1.09673
0.186267
1.16729
0.194122
1.2401
1.31947
0.201929
0.0142295
0.0169971
0.0590203
0.248784
0.108152
0.547907
0.14406
0.769509
0.16704
0.912911
0.181791
1.00908
0.192568
1.08595
0.201754
1.15811
0.210929
1.23092
1.31036
0.220037
0.0120047
0.00499237
0.0553706
0.205418
0.108218
0.49506
0.149037
0.72869
0.176209
0.885739
0.193878
0.991415
0.206589
1.07324
0.217165
1.14753
0.227618
1.22047
1.30003
0.237946
0.00979603
-0.00480365
0.0509124
0.164302
0.106831
0.439141
0.152753
0.682768
0.18459
0.853902
0.205584
0.970421
0.220452
1.05837
0.23247
1.13551
0.244163
1.20878
1.28856
0.255637
0.00769639
-0.0125
0.0458116
0.126186
0.10385
0.381103
0.154969
0.631649
0.191956
0.816915
0.216754
0.945623
0.234078
1.04105
0.247632
1.12196
0.260549
1.19586
1.27603
0.273072
0.00579353
-0.0182936
0.0402678
0.0917122
0.0991717
0.322199
0.155428
0.575393
0.198036
0.774307
0.227192
0.916466
0.247358
1.02088
0.262598
1.10672
0.276728
1.18173
1.2625
0.290256
0.00414786
-0.0224414
0.0345001
0.0613599
0.0927606
0.263938
0.153864
0.514289
0.202512
0.725659
0.236649
0.88233
0.260139
0.997389
0.277294
1.08957
0.29268
1.16634
1.24811
0.307073
0.00278412
-0.0252255
0.0287647
0.0353793
0.0847447
0.207958
0.150023
0.449011
0.205028
0.670654
0.244814
0.842544
0.272227
0.969977
0.291602
1.07019
0.308295
1.14965
1.23273
0.323676
0.00170761
-0.0269332
0.0233871
0.0136998
0.0755187
0.155827
0.14371
0.38082
0.205188
0.609176
0.251316
0.796415
0.28334
0.937952
0.305399
1.04813
0.323524
1.13152
1.21668
0.339577
0.000929798
-0.027863
0.0186977
-0.00406802
0.0657002
0.108824
0.134881
0.31164
0.202596
0.541461
0.255709
0.743303
0.293156
0.900505
0.318408
1.02288
0.338176
1.11176
1.19924
0.355619
0.000478508
-0.0283415
0.0150234
-0.0186129
0.0561088
0.0677386
0.123799
0.243949
0.196903
0.468357
0.257501
0.682704
0.301194
0.856812
0.330505
0.993569
0.351884
1.09038
1.18126
0.369857
0.000383537
-0.028725
0.0125925
-0.0308219
0.0476154
0.0327157
0.111197
0.180367
0.187909
0.391646
0.256162
0.614451
0.306969
0.806004
0.341028
0.959511
0.364873
1.06653
1.16078
0.385356
0.000661251
-0.0293863
0.0114841
-0.0416447
0.0410261
0.0031736
0.0983034
0.12309
0.175765
0.314184
0.251224
0.538992
0.309772
0.747456
0.350076
0.919206
0.374297
1.04231
1.1378
0.397274
0.0013022
-0.0306884
0.0116143
-0.0519568
0.0368682
-0.0220803
0.0866138
0.0733445
0.16123
0.239568
0.242325
0.457898
0.30896
0.680821
0.356516
0.871651
0.384796
1.01403
1.11328
0.409322
0.00224267
-0.0329311
0.0127402
-0.0624543
0.0351533
-0.0444934
0.0774481
0.0310498
0.145803
0.171213
0.229509
0.374192
0.304
0.60633
0.359701
0.81595
0.393983
0.979747
1.0859
0.421364
0.00336554
-0.0362967
0.0144789
-0.0735677
0.0353356
-0.0653501
0.0714459
-0.00506052
0.131384
0.111275
0.213533
0.292042
0.294495
0.525367
0.358692
0.751753
0.39986
0.938579
1.05514
0.430617
0.00452054
-0.0408172
0.0163647
-0.0854118
0.0364747
-0.0854601
0.0682327
-0.0368186
0.119505
0.0600027
0.195935
0.215612
0.280454
0.440848
0.352693
0.679515
0.401526
0.889747
1.0203
0.436363
0.00554676
-0.046364
0.0179105
-0.0977756
0.0375031
-0.105053
0.066499
-0.0658145
0.110535
0.015967
0.178511
0.147636
0.262509
0.35685
0.341228
0.600796
0.398059
0.832916
0.98049
0.437871
0.00629262
-0.0526566
0.01869
-0.110173
0.0374716
-0.123834
0.0645119
-0.0928548
0.103402
-0.0229234
0.162348
0.0886898
0.241774
0.277424
0.324198
0.518372
0.388631
0.768484
0.934963
0.434157
0.00663106
-0.0592876
0.0183849
-0.121927
0.0356961
-0.141145
0.0607246
-0.117883
0.0960606
-0.0582594
0.147106
0.0376447
0.219265
0.205265
0.301882
0.435754
0.37263
0.697737
0.883309
0.424284
0.0064703
-0.0657579
0.0168068
-0.132263
0.0317984
-0.156137
0.0541515
-0.140236
0.0864063
-0.0905142
0.13116
-0.00710915
0.195214
0.14121
0.274687
0.356281
0.349687
0.622736
0.825577
0.40742
0.00576123
-0.0715192
0.0139008
-0.140403
0.0256977
-0.167934
0.0444312
-0.15897
0.0730434
-0.119126
0.112461
-0.0465266
0.168854
0.0848174
0.242789
0.282347
0.319618
0.545908
0.762283
0.382912
0.0045016
-0.0760208
0.00973593
-0.145637
0.0175467
-0.175745
0.0316875
-0.173111
0.0554928
-0.142932
0.0895519
-0.0805858
0.138907
0.0354619
0.205991
0.215262
0.28235
0.469549
0.694303
0.35033
0.00273617
-0.0787569
0.00448616
-0.147387
0.0076652
-0.178924
0.0163679
-0.181813
0.0341265
-0.16069
0.0619899
-0.108449
0.104397
-0.00694537
0.163955
0.155705
0.237966
0.395538
0.622727
0.309542
0.000553833
-0.0793108
-0.00158908
-0.145244
-0.00348356