/*--------------------------------*- C++ -*----------------------------------*\
  =========                 |
  \\      /  F ield         | OpenFOAM: The Open Source CFD Toolbox
   \\    /   O peration     | Website:  https://openfoam.org
    \\  /    A nd           | Version:  7
     \\/     M anipulation  |
\*---------------------------------------------------------------------------*/
FoamFile
{
    version     2.0;
    format      ascii;
    class       volScalarField;
    location    "2.4";
    object      p;
}
// * * * * * * * * * * * * * * * * * * * * * * * * * * * * * * * * * * * * * //

dimensions      [1 -1 -2 0 0 0 0];

internalField   nonuniform List<scalar> 
252
(
1
1
1.81878
8.54045
10.9581
11.4918
1
1
1.56992
7.94048
10.5987
11.368
1
1
1.07411
6.50417
9.19181
7.98881
1
1
1.00125
4.0798
7.86035
7.19093
1
1
0.99999
1.68372
6.20744
7.10388
1
1
0.999997
1.05154
3.55984
6.83539
1
1
1
1.00032
1.47743
4.995
1
1
1
1
1.01924
2.45629
1
1
1
1
1.00013
1.16993
1
1
1
1
1
1.00459
2.61141
1.21239
0.837545
0.822933
0.906066
1.03221
1.16164
1.2513
1.43174
2.22947
4.23713
5.87828
6.07717
5.64833
5.05375
4.47248
4.03047
3.65285
3.36216
3.1294
2.92153
2.72546
2.55584
2.2804
3.91341
2.50913
1.88564
1.52708
1.36667
1.24286
1.19318
1.2928
1.78211
2.63653
3.28138
4.18711
4.68285
4.82654
4.59626
4.2624
3.95256
3.64059
3.36554
3.11424
2.90366
2.71339
2.55305
2.28961
4.7294
3.32505
2.45534
1.95333
1.55232
1.28412
1.31943
1.72538
2.58708
2.93592
2.86485
2.8113
3.10539
3.54218
3.81307
3.88351
3.86154
3.713
3.44504
3.16843
2.946
2.74886
2.57111
2.29492
5.23681
3.90042
3.02556
2.37051
1.87122
1.82286
2.26611
3.06823
3.33983
3.12021
2.7778
2.49813
2.27341
2.27053
2.52663
2.88843
3.13221
3.19994
3.16247
3.09774
2.96662
2.78839
2.59959
2.2981
5.51237
4.48766
3.50041
2.72851
2.58975
3.20551
4.04844
4.08746
3.69794
3.20956
2.76651
2.3877
2.09971
1.98725
1.85886
1.89812
2.07747
2.3364
2.55195
2.69372
2.66467
2.59324
2.50009
2.31554
4.69054
4.74385
3.99475
3.77487
4.68219
5.75327
5.51793
4.85606
4.08666
3.41319
2.89028
2.47801
2.18223
1.95283
1.75767
1.67296
1.57422
1.57469
1.67031
1.85519
2.04965
2.12551
2.15902
2.10967
2.83727
4.04573
4.94649
6.95318
7.45391
6.79591
5.80896
4.8693
4.09919
3.49384
3.01559
2.62164
2.30874
2.03618
1.81273
1.63322
1.48414
1.3897
1.3059
1.26865
1.32447
1.42529
1.58953
1.78206
1.34762
3.18927
7.61124
12.3884
10.7566
8.26909
6.25703
4.94268
4.08988
3.50447
3.06267
2.69793
2.38065
2.09861
1.86287
1.65717
1.47965
1.3249
1.21416
1.13521
1.08164
1.05333
1.08593
1.31446
)
;

boundaryField
{
    inlet
    {
        type            fixedValue;
        value           uniform 1;
    }
    outlet
    {
        type            zeroGradient;
    }
    bottom
    {
        type            symmetryPlane;
    }
    top
    {
        type            symmetryPlane;
    }
    obstacle
    {
        type            zeroGradient;
    }
    defaultFaces
    {
        type            empty;
    }
}


// ************************************************************************* //
