/*--------------------------------*- C++ -*----------------------------------*\
  =========                 |
  \\      /  F ield         | OpenFOAM: The Open Source CFD Toolbox
   \\    /   O peration     | Website:  https://openfoam.org
    \\  /    A nd           | Version:  9
     \\/     M anipulation  |
\*---------------------------------------------------------------------------*/
FoamFile
{
    format      ascii;
    class       volVectorField;
    location    "2.4";
    object      U;
}
// * * * * * * * * * * * * * * * * * * * * * * * * * * * * * * * * * * * * * //

dimensions      [0 1 -1 0 0 0 0];

internalField   nonuniform List<vector> 
252
(
(3 -1.20547e-14 0)
(3 -2.25491e-14 0)
(2.62832 0.0285088 0)
(0.816771 0.0593016 0)
(0.476469 0.0729172 0)
(0.281985 0.162837 0)
(3 -4.25441e-15 0)
(3 -1.82247e-14 0)
(2.77702 0.122101 0)
(0.896511 0.279055 0)
(0.43497 0.324852 0)
(0.308696 0.57417 0)
(3 2.28711e-15 0)
(3 1.11989e-14 0)
(3.03062 0.0287902 0)
(1.20535 0.483157 0)
(0.692373 0.576401 0)
(0.764407 0.898526 0)
(3 -1.72508e-14 0)
(3 -1.77115e-14 0)
(3.0041 0.000117465 0)
(1.7973 0.592515 0)
(0.970476 0.762899 0)
(1.04361 0.813264 0)
(3 8.96185e-16 0)
(3 -6.29674e-14 0)
(3.00003 -3.034e-07 0)
(2.89784 0.291945 0)
(1.39968 0.846612 0)
(1.27368 0.827016 0)
(3 -2.43892e-15 0)
(3 3.37153e-15 0)
(3 -1.38925e-06 0)
(3.0452 0.0144809 0)
(2.16017 0.678834 0)
(1.42268 0.881086 0)
(3 -2.60911e-15 0)
(3 1.51361e-14 0)
(3 -2.8386e-07 0)
(3.00088 0.000535241 0)
(2.99404 0.175492 0)
(1.78733 0.852534 0)
(3 5.8274e-15 0)
(3 2.76042e-14 0)
(3 -2.72413e-08 0)
(3 8.476e-07 0)
(3.01181 0.00972953 0)
(2.57151 0.498281 0)
(3 -4.4484e-15 0)
(3 -5.7671e-15 0)
(3 -9.39064e-10 0)
(3 -7.18167e-10 0)
(3.00006 0.000123112 0)
(2.97825 0.080461 0)
(3 -3.66628e-15 0)
(3 -2.64403e-14 0)
(3 -5.69343e-12 0)
(3 -1.56296e-10 0)
(3 1.20553e-07 0)
(2.99951 0.00262439 0)
(1.64975 0.902866 0)
(2.14679 0.823984 0)
(2.46327 0.692251 0)
(2.40191 0.331618 0)
(2.43243 0.136962 0)
(2.44166 -0.00105842 0)
(2.44015 -0.089969 0)
(2.41837 -0.0761784 0)
(2.34595 -0.097094 0)
(2.06367 -0.205278 0)
(1.60582 -0.307252 0)
(1.42589 -0.211691 0)
(1.51125 -0.149102 0)
(1.63993 -0.0796 0)
(1.74966 -0.0319952 0)
(1.86432 0.0101898 0)
(1.95569 0.0252787 0)
(2.03554 0.0352046 0)
(2.09943 0.0371896 0)
(2.16325 0.0350387 0)
(2.23156 0.037243 0)
(2.29871 0.0402494 0)
(2.35089 0.0417428 0)
(2.42087 0.043333 0)
(1.67668 0.69721 0)
(2.0649 0.41673 0)
(2.32177 0.131141 0)
(2.41638 -0.044787 0)
(2.45091 -0.217795 0)
(2.50005 -0.198372 0)
(2.51595 -0.220776 0)
(2.46874 -0.242075 0)
(2.30384 -0.393474 0)
(1.98058 -0.709421 0)
(1.93519 -0.661106 0)
(1.80074 -0.373309 0)
(1.72856 -0.110899 0)
(1.76668 0.0221692 0)
(1.82298 0.0669887 0)
(1.9077 0.104663 0)
(1.98594 0.116299 0)
(2.06256 0.121744 0)
(2.12573 0.118788 0)
(2.18988 0.1133 0)
(2.25524 0.112556 0)
(2.32238 0.115312 0)
(2.37656 0.120237 0)
(2.45308 0.117422 0)
(1.68093 0.715343 0)
(1.96367 0.565494 0)
(2.19401 0.366597 0)
(2.3197 0.244359 0)
(2.42371 0.128993 0)
(2.46888 0.105666 0)
(2.41071 -0.0405214 0)
(2.27333 -0.352171 0)
(2.06537 -0.674548 0)
(2.01665 -0.807126 0)
(2.09769 -0.785252 0)
(2.09766 -0.677952 0)
(2.10454 -0.477989 0)
(2.08741 -0.233969 0)
(2.07323 -0.0470151 0)
(2.0376 0.0613919 0)
(2.08231 0.126832 0)
(2.12766 0.171565 0)
(2.19403 0.200358 0)
(2.25642 0.200876 0)
(2.30679 0.187926 0)
(2.36206 0.17 0)
(2.4164 0.162426 0)
(2.49378 0.16459 0)
(1.66189 0.827241 0)
(1.93107 0.672157 0)
(2.09424 0.559343 0)
(2.27331 0.405439 0)
(2.38675 0.381078 0)
(2.36215 0.140301 0)
(2.25787 -0.226432 0)
(2.11234 -0.563351 0)
(2.04279 -0.758149 0)
(2.10245 -0.748511 0)
(2.19819 -0.730945 0)
(2.26667 -0.714183 0)
(2.34248 -0.664003 0)
(2.35107 -0.51468 0)
(2.37383 -0.359016 0)
(2.30073 -0.143073 0)
(2.28907 0.0139706 0)
(2.27692 0.12731 0)
(2.29853 0.203092 0)
(2.32441 0.258228 0)
(2.35517 0.277697 0)
(2.39855 0.272742 0)
(2.44447 0.274081 0)
(2.51781 0.267041 0)
(1.70634 0.867714 0)
(1.86126 0.795576 0)
(2.08529 0.640849 0)
(2.20778 0.603405 0)
(2.26203 0.376162 0)
(2.16568 -0.0482116 0)
(2.07553 -0.389696 0)
(2.0224 -0.631353 0)
(2.08198 -0.642097 0)
(2.17707 -0.634122 0)
(2.27557 -0.609855 0)
(2.35494 -0.596221 0)
(2.42793 -0.558766 0)
(2.46143 -0.531124 0)
(2.52824 -0.48994 0)
(2.52019 -0.362893 0)
(2.52937 -0.236514 0)
(2.47403 -0.0461932 0)
(2.45458 0.0935995 0)
(2.4508 0.204794 0)
(2.45363 0.285119 0)
(2.45838 0.3206 0)
(2.47743 0.34228 0)
(2.53044 0.354193 0)
(1.88024 0.870146 0)
(1.87325 0.88132 0)
(1.97701 0.833798 0)
(2.04415 0.597616 0)
(2.01767 0.177159 0)
(1.94529 -0.159402 0)
(1.96151 -0.356716 0)
(2.02257 -0.403851 0)
(2.12923 -0.417615 0)
(2.23494 -0.423154 0)
(2.32371 -0.417555 0)
(2.39674 -0.419749 0)
(2.46432 -0.406927 0)
(2.51878 -0.404593 0)
(2.57029 -0.401299 0)
(2.60796 -0.365664 0)
(2.64062 -0.334495 0)
(2.64008 -0.244983 0)
(2.6499 -0.132598 0)
(2.62725 0.040602 0)
(2.62375 0.173872 0)
(2.58266 0.28393 0)
(2.57731 0.367829 0)
(2.58267 0.404499 0)
(2.47722 0.570238 0)
(2.10267 0.931583 0)
(1.94939 0.733686 0)
(1.66777 0.182397 0)
(1.67883 -0.195229 0)
(1.73819 -0.295481 0)
(1.87778 -0.312035 0)
(2.02771 -0.284511 0)
(2.1582 -0.254701 0)
(2.26611 -0.240334 0)
(2.35503 -0.23598 0)
(2.43314 -0.242191 0)
(2.5057 -0.248306 0)
(2.57698 -0.262478 0)
(2.63244 -0.269233 0)
(2.66863 -0.24642 0)
(2.69874 -0.229533 0)
(2.72498 -0.221013 0)
(2.75342 -0.200689 0)
(2.78843 -0.127016 0)
(2.78918 -0.0246318 0)
(2.77019 0.108994 0)
(2.76151 0.198561 0)
(2.73408 0.360348 0)
(2.89671 0.114265 0)
(2.36327 0.490703 0)
(1.94428 0.550296 0)
(1.47264 0.306407 0)
(1.60948 0.130616 0)
(1.78834 -0.0239167 0)
(1.97005 -0.0857259 0)
(2.12467 -0.0996308 0)
(2.24584 -0.0979634 0)
(2.33778 -0.0922468 0)
(2.41127 -0.0863222 0)
(2.47802 -0.0813433 0)
(2.54266 -0.0787178 0)
(2.60476 -0.0807766 0)
(2.65914 -0.0820335 0)
(2.7169 -0.0846963 0)
(2.77048 -0.0956717 0)
(2.81314 -0.0916957 0)
(2.83116 -0.0922244 0)
(2.83574 -0.0944726 0)
(2.85725 -0.0726891 0)
(2.88591 -0.0383505 0)
(2.87818 -0.00866353 0)
(2.84674 0.0991415 0)
)
;

boundaryField
{
    inlet
    {
        type            fixedValue;
        value           uniform (3 0 0);
    }
    outlet
    {
        type            inletOutlet;
        inletValue      uniform (3 0 0);
        value           nonuniform List<vector> 8((2.42087 0.043333 0) (2.45308 0.117422 0) (2.49378 0.16459 0) (2.51781 0.267041 0) (2.53044 0.354193 0) (2.58267 0.404499 0) (2.73408 0.360348 0) (2.84674 0.0991415 0));
    }
    bottom
    {
        type            symmetryPlane;
    }
    top
    {
        type            symmetryPlane;
    }
    obstacle
    {
        type            slip;
    }
    defaultFaces
    {
        type            empty;
    }
}


// ************************************************************************* //
