/*--------------------------------*- C++ -*----------------------------------*\
  =========                 |
  \\      /  F ield         | OpenFOAM: The Open Source CFD Toolbox
   \\    /   O peration     | Website:  https://openfoam.org
    \\  /    A nd           | Version:  7
     \\/     M anipulation  |
\*---------------------------------------------------------------------------*/
FoamFile
{
    version     2.0;
    format      ascii;
    class       volScalarField;
    location    "1.1";
    object      T;
}
// * * * * * * * * * * * * * * * * * * * * * * * * * * * * * * * * * * * * * //

dimensions      [0 0 0 1 0 0 0];

internalField   nonuniform List<scalar> 
1575
(
1
1
1
1
1
1
1
1
2.27795
2.78375
2.83964
2.86857
2.89341
2.93035
2.95898
1
1
1
1
1
1
1
1
2.24956
2.77993
2.83579
2.85932
2.88216
2.91577
2.94172
1
1
1
1
1
1
1
1
2.17941
2.77305
2.82837
2.84705
2.86908
2.89834
2.91203
1
1
1
1
1
1
1
1
2.05419
2.74546
2.81086
2.82252
2.8368
2.85502
2.8704
1
1
1
1
1
1
1
1
1.85037
2.67268
2.77894
2.79045
2.80361
2.8258
2.87313
1
1
1
1
1
1
1
1
1.51722
2.52798
2.73229
2.74632
2.74645
2.71839
2.6552
1
1
1
1
1
1
1
1
1.07328
2.31343
2.67706
2.68344
2.67109
2.62541
2.50432
1
1
1
1
1
1
1
1
1.0014
2.05399
2.5858
2.61268
2.59476
2.54547
2.4023
1
1
1
1
1
1
1
1
0.999995
1.56645
2.42373
2.56907
2.54016
2.4794
2.35557
1
1
1
1
1
1
1
1
0.999999
1.07605
2.186
2.51097
2.47366
2.42196
2.32703
1
1
1
1
1
1
1
1
1
1.00108
1.74278
2.36944
2.4203
2.3738
2.30153
1
1
1
1
1
1
1
1
1
1
1.15363
2.10802
2.38234
2.32717
2.27073
1
1
1
1
1
1
1
1
1
1
1.0046
1.57851
2.20714
2.28304
2.23683
1
1
1
1
1
1
1
1
1
1
1.00001
1.09098
1.90017
2.23982
2.20026
1
1
1
1
1
1
1
1
1
1
1
1.00168
1.33615
2.0131
2.16989
1
1
1
1
1
1
1
1
1
1
1
1.00001
1.0253
1.56724
2.00887
1
1
1
1
1
1
1
1
1
1
1
1
1.00025
1.09774
1.67829
1
1
1
1
1
1
1
1
1
1
1
1
1
1.00232
1.18748
1
1
1
1
1
1
1
1
1
1
1
1
1
1.00001
1.00825
1
1
1
1
1
1
1
1
1
1
1
1
1
1
1.00006
1
1
1
1
1
1
1
1
1
1
1
1
1
1
1
1
1
1
1
1
1
1
1
1
1
1
1
1
1
1
1
1
1
1
1
1
1
1
1
1
1
1
1
1
1
1
1
1
1
1
1
1
1
1
1
1
1
1
1
1
1
1
1
1
1
1
1
1
1
1
1
1
1
1
1
1.87728
1.37814
1.3002
1.38106
1.40585
1.47168
1.56929
1.63744
1.70958
1.81108
1.86923
1.86619
1.86658
1.86894
1.87672
1.88006
1.87193
1.84557
1.83444
1.83859
1.83769
1.83652
1.83631
1.82989
1.81036
1.7868
1.76655
1.76119
1.76218
1.76674
1.77583
1.78247
1.78223
1.77546
1.7611
1.74942
1.74315
1.74166
1.74193
1.74418
1.7509
1.76322
1.77537
1.78149
1.7843
1.78458
1.78659
1.79438
1.80631
1.8178
1.82361
1.82693
1.83093
1.83785
1.84953
1.86108
1.86472
1.85822
1.82889
1.78379
2.09831
1.7731
1.64526
1.61992
1.55467
1.50485
1.4831
1.48112
1.49664
1.54805
1.60761
1.65088
1.68405
1.71162
1.73953
1.75527
1.75597
1.75164
1.75113
1.762
1.76786
1.77078
1.77411
1.77328
1.76185
1.74491
1.72801
1.72302
1.72398
1.7287
1.7351
1.73861
1.73865
1.7336
1.72053
1.70929
1.70543
1.7044
1.70422
1.70522
1.70952
1.71842
1.72793
1.73764
1.75002
1.76395
1.78286
1.81408
1.85365
1.88849
1.91363
1.93193
1.94768
1.96409
1.97938
1.98657
1.98279
1.97152
1.94961
1.92029
2.15502
1.96361
1.79791
1.69614
1.61433
1.53323
1.48878
1.45018
1.40971
1.41955
1.45041
1.47828
1.50656
1.53342
1.56146
1.58
1.59723
1.6139
1.63063
1.65035
1.66704
1.66682
1.66416
1.65851
1.64921
1.6387
1.62615
1.61904
1.6202
1.62678
1.63615
1.64217
1.64356
1.6393
1.62807
1.62198
1.62077
1.62039
1.61965
1.62251
1.6312
1.64783
1.67102
1.70188
1.74189
1.79077
1.84114
1.89132
1.93767
1.97104
1.9905
2.00304
2.0113
2.01919
2.01722
2.00998
1.99582
1.97985
1.96621
1.9443
2.1801
2.02949
1.90378
1.79572
1.69984
1.60773
1.55477
1.51787
1.46799
1.42643
1.41631
1.40491
1.40209
1.40721
1.42189
1.43889
1.45905
1.48036
1.50158
1.51883
1.53534
1.54667
1.54849
1.54871
1.54716
1.54085
1.53016
1.51998
1.51865
1.52108
1.52637
1.52815
1.5278
1.52373
1.51567
1.51565
1.51781
1.52463
1.53534
1.55553
1.59025
1.641
1.69474
1.74415
1.79042
1.83391
1.86665
1.89431
1.91565
1.92575
1.92814
1.92712
1.92669
1.92533
1.91871
1.90881
1.89421
1.8797
1.87198
1.854
2.2051
2.08296
1.96726
1.87118
1.78335
1.70046
1.63471
1.58046
1.52334
1.46181
1.43289
1.4094
1.38282
1.36848
1.37184
1.37828
1.38627
1.39939
1.41501
1.4289
1.44249
1.45122
1.45426
1.45761
1.46128
1.46322
1.46659
1.46574
1.4635
1.45985
1.45445
1.44715
1.43903
1.43663
1.44041
1.44807
1.46798
1.50358
1.55431
1.61129
1.6604
1.69817
1.72446
1.75019
1.76877
1.78176
1.79224
1.8021
1.80953
1.8093
1.80391
1.79719
1.79684
1.79517
1.7881
1.78033
1.76847
1.75424
1.746
1.73073
2.20745
2.1087
2.01123
1.92399
1.83999
1.75822
1.69659
1.64913
1.59966
1.53179
1.48333
1.45751
1.42856
1.38819
1.37653
1.37513
1.36409
1.35136
1.35207
1.35732
1.36579
1.37484
1.38655
1.39522
1.39972
1.40301
1.40799
1.40984
1.41052
1.41048
1.40883
1.40768
1.40797
1.41411
1.44388
1.49992
1.56413
1.61864
1.65752
1.68113
1.69552
1.69671
1.69637
1.69911
1.70314
1.7056
1.70825
1.7062
1.70019
1.69419
1.68226
1.67325
1.67481
1.67581
1.67417
1.66999
1.65972
1.64554
1.63385
1.61444
2.19835
2.11922
2.03852
1.96019
1.88819
1.8206
1.74888
1.68947
1.64506
1.59709
1.54553
1.50859
1.4736
1.42319
1.38584
1.37221
1.35381
1.33507
1.33057
1.33204
1.33213
1.32839
1.33012
1.33934
1.34482
1.35049
1.35596
1.3613
1.36578
1.37079
1.38113
1.40427
1.44918
1.51979
1.60042
1.65703
1.6851
1.68208
1.68154
1.67523
1.66406
1.6482
1.63841
1.63651
1.63817
1.6347
1.62717
1.61583
1.6034
1.58889
1.57765
1.5763
1.57687
1.58022
1.58145
1.57846
1.56808
1.55216
1.53611
1.51334
2.18057
2.11464
2.04777
1.98111
1.91304
1.85159
1.79262
1.73614
1.68761
1.64096
1.58662
1.54644
1.51796
1.48123
1.43366
1.40564
1.38345
1.35432
1.33369
1.33281
1.3279
1.31398
1.30446
1.30241
1.29682
1.29779
1.30418
1.31711
1.32745
1.3548
1.42167
1.52601
1.61356
1.67007
1.71568
1.71203
1.69921
1.68244
1.65859
1.63436
1.61544
1.59699
1.58357
1.57436
1.5597
1.54449
1.53084
1.51653
1.5046
1.49787
1.49716
1.49902
1.49643
1.49662
1.49552
1.49148
1.48173
1.46639
1.45151
1.42906
2.15432
2.10278
2.04446
1.98276
1.92804
1.87786
1.82165
1.7592
1.7146
1.68117
1.63767
1.58224
1.54565
1.51303
1.47523
1.44703
1.42315
1.38971
1.34693
1.33365
1.32172
1.3037
1.29074
1.28794
1.28598
1.27682
1.27886
1.29683
1.36828
1.47303
1.57672
1.64098
1.67358
1.69724
1.69317
1.67658
1.64775
1.62798
1.61728
1.60121
1.57277
1.54963
1.52948
1.50323
1.47595
1.4601
1.44795
1.43269
1.42401
1.42436
1.42523
1.42135
1.4107
1.40692
1.40473
1.3977
1.38719
1.37913
1.37099
1.35324
2.12539
2.07785
2.03282
1.98163
1.92758
1.88384
1.842
1.79219
1.73735
1.70058
1.66409
1.62062
1.58529
1.55006
1.50288
1.47142
1.44988
1.42393
1.38677
1.36412
1.34659
1.324
1.29939
1.29557
1.2946
1.30858
1.36108
1.45295
1.55092
1.62211
1.63346
1.62637
1.62045
1.61888
1.60581
1.58095
1.55069
1.53277
1.52548
1.50541
1.49012
1.47557
1.45611
1.42935
1.40587
1.3907
1.37663
1.35963
1.35736
1.35741
1.35416
1.3457
1.3318
1.32374
1.32019
1.31232
1.30047
1.30006
1.29838
1.28527
2.10338
2.05856
2.00996
1.96633
1.92347
1.88366
1.83978
1.79173
1.75179
1.72076
1.68375
1.6368
1.60401
1.57597
1.53836
1.50558
1.48091
1.45002
1.41081
1.3863
1.36996
1.35339
1.32679
1.33021
1.37458
1.46848
1.5704
1.63342
1.65456
1.644
1.61365
1.57956
1.55095
1.52731
1.49951
1.46633
1.4371
1.4289
1.42395
1.404
1.39314
1.38462
1.37672
1.36254
1.34707
1.33285
1.31677
1.30236
1.2966
1.29102
1.28302
1.27366
1.26242
1.25265
1.24742
1.24028
1.22898
1.22866
1.23024
1.22257
1.98216
2.03383
1.99875
1.95036
1.90768
1.87546
1.84016
1.7995
1.75534
1.72121
1.68942
1.65647
1.62637
1.59539
1.55368
1.52214
1.5022
1.47804
1.44427
1.40907
1.38919
1.39237
1.42545
1.51905
1.61676
1.68716
1.69659
1.68308
1.65746
1.61848
1.57212
1.52639
1.48545
1.45375
1.42445
1.39565
1.37183
1.35824
1.34146
1.31629
1.31291
1.3093
1.30201
1.29165
1.27803
1.27477
1.27051
1.25883
1.24005
1.2309
1.22643
1.22076
1.21068
1.20212
1.1968
1.18957
1.17899
1.16947
1.17193
1.1691
1.7062
1.94026
1.97657
1.94309
1.89759
1.86187
1.8294
1.79186
1.75915
1.72844
1.69472
1.656
1.63197
1.60941
1.57624
1.53662
1.51253
1.48549
1.46411
1.45176
1.47661
1.56152
1.67426
1.75716
1.75653
1.74282
1.71407
1.67489
1.62755
1.57556
1.52705
1.48545
1.4483
1.41669
1.38553
1.35755
1.33624
1.31744
1.29561
1.27133
1.26234
1.25529
1.2456
1.2365
1.22704
1.22377
1.21922
1.20436
1.18514
1.18021
1.17623
1.17017
1.16574
1.16152
1.15484
1.14379
1.13283
1.12798
1.12706
1.12256
1.24508
1.70398
1.8888
1.92345
1.89308
1.85278
1.8195
1.78457
1.75328
1.72451
1.693
1.66151
1.6348
1.61209
1.58016
1.54404
1.52644
1.50878
1.52764
1.60377
1.72577
1.80771
1.83373
1.82232
1.78604
1.7313
1.68433
1.6396
1.5921
1.54615
1.50507
1.46689
1.43008
1.39557
1.36377
1.33674
1.31427
1.29173
1.26651
1.24843
1.2353
1.2221
1.21155
1.19992
1.189
1.18227
1.17449
1.15764
1.14749
1.14445
1.13842
1.13294
1.12871
1.12641
1.11998
1.10974
1.09819
1.08928
1.08859
1.08575
1.01592
1.27475
1.67764
1.83374
1.8746
1.85124
1.81433
1.77243
1.74714
1.72474
1.69139
1.65537
1.63084
1.60913
1.58818
1.55886
1.569
1.64629
1.78242
1.86112
1.90234
1.88859
1.8444
1.78496
1.72746
1.67416
1.62916
1.59003
1.55259
1.51578
1.48035
1.44652
1.41541
1.38645
1.35681
1.32702
1.30167
1.27781
1.25245
1.23417
1.22103
1.2057
1.18982
1.17658
1.1654
1.15572
1.1466
1.13688
1.12759
1.11692
1.10362
1.09336
1.08852
1.08403
1.07474
1.06607
1.05705
1.04626
1.0412
1.04075
1.00016
1.02192
1.27469
1.63437
1.78089
1.82975
1.81297
1.77748
1.73599
1.71593
1.68464
1.6513
1.62911
1.60443
1.6158
1.68651
1.81083
1.91738
1.97247
1.9607
1.93017
1.87668
1.81124
1.7442
1.68645
1.63907
1.59928
1.56387
1.52857
1.49371
1.46275
1.43505
1.40634
1.37618
1.35068
1.32976
1.30534
1.27903
1.251
1.22757
1.21355
1.20302
1.1883
1.16886
1.15078
1.13719
1.12792
1.12032
1.11047
1.09621
1.07863
1.06657
1.05984
1.05202
1.04183
1.03214
1.02344
1.01394
1.00528
0.999594
1
1.00027
1.02341
1.25102
1.58516
1.73147
1.78598
1.77541
1.74073
1.70743
1.67454
1.63876
1.64339
1.69958
1.84473
1.96086
2.01352
1.99444
1.95547
1.91188
1.85803
1.79807
1.7447
1.69596
1.65215
1.6127
1.57683
1.54272
1.50825
1.47517
1.44756
1.42579
1.40455
1.37851
1.3466
1.31264
1.28233
1.25723
1.24161
1.23012
1.21552
1.19442
1.16938
1.14679
1.13299
1.12504
1.11777
1.10774
1.09365
1.07682
1.0594
1.04781
1.04014
1.03198
1.02271
1.01377
1.00486
0.993389
0.983025
0.972741
1
1
1.00031
1.01994
1.21796
1.52223
1.68153
1.74645
1.7372
1.71506
1.69898
1.72749
1.82699
1.97257
2.08692
2.07712
2.05018
2.01279
1.95468
1.88388
1.81125
1.75142
1.70587
1.6655
1.62711
1.5912
1.55835
1.52766
1.49767
1.46861
1.44231
1.41829
1.39395
1.36708
1.33654
1.30468
1.27762
1.25725
1.24042
1.22442
1.20611
1.18355
1.16006
1.14157
1.12868
1.11827
1.10813
1.0965
1.08249
1.06674
1.05124
1.04023
1.03227
1.02438
1.01605
1.00763
0.998549
0.98664
0.975919
0.964697
1
1
1
1.00025
1.01532
1.17702
1.45429
1.62872
1.70825
1.78546
1.88559
1.98647
2.02404
2.0545
2.04876
2.02601
1.98304
1.93107
1.88476
1.83662
1.78986
1.75194
1.71285
1.67437
1.6378
1.60416
1.57367
1.54534
1.51819
1.49207
1.46682
1.4413
1.41462
1.38662
1.35775
1.32978
1.3047
1.28253
1.2623
1.2431
1.22377
1.20361
1.18309
1.16424
1.14837
1.13465
1.1214
1.10742
1.09232
1.07664
1.06151
1.04882
1.03879
1.02981
1.02115
1.0126
1.00319
0.990205
0.978862
0.966548
1
1
1
1
1.00018
1.01092
1.13549
1.43409
1.7561
2.00685
2.20981
2.29877
2.27
2.21534
2.11973
2.01878
1.93389
1.8758
1.8308
1.7933
1.76246
1.7258
1.68528
1.6452
1.60807
1.57511
1.54595
1.51899
1.49318
1.46881
1.44512
1.42018
1.39333
1.36508
1.33672
1.31011
1.28623
1.26445
1.24373
1.22377
1.20433
1.18504
1.16532
1.14615
1.12954
1.11532
1.10165
1.08706
1.07135
1.05537
1.04066
1.02878
1.01934
1.01082
1.00242
0.99404
0.984614
0.971476
0.960828
0.949382
)
;

boundaryField
{
    inlet
    {
        type            fixedValue;
        value           uniform 1;
    }
    outlet
    {
        type            inletOutlet;
        inletValue      uniform 1;
        value           nonuniform List<scalar> 
20
(
1.76709
1.90609
1.9412
1.8561
1.73462
1.6169
1.5146
1.42957
1.35391
1.28633
1.22318
1.1694
1.12262
1.08596
1.04114
0.999763
0.972955
0.964913
0.966857
0.949661
)
;
    }
    bottom
    {
        type            symmetryPlane;
    }
    top
    {
        type            symmetryPlane;
    }
    obstacle
    {
        type            zeroGradient;
    }
    defaultFaces
    {
        type            empty;
    }
}


// ************************************************************************* //
