/*--------------------------------*- C++ -*----------------------------------*\
  =========                 |
  \\      /  F ield         | OpenFOAM: The Open Source CFD Toolbox
   \\    /   O peration     | Website:  https://openfoam.org
    \\  /    A nd           | Version:  9
     \\/     M anipulation  |
\*---------------------------------------------------------------------------*/
FoamFile
{
    format      ascii;
    class       surfaceScalarField;
    location    "6.5";
    object      phi;
}
// * * * * * * * * * * * * * * * * * * * * * * * * * * * * * * * * * * * * * //

dimensions      [0 3 -1 0 0 0 0];

internalField   nonuniform List<scalar> 
16735
(
-0.0080857
0.0080857
8.21251e-10
-0.0231497
0.015064
1.4155e-09
-0.043072
0.0199224
1.65001e-09
-0.0670015
0.0239295
1.75978e-09
-0.0952028
0.0282013
1.80885e-09
-0.127265
0.0320625
1.73072e-09
-0.163925
0.0366596
1.44267e-09
-0.200915
0.0369899
8.459e-10
-0.241842
0.0409273
-1.03017e-10
0.0313887
-1.48501e-09
-0.273231
-0.00778501
0.0158707
-0.0223739
0.0296528
-0.0416511
0.0391995
-0.0646765
0.0469549
-0.0916104
0.0551352
-0.121829
0.062281
-0.15605
0.0708805
-0.189574
0.0705136
-0.226174
0.0775282
0.0568835
-0.251669
-0.00720172
0.0230724
-0.0208633
0.0433144
-0.0388808
0.0572171
-0.0601478
0.068222
-0.0846258
0.0796132
-0.111312
0.0889667
-0.140855
0.100424
-0.167928
0.0975868
-0.196577
0.106178
0.0718859
-0.21158
-0.00637087
0.0294433
-0.0186973
0.0556408
-0.0349001
0.0734198
-0.0536499
0.0869718
-0.0746284
0.100592
-0.0963766
0.110715
-0.119343
0.12339
-0.137739
0.115983
-0.15587
0.124309
0.073827
-0.157811
-0.00534217
0.0347855
-0.0159897
0.0662883
-0.0299062
0.0873364
-0.0455139
0.10258
-0.0621436
0.117221
-0.0779225
0.126494
-0.0928268
0.138294
-0.10113
0.124286
-0.107129
0.130307
0.0621608
-0.0954625
-0.00417689
0.0389624
-0.0128817
0.0749931
-0.0241442
0.0985989
-0.0361468
0.114582
-0.0478056
0.12888
-0.0570119
0.1357
-0.0628345
0.144117
-0.0604467
0.121898
-0.0532114
0.123072
0.0377334
-0.028784
-0.0029438
0.0419062
-0.00953461
0.0815839
-0.0178933
0.106958
-0.026005
0.122694
-0.0323155
0.135191
-0.0347992
0.138184
-0.0310124
0.14033
-0.0183714
0.109257
0.00316096
0.10154
0.00111598
0.0397784
-0.00171461
0.0436208
-0.00612035
0.0859896
-0.0114518
0.112289
-0.0155675
0.126809
-0.0163897
0.136013
-0.0124648
0.134259
0.00122418
0.126641
0.0233035
0.0871781
0.0567004
0.0681429
-0.0495709
0.107387
-0.00055916
0.0441799
-0.00281109
0.0882416
-0.00511027
0.114588
-0.00531953
0.127019
-0.000630514
0.131324
0.00922651
0.124402
0.0308554
0.105012
0.0622036
0.0558298
0.106311
0.0240353
-0.114167
0.170907
0.000459452
0.0437205
0.000230816
0.0884702
0.000849913
0.113969
0.00437019
0.123498
0.013782
0.121912
0.0295617
0.108622
0.0582844
0.0762893
0.0966301
0.0174841
0.150595
-0.0299295
-0.192718
0.229146
0.00128895
0.0424315
0.00285729
0.0869019
0.00611637
0.11071
0.013128
0.116487
0.0268462
0.108194
0.0476137
0.0878547
0.0824981
0.0414049
0.126877
-0.0268947
0.190954
-0.0940063
-0.284426
0.282662
0.00189301
0.0405385
0.00496714
0.0838277
0.0105309
0.105146
0.020564
0.106454
0.0380739
0.090684
0.0633407
0.0625879
0.103498
0.00124811
0.154539
-0.0779365
0.230264
-0.169731
-0.386719
0.332556
0.00225324
0.0382853
0.00648905
0.0795919
0.0139541
0.0976812
0.026539
0.0938689
0.0473049
0.0699181
0.0770788
0.032814
0.122341
-0.0440144
0.182226
-0.137821
0.270773
-0.258278
-0.494499
0.378554
0.0023711
0.0359142
0.00740929
0.0745537
0.0163602
0.0887303
0.0310965
0.0791326
0.0547855
0.0462291
0.0896799
-0.00208042
0.141083
-0.0954177
0.212297
-0.209034
0.312228
-0.35821
-0.60097
0.418699
0.00226835
0.0336458
0.00777337
0.0690487
0.0178513
0.0786523
0.0345283
0.0624556
0.0612646
0.0194928
0.102489
-0.0433044
0.162102
-0.155031
0.245319
-0.292251
0.351527
-0.464418
-0.699928
0.450485
0.00198602
0.0316598
0.00768824
0.0633465
0.0186695
0.0676711
0.0373997
0.0437253
0.0679949
-0.0111024
0.117148
-0.0924571
0.186715
-0.224599
0.279353
-0.384889
0.384453
-0.569518
-0.787688
0.472212
0.00158175
0.0300781
0.0073177
0.0576106
0.0191896
0.0557991
0.0405116
0.0224034
0.0764547
-0.0470456
0.134961
-0.150963
0.214145
-0.303783
0.310792
-0.481536
0.408055
-0.666781
-0.86335
0.483717
0.0011252
0.0289529
0.00686986
0.0518659
0.019887
0.042782
0.0447813
-0.0024909
0.0878778
-0.0901421
0.156034
-0.21912
0.241774
-0.389522
0.336178
-0.575941
0.421623
-0.752225
-0.927824
0.486097
0.000691262
0.0282616
0.00657538
0.0459818
0.0212793
0.0280781
0.051054
-0.0322656
0.102708
-0.141796
0.178931
-0.295343
0.266489
-0.47708
0.353637
-0.663089
0.426118
-0.824706
-0.982996
0.481289
0.000351451
0.0279102
0.00665791
0.0396753
0.0238548
0.0108812
0.0598704
-0.0682813
0.120298
-0.202224
0.201244
-0.376289
0.286002
-0.561837
0.363023
-0.740109
0.423196
-0.884879
-1.03083
0.471033
0.000163479
0.0277467
0.00731015
0.0325287
0.0279942
-0.00980278
0.0712525
-0.11154
0.139077
-0.270048
0.220655
-0.457868
0.299212
-0.640393
0.365573
-0.806471
0.416847
-0.936153
-1.07036
0.456371
0.000160778
0.0275859
0.00867245
0.024017
0.0338919
-0.0350222
0.0846221
-0.16227
0.157155
-0.342581
0.235704
-0.536418
0.306237
-0.710926
0.362678
-0.862912
0.407635
-0.981111
-1.10436
0.441637
0.00035957
0.0272263
0.0108327
0.0135439
0.041488
-0.0656776
0.0989292
-0.219711
0.17291
-0.416561
0.2459
-0.609408
0.307879
-0.772905
0.356059
-0.911092
0.394478
-1.01953
-1.13365
0.423773
0.000765374
0.026461
0.013831
0.000478283
0.0504479
-0.102294
0.112939
-0.282202
0.185342
-0.488964
0.251435
-0.675501
0.30521
-0.826681
0.346254
-0.952136
0.379655
-1.05293
-1.16037
0.406372
0.00137037
0.0250906
0.01765
-0.0158014
0.0602276
-0.144872
0.125537
-0.347512
0.194089
-0.557515
0.252853
-0.734265
0.29912
-0.872947
0.334307
-0.987323
0.363575
-1.0822
-1.18437
0.387578
0.00216641
0.0229242
0.0222015
-0.0358364
0.0701846
-0.192855
0.135943
-0.41327
0.199241
-0.620814
0.2508
-0.785824
0.290452
-0.912599
0.320765
-1.01764
0.346623
-1.10806
-1.20642
0.368669
0.00315995
0.0197642
0.0273193
-0.0599957
0.079667
-0.245203
0.143773
-0.477376
0.201127
-0.678168
0.245927
-0.830624
0.279849
-0.946521
0.306133
-1.04392
0.329169
-1.13109
-1.22658
0.349333
0.00437488
0.0153893
0.0327801
-0.0884009
0.0880884
-0.300511
0.14897
-0.538257
0.200179
-0.729378
0.238818
-0.869263
0.26784
-0.975543
0.290748
-1.06683
0.311338
-1.15168
-1.24507
0.329823
0.00583982
0.00954953
0.0383365
-0.120898
0.0950236
-0.357198
0.151677
-0.594911
0.196847
-0.774547
0.229977
-0.902394
0.254817
-1.00038
0.274855
-1.08687
0.293284
-1.17011
-1.26192
0.310131
0.0075621
0.00198743
0.0437511
-0.157087
0.10026
-0.413707
0.152135
-0.646786
0.191557
-0.813969
0.219817
-0.930653
0.24108
-1.02164
0.258624
-1.10441
0.275064
-1.18655
-1.27716
0.290305
0.00950655
-0.00751913
0.0488022
-0.196382
0.10376
-0.468665
0.150621
-0.693647
0.184696
-0.848044
0.208673
-0.954631
0.226848
-1.03982
0.242172
-1.11973
0.256739
-1.20112
-1.29078
0.270364
0.0115986
-0.0191177
0.0532807
-0.238064
0.105594
-0.520979
0.147415
-0.735468
0.176592
-0.877221
0.19681
-0.974849
0.212284
-1.05529
0.22558
-1.13303
0.238338
-1.21388
-1.30277
0.250325
0.0137422
-0.0328599
0.0570026
-0.281325
0.105891
-0.569868
0.142786
-0.772363
0.167525
-0.90196
0.184433
-0.991757
0.197504
-1.06836
0.208903
-1.14443
0.219888
-1.22486
-1.31309
0.230207
0.0158463
-0.0487062
0.0598338
-0.325312
0.10481
-0.614844
0.136981
-0.804533
0.157721
-0.9227
0.171699
-1.00574
0.182591
-1.07926
0.19218
-1.15402
0.201406
-1.23409
-1.32171
0.210025
0.0178372
-0.0665434
0.0617042
-0.369179
0.102521
-0.655661
0.130221
-0.832233
0.147366
-0.939845
0.15873
-1.0171
0.167608
-1.08813
0.175437
-1.16185
0.182911
-1.24156
-1.32859
0.189797
0.0196555
-0.0861989
0.062604
-0.412128
0.0991919
-0.692249
0.122702
-0.855743
0.136612
-0.953755
0.145615
-1.0261
0.1526
-1.09512
0.158698
-1.16794
0.164419
-1.24728
-1.33372
0.169544
0.0212475
-0.107446
0.0625681
-0.453449
0.0949815
-0.724663
0.114594
-0.875356
0.125582
-0.964744
0.132425
-1.03294
0.137601
-1.1003
0.141985
-1.17233
0.145946
-1.25124
-1.33706
0.149286
0.0225603
-0.130007
0.061654
-0.492542
0.0900338
-0.753042
0.106042
-0.891364
0.114376
-0.973077
0.119213
-1.03778
0.122639
-1.10372
0.125318
-1.17501
0.12751
-1.25344
-1.33859
0.129045
0.0235452
-0.153552
0.059932
-0.528929
0.0844791
-0.777589
0.0971666
-0.904051
0.103071
-0.978981
0.106022
-1.04073
0.107738
-1.10544
0.108714
-1.17598
0.109132
-1.25385
-1.33831
0.108847
0.0241663
-0.177718
0.0575984
-0.562361
0.0784396
-0.798431
0.0880673
-0.913679
0.0917305
-0.982645
0.0928836
-1.04189
0.0929172
-1.10547
0.0921891
-1.17525
0.0908302
-1.2525
-1.33621
0.0887277
0.024405
-0.202123
0.0547306
-0.592687
0.0720245
-0.815725
0.078825
-0.920479
0.0804042
-0.984224
0.079826
-1.04131
0.0781952
-1.10384
0.0757604
-1.17282
0.0726263
-1.24936
-1.33231
0.0687339
0.0242605
-0.226384
0.0513988
-0.619825
0.0653274
-0.829653
0.0695078
-0.92466
0.0691308
-0.983847
0.0668716
-1.03905
0.0635897
-1.10056
0.0594468
-1.16868
0.0545284
-1.24444
-1.3266
0.0488145
0.0237499
-0.250134
0.0476779
-0.643753
0.0584316
-0.840407
0.060172
-0.9264
0.0579417
-0.981616
0.0540396
-1.03515
0.0491169
-1.09564
0.0432708
-1.16283
0.0365704
-1.23774
-1.31901
0.0289776
0.0229043
-0.273038
0.0436404
-0.664489
0.0513947
-0.848161
0.0508624
-0.925868
0.0468625
-0.977617
0.0413478
-1.02963
0.034791
-1.08908
0.0272489
-1.15529
0.0188017
-1.2293
-1.30944
0.00923803
0.0217647
-0.294803
0.0393542
-0.682079
0.0442697
-0.853077
0.0416158
-0.923214
0.035915
-0.971916
0.0288121
-1.02253
0.0206263
-1.08089
0.0113753
-1.14604
0.00132488
-1.21924
-1.29787
-0.0102488
0.0203756
-0.315178
0.0348819
-0.696585
0.0371132
-0.855308
0.0324633
-0.918564
0.0251169
-0.964569
0.0164437
-1.01386
0.00663508
-1.07109
-0.00430964
-1.13509
-0.0161315
-1.20742
-1.28457
-0.0294266
0.0187817
-0.33396
0.0302801
-0.708083
0.029971
-0.854999
0.0234316
-0.912025
0.0144795
-0.955617
0.00423761
-1.00361
-0.00712316
-1.05972
-0.0196333
-1.12258
-0.0333161
-1.19374
-1.26951
-0.0483752
0.017025
-0.350985
0.0255994
-0.716657
0.0228812
-0.85228
0.0145427
-0.903686
0.00399073
-0.945065
-0.00769829
-0.991924
-0.0206333
-1.04679
-0.0347703
-1.10845
-0.0502312
-1.17828
-1.25268
-0.0670657
0.0151439
-0.366129
0.0208839
-0.722397
0.0158745
-0.847271
0.00580814
-0.89362
-0.00621535
-0.933042
-0.0194066
-0.978733
-0.0339137
-1.03228
-0.0496711
-1.09269
-0.0668636
-1.16109
-1.23408
-0.0854653
0.0131734
-0.379303
0.0161723
-0.725396
0.00897087
-0.84007
-0.00273737
-0.881912
-0.0161765
-0.919603
-0.0308998
-0.96401
-0.046946
-1.01624
-0.0643084
-1.07533
-0.083198
-1.1422
-1.21373
-0.10355
0.0111448
-0.390447
0.0114997
-0.725751
0.00215667
-0.830727
-0.0110258
-0.868729
-0.0259379
-0.904691
-0.0421535
-0.947794
-0.0597147
-0.998675
-0.0786597
-1.05638
-0.0992154
-1.12164
-1.19165
-0.121293
0.00908536
-0.399533
0.00690211
-0.723568
-0.00438635
-0.819438
-0.0191333
-0.853982
-0.0354745
-0.88835
-0.0531533
-0.930115
-0.0722051
-0.979623
-0.0927057
-1.03588
-0.114897
-1.09945
-1.16788
-0.138669
0.00701622
-0.406549
0.00242388
-0.718976
-0.0107307
-0.806284
-0.0270302
-0.837683
-0.0447741
-0.870606
-0.0638865
-0.911003
-0.0844029
-0.959107
-0.106429
-1.01385
-0.130225
-1.07565
-1.14244
-0.155658
0.00495586
-0.411505
-0.00203495
-0.711985
-0.0169222
-0.791396
-0.0347035
-0.819901
-0.0538264
-0.851483
-0.0743418
-0.890488
-0.096294
-0.937155
-0.119813
-0.990336
-0.145181
-1.05029
-1.11539
-0.172236
0.00292869
-0.414434
-0.00647129
-0.702585
-0.0229421
-0.774926
-0.0421432
-0.8007
-0.0626213
-0.831005
-0.0845085
-0.8686
-0.107865
-0.913798
-0.132845
-0.965355
-0.159751
-1.02338
-1.08676
-0.188376
0.00097804
-0.415412
-0.0107178
-0.690889
-0.0287779
-0.756865
-0.049343
-0.780135
-0.0711494
-0.809198
-0.0943763
-0.845373
-0.119104
-0.88907
-0.145512
-0.938948
-0.173916
-0.994977
-1.05663
-0.204051
-0.00103644
-0.414375
-0.0148018
-0.677124
-0.0344191
-0.737248
-0.0562979
-0.758256
-0.079402
-0.786094
-0.103935
-0.820841
-0.13
-0.863005
-0.157802
-0.911145
-0.18766
-0.965119
-1.02502
-0.219268
-0.00310417
-0.411271
-0.0187325
-0.661495
-0.0398541
-0.716127
-0.0630029
-0.735108
-0.0873709
-0.761726
-0.113174
-0.795037
-0.140543
-0.835636
-0.169718
-0.88197
-0.200979
-0.933859
-0.992003
-0.233997
-0.00506328
-0.406208
-0.022509
-0.644049
-0.0450745
-0.693561
-0.0694529
-0.710729
-0.0950481
-0.736131
-0.122084
-0.768001
-0.150726
-0.806994
-0.181256
-0.85144
-0.21383
-0.901285
-0.957835
-0.247998
-0.0069375
-0.39927
-0.0261291
-0.624858
-0.0500751
-0.669615
-0.0756429
-0.685161
-0.102426
-0.709348
-0.130657
-0.73977
-0.160539
-0.777113
-0.192366
-0.819612
-0.226226
-0.867425
-0.922938
-0.261122
-0.0087309
-0.390539
-0.0295901
-0.603999
-0.0548523
-0.644353
-0.0815682
-0.658445
-0.109499
-0.681417
-0.138886
-0.710384
-0.169967
-0.746032
-0.202991
-0.786588
-0.237629
-0.832787
-0.885869
-0.274697
-0.0104436
-0.380096
-0.0328896
-0.581553
-0.0594032
-0.617839
-0.0872245
-0.630624
-0.11626
-0.652381
-0.146762
-0.679882
-0.178987
-0.713807
-0.213097
-0.752479
-0.248977
-0.796907
-0.847212
-0.287634
-0.0120744
-0.368021
-0.036025
-0.557602
-0.0637255
-0.590139
-0.0926076
-0.601742
-0.122704
-0.622285
-0.154278
-0.648307
-0.187602
-0.680483
-0.222824
-0.717256
-0.260057
-0.759674
-0.807228
-0.300041
-0.0136216
-0.3544
-0.038994
-0.53223
-0.0678172
-0.561316
-0.0977136
-0.571845
-0.128824
-0.591174
-0.161423
-0.615708
-0.195787
-0.646119
-0.23207
-0.680974
-0.270502
-0.721242
-0.765999
-0.31173
-0.0150835
-0.339316
-0.0417945
-0.505519
-0.0716765
-0.531434
-0.102539
-0.540983
-0.134616
-0.559097
-0.16819
-0.582134
-0.203548
-0.610762
-0.240866
-0.643656
-0.280434
-0.681674
-0.723645
-0.322788
-0.0164581
-0.322858
-0.0444247
-0.477552
-0.0753015
-0.500557
-0.10708
-0.509205
-0.140072
-0.526105
-0.174571
-0.547635
-0.21087
-0.574463
-0.249171
-0.605355
-0.289796
-0.641049
-0.680235
-0.333206
-0.017743
-0.305115
-0.0468829
-0.448412
-0.0786908
-0.468749
-0.111333
-0.476562
-0.14519
-0.492249
-0.180559
-0.512265
-0.217748
-0.537274
-0.256979
-0.566123
-0.298593
-0.599435
-0.63584
-0.342988
-0.0189357
-0.286179
-0.049168
-0.41818
-0.0818427
-0.436074
-0.115296
-0.443109
-0.149962
-0.457583
-0.186149
-0.476079
-0.224172
-0.499251
-0.264276
-0.526019
-0.306811
-0.5569
-0.590524
-0.352127
-0.0200324
-0.266147
-0.0512783
-0.386934
-0.0847559
-0.402597
-0.118965
-0.408899
-0.154386
-0.422162
-0.191332
-0.439132
-0.230133
-0.46045
-0.271051
-0.485102
-0.31444
-0.513511
-0.544352
-0.360613
-0.0210269
-0.24512
-0.0532124
-0.354748
-0.0874294
-0.36838
-0.122338
-0.37399
-0.158456
-0.386045
-0.196104
-0.401483
-0.235625
-0.420929
-0.277294
-0.443433
-0.321469
-0.469336
-0.497388
-0.368433
-0.0219038
-0.223216
-0.0549691
-0.321683
-0.0898629
-0.333486
-0.125413
-0.33844
-0.162168
-0.34929
-0.200459
-0.363192
-0.240641
-0.380747
-0.282997
-0.401077
-0.327889
-0.424444
-0.449701
-0.375576
-0.0227035
-0.200513
-0.0565504
-0.287836
-0.092056
-0.29798
-0.128186
-0.30231
-0.16552
-0.311956
-0.204393
-0.32432
-0.245172
-0.339968
-0.288152
-0.358097
-0.333691
-0.378905
-0.401362
-0.382031
-0.0234342
-0.177079
-0.0579577
-0.253313
-0.0940084
-0.26193
-0.130656
-0.265662
-0.168507
-0.274105
-0.2079
-0.284927
-0.249215
-0.298653
-0.292752
-0.314559
-0.338866
-0.332791
-0.352441
-0.387787
-0.0240817
-0.152997
-0.0591905
-0.218204
-0.095719
-0.225401
-0.132822
-0.228559
-0.171128
-0.235799
-0.210977
-0.245078
-0.252763
-0.256867
-0.296791
-0.270531
-0.343407
-0.286175
-0.303015
-0.392834
-0.0246405
-0.128356
-0.0602483
-0.182596
-0.097187
-0.188462
-0.134681
-0.191066
-0.173378
-0.197101
-0.213621
-0.204835
-0.255812
-0.214677
-0.30026
-0.226083
-0.347308
-0.239127
-0.253156
-0.397166
-0.0251081
-0.103248
-0.0611306
-0.146573
-0.0984116
-0.151181
-0.136232
-0.153246
-0.175257
-0.158075
-0.215829
-0.164263
-0.258357
-0.172148
-0.303155
-0.181285
-0.350559
-0.191722
-0.202941
-0.400775
-0.0254832
-0.0777652
-0.061837
-0.11022
-0.0993921
-0.113626
-0.137474
-0.115164
-0.176762
-0.118787
-0.217597
-0.123429
-0.260397
-0.129349
-0.305474
-0.136208
-0.353161
-0.144036
-0.152444
-0.403658
-0.025765
-0.0520002
-0.062367
-0.0736176
-0.100128
-0.0758653
-0.138407
-0.0768852
-0.177892
-0.0793013
-0.218925
-0.0823958
-0.261928
-0.0863455
-0.307215
-0.090921
-0.355111
-0.0961398
-0.10174
-0.405815
-0.0259531
-0.0260471
-0.0627205
-0.0368502
-0.100619
-0.037967
-0.139029
-0.0384755
-0.178646
-0.0396837
-0.219811
-0.041231
-0.26295
-0.0432067
-0.308376
-0.0454952
-0.356411
-0.0481045
-0.0509025
-0.407248
-0.0260471
1.78008e-10
-0.0628973
2.40052e-10
-0.100864
2.35072e-10
-0.13934
2.25224e-10
-0.179023
2.1984e-10
-0.220254
2.14236e-10
-0.263461
2.10197e-10
-0.308956
2.06276e-10
-0.357061
2.03455e-10
1.99977e-10
-0.407963
-0.0260471
0.0260471
-0.0628973
0.0368502
-0.100864
0.037967
-0.13934
0.0384755
-0.179023
0.0396837
-0.220254
0.041231
-0.263461
0.0432067
-0.308956
0.0454952
-0.357061
0.0481045
0.0509025
-0.407963
-0.0259531
0.0520002
-0.0627205
0.0736176
-0.100619
0.0758653
-0.139029
0.0768852
-0.178646
0.0793013
-0.219811
0.0823958
-0.26295
0.0863455
-0.308376
0.090921
-0.356411
0.0961398
0.10174
-0.407248
-0.025765
0.0777652
-0.062367
0.11022
-0.100128
0.113626
-0.138407
0.115164
-0.177892
0.118787
-0.218925
0.123429
-0.261928
0.129349
-0.307215
0.136208
-0.355111
0.144036
0.152444
-0.405815
-0.0254832
0.103248
-0.061837
0.146573
-0.0993921
0.151181
-0.137474
0.153246
-0.176762
0.158075
-0.217597
0.164263
-0.260397
0.172148
-0.305474
0.181285
-0.353161
0.191722
0.202941
-0.403658
-0.0251081
0.128356
-0.0611306
0.182596
-0.0984116
0.188462
-0.136232
0.191066
-0.175257
0.197101
-0.215829
0.204835
-0.258357
0.214677
-0.303155
0.226083
-0.350559
0.239127
0.253156
-0.400775
-0.0246405
0.152997
-0.0602483
0.218204
-0.097187
0.225401
-0.134681
0.228559
-0.173378
0.235799
-0.213621
0.245078
-0.255812
0.256867
-0.30026
0.270531
-0.347308
0.286175
0.303015
-0.397166
-0.0240817
0.177079
-0.0591905
0.253313
-0.095719
0.26193
-0.132822
0.265662
-0.171128
0.274105
-0.210977
0.284927
-0.252763
0.298653
-0.296791
0.314559
-0.343407
0.332791
0.352441
-0.392834
-0.0234342
0.200513
-0.0579577
0.287836
-0.0940084
0.29798
-0.130656
0.30231
-0.168507
0.311956
-0.2079
0.32432
-0.249215
0.339968
-0.292752
0.358097
-0.338866
0.378905
0.401362
-0.387787
-0.0227035
0.223216
-0.0565504
0.321683
-0.092056
0.333486
-0.128186
0.33844
-0.16552
0.34929
-0.204393
0.363192
-0.245172
0.380747
-0.288152
0.401077
-0.333691
0.424444
0.449701
-0.382031
-0.0219038
0.24512
-0.0549691
0.354748
-0.0898629
0.36838
-0.125413
0.37399
-0.162168
0.386045
-0.200459
0.401483
-0.240641
0.420929
-0.282997
0.443433
-0.327889
0.469336
0.497388
-0.375576
-0.0210269
0.266147
-0.0532124
0.386934
-0.0874294
0.402597
-0.122338
0.408899
-0.158456
0.422162
-0.196104
0.439132
-0.235625
0.46045
-0.277294
0.485102
-0.321469
0.513511
0.544352
-0.368433
-0.0200324
0.286179
-0.0512783
0.41818
-0.0847559
0.436074
-0.118965
0.443109
-0.154386
0.457583
-0.191332
0.476079
-0.230133
0.499251
-0.271051
0.526019
-0.31444
0.5569
0.590524
-0.360613
-0.0189357
0.305115
-0.049168
0.448412
-0.0818427
0.468749
-0.115296
0.476562
-0.149962
0.492249
-0.186149
0.512265
-0.224172
0.537274
-0.264276
0.566123
-0.306811
0.599435
0.63584
-0.352127
-0.017743
0.322858
-0.0468829
0.477552
-0.0786908
0.500557
-0.111333
0.509205
-0.14519
0.526105
-0.180559
0.547635
-0.217748
0.574463
-0.256979
0.605355
-0.298593
0.641049
0.680235
-0.342988
-0.0164581
0.339316
-0.0444247
0.505519
-0.0753015
0.531434
-0.10708
0.540983
-0.140072
0.559097
-0.174571
0.582134
-0.21087
0.610762
-0.249171
0.643656
-0.289796
0.681674
0.723645
-0.333206
-0.0150835
0.3544
-0.0417945
0.53223
-0.0716765
0.561316
-0.102539
0.571845
-0.134616
0.591174
-0.16819
0.615708
-0.203548
0.646119
-0.240866
0.680974
-0.280434
0.721242
0.765999
-0.322788
-0.0136216
0.368021
-0.038994
0.557602
-0.0678172
0.590139
-0.0977136
0.601742
-0.128824
0.622285
-0.161423
0.648307
-0.195787
0.680483
-0.23207
0.717256
-0.270502
0.759674
0.807228
-0.31173
-0.0120744
0.380096
-0.036025
0.581553
-0.0637255
0.617839
-0.0926076
0.630624
-0.122704
0.652381
-0.154278
0.679882
-0.187602
0.713807
-0.222824
0.752479
-0.260057
0.796907
0.847212
-0.300041
-0.0104436
0.390539
-0.0328896
0.603999
-0.0594032
0.644353
-0.0872245
0.658445
-0.11626
0.681417
-0.146762
0.710384
-0.178987
0.746032
-0.213097
0.786588
-0.248977
0.832787
0.885869
-0.287634
-0.0087309
0.39927
-0.0295901
0.624858
-0.0548523
0.669615
-0.0815682
0.685161
-0.109499
0.709348
-0.138886
0.73977
-0.169967
0.777113
-0.202991
0.819612
-0.237629
0.867425
0.922938
-0.274697
-0.0069375
0.406208
-0.0261291
0.644049
-0.0500751
0.693561
-0.0756429
0.710729
-0.102426
0.736131
-0.130657
0.768001
-0.160539
0.806994
-0.192366
0.85144
-0.226226
0.901285
0.957835
-0.261122
-0.00506328
0.411271
-0.022509
0.661495
-0.0450745
0.716127
-0.0694529
0.735108
-0.0950481
0.761726
-0.122084
0.795037
-0.150726
0.835636
-0.181256
0.88197
-0.21383
0.933859
0.992003
-0.247998
-0.00310417
0.414375
-0.0187325
0.677124
-0.0398541
0.737248
-0.0630029
0.758256
-0.0873709
0.786094
-0.113174
0.820841
-0.140543
0.863005
-0.169718
0.911145
-0.200979
0.965119
1.02502
-0.233997
-0.00103644
0.415412
-0.0148018
0.690889
-0.0344191
0.756865
-0.0562979
0.780135
-0.079402
0.809198
-0.103935
0.845373
-0.13
0.88907
-0.157802
0.938948
-0.18766
0.994977
1.05663
-0.219268
0.00097804
0.414434
-0.0107178
0.702585
-0.0287779
0.774926
-0.049343
0.8007
-0.0711494
0.831005
-0.0943763
0.8686
-0.119104
0.913798
-0.145512
0.965355
-0.173916
1.02338
1.08676
-0.204051
0.00292869
0.411505
-0.00647129
0.711985
-0.0229421
0.791396
-0.0421432
0.819901
-0.0626213
0.851483
-0.0845085
0.890488
-0.107865
0.937155
-0.132845
0.990336
-0.159751
1.05029
1.11539
-0.188376
0.00495586
0.406549
-0.00203495
0.718976
-0.0169222
0.806284
-0.0347035
0.837683
-0.0538264
0.870606
-0.0743418
0.911003
-0.096294
0.959107
-0.119813
1.01385
-0.145181
1.07565
1.14244
-0.172236
0.00701622
0.399533
0.00242388
0.723568
-0.0107307
0.819438
-0.0270302
0.853982
-0.0447741
0.88835
-0.0638865
0.930115
-0.0844029
0.979623
-0.106429
1.03588
-0.130225
1.09945
1.16788
-0.155658
0.00908536
0.390447
0.00690211
0.725751
-0.00438635
0.830727
-0.0191333
0.868729
-0.0354745
0.904691
-0.0531533
0.947794
-0.0722051
0.998675
-0.0927057
1.05638
-0.114897
1.12164
1.19165
-0.138669
0.0111448
0.379303
0.0114997
0.725396
0.00215667
0.84007
-0.0110258
0.881912
-0.0259379
0.919603
-0.0421535
0.96401
-0.0597147
1.01624
-0.0786597
1.07533
-0.0992154
1.1422
1.21373
-0.121293
0.0131734
0.366129
0.0161723
0.722397
0.00897087
0.847271
-0.00273737
0.89362
-0.0161765
0.933042
-0.0308998
0.978733
-0.046946
1.03228
-0.0643084
1.09269
-0.083198
1.16109
1.23408
-0.10355
0.0151439
0.350985
0.0208839
0.716657
0.0158745
0.85228
0.00580814
0.903686
-0.00621535
0.945065
-0.0194066
0.991924
-0.0339137
1.04679
-0.0496711
1.10845
-0.0668636
1.17828
1.25268
-0.0854653
0.017025
0.33396
0.0255994
0.708083
0.0228812
0.854999
0.0145427
0.912025
0.00399073
0.955617
-0.00769829
1.00361
-0.0206333
1.05972
-0.0347703
1.12258
-0.0502312
1.19374
1.26951
-0.0670657
0.0187817
0.315178
0.0302801
0.696585
0.029971
0.855308
0.0234316
0.918564
0.0144795
0.964569
0.00423761
1.01386
-0.00712316
1.07109
-0.0196333
1.13509
-0.0333161
1.20742
1.28457
-0.0483752
0.0203756
0.294803
0.0348819
0.682079
0.0371132
0.853077
0.0324633
0.923214
0.0251169
0.971916
0.0164437
1.02253
0.00663508
1.08089
-0.00430964
1.14604
-0.0161315
1.21924
1.29787
-0.0294266
0.0217647
0.273038
0.0393542
0.664489
0.0442697
0.848161
0.0416158
0.925868
0.035915
0.977617
0.0288121
1.02963
0.0206263
1.08908
0.0113753
1.15529
0.00132488
1.2293
1.30944
-0.0102488
0.0229043
0.250134
0.0436404
0.643753
0.0513947
0.840407
0.0508624
0.9264
0.0468625
0.981616
0.0413478
1.03515
0.034791
1.09564
0.0272489
1.16283
0.0188017
1.23774
1.31901
0.00923803
0.0237499
0.226384
0.0476779
0.619825
0.0584316
0.829653
0.060172
0.92466
0.0579417
0.983847
0.0540396
1.03905
0.0491169
1.10056
0.0432708
1.16868
0.0365704
1.24444
1.3266
0.0289776
0.0242605
0.202123
0.0513988
0.592687
0.0653274
0.815725
0.0695078
0.920479
0.0691308
0.984224
0.0668716
1.04131
0.0635897
1.10384
0.0594468
1.17282
0.0545284
1.24936
1.33231
0.0488145
0.024405
0.177718
0.0547306
0.562361
0.0720245
0.798431
0.078825
0.913679
0.0804042
0.982645
0.079826
1.04189
0.0781952
1.10547
0.0757604
1.17525
0.0726263
1.2525
1.33621
0.0687339
0.0241663
0.153552
0.0575984
0.528929
0.0784396
0.777589
0.0880673
0.904051
0.0917305
0.978981
0.0928836
1.04073
0.0929172
1.10544
0.0921891
1.17598
0.0908302
1.25385
1.33831
0.0887277
0.0235452
0.130007
0.059932
0.492542
0.0844791
0.753042
0.0971666
0.891364
0.103071
0.973077
0.106022
1.03778
0.107738
1.10372
0.108714
1.17501
0.109132
1.25344
1.33859
0.108847
0.0225603
0.107446
0.061654
0.453449
0.0900338
0.724663
0.106042
0.875356
0.114376
0.964744
0.119213
1.03294
0.122639
1.1003
0.125318
1.17233
0.12751
1.25124
1.33706
0.129045
0.0212475
0.0861989
0.0625681
0.412128
0.0949815
0.692249
0.114594
0.855743
0.125582
0.953755
0.132425
1.0261
0.137601
1.09512
0.141985
1.16794
0.145946
1.24728
1.33372
0.149286
0.0196555
0.0665434
0.062604
0.369179
0.0991919
0.655661
0.122702
0.832233
0.136612
0.939845
0.145615
1.0171
0.1526
1.08813
0.158698
1.16185
0.164419
1.24156
1.32859
0.169544
0.0178372
0.0487062
0.0617042
0.325312
0.102521
0.614844
0.130221
0.804533
0.147366
0.9227
0.15873
1.00574
0.167608
1.07926
0.175437
1.15402
0.182911
1.23409
1.32171
0.189797
0.0158463
0.0328599
0.0598338
0.281325
0.10481
0.569868
0.136981
0.772363
0.157721
0.90196
0.171699
0.991757
0.182591
1.06836
0.19218
1.14443
0.201406
1.22486
1.31309
0.210025
0.0137422
0.0191177
0.0570026
0.238064
0.105891
0.520979
0.142786
0.735468
0.167525
0.877221
0.184433
0.974849
0.197504
1.05529
0.208903
1.13303
0.219888
1.21388
1.30277
0.230207
0.0115986
0.00751913
0.0532807
0.196382
0.105594
0.468665
0.147415
0.693647
0.176592
0.848044
0.19681
0.954631
0.212284
1.03982
0.22558
1.11973
0.238338
1.20112
1.29078
0.250325
0.00950655
-0.00198743
0.0488022
0.157087
0.10376
0.413707
0.150621
0.646786
0.184696
0.813969
0.208673
0.930653
0.226848
1.02164
0.242172
1.10441
0.256739
1.18655
1.27716
0.270364
0.0075621
-0.00954953
0.0437511
0.120898
0.10026
0.357198
0.152135
0.594911
0.191557
0.774547
0.219817
0.902394
0.24108
1.00038
0.258624
1.08687
0.275064
1.17011
1.26192
0.290305
0.00583982
-0.0153893
0.0383365
0.0884009
0.0950236
0.300511
0.151677
0.538257
0.196847
0.729378
0.229977
0.869263
0.254817
0.975543
0.274855
1.06683
0.293284
1.15168
1.24507
0.310131
0.00437488
-0.0197642
0.0327801
0.0599957
0.0880884
0.245203
0.14897
0.477376
0.200179
0.678168
0.238818
0.830624
0.26784
0.946521
0.290748
1.04392
0.311338
1.13109
1.22658
0.329823
0.00315995
-0.0229242
0.0273193
0.0358364
0.079667
0.192855
0.143773
0.41327
0.201127
0.620814
0.245927
0.785824
0.279849
0.912599
0.306133
1.01764
0.329169
1.10806
1.20642
0.349333
0.00216641
-0.0250906
0.0222015
0.0158014
0.0701846
0.144872
0.135943
0.347512
0.199241
0.557515
0.2508
0.734265
0.290452
0.872947
0.320765
0.987323
0.346623
1.0822
1.18437
0.368669
0.00137037
-0.026461
0.01765
-0.000478283
0.0602276
0.102294
0.125537
0.282202
0.194089
0.488964
0.252853
0.675501
0.29912
0.826681
0.334307
0.952136
0.363575
1.05293
1.16037
0.387578
0.000765374
-0.0272263
0.013831
-0.0135439
0.0504479
0.0656776
0.112939
0.219711
0.185342
0.416561
0.251435
0.609408
0.30521
0.772905
0.346254
0.911092
0.379655
1.01953
1.13365
0.406372
0.00035957
-0.0275859
0.0108327
-0.024017
0.041488
0.0350222
0.0989292
0.16227
0.17291
0.342581
0.2459
0.536418
0.307879
0.710926
0.356059
0.862912
0.394478
0.981111
1.10436
0.423773
0.000160778
-0.0277467
0.00867245
-0.0325287
0.0338919
0.00980278
0.0846221
0.11154
0.157155
0.270048
0.235704
0.457868
0.306237
0.640393
0.362678
0.806471
0.407635
0.936153
1.07036
0.441637
0.000163479
-0.0279102
0.00731015
-0.0396753
0.0279942
-0.0108812
0.0712525
0.0682813
0.139077
0.202224
0.220655
0.376289
0.299212
0.561837
0.365573
0.740109
0.416847
0.884879
1.03083
0.456371
0.000351451
-0.0282616
0.00665791
-0.0459818
0.0238548
-0.0280781
0.0598704
0.0322656
0.120298
0.141796
0.201244
0.295343
0.286002
0.47708
0.363023
0.663089
0.423196
0.824706
0.982996
0.471033
0.000691262
-0.0289529
0.00657538
-0.0518659
0.0212793
-0.042782
0.051054
0.0024909
0.102708
0.0901421
0.178931
0.21912
0.266489
0.389522
0.353637
0.575941
0.426118
0.752225
0.927824
0.481289
0.0011252
-0.0300781
0.00686986
-0.0576106
0.019887
-0.0557991
0.0447813
-0.0224034
0.0878778
0.0470456
0.156034
0.150963
0.241774
0.303783
0.336178
0.481536
0.421623
0.666781
0.86335
0.486097
0.00158175
-0.0316598
0.0073177
-0.0633465
0.0191896
-0.0676711
0.0405116
-0.0437253
0.0764547
0.0111024
0.134961
0.0924571
0.214145
0.224599
0.310792
0.384889
0.408055
0.569518
0.787688
0.483717
0.00198602
-0.0336458
0.00768824
-0.0690487
0.0186695
-0.0786523
0.0373997
-0.0624556
0.0679949
-0.0194928
0.117148
0.0433044
0.186715
0.155031
0.279353
0.292251
0.384453
0.464418
0.699928
0.472213
0.00226835
-0.0359142
0.00777337
-0.0745537
0.0178513
-0.0887303
0.0345283
-0.0791326
0.0612646
-0.0462291
0.102489
0.00208042
0.162102
0.0954177
0.245319
0.209034
0.351527
0.35821
0.60097
0.450485
0.0023711
-0.0382853
0.00740929
-0.0795919
0.0163602
-0.0976812
0.0310965
-0.0938689
0.0547855
-0.0699181
0.0896799
-0.032814
0.141083
0.0440144
0.212297
0.137821
0.312228
0.258278
0.494499
0.418699
0.00225324
-0.0405385
0.00648905
-0.0838277
0.0139541
-0.105146
0.0265391
-0.106454
0.0473049
-0.090684
0.0770788
-0.0625879
0.122341
-0.00124811
0.182226
0.0779365
0.270773
0.169731
0.386719
0.378554
0.00189301
-0.0424315
0.00496714
-0.0869019
0.0105309
-0.11071
0.020564
-0.116487
0.0380739
-0.108194
0.0633407
-0.0878547
0.103498
-0.0414049
0.154539
0.0268947
0.230264
0.0940063
0.284426
0.332556
0.00128895
-0.0437205
0.00285729
-0.0884702
0.00611637
-0.113969
0.013128
-0.123498
0.0268462
-0.121912
0.0476137
-0.108622
0.0824981
-0.0762893
0.126877
-0.0174841
0.190954
0.0299295
0.192718
0.282662
0.000459453
-0.0441799
0.000230817
-0.0882416
0.000849914
-0.114588
0.00437019
-0.127019
0.013782
-0.131324
0.0295617
-0.124402
0.0582844
-0.105012