/*--------------------------------*- C++ -*----------------------------------*\
  =========                 |
  \\      /  F ield         | OpenFOAM: The Open Source CFD Toolbox
   \\    /   O peration     | Website:  https://openfoam.org
    \\  /    A nd           | Version:  9
     \\/     M anipulation  |
\*---------------------------------------------------------------------------*/
FoamFile
{
    format      ascii;
    class       surfaceScalarField;
    location    "52.6";
    object      phi;
}
// * * * * * * * * * * * * * * * * * * * * * * * * * * * * * * * * * * * * * //

dimensions      [0 3 -1 0 0 0 0];

internalField   nonuniform List<scalar> 
16735
(
-0.00298912
0.00299085
-1.72843e-06
-0.00897688
0.00599136
-3.59558e-06
-0.0168427
0.00787061
-4.81799e-06
-0.0258621
0.0090252
-5.76995e-06
-0.035927
0.0100717
-6.86007e-06
-0.0464586
0.0105397
-8.04498e-06
-0.0585475
0.0120983
-9.46468e-06
-0.0695061
0.0109691
-1.04991e-05
-0.0842475
0.0147525
-1.10808e-05
0.0111126
-1.04015e-05
-0.0953496
-0.00293788
0.00592873
-0.00883021
0.0118837
-0.0165595
0.0155999
-0.0253925
0.0178582
-0.0352078
0.0198871
-0.0453954
0.0207272
-0.05704
0.0237429
-0.067355
0.0212841
-0.081382
0.0287794
0.0209621
-0.0912315
-0.00283762
0.00876636
-0.008542
0.0175881
-0.0160013
0.0230592
-0.0244647
0.0263215
-0.0337822
0.0292046
-0.0432878
0.0302328
-0.0540351
0.0344903
-0.0630745
0.0303234
-0.0756847
0.0413897
0.0283563
-0.0830789
-0.00269264
0.011459
-0.0081222
0.0230176
-0.0151841
0.0301212
-0.023101
0.0342384
-0.0316748
0.0377784
-0.0401723
0.0387304
-0.0495507
0.0438687
-0.0566981
0.0374708
-0.0671996
0.0518911
0.0321843
-0.0710275
-0.00250912
0.0139681
-0.00758523
0.0280937
-0.0141311
0.036667
-0.0213338
0.041441
-0.0289216
0.0453663
-0.0361021
0.0459108
-0.0436102
0.0513768
-0.0482595
0.0421201
-0.0559373
0.0595689
0.0314536
-0.0552066
-0.00229494
0.0162631
-0.00694939
0.0327482
-0.0128702
0.0425879
-0.019204
0.0477748
-0.025569
0.0517313
-0.0311447
0.0514865
-0.0362402
0.0564723
-0.0377854
0.0436653
-0.0418083
0.0635918
0.0252839
-0.0356387
-0.00205921
0.0183223
-0.00623601
0.036925
-0.0114349
0.0477867
-0.016759
0.053099
-0.0216699
0.0566421
-0.0253781
0.0551947
-0.0274664
0.0585606
-0.0253088
0.0415076
-0.0245429
0.0628259
0.0129043
-0.0121633
-0.00181196
0.0201342
-0.00546846
0.0405815
-0.00986154
0.0521798
-0.0140487
0.0572861
-0.0172783
0.0598718
-0.0188796
0.056796
-0.0172991
0.0569802
-0.0109264
0.0351349
-0.00352316
0.0554227
-0.00700922
0.0163904
-0.00156351
0.0216977
-0.00467078
0.0436887
-0.00818769
0.0556967
-0.0111204
0.0602188
-0.0124402
0.0611916
-0.0117086
0.0560644
-0.00566368
0.0509353
0.00546308
0.0240081
0.0205819
0.040304
-0.0375363
0.0511089
-0.00132396
0.0230217
-0.00386612
0.0462309
-0.00644865
0.0582792
-0.00801329
0.0617835
-0.00717852
0.0603568
-0.00389987
0.0527857
0.00716788
0.0398675
0.0242999
0.00687611
0.0490123
0.0155915
-0.0811353
0.0926113
-0.00110247
0.0241242
-0.00307493
0.0482033
-0.00467423
0.0598785
-0.00475188
0.0618611
-0.0014474
0.0570523
0.00488137
0.046457
0.0214429
0.0233059
0.0450562
-0.0167372
0.0820068
-0.0213591
-0.140366
0.141238
-0.000906587
0.0250308
-0.00231277
0.0496095
-0.00288401
0.0604498
-0.00135051
0.0603276
0.00458224
0.0511196
0.0148489
0.0361903
0.0377841
0.000370687
0.0686079
-0.0475609
0.119814
-0.0725648
-0.216439
0.195886
-0.000741559
0.0257723
-0.00158823
0.0504562
-0.00107808
0.0599396
0.00229471
0.0569549
0.0111839
0.0422304
0.0262104
0.0211638
0.0565214
-0.0299403
0.096309
-0.0873485
0.162761
-0.139017
-0.307387
0.253709
-0.000609866
0.0263822
-0.000901148
0.0507475
0.000747092
0.0582914
0.00620952
0.0514924
0.0185544
0.0298855
0.0395244
0.000193842
0.0780127
-0.0684286
0.129227
-0.138563
0.210443
-0.220233
-0.407499
0.310555
-0.000511848
0.026894
-0.000238964
0.0504746
0.00262942
0.055423
0.0104817
0.0436401
0.0269278
0.0134395
0.0553014
-0.0281798
0.102623
-0.11575
0.166984
-0.202924
0.260402
-0.313651
-0.50904
0.361943
-0.00043845
0.0273325
0.000417111
0.049619
0.00466705
0.0511731
0.0153055
0.0330017
0.0366433
-0.00789836
0.0738466
-0.0653832
0.130569
-0.172472
0.207486
-0.279842
0.308017
-0.414181
-0.605142
0.404118
-0.000378663
0.0277111
0.00110789
0.0481325
0.00696242
0.0453185
0.0209394
0.0190247
0.0481513
-0.0351103
0.0951437
-0.112376
0.161333
-0.238662
0.247536
-0.366044
0.348349
-0.514994
-0.691652
0.434859
-0.00032016
0.0280313
0.00188505
0.0459273
0.00965138
0.0375522
0.02769
0.000986034
0.0618906
-0.0693108
0.118811
-0.169296
0.193198
-0.313049
0.283603
-0.456449
0.378242
-0.609633
-0.76716
0.45375
-0.000246136
0.0282774
0.00280831
0.0428728
0.0128938
0.0274667
0.0358652
-0.0219853
0.0780511
-0.111497
0.143945
-0.23519
0.223601
-0.392706
0.312741
-0.545589
0.396976
-0.693868
-0.832201
0.462018
-0.000136375
0.0284138
0.00394404
0.0387924
0.0168661
0.0145446
0.0457035
-0.0508227
0.0963289
-0.162122
0.169018
-0.30788
0.250057
-0.473744
0.333399
-0.628931
0.405607
-0.766076
-0.888865
0.462271
3.06547e-05
0.0283832
0.00536255
0.0334605
0.0217485
-0.00184136
0.0572763
-0.0863505
0.115841
-0.220687
0.192168
-0.384207
0.270852
-0.552428
0.345543
-0.703622
0.407142
-0.827675
-0.94487
0.463147
0.000248489
0.0281347
0.00713825
0.0265708
0.0276989
-0.022402
0.0703779
-0.12903
0.135277
-0.285586
0.211772
-0.460702
0.285256
-0.625912
0.350304
-0.768671
0.405199
-0.882569
-0.993462
0.453791
0.00055544
0.0275792
0.00934872
0.0177775
0.0348025
-0.0478558
0.0844676
-0.178695
0.153216
-0.354334
0.226849
-0.534335
0.293445
-0.692507
0.34988
-0.825106
0.397549
-0.930238
-1.03473
0.438818
0.000961786
0.0266174
0.0120712
0.0066681
0.0430039
-0.0787886
0.0987255
-0.234416
0.168488
-0.424097
0.237117
-0.602964
0.296284
-0.751674
0.344952
-0.873774
0.386503
-0.971789
-1.07168
0.423453
0.0014789
0.0251385
0.0153724
-0.00722539
0.0520647
-0.115481
0.112216
-0.294568
0.180394
-0.492275
0.242831
-0.665401
0.294661
-0.803504
0.336695
-0.915808
0.373221
-1.00832
-1.10462
0.406163
0.00212071
0.0230178
0.0192826
-0.0243873
0.0615801
-0.157778
0.124092
-0.35708
0.188706
-0.556889
0.244497
-0.721191
0.289524
-0.848531
0.325948
-0.952232
0.358234
-1.0406
-1.13448
0.388086
0.00290869
0.0201091
0.023764
-0.0452426
0.0710401
-0.205054
0.133757
-0.419797
0.193541
-0.616673
0.242735
-0.770385
0.281673
-0.88747
0.313382
-0.983941
0.342166
-1.06938
-1.16164
0.369325
0.00387563
0.0162335
0.028698
-0.070065
0.0798978
-0.256254
0.140922
-0.480821
0.195217
-0.670968
0.238167
-0.813335
0.271772
-0.921075
0.299518
-1.01169
0.325294
-1.09516
-1.18639
0.350049
0.0050617
0.0111718
0.0339003
-0.0989036
0.0876537
-0.310008
0.14556
-0.538728
0.194141
-0.719548
0.231359
-0.850553
0.260348
-0.950064
0.284724
-1.03606
0.307869
-1.11831
-1.20893
0.330408
0.0064982
0.00467362
0.0391527
-0.131558
0.0939495
-0.364804
0.147813
-0.592591
0.190744
-0.762479
0.222802
-0.882611
0.247808
-0.97507
0.269272
-1.05753
0.290036
-1.13907
-1.22934
0.310451
0.00818501
-0.00351139
0.0442327
-0.167606
0.0986082
-0.41918
0.147908
-0.641891
0.185437
-0.800007
0.212902
-0.910076
0.234459
-0.996627
0.253353
-1.07642
0.271903
-1.15762
-1.24769
0.290251
0.0100779
-0.0135893
0.0489239
-0.206452
0.101602
-0.471858
0.146109
-0.686398
0.178591
-0.832489
0.20199
-0.933475
0.220533
-1.01517
0.237103
-1.09299
0.253545
-1.17406
-1.26399
0.269846
0.0120966
-0.0256859
0.0530233
-0.247379
0.103002
-0.521837
0.142686
-0.726082
0.170526
-0.860329
0.190328
-0.953278
0.206201
-1.03104
0.22062
-1.10741
0.235016
-1.18846
-1.27825
0.249276
0.0141458
-0.0398317
0.0563593
-0.289592
0.102933
-0.568411
0.137896
-0.761045
0.161511
-0.883944
0.178122
-0.969888
0.191586
-1.04451
0.203973
-1.1198
0.21636
-1.20084
-1.29047
0.228575
0.0161381
-0.0559698
0.0588136
-0.332268
0.101548
-0.611145
0.131976
-0.791473
0.151767
-0.903735
0.165529
-0.98365
0.176784
-1.05576
0.187213
-1.13023
0.197614
-1.21125
-1.30063
0.207778
0.0180023
-0.0739721
0.0603306
-0.374596
0.0990101
-0.649825
0.125141
-0.817605
0.141477
-0.92007
0.152673
-0.994846
0.161863
-1.06495
0.170384
-1.13875
0.17881
-1.21967
-1.30874
0.186917
0.0196799
-0.0936519
0.0609103
-0.415826
0.0954817
-0.684396
0.117579
-0.839702
0.130789
-0.93328
0.139647
-1.0037
0.146878
-1.07218
0.15352
-1.14539
0.159978
-1.22613
-1.31478
0.166024
0.0211181
-0.11477
0.0605923
-0.4553
0.091115
-0.714919
0.109454
-0.858041
0.119824
-0.943651
0.126523
-1.0104
0.131871
-1.07753
0.136654
-1.15017
0.141147
-1.23062
-1.31877
0.145133
0.0222666
-0.137037
0.0594348
-0.492469
0.0860485
-0.741533
0.100904
-0.872897
0.10868
-0.951426
0.113359
-1.01508
0.116876
-1.08105
0.119813
-1.15311
0.122346
-1.23316
-1.3207
0.124278
0.0230822
-0.160119
0.0575236
-0.52691
0.0804084
-0.764417
0.0920469
-0.884535
0.0974344
-0.956814
0.1002
-1.01785
0.101923
-1.08277
0.103022
-1.15421
0.103604
-1.23374
-1.3206
0.103502
0.0235362
-0.183655
0.0550384
-0.558412
0.0743133
-0.783692
0.0829774
-0.893199
0.0861502
-0.959987
0.0870822
-1.01878
0.0870372
-1.08273
0.0863038
-1.15348
0.0849485
-1.23238
-1.31851
0.0828577
0.0236166
-0.207272
0.0520449
-0.586841
0.0678675
-0.799515
0.073775
-0.899107
0.0748767
-0.961088
0.0740358
-1.01794
0.0722429
-1.08093
0.0696823
-1.15092
0.0664016
-1.2291
-1.31442
0.06231
0.0233289
-0.230601
0.0486149
-0.612127
0.0611616
-0.812061
0.064506
-0.902451
0.0636538
-0.960236
0.0610867
-1.01537
0.0575618
-1.07741
0.053183
-1.14654
0.0479807
-1.2239
-1.30831
0.0418766
0.022694
-0.253295
0.0448221
-0.634255
0.0542752
-0.821515
0.0552251
-0.903401
0.0525135
-0.957525
0.0482572
-1.01112
0.0430139
-1.07216
0.0368319
-1.14035
0.0297302
-1.2168
-1.30017
0.021583
0.0217454
-0.27504
0.0407368
-0.653246
0.0472597
-0.828037
0.0459759
-0.902118
0.0414828
-0.953031
0.0355676
-1.0052
0.0286178
-1.06521
0.0206428
-1.13238
0.011714
-1.20787
-1.28982
0.00137132
0.0205237
-0.295564
0.0364248
-0.669147
0.0401722
-0.831785
0.0367949
-0.89874
0.0305845
-0.946821
0.0230352
-0.997651
0.0143916
-1.05657
0.004593
-1.12258
-0.00605507
-1.19722
-1.2775
-0.018383
0.0190724
-0.314636
0.0319465
-0.682021
0.033066
-0.832904
0.0277129
-0.893387
0.0198368
-0.938945
0.01067
-0.988484
0.000320321
-1.04622
-0.0111181
-1.11114
-0.0237068
-1.18463
-1.26334
-0.0378615
0.0174341
-0.33207
0.0273563
-0.691943
0.0259848
-0.831533
0.0187565
-0.886159
0.00924631
-0.929435
-0.00152545
-0.977712
-0.0134194
-1.03433
-0.0265751
-1.09799
-0.04106
-1.17015
-1.24733
-0.057073
0.0156488
-0.347719
0.0227025
-0.698997
0.0189646
-0.827795
0.00994622
-0.877141
-0.0011998
-0.918289
-0.0133994
-0.965513
-0.026958
-1.02077
-0.0418016
-1.08314
-0.0581178
-1.15383
-1.22947
-0.0759707
0.013753
-0.361472
0.0180276
-0.703272
0.0120333
-0.821801
0.00127406
-0.866381
-0.0112672
-0.905748
-0.0250864
-0.951693
-0.0402489
-1.00561
-0.0567633
-1.06663
-0.0748607
-1.13573
-1.2098
-0.0945356
0.0117803
-0.373252
0.0133688
-0.70486
0.0052019
-0.813634
-0.00711489
-0.854064
-0.0211732
-0.891689
-0.0365396
-0.936327
-0.0532756
-0.98887
-0.0714354
-1.04847
-0.0912732
-1.1159
-1.18833
-0.112738
0.00976083
-0.383013
0.00876098
-0.70386
-0.00150383
-0.803369
-0.0153281
-0.84024
-0.0308618
-0.876155
-0.0477405
-0.919448
-0.0660215
-0.97059
-0.0857966
-1.02869
-0.107337
-1.09436
-1.16511
-0.130559
0.00771971
-0.390733
0.00424436
-0.700385
-0.00789309
-0.791232
-0.0233392
-0.824794
-0.0403157
-0.859179
-0.058675
-0.901089
-0.0784716
-0.950793
-0.0998283
-1.00734
-0.123034
-1.07115
-1.14017
-0.147975
0.00567571
-0.396409
-7.73362e-05
-0.694632
-0.014152
-0.777157
-0.0311333
-0.807813
-0.0495241
-0.840788
-0.0693305
-0.881282
-0.0906111
-0.929512
-0.113514
-0.984435
-0.138348
-1.04632
-1.11355
-0.164964
0.00364688
-0.400055
-0.00464012
-0.686345
-0.0202491
-0.761548
-0.038696
-0.789366
-0.0584755
-0.821009
-0.0796953
-0.860063
-0.102426
-0.906782
-0.126839
-0.960021
-0.153263
-1.01989
-1.08532
-0.1815
0.00166964
-0.401725
-0.00894301
-0.675732
-0.0261659
-0.744325
-0.0460181
-0.769514
-0.0671595
-0.799867
-0.0897581
-0.837464
-0.113903
-0.882637
-0.13979
-0.934135
-0.16776
-0.991924
-1.05552
-0.197557
-0.000218714
-0.401506
-0.013078
-0.662873
-0.0318928
-0.72551
-0.0530948
-0.748312
-0.0755664
-0.777396
-0.0995079
-0.813523
-0.12503
-0.857114
-0.152355
-0.90681
-0.181823
-0.962456
-1.0242
-0.21314
-0.00234699
-0.399159
-0.0170618
-0.648158
-0.0374168
-0.705155
-0.0599204
-0.725808
-0.0836871
-0.753629
-0.108934
-0.788276
-0.135799
-0.83025
-0.164537
-0.878072
-0.195446
-0.931546
-0.991435
-0.228215
-0.00432635
-0.394833
-0.0208927
-0.631592
-0.0427266
-0.683321
-0.066489
-0.702046
-0.0915129
-0.728605
-0.118026
-0.761762
-0.1462
-0.802076
-0.176327
-0.847945
-0.208582
-0.899291
-0.95747
-0.242546
-0.00621913
-0.388614
-0.024568
-0.613243
-0.0478159
-0.660073
-0.072795
-0.677067
-0.0990358
-0.702364
-0.126776
-0.734022
-0.156223
-0.772629
-0.187681
-0.816487
-0.221241
-0.865732
-0.922707
-0.256004
-0.0080317
-0.380582
-0.0280843
-0.59319
-0.0526801
-0.635477
-0.0788331
-0.650914
-0.106249
-0.674949
-0.135175
-0.705096
-0.165853
-0.74195
-0.198544
-0.783796
-0.232955
-0.831321
-0.885749
-0.269913
-0.00976436
-0.370818
-0.0314384
-0.571516
-0.0573158
-0.6096
-0.0845985
-0.623631
-0.113145
-0.646403
-0.143214
-0.675027
-0.175067
-0.710097
-0.208877
-0.749986
-0.244548
-0.795649
-0.847204
-0.283094
-0.0114157
-0.359402
-0.0346273
-0.548305
-0.06172
-0.582507
-0.0900865
-0.595264
-0.119718
-0.616771
-0.150886
-0.643858
-0.183866
-0.677118
-0.218819
-0.715034
-0.255867
-0.758601
-0.807321
-0.29575
-0.0129838
-0.346418
-0.0376483
-0.52364
-0.0658903
-0.554265
-0.0952928
-0.565862
-0.125962
-0.586102
-0.158179
-0.611641
-0.192225
-0.643071
-0.228265
-0.678994
-0.266535
-0.72033
-0.766174
-0.307682
-0.0144665
-0.331952
-0.040499
-0.497608
-0.0698245
-0.52494
-0.100214
-0.535473
-0.13187
-0.554446
-0.165086
-0.578425
-0.200151
-0.608007
-0.237249
-0.641896
-0.276676
-0.680904
-0.723881
-0.318969
-0.0158615
-0.31609
-0.0431773
-0.470292
-0.0735207
-0.494596
-0.104845
-0.504149
-0.137438
-0.521853
-0.171599
-0.544264
-0.207626
-0.57198
-0.245729
-0.603793
-0.286232
-0.640401
-0.680515
-0.329598
-0.0171662
-0.298924
-0.0456812
-0.441777
-0.0769769
-0.463301
-0.109183
-0.471942
-0.142659
-0.488378
-0.177711
-0.509211
-0.214648
-0.535043
-0.2537
-0.564741
-0.295208
-0.598892
-0.636149
-0.339575
-0.0183777
-0.280547
-0.0480094
-0.412145
-0.0801915
-0.431119
-0.113226
-0.438908
-0.147528
-0.454075
-0.183415
-0.473325
-0.221204
-0.497253
-0.261145
-0.524799
-0.30359
-0.556447
-0.590847
-0.348892
-0.019492
-0.261054
-0.05016
-0.381477
-0.0831629
-0.398116
-0.116969
-0.405102
-0.152041
-0.419002
-0.188704
-0.436662
-0.227288
-0.45867
-0.268057
-0.48403
-0.311369
-0.513135
-0.544678
-0.357538
-0.0205026
-0.240552
-0.0521314
-0.349848
-0.0858901
-0.364357
-0.120409
-0.370583
-0.156194
-0.383218
-0.193573
-0.399283
-0.232891
-0.419352
-0.274425
-0.442496
-0.318534
-0.469026
-0.497709
-0.365503
-0.0213948
-0.219157
-0.0539223
-0.317321
-0.0883727
-0.329907
-0.123545
-0.33541
-0.159981
-0.346782
-0.198016
-0.361248
-0.238007
-0.379362
-0.28024
-0.400263
-0.325076
-0.42419
-0.450008
-0.372776
-0.0222137
-0.196943
-0.0555351
-0.283999
-0.0906103
-0.294832
-0.126375
-0.299646
-0.163401
-0.309756
-0.202029
-0.322619
-0.242629
-0.338763
-0.285495
-0.357396
-0.330986
-0.378698
-0.401649
-0.379346
-0.0229589
-0.173984
-0.0569704
-0.249988
-0.0926021
-0.2592
-0.128895
-0.263353
-0.166448
-0.272203
-0.205607
-0.283461
-0.246751
-0.297618
-0.290183
-0.313964
-0.336257
-0.332625
-0.352703
-0.385203
-0.0236183
-0.150366
-0.0582277
-0.215379
-0.0943474
-0.22308
-0.131104
-0.226597
-0.169121
-0.234185
-0.208745
-0.243837
-0.250368
-0.255995
-0.294298
-0.270034
-0.340881
-0.286042
-0.303246
-0.390338
-0.024187
-0.126179
-0.0593066
-0.180259
-0.0958452
-0.186542
-0.133
-0.189442
-0.171417
-0.195768
-0.211442
-0.203812
-0.253476
-0.213961
-0.297833
-0.225678
-0.344851
-0.239024
-0.253354
-0.394743
-0.0246628
-0.101516
-0.0602065
-0.144715
-0.0970946
-0.149653
-0.134582
-0.151955
-0.173333
-0.157017
-0.213693
-0.163453
-0.256071
-0.171582
-0.300783
-0.180967
-0.348161
-0.191645
-0.203102
-0.398413
-0.0250444
-0.076472
-0.0609269
-0.108833
-0.0980949
-0.112485
-0.135849
-0.1142
-0.174869
-0.117998
-0.215496
-0.122825
-0.25815
-0.128928
-0.303145
-0.135972
-0.350809
-0.143981
-0.152566
-0.401345
-0.0253311
-0.0511409
-0.0614675
-0.0726963
-0.0988457
-0.0751073
-0.136801
-0.0762451
-0.176021
-0.0787772
-0.21685
-0.0819955
-0.259711
-0.0860668
-0.304918
-0.0907658
-0.352794
-0.0961043
-0.101823
-0.403538
-0.0255224
-0.0256184
-0.0618281
-0.0363907
-0.0993464
-0.0375889
-0.137435
-0.0381563
-0.17679
-0.0394224
-0.217754
-0.0410316
-0.260753
-0.0430681
-0.3061
-0.0454183
-0.354117
-0.0480873
-0.0509443
-0.404996
-0.0256181
-3.06799e-07
-0.0620084
-4.34131e-07
-0.0995969
-4.3157e-07
-0.137753
-4.16086e-07
-0.177175
-4.04675e-07
-0.218206
-3.93878e-07
-0.261274
-3.84554e-07
-0.306692
-3.75682e-07
-0.354778
-3.67007e-07
-3.56948e-07
-0.405722
-0.0256181
0.0256178
-0.0620084
0.0363898
-0.0995969
0.0375881
-0.137753
0.0381554
-0.177175
0.0394216
-0.218206
0.0410308
-0.261274
0.0430673
-0.306692
0.0454175
-0.354778
0.0480866
0.0509436
-0.405722
-0.0255224
0.0511403
-0.0618281
0.0726954
-0.0993464
0.0751064
-0.137435
0.0762443
-0.17679
0.0787764
-0.217754
0.0819947
-0.260753
0.0860661
-0.3061
0.090765
-0.354117
0.0961036
0.101822
-0.404996
-0.0253311
0.0764713
-0.0614675
0.108832
-0.0988457
0.112485
-0.136801
0.114199
-0.176021
0.117997
-0.21685
0.122824
-0.259711
0.128927
-0.304918
0.135971
-0.352794
0.14398
0.152566
-0.403538
-0.0250444
0.101516
-0.0609269
0.144714
-0.0980949
0.149653
-0.135849
0.151954
-0.174869
0.157016
-0.215496
0.163452
-0.25815
0.171581
-0.303145
0.180966
-0.350809
0.191644
0.203101
-0.401345
-0.0246628
0.126179
-0.0602065
0.180258
-0.0970946
0.186541
-0.134582
0.189442
-0.173333
0.195767
-0.213693
0.203811
-0.256071
0.21396
-0.300783
0.225677
-0.348161
0.239023
0.253353
-0.398413
-0.024187
0.150366
-0.0593066
0.215378
-0.0958452
0.223079
-0.133
0.226596
-0.171417
0.234184
-0.211442
0.243836
-0.253476
0.255995
-0.297833
0.270033
-0.344851
0.286042
0.303245
-0.394743
-0.0236183
0.173984
-0.0582277
0.249987
-0.0943474
0.259199
-0.131104
0.263352
-0.169121
0.272202
-0.208745
0.28346
-0.250368
0.297618
-0.294298
0.313963
-0.340881
0.332624
0.352702
-0.390338
-0.0229589
0.196943
-0.0569704
0.283999
-0.0926022
0.294831
-0.128895
0.299645
-0.166448
0.309755
-0.205607
0.322619
-0.246751
0.338762
-0.290183
0.357395
-0.336257
0.378698
0.401648
-0.385203
-0.0222137
0.219156
-0.0555351
0.31732
-0.0906103
0.329906
-0.126375
0.335409
-0.163401
0.346781
-0.202029
0.361247
-0.242629
0.379361
-0.285495
0.400262
-0.330986
0.424189
0.450008
-0.379346
-0.0213948
0.240551
-0.0539224
0.349848
-0.0883727
0.364356
-0.123545
0.370582
-0.159981
0.383217
-0.198016
0.399282
-0.238007
0.419352
-0.28024
0.442495
-0.325076
0.469025
0.497708
-0.372776
-0.0205026
0.261054
-0.0521314
0.381476
-0.0858901
0.398115
-0.120409
0.405101
-0.156194
0.419002
-0.193573
0.436661
-0.232891
0.458669
-0.274425
0.484029
-0.318534
0.513134
0.544677
-0.365503
-0.019492
0.280546
-0.05016
0.412144
-0.0831629
0.431118
-0.116969
0.438907
-0.152041
0.454074
-0.188704
0.473324
-0.227288
0.497253
-0.268057
0.524799
-0.311369
0.556446
0.590847
-0.357538
-0.0183777
0.298924
-0.0480094
0.441776
-0.0801915
0.4633
-0.113226
0.471941
-0.147528
0.488377
-0.183415
0.509211
-0.221204
0.535042
-0.261145
0.56474
-0.30359
0.598891
0.636148
-0.348892
-0.0171662
0.31609
-0.0456813
0.470291
-0.0769769
0.494596
-0.109183
0.504148
-0.142659
0.521852
-0.177711
0.544263
-0.214648
0.571979
-0.2537
0.603792
-0.295208
0.6404
0.680515
-0.339575
-0.0158615
0.331951
-0.0431773
0.497607
-0.0735207
0.524939
-0.104845
0.535472
-0.137438
0.554445
-0.171599
0.578424
-0.207626
0.608006
-0.245729
0.641895
-0.286232
0.680903
0.723881
-0.329598
-0.0144665
0.346418
-0.040499
0.523639
-0.0698245
0.554264
-0.100214
0.565861
-0.13187
0.586101
-0.165086
0.61164
-0.200151
0.64307
-0.237249
0.678993
-0.276676
0.72033
0.766173
-0.318969
-0.0129838
0.359402
-0.0376483
0.548304
-0.0658903
0.582506
-0.0952928
0.595264
-0.125962
0.61677
-0.158179
0.643857
-0.192225
0.677117
-0.228265
0.715033
-0.266535
0.7586
0.807321
-0.307682
-0.0114157
0.370817
-0.0346273
0.571515
-0.06172
0.609599
-0.0900865
0.62363
-0.119718
0.646402
-0.150886
0.675026
-0.183866
0.710097
-0.218819
0.749985
-0.255867
0.795649
0.847203
-0.29575
-0.00976437
0.380582
-0.0314384
0.593189
-0.0573158
0.635477
-0.0845985
0.650913
-0.113145
0.674948
-0.143214
0.705095
-0.175067
0.74195
-0.208877
0.783795
-0.244548
0.83132
0.885749
-0.283094
-0.00803171
0.388613
-0.0280843
0.613242
-0.0526801
0.660072
-0.0788331
0.677066
-0.106249
0.702363
-0.135175
0.734021
-0.165853
0.772628
-0.198544
0.816486
-0.232955
0.865731
0.922706
-0.269913
-0.00621914
0.394833
-0.024568
0.631591
-0.0478159
0.68332
-0.072795
0.702045
-0.0990358
0.728604
-0.126776
0.761761
-0.156223
0.802076
-0.187681
0.847944
-0.221241
0.899291
0.957469
-0.256004
-0.00432636
0.399159
-0.0208927
0.648157
-0.0427266
0.705154
-0.066489
0.725807
-0.0915129
0.753628
-0.118026
0.788275
-0.1462
0.830249
-0.176327
0.878071
-0.208582
0.931546
0.991434
-0.242546
-0.002347
0.401506
-0.0170618
0.662872
-0.0374169
0.725509
-0.0599204
0.748311
-0.0836871
0.777395
-0.108934
0.813522
-0.135799
0.857113
-0.164537
0.906809
-0.195446
0.962455
1.0242
-0.228215
-0.000218731
0.401725
-0.0130781
0.675731
-0.0318928
0.744324
-0.0530949
0.769513
-0.0755664
0.799866
-0.0995079
0.837463
-0.12503
0.882636
-0.152355
0.934134
-0.181823
0.991923
1.05552
-0.213139
0.00166962
0.400055
-0.00894303
0.686344
-0.026166
0.761547
-0.0460181
0.789365
-0.0671595
0.821008
-0.0897581
0.860062
-0.113903
0.906781
-0.13979
0.96002
-0.16776
1.01989
1.08532
-0.197557
0.00364687
0.396408
-0.00464015
0.694631
-0.0202491
0.777156
-0.038696
0.807812
-0.0584755
0.840787
-0.0796953
0.881282
-0.102426
0.929511
-0.126839
0.984434
-0.153263
1.04632
1.11355
-0.1815
0.00567569
0.390732
-7.73697e-05
0.700384
-0.014152
0.791231
-0.0311333
0.824793
-0.0495241
0.859178
-0.0693305
0.901088
-0.0906111
0.950792
-0.113514
1.00734
-0.138348
1.07115
1.14017
-0.164964
0.00771968
0.383013
0.00424433
0.703859
-0.00789312
0.803368
-0.0233392
0.840239
-0.0403157
0.876155
-0.058675
0.919447
-0.0784716
0.970589
-0.0998282
1.02869
-0.123034
1.09436
1.16511
-0.147975
0.00976081
0.373252
0.00876094
0.704859
-0.00150386
0.813633
-0.0153281
0.854064
-0.0308618
0.891688
-0.0477405
0.936326
-0.0660215
0.98887
-0.0857965
1.04847
-0.107336
1.1159
1.18833
-0.130559
0.0117803
0.361472
0.0133687
0.703271
0.00520186
0.8218
-0.00711492
0.86638
-0.0211733
0.905747
-0.0365396
0.951692
-0.0532756
1.00561
-0.0714354
1.06663
-0.0912732
1.13573
1.2098
-0.112738
0.013753
0.347719
0.0180276
0.698996
0.0120333
0.827794
0.00127402
0.87714
-0.0112672
0.918288
-0.0250864
0.965512
-0.0402489
1.02077
-0.0567633
1.08314
-0.0748606
1.15383
1.22947
-0.0945355
0.0156488
0.33207
0.0227024
0.691943
0.0189645
0.831532
0.00994618
0.886158
-0.00119983
0.929434
-0.0133995
0.977711
-0.026958
1.03433
-0.0418015
1.09799
-0.0581177
1.17015
1.24733
-0.0759706
0.0174341
0.314636
0.0273562
0.68202
0.0259847
0.832904
0.0187564
0.893386
0.00924627
0.938944
-0.00152548
0.988483
-0.0134194
1.04622
-0.026575
1.11114
-0.0410599
1.18463
1.26334
-0.0570729
0.0190724
0.295563
0.0319465
0.669146
0.033066
0.831784
0.0277129
0.898739
0.0198368
0.94682
0.01067
0.99765
0.000320318
1.05657
-0.0111181
1.12258
-0.0237067
1.19722
1.27749
-0.0378614
0.0205237
0.27504
0.0364248
0.653245
0.0401722
0.828037
0.0367948
0.902117
0.0305845
0.95303
0.0230352
1.0052
0.0143915
1.06521
0.00459303
1.13238
-0.00605499
1.20787
1.28982
-0.0183829
0.0217454
0.253294
0.0407367
0.634254
0.0472596
0.821514
0.0459759
0.9034
0.0414828
0.957524
0.0355675
1.01111
0.0286178
1.07216
0.0206428
1.14035
0.011714
1.2168
1.30016
0.00137145
0.022694
0.2306
0.044822
0.612126
0.0542751
0.812061
0.055225
0.90245
0.0525135
0.960235
0.0482571
1.01537
0.0430139
1.07741
0.0368319
1.14654
0.0297303
1.2239
1.30831
0.0215831
0.0233288
0.207272
0.0486148
0.58684
0.0611615
0.799514
0.0645059
0.899106
0.0636537
0.961087
0.0610866
1.01794
0.0575618
1.08093
0.0531831
1.15091
0.0479808
1.2291
1.31442
0.0418768
0.0236166
0.183655
0.0520448
0.558412
0.0678674
0.783691
0.0737749
0.893198
0.0748766
0.959986
0.0740357
1.01878
0.0722429
1.08272
0.0696823
1.15347
0.0664017
1.23238
1.31851
0.0623102
0.0235361
0.160119
0.0550383
0.52691
0.0743131
0.764417
0.0829773
0.884534
0.0861501
0.956813
0.0870821
1.01785
0.0870371
1.08277
0.0863038
1.15421
0.0849485
1.23374
1.3206
0.0828579
0.0230822
0.137037
0.0575235
0.492468
0.0804083
0.741532
0.0920467
0.872896
0.0974343
0.951425
0.1002
1.01508
0.101923
1.08105
0.103022
1.15311
0.103604
1.23316
1.3207
0.103503
0.0222666
0.11477
0.0594347
0.4553
0.0860483
0.714918
0.100904
0.85804
0.10868
0.94365
0.113359
1.0104
0.116876
1.07753
0.119813
1.15017
0.122346
1.23062
1.31877
0.124278
0.021118
0.0936521
0.0605922
0.415826
0.0911148
0.684395
0.109454
0.839701
0.119824
0.933279
0.126523
1.0037
0.13187
1.07218
0.136654
1.14539
0.141147
1.22613
1.31478
0.145133
0.0196798
0.0739723
0.0609101
0.374596
0.0954815
0.649824
0.117579
0.817604
0.130789
0.920069
0.139647
0.994844
0.146878
1.06495
0.15352
1.13875
0.159978
1.21967
1.30874
0.166024
0.0180022
0.05597
0.0603305
0.332267
0.0990099
0.611145
0.125141
0.791472
0.141477
0.903734
0.152673
0.983649
0.161863
1.05576
0.170383
1.13023
0.17881
1.21124
1.30063
0.186917
0.0161381
0.039832
0.0588135
0.289592
0.101548
0.568411
0.131976
0.761044
0.151767
0.883943
0.165529
0.969887
0.176784
1.04451
0.187213
1.1198
0.197614
1.20084
1.29047
0.207778
0.0141458
0.0256862
0.0563592
0.247379
0.102933
0.521837
0.137896
0.726081
0.161511
0.860328
0.178121
0.953276
0.191586
1.03104
0.203973
1.10741
0.21636
1.18846
1.27825
0.228576
0.0120966
0.0135896
0.0530232
0.206452
0.103002
0.471858
0.142686
0.686397
0.170525
0.832488
0.190328
0.933474
0.2062
1.01517
0.22062
1.09299
0.235016
1.17406
1.26399
0.249276
0.0100779
0.00351171
0.0489238
0.167606
0.101602
0.41918
0.146109
0.641891
0.17859
0.800007
0.201989
0.910075
0.220533
0.996626
0.237103
1.07642
0.253545
1.15762
1.24769
0.269846
0.00818501
-0.0046733
0.0442326
0.131558
0.098608
0.364804
0.147908
0.592591
0.185436
0.762478
0.212901
0.88261
0.234459
0.975068
0.253352
1.05753
0.271903
1.13907
1.22934
0.290251
0.00649821
-0.0111715
0.0391526
0.098904
0.0939493
0.310008
0.147813
0.538727
0.190743
0.719548
0.222801
0.850552
0.247807
0.950063
0.269271
1.03606
0.290036
1.1183
1.20893
0.31045
0.00506172
-0.0162332
0.0339003
0.0700655
0.0876536
0.256254
0.14556
0.480821
0.19414
0.670967
0.231359
0.813334
0.260348
0.921074
0.284723
1.01169
0.307868
1.09516
1.18639
0.330407
0.00387566
-0.0201089
0.028698
0.0452431
0.0798977
0.205055
0.140922
0.419797
0.195216
0.616673
0.238166
0.770384
0.271771
0.887468
0.299517
0.983939
0.325293
1.06938
1.16163
0.350048
0.00290873
-0.0230176
0.023764
0.0243878
0.0710399
0.157779
0.133757
0.35708
0.193541
0.556889
0.242734
0.721191
0.281672
0.84853
0.313381
0.95223
0.342165
1.0406
1.13447
0.369325
0.00212076
-0.0251384
0.0192827
0.00722586
0.06158
0.115481
0.124092
0.294568
0.188705
0.492275
0.244496
0.665401
0.289523
0.803503
0.325947
0.915806
0.358233
1.00831
1.10462
0.388086
0.00147895
-0.0266173
0.0153725
-0.00666764
0.0520646
0.0787893
0.112216
0.234417
0.180393
0.424097
0.24283
0.602964
0.294659
0.751674
0.336693
0.873772
0.37322
0.971786
1.07168
0.406163
0.000961844
-0.0275792
0.0120712
-0.017777
0.0430039
0.0478566
0.0987253
0.178696
0.168488
0.354335
0.237116
0.534336
0.296282
0.692507
0.344951
0.825104
0.386501
0.930235
1.03473
0.423452
0.000555496
-0.0281347
0.00934879
-0.0265703
0.0348025
0.0224029
0.0844674
0.129031
0.153215
0.285587
0.226848
0.460703
0.293443
0.625912
0.349878
0.768669
0.397547
0.882566
0.993456
0.438817
0.000248536
-0.0283832
0.0071383
-0.0334601
0.0276989
0.00184223
0.0703777
0.0863519
0.135276
0.220689
0.211771
0.384208
0.285254
0.552428
0.350302
0.703621
0.405196
0.827672
0.944864
0.453789
3.06845e-05
-0.0284139
0.00536256
-0.038792
0.0217484
-0.0145436
0.0572761
0.0508242
0.115841
0.162124
0.192167
0.307881
0.27085
0.473746
0.345541
0.628931
0.407139
0.766073
0.888858
0.463145
-0.000136366
-0.0282775
0.00394398
-0.0428723
0.016866
-0.0274656
0.0457032
0.021987
0.0963284
0.111499
0.169017
0.235192
0.250055
0.392708
0.333397
0.545589
0.405604
0.693866
0.832195
0.462268
-0.000246159
-0.0280314
0.00280816
-0.0459267
0.0128935
-0.037551
0.0358647
-0.000984246
0.0780505
0.0693131
0.143944
0.169299
0.223599
0.313052
0.312739
0.45645
0.396973
0.609632
0.767154
0.462014
-0.00032022
-0.0277111
0.0018848
-0.0481317
0.00965089
-0.0453171
0.0276893
-0.0190227
0.0618896
0.0351128
0.11881
0.112379
0.193196
0.238666
0.2836
0.366046
0.378238
0.514994
0.691646
0.453745
-0.000378764
-0.0273324
0.00110753
-0.049618
0.00696174
-0.0511713
0.0209384
-0.0329993
0.04815
0.00790116
0.095142
0.0653868
0.161331
0.172477
0.247533
0.279844
0.348344
0.414183
0.605138
0.434853
-0.000438592
-0.0268938
0.000416651
-0.0504732
0.00466617
-0.0554208
0.0153042
-0.0436373
0.0366416
-0.0134363
0.0738445
0.0281839
0.130566
0.115755
0.207482
0.202928
0.308011
0.313654
0.509038
0.404111
-0.000512026
-0.0263818
-0.000239536
-0.0507457
0.00262835
-0.0582887
0.0104801
-0.0514891
0.0269256
-0.0298818
0.0552987
-0.00018922
0.10262
0.0684344
0.16698
0.138568
0.260396
0.220238
0.407499
0.361935
-0.000610085
-0.0257717
-0.000901811
-0.050454
0.000745859
-0.0599363
0.00620761
-0.0569508
0.0185518
-0.0422259
0.039521
-0.0211585
0.0780086
0.0299468
0.129222
0.0873543
0.210436
0.139024
0.307388
0.310546
-0.00074181
-0.0250299
-0.00158897
-0.0496068
-0.00107948
-0.0604458
0.00229255
-0.0603228
0.0111809
-0.0511143
0.0262065
-0.036184
0.0565165
-0.000363154
0.0963028
0.0475681
0.162754
0.0725725
0.216444
0.253699
-0.000906863
-0.024123
-0.00231357
-0.0482001
-0.0028855
-0.0598739
-0.00135276
-0.0618556
0.00457905
-0.0570461
0.0148445
-0.0464495
0.0377786
-0.0232972
0.0686008
0.0167458
0.119805
0.0213684
0.140373
0.195875
-0.00110277
-0.0230202
-0.00307576
-0.0462271
-0.00467577
-0.0582739
-0.00475423