/*--------------------------------*- C++ -*----------------------------------*\
  =========                 |
  \\      /  F ield         | OpenFOAM: The Open Source CFD Toolbox
   \\    /   O peration     | Website:  https://openfoam.org
    \\  /    A nd           | Version:  9
     \\/     M anipulation  |
\*---------------------------------------------------------------------------*/
FoamFile
{
    format      ascii;
    class       volScalarField;
    location    "0.2";
    object      p;
}
// * * * * * * * * * * * * * * * * * * * * * * * * * * * * * * * * * * * * * //

dimensions      [0 2 -2 0 0 0 0];

internalField   nonuniform List<scalar> 
6400
(
7.64906e-08
1.21796e-05
-0.000494454
-0.00152679
-0.00296838
-0.00470893
-0.00664823
-0.00869671
-0.0107772
-0.0128244
-0.0147833
-0.0166077
-0.0182593
-0.0197063
-0.020923
-0.0218886
-0.022587
-0.0230061
-0.0231373
-0.0229753
-0.0225175
-0.021764
-0.0207173
-0.0193819
-0.0177643
-0.0158728
-0.013717
-0.0113084
-0.00865951
-0.00578433
-0.00269783
0.000583943
0.00404399
0.00766446
0.0114267
0.0153114
0.0192985
0.0233674
0.0274972
0.0316661
0.0358526
0.0400345
0.0441895
0.0482955
0.0523301
0.0562713
0.0600973
0.0637867
0.0673185
0.0706726
0.0738296
0.0767708
0.079479
0.081938
0.0841332
0.0860517
0.0876821
0.0890154
0.0900446
0.0907651
0.0911748
0.0912749
0.0910692
0.0905651
0.0897737
0.08871
0.0873933
0.0858478
0.0841028
0.0821935
0.0801617
0.0780564
0.0759351
0.0738648
0.0719229
0.070198
0.0687869
0.0677938
0.0673254
0.0673622
-1.05585e-05
2.23082e-06
-0.00045137
-0.00133427
-0.00254735
-0.00401147
-0.00565072
-0.00739289
-0.0091727
-0.010933
-0.0126241
-0.0142035
-0.0156353
-0.0168891
-0.01794
-0.0187674
-0.0193552
-0.019691
-0.0197656
-0.019573
-0.0191098
-0.0183753
-0.017371
-0.0161003
-0.0145688
-0.0127834
-0.0107528
-0.00848739
-0.00599845
-0.00329874
-0.000402067
0.00267672
0.00592185
0.00931675
0.012844
0.0164856
0.0202227
0.0240362
0.0279062
0.0318127
0.0357353
0.0396532
0.0435456
0.0473918
0.051171
0.0548626
0.0584462
0.061902
0.0652106
0.0683533
0.0713121
0.0740701
0.0766113
0.0789211
0.0809863
0.0827953
0.0843381
0.0856068
0.0865956
0.087301
0.0877219
0.08786
0.08772
0.0873098
0.0866407
0.0857274
0.0845892
0.0832493
0.0817357
0.0800818
0.0783264
0.0765143
0.0746971
0.0729332
0.0712878
0.0698322
0.0686396
0.0677847
0.067361
0.0673988
0.000496605
0.000458068
4.22201e-06
-0.00081128
-0.00190127
-0.00320241
-0.00465361
-0.00619485
-0.00777057
-0.00933079
-0.0108312
-0.0122332
-0.0135034
-0.0146136
-0.0155399
-0.0162628
-0.0167664
-0.0170384
-0.0170695
-0.0168535
-0.0163866
-0.0156674
-0.0146968
-0.0134777
-0.0120146
-0.0103138
-0.00838319
-0.00623209
-0.00387102
-0.00131172
0.00143293
0.00434907
0.00742193
0.0106359
0.0139747
0.0174213
0.020958
0.0245666
0.0282286
0.0319248
0.035636
0.0393427
0.0430252
0.0466639
0.0502392
0.0537316
0.0571222
0.0603921
0.0635233
0.0664981
0.0692998
0.0719126
0.0743218
0.0765138
0.0784764
0.0801991
0.0816728
0.0828907
0.0838475
0.0845406
0.0849694
0.0851362
0.0850459
0.0847066
0.0841293
0.0833286
0.082323
0.0811346
0.0797899
0.0783199
0.0767604
0.0751521
0.0735409
0.0719779
0.0705188
0.069223
0.0681495
0.0673586
0.0669358
0.0669322
0.00152996
0.0013444
0.000820691
1.84077e-06
-0.00104554
-0.00226792
-0.00361354
-0.00503178
-0.00647512
-0.00789998
-0.0092672
-0.0105421
-0.0116944
-0.012698
-0.0135308
-0.0141743
-0.0146135
-0.0148366
-0.0148345
-0.0146009
-0.014132
-0.0134262
-0.012484
-0.0113076
-0.0099012
-0.00827049
-0.00642267
-0.00436631
-0.00211125
0.000331538
0.00294998
0.00573104
0.0086608
0.0117245
0.0149067
0.0181913
0.0215615
0.025
0.0284892
0.0320111
0.0355471
0.0390789
0.0425876
0.0460547
0.0494616
0.0527899
0.0560213
0.0591383
0.0621236
0.0649607
0.0676337
0.0701277
0.072429
0.0745247
0.0764036
0.0780559
0.0794733
0.0806493
0.0815796
0.0822617
0.0826955
0.0828835
0.0828307
0.0825448
0.0820367
0.0813203
0.080413
0.0793357
0.0781131
0.0767737
0.07535
0.0738789
0.0724011
0.0709611
0.0696071
0.0683893
0.0673583
0.0665655
0.066079
0.0659424
0.00297863
0.00256661
0.00191508
0.00104339
-1.14063e-05
-0.00120445
-0.00249193
-0.00383157
-0.0051832
-0.00650934
-0.00777586
-0.00895206
-0.0100109
-0.0109287
-0.0116852
-0.0122635
-0.0126495
-0.0128321
-0.0128029
-0.0125556
-0.0120865
-0.011394
-0.0104782
-0.00934115
-0.00798661
-0.00641977
-0.00464729
-0.00267712
-0.000518467
0.00181834
0.00432197
0.00698012
0.00977966
0.0127066
0.0157464
0.0188836
0.0221024
0.0253863
0.0287186
0.0320821
0.0354592
0.0388323
0.0421836
0.0454954
0.04875
0.0519299
0.0550177
0.0579968
0.0608508
0.0635639
0.0661212
0.0685085
0.0707129
0.0727223
0.0745262
0.0761152
0.0774818
0.07862
0.0795257
0.0801968
0.0806334
0.080838
0.0808155
0.0805732
0.0801215
0.0794735
0.0786455
0.0776567
0.0765298
0.0752909
0.0739693
0.0725976
0.0712117
0.0698502
0.0685543
0.0673661
0.066329
0.0654867
0.0648801
0.0645315
0.00474043
0.00405174
0.00322932
0.00226456
0.00116103
-4.41639e-05
-0.00131389
-0.00261342
-0.00390925
-0.00516959
-0.006365
-0.00746876
-0.008457
-0.0093087
-0.0100057
-0.0105324
-0.0108763
-0.0110271
-0.0109767
-0.0107197
-0.0102524
-0.00957311
-0.00868208
-0.00758114
-0.0062737
-0.00476462
-0.0030601
-0.00116761
0.000904202
0.0031456
0.00554589
0.00809345
0.0107758
0.0135797
0.0164913
0.019496
0.0225787
0.0257238
0.0289152
0.0321365
0.035371
0.038602
0.0418124
0.0449853
0.0481038
0.0511512
0.0541111
0.0569674
0.0597045
0.0623075
0.0647621
0.0670548
0.0691734
0.0711064
0.0728437
0.0743766
0.0756979
0.076802
0.077685
0.0783451
0.0787823
0.0789989
0.0789997
0.0787915
0.0783839
0.0777892
0.0770222
0.0761006
0.075045
0.0738788
0.0726282
0.071322
0.0699914
0.0686697
0.0673914
0.0661919
0.0651081
0.0641767
0.0634073
0.0627959
0.00672465
0.0057312
0.00470821
0.00361879
0.00243267
0.00118035
-0.000106421
-0.00139961
-0.00267173
-0.00389609
-0.00504768
-0.00610351
-0.00704284
-0.00784727
-0.00850066
-0.00898936
-0.00930192
-0.0094291
-0.00936382
-0.00910097
-0.00863731
-0.00797142
-0.00710349
-0.00603533
-0.00477017
-0.00331261
-0.00166852
0.000155022
0.00214983
0.00430669
0.00661546
0.00906508
0.0116437
0.0143388
0.0171371
0.0200246
0.022987
0.0260094
0.0290764
0.0321724
0.0352814
0.0383872
0.0414737
0.0445246
0.0475238
0.0504552
0.0533031
0.0560521
0.0586873
0.0611943
0.0635595
0.0657701
0.0678141
0.0696807
0.0713602
0.0728442
0.0741258
0.0751997
0.0760621
0.0767111
0.0771468
0.0773712
0.0773885
0.0772052
0.0768299
0.0762738
0.0755505
0.0746759
0.0736686
0.0725494
0.0713414
0.0700698
0.0687617
0.0674453
0.0661496
0.0649037
0.0637396
0.0626877
0.0617256
0.0608221
0.00885207
0.00754056
0.006298
0.00506083
0.00376605
0.00243893
0.00110688
-0.000207932
-0.00148326
-0.00269705
-0.00382835
-0.00485764
-0.00576718
-0.00654106
-0.00716532
-0.00762798
-0.00791903
-0.00803037
-0.00795576
-0.00769075
-0.00723258
-0.0065801
-0.00573372
-0.00469524
-0.00346784
-0.00205593
-0.000465175
0.00129767
0.0032248
0.00530744
0.00753589
0.00989964
0.0123874
0.0149871
0.0176861
0.0204711
0.0233283
0.0262435
0.0292019
0.0321886
0.0351881
0.0381851
0.0411639
0.0441089
0.0470046
0.0498356
0.0525868
0.0552433
0.0577907
0.0602152
0.0625038
0.0646438
0.066624
0.0684337
0.0700637
0.0715057
0.0727532
0.0738006
0.0746445
0.0752827
0.0757151
0.0759434
0.0759713
0.0758045
0.0754509
0.0749205
0.0742254
0.07338
0.0724007
0.0713059
0.0701159
0.0688525
0.067539
0.0661994
0.0648576
0.0635373
0.0622665
0.0610707
0.0598963
0.0586862
0.0110559
0.00942242
0.00794924
0.00654814
0.0051253
0.00370196
0.00230209
0.0009429
-0.000357967
-0.00158256
-0.00271358
-0.00373474
-0.00463108
-0.0053891
-0.00599693
-0.00644429
-0.00672259
-0.00682495
-0.00674604
-0.00648213
-0.006031
-0.00539191
-0.00456551
-0.00355374
-0.00235976
-0.000987934
0.000556253
0.00226625
0.00413458
0.00615281
0.00831164
0.010601
0.01301
0.0155272
0.0181403
0.0208368
0.0236032
0.026426
0.0292908
0.0321834
0.0350889
0.0379925
0.0408791
0.0437336
0.046541
0.0492866
0.0519555
0.0545335
0.0570067
0.0593617
0.0615856
0.0636664
0.065593
0.067355
0.0689435
0.0703503
0.0715688
0.0725937
0.0734211
0.074049
0.0744768
0.0747058
0.0747391
0.0745817
0.0742405
0.0737243
0.0730439
0.0722121
0.0712432
0.0701534
0.0689604
0.0676829
0.0663409
0.0649544
0.0635433
0.0621266
0.060729
0.0593727
0.0579741
0.0564526
0.0132802
0.0113267
0.00961751
0.00804167
0.00647667
0.0049407
0.00345524
0.0020333
0.000688501
-0.000564775
-0.00171243
-0.00274117
-0.00363863
-0.00439358
-0.00499607
-0.00543752
-0.00571081
-0.00581022
-0.00573138
-0.00547134
-0.00502849
-0.00440256
-0.00359449
-0.00260642
-0.00144163
-0.000104462
0.00139968
0.00306444
0.00488253
0.0068458
0.0089453
0.0111713
0.0135134
0.0159604
0.0185007
0.021122
0.0238115
0.026556
0.0293418
0.032155
0.0349814
0.0378065
0.0406157
0.0433945
0.0461283
0.0488028
0.0514035
0.0539167
0.0563287
0.0586264
0.0607974
0.0628299
0.0647129
0.0664363
0.067991
0.0693692
0.0705641
0.0715704
0.0723839
0.0730024
0.0734248
0.073652
0.0736863
0.0735321
0.0731952
0.0726834
0.072006
0.0711743
0.0702007
0.0690993
0.0678853
0.066575
0.0651851
0.0637326
0.0622336
0.0607031
0.059164
0.0576354
0.0560064
0.0541744
0.0154785
0.0132101
0.0112633
0.00950591
0.0077887
0.00612779
0.00454291
0.00304354
0.00163986
0.000343178
-0.000835306
-0.00188492
-0.00279566
-0.00355845
-0.00416513
-0.00460881
-0.00488374
-0.00498533
-0.00491023
-0.0046563
-0.00422259
-0.0036093
-0.00281774
-0.00185032
-0.00071047
0.000597395
0.00206791
0.00369482
0.00547099
0.00738851
0.00943866
0.011612
0.0138985
0.0162874
0.0187673
0.0213265
0.0239525
0.0266325
0.0293533
0.0321014
0.0348629
0.0376239
0.0403702
0.0430877
0.045762
0.0483792
0.0509254
0.0533869
0.0557504
0.0580031
0.0601326
0.0621274
0.0639765
0.0656701
0.067199
0.0685553
0.069732
0.0707238
0.0715262
0.0721365
0.0725533
0.0727769
0.0728089
0.0726528
0.0723135
0.0717976
0.0711133
0.0702701
0.069279
0.0681519
0.066902
0.0655432
0.0640895
0.0625553
0.0609535
0.0592961
0.0576044
0.055896
0.0540341
0.0518958
0.0176113
0.0150351
0.0128513
0.0109086
0.00903234
0.00723744
0.00554252
0.00395414
0.00247957
0.00112747
-9.35309e-05
-0.00117507
-0.00210932
-0.0028891
-0.00350806
-0.00396081
-0.00424292
-0.00435096
-0.00428257
-0.00403641
-0.00361222
-0.00301071
-0.00223362
-0.00128365
-0.000164442
0.00111947
0.00256271
0.00415904
0.00590145
0.00778218
0.00979271
0.0119239
0.0141658
0.0165082
0.01894
0.0214496
0.024025
0.0266538
0.0293232
0.03202
0.0347307
0.0374416
0.040139
0.042809
0.0454377
0.0480113
0.0505161
0.0529388
0.0552662
0.0574856
0.0595849
0.0615525
0.0633776
0.0650501
0.066561
0.0679021
0.0690664
0.0700481
0.0708425
0.0714465
0.0718582
0.072077
0.0721042
0.0719422
0.0715951
0.0710683
0.0703687
0.0695045
0.0684849
0.0673204
0.0660221
0.0646018
0.0630714
0.0614429
0.0597267
0.0579323
0.0560801
0.0541869
0.0520919
0.0496533
0.0196454
0.0167688
0.0143505
0.0122205
0.0101808
0.00824537
0.00643241
0.00474604
0.00319108
0.00177387
0.000500852
-0.000621682
-0.00158786
-0.00239223
-0.00303013
-0.00349756
-0.00379135
-0.00390921
-0.00384974
-0.00361241
-0.00319763
-0.00260666
-0.00184171
-0.000905802
0.000197174
0.00146253
0.00288481
0.00445778
0.00617447
0.00802721
0.0100076
0.0121068
0.0143151
0.0166223
0.0190177
0.02149
0.0240276
0.0266183
0.0292495
0.0319084
0.0345818
0.0372564
0.0399185
0.0425546
0.0451511
0.0476943
0.0501708
0.0525673
0.0548708
0.0570686
0.0591487
0.0610996
0.0629103
0.0645706
0.0660715
0.0674044
0.0685622
0.0695386
0.0703287
0.0709288
0.0713364
0.0715503
0.0715711
0.0714003
0.0710411
0.0704978
0.0697762
0.068883
0.0678262
0.0666146
0.0652576
0.0637652
0.0621476
0.0604147
0.058575
0.0566358
0.0546176
0.0525367
0.0502097
0.0474773
0.0215521
0.0183828
0.0157329
0.0134152
0.0112092
0.0091288
0.00719188
0.00540065
0.00375787
0.00226788
0.000935263
-0.000235565
-0.00124043
-0.00207557
-0.00273775
-0.0032243
-0.00353327
-0.00366347
-0.00361439
-0.00338632
-0.00298033
-0.00239826
-0.0016428
-0.000717332
0.000373991
0.0016263
0.00303399
0.00459078
0.00628971
0.00812316
0.0100829
0.01216
0.0143452
0.0166284
0.018999
0.0214462
0.0239583
0.0265235
0.0291296
0.0317638
0.0344132
0.0370647
0.039705
0.0423207
0.0448982
0.047424
0.049885
0.0522677
0.0545593
0.0567472
0.0588192
0.0607637
0.0625697
0.0642269
0.0657258
0.0670578
0.0682153
0.0691918
0.0699817
0.0705808
0.0709861
0.0711958
0.0712096
0.0710282
0.0706538
0.0700898
0.0693408
0.0684124
0.0673111
0.0660445
0.0646205
0.0630476
0.0613342
0.059489
0.0575186
0.055429
0.0532408
0.0509705
0.0484134
0.0453934
0.0233066
0.0198516
0.0169736
0.0144684
0.0120947
0.00986627
0.00780114
0.00589989
0.00416356
0.00259487
0.00119671
-2.81496e-05
-0.00107707
-0.00194777
-0.00263834
-0.00314738
-0.00347409
-0.00361827
-0.00358033
-0.00336131
-0.00296297
-0.00238775
-0.00163877
-0.000719828
0.00036463
0.00160951
0.00300906
0.0045569
0.00624601
0.00806882
0.0100171
0.0120822
0.0142547
0.0165248
0.0188821
0.0213159
0.0238147
0.026367
0.0289606
0.031583
0.0342216
0.0368633
0.0394949
0.0421032
0.0446748
0.0471962
0.0496542
0.0520355
0.0543273
0.0565168
0.0585918
0.0605405
0.0623517
0.0640149
0.0655203
0.0668589
0.0680228
0.069005
0.0697994
0.0704012
0.0708067
0.0710136
0.0710206
0.0708278
0.0704363
0.0698487
0.0690684
0.0680999
0.0669486
0.0656207
0.064123
0.0624627
0.060647
0.0586831
0.0565765
0.0543321
0.051971
0.0495103
0.0467251
0.0434231
0.0248867
0.0211524
0.0180496
0.015358
0.0128158
0.0104374
0.00824112
0.00622611
0.004392
0.00274011
0.00127187
-1.13826e-05
-0.00110843
-0.00201827
-0.00274023
-0.00327412
-0.00362021
-0.00377922
-0.00375242
-0.00354163
-0.00314928
-0.00257838
-0.00183252
-0.000915897
0.000166723
0.00140998
0.00280795
0.00435413
0.00604142
0.00786223
0.00980839
0.0118712
0.0140414
0.0163092
0.0186645
0.0210966
0.0235942
0.0261458
0.0287395
0.031363
0.0340035
0.0366484
0.0392844
0.0418983
0.0444769
0.0470067
0.0494743
0.0518666
0.0541705
0.0563733
0.0584624
0.060426
0.0622525
0.0639311
0.0654517
0.0668049
0.0679823
0.0689763
0.0697805
0.0703893
0.0707984
0.0710048
0.0710063
0.0708022
0.0703929
0.0697798
0.0689654
0.0679533
0.0667478
0.0653539
0.0637774
0.0620243
0.0601009
0.0580134
0.0557663
0.0533638
0.0508277
0.048176
0.0451644
0.0415851
0.0262726
0.0222645
0.01894
0.0160632
0.0133526
0.010823
0.00849349
0.00636209
0.00442716
0.00268879
0.00114715
-0.000197671
-0.00134572
-0.00229717
-0.00305254
-0.00361273
-0.00397895
-0.00415285
-0.00413653
-0.00393254
-0.00354398
-0.0029744
-0.0022279
-0.00130907
-0.000223012
0.00102465
0.00242776
0.00397967
0.00567321
0.0075007
0.00945395
0.0115243
0.0137024
0.0159788
0.0183433
0.0207851
0.0232934
0.0258566
0.0284629
0.0311
0.0337554
0.0364162
0.0390696
0.0417021
0.0443006
0.0468515
0.0493414
0.051757
0.0540852
0.0563129
0.0584276
0.0604168
0.0622689
0.0639726
0.0655175
0.0668936
0.0680921
0.0691048
0.0699247
0.0705455
0.0709623
0.0711712
0.0711694
0.0709553
0.0705283
0.0698891
0.0690391
0.0679811
0.0667183
0.0652549
0.0635957
0.0617457
0.0597106
0.0574956
0.0551047
0.0525414
0.0498286
0.0469855
0.0437489
0.0398956
0.0274463
0.0231689
0.0196254
0.0165646
0.0136858
0.0110045
0.00854053
0.00629099
0.00425316
0.00242604
0.000808746
-0.000599774
-0.00180067
-0.00279526
-0.00358513
-0.00417215
-0.00455845
-0.00474657
-0.00473939
-0.0045402
-0.00415269
-0.00358099
-0.00282967
-0.00190375
-0.00080869
0.000449618
0.00186479
0.00342999
0.00513793
0.00698084
0.00895047
0.0110381
0.0132345
0.0155302
0.0179149
0.0203781
0.0229089
0.0254958
0.028127
0.0307903
0.0334732
0.036163
0.0388465
0.0415106
0.0441418
0.0467266
0.0492515
0.0517029
0.0540676
0.0563322
0.0584838
0.0605099
0.0623982
0.0641372
0.0657158
0.0671237
0.0683514
0.0693902
0.0702323
0.0708709
0.0713002
0.0715156
0.0715135
0.0712915
0.0708482
0.0701832
0.0692973
0.0681921
0.0668702
0.065335
0.0635903
0.0616405
0.0594905
0.0571451
0.0546076
0.0518812
0.0489903
0.0459552
0.0424942
0.0383694
0.0283907
0.0238477
0.0200875
0.0168438
0.0137972
0.0109641
0.00836495
0.00599621
0.00385417
0.00193694
0.000242648
-0.00123078
-0.0024855
-0.00352389
-0.00434849
-0.00496207
-0.00536766
-0.00556864
-0.00556863
-0.00537161
-0.00498188
-0.00440414
-0.00364344
-0.0027052
-0.00159525
-0.000319782
0.00111458
0.0027008
0.00443143
0.0062986
0.00829395
0.0104087
0.0126338
0.0149594
0.0173755
0.0198716
0.0224367
0.0250593
0.0277277
0.0304298
0.0331529
0.0358844
0.0386111
0.0413196
0.0439965
0.0466281
0.0492007
0.0517006
0.0541141
0.0564278
0.0586282
0.0607025
0.0626381
0.0644228
0.0660452
0.0674942
0.0687599
0.0698327
0.0707044
0.0713672
0.0718147
0.0720415
0.0720431
0.0718163
0.0713588
0.0706694
0.0697481
0.0685958
0.0672141
0.0656056
0.0637736
0.0617219
0.0594547
0.0569765
0.0542902
0.051399
0.0483284
0.0451005
0.0414151
0.0370196
0.0290898
0.0242839
0.0203087
0.0168831
0.0136692
0.0106844
0.0079498
0.00546133
0.00321444
0.00120645
-0.000565424
-0.00210417
-0.00341291
-0.00449495
-0.00535371
-0.00599283
-0.00641623
-0.00662803
-0.0066326
-0.00643456
-0.00603884
-0.00545065
-0.00467556
-0.0037194
-0.00258835
-0.00128893
0.000171985
0.00178715
0.00354894
0.00544932
0.00747987
0.00963176
0.0118957
0.0142621
0.0167208
0.0192612
0.0218723
0.0245428
0.0272608
0.0300142
0.0327903
0.0355763
0.0383591
0.0411251
0.0438608
0.0465522
0.0491854
0.0517466
0.0542216
0.0565967
0.0588581
0.0609924
0.0629867
0.0648281
0.0665047
0.0680048
0.0693178
0.0704334
0.0713426
0.0720369
0.0725091
0.0727529
0.0727631
0.0725355
0.072067
0.0713557
0.0704006
0.069202
0.0677607
0.0660786
0.0641584
0.0620033
0.0596172
0.0570044
0.0541676
0.0511096
0.047858
0.044436
0.0405254
0.035859
0.029528
0.024461
0.0202721
0.0166653
0.0132846
0.0101482
0.00727824
0.00466997
0.00231814
0.000219344
-0.00163004
-0.00323383
-0.00459607
-0.00572086
-0.00661249
-0.00727547
-0.00771451
-0.00793447
-0.0079404
-0.00773759
-0.00733156
-0.00672808
-0.00593316
-0.00495307
-0.00379437
-0.0024639
-0.000968793
0.000683466
0.00248505
0.00442778
0.00650312
0.00870214
0.0110155
0.0134335
0.0159459
0.0185421
0.0212112
0.0239416
0.0267216
0.0295388
0.0323807
0.0352342
0.0380861
0.0409228
0.0437304
0.0464948
0.0492018
0.0518372
0.0543867
0.0568359
0.0591708
0.0613774
0.0634422
0.0653519
0.0670938
0.0686556
0.0700258
0.0711937
0.0721491
0.072883
0.0733873
0.0736547
0.0736791
0.0734557
0.0729804
0.0722505
0.0712643
0.0700211
0.0685213
0.066766
0.0647574
0.0624983
0.0599923
0.0572435
0.0542545
0.0510282
0.0475937
0.0439759
0.0398386
0.0348995
0.0296901
0.0243629
0.0199609
0.0161734
0.0126263
0.0093386
0.00633353
0.00360574
0.00114934
-0.00103982
-0.00296607
-0.00463404
-0.00604855
-0.00721453
-0.00813711
-0.00882161
-0.00927348
-0.0094983
-0.0095018
-0.00928992
-0.00886876
-0.00824462
-0.007424
-0.0064136
-0.00522034
-0.00385139
-0.00231418
-0.000616436
0.00123381
0.00322821
0.00535809
0.00761439
0.00998769
0.0124682
0.0150456
0.0177093
0.0204482
0.0232508
0.0261051
0.0289989
0.0319194
0.0348535
0.0377877
0.0407082
0.0436011
0.0464518
0.049246
0.0519691
0.0546062
0.0571427
0.059564
0.0618556
0.0640034
0.0659934
0.0678122
0.0694469
0.0708852
0.0721154
0.0731267
0.0739091
0.0744536
0.0747521
0.0747976
0.0745842
0.0741073
0.0733631
0.0723491
0.0710641
0.0695077
0.0676804
0.0655839
0.0632208
0.0605943
0.0577084
0.0545657
0.0511694
0.04755
0.0437344
0.0393679
0.0341534
0.0295609
0.0239735
0.0193585
0.0153907
0.0116773
0.00823863
0.00509885
0.0022521
-0.000308198
-0.00258682
-0.00458877
-0.00631944
-0.00778441
-0.00898942
-0.00994042
-0.0106435
-0.0111047
-0.0113305
-0.0113272
-0.0111014
-0.0106598
-0.0100092
-0.00915652
-0.00810899
-0.00687388
-0.0054587
-0.00387117
-0.00211929
-0.000211297
0.0018443
0.00403863
0.00636253
0.00880647
0.0113605
0.0140143
0.0167572
0.0195779
0.0224649
0.0254062
0.0283893
0.0314013
0.0344291
0.0374589
0.0404769
0.0434685
0.0464193
0.0493143
0.0521386
0.054877
0.0575144
0.0600354
0.0624252
0.0646689
0.0667519
0.06866
0.0703796
0.0718974
0.073201
0.0742786
0.0751193
0.0757131
0.076051
0.0761252
0.0759289
0.0754563
0.0747031
0.0736658
0.0723426
0.0707322
0.0688349
0.0666518
0.0641851
0.0614379
0.0584142
0.0551166
0.0515483
0.0477419
0.0437258
0.0391269
0.0336326
0.029125
0.0232767
0.0184484
0.0143
0.0104205
0.00683119
0.0035572
0.000592224
-0.00207097
-0.00443773
-0.00651374
-0.00830512
-0.00981819
-0.0110595
-0.0120358
-0.0127538
-0.0132204
-0.0134427
-0.0134276
-0.0131825
-0.0127146
-0.0120312
-0.0111397
-0.0100478
-0.00876321
-0.00729369
-0.00564732
-0.00383236
-0.00185725
0.000269267
0.00253819
0.00494017
0.00746558
0.0101044
0.0128461
0.0156799
0.0185946
0.0215784
0.0246192
0.0277045
0.0308213
0.0339561
0.0370951
0.040224
0.0433282
0.0463929
0.0494028
0.0523423
0.0551961
0.0579481
0.0605829
0.0630846
0.0654378
0.0676272
0.0696377
0.0714548
0.0730644
0.0744531
0.0756083
0.076518
0.0771712
0.0775581
0.0776696
0.0774981
0.077037
0.0762809
0.0752257
0.0738686
0.0722079
0.0702432
0.0679753
0.065406
0.0625384
0.0593764
0.0559226
0.0521804
0.0481843
0.0439647
0.0391292
0.03335
0.0283669
0.0222562
0.0172137
0.0128842
0.00883863
0.00509886
0.00169125
-0.00139104
-0.00415581
-0.00660901
-0.00875702
-0.0106066
-0.012165
-0.0134393
-0.0144371
-0.0151659
-0.0156332
-0.0158469
-0.0158147
-0.0155443
-0.0150437
-0.0143206
-0.0133832
-0.0122393
-0.010897
-0.00936471
-0.00765064
-0.00576334
-0.0037115
-0.00150407
0.00084977
0.00334053
0.0059584
0.00869324
0.0115345
0.0144712
0.0174921
0.0205852
0.0237384
0.026939
0.0301737
0.033429
0.0366909
0.0399447
0.0431757
0.0463684
0.0495074
0.0525767
0.0555601
0.0584414
0.0612043
0.0638323
0.0663093
0.068619
0.0707457
0.0726738
0.0743884
0.075875
0.07712
0.0781103
0.0788341
0.0792802
0.0794388
0.079301
0.0788594
0.0781076
0.0770407
0.075655
0.0739484
0.0719198
0.0695696
0.0668993
0.0639118
0.0606111
0.0569998
0.0530817
0.0488931
0.0444662
0.0393893
0.0333187
0.0272703
0.0208951
0.015637
0.0111259
0.00691382
0.00302379
-0.000516786
-0.00371526
-0.00658004
-0.00911768
-0.0113352
-0.0132402
-0.0148404
-0.0161439
-0.0171589
-0.0178937
-0.0183566
-0.0185561
-0.0185005
-0.0181984
-0.0176582
-0.0168882
-0.0158969
-0.0146929
-0.0132846
-0.0116806
-0.00988958
-0.00792036
-0.00578188
-0.00348329
-0.00103397
0.00155644
0.00427799
0.00712039
0.010073
0.0131247
0.0162641
0.0194793
0.0227578
0.0260868
0.029453
0.0328425
0.0362411
0.039634
0.043006
0.0463414
0.0496242
0.0528379
0.055966
0.0589916
0.0618976
0.0646669
0.0672825
0.0697274
0.0719848
0.0740383
0.0758718
0.07747
0.078818
0.0799018
0.0807082
0.081225
0.0814413
0.0813472
0.0809341
0.0801948
0.0791235
0.0777156
0.0759682
0.0738799
0.0714504
0.0686811
0.0655747
0.0621352
0.0583653
0.054269
0.0498847
0.0452465
0.0399226
0.0335528
0.0258187
0.0191762
0.0137007
0.00900683
0.00462787
0.000587725
-0.00308512
-0.00639851
-0.00936149
-0.0119812
-0.0142654
-0.0162223
-0.0178606
-0.0191888
-0.0202161
-0.0209516
-0.0214043
-0.0215833
-0.0214978
-0.0211569
-0.0205695
-0.0197447
-0.0186914
-0.0174187
-0.0159354
-0.0142504
-0.0123729
-0.0103119
-0.00807654
-0.00567627
-0.00312065
-0.000419481
0.00241713
0.00537877
0.00845468
0.0116337
0.0149042
0.0182541
0.021671
0.0251419
0.0286531
0.0321908
0.0357404
0.0392868
0.0428144
0.0463073
0.049749
0.0531225
0.0564106
0.0595959
0.0626606
0.0655868
0.0683566
0.0709522
0.0733558
0.07555
0.0775175
0.079242
0.0807072
0.0818982
0.0828004
0.0834006
0.0836865
0.0836472
0.0832728
0.0825552
0.0814876
0.0800647
0.0782827
0.0761395
0.0736345
0.0707688
0.0675448
0.0639666
0.060037
0.0557602
0.0511767
0.0463225
0.0407451
0.0340674
0.0239948
0.0170814
0.0113863
0.00650839
0.00196191
-0.00222826
-0.00603263
-0.00945954
-0.0125187
-0.0152179
-0.0175655
-0.0195705
-0.0212423
-0.0225903
-0.0236245
-0.0243547
-0.0247908
-0.0249425
-0.0248198
-0.0244323
-0.0237898
-0.0229017
-0.0217777
-0.0204272
-0.0188594
-0.0170839
-0.0151098
-0.0129467
-0.0106039
-0.00809117
-0.00541816
-0.00259489
0.000368404
0.00346118
0.00667256
0.00999125
0.0134055
0.0169033
0.0204718
0.024098
0.0277682
0.0314682
0.0351831
0.0388976
0.0425959
0.0462615
0.0498775
0.0534265
0.0568905
0.0602516
0.0634912
0.0665907
0.0695312
0.0722939
0.07486
0.0772109
0.0793285
0.0811949
0.0827928
0.0841058
0.0851183
0.0858156
0.0861841
0.0862118
0.0858875
0.085202
0.0841475
0.0827177
0.080908
0.0787158
0.0761398
0.0731807
0.0698409
0.0661244
0.062034
0.0575743
0.0527878
0.0477126
0.0418745
0.0348791
0.0217805
0.0145921
0.00867459
0.00361115
-0.0011036
-0.00544381
-0.0093789
-0.0129178
-0.0160708
-0.0188465
-0.0212538
-0.0233025
-0.0250029
-0.0263653
-0.0274003
-0.0281187
-0.028531
-0.0286479
-0.02848
-0.0280377
-0.0273314
-0.0263711
-0.025167
-0.023729
-0.022067
-0.0201906
-0.0181096
-0.0158337
-0.0133727
-0.0107363
-0.00793453
-0.00497755
-0.00187572
0.00136029
0.00471947
0.00819044
0.0117614
0.0154201
0.0191537
0.022949
0.0267921
0.0306687
0.0345636
0.0384613
0.0423455
0.0461994
0.0500055
0.0537461
0.0574025
0.0609561
0.0643875
0.0676772
0.0708055
0.0737525
0.0764984
0.0790233
0.0813079
0.0833331
0.0850802
0.0865315
0.0876698
0.0884791
0.0889447
0.0890527
0.0887912
0.0881494
0.0871184
0.0856909
0.0838616
0.0816269
0.078985
0.0759363
0.0724828
0.0686287
0.0643766
0.0597315
0.054738
0.0494361
0.0433295
0.0360056
0.0191568
0.0116888
0.00554572
0.000294897
-0.00458906
-0.00907936
-0.0131443
-0.0167935
-0.0200378
-0.0228865
-0.0253494
-0.0274371
-0.0291606
-0.0305312
-0.0315603
-0.0322596
-0.0326404
-0.0327144
-0.0324927
-0.0319866
-0.0312071
-0.030165
-0.0288709
-0.0273353
-0.0255685
-0.0235807
-0.0213819
-0.0189822
-0.0163915
-0.0136201
-0.0106779
-0.0075753
-0.00432284
-0.000931294
0.00258822
0.00622424
0.00996489
0.0137978
0.0177101
0.0216884
0.0257187
0.0297864
0.0338762
0.0379722
0.0420579
0.046116
0.0501287
0.0540774
0.0579432
0.0617065
0.0653472
0.0688449
0.072179
0.0753285
0.0782723
0.0809895
0.0834593
0.0856612
0.0875753
0.0891821
0.0904632
0.091401
0.0919792
0.0921826
0.0919976
0.0914123
0.0904165
0.0890019
0.0871619
0.0848922
0.0821905
0.0790565
0.0754921
0.0715013
0.0670869
0.0622538
0.057049
0.0515144
0.0451307
0.0374663
0.0161038
0.00835085
0.00197875
-0.0034616
-0.00851588
-0.0131563
-0.0173503
-0.0211077
-0.0244405
-0.0273585
-0.0298724
-0.0319936
-0.0337342
-0.0351062
-0.036122
-0.0367942
-0.0371351
-0.0371571
-0.0368723
-0.0362927
-0.0354301
-0.0342958
-0.0329011
-0.0312572
-0.0293746
-0.0272642
-0.0249362
-0.0224012
-0.0196693
-0.0167509
-0.0136563
-0.0103959
-0.00698051
-0.00342091
0.00027167
0.0040857
0.00800924
0.0120298
0.0161346
0.0203099
0.0245418
0.0288153
0.0331151
0.0374249
0.041728
0.0460066
0.0502424
0.0544165
0.058509
0.0624999
0.0663681
0.0700925
0.0736511
0.0770221
0.0801831
0.0831118
0.0857861
0.0881841
0.0902842
0.0920654
0.0935076
0.0945916
0.0952995
0.0956144
0.0955214
0.0950069
0.0940593
0.0926691
0.0908286
0.0885326
0.085778
0.0825638
0.0788918
0.0747657
0.0701883
0.0651646
0.0597439
0.0539703
0.0473002
0.0392824
0.0126006
0.00455675
-0.0020484
-0.00768063
-0.0129065
-0.0176972
-0.022019
-0.0258826
-0.0293007
-0.0322839
-0.0348437
-0.0369925
-0.0387432
-0.0401091
-0.0411035
-0.0417399
-0.0420316
-0.0419919
-0.0416339
-0.0409703
-0.0400137
-0.0387761
-0.0372697
-0.0355058
-0.033496
-0.0312511
-0.0287822
-0.0260998
-0.0232146
-0.020137
-0.0168776
-0.0134471
-0.00985615
-0.00611576
-0.00223719
0.00176798
0.00588776
0.0101097
0.0144207
0.0188073
0.0232552
0.0277495
0.0322746
0.036814
0.0413506
0.0458662
0.0503423
0.0547592
0.0590966
0.0633335
0.0674482
0.0714184
0.0752213
0.0788337
0.0822322
0.0853929
0.0882923
0.0909068
0.0932132
0.095189
0.0968121
0.0980617
0.098918
0.0993624
0.0993781
0.0989501
0.0980652
0.0967124
0.0948828
0.0925702
0.0897706
0.0864823
0.0827066
0.078447
0.0737062
0.0684895
0.0628482
0.0568288
0.0498622
0.0414772
0.00862502
0.000283708
-0.00655894
-0.0123857
-0.0177845
-0.0227256
-0.0271741
-0.0311416
-0.0346413
-0.037685
-0.040285
-0.0424548
-0.0442083
-0.0455597
-0.0465237
-0.0471146
-0.0473469
-0.0472349
-0.0467926
-0.0460336
-0.0449714
-0.0436188
-0.0419884
-0.0400926
-0.0379431
-0.0355515
-0.0329291
-0.0300869
-0.0270358
-0.0237865
-0.0203497
-0.0167362
-0.0129569
-0.00902277
-0.0049451
-0.000735512
0.003594
0.00803096
0.0125623
0.0171745
0.0218532
0.0265833
0.0313491
0.036134
0.0409204
0.0456902
0.0504239
0.0551016
0.0597023
0.0642043
0.068585
0.0728212
0.0768889
0.0807638
0.084421
0.0878353
0.0909816
0.0938345
0.0963693
0.0985613
0.100387
0.101823
0.102848
0.103441
0.103584
0.10326
0.102454
0.101153
0.0993472
0.097029
0.0941933
0.0908378
0.0869631
0.0825724
0.0776683
0.0722559
0.0663894
0.060117
0.0528433
0.0440759
0.00415372
-0.00449238
-0.0115774
-0.0176016
-0.0231749
-0.0282665
-0.0328405
-0.036909
-0.0404866
-0.0435855
-0.0462194
-0.0484027
-0.0501506
-0.0514784
-0.0524019
-0.0529368
-0.0530986
-0.0529026
-0.052364
-0.0514973
-0.0503169
-0.0488364
-0.0470694
-0.0450286
-0.0427264
-0.0401751
-0.0373862
-0.0343712
-0.0311411
-0.027707
-0.0240798
-0.0202703
-0.0162895
-0.0121484
-0.00785839
-0.00343094
0.00112193
0.00578776
0.0105536
0.0154057
0.0203299
0.025311
0.0303332
0.0353796
0.0404326
0.0454736
0.0504827
0.0554396
0.0603227
0.0651094
0.0697764
0.0742994
0.0786534
0.0828127
0.0867511
0.0904419
0.0938581
0.0969729
0.0997593
0.102191
0.104242
0.105887
0.107103
0.107866
0.108157
0.107956
0.107246
0.106013
0.104246
0.101934
0.099073
0.0956582
0.09169
0.0871713
0.0821042
0.076494
0.0703971
0.0638642
0.0562722
0.0471065
-0.000838055
-0.00979699
-0.0171299
-0.0233547
-0.0291042
-0.0343464
-0.0390443
-0.043211
-0.0468618
-0.0500102
-0.0526708
-0.0548594
-0.0565923
-0.0578863
-0.0587584
-0.0592255
-0.0593045
-0.0590118
-0.0583637
-0.057376
-0.0560637
-0.0544418
-0.0525242
-0.0503246
-0.047856
-0.0451311
-0.042162
-0.0389605
-0.035538
-0.0319057
-0.0280747
-0.0240558
-0.0198602
-0.0154988
-0.0109828
-0.00632397
-0.00153403
0.0033746
0.008389
0.0134956
0.0186801
0.0239275
0.0292218
0.034546
0.0398823
0.0452119
0.0505146
0.0557694
0.0609543
0.066046
0.0710201
0.0758516
0.0805143
0.084981
0.0892241
0.0932154
0.0969261
0.100328
0.103391
0.106087
0.108388
0.110267
0.111698
0.112655
0.113115
0.113058
0.112465
0.111318
0.109605
0.107314
0.104439
0.100974
0.0969186
0.0922756
0.0870464
0.0812363
0.0749041
0.0681029
0.0601805
0.0505992
-0.00637655
-0.0156572
-0.0232439
-0.0296731
-0.0356005
-0.0409933
-0.0458135
-0.0500748
-0.0537938
-0.0569851
-0.0596645