/*--------------------------------*- C++ -*----------------------------------*\
  =========                 |
  \\      /  F ield         | OpenFOAM: The Open Source CFD Toolbox
   \\    /   O peration     | Website:  https://openfoam.org
    \\  /    A nd           | Version:  7
     \\/     M anipulation  |
\*---------------------------------------------------------------------------*/
FoamFile
{
    version     2.0;
    format      ascii;
    class       volScalarField;
    location    "4";
    object      p;
}
// * * * * * * * * * * * * * * * * * * * * * * * * * * * * * * * * * * * * * //

dimensions      [1 -1 -2 0 0 0 0];

internalField   nonuniform List<scalar> 
252
(
1
1
1.8726
8.59645
10.9229
11.4308
1
1
1.60405
7.98281
10.5706
11.3262
1
1
1.09111
6.55554
9.20082
7.98338
1
1
1.00181
4.14567
7.90617
7.18948
1
1
0.999986
1.72604
6.31937
7.09258
1
1
0.999997
1.05718
3.70041
6.85847
1
1
0.999999
1.00036
1.52723
5.0781
1
1
1
1
1.0234
2.56862
1
1
1
1
1.00017
1.19896
1
1
1
1
1
1.00579
2.59931
1.21362
0.839514
0.895775
0.954815
1.04411
2.10607
5.23267
5.77538
5.64118
5.52667
5.27028
4.90603
4.44164
4.12134
3.89953
3.70281
3.51979
3.33379
3.14516
2.9431
2.74847
2.57888
2.33744
3.95574
2.50968
1.89387
1.57509
1.35501
1.32525
1.81045
4.72092
5.83002
5.62614
5.35537
5.02338
4.65336
4.29218
4.08302
3.88431
3.68506
3.49547
3.29453
3.10023
2.89901
2.71649
2.55531
2.3398
4.78638
3.30364
2.54083
1.88846
1.55071
1.70079
2.37828
3.65628
4.91363
5.30241
5.25379
4.97927
4.66913
4.41455
4.17526
3.89213
3.65173
3.42436
3.20157
3.00226
2.81132
2.64574
2.52121
2.38425
5.26579
4.00192
2.96834
2.27895
2.36176
3.15753
3.7881
3.56905
3.66763
3.965
4.25429
4.38453
4.49956
4.41242
4.12
3.788
3.53304
3.28381
3.08464
2.90402
2.75113
2.62163
2.55397
2.54874
5.55598
4.60135
3.39297
3.38012
4.30304
4.89503
4.53343
3.87998
3.39734
3.18207
3.22202
3.44907
3.75263
3.87095
3.8027
3.70594
3.49003
3.26282
3.05383
2.87324
2.76586
2.71328
2.74054
2.87152
4.8585
4.63315
4.77212
6.21984
6.79834
6.13832
5.14813
4.29882
3.59964
3.12464
2.88163
2.74297
2.8446
3.04998
3.22908
3.33716
3.31713
3.20129
3.0619
2.94386
2.92301
2.97631
3.1201
3.316
2.99487
4.27593
8.42177
9.07572
7.65341
6.42531
5.38316
4.55981
3.8724
3.30325
2.87086
2.56599
2.36934
2.31688
2.41621
2.64936
2.88556
2.98455
3.11695
3.28754
3.40753
3.53606
3.6622
3.63239
1.38452
4.87257
12.7597
11.8415
8.83075
6.86287
5.6
4.71844
4.02739
3.45617
2.98455
2.55948
2.22717
2.01517
1.93485
2.02277
2.31042
2.82339
3.31147
3.70152
4.04468
4.29637
4.27983
4.07612
)
;

boundaryField
{
    inlet
    {
        type            fixedValue;
        value           uniform 1;
    }
    outlet
    {
        type            zeroGradient;
    }
    bottom
    {
        type            symmetryPlane;
    }
    top
    {
        type            symmetryPlane;
    }
    obstacle
    {
        type            zeroGradient;
    }
    defaultFaces
    {
        type            empty;
    }
}


// ************************************************************************* //
