/*--------------------------------*- C++ -*----------------------------------*\
  =========                 |
  \\      /  F ield         | OpenFOAM: The Open Source CFD Toolbox
   \\    /   O peration     | Website:  https://openfoam.org
    \\  /    A nd           | Version:  9
     \\/     M anipulation  |
\*---------------------------------------------------------------------------*/
FoamFile
{
    format      ascii;
    class       volVectorField;
    location    "4";
    object      U;
}
// * * * * * * * * * * * * * * * * * * * * * * * * * * * * * * * * * * * * * //

dimensions      [0 1 -1 0 0 0 0];

internalField   nonuniform List<vector> 
252
(
(3 8.38319e-16 0)
(3 -1.5408e-14 0)
(2.59859 0.0309658 0)
(0.809896 0.0621762 0)
(0.475095 0.0733248 0)
(0.277535 0.160962 0)
(3 9.96244e-15 0)
(3 -6.03642e-16 0)
(2.76084 0.129946 0)
(0.894926 0.285145 0)
(0.439866 0.326249 0)
(0.3078 0.572409 0)
(3 1.01585e-14 0)
(3 2.80961e-14 0)
(3.03007 0.0321381 0)
(1.20233 0.485748 0)
(0.698778 0.574459 0)
(0.769939 0.89438 0)
(3 2.14412e-15 0)
(3 1.81763e-14 0)
(3.00522 0.000207935 0)
(1.78086 0.593983 0)
(0.970946 0.756075 0)
(1.05296 0.806594 0)
(3 -4.13189e-15 0)
(3 -1.88299e-14 0)
(3.00004 1.28397e-07 0)
(2.87584 0.304241 0)
(1.3788 0.833584 0)
(1.27798 0.822492 0)
(3 1.88277e-14 0)
(3 -2.01319e-14 0)
(3 -1.91754e-06 0)
(3.04804 0.0155439 0)
(2.10916 0.686614 0)
(1.41205 0.873923 0)
(3 2.80373e-15 0)
(3 6.04517e-15 0)
(3 -4.0385e-07 0)
(3.00105 0.000594644 0)
(2.98481 0.196838 0)
(1.74276 0.854336 0)
(3 -3.81014e-14 0)
(3 5.32674e-15 0)
(3 -4.11423e-08 0)
(3 1.00941e-06 0)
(3.0148 0.0109274 0)
(2.51418 0.522314 0)
(3 1.45291e-14 0)
(3 2.94033e-14 0)
(3 -1.64072e-09 0)
(3 -1.42419e-09 0)
(3.00009 0.000174795 0)
(2.97904 0.08402 0)
(3 2.15393e-14 0)
(3 2.34231e-14 0)
(3 -1.23036e-11 0)
(3 -3.32871e-10 0)
(3 1.58532e-07 0)
(2.99962 0.00368652 0)
(1.65425 0.90559 0)
(2.16841 0.856247 0)
(2.36609 0.647358 0)
(2.38931 0.316638 0)
(2.43333 0.148436 0)
(2.4369 -0.0243277 0)
(1.88963 -0.0392229 0)
(0.925047 -0.0529443 0)
(0.92085 -0.0951802 0)
(1.06135 -0.115448 0)
(1.19846 -0.117884 0)
(1.33378 -0.0923722 0)
(1.46085 -0.062525 0)
(1.57783 -0.0315068 0)
(1.67054 -0.00778718 0)
(1.75043 0.00701742 0)
(1.8134 0.00982657 0)
(1.86989 0.00974944 0)
(1.92635 0.0113656 0)
(1.97835 0.0145028 0)
(2.02974 0.0186534 0)
(2.08023 0.0209863 0)
(2.12725 0.024023 0)
(2.20255 0.0260487 0)
(1.67428 0.684364 0)
(2.07894 0.432989 0)
(2.28421 0.151656 0)
(2.40124 -0.104379 0)
(2.4537 -0.143421 0)
(2.46227 -0.281597 0)
(2.24606 -0.339593 0)
(1.32308 -0.133759 0)
(1.22337 -0.0985829 0)
(1.32104 -0.105958 0)
(1.41435 -0.103231 0)
(1.50098 -0.0697293 0)
(1.58484 -0.0208965 0)
(1.66256 0.0279687 0)
(1.72785 0.0348656 0)
(1.7971 0.0385857 0)
(1.85898 0.0410995 0)
(1.91515 0.0403242 0)
(1.97057 0.0441922 0)
(2.02098 0.0492911 0)
(2.0718 0.0631235 0)
(2.1171 0.0701451 0)
(2.15757 0.084881 0)
(2.22282 0.0843815 0)
(1.68614 0.698917 0)
(1.96056 0.57399 0)
(2.17748 0.358717 0)
(2.34092 0.269813 0)
(2.39321 0.129941 0)
(2.32652 -0.029264 0)
(2.04969 -0.494256 0)
(1.81096 -0.569534 0)
(1.64612 -0.335976 0)
(1.61996 -0.175839 0)
(1.66961 -0.0886594 0)
(1.72769 -0.00829668 0)
(1.78777 -0.00388626 0)
(1.8327 -0.0134189 0)
(1.86532 -0.012646 0)
(1.91881 0.00387907 0)
(1.97029 0.0221062 0)
(2.01992 0.0433809 0)
(2.06652 0.0670059 0)
(2.10545 0.0833518 0)
(2.14512 0.108882 0)
(2.18109 0.11276 0)
(2.20278 0.133203 0)
(2.25266 0.1062 0)
(1.66274 0.812515 0)
(1.88466 0.692323 0)
(2.12454 0.518872 0)
(2.30401 0.484529 0)
(2.20608 0.170945 0)
(2.07253 -0.234659 0)
(1.94529 -0.541965 0)
(2.00074 -0.64428 0)
(1.9693 -0.569798 0)
(1.93528 -0.390126 0)
(1.90902 -0.208963 0)
(1.89853 -0.0747596 0)
(1.92335 0.0125939 0)
(1.93887 0.0788667 0)
(1.97688 0.125604 0)
(2.02752 0.123931 0)
(2.06476 0.121458 0)
(2.10864 0.134707 0)
(2.14268 0.160937 0)
(2.17357 0.169386 0)
(2.19938 0.184242 0)
(2.22638 0.187869 0)
(2.23322 0.168548 0)
(2.25863 0.111626 0)
(1.69721 0.858552 0)
(1.87393 0.755462 0)
(2.06291 0.735925 0)
(2.0544 0.422227 0)
(1.95969 -0.0313832 0)
(1.89014 -0.378827 0)
(1.91801 -0.501594 0)
(2.02577 -0.537796 0)
(2.12009 -0.528927 0)
(2.15661 -0.490514 0)
(2.14812 -0.369958 0)
(2.12335 -0.219729 0)
(2.10637 -0.0666037 0)
(2.0686 0.0585303 0)
(2.07903 0.125122 0)
(2.10192 0.17108 0)
(2.1441 0.192668 0)
(2.18457 0.207963 0)
(2.22112 0.209976 0)
(2.25186 0.203325 0)
(2.25258 0.199688 0)
(2.26854 0.171173 0)
(2.25483 0.120416 0)
(2.25111 0.0209685 0)
(1.85405 0.860713 0)
(1.86688 0.886201 0)
(1.86779 0.677697 0)
(1.72734 0.200625 0)
(1.74879 -0.103895 0)
(1.81014 -0.235129 0)
(1.91979 -0.295385 0)
(2.03194 -0.328349 0)
(2.14482 -0.368601 0)
(2.22753 -0.385396 0)
(2.25396 -0.373508 0)
(2.30534 -0.306457 0)
(2.31069 -0.193079 0)
(2.27639 -0.037733 0)
(2.24772 0.0904986 0)
(2.21633 0.191157 0)
(2.22063 0.261538 0)
(2.23568 0.283934 0)
(2.25567 0.290396 0)
(2.2692 0.272436 0)
(2.26315 0.218766 0)
(2.26336 0.159042 0)
(2.26004 0.0998769 0)
(2.25456 -0.00205983 0)
(2.38304 0.598416 0)
(2.10613 0.917582 0)
(1.44267 0.303946 0)
(1.42349 -0.0528964 0)
(1.58861 -0.167041 0)
(1.76245 -0.181408 0)
(1.91547 -0.187671 0)
(2.04148 -0.197778 0)
(2.15282 -0.215508 0)
(2.25424 -0.24158 0)
(2.32713 -0.24702 0)
(2.37528 -0.256676 0)
(2.43682 -0.208868 0)
(2.45803 -0.110845 0)
(2.46404 0.005056 0)
(2.41146 0.151079 0)
(2.37366 0.251261 0)
(2.34675 0.31297 0)
(2.30652 0.295939 0)
(2.2687 0.241293 0)
(2.24856 0.15001 0)
(2.22864 0.0415457 0)
(2.23906 -0.0437097 0)
(2.24245 -0.112651 0)
(2.87734 0.108166 0)
(2.043 0.543891 0)
(1.26626 0.280561 0)
(1.35496 0.145838 0)
(1.60858 0.00397817 0)
(1.80738 -0.0417416 0)
(1.96493 -0.0586052 0)
(2.08982 -0.0658029 0)
(2.19762 -0.0720304 0)
(2.29401 -0.0800386 0)
(2.38425 -0.0846201 0)
(2.4615 -0.108452 0)
(2.53313 -0.0778863 0)
(2.5551 -0.122288 0)
(2.58186 -0.0696198 0)
(2.55562 -0.0225029 0)
(2.48954 0.0616977 0)
(2.39516 0.127177 0)
(2.32798 0.141841 0)
(2.28759 0.143083 0)
(2.25119 0.142128 0)
(2.22141 0.105798 0)
(2.23897 0.057582 0)
(2.24889 0.0128347 0)
)
;

boundaryField
{
    inlet
    {
        type            fixedValue;
        value           uniform (3 0 0);
    }
    outlet
    {
        type            inletOutlet;
        inletValue      uniform (3 0 0);
        value           nonuniform List<vector> 8((2.20255 0.0260487 0) (2.22282 0.0843815 0) (2.25266 0.1062 0) (2.25863 0.111626 0) (2.25111 0.0209685 0) (2.25456 -0.00205983 0) (2.24245 -0.112651 0) (2.24889 0.0128347 0));
    }
    bottom
    {
        type            symmetryPlane;
    }
    top
    {
        type            symmetryPlane;
    }
    obstacle
    {
        type            slip;
    }
    defaultFaces
    {
        type            empty;
    }
}


// ************************************************************************* //
