/*--------------------------------*- C++ -*----------------------------------*\
  =========                 |
  \\      /  F ield         | OpenFOAM: The Open Source CFD Toolbox
   \\    /   O peration     | Website:  https://openfoam.org
    \\  /    A nd           | Version:  7
     \\/     M anipulation  |
\*---------------------------------------------------------------------------*/
FoamFile
{
    version     2.0;
    format      ascii;
    class       volScalarField;
    location    "3.7";
    object      rho;
}
// * * * * * * * * * * * * * * * * * * * * * * * * * * * * * * * * * * * * * //

dimensions      [1 -3 0 0 0 0 0];

internalField   nonuniform List<scalar> 
6300
(
1.40001
1.40001
1.40001
1.40001
1.40001
1.40001
1.40001
1.40001
1.40001
1.40001
1.40001
1.40001
1.40001
1.40001
1.40069
4.04542
5.44478
5.49028
5.54972
5.60834
5.66488
5.718
5.76686
5.81125
5.85159
5.88803
5.92035
5.94596
5.96518
5.97919
1.40001
1.40001
1.40001
1.40001
1.40001
1.40001
1.40001
1.40001
1.40001
1.40001
1.40001
1.40001
1.40001
1.40001
1.40007
3.98478
5.42818
5.48336
5.54293
5.60203
5.65821
5.71072
5.75876
5.80218
5.84142
5.87662
5.90768
5.93219
5.95031
5.96389
1.40001
1.40001
1.40001
1.40001
1.40001
1.40001
1.40001
1.40001
1.40001
1.40001
1.40001
1.40001
1.40001
1.40001
1.40001
3.86538
5.40931
5.46979
5.52932
5.58908
5.64512
5.69734
5.74499
5.78793
5.82654
5.8608
5.89049
5.91341
5.92957
5.94198
1.40001
1.40001
1.40001
1.40001
1.40001
1.40001
1.40001
1.40001
1.40001
1.40001
1.40001
1.40001
1.40001
1.40001
1.40001
3.69001
5.3818
5.45204
5.51025
5.57008
5.62511
5.67608
5.7224
5.7641
5.80158
5.83465
5.86292
5.88425
5.89854
5.9099
1.40001
1.40001
1.40001
1.40001
1.40001
1.40001
1.40001
1.40001
1.40001
1.40001
1.40001
1.40001
1.40001
1.40001
1.40001
3.45816
5.3418
5.43173
5.48794
5.54715
5.60058
5.64962
5.69373
5.73288
5.76747
5.7975
5.82308
5.84247
5.85503
5.86672
1.40001
1.40001
1.40001
1.40001
1.40001
1.40001
1.40001
1.40001
1.40001
1.40001
1.40001
1.40001
1.40001
1.40001
1.40001
3.17239
5.28172
5.41122
5.46448
5.52076
5.57074
5.61613
5.65669
5.6926
5.72464
5.75264
5.77591
5.79149
5.79826
5.80392
1.40001
1.40001
1.40001
1.40001
1.40001
1.40001
1.40001
1.40001
1.40001
1.40001
1.40001
1.40001
1.40001
1.40001
1.40001
2.83508
5.18447
5.39836
5.44594
5.49587
5.53921
5.57793
5.61231
5.64222
5.66782
5.68851
5.70315
5.71336
5.71658
5.72776
1.40001
1.40001
1.40001
1.40001
1.40001
1.40001
1.40001
1.40001
1.40001
1.40001
1.40001
1.40001
1.40001
1.40001
1.40001
2.46094
5.03659
5.41804
5.44251
5.48132
5.51565
5.54491
5.56911
5.5883
5.60332
5.61615
5.62455
5.62987
5.62124
5.60363
1.40001
1.40001
1.40001
1.40001
1.40001
1.40001
1.40001
1.40001
1.40001
1.40001
1.40001
1.40001
1.40001
1.40001
1.40001
2.05843
4.8177
5.43519
5.44086
5.47178
5.49476
5.5125
5.52447
5.53099
5.53266
5.53013
5.51403
5.4831
5.44612
5.42307
1.40001
1.40001
1.40001
1.40001
1.40001
1.40001
1.40001
1.40001
1.40001
1.40001
1.40001
1.40001
1.40001
1.40001
1.40001
1.6461
4.54978
5.47189
5.42462
5.45111
5.46791
5.47638
5.47643
5.46869
5.45317
5.42733
5.38695
5.33529
5.26343
5.21887
1.40001
1.40001
1.40001
1.40001
1.40001
1.40001
1.40001
1.40001
1.40001
1.40001
1.40001
1.40001
1.40001
1.40001
1.40001
1.41648
4.04133
5.34798
5.35814
5.40321
5.421
5.42799
5.41923
5.39868
5.36607
5.31667
5.24061
5.11831
4.78838
3.92018
1.40001
1.40001
1.40001
1.40001
1.40001
1.40001
1.40001
1.40001
1.40001
1.40001
1.40001
1.40001
1.40001
1.40001
1.40001
1.4
3.36796
5.17195
5.28871
5.34062
5.36042
5.3674
5.35314
5.32308
5.27382
5.19616
5.07861
4.87264
4.52639
3.59778
1.40001
1.40001
1.40001
1.40001
1.40001
1.40001
1.40001
1.40001
1.40001
1.40001
1.40001
1.40001
1.40001
1.40001
1.40001
1.4
2.68197
4.9745
5.26383
5.29579
5.30881
5.30649
5.28538
5.24653
5.18042
5.07759
4.92865
4.67909
4.30979
3.46415
1.40001
1.40001
1.40001
1.40001
1.40001
1.40001
1.40001
1.40001
1.40001
1.40001
1.40001
1.40001
1.40001
1.40001
1.40001
1.4
1.99504
4.7571
5.2779
5.25958
5.25779
5.24506
5.2152
5.16582
5.0874
4.967
4.79452
4.53885
4.13626
3.44825
1.40001
1.40001
1.40001
1.40001
1.40001
1.40001
1.40001
1.40001
1.40001
1.40001
1.40001
1.40001
1.40001
1.40001
1.40001
1.40001
1.48482
4.16861
5.28098
5.22527
5.20279
5.17775
5.1381
5.07865
4.99278
4.86523
4.68048
4.42608
4.02768
3.48739
1.40001
1.40001
1.40001
1.40001
1.40001
1.40001
1.40001
1.40001
1.40001
1.40001
1.40001
1.40001
1.40001
1.40001
1.40001
1.40001
1.40062
3.32266
5.08925
5.16194
5.14385
5.11191
5.06395
4.99424
4.90006
4.77084
4.58934
4.33738
3.9735
3.54122
1.40001
1.40001
1.40001
1.40001
1.40001
1.40001
1.40001
1.40001
1.40001
1.40001
1.40001
1.40001
1.40001
1.40001
1.40001
1.40001
1.4
2.33466
4.86836
5.16699
5.12475
5.08435
5.01879
4.93148
4.82297
4.68629
4.51043
4.26619
3.94931
3.59063
1.40001
1.40001
1.40001
1.40001
1.40001
1.40001
1.40001
1.40001
1.40001
1.40001
1.40001
1.40001
1.40001
1.40001
1.40001
1.40001
1.4
1.56595
4.33087
5.20308
5.11749
5.04679
4.9654
4.86888
4.7537
4.61713
4.4417
4.21271
3.9411
3.63902
1.40001
1.40001
1.40001
1.40001
1.40001
1.40001
1.40001
1.40001
1.40001
1.40001
1.40001
1.40001
1.40001
1.40001
1.40001
1.40001
1.4
1.40311
3.36686
4.99687
5.03657
4.99455
4.9152
4.81765
4.69961
4.56486
4.38783
4.17647
3.93744
3.67501
1.40001
1.40001
1.40001
1.40001
1.40001
1.40001
1.40001
1.40001
1.40001
1.40001
1.40001
1.40001
1.40001
1.40001
1.40001
1.40001
1.40001
1.39997
2.20629
4.79725
5.04875
4.9674
4.88558
4.7912
4.67396
4.53106
4.35817
4.16148
3.94238
3.70814
1.40001
1.40001
1.40001
1.40001
1.40001
1.40001
1.40001
1.40001
1.40001
1.40001
1.40001
1.40001
1.40001
1.40001
1.40001
1.40001
1.40001
1.4
1.50997
4.02303
4.97745
4.917
4.85272
4.76386
4.65088
4.50912
4.34125
4.15515
3.94958
3.73349
1.40001
1.40001
1.40001
1.40001
1.40001
1.40001
1.40001
1.40001
1.40001
1.40001
1.40001
1.40001
1.40001
1.40001
1.40001
1.40001
1.40001
1.4
1.40102
2.76096
4.77153
4.89249
4.84235
4.75962
4.64432
4.50218
4.33879
4.1593
3.9642
3.7626
1.40001
1.40001
1.40001
1.40001
1.40001
1.40001
1.40001
1.40001
1.40001
1.40001
1.40001
1.40001
1.40001
1.40001
1.40001
1.40001
1.40001
1.4
1.4
1.68254
4.27003
4.9422
4.85286
4.75975
4.63523
4.49276
4.33558
4.16508
3.98195
3.79434
1.40001
1.40001
1.40001
1.40001
1.40001
1.40001
1.40001
1.40001
1.40001
1.40001
1.40001
1.40001
1.40001
1.40001
1.40001
1.40001
1.40001
1.40001
1.4
1.40982
3.08399
4.77083
4.80876
4.73181
4.61691
4.48392
4.33418
4.17244
4.00219
3.8258
1.40001
1.40001
1.40001
1.40001
1.40001
1.40001
1.40001
1.40001
1.40001
1.40001
1.40001
1.40001
1.40001
1.40001
1.40001
1.40001
1.40001
1.40001
1.4
1.40001
1.81478
4.33105
4.86749
4.74463
4.62327
4.49044
4.34307
4.1872
4.02614
3.85864
1.40001
1.40001
1.40001
1.40001
1.40001
1.40001
1.40001
1.40001
1.40001
1.40001
1.40001
1.40001
1.40001
1.40001
1.40001
1.40001
1.40001
1.40001
1.40001
1.40001
1.42247
3.17207
4.73174
4.71252
4.6133
4.49028
4.34838
4.19915
4.04535
3.88784
1.40001
1.40001
1.40001
1.40001
1.40001
1.40001
1.40001
1.40001
1.40001
1.40001
1.40001
1.40001
1.40001
1.40001
1.40001
1.40001
1.40001
1.40001
1.40001
1.40001
1.40008
1.85492
4.23852
4.76055
4.63499
4.50623
4.36437
4.22085
4.07407
3.92479
1.40001
1.40001
1.40001
1.40001
1.40001
1.40001
1.40001
1.40001
1.40001
1.40001
1.40001
1.40001
1.40001
1.40001
1.40001
1.40001
1.40001
1.40001
1.40001
1.40001
1.40001
1.42665
3.00326
4.63656
4.62298
4.50548
4.37519
4.24091
4.1041
3.96329
1.40001
1.40001
1.40001
1.40001
1.40001
1.40001
1.40001
1.40001
1.40001
1.40001
1.40001
1.40001
1.40001
1.40001
1.40001
1.40001
1.40001
1.40001
1.40001
1.40001
1.40001
1.40017
1.77158
4.01242
4.67137
4.53372
4.40983
4.27838
4.1444
4.00677
1.40001
1.40001
1.40001
1.40001
1.40001
1.40001
1.40001
1.40001
1.40001
1.40001
1.40001
1.40001
1.40001
1.40001
1.40001
1.40001
1.40001
1.40001
1.40001
1.40001
1.40001
1.40001
1.41734
2.60606
4.44426
4.55192
4.43861
4.31336
4.17909
4.04101
1.40001
1.40001
1.40001
1.40001
1.40001
1.40001
1.40001
1.40001
1.40001
1.40001
1.40001
1.40001
1.40001
1.40001
1.40001
1.40001
1.40001
1.40001
1.40001
1.40001
1.40001
1.40001
1.40013
1.60391
3.58812
4.60415
4.49081
4.36508
4.22648
4.08624
1.40001
1.40001
1.40001
1.40001
1.40001
1.40001
1.40001
1.40001
1.40001
1.40001
1.40001
1.40001
1.40001
1.40001
1.40001
1.40001
1.40001
1.40001
1.40001
1.40001
1.40001
1.40001
1.40001
1.40548
2.15516
4.18085
4.52194
4.38871
4.25952
4.12742
1.40001
1.40001
1.40001
1.40001
1.40001
1.40001
1.40001
1.40001
1.40001
1.40001
1.40001
1.40001
1.40001
1.40001
1.40001
1.40001
1.40001
1.40001
1.40001
1.40001
1.40001
1.40001
1.40001
1.40004
1.47404
2.95242
4.41056
4.41633
4.31013
4.18521
1.40001
1.40001
1.40001
1.40001
1.40001
1.40001
1.40001
1.40001
1.40001
1.40001
1.40001
1.40001
1.40001
1.40001
1.40001
1.40001
1.40001
1.40001
1.40001
1.40001
1.40001
1.40001
1.40001
1.40001
1.40118
1.74307
3.66486
4.44682
4.36649
4.23877
1.40001
1.40001
1.40001
1.40001
1.40001
1.40001
1.40001
1.40001
1.40001
1.40001
1.40001
1.40001
1.40001
1.40001
1.40001
1.40001
1.40001
1.40001
1.40001
1.40001
1.40001
1.40001
1.40001
1.40001
1.40001
1.41566
2.23943
4.08023
4.39192
4.29432
1.40001
1.40001
1.40001
1.40001
1.40001
1.40001
1.40001
1.40001
1.40001
1.40001
1.40001
1.40001
1.40001
1.40001
1.40001
1.40001
1.40001
1.40001
1.40001
1.40001
1.40001
1.40001
1.40001
1.40001
1.40001
1.40016
1.49151
2.84951
4.24537
4.33952
1.40001
1.40001
1.40001
1.40001
1.40001
1.40001
1.40001
1.40001
1.40001
1.40001
1.40001
1.40001
1.40001
1.40001
1.40001
1.40001
1.40001
1.40001
1.40001
1.40001
1.40001
1.40001
1.40001
1.40001
1.40001
1.40001
1.40182
1.69071
3.40606
4.30248
1.40001
1.40001
1.40001
1.40001
1.40001
1.40001
1.40001
1.40001
1.40001
1.40001
1.40001
1.40001
1.40001
1.40001
1.40001
1.40001
1.40001
1.40001
1.40001
1.40001
1.40001
1.40001
1.40001
1.40001
1.40001
1.40001
1.40001
1.41214
2.03303
3.78943
1.40001
1.40001
1.40001
1.40001
1.40001
1.40001
1.40001
1.40001
1.40001
1.40001
1.40001
1.40001
1.40001
1.40001
1.40001
1.40001
1.40001
1.40001
1.40001
1.40001
1.40001
1.40001
1.40001
1.40001
1.40001
1.40001
1.40001
1.40012
1.45272
2.45106
1.40001
1.40001
1.40001
1.40001
1.40001
1.40001
1.40001
1.40001
1.40001
1.40001
1.40001
1.40001
1.40001
1.40001
1.40001
1.40001
1.40001
1.40001
1.40001
1.40001
1.40001
1.40001
1.40001
1.40001
1.40001
1.40001
1.40001
1.40001
1.40091
1.54667
1.40001
1.40001
1.40001
1.40001
1.40001
1.40001
1.40001
1.40001
1.40001
1.40001
1.40001
1.40001
1.40001
1.40001
1.40001
1.40001
1.40001
1.40001
1.40001
1.40001
1.40001
1.40001
1.40001
1.40001
1.40001
1.40001
1.40001
1.40001
1.40001
1.40386
1.40001
1.40001
1.40001
1.40001
1.40001
1.40001
1.40001
1.40001
1.40001
1.40001
1.40001
1.40001
1.40001
1.40001
1.40001
1.40001
1.40001
1.40001
1.40001
1.40001
1.40001
1.40001
1.40001
1.40001
1.40001
1.40001
1.40001
1.40001
1.40001
1.40003
1.40001
1.40001
1.40001
1.40001
1.40001
1.40001
1.40001
1.40001
1.40001
1.40001
1.40001
1.40001
1.40001
1.40001
1.40001
1.40001
1.40001
1.40001
1.40001
1.40001
1.40001
1.40001
1.40001
1.40001
1.40001
1.40001
1.40001
1.40001
1.40001
1.40001
1.40001
1.40001
1.40001
1.40001
1.40001
1.40001
1.40001
1.40001
1.40001
1.40001
1.40001
1.40001
1.40001
1.40001
1.40001
1.40001
1.40001
1.40001
1.40001
1.40001
1.40001
1.40001
1.40001
1.40001
1.40001
1.40001
1.40001
1.40001
1.40001
1.40001
1.40001
1.40001
1.40001
1.40001
1.40001
1.40001
1.40001
1.40001
1.40001
1.40001
1.40001
1.40001
1.40001
1.40001
1.40001
1.40001
1.40001
1.40001
1.40001
1.40001
1.40001
1.40001
1.40001
1.40001
1.40001
1.40001
1.40001
1.40001
1.40001
1.40001
1.40001
1.40001
1.40001
1.40001
1.40001
1.40001
1.40001
1.40001
1.40001
1.40001
1.40001
1.40001
1.40001
1.40001
1.40001
1.40001
1.40001
1.40001
1.40001
1.40001
1.40001
1.40001
1.40001
1.40001
1.40001
1.40001
1.40001
1.40001
1.40001
1.40001
1.40001
1.40001
1.40001
1.40001
1.40001
1.40001
1.40001
1.40001
1.40001
1.40001
1.40001
1.40001
1.40001
1.40001
1.40001
1.40001
1.40001
1.40001
1.40001
1.40001
1.40001
1.40001
1.40001
1.40001
1.40001
1.40001
1.40001
1.40001
1.40001
1.40001
1.40001
1.40001
1.40001
1.40001
1.40001
1.40001
1.40001
1.40001
1.40001
1.40001
1.40001
1.40001
1.40001
1.40001
1.40001
1.40001
1.40001
1.40001
1.40001
1.40001
1.40001
1.40001
1.40001
1.40001
1.40001
1.40001
1.40001
1.40001
1.40001
1.40001
1.40001
1.40001
1.40001
1.40001
1.40001
1.40001
1.40001
1.40001
1.40001
1.40001
1.40001
1.40001
1.40001
1.40001
1.40001
1.40001
1.40001
1.40001
1.40001
1.40001
1.40001
1.40001
1.40001
1.40001
1.40001
1.40001
1.40001
1.40001
1.40001
1.40001
1.40001
1.40001
1.40001
1.40001
1.40001
1.40001
1.40001
1.40001
1.40001
1.40001
1.40001
1.40001
1.40001
1.40001
1.40001
1.40001
1.40001
1.40001
1.40001
1.40001
1.40001
1.40001
1.40001
1.40001
1.40001
1.40001
1.40001
1.40001
1.40001
1.40001
1.21815
0.482903
0.21969
0.125354
0.128397
0.1727
0.262853
0.377999
0.49634
0.588993
0.662977
0.726251
0.785673
0.841692
0.900999
0.938318
0.945161
0.948111
0.954012
0.966031
0.996775
1.04028
1.05084
1.04931
1.0353
1.03094
1.03902
1.05833
1.08374
1.0936
1.0917
1.08305
1.08044
1.08679
1.10571
1.11848
1.80721
2.7969
2.90694
2.94931
2.9838
3.00818
3.01892
3.01301
2.99473
2.97748
2.96994
2.96909
2.9694
2.96572
2.95441
2.93754
2.92114
2.90877
2.89942
2.88806
2.86818
2.84232
2.81737
2.7969
2.77988
2.76253
2.74125
2.71371
2.68229
2.65406
2.63501
2.62737
2.62238
2.60908
2.58758
2.56248
2.53813
2.51728
2.50103
2.48627
2.46532
2.43974
2.41253
2.38284
2.35362
2.32942
2.30955
2.29464
2.2845
2.27208
2.25425
2.23526
2.21539
2.19346
2.17245
2.15532
2.14001
2.12429
2.10634
2.08583
2.06339
2.04095
2.02106
2.00389
1.98725
1.96914
1.94781
1.92418
1.90286
1.88709
1.87486
1.86576
1.85962
1.84956
1.83541
1.8137
1.7869
1.76899
1.75803
1.74932
1.74201
1.73114
1.71679
1.67666
1.87855
1.13055
0.805969
0.612526
0.486306
0.429165
0.43816
0.474304
0.484377
0.498308
0.533824
0.57389
0.628023
0.706982
0.799425
0.868579
0.900979
0.921761
0.938046
0.958408
0.99165
1.0381
1.06314
1.06885
1.0722
1.06814
1.06381
1.06687
1.07816
1.09527
1.10935
1.11564
1.11538
1.11604
1.11604
1.11601
1.72324
2.78729
2.99308
3.02546
3.03341
3.03416
3.03775
3.04302
3.0385
3.01709
2.99364
2.97976
2.97624
2.98007
2.98303
2.97092
2.94356
2.91504
2.8941
2.88551
2.88072
2.86589
2.84118
2.81532
2.79192
2.77245
2.75633
2.74157
2.72388
2.69888
2.67084
2.64446
2.61787
2.59379
2.57551
2.56011
2.5434
2.5253
2.50716
2.48834
2.46793
2.44721
2.42651
2.40504
2.38272
2.35779
2.33248
2.31127
2.29349
2.27835
2.264
2.24675
2.22759
2.20576
2.18041
2.1565
2.13803
2.1221
2.10618
2.08852
2.06926
2.04736
2.024
2.00398
1.98776
1.97206
1.9547
1.93635
1.91675
1.89697
1.88002
1.86719
1.85542
1.8456
1.83419
1.81837
1.7983
1.77723
1.75984
1.74716
1.73643
1.72609
1.71458
1.68433
2.41234
1.68157
1.24458
1.05559
0.91031
0.737933
0.627579
0.609733
0.600035
0.573215
0.575343
0.598405
0.637002
0.68346
0.740518
0.808837
0.857899
0.898161
0.946828
0.988544
1.02921
1.07113
1.09492
1.11365
1.13263
1.14172
1.14109
1.13062
1.11884
1.12231
1.13155
1.14923
1.16561
1.16855
1.16349
1.14913
1.57432
2.88595
3.21809
3.17615
3.16234
3.1428
3.12691
3.12699
3.14078
3.14515
3.1217
3.09132
3.06703
3.0578
3.06451
3.07459
3.0631
3.02943
2.99057
2.95785
2.93726
2.92515
2.90935
2.88437
2.85576
2.82814
2.80321
2.78576
2.77865
2.77523
2.76009
2.73121
2.69358
2.64908
2.61304
2.58963
2.57435
2.56399
2.54735
2.52361
2.49711
2.47017
2.44781
2.42956
2.41522
2.39832
2.37846
2.35546
2.32908
2.30521
2.28701
2.27167
2.25686
2.23943
2.21718
2.1877
2.15674
2.13336
2.11706
2.10268
2.08707
2.06955
2.04667
2.01691
1.98818
1.97006
1.95861
1.9498
1.9385
1.92427
1.90481
1.881
1.85997
1.84435
1.83166
1.82116
1.80979
1.79634
1.77722
1.75481
1.73642
1.72118
1.70848
1.68861
2.72988
2.17955
1.70573
1.38048
1.2369
1.11318
0.955484
0.828045
0.807774
0.780797
0.733452
0.712494
0.693943
0.689792
0.698099
0.717186
0.754848
0.806676
0.869119
0.932746
0.98853
1.03796
1.06846
1.08984
1.11863
1.16399
1.18582
1.18586
1.17441
1.16979
1.17631
1.19268
1.2087
1.20839
1.20269
1.21859
1.48676
2.99242
3.56683
3.45191
3.35727
3.31739
3.28546
3.26614
3.25923
3.26606
3.26162
3.23542
3.20113
3.17533
3.15825
3.15564
3.15712
3.14484
3.12029
3.08646
3.04789
3.01763
2.99379
2.97453
2.95337
2.92837
2.90041
2.87445
2.85384
2.83975
2.82635
2.80272
2.77473
2.74007
2.69537
2.65563
2.63289
2.61655
2.60388
2.5864
2.56556
2.54179
2.51517
2.48961
2.46764
2.44758
2.42773
2.40654
2.3815
2.35098
2.32114
2.30132
2.2857
2.26976
2.25132
2.2294
2.20239
2.1721
2.14636
2.1288
2.11388
2.09825
2.08005
2.05633
2.02679
1.99821
1.97994
1.96826
1.95852
1.94788
1.93398
1.91212
1.88301
1.8592
1.84458
1.83361
1.82403
1.81399
1.80115
1.7793
1.74742
1.72333
1.71273
1.69857
2.93998
2.48769
2.10124
1.77166
1.5133
1.37401
1.26211
1.12258
0.982545
0.940797
0.900255
0.856636
0.821228
0.773852
0.729931
0.728347
0.738223
0.763107
0.792125
0.826227
0.863931
0.904344
0.954326
1.00462
1.05687
1.12346
1.16749
1.1816
1.18277
1.18289
1.19409
1.20652
1.21548
1.2246
1.25884
1.43207
1.7276
2.6106
3.58977
3.70356
3.56484
3.491
3.43278
3.39508
3.37385
3.36433
3.36929
3.36454
3.34083
3.30762
3.26977
3.24508
3.23165
3.2279
3.21968
3.20042
3.16838
3.12303
3.08528
3.06035
3.04033
3.02254
3.00095
2.97633
2.94621
2.91604
2.89002
2.8653
2.84164
2.81654
2.78429
2.74228
2.70343
2.67894
2.6595
2.64261
2.6254
2.60735
2.58698
2.56063
2.5308
2.50589
2.4849
2.46451
2.44265
2.41625
2.38371
2.35076
2.32545
2.30552
2.28695
2.26853
2.24868
2.22404
2.19372
2.16511
2.14345
2.12526
2.10762
2.08965
2.07044
2.048
2.02352
2.00276
1.98733
1.97334
1.95766
1.93756
1.91256
1.88874
1.87164
1.85902
1.84766
1.83619
1.82275
1.80203
1.77027
1.74345
1.73436
1.7197
3.11578
2.72651
2.36367
2.08054
1.836
1.61638
1.48225
1.3731
1.22419
1.09787
1.05653
1.02173
0.990638
0.948125
0.880551
0.820975
0.800062
0.795866
0.799152
0.802703
0.805705
0.812711
0.82685
0.861056
0.907133
0.967534
1.04075
1.11199
1.15862
1.1787
1.19509
1.20331
1.21146
1.24812
1.42829
1.83716
2.07479
2.23076
2.97035
3.56441
3.66218
3.62924
3.56341
3.4867
3.42751
3.40997
3.41437
3.43007
3.42401
3.39878
3.35728
3.31016
3.28605
3.27495
3.27231
3.26005
3.23631
3.19894
3.15285
3.11942
3.09651
3.07752
3.05743
3.03345
3.00472
2.97017
2.93702
2.91274
2.89179
2.86945
2.84295
2.80748
2.76443
2.72981
2.70799
2.69035
2.67414
2.65637
2.63615
2.60847
2.57359
2.5457
2.52499
2.50551
2.48549
2.46271
2.4328
2.39407
2.35993
2.3385
2.32153
2.30532
2.2886
2.26872
2.24118
2.20723
2.17799
2.15694
2.13977
2.12399
2.10804
2.08955
2.06525
2.03812
2.01644
1.99909
1.9824
1.96495
1.94575
1.92366
1.9017
1.88547
1.87235
1.85857
1.84211
1.82101
1.79663
1.77235
1.75794
1.74091
3.23665
2.89959
2.58078
2.31182
2.07513
1.85262
1.68518
1.56588
1.45045
1.32565
1.20024
1.13595
1.10791
1.07631
1.03158
0.977292
0.915898
0.866486
0.83365
0.81924
0.821295
0.838897
0.84686
0.841173
0.832237
0.838555
0.87392
0.941908
1.02477
1.1126
1.16975
1.17359
1.21222
1.42701
1.77669
2.08138
2.23671
2.25298
2.37228
2.94489
3.47701
3.64955
3.63626
3.55971
3.46813
3.43074
3.42782
3.44165
3.45412
3.4396
3.41188
3.36527
3.31755
3.29363
3.27899
3.2687
3.25167
3.22858
3.19473
3.1516
3.11788
3.09402
3.07375
3.05276
3.02963
3.00157
2.96836
2.9361
2.91075
2.88867
2.86588
2.83939
2.80716
2.7721
2.74365
2.72365
2.70549
2.68704
2.66628
2.63869
2.60343
2.57283
2.55097
2.53157
2.51202
2.48974
2.46144
2.42421
2.38486
2.35957
2.34372
2.32933
2.31424
2.29658
2.27234
2.24081
2.20914
2.18502
2.16789
2.15327
2.13826
2.12024
2.09408
2.06036
2.03396
2.01702
2.003
1.99
1.97629
1.95816
1.93283
1.90739
1.88893
1.87281
1.85605
1.83911
1.82337
1.80588
1.78612
1.75879
3.34043
3.03783
2.74593
2.49848
2.27443
2.06888
1.8874
1.72248
1.6058
1.5163
1.41978
1.31977
1.20819
1.15522
1.13941
1.1125
1.06861
1.01172
0.942875
0.897743
0.889932
0.892009
0.883807
0.8644
0.847258
0.837793
0.836836
0.846488
0.877335
0.935669
1.00523
1.0903
1.33423
1.71353
1.99459
2.12807
2.22981
2.23855
2.23315
2.35732
2.86518
3.41761
3.60746
3.59449
3.52252
3.4623
3.43957
3.4295
3.43788
3.44225
3.4244
3.39559
3.34733
3.29788
3.27236
3.25455
3.24698
3.23347
3.20952
3.17319
3.12494
3.09146
3.06954
3.05298
3.03708
3.01692
2.99082
2.95459
2.91738
2.89291
2.87275
2.85223
2.83015
2.8039
2.77219
2.74244
2.71991
2.69942
2.67762
2.65146
2.61867
2.58485
2.55975
2.53984
2.51942
2.49781
2.47359
2.44459
2.40956
2.37654
2.35633
2.34203
2.32734
2.30976
2.28781
2.26244
2.2361
2.21059
2.18881
2.17122
2.15503
2.13694
2.11121
2.07561
2.04627
2.03095
2.01944
2.00853
1.99747
1.98308
1.95831
1.92259
1.89436
1.87659
1.86298
1.85172
1.84125
1.82885
1.81149
1.7754
3.41416
3.14138
2.88581
2.65643
2.42407
2.23008
2.07656
1.9214
1.75296
1.62339
1.55885
1.48623
1.39455
1.30005
1.21133
1.17621
1.15895
1.12787
1.08515
1.03236
0.971816
0.937286
0.922901
0.905937
0.889586
0.882896
0.87622
0.863083
0.85733
0.862269
0.893278
1.0875
1.49507
1.75462
1.90974
2.02901
2.11339
2.14906
2.16097
2.17776
2.31474
2.79629
3.32762
3.54972
3.55642
3.52133
3.47081
3.4281
3.41601
3.41496
3.41489
3.3953
3.3653
3.31588
3.27117
3.24926
3.2377
3.23109
3.21161
3.18445
3.14133
3.0925
3.06523
3.04678
3.03581
3.02212
3.00117
2.97175
2.93156
2.8993
2.87876
2.86043
2.84087
2.81824
2.78986
2.75447
2.72318
2.69989
2.67828
2.6551
2.62779
2.59455
2.56009
2.53317
2.5139
2.49596
2.47792
2.45857
2.43493
2.40358
2.37012
2.34501
2.3258
2.30782
2.29017
2.27263
2.25456
2.23369
2.20949
2.18526
2.16306
2.14158
2.11827
2.09068
2.06259
2.04502
2.03482
2.02708
2.01529
1.99913
1.97258
1.93344
1.89745
1.87823
1.86729
1.85836
1.85031
1.84042
1.82818
1.795
3.47435
3.22983
2.99353
2.78127
2.56895
2.36939
2.20524
2.06345
1.91893
1.79033
1.66236
1.5694
1.51823
1.45359
1.36999
1.27741
1.21465
1.19785
1.18237
1.15141
1.10163
1.02968
0.987048
0.978766
0.962649
0.942553
0.925762
0.908587
0.89031
0.91387
1.07062
1.38729
1.58867
1.69071
1.75313
1.79681
1.84622
1.90962
1.98653
2.05242
2.08774
2.22435
2.68098
3.20978
3.47096
3.54108
3.51061
3.45016
3.40017
3.38234
3.37453
3.37824
3.36109
3.33378
3.28975
3.25372
3.23403
3.2198
3.20682
3.18484
3.15412
3.10726
3.06851
3.04742
3.03413
3.02186
3.00243
2.98
2.94974
2.9131
2.88413
2.86209
2.84052
2.81818
2.79248
2.75964
2.72432
2.69621
2.67427
2.65382
2.63206
2.60353
2.56485
2.53125
2.51212
2.49659
2.48283
2.4684
2.45163
2.42727
2.38885
2.35073
2.32512
2.30581
2.28958
2.27568
2.26207
2.24585
2.22256
2.19334
2.16617
2.14387
2.12447
2.10603
2.08621
2.06337
2.03885
2.01766
2.00278
1.98735
1.9681
1.94134
1.91215
1.88921
1.87425
1.86267
1.85228
1.84242
1.83366
1.80966
3.52052
3.29866
3.0805
2.8825
2.6859
2.49889
2.33582
2.17559
2.04352
1.93908
1.81809
1.68951
1.59563
1.54758
1.49853
1.42814
1.34482
1.26405
1.22917
1.21838
1.19409
1.14796
1.08555
1.0421
1.03009
1.00651
0.98032
0.9629
0.988648
1.14501
1.46791
1.67003
1.72845
1.71911
1.70543
1.70522
1.71279
1.7331
1.76778
1.81253
1.85742
1.89751
2.02562
2.4389
3.02953
3.39314
3.48805
3.47357
3.40439
3.36198
3.34279
3.34369
3.35057
3.33611
3.30954
3.26913
3.23503
3.2149
3.19779
3.17878
3.15511
3.12288
3.08196
3.05436
3.03599
3.01983
3.00096
2.98077
2.95692
2.92467
2.89044
2.86223
2.83718
2.81218
2.78575
2.75642
2.72277
2.69153
2.66953
2.65113
2.63234
2.60985
2.57912
2.54297
2.51503
2.49822
2.48559
2.47389
2.45837
2.4372
2.40442
2.36113
2.32704
2.30571
2.29051
2.27732
2.26447
2.25001
2.22811
2.19483
2.16405
2.14568
2.13232
2.11923
2.10332
2.07965
2.04677
2.01461
1.99031
1.97221
1.9559
1.94242
1.92821
1.90857
1.88493
1.86921
1.8596
1.85036
1.84127
1.81721
3.56241
3.35693
3.15994
2.97112
2.77902
2.60802
2.45881
2.30383
2.15326
2.03869
1.9389
1.83509
1.73607
1.63261
1.56017
1.52127
1.46934
1.39676
1.31398
1.26399
1.2486
1.22609
1.18852
1.13733
1.09554
1.07195
1.05662
1.08333
1.24105
1.54736
1.79448
1.82844
1.80176
1.76476
1.73359
1.72916
1.73194
1.74276
1.75978
1.75735
1.75304
1.75152
1.75694
1.81618
2.13409
2.71546
3.21786
3.42431
3.40773
3.36076
3.3284
3.32064
3.32661
3.32862
3.31008
3.27931
3.23872
3.20861
3.18902
3.17029
3.14994
3.12643
3.09413
3.06043
3.03876
3.01933
2.99805
2.97554
2.95119
2.92217
2.88786
2.8569
2.83104
2.8062
2.78092
2.75361
2.72162
2.68764
2.66236
2.64496
2.62806
2.61034
2.59084
2.56659
2.5358
2.50351
2.48085
2.46582
2.45218
2.43465
2.40894
2.37628
2.34269
2.31426
2.29342
2.27688
2.26191
2.24699
2.22804
2.19841
2.16754
2.15041
2.13765
2.1245
2.10962
2.08879
2.05519
2.01468
1.98351
1.96324
1.95122
1.94264
1.93402
1.92282
1.90597
1.8834
1.86177
1.84252
1.83253
1.81614
3.60225
3.40987
3.22757
3.04541
2.86492
2.70488
2.55363
2.40565
2.27174
2.15206
2.02668
1.92922
1.85578
1.76278
1.65801
1.57626
1.53903
1.49983
1.435
1.35209
1.30142
1.27959
1.25705
1.22024
1.17882
1.15088
1.18227
1.3647
1.65925
1.88818
1.93614
1.91118
1.8863
1.86432
1.83597
1.81486
1.80225
1.78848
1.77664
1.77077
1.76654
1.76139
1.75749
1.74735
1.757
1.89181
2.34065
2.91234
3.26994
3.36141
3.32885
3.31474
3.31685
3.31373
3.29698
3.2696
3.2332
3.19842
3.17791
3.15972
3.1424
3.12195
3.09533
3.06108
3.03591
3.0155
2.99427
2.97177
2.9461
2.9124
2.87294
2.84435
2.82241
2.80172
2.7811
2.75895
2.73216
2.69669
2.6593
2.63723
2.62222
2.60944
2.59548
2.57824
2.55358
2.51878
2.48286
2.45449
2.43356
2.41451
2.39752
2.3807
2.35975
2.33092
2.30067
2.28037
2.2661
2.24999
2.22961
2.20549
2.1809
2.15903
2.14066
2.12617
2.11176
2.09052
2.05957
2.02188
1.98903
1.96783
1.95525
1.94615
1.93999
1.93323
1.92024
1.89668
1.86804
1.84511
1.83185
1.80868
3.64265
3.46327
3.28947
3.11324
2.94787
2.7955
2.64497
2.49647
2.37259
2.25734
2.13977
2.024
1.9355
1.85874
1.77512
1.68799
1.6052
1.55556
1.51668
1.46144
1.3936
1.3427
1.30821
1.28229
1.26952
1.32301
1.54907
1.84799
2.00047
2.03533
2.00997
1.99385
1.98962
1.97629
1.94944
1.90838
1.87913
1.86404
1.84745
1.83575
1.82427
1.80832
1.79211
1.7722
1.7513
1.75096
1.78577
2.02419
2.53971
3.04069
3.26737
3.30893
3.31807
3.30616
3.28972
3.26198
3.21977
3.18231
3.16453
3.14983
3.13799
3.11995
3.095
3.06063
3.0281
3.00664
2.98709
2.96665
2.94249
2.90913
2.86704
2.83286
2.8123
2.79587
2.78239
2.76616
2.74506
2.7124
2.66826
2.63462
2.61638
2.60119
2.58686
2.57378
2.55597
2.53005
2.49014
2.44673
2.41712
2.40091
2.3886
2.3781
2.3648
2.3456
2.31903
2.28759
2.25739
2.23499
2.21665
2.20098
2.18664
2.17029
2.14968
2.12458
2.09729
2.07272
2.04982
2.02935
2.011
1.99238
1.97312
1.95463
1.93842
1.92534
1.91291
1.89665
1.87742
1.85566
1.83534
1.8049
3.68559
3.51699
3.34835
3.18082
3.02713
2.87701
2.72512
2.58971
2.4659
2.34398
2.22782
2.1256
2.03034
1.92969
1.84943
1.7884
1.7108
1.62562
1.57151
1.53639
1.48793
1.4198
1.37097
1.37278
1.44624
1.71783
2.07544
2.18904
2.1592
2.11238
2.08551
2.08139
2.08494
2.07259
2.04879
2.01026
1.96596
1.94887
1.93601
1.91927
1.90127
1.88035
1.85583
1.83031
1.8046
1.78007
1.76876
1.77364
1.8511
2.17934
2.7155
3.10934
3.25042
3.30787
3.30452
3.27498
3.2222
3.17267
3.1533
3.14033
3.13718
3.12534
3.1029
3.06962
3.02619
2.99753
2.97896
2.96101
2.94109
2.91424
2.87456
2.83335
2.80943
2.79346
2.78225
2.76893
2.7514
2.72683
2.68507
2.63712
2.60978
2.59324
2.5785
2.56445
2.54893
2.52993
2.49815
2.45125
2.41499
2.39542
2.38138
2.36847
2.3569
2.34503
2.32809
2.29955
2.25885
2.22912
2.21503
2.20553
2.1947
2.17964
2.15719
2.1249
2.09186
2.06469
2.04786
2.03841
2.02785
2.01229
1.99182
1.96621
1.9395
1.91758
1.90423
1.89497
1.88206
1.86329
1.84268
1.8059
3.72782
3.56741
3.40548
3.25131
3.10245
2.95281
2.80624
2.67834
2.5533
2.43019
2.31246
2.21484
2.11942
2.02475
1.93062
1.86402
1.79859
1.72575
1.64947
1.59745
1.55131
1.49522
1.49713
1.60745
1.86892
2.21469
2.35244
2.32751
2.26219
2.20305
2.18092
2.17637
2.17705
2.16258
2.13978
2.1086
2.0641
2.03133
2.01139
1.99303
1.97624
1.95763
1.93311
1.90226
1.8681
1.84346
1.81777
1.80021
1.79108
1.80439
1.94448
2.33308
2.82339
3.15325
3.25152
3.28785
3.2532
3.20106
3.15869
3.13827
3.13379
3.13004
3.11202
3.0863
3.04466
3.0009
2.9756
2.95721
2.93955
2.91983
2.89266
2.85639
2.82171
2.79995
2.78382
2.7676
2.75111
2.732
2.70056
2.65277
2.61081
2.58763
2.57124
2.55561
2.53944
2.52205
2.50081
2.46879
2.42757
2.39517
2.37618
2.36262
2.35174
2.34226
2.32957
2.30793
2.27496
2.24115
2.21413
2.19385
2.17841
2.16283
2.14472
2.12221
2.09903
2.0808
2.06242
2.03897
2.02469
2.01603
1.99946
1.97329
1.94491
1.9206
1.89945
1.88182
1.87249
1.86422
1.84885
1.81135
3.77429
3.6199
3.46515
3.31856
3.17299
3.02386
2.88786
2.76005
2.635
2.50841
2.40235
2.29987
2.20078
2.10473
2.0219
1.94608
1.86994
1.80004
1.72922
1.67121
1.62039
1.64587
1.81777
2.10935
2.33162
2.47459
2.46778
2.42956
2.37988
2.32253
2.28362
2.26968
2.26186
2.24726
2.22393
2.19737
2.16109
2.12338
2.09886
2.07659
2.05424
2.03082
2.00364
1.97197
1.93715
1.90827
1.88568
1.86362
1.83882
1.82278
1.80955
1.83526
2.02414
2.46451
2.88876
3.16927
3.23536
3.23734
3.20159
3.16338
3.14496
3.13249
3.11723
3.09702
3.06916
3.02878
2.98898
2.96242
2.94155
2.92219
2.90263
2.87917
2.85001
2.81866
2.79014
2.76732
2.74738
2.72674
2.70278
2.6692
2.62771
2.59198
2.56877
2.55078
2.53352
2.51657
2.49995
2.48051
2.45042
2.41285
2.38328
2.36236
2.3446
2.32871
2.31302
2.29725
2.28073
2.25703
2.22235
2.19182
2.17041
2.15254
2.13468
2.12124
2.11173
2.10013
2.08015
2.04982
2.01934
1.99483
1.97949
1.96671
1.94929
1.92604
1.90195
1.8813
1.86316
1.84712
1.83262
1.80922
3.81654
3.66784
3.52275
3.37845
3.23302
3.09407
2.96532
2.83692
2.70874
2.59066
2.48739
2.38336
2.28246
2.1861
2.1079
2.02625
1.95067
1.86446
1.80617
1.76361
1.82046
2.06218
2.42003
2.56068
2.58016
2.56643
2.53556
2.5186
2.49439
2.4531
2.39831
2.36429
2.34481
2.32805
2.3046
2.27727
2.24501
2.20624
2.17592
2.15207
2.12857
2.10489
2.07703
2.03982
1.99726
1.96364
1.94249
1.92401
1.90417
1.88283
1.86152
1.83739
1.81162
1.8593
2.1127
2.55622
2.98126
3.14974
3.2239
3.21621
3.17291
3.14885
3.12437
3.09898
3.07801
3.04994
3.01422
2.98468
2.96057
2.93732
2.91471
2.89178
2.86576
2.83498
2.80375
2.77568
2.74948
2.72359
2.6983
2.67289
2.64323
2.60933
2.5798
2.55713
2.53779
2.51983
2.50272
2.48495
2.46314
2.43339
2.39961
2.36856
2.34169
2.3186
2.3023
2.29182
2.28253
2.26551
2.23558
2.19767
2.16589
2.14718
2.13615
2.13152
2.12423
2.11145
2.09039
2.05872
2.01957
1.98548
1.96084
1.94632
1.93674
1.92594
1.90902
1.88707
1.86123
1.83713
1.82229
1.80869
3.86212
3.71681
3.57683
3.43585
3.2929
3.16262
3.03653
2.90943
2.78167
2.67361
2.56726
2.46539
2.35898
2.27404
2.18501
2.10336
2.01612
1.94347
1.9283
2.03844
2.30848
2.68653
2.84131
2.79055
2.71558
2.64351
2.6164
2.61685