/*--------------------------------*- C++ -*----------------------------------*\
  =========                 |
  \\      /  F ield         | OpenFOAM: The Open Source CFD Toolbox
   \\    /   O peration     | Website:  https://openfoam.org
    \\  /    A nd           | Version:  7
     \\/     M anipulation  |
\*---------------------------------------------------------------------------*/
FoamFile
{
    version     2.0;
    format      ascii;
    class       volScalarField;
    location    "3.7";
    object      T;
}
// * * * * * * * * * * * * * * * * * * * * * * * * * * * * * * * * * * * * * //

dimensions      [0 0 0 1 0 0 0];

internalField   nonuniform List<scalar> 
6300
(
1
1
1
1
1
1
1
1
1
1
1
1
1
1
1.00082
2.29535
2.70864
2.71823
2.72979
2.74072
2.75115
2.76128
2.77129
2.78111
2.79037
2.79861
2.80573
2.81153
2.81598
2.81896
1
1
1
1
1
1
1
1
1
1
1
1
1
1
1.00005
2.27977
2.70687
2.71744
2.72872
2.73966
2.75001
2.76001
2.76984
2.77946
2.78848
2.79645
2.80331
2.80886
2.81309
2.81599
1
1
1
1
1
1
1
1
1
1
1
1
1
1
1
2.24476
2.70508
2.71592
2.72687
2.73779
2.74803
2.7579
2.76758
2.77702
2.78583
2.79353
2.80006
2.80526
2.80909
2.81175
1
1
1
1
1
1
1
1
1
1
1
1
1
1
1
2.19007
2.69983
2.71345
2.72432
2.73524
2.74517
2.75467
2.76394
2.77297
2.7814
2.78873
2.79488
2.79972
2.80317
2.80564
1
1
1
1
1
1
1
1
1
1
1
1
1
1
1
2.11338
2.68851
2.70933
2.72065
2.73178
2.74152
2.75062
2.75936
2.76772
2.77538
2.78191
2.78739
2.79181
2.79496
2.79754
1
1
1
1
1
1
1
1
1
1
1
1
1
1
1
2.01031
2.66802
2.70204
2.71447
2.72609
2.73589
2.74475
2.753
2.76073
2.76778
2.77373
2.77856
2.78215
2.78423
2.78565
1
1
1
1
1
1
1
1
1
1
1
1
1
1
1
1.87529
2.63423
2.68953
2.70404
2.71698
2.72737
2.73625
2.74416
2.75126
2.75729
2.76179
2.76474
2.76704
2.76819
2.77042
1
1
1
1
1
1
1
1
1
1
1
1
1
1
1
1.7081
2.58262
2.67315
2.69041
2.70529
2.71656
2.72572
2.73342
2.73981
2.74468
2.74804
2.7498
2.75075
2.74801
2.74255
1
1
1
1
1
1
1
1
1
1
1
1
1
1
1
1.47662
2.48972
2.65345
2.67316
2.68943
2.70119
2.71108
2.71926
2.7256
2.72955
2.73069
2.72812
2.72176
2.71241
2.70482
1
1
1
1
1
1
1
1
1
1
1
1
1
1
1
1.17165
2.37374
2.65268
2.6524
2.66553
2.67928
2.69114
2.70082
2.7071
2.70978
2.70821
2.70202
2.69244
2.68442
2.69147
1
1
1
1
1
1
1
1
1
1
1
1
1
1
1
1.00853
2.26403
2.63773
2.63733
2.64642
2.65623
2.6673
2.67687
2.68322
2.68481
2.6816
2.67068
2.64803
2.59229
2.48603
1
1
1
1
1
1
1
1
1
1
1
1
1
1
1
1.00001
2.07571
2.61997
2.62924
2.63424
2.63856
2.64514
2.65111
2.65556
2.65518
2.64955
2.63339
2.59621
2.5344
2.36168
1
1
1
1
1
1
1
1
1
1
1
1
1
1
1
1
1.78502
2.55014
2.6205
2.62504
2.62723
2.62884
2.62841
2.62811
2.62462
2.61479
2.59455
2.55117
2.48038
2.28893
1
1
1
1
1
1
1
1
1
1
1
1
1
1
1
1
1.38349
2.40888
2.60091
2.61026
2.6144
2.61336
2.60971
2.60407
2.59533
2.58038
2.55547
2.51201
2.43173
2.26447
1
1
1
1
1
1
1
1
1
1
1
1
1
1
1
1
1.042
2.2458
2.58747
2.58892
2.59488
2.59476
2.59085
2.58218
2.56906
2.54942
2.51965
2.47526
2.39478
2.26862
1
1
1
1
1
1
1
1
1
1
1
1
1
1
1
1
1.00032
2.00705
2.52774
2.56205
2.57091
2.57238
2.56939
2.56045
2.54524
2.52289
2.49062
2.44365
2.36896
2.27168
1
1
1
1
1
1
1
1
1
1
1
1
1
1
1
1
0.999997
1.55782
2.41021
2.53427
2.54485
2.55099
2.5479
2.5391
2.5234
2.49977
2.46688
2.41853
2.35184
2.27168
1
1
1
1
1
1
1
1
1
1
1
1
1
1
1
1
0.999999
1.08404
2.24568
2.5251
2.52061
2.52274
2.52031
2.51313
2.49945
2.47817
2.44601
2.39991
2.34167
2.27342
1
1
1
1
1
1
1
1
1
1
1
1
1
1
1
1
1
1.0015
1.99139
2.46446
2.49491
2.49365
2.49014
2.48427
2.47313
2.4556
2.42588
2.38507
2.33436
2.27501
1
1
1
1
1
1
1
1
1
1
1
1
1
1
1
1
1
0.999992
1.4608
2.33711
2.47561
2.46734
2.46375
2.45859
2.44865
2.43203
2.40626
2.37143
2.32762
2.27612
1
1
1
1
1
1
1
1
1
1
1
1
1
1
1
1
1
0.999998
1.05355
2.15065
2.44182
2.43702
2.43703
2.43315
2.42401
2.40824
2.38536
2.3555
2.31774
2.27342
1
1
1
1
1
1
1
1
1
1
1
1
1
1
1
1
1
1
1.0005
1.7146
2.34357
2.4182
2.41567
2.41114
2.40132
2.38567
2.36433
2.33776
2.30511
2.26743
1
1
1
1
1
1
1
1
1
1
1
1
1
1
1
1
1
1
0.999999
1.14557
2.16903
2.40439
2.39702
2.39158
2.37969
2.36333
2.34294
2.31862
2.28988
2.25768
1
1
1
1
1
1
1
1
1
1
1
1
1
1
1
1
1
1
1
1.0045
1.82388
2.32566
2.37578
2.36741
2.3559
2.3412
2.32216
2.29961
2.27396
2.24529
1
1
1
1
1
1
1
1
1
1
1
1
1
1
1
1
1
1
1
1
1.2171
2.14774
2.3595
2.34616
2.33557
2.32175
2.30398
2.28286
2.25915
2.23261
1
1
1
1
1
1
1
1
1
1
1
1
1
1
1
1
1
1
1
1
1.01025
1.83172
2.29156
2.32274
2.31291
2.3004
2.28412
2.26509
2.24348
2.21944
1
1
1
1
1
1
1
1
1
1
1
1
1
1
1
1
1
1
1
1
1.00003
1.23543
2.10677
2.30561
2.29197
2.2806
2.26574
2.24893
2.22972
2.20816
1
1
1
1
1
1
1
1
1
1
1
1
1
1
1
1
1
1
1
1
1
1.01207
1.74703
2.22818
2.27351
2.2596
2.24587
2.2314
2.21525
2.19657
1
1
1
1
1
1
1
1
1
1
1
1
1
1
1
1
1
1
1
1
1
1.00006
1.18749
2.02869
2.25439
2.23909
2.22946
2.21704
2.2024
2.18535
1
1
1
1
1
1
1
1
1
1
1
1
1
1
1
1
1
1
1
1
1
1
1.00759
1.56552
2.12667
2.22174
2.20937
2.19885
2.18603
2.1707
1
1
1
1
1
1
1
1
1
1
1
1
1
1
1
1
1
1
1
1
1
1
1.00004
1.09801
1.89131
2.20157
2.19126
2.1812
2.16893
2.15513
1
1
1
1
1
1
1
1
1
1
1
1
1
1
1
1
1
1
1
1
1
1
1
1.00223
1.36229
2.03474
2.17344
2.15701
2.1467
2.13581
1
1
1
1
1
1
1
1
1
1
1
1
1
1
1
1
1
1
1
1
1
1
1
1.00001
1.03333
1.67942
2.0931
2.14987
2.13589
2.1229
1
1
1
1
1
1
1
1
1
1
1
1
1
1
1
1
1
1
1
1
1
1
1
1
1.00041
1.16699
1.87153
2.12615
2.12093
2.10891
1
1
1
1
1
1
1
1
1
1
1
1
1
1
1
1
1
1
1
1
1
1
1
1
1
1.00648
1.38496
1.97292
2.10243
2.09293
1
1
1
1
1
1
1
1
1
1
1
1
1
1
1
1
1
1
1
1
1
1
1
1
1
1.00005
1.0407
1.61224
2.01521
2.08317
1
1
1
1
1
1
1
1
1
1
1
1
1
1
1
1
1
1
1
1
1
1
1
1
1
1
1.00063
1.13677
1.77635
2.03738
1
1
1
1
1
1
1
1
1
1
1
1
1
1
1
1
1
1
1
1
1
1
1
1
1
1
1
1.00478
1.29207
1.86092
1
1
1
1
1
1
1
1
1
1
1
1
1
1
1
1
1
1
1
1
1
1
1
1
1
1
1
1.00003
1.02245
1.44862
1
1
1
1
1
1
1
1
1
1
1
1
1
1
1
1
1
1
1
1
1
1
1
1
1
1
1
1
1.00029
1.06534
1
1
1
1
1
1
1
1
1
1
1
1
1
1
1
1
1
1
1
1
1
1
1
1
1
1
1
1
1
1.0014
1
1
1
1
1
1
1
1
1
1
1
1
1
1
1
1
1
1
1
1
1
1
1
1
1
1
1
1
1
1.00001
1
1
1
1
1
1
1
1
1
1
1
1
1
1
1
1
1
1
1
1
1
1
1
1
1
1
1
1
1
1
1
1
1
1
1
1
1
1
1
1
1
1
1
1
1
1
1
1
1
1
1
1
1
1
1
1
1
1
1
1
1
1
1
1
1
1
1
1
1
1
1
1
1
1
1
1
1
1
1
1
1
1
1
1
1
1
1
1
1
1
1
1
1
1
1
1
1
1
1
1
1
1
1
1
1
1
1
1
1
1
1
1
1
1
1
1
1
1
1
1
1
1
1
1
1
1
1
1
1
1
1
1
1
1
1
1
1
1
1
1
1
1
1
1
1
1
1
1
1
1
1
1
1
1
1
1
1
1
1
1
1
1
1
1
1
1
1
1
1
1
1
1
1
1
1
1
1
1
1
1
1
1
1
1
1
1
1
1
1
1
1
1
1
1
1
1
1
1
1
1
1
1
1
1
1
1
1
1
1
1
1
1
1
1
1
1
1
1
1
1
1
1
1
1
1
1
1
1
1
1
1
1
1
1
1
1
1
1
1
1
1.64368
1.11178
1.01431
1.04191
1.0272
1.08737
1.20574
1.31731
1.40633
1.50514
1.58806
1.62386
1.63618
1.63586
1.6432
1.65918
1.68853
1.72243
1.72274
1.7036
1.67505
1.67541
1.68267
1.70043
1.71277
1.71149
1.7031
1.68655
1.686
1.69099
1.69856
1.70254
1.7014
1.69804
1.69354
1.69262
2.25843
2.81482
2.8272
2.8204
2.81508
2.81151
2.8067
2.79603
2.7813
2.766
2.752
2.73912
2.72623
2.71224
2.69731
2.68295
2.67113
2.66265
2.65635
2.64897
2.63739
2.62166
2.60442
2.58754
2.57155
2.55591
2.53992
2.5232
2.50696
2.49326
2.48333
2.47767
2.47307
2.46422
2.45086
2.43549
2.42015
2.40597
2.39389
2.38301
2.37046
2.35663
2.34246
2.32773
2.31369
2.30185
2.2916
2.28327
2.27699
2.26982
2.26023
2.24974
2.23847
2.22605
2.21394
2.20378
2.19491
2.18633
2.17751
2.16815
2.15809
2.14782
2.13816
2.12917
2.11992
2.10982
2.09843
2.08624
2.07538
2.06708
2.06056
2.05569
2.05213
2.04647
2.03883
2.02753
2.01369
2.00347
1.99643
1.99076
1.98583
1.97968
1.97271
1.95525
1.88465
1.55642
1.45885
1.37945
1.26577
1.16903
1.16731
1.18392
1.20727
1.24542
1.30316
1.33136
1.3554
1.39915
1.45245
1.50434
1.54872
1.59084
1.61437
1.61168
1.60668
1.61147
1.62669
1.64996
1.67031
1.67099
1.66182
1.64689
1.64348
1.64845
1.66549
1.6803
1.68102
1.67748
1.66646
1.65763
2.18184
2.77293
2.81694
2.80917
2.79518
2.78104
2.77149
2.76452
2.75462
2.73882
2.72122
2.70515
2.69178
2.68148
2.67153
2.65778
2.64208
2.62806
2.61757
2.61174
2.60719
2.59804
2.5837
2.56703
2.54992
2.53394
2.51989
2.50773
2.49597
2.48312
2.47074
2.45955
2.44788
2.4361
2.42557
2.41536
2.40389
2.39144
2.37902
2.36673
2.35452
2.343
2.33219
2.32148
2.31064
2.29897
2.28733
2.27735
2.26858
2.26062
2.25268
2.24318
2.23253
2.22054
2.20711
2.19436
2.18415
2.17574
2.16803
2.16002
2.15158
2.142
2.1314
2.12146
2.11293
2.10467
2.09539
2.08536
2.07498
2.06501
2.05658
2.05
2.04405
2.0391
2.03323
2.02499
2.01425
2.00282
1.99307
1.98552
1.97941
1.97382
1.96783
1.95414
2.00711
1.76681
1.59921
1.52653
1.45929
1.35257
1.24889
1.21269
1.20361
1.18684
1.1911
1.20855
1.23222
1.25401
1.28726
1.33627
1.3784
1.41645
1.45818
1.48814
1.50903
1.52728
1.54352
1.5658
1.59119
1.60057
1.59951
1.59029
1.58043
1.58203
1.59198
1.6088
1.61979
1.62066
1.61544
1.60424
1.95378
2.65183
2.74713
2.7294
2.71384
2.69434
2.67764
2.66952
2.66727
2.66296
2.64853
2.63203
2.61593
2.60337
2.59661
2.59125
2.57977
2.56396
2.54885
2.53737
2.53085
2.5273
2.52147
2.51032
2.49545
2.47918
2.46327
2.45046
2.44242
2.43732
2.42999
2.4199
2.40701
2.39154
2.37838
2.36834
2.35983
2.35222
2.34165
2.32849
2.31491
2.30223
2.2922
2.28424
2.27799
2.27098
2.26319
2.25428
2.24372
2.23363
2.22546
2.21807
2.21041
2.20131
2.19005
2.17579
2.16112
2.15009
2.14253
2.13634
2.1302
2.12364
2.11494
2.10308
2.09106
2.08272
2.07663
2.0713
2.06466
2.05695
2.04741
2.0364
2.02697
2.02027
2.01476
2.00988
2.00397
1.99672
1.98675
1.97509
1.96549
1.9577
1.95144
1.94196
2.07117
1.91059
1.75154
1.62401
1.56808
1.51471
1.4314
1.34029
1.31065
1.28801
1.25979
1.24614
1.22742
1.21898
1.22416
1.23604
1.26141
1.29691
1.33726
1.3768
1.40949
1.43678
1.45556
1.47155
1.49212
1.51845
1.53645
1.53919
1.53515
1.53372
1.5387
1.5499
1.55888
1.55807
1.55801
1.56887
1.72042
2.41821
2.65597
2.61985
2.588
2.56969
2.55381
2.54317
2.53709
2.53573
2.53096
2.52067
2.50798
2.49618
2.48542
2.47822
2.47244
2.46392
2.45523
2.44612
2.43704
2.43108
2.42649
2.42179
2.4143
2.40321
2.38945
2.37564
2.36411
2.35601
2.34967
2.3421
2.3351
2.32695
2.31499
2.30291
2.29497
2.28782
2.28079
2.27155
2.26143
2.25103
2.24052
2.23136
2.22426
2.21834
2.21266
2.20639
2.19854
2.18836
2.1779
2.17064
2.16444
2.15762
2.14935
2.1395
2.12777
2.11481
2.104
2.09719
2.09226
2.08777
2.0828
2.07588
2.06585
2.05486
2.04731
2.04207
2.03712
2.03138
2.02436
2.01466
2.00252
1.99287
1.98736
1.98345
1.98011
1.97615
1.97035
1.96018
1.9449
1.93299
1.92774
1.92065
2.12224
1.99148
1.86913
1.75575
1.65719
1.60128
1.55301
1.48466
1.40201
1.37353
1.35016
1.32621
1.30271
1.26979
1.23514
1.23214
1.23842
1.25504
1.27284
1.29223
1.31482
1.33905
1.3676
1.39474
1.42029
1.45334
1.47913
1.49295
1.49679
1.49772
1.50246
1.50861
1.51297
1.51857
1.53815
1.63119
1.77537
2.12803
2.45729
2.52422
2.49062
2.46939
2.45236
2.4403
2.43248
2.4281
2.42837
2.42648
2.41971
2.41007
2.39786
2.38828
2.38153
2.3782
2.37465
2.36977
2.36285
2.35301
2.34519
2.34011
2.33501
2.329
2.32036
2.30979
2.2972
2.28506
2.27559
2.26847
2.26353
2.25928
2.25309
2.24286
2.23188
2.22413
2.21689
2.20963
2.20201
2.19446
2.18697
2.17846
2.16962
2.16302
2.15805
2.15346
2.14839
2.14149
2.13182
2.1213
2.11309
2.10647
2.10001
2.09323
2.08559
2.07602
2.06442
2.05393
2.04686
2.04192
2.03787
2.034
2.02949
2.02322
2.01509
2.00741
2.00121
1.99519
1.98831
1.97976
1.96975
1.96088
1.95527
1.95181
1.94902
1.94607
1.94182
1.93357
1.91961
1.90699
1.90208
1.89445
2.16425
2.05572
1.94493
1.85282
1.76739
1.68421
1.63047
1.58352
1.51347
1.4465
1.42409
1.40679
1.39046
1.3655
1.32308
1.28376
1.26942
1.26638
1.26826
1.26982
1.27098
1.27555
1.28543
1.30607
1.33129
1.36354
1.40257
1.44117
1.46658
1.47622
1.4824
1.48463
1.48841
1.50903
1.60275
1.79363
1.89346
1.95112
2.20055
2.38173
2.42949
2.42495
2.40849
2.3882
2.37032
2.36443
2.36544
2.36909
2.36674
2.35958
2.34877
2.33617
2.3295
2.32617
2.32523
2.32147
2.31513
2.30617
2.295
2.28677
2.28076
2.27506
2.26812
2.25948
2.2494
2.23784
2.22741
2.22075
2.21605
2.21176
2.2066
2.19841
2.1869
2.17689
2.17006
2.16382
2.15764
2.15095
2.14387
2.13497
2.12442
2.11677
2.11192
2.10778
2.10359
2.0984
2.09044
2.07891
2.06858
2.06247
2.05757
2.05264
2.04726
2.04051
2.03087
2.01893
2.0091
2.00293
1.99875
1.99555
1.99257
1.98849
1.98154
1.97256
1.96505
1.9588
1.95252
1.94589
1.93885
1.9311
1.92389
1.91935
1.91624
1.91296
1.90827
1.90087
1.8911
1.88052
1.87369
1.86548
2.18618
2.09723
2.00551
1.92282
1.84422
1.76409
1.70045
1.65348
1.60572
1.55068
1.4892
1.45547
1.44136
1.4253
1.40185
1.37259
1.33646
1.30462
1.28322
1.27424
1.2754
1.28624
1.29104
1.28742
1.28197
1.28523
1.30633
1.34587
1.39294
1.44029
1.46724
1.46686
1.48621
1.60542
1.76849
1.89121
1.95025
1.95591
1.99767
2.18592
2.34162
2.39547
2.39397
2.37369
2.34767
2.33492
2.33358
2.33659
2.33919
2.33449
2.32631
2.31428
2.30241
2.29691
2.29354
2.29069
2.28584
2.27934
2.2702
2.25825
2.24846
2.24125
2.23447
2.2273
2.21975
2.21138
2.20196
2.19324
2.18701
2.1819
2.17649
2.16984
2.16123
2.15131
2.14288
2.13652
2.13032
2.12385
2.11671
2.10762
2.0965
2.08745
2.08171
2.07706
2.07254
2.06731
2.06009
2.04948
2.03761
2.03037
2.02612
2.02202
2.01759
2.01217
2.0044
1.99396
1.98342
1.97578
1.97102
1.96749
1.9641
1.95983
1.95249
1.94174
1.93332
1.92813
1.92379
1.91967
1.9152
1.90906
1.90033
1.89189
1.88641
1.88185
1.87689
1.87156
1.86626
1.85975
1.85166
1.84002
2.2028
2.12616
2.04658
1.97455
1.90425
1.83554
1.77145
1.70894
1.66219
1.62582
1.5849
1.54014
1.48558
1.45837
1.45106
1.43789
1.41518
1.38437
1.34501
1.3173
1.31183
1.31287
1.30784
1.29665
1.2862
1.27939
1.27867
1.28488
1.304
1.34013
1.38034
1.42485
1.55487
1.74424
1.8658
1.91133
1.94556
1.94874
1.94415
1.98701
2.15415
2.31566
2.36962
2.36638
2.34459
2.32663
2.3183
2.31445
2.31629
2.31695
2.31138
2.30335
2.29092
2.27837
2.27238
2.26848
2.26684
2.26293
2.25556
2.24483
2.23046
2.21983
2.21268
2.20697
2.20174
2.19603
2.18934
2.18005
2.17029
2.164
2.15859
2.15277
2.14641
2.13878
2.1295
2.12054
2.11343
2.10667
2.09917
2.09015
2.07926
2.06847
2.06109
2.05576
2.05053
2.0452
2.03921
2.03155
2.02144
2.01142
2.0055
2.00143
1.99711
1.99173
1.98485
1.9769
1.9686
1.96043
1.95351
1.9482
1.94365
1.93869
1.93118
1.91999
1.91094
1.90688
1.90387
1.90109
1.89799
1.89324
1.88427
1.87112
1.86117
1.85562
1.85157
1.8484
1.84555
1.84197
1.83622
1.82269
2.21338
2.14534
2.07821
2.01445
1.94483
1.88337
1.83271
1.77875
1.71595
1.66421
1.638
1.60772
1.56832
1.52554
1.48207
1.46443
1.45611
1.44052
1.41857
1.39032
1.35561
1.33521
1.32716
1.31787
1.30818
1.30367
1.29906
1.29062
1.28751
1.29089
1.31155
1.4308
1.64532
1.76489
1.8274
1.86833
1.89413
1.90516
1.90751
1.91041
1.95491
2.11521
2.27553
2.33991
2.34118
2.33002
2.31466
2.30213
2.29824
2.2977
2.29778
2.29244
2.28443
2.27163
2.26018
2.25518
2.25248
2.2507
2.24476
2.23637
2.22342
2.20821
2.19905
2.19281
2.18929
2.18542
2.18019
2.17301
2.16253
2.15378
2.14811
2.14279
2.1369
2.12995
2.12115
2.11031
2.10073
2.09323
2.08588
2.07777
2.06829
2.05705
2.04578
2.03798
2.03317
2.02888
2.02455
2.01978
2.01343
2.00409
1.99359
1.98586
1.98005
1.97457
1.96915
1.96391
1.95855
1.95211
1.94419
1.93614
1.92898
1.92225
1.91512
1.90678
1.89834
1.89384
1.89187
1.89059
1.88749
1.88229
1.87264
1.85775
1.84407
1.83721
1.83376
1.83116
1.82919
1.82693
1.82386
1.81332
2.22194
2.16193
2.10098
2.04353
1.98248
1.92204
1.87016
1.82318
1.77263
1.72508
1.67496
1.6371
1.6166
1.58972
1.55325
1.50992
1.47872
1.47057
1.46309
1.44765
1.42249
1.38476
1.36062
1.3557
1.34646
1.33488
1.32477
1.31436
1.30434
1.32071
1.42279
1.59627
1.68818
1.73027
1.75115
1.76527
1.78287
1.80613
1.83381
1.85279
1.86031
1.90565
2.06355
2.22949
2.30819
2.3256
2.31727
2.30042
2.28698
2.282
2.27976
2.28075
2.2761
2.26878
2.25729
2.248
2.24272
2.23847
2.23447
2.22776
2.21844
2.20429
2.19173
2.18439
2.17996
2.17647
2.17162
2.16605
2.15797
2.14779
2.13975
2.13345
2.12697
2.12002
2.1118
2.10148
2.09051
2.08151
2.07421
2.06715
2.05946
2.0497
2.03694
2.02645
2.0215
2.01783
2.0145
2.01078
2.00609
1.99875
1.98675
1.97455
1.96665
1.9611
1.95656
1.95267
1.94879
1.94384
1.93624
1.92631
1.91704
1.9096
1.90338
1.89788
1.89235
1.88599
1.87919
1.87329
1.8694
1.86499
1.85863
1.84876
1.83753
1.82836
1.82264
1.81884
1.81576
1.8133
1.81121
1.80459
2.2261
2.17341
2.11845
2.06606
2.01121
1.95669
1.90704
1.85526
1.81069
1.77461
1.73092
1.68154
1.64367
1.62439
1.60438
1.57444
1.53724
1.4987
1.48176
1.47698
1.46555
1.44303
1.41115
1.38721
1.38046
1.36774
1.35328
1.34398
1.3607
1.45784
1.63063
1.72048
1.73842
1.73334
1.72703
1.72251
1.72424
1.72934
1.7382
1.75199
1.76535
1.77609
1.82306
1.97657
2.17262
2.28556
2.30772
2.303
2.28497
2.27361
2.26767
2.26741
2.26865
2.26435
2.25725
2.24638
2.23669
2.23016
2.22444
2.21861
2.2116
2.20169
2.18875
2.17934
2.17307
2.16824
2.16328
2.15798
2.15131
2.14203
2.13204
2.12371
2.11625
2.10867
2.10057
2.09138
2.0808
2.07107
2.06382
2.05739
2.05071
2.04293
2.03295
2.0215
2.01316
2.00856
2.00539
2.00234
1.99789
1.99126
1.98057
1.96682
1.9562
1.94993
1.94577
1.94219
1.93864
1.93435
1.92728
1.91595
1.90532
1.89913
1.89474
1.89067
1.88591
1.8788
1.86867
1.85895
1.85222
1.84736
1.84257
1.83824
1.83292
1.82504
1.81582
1.81032
1.80739
1.80483
1.80223
1.7954
2.22546
2.17942
2.13242
2.08435
2.0324
1.98426
1.94043
1.8924
1.84341
1.80512
1.77053
1.73307
1.69609
1.65528
1.62564
1.60991
1.58813
1.55676
1.51914
1.49538
1.4883
1.47769
1.4596
1.43413
1.41221
1.39968
1.39237
1.40894
1.50149
1.66302
1.76831
1.77168
1.76034
1.74468
1.72759
1.72112
1.7207
1.72192
1.72544
1.72229
1.71656
1.70925
1.70794
1.72975
1.86299
2.07599
2.23397
2.29123
2.28607
2.27243
2.26163
2.25772
2.25845
2.25852
2.25318
2.24454
2.23249
2.22236
2.21536
2.20929
2.20328
2.19607
2.18565
2.17457
2.16721
2.16102
2.15469
2.14814
2.14099
2.13218
2.12169
2.1125
2.10497
2.09771
2.09019
2.08188
2.07194
2.06119
2.05304
2.04709
2.04115
2.03483
2.02795
2.02017
2.01072
2.00096
1.99435
1.99
1.98583
1.98018
1.97162
1.96119
1.95082
1.94206
1.93591
1.93132
1.92711
1.9227
1.91657
1.90664
1.89634
1.89065
1.88659
1.88255
1.87791
1.87125
1.86038
1.84734
1.83781
1.83243
1.82971
1.82751
1.82439
1.81974
1.81328
1.80498
1.79722
1.79062
1.788
1.78407
2.22114
2.18031
2.13942
2.09557
2.04929
2.0063
1.96343
1.9193
1.87791
1.83951
1.797
1.76284
1.73701
1.70283
1.66206
1.62866
1.61357
1.59772
1.57059
1.53384
1.50998
1.49965
1.48932
1.47213
1.45186
1.43872
1.45807
1.55781
1.70083
1.80354
1.80869
1.79753
1.78611
1.77572
1.76117
1.7483
1.73951
1.73084
1.72299
1.7165
1.70961
1.70325
1.70019
1.69069
1.69103
1.74938
1.93684
2.13365
2.24299
2.26764
2.25735
2.25003
2.2495
2.24825
2.24339
2.23566
2.22421
2.21217
2.20445
2.19816
2.19276
2.18663
2.17822
2.16723
2.15888
2.15219
2.14546
2.13828
2.12992
2.11914
2.10737
2.09916
2.09283
2.08682
2.08081
2.07431
2.06622
2.05514
2.04342
2.03633
2.03112
2.02645
2.02143
2.01554
2.00755
1.99693
1.98587
1.97697
1.96987
1.96324
1.95767
1.95214
1.94541
1.93668
1.92775
1.92186
1.91786
1.91297
1.90647
1.89866
1.89078
1.88356
1.87753
1.87287
1.86833
1.86155
1.85157
1.83956
1.82932
1.82346
1.82035
1.81787
1.81595
1.81349
1.80839
1.79923
1.78842
1.78032
1.77651
1.77039
2.21294
2.17818
2.14147
2.10176
2.06233
2.02382
1.9832
1.94081
1.90442
1.86902
1.83115
1.79215
1.76175
1.7345
1.70368
1.67051
1.63751
1.61749
1.60185
1.57886
1.54932
1.52612
1.51036
1.49829
1.49409
1.52444
1.64086
1.77014
1.83417
1.84042
1.82969
1.821
1.81637
1.80825
1.79469
1.77503
1.7593
1.74955
1.73948
1.73075
1.72179
1.71112
1.69994
1.68774
1.67856
1.67372
1.68558
1.7903
1.99246
2.15818
2.22438
2.23289
2.23513
2.23284
2.22857
2.22065
2.2078
2.19576
2.18911
2.18369
2.17966
2.17431
2.16683
2.15616
2.14611
2.1394
2.133
2.12608
2.11783
2.10702
2.09426
2.08454
2.07911
2.07468
2.07087
2.066
2.05962
2.04998
2.03673
2.02642
2.02055
2.01536
2.01062
2.00631
2.00038
1.99201
1.97921
1.96489
1.95503
1.94934
1.94495
1.94142
1.93713
1.93132
1.92332
1.9134
1.9038
1.89713
1.89173
1.88699
1.8824
1.87713
1.87015
1.86124
1.85171
1.84377
1.83695
1.831
1.82623
1.82128
1.81562
1.81002
1.80506
1.80066
1.7957
1.78883
1.78112
1.77319
1.76629
1.7574
2.20324
2.17297
2.1399
2.1046
2.07046
2.0347
1.99592
1.95989
1.92544
1.88964
1.85391
1.82155
1.79018
1.75522
1.72653
1.70481
1.676
1.64252
1.6205
1.60638
1.5866
1.55785
1.53569
1.53718
1.57695
1.7102
1.85119
1.89096
1.87879
1.85848
1.84718
1.84225
1.84006
1.83151
1.81912
1.80108
1.78011
1.76884
1.75976
1.74931
1.73842
1.72636
1.71263
1.69869
1.68542
1.67136
1.6652
1.66455
1.69521
1.83559
2.02899
2.15153
2.18688
2.20779
2.2088
2.2023
2.1877
2.17366
2.16732
2.16319
2.162
2.15862
2.15251
2.14302
2.1302
2.12156
2.11598
2.11027
2.10372
2.0952
2.08329
2.07165
2.06544
2.06151
2.05872
2.05504
2.0499
2.04265
2.03056
2.01633
2.00816
2.00322
1.99858
1.99415
1.98942
1.98341
1.97297
1.9573
1.94488
1.93804
1.93313
1.92873
1.92528
1.92177
1.91632
1.90725
1.89444
1.88529
1.88135
1.87874
1.87537
1.87055
1.86306
1.85199
1.84068
1.83165
1.82656
1.82417
1.82162
1.81719
1.81082
1.80264
1.79387
1.78629
1.78135
1.77758
1.77238
1.76533
1.75792
1.74612
2.19326
2.16558
2.13577
2.1051
2.0739
2.04043
2.00567
1.97414
1.9414
1.9072
1.87278
1.84356
1.81359
1.78258
1.75035
1.72749
1.70418
1.67719
1.6477
1.62705
1.60883
1.58667
1.58868
1.64195
1.76026
1.89724
1.93692
1.92637
1.90204
1.87951
1.86821
1.86231
1.85858
1.84899
1.83713
1.82207
1.80184
1.78532
1.77373
1.76291
1.75259
1.74154
1.72834
1.71302
1.69665
1.68364
1.6709
1.66046
1.6531
1.65694
1.71587
1.8717
2.03102
2.12977
2.15905
2.17495
2.16789
2.15428
2.1433
2.13788
2.13685
2.13627
2.13233
2.12606
2.11467
2.10223
2.09518
2.09016
2.08533
2.07986
2.07226
2.0621
2.05269
2.04737
2.04361
2.03979
2.03571
2.03054
2.02169
2.00792
1.99556
1.98886
1.98437
1.98012
1.9756
1.97054
1.96398
1.95365
1.93962
1.92838
1.92176
1.91726
1.91388
1.91109
1.90735
1.90078
1.89058
1.87965
1.87116
1.86521
1.86071
1.85595
1.85002
1.8427
1.83529
1.82932
1.82316
1.81565
1.81132
1.80847
1.80291
1.79419
1.78437
1.77579
1.76833
1.762
1.75873
1.75562
1.74993
1.73741
2.1846
2.15865
2.13107
2.10358
2.07418
2.04249
2.01248
1.98268
1.95179
1.91842
1.88969
1.86047
1.83097
1.80112
1.77474
1.74969
1.72324
1.69844
1.67256
1.6508
1.6325
1.64585
1.72307
1.83873
1.92316
1.96736
1.96181
1.94549
1.92689
1.90573
1.88812
1.87856
1.8716
1.86226
1.85022
1.83697
1.82022
1.80287
1.79013
1.77833
1.76637
1.7539
1.74009
1.72483
1.70859
1.69457
1.68286
1.67121
1.6586
1.64922
1.64048
1.64818
1.72637
1.88912
2.0221
2.1033
2.1254
2.13243
2.12355
2.11365
2.11027
2.10852
2.10611
2.10211
2.09545
2.08472
2.07401
2.06757
2.063
2.05875
2.05391
2.04752
2.03976
2.03192
2.02537
2.02049
2.01626
2.01174
2.00581
1.99674
1.98503
1.97494
1.96893
1.9644
1.96001
1.95565
1.95113
1.94513
1.93539
1.92304
1.91311
1.90632
1.90091
1.8963
1.8919
1.88742
1.88208
1.87442
1.8637
1.85459
1.84852
1.84335
1.83768
1.8333
1.8302
1.8263
1.81963
1.80947
1.799
1.79087
1.78617
1.78212
1.77601
1.76765
1.75893
1.75166
1.74518
1.73923
1.73399
1.72571
2.17484
2.15087
2.126
2.09997
2.07202
2.04377
2.01643
1.98762
1.95722
1.9282
1.90194
1.87399
1.84559
1.81721
1.79379
1.7679
1.74312
1.71353
1.69356
1.6808
1.70676
1.81034
1.9377
1.98391
1.98604
1.98014
1.96704
1.95796
1.94703
1.93059
1.9088
1.89296
1.88228
1.87258
1.86058
1.84729
1.83244
1.81555
1.8014
1.78943
1.7775
1.76536
1.75175
1.73494
1.71629
1.7006
1.6893
1.67901
1.66811
1.6566
1.6449
1.63374
1.62062
1.63736
1.73844
1.89087
2.01911
2.07244
2.09233
2.09289
2.08567
2.08142
2.0769
2.07218
2.0679
2.06099
2.05192
2.04528
2.04077
2.03658
2.03195
2.0263
2.01925
2.01157
2.00491
1.99953
1.99449
1.98924
1.98365
1.97757
1.97022
1.96185
1.95439
1.94883
1.94431
1.94017
1.9361
1.93146
1.92494
1.91558
1.90507
1.89555
1.88755
1.88098
1.87672
1.87418
1.8716
1.86646
1.85751
1.84608
1.83689
1.83176
1.82905
1.82799
1.82549
1.82105
1.81386
1.803
1.78974
1.77855
1.77058
1.76587
1.76281
1.75909
1.75306
1.74499
1.73563
1.72689
1.7218
1.71637
2.16517
2.14294
2.12007
2.09553
2.069
2.04359
2.0178
1.99042
1.96135
1.93635
1.91037
1.8845
1.85572
1.83242
1.80647
1.78186
1.75524
1.72954
1.73104
1.77674
1.88013
2.01039
2.05185
2.03467
2.00905
1.9851
1.9741
1.97067
1.96275
1.94773
1.92782
1.90733
1.89306
1.88102
1.86862
1.85534
1.84187
1.82712
1.81167
1.79797
1.78537
1.77301
1.75998
1.74467
1.72529
1.70657
1.69329
1.68297
1.67279
1.66201
1.65033
1.63716
1.62225
1.60498
1.59948
1.63129
1.75614
1.89805
2.00407
2.04334
2.05107
2.05355
2.04805
2.04181
2.03792
2.03208
2.02586
2.02034
2.01661
2.01355
2.00964
2.00374
1.9954
1.98624
1.97934
1.97487
1.97103
1.96675
1.96178
1.95614
1.94985
1.94293
1.93641
1.93142
1.92745
1.92364
1.91942
1.91444
1.90846
1.90125
1.89286
1.88408
1.87547
1.86818
1.86272
1.85765
1.85298
1.84996
1.84619
1.83832
1.82989
1.82388
1.819
1.814
1.80967
1.80641
1.80282
1.79534
1.78254
1.76901
1.75992
1.75392
1.75015
1.74785
1.74537
1.73958
1.72966
1.72014
1.71697
1.71242
2.15311
2.13371
2.11231
2.08907
2.06577
2.04253
2.01769
1.9909
1.96619
1.94223
1.91716
1.89024
1.86545
1.84186
1.8158
1.79257
1.77031
1.78158
1.85605
1.95903
2.04125
2.0785
2.07117
2.04834
2.02225
2.0001
1.9903
1.98477
1.9753
1.96104
1.94341
1.92122
1.90388
1.89034
1.87767
1.86499
1.85188
1.83735
1.82054
1.80368
1.7891
1.77588
1.76304
1.74964
1.73411
1.71508
1.69786
1.6855
1.67426
1.66335
1.65259
1.64107
1.62725
1.61162
1.59414
1.58137
1.58465
1.63667
1.763
1.8961
1.98127
2.00427
2.01154
2.01609
2.01254
2.00502
1.99825
1.99232
1.98919
1.98795
1.98559
1.98103
1.97335
1.96182
1.95129
1.94656
1.94411
1.94199
1.93952
1.93608
1.93099
1.92342
1.91506
1.90989
1.9069
1.90413
1.90078
1.89591
1.8889
1.88061
1.87312
1.86713
1.86164
1.85604
1.84936
1.84202
1.83584
1.83065
1.8262
1.8229
1.81971
1.8153
1.80826
1.80112
1.79563
1.79048
1.78578
1.78083
1.77377
1.76393
1.75454
1.74687
1.7407
1.73516
1.73056
1.72637
1.72124
1.71637
1.71415
1.70958
2.13983
2.12316
2.1042
2.08303
2.06214
2.04059
2.01724
1.99282
1.97013
1.94648
1.92198
1.89529
1.87334
1.84696
1.82625
1.81406
1.84443
1.94493
2.05231
2.08917
2.10457
2.09823
2.07957
2.06136
2.04061
2.01796
2.00519
1.99584
1.98379
1.96909
1.95185
1.92963
1.91066
1.89838
1.88654
1.87425
1.86133
1.84642
1.82777
1.80785
1.79131
1.77767
1.76496
1.75212
1.73833
1.72239
1.70455
1.68883
1.67596
1.66356
1.65118
1.63919
1.627
1.61424
1.60017
1.58434
1.57026
1.55937
1.56734
1.63761
1.76135
1.87764
1.94548
1.96608
1.98005
1.98183
1.9742
1.96453
1.9611
1.96001
1.95805
1.95485
1.94977
1.93944
1.92581
1.91951
1.91717
1.91597
1.9154
1.91433
1.91165
1.90546
1.89462
1.88515
1.88146
1.87961
1.8776
1.8744
1.86923
1.86131
1.85174
1.84494
1.84152
1.83843
1.83444
1.82865
1.81992
1.81089
1.80755
1.80708
1.80626
1.80323
1.79717
1.78941
1.78156
1.77439
1.76749
1.76178
1.75685
1.75299
1.7492
1.74398
1.73509
1.72547
1.71914
1.71611
1.71476
1.71385
1.71152
1.70332
2.12314
2.10868
2.09271
2.07562
2.0569
2.03631
2.0142
1.9934
1.97125
1.94872
1.92279
1.89956
1.87727
1.85575
1.8595
1.91548
2.02384
2.12319
2.14147
2.12418
2.11019
2.09876
2.0868
2.07359
2.05626
2.03253
2.01609
2.00522
1.99342
1.97884
1.96048
1.93735
1.9187
1.90584
1.89425
1.8819
1.86802
1.8519
1.83253
1.81204
1.79498
1.78086
1.76767
1.75439
1.7403
1.72502
1.70824
1.69135
1.67689
1.66386
1.65083
1.63782
1.62591
1.61449
1.6028
1.58897
1.57359
1.55652
1.54611
1.53821
1.55139
1.62712
1.75178
1.85523
1.91429
1.94158
1.94846
1.94121
1.93516
1.93361
1.93019
1.92661
1.92314
1.91561
1.90267
1.89421
1.89169
1.89055
1.89006
1.88954
1.88796
1.88425
1.87608
1.86436
1.85557
1.85087
1.84835
1.84672
1.84481
1.84096
1.83388
1.8254
1.81966
1.81655
1.81387
1.81039
1.80494
1.79806
1.7916
1.78617
1.78326
1.78179
1.77993
1.77615
1.76927
1.75951
1.74985
1.74326
1.74166
1.74186
1.74132
1.738
1.73027
1.72079
1.71389
1.70903
1.70428
1.69929
1.69556
1.68759
2.11023
2.09666
2.08231
2.0668
2.04989
2.03066
2.01147
1.99172
1.97073
1.94817
1.9232
1.90496
1.88959
1.91149
1.99788
2.09824
2.16364
2.18905
2.17621
2.14546
2.11382
2.10051
2.09347
2.08175
2.06648
2.04491
2.02491
2.01251
2.00069
1.98611
1.9681
1.94653
1.92744
1.91162
1.89775
1.88445
1.86995
1.85331
1.83436
1.81493
1.79804
1.78345
1.7696
1.75578
1.74157
1.72623
1.70949
1.6923
1.67641
1.66223
1.64918
1.6368
1.62503
1.61371
1.60255
1.59024
1.57567
1.55973
1.54529
1.53112
1.52229
1.51688
1.53725
1.62046
1.73696
1.83219
1.89657
1.90483
1.91081
1.90909
1.9046
1.89969
1.895
1.8883
1.87868
1.87225
1.86996
1.86785
1.86538
1.86379
1.86257
1.86026
1.8534
1.84314
1.83394
1.82731
1.82307
1.82029
1.81809
1.8158
1.81216
1.80639
1.80002
1.79502
1.7912
1.78797
1.78499
1.78105
1.77406
1.76577
1.76177
1.75987
1.75805
1.75606
1.75273
1.74648
1.73832
1.7324
1.72803
1.72461
1.72311
1.72163
1.71888
1.71459
1.70895
1.70162
1.69306
1.68519
1.67894
1.67132
2.09663
2.0833
2.0696
2.0551
2.03931
2.0218
2.00581
1.98672
1.9671
1.94524
1.92596
1.92699
1.9724
2.08682
2.1805
2.1904
2.19245
2.19151
2.17772
2.15614
2.1263
2.11098
2.10262
2.08796
2.07284
2.05412
2.03349
2.01845
2.00497
1.98989
1.97275
1.95305
1.93418
1.91744
1.90126
1.8857
1.87006
1.85332
1.83513
1.81672
1.80023
1.78566
1.77176
1.75783
1.74318
1.72703
1.70897
1.69041
1.67389
1.65975
1.64718
1.63525
1.62332
1.61076
1.59731
1.58372
1.57092
1.55914
1.54757
1.53567
1.52357
1.51052
1.49582
1.49288
1.52295
1.60819
1.73341
1.815
1.86088
1.87275
1.87904
1.87644
1.86813
1.85976
1.8537
1.85115
1.85
1.84884
1.84596
1.84098
1.83402
1.82596
1.82117
1.81705
1.81249
1.80849
1.80462
1.80011
1.79535
1.79115
1.78734
1.78304
1.77867
1.7746
1.77089
1.76753
1.7642
1.75986
1.75322
1.74556
1.74063
1.73801
1.73595
1.73385
1.73143
1.72882
1.72604
1.72165
1.71409
1.70693
1.70454
1.70364
1.70269
1.70096
1.69795
1.69262
1.68283
1.6701
1.66068
1.65524
2.08
2.06824
2.05589
2.0422
2.0274
2.01311
1.99714
1.97877
1.96218
1.9481
1.96454
2.04455
2.15746
2.246
2.25421
2.22606
2.19545
2.18195
2.17589
2.16358
2.13969
2.1211
2.10882
2.0926
2.07655
2.05855
2.03831
2.02114
2.00625
1.99094
1.97411
1.95519
1.936
1.91895
1.90288
1.88705
1.87073
1.8529
1.83333
1.81424
1.79815
1.78433
1.77117
1.75786
1.74361
1.727
1.70688
1.68584
1.66893
1.65605
1.64495
1.63413
1.62278
1.61001
1.59539
1.57954
1.56522
1.55438
1.54511
1.53601
1.52568
1.5126
1.49655
1.48142
1.47058
1.4738
1.51359
1.61247
1.72046
1.7921
1.82998
1.84156
1.83761
1.83684
1.83333
1.83159
1.83104
1.8297
1.82632
1.81893
1.80923
1.79891
1.79159
1.79081
1.79001
1.78816
1.78615
1.7828
1.77728
1.77029
1.76475
1.76188
1.75799
1.7535
1.74994
1.74708
1.7438
1.73894
1.73139
1.72276
1.71743
1.71529
1.71393
1.71263
1.71187
1.71177
1.71112
1.70754
1.69873
1.68843
1.68484
1.68431
1.68436
1.6851
1.68442
1.68086
1.6711
1.65458
1.64355
1.64405
2.06853
2.05486
2.04249