/*--------------------------------*- C++ -*----------------------------------*\
  =========                 |
  \\      /  F ield         | OpenFOAM: The Open Source CFD Toolbox
   \\    /   O peration     | Website:  https://openfoam.org
    \\  /    A nd           | Version:  9
     \\/     M anipulation  |
\*---------------------------------------------------------------------------*/
FoamFile
{
    format      ascii;
    class       surfaceScalarField;
    location    "8.2";
    object      phi;
}
// * * * * * * * * * * * * * * * * * * * * * * * * * * * * * * * * * * * * * //

dimensions      [0 3 -1 0 0 0 0];

internalField   nonuniform List<scalar> 
16735
(
-0.00151406
0.00151406
3.10629e-12
-0.00414384
0.00262978
4.77006e-11
-0.00702331
0.00287947
1.06689e-10
-0.00941128
0.00238796
1.8196e-10
-0.0107395
0.00132818
2.78528e-10
-0.0104663
-0.000273153
3.9355e-10
-0.00809043
-0.00237587
5.29596e-10
-0.00303164
-0.00505879
6.7628e-10
0.0047439
-0.00777554
8.23276e-10
-0.0112417
9.59097e-10
0.0159856
-0.00148254
0.0029966
-0.00403426
0.0051815
-0.0067882
0.00563341
-0.00899888
0.00459865
-0.0100903
0.0024196
-0.00951127
-0.000852182
-0.00674783
-0.00513931
-0.00123199
-0.0105746
0.0071766
-0.0161841
-0.0232314
0.0191662
-0.00142005
0.00441665
-0.00381672
0.00757816
-0.00632113
0.00813782
-0.00817935
0.00645686
-0.00880006
0.00304032
-0.00761242
-0.00203983
-0.00407469
-0.00867704
0.0024009
-0.0170502
0.0120122
-0.0257954
-0.036693
0.0254738
-0.00132769
0.00574435
-0.00349439
0.00974486
-0.00562832
0.0102718
-0.00696301
0.00779155
-0.00688493
0.00296224
-0.00479353
-0.00413124
-6.11869e-05
-0.0134094
0.00780619
-0.0249176
0.0191795
-0.0371687
-0.0523134
0.0347999
-0.00120702
0.00695137
-0.00307186
0.0116097
-0.00471875
0.0119186
-0.00536483
0.00843763
-0.00436803
0.00196543
-0.00109775
-0.00740151
0.00508851
-0.0195956
0.0148733
-0.0347024
0.0285688
-0.0508643
-0.0707274
0.0469828
-0.00106001
0.00801138
-0.00255492
0.0131046
-0.00360383
0.0129676
-0.00340383
0.00823763
-0.00127754
-0.000160859
0.00344684
-0.0121259
0.0114571
-0.0276059
0.0235173
-0.0467625
0.0400389
-0.0673859
-0.0924987
0.0618102
-0.000888949
0.00890033
-0.00195031
0.014166
-0.00229694
0.0133142
-0.00110244
0.00704313
0.00234853
-0.00361183
0.00877829
-0.0185557
0.0189262
-0.0377538
0.033622
-0.0614584
0.0534165
-0.0871804
-0.118103
0.079021
-0.000696324
0.00959666
-0.00126542
0.0147351
-0.000812917
0.0128617
0.00151366
0.00471656
0.00647237
-0.00857055
0.0148364
-0.0269197
0.0274023
-0.0503197
0.0450504
-0.0791065
0.0684975
-0.110627
-0.147914
0.0983079
-0.000484848
0.0100815
-0.000507851
0.0147581
0.000832626
0.0115212
0.00441787
0.00113132
0.0110512
-0.0152039
0.0215555
-0.0374239
0.036784
-0.0655482
0.0576482
-0.0999707
0.0850484
-0.138028
-0.182183
0.119318
-0.000258016
0.0103395
0.00031317
0.0141869
0.00262319
0.00921119
0.00758191
-0.0038274
0.016039
-0.023661
0.0288641
-0.0502491
0.046961
-0.083645
0.0712457
-0.124255
0.102808
-0.16959
-0.221028
0.141653
-7.6302e-06
0.0103472
0.00119234
0.0129869
0.00454293
0.00586061
0.010977
-0.0102615
0.0213881
-0.0340721
0.036687
-0.065548
0.0578153
-0.104773
0.0856603
-0.1521
0.121491
-0.205421
-0.264413
0.164876
0.000243062
0.0101041
0.00212097
0.011109
0.00657623
0.00140534
0.0145746
-0.0182599
0.0270502
-0.0465476
0.0449455
-0.0834433
0.0692217
-0.12905
0.100697
-0.183576
0.14079
-0.245514
-0.312143
0.188519
0.000507802
0.00959629
0.00309279
0.00852402
0.00870822
-0.00421009
0.0183467
-0.0278983
0.0329762
-0.0611771
0.0535576
-0.104025
0.0810473
-0.156539
0.116151
-0.218679
0.160377
-0.289741
-0.363853
0.212088
0.000781644
0.00881464
0.00410201
0.00520365
0.010925
-0.0110331
0.0222657
-0.039239
0.0391162
-0.0780276
0.0624381
-0.127347
0.0931515
-0.187253
0.131805
-0.257333
0.179912
-0.337848
-0.419019
0.235077
0.00106319
0.00775145
0.00514349
0.00112336
0.0132137
-0.0191034
0.0263048
-0.0523301
0.0454195
-0.0971423
0.0714978
-0.153425
0.105385
-0.22114
0.147435
-0.299382
0.199041
-0.389454
-0.476961
0.256984
0.00135159
0.00639986
0.00621284
-0.00373789
0.0155622
-0.0284527
0.030437
-0.0672049
0.0518335
-0.118539
0.0806427
-0.182234
0.117591
-0.258088
0.162807
-0.344598
0.217409
-0.444057
-0.536889
0.277337
0.00164629
0.00475356
0.00730622
-0.00939782
0.0179585
-0.039105
0.0346351
-0.0838815
0.0583033
-0.142207
0.0897729
-0.213704
0.129601
-0.297916
0.177679
-0.392677
0.234655
-0.501033
-0.597982
0.295748
0.001947
0.00280657
0.00842013
-0.015871
0.020391
-0.0510758
0.0388704
-0.102361
0.0647702
-0.168107
0.098782
-0.247716
0.141243
-0.340377
0.191816
-0.443249
0.250432
-0.55965
-0.65951
0.31196
0.00225354
0.000553021
0.00955115
-0.0231686
0.0228474
-0.0643721
0.0431123
-0.122626
0.0711711
-0.196166
0.107556
-0.2841
0.15234
-0.385161
0.204992
-0.495901
0.264456
-0.619114
-0.72095
0.325897
0.0025658
-0.00201278
0.0106957
-0.0312984
0.0253144
-0.0789909
0.0473276
-0.144639
0.0774378
-0.226276
0.115972
-0.322635
0.162706
-0.431895
0.216951
-0.550146
0.276575
-0.678738
-0.783032
0.338656
0.00288357
-0.00489636
0.0118495
-0.0402643
0.027777
-0.0949184
0.0514797
-0.168342
0.083497
-0.258293
0.123904
-0.363042
0.172139
-0.480129
0.227281
-0.605288
0.286875
-0.738332
-0.858122
0.361965
0.00320645
-0.00810281
0.0130077
-0.0500655
0.0302184
-0.112129
0.0555284
-0.193652
0.0892717
-0.292036
0.131224
-0.404995
0.180452
-0.529357
0.235717
-0.660553
0.294198
-0.796814
-0.925934
0.36201
0.00353376
-0.0116366
0.0141642
-0.060696
0.0326195
-0.130584
0.0594305
-0.220462
0.0946826
-0.327288
0.137811
-0.448123
0.187495
-0.57904
0.242119
-0.715178
0.298683
-0.853378
-0.987371
0.360121
0.00386446
-0.015501
0.015312
-0.0721436
0.0349587
-0.150231
0.0631395
-0.248643
0.0996501
-0.363799
0.143554
-0.492027
0.193151
-0.628637
0.246473
-0.7685
0.300589
-0.907494
-1.04313
0.356345
0.00419705
-0.0196981
0.0164425
-0.0843891
0.0372123
-0.171001
0.0666072
-0.278038
0.104096
-0.401288
0.148356
-0.536287
0.197334
-0.677614
0.248785
-0.819951
0.299978
-0.958687
-1.0937
0.350552
0.00452961
-0.0242277
0.0175459
-0.0974053
0.0393543
-0.192809
0.0697838
-0.308468
0.107947
-0.439452
0.152134
-0.580473
0.199988
-0.725469
0.249087
-0.86905
0.296978
-1.00658
-1.13946
0.342733
0.00485969
-0.0290874
0.018611
-0.111157
0.0413573
-0.215556
0.0726199
-0.33973
0.111136
-0.477968
0.154822
-0.62416
0.20109
-0.771737
0.247444
-0.915404
0.291763
-1.0509
-1.18067
0.332979
0.00518441
-0.0342718
0.0196258
-0.125598
0.0431927
-0.239123
0.0750679
-0.371605
0.113603
-0.516503
0.156378
-0.666935
0.200644
-0.816003
0.243947
-0.958706
0.284531
-1.09148
-1.21759
0.321446
0.00550044
-0.0397722
0.0205771
-0.140675
0.044832
-0.263377
0.0770833
-0.403857
0.115301
-0.554721
0.156778
-0.708411
0.198688
-0.857913
0.238715
-0.998733
0.275488
-1.12825
-1.25042
0.308325
0.00580411
-0.0455763
0.0214513
-0.156322
0.046247
-0.288173
0.0786265
-0.436236
0.116196
-0.59229
0.156019
-0.748234
0.195281
-0.897175
0.231883
-1.03534
0.264846
-1.16122
-1.27939
0.293815
0.00609144
-0.0516678
0.0222346
-0.172465
0.0474109
-0.313349
0.0796641
-0.468489
0.116265
-0.628892
0.154121
-0.78609
0.190505
-0.933559
0.223602
-1.06843
0.252811
-1.19043
-1.3047
0.278116
0.00635824
-0.058026
0.0229133
-0.18902
0.0482995
-0.338736
0.0801699
-0.50036
0.115502
-0.664224
0.151119
-0.821707
0.184457
-0.966897
0.214024
-1.098
0.239581
-1.21598
-1.32653
0.261417
0.00660024
-0.0646263
0.0234742
-0.205894
0.0488914
-0.364153
0.0801256
-0.531594
0.113912
-0.69801
0.147066
-0.85486
0.177246
-0.997077
0.203308
-1.12406
0.225339
-1.23802
-1.34508
0.243891
0.00681314
-0.0714394
0.0239048
-0.222986
0.049169
-0.389417
0.0795215
-0.561947
0.111514
-0.730003
0.142025
-0.885372
0.168986
-1.02404
0.191603
-1.14668
0.210254
-1.25667
-1.36052
0.225694
0.00699275
-0.0784321
0.0241942
-0.240187
0.0491186
-0.414342
0.0783558
-0.591184
0.108338
-0.759985
0.136071
-0.913105
0.159794
-1.04776
0.179054
-1.16594
0.194476
-1.27209
-1.37301
0.206962
0.00713507
-0.0855672
0.0243327
-0.257385
0.0487313
-0.43874
0.0766353
-0.619088
0.104422
-0.787771
0.129284
-0.937968
0.149786
-1.06826
0.165796
-1.18195
0.17814
-1.28443
-1.38269
0.187815
0.00723638
-0.0928036
0.0243122
-0.274461
0.0480024
-0.46243
0.074374
-0.645459
0.0998132
-0.813211
0.121748
-0.959903
0.139075
-1.08559
0.151953
-1.19483
0.161366
-1.29385
-1.38968
0.168357
0.00729334
-0.100097
0.0241268
-0.291294
0.0469322
-0.485236
0.0715925
-0.67012
0.0945648
-0.836183
0.113548
-0.978887
0.127766
-1.09981
0.137638
-1.2047
0.144257
-1.30046
-1.39409
0.148675
0.00730304
-0.1074
0.0237725
-0.307764
0.0455251
-0.506988
0.0683174
-0.692912
0.0887334
-0.856599
0.104768
-0.994921
0.115962
-1.111
0.122952
-1.21169
0.126904
-1.30442
-1.39604
0.128848
0.00726308
-0.114663
0.0232473
-0.323748
0.0437899
-0.527531
0.0645799
-0.713702
0.0823781
-0.874397
0.095491
-1.00803
0.103754
-1.11926
0.107985
-1.21592
0.109385
-1.30582
-1.3956
0.108943
0.00717158
-0.121835
0.0225515
-0.339128
0.0417388
-0.546718
0.0604149
-0.732378
0.0755593
-0.889542
0.0857953
-1.01827
0.0912278
-1.1247
0.0928172
-1.21751
0.0917708
-1.30477
-1.39284
0.0890174
0.00702728
-0.128862
0.0216872
-0.353788
0.0393878
-0.564419
0.0558602
-0.74885
0.0683369
-0.902018
0.0757557
-1.02569
0.0784614
-1.1274
0.0775199
-1.21657
0.0741194
-1.30137
-1.38784
0.0691203
0.00682951
-0.135691
0.0206585
-0.367617
0.0367552
-0.580516
0.0509554
-0.763051
0.0607702
-0.911833
0.0654424
-1.03036
0.0655251
-1.12748
0.0621556
-1.2132
0.0564843
-1.2957
-1.38065
0.0492946
0.00657819
-0.14227
0.0194713
-0.38051
0.033862
-0.594906
0.0457409
-0.77493
0.0529162
-0.919008
0.0549202
-1.03237
0.0524824
-1.12505
0.0467804
-1.2075
0.0389127
-1.28783
-1.37132
0.0295752
0.0062739
-0.148544
0.0181331
-0.392369
0.0307307
-0.607504
0.0402577
-0.784457
0.0448296
-0.92358
0.0442493
-1.03178
0.0393903
-1.12019
0.031445
-1.19955
0.0214493
-1.27784
-1.35984
0.00997096
0.00591775
-0.154461
0.016653
-0.403104
0.0273855
-0.618236
0.0345462
-0.791617
0.0365625
-0.925597
0.0334848
-1.02871
0.0262988
-1.113
0.0161919
-1.18944
0.00416909
-1.26581
-1.34625
-0.00942176
0.00551146
-0.159973
0.015041
-0.412634
0.0238511
-0.627047
0.0286462
-0.796412
0.0281639
-0.925114
0.0226775
-1.02322
0.0132545
-1.10358
0.00100977
-1.1772
-0.0129991
-1.2518
-1.3307
-0.0285431
0.00505726
-0.16503
0.0133083
-0.420885
0.0201529
-0.633891
0.0225961
-0.798855
0.0196794
-0.922198
0.011873
-1.01541
0.000291239
-1.092
-0.0139089
-1.163
-0.0299499
-1.23576
-1.3132
-0.0474493
0.00455788
-0.169588
0.0114669
-0.427794
0.0163164
-0.638741
0.0164329
-0.798972
0.0111515
-0.916916
0.00110665
-1.00537
-0.0125165
-1.07837
-0.0286771
-1.14684
-0.0466517
-1.21779
-1.29376
-0.0660917
0.00401648
-0.173604
0.00952933
-0.433307
0.0123671
-0.641578
0.010192
-0.796797
0.00262033
-0.909344
-0.00955972
-0.99319
-0.0251748
-1.06276
-0.0432272
-1.12879
-0.0630854
-1.19793
-1.27241
-0.0844408
0.00343665
-0.177041
0.00750827
-0.437378
0.0083298
-0.6424
0.00390746
-0.792375
-0.00587854
-0.899558
-0.0201158
-0.978952
-0.0376397
-1.04523
-0.0575264
-1.1089
-0.0792264
-1.17623
-1.24916
-0.102471
0.00282232
-0.179863
0.00541775
-0.439974
0.00422979
-0.641212
-0.00238971
-0.785755
-0.0143121
-0.887636
-0.0305233
-0.962741
-0.0498821
-1.02588
-0.0715463
-1.08723
-0.0950492
-1.15273
-1.22406
-0.120158
0.00217777
-0.182041
0.00327429
-0.44107
0.000123378
-0.638061
-0.00867322
-0.776958
-0.0226506
-0.873659
-0.0407531
-0.944639
-0.0618756
-1.00475
-0.0852609
-1.06385
-0.110528
-1.12746
-1.19711
-0.137478
0.00150842
-0.183549
0.00109768
-0.440659
-0.00408073
-0.632883
-0.0149156
-0.766124
-0.0308654
-0.857709
-0.0507793
-0.924725
-0.0735957
-0.981937
-0.0986451
-1.0388
-0.125638
-1.10047
-1.16833
-0.15441
0.00081806
-0.184368
-0.00111198
-0.438729
-0.00824411
-0.62575
-0.021089
-0.753279
-0.0389315
-0.839866
-0.0605782
-0.903078
-0.0850202
-0.957495
-0.111675
-1.01214
-0.140351
-1.07179
-1.13776
-0.170928
8.50094e-05
-0.184453
-0.00335838
-0.435286
-0.0123833
-0.616726
-0.0271705
-0.738491
-0.0468255
-0.820211
-0.0701288
-0.879775
-0.0961288
-0.931495
-0.124329
-0.983945
-0.154642
-1.04148
-1.10539
-0.187007
-0.000632586
-0.18382
-0.00560131
-0.430317
-0.0164807
-0.605846
-0.0331391
-0.721833
-0.0545266
-0.798824
-0.0794119
-0.85489
-0.106903
-0.904003
-0.136585
-0.954263
-0.168484
-1.00958
-1.07125
-0.202624
-0.00136329
-0.182457
-0.00783499
-0.423846
-0.0205191
-0.593162
-0.0389749
-0.703377
-0.062016
-0.775783
-0.0884104
-0.828495
-0.117327
-0.875087
-0.148426
-0.923164
-0.181853
-0.976151
-1.03536
-0.217747
-0.00209965
-0.180357
-0.010049
-0.415896
-0.0244824
-0.578729
-0.04466
-0.6832
-0.0692767
-0.751166
-0.0971088
-0.800663
-0.127385
-0.844811
-0.159835
-0.890714
-0.194706
-0.94128
-0.997786
-0.23228
-0.0028359
-0.177521
-0.0122327
-0.406499
-0.0283553
-0.562606
-0.0501781
-0.661377
-0.0762931
-0.725051
-0.105493
-0.771463
-0.137066
-0.813239
-0.170799
-0.856981
-0.206997
-0.905082
-0.958536
-0.246247
-0.00356736
-0.173954
-0.0143758
-0.395691
-0.0321238
-0.544858
-0.055514
-0.637987
-0.0830514
-0.697514
-0.113552
-0.740962
-0.146362
-0.780428
-0.181307
-0.822036
-0.218345
-0.868044
-0.919303
-0.257578
-0.00428967
-0.169664
-0.0164685
-0.383512
-0.0357746
-0.525552
-0.0606541
-0.613107
-0.0895389
-0.668629
-0.121274
-0.709227
-0.155264
-0.746438
-0.191375
-0.785924
-0.229638
-0.829782
-0.878815
-0.270126
-0.00499869
-0.164665
-0.0185018
-0.370009
-0.0392957
-0.504758
-0.0655862
-0.586817
-0.0957442
-0.638471
-0.128648
-0.676324
-0.16376
-0.711326
-0.200985
-0.7487
-0.240397
-0.790369
-0.837064
-0.282147
-0.00569046
-0.158975
-0.0204669
-0.355233
-0.0426758
-0.482549
-0.0702987
-0.559194
-0.101657
-0.607113
-0.135664
-0.642316
-0.17184
-0.67515
-0.210124
-0.710416
-0.250622
-0.749871
-0.794139
-0.293547
-0.00636124
-0.152614
-0.0223558
-0.339238
-0.0459049
-0.459
-0.0747815
-0.530317
-0.107267
-0.574627
-0.142315
-0.607269
-0.179497
-0.637968
-0.218788
-0.671125
-0.260321
-0.708338
-0.750117
-0.304343
-0.00700747
-0.145606
-0.024161
-0.322085
-0.0489734
-0.434188
-0.0790254
-0.500265
-0.112567
-0.541085
-0.148591
-0.571245
-0.186722
-0.599837
-0.226967
-0.630881
-0.269484
-0.66582
-0.70506
-0.314542
-0.00762581
-0.13798
-0.0258757
-0.303835
-0.0518729
-0.408191
-0.0830217
-0.469116
-0.117549
-0.506557
-0.154487
-0.534307
-0.193509
-0.560815
-0.234653
-0.589736
-0.278104
-0.62237
-0.659024
-0.324139
-0.00821314
-0.129767
-0.0274935
-0.284554
-0.0545956
-0.381088
-0.0867628
-0.436949
-0.122205
-0.471116
-0.159993
-0.496519
-0.199848
-0.520959
-0.241839
-0.547746
-0.286168
-0.57804
-0.612067
-0.333125
-0.00876653
-0.121001
-0.0290085
-0.264312
-0.0571344
-0.352963
-0.0902418
-0.403842
-0.126528
-0.434829
-0.165104
-0.457943
-0.205734
-0.480329
-0.248514
-0.504966
-0.293668
-0.532886
-0.564246
-0.341489
-0.0092833
-0.111717
-0.0304154
-0.24318
-0.0594831
-0.323895
-0.0934523
-0.369873
-0.130513
-0.397769
-0.169814
-0.418641
-0.211159
-0.438984
-0.254671
-0.461455
-0.30059
-0.486966
-0.515619
-0.349217
-0.00976097
-0.101956
-0.0317093
-0.221232
-0.0616358
-0.293968
-0.0963885
-0.33512
-0.134153
-0.360004
-0.174116
-0.378679
-0.216116
-0.396984
-0.260299
-0.417272
-0.306925
-0.440341
-0.466248
-0.356296
-0.0101973
-0.0917592
-0.032886
-0.198543
-0.0635874
-0.263267
-0.0990455
-0.299662
-0.137445
-0.321605
-0.178004
-0.33812
-0.220598
-0.35439
-0.265392
-0.372477
-0.31266
-0.393073
-0.416199
-0.36271
-0.0105902
-0.0811689
-0.0339415
-0.175192
-0.0653333
-0.231875
-0.101419
-0.263576
-0.140382
-0.282642
-0.181474
-0.297028
-0.224598
-0.311266
-0.26994
-0.327135
-0.317787
-0.345226
-0.365539
-0.368447
-0.010938
-0.0702309
-0.0348724
-0.151258
-0.0668696
-0.199878
-0.103504
-0.226942
-0.142961
-0.243184
-0.184521
-0.255468
-0.228112
-0.267675
-0.273937
-0.28131
-0.322294
-0.29687
-0.314339
-0.373494
-0.011239
-0.0589919
-0.0356758
-0.126821
-0.0681928
-0.167361
-0.105297
-0.189838
-0.145179
-0.203302
-0.187141
-0.213507
-0.231134
-0.223681
-0.277376
-0.235068
-0.326173
-0.248073
-0.262671
-0.377841
-0.0114919
-0.0475
-0.0363491
-0.101964
-0.0692998
-0.13441
-0.106797
-0.152341
-0.147032
-0.163066
-0.189329
-0.171209
-0.233659
-0.179351
-0.280251
-0.188477
-0.329418
-0.198906
-0.210612
-0.381478
-0.0116956
-0.0358044
-0.0368902
-0.0767691
-0.0701884
-0.101112
-0.107999
-0.11453
-0.148518
-0.122548
-0.191084
-0.128643
-0.235684
-0.134751
-0.282557
-0.141604
-0.332021
-0.149441
-0.158237
-0.384397
-0.0118491
-0.0239553
-0.0372976
-0.0513206
-0.0708565
-0.0675529
-0.108903
-0.0764845
-0.149634
-0.0818166
-0.192402
-0.0858746
-0.237206
-0.089947
-0.28429
-0.0945207
-0.333978
-0.0997522
-0.105624
-0.386591
-0.0119519
-0.0120034
-0.0375698
-0.0257027
-0.0713027
-0.03382
-0.109506
-0.0382815
-0.150379
-0.0409437
-0.193282
-0.042971
-0.238222
-0.0450075
-0.285447
-0.0472957
-0.335285
-0.0499136
-0.0528517
-0.388057
-0.0120034
2.44377e-11
-0.0377061
6.88853e-11
-0.0715261
9.4359e-11
-0.109808
9.98137e-11
-0.150751
9.65124e-11
-0.193722
8.88671e-11
-0.23873
7.99943e-11
-0.286026
7.31763e-11
-0.335939
6.76877e-11
6.31207e-11
-0.388791
-0.0120034
0.0120034
-0.0377061
0.0257027
-0.0715261
0.03382
-0.109808
0.0382815
-0.150751
0.0409437
-0.193722
0.042971
-0.23873
0.0450075
-0.286026
0.0472957
-0.335939
0.0499136
0.0528517
-0.388791
-0.0119519
0.0239553
-0.0375698
0.0513206
-0.0713027
0.0675529
-0.109506
0.0764845
-0.150379
0.0818166
-0.193282
0.0858746
-0.238222
0.089947
-0.285447
0.0945207
-0.335285
0.0997522
0.105624
-0.388057
-0.0118491
0.0358044
-0.0372976
0.0767691
-0.0708565
0.101112
-0.108903
0.11453
-0.149634
0.122548
-0.192402
0.128643
-0.237206
0.134751
-0.28429
0.141604
-0.333978
0.149441
0.158237
-0.386591
-0.0116956
0.0475
-0.0368902
0.101964
-0.0701884
0.13441
-0.107999
0.152341
-0.148518
0.163066
-0.191084
0.171209
-0.235684
0.179351
-0.282557
0.188477
-0.332021
0.198906
0.210612
-0.384397
-0.0114919
0.0589919
-0.0363491
0.126821
-0.0692998
0.167361
-0.106797
0.189838
-0.147032
0.203302
-0.189329
0.213507
-0.233659
0.223681
-0.280251
0.235068
-0.329418
0.248073
0.262671
-0.381478
-0.011239
0.0702309
-0.0356758
0.151258
-0.0681928
0.199878
-0.105297
0.226942
-0.145179
0.243184
-0.187141
0.255468
-0.231134
0.267675
-0.277376
0.28131
-0.326173
0.29687
0.314339
-0.377841
-0.010938
0.0811689
-0.0348724
0.175192
-0.0668696
0.231875
-0.103504
0.263576
-0.142961
0.282642
-0.184521
0.297028
-0.228112
0.311266
-0.273937
0.327135
-0.322294
0.345226
0.365539
-0.373494
-0.0105902
0.0917592
-0.0339415
0.198543
-0.0653333
0.263267
-0.101419
0.299662
-0.140382
0.321605
-0.181474
0.33812
-0.224598
0.35439
-0.26994
0.372477
-0.317787
0.393073
0.416199
-0.368447
-0.0101973
0.101956
-0.032886
0.221232
-0.0635874
0.293968
-0.0990455
0.33512
-0.137445
0.360004
-0.178004
0.378679
-0.220598
0.396984
-0.265392
0.417272
-0.31266
0.440341
0.466248
-0.36271
-0.00976097
0.111717
-0.0317093
0.24318
-0.0616358
0.323895
-0.0963885
0.369873
-0.134153
0.397769
-0.174116
0.418641
-0.216116
0.438984
-0.260299
0.461455
-0.306925
0.486966
0.515619
-0.356296
-0.0092833
0.121001
-0.0304154
0.264312
-0.0594831
0.352963
-0.0934523
0.403842
-0.130513
0.434829
-0.169814
0.457943
-0.211159
0.480329
-0.254671
0.504966
-0.30059
0.532886
0.564246
-0.349217
-0.00876653
0.129767
-0.0290085
0.284554
-0.0571344
0.381088
-0.0902418
0.436949
-0.126528
0.471116
-0.165104
0.496519
-0.205734
0.520959
-0.248514
0.547746
-0.293668
0.57804
0.612067
-0.341489
-0.00821314
0.13798
-0.0274935
0.303835
-0.0545956
0.408191
-0.0867628
0.469116
-0.122205
0.506557
-0.159993
0.534307
-0.199848
0.560815
-0.241839
0.589736
-0.286168
0.62237
0.659024
-0.333125
-0.00762581
0.145606
-0.0258757
0.322085
-0.0518729
0.434188
-0.0830217
0.500265
-0.117549
0.541085
-0.154487
0.571245
-0.193509
0.599837
-0.234653
0.630881
-0.278104
0.66582
0.70506
-0.324139
-0.00700747
0.152614
-0.024161
0.339238
-0.0489734
0.459
-0.0790254
0.530317
-0.112567
0.574627
-0.148591
0.607269
-0.186722
0.637968
-0.226967
0.671125
-0.269484
0.708338
0.750117
-0.314542
-0.00636124
0.158975
-0.0223558
0.355233
-0.0459049
0.482549
-0.0747815
0.559194
-0.107267
0.607113
-0.142315
0.642316
-0.179497
0.67515
-0.218788
0.710416
-0.260321
0.749871
0.794139
-0.304343
-0.00569046
0.164665
-0.0204669
0.370009
-0.0426758
0.504758
-0.0702987
0.586817
-0.101657
0.638471
-0.135664
0.676324
-0.17184
0.711326
-0.210124
0.7487
-0.250622
0.790369
0.837064
-0.293547
-0.00499869
0.169664
-0.0185018
0.383512
-0.0392957
0.525552
-0.0655862
0.613107
-0.0957442
0.668629
-0.128648
0.709227
-0.16376
0.746438
-0.200985
0.785924
-0.240397
0.829782
0.878815
-0.282147
-0.00428967
0.173954
-0.0164685
0.395691
-0.0357746
0.544858
-0.0606541
0.637987
-0.0895389
0.697514
-0.121274
0.740962
-0.155264
0.780428
-0.191375
0.822036
-0.229638
0.868044
0.919303
-0.270126
-0.00356736
0.177521
-0.0143758
0.406499
-0.0321238
0.562606
-0.055514
0.661377
-0.0830514
0.725051
-0.113552
0.771463
-0.146362
0.813239
-0.181307
0.856981
-0.218345
0.905082
0.958536
-0.257578
-0.0028359
0.180357
-0.0122327
0.415896
-0.0283553
0.578729
-0.0501781
0.6832
-0.0762931
0.751166
-0.105493
0.800663
-0.137066
0.844811
-0.170799
0.890714
-0.206997
0.94128
0.997786
-0.246247
-0.00209965
0.182457
-0.010049
0.423846
-0.0244824
0.593162
-0.04466
0.703377
-0.0692767
0.775783
-0.0971088
0.828495
-0.127385
0.875087
-0.159835
0.923164
-0.194706
0.976151
1.03536
-0.23228
-0.00136329
0.18382
-0.00783499
0.430317
-0.0205191
0.605846
-0.0389749
0.721833
-0.062016
0.798824
-0.0884104
0.85489
-0.117327
0.904003
-0.148426
0.954263
-0.181853
1.00958
1.07125
-0.217747
-0.000632586
0.184453
-0.00560131
0.435286
-0.0164807
0.616726
-0.0331391
0.738491
-0.0545266
0.820211
-0.0794119
0.879775
-0.106903
0.931495
-0.136585
0.983945
-0.168484
1.04148
1.10539
-0.202624
8.50094e-05
0.184368
-0.00335838
0.438729
-0.0123833
0.62575
-0.0271705
0.753279
-0.0468255
0.839866
-0.0701288
0.903078
-0.0961288
0.957495
-0.124329
1.01214
-0.154642
1.07179
1.13776
-0.187007
0.00081806
0.183549
-0.00111198
0.440659
-0.00824411
0.632883
-0.021089
0.766124
-0.0389315
0.857709
-0.0605782
0.924725
-0.0850202
0.981937
-0.111675
1.0388
-0.140351
1.10047
1.16833
-0.170928
0.00150842
0.182041
0.00109768
0.44107
-0.00408073
0.638061
-0.0149156
0.776958
-0.0308654
0.873659
-0.0507793
0.944639
-0.0735957
1.00475
-0.0986451
1.06385
-0.125638
1.12746
1.19711
-0.15441
0.00217777
0.179863
0.00327429
0.439974
0.000123378
0.641212
-0.00867322
0.785755
-0.0226506
0.887636
-0.0407531
0.962741
-0.0618756
1.02588
-0.0852609
1.08723
-0.110528
1.15273
1.22406
-0.137478
0.00282232
0.177041
0.00541775
0.437378
0.00422979
0.6424
-0.00238971
0.792375
-0.0143121
0.899558
-0.0305233
0.978952
-0.0498821
1.04523
-0.0715463
1.1089
-0.0950492
1.17623
1.24916
-0.120158
0.00343665
0.173604
0.00750827
0.433307
0.0083298
0.641578
0.00390746
0.796797
-0.00587854
0.909344
-0.0201158
0.99319
-0.0376397
1.06276
-0.0575264
1.12879
-0.0792264
1.19793
1.27241
-0.102471
0.00401648
0.169588
0.00952933
0.427794
0.0123671
0.638741
0.010192
0.798972
0.00262033
0.916916
-0.00955972
1.00537
-0.0251748
1.07837
-0.0432272
1.14684
-0.0630854
1.21779
1.29376
-0.0844408
0.00455788
0.16503
0.0114669
0.420885
0.0163164
0.633891
0.0164329
0.798855
0.0111515
0.922198
0.00110665
1.01541
-0.0125165
1.092
-0.0286771
1.163
-0.0466517
1.23576
1.3132
-0.0660917
0.00505726
0.159973
0.0133083
0.412634
0.0201529
0.627047
0.0225961
0.796412
0.0196794
0.925114
0.011873
1.02322
0.000291239
1.10358
-0.0139089
1.1772
-0.0299499
1.2518
1.3307
-0.0474493
0.00551146
0.154461
0.015041
0.403104
0.0238511
0.618236
0.0286462
0.791617
0.0281639
0.925597
0.0226775
1.02871
0.0132545
1.113
0.00100977
1.18944
-0.0129991
1.26581
1.34625
-0.0285431
0.00591775
0.148544
0.016653
0.392369
0.0273855
0.607504
0.0345462
0.784457
0.0365625
0.92358
0.0334848
1.03178
0.0262988
1.12019
0.0161919
1.19955
0.00416909
1.27784
1.35984
-0.00942176
0.0062739
0.14227
0.0181331
0.38051
0.0307307
0.594906
0.0402577
0.77493
0.0448296
0.919008
0.0442493
1.03237
0.0393903
1.12505
0.031445
1.2075
0.0214493
1.28783
1.37132
0.00997096
0.00657819
0.135691
0.0194713
0.367617
0.033862
0.580516
0.0457409
0.763051
0.0529162
0.911833
0.0549202
1.03036
0.0524824
1.12748
0.0467804
1.2132
0.0389127
1.2957
1.38065
0.0295752
0.00682951
0.128862
0.0206585
0.353788
0.0367552
0.564419
0.0509554
0.74885
0.0607702
0.902018
0.0654424
1.02569
0.0655251
1.1274
0.0621556
1.21657
0.0564843
1.30137
1.38784
0.0492946
0.00702728
0.121835
0.0216872
0.339128
0.0393878
0.546718
0.0558602
0.732378
0.0683369
0.889542
0.0757557
1.01827
0.0784614
1.1247
0.0775199
1.21751
0.0741194
1.30477
1.39284
0.0691203
0.00717158
0.114663
0.0225515
0.323748
0.0417388
0.527531
0.0604149
0.713702
0.0755593
0.874397
0.0857953
1.00803
0.0912278
1.11926
0.0928172
1.21592
0.0917708
1.30582
1.3956
0.0890174
0.00726308
0.1074
0.0232473
0.307764
0.0437899
0.506988
0.0645799
0.692912
0.0823781
0.856599
0.095491
0.994921
0.103754
1.111
0.107985
1.21169
0.109385
1.30442
1.39604
0.108943
0.00730304
0.100097
0.0237725
0.291294
0.0455251
0.485236
0.0683174
0.67012
0.0887334
0.836183
0.104768
0.978887
0.115962
1.09981
0.122952
1.2047
0.126904
1.30046
1.39409
0.128848
0.00729334
0.0928036
0.0241268
0.274461
0.0469322
0.46243
0.0715925
0.645459
0.0945648
0.813211
0.113548
0.959903
0.127766
1.08559
0.137638
1.19483
0.144257
1.29385
1.38968
0.148675
0.00723638
0.0855672
0.0243122
0.257385
0.0480024
0.43874
0.074374
0.619088
0.0998132
0.787771
0.121748
0.937968
0.139075
1.06826
0.151953
1.18195
0.161366
1.28443
1.38269
0.168357
0.00713507
0.0784321
0.0243327
0.240187
0.0487313
0.414342
0.0766353
0.591184
0.104422
0.759985
0.129284
0.913105
0.149786
1.04776
0.165796
1.16594
0.17814
1.27209
1.37301
0.187815
0.00699275
0.0714394
0.0241942
0.222986
0.0491186
0.389417
0.0783558
0.561947
0.108338
0.730003
0.136071
0.885372
0.159794
1.02404
0.179054
1.14668
0.194476
1.25667
1.36052
0.206962
0.00681314
0.0646263
0.0239048
0.205894
0.049169
0.364153
0.0795215
0.531594
0.111514
0.69801
0.142025
0.85486
0.168986
0.997077
0.191603
1.12406
0.210254
1.23802
1.34508
0.225694
0.00660024
0.058026
0.0234742
0.18902
0.0488914
0.338736
0.0801256
0.50036
0.113912
0.664224
0.147066
0.821707
0.177246
0.966897
0.203308
1.098
0.225339
1.21598
1.32653
0.243891
0.00635824
0.0516678
0.0229133
0.172465
0.0482995
0.313349
0.0801699
0.468489
0.115502
0.628892
0.151119
0.78609
0.184457
0.933559
0.214024
1.06843
0.239581
1.19043
1.3047
0.261417
0.00609144
0.0455763
0.0222346
0.156322
0.0474109
0.288173
0.0796641
0.436236
0.116265
0.59229
0.154121
0.748234
0.190505
0.897175
0.223602
1.03534
0.252811
1.16122
1.27939
0.278116
0.00580411
0.0397722
0.0214513
0.140675
0.046247
0.263377
0.0786265
0.403857
0.116196
0.554721
0.156019
0.708411
0.195281
0.857913
0.231883
0.998733
0.264846
1.12825
1.25042
0.293815
0.00550044
0.0342718
0.0205771
0.125598
0.044832
0.239123
0.0770833
0.371605
0.115301
0.516503
0.156778
0.666935
0.198688
0.816003
0.238715
0.958706
0.275488
1.09148
1.21759
0.308325
0.00518441
0.0290874
0.0196258
0.111157
0.0431927
0.215556
0.0750679
0.33973
0.113603
0.477968
0.156378
0.62416
0.200644
0.771737
0.243947
0.915404
0.284531
1.0509
1.18067
0.321446
0.00485969
0.0242277
0.018611
0.0974053
0.0413573
0.192809
0.0726199
0.308468
0.111136
0.439452
0.154822
0.580473
0.20109
0.725469
0.247444
0.86905
0.291763
1.00658
1.13946
0.332979
0.00452961
0.0196981
0.0175459
0.0843891
0.0393543
0.171001
0.0697838
0.278038
0.107947
0.401288
0.152134
0.536287
0.199988
0.677614
0.249087
0.819951
0.296978
0.958687
1.0937
0.342733
0.00419705
0.015501
0.0164425
0.0721436
0.0372123
0.150231
0.0666072
0.248643
0.104096
0.363799
0.148356
0.492027
0.197334
0.628637
0.248785
0.7685
0.299978
0.907494
1.04313
0.350552
0.00386446
0.0116366
0.015312
0.060696
0.0349587
0.130584
0.0631395
0.220462
0.0996501
0.327288
0.143554
0.448123
0.193151
0.57904
0.246473
0.715178
0.300589
0.853378
0.987371
0.356345
0.00353376
0.00810281
0.0141642
0.0500655
0.0326195
0.112129
0.0594305
0.193652
0.0946826
0.292036
0.137811
0.404995
0.187495
0.529357
0.242119
0.660553
0.298683
0.796814
0.925934
0.360121
0.00320645
0.00489636
0.0130077
0.0402643
0.0302184
0.0949184
0.0555284
0.168342
0.0892717
0.258293
0.131224
0.363042
0.180452
0.480129
0.235717
0.605288
0.294198
0.738332
0.858122
0.36201
0.00288357
0.00201278
0.0118495
0.0312984
0.027777
0.0789909
0.0514797
0.144639
0.083497
0.226276
0.123904
0.322635
0.172139
0.431895
0.227281
0.550146
0.286875
0.678738
0.783032
0.361965
0.0025658
-0.000553021
0.0106957
0.0231686
0.0253144
0.0643721
0.0473276
0.122626
0.0774378
0.196166
0.115972
0.2841
0.162706
0.385161
0.216951
0.495901
0.276575
0.619114
0.72095
0.338656
0.00225354
-0.00280657
0.00955115
0.015871
0.0228474
0.0510758
0.0431123
0.102361
0.0711711
0.168107
0.107556
0.247716
0.15234
0.340377
0.204992
0.443249
0.264456
0.55965
0.65951
0.325897
0.001947
-0.00475356
0.00842013
0.00939782
0.020391
0.039105
0.0388704
0.0838815
0.0647702
0.142207
0.098782
0.213704
0.141243
0.297916
0.191816
0.392677
0.250432
0.501033
0.597982
0.31196
0.00164629
-0.00639986
0.00730622
0.00373789
0.0179585
0.0284527
0.0346351
0.0672049
0.0583033
0.118539
0.0897729
0.182234
0.129601
0.258088
0.177679
0.344598
0.234655
0.444057
0.536889
0.295748
0.00135159
-0.00775145
0.00621284
-0.00112336
0.0155622
0.0191034
0.030437
0.0523301
0.0518335
0.0971423
0.0806427
0.153425
0.117591
0.22114
0.162807
0.299382
0.217409
0.389454
0.476961
0.277337
0.00106319
-0.00881464
0.00514349
-0.00520365
0.0132137
0.0110331
0.0263048
0.039239
0.0454195
0.0780276
0.0714978
0.127347
0.105385
0.187253
0.147435
0.257333
0.199041
0.337848
0.419019
0.256984
0.000781644
-0.00959629
0.00410201
-0.00852402
0.010925
0.00421009
0.0222657
0.0278983
0.0391162
0.0611771
0.0624381
0.104025
0.0931515
0.156539
0.131805
0.218679
0.179912
0.289741
0.363853
0.235077
0.000507802
-0.0101041
0.00309279
-0.011109
0.00870822
-0.00140534
0.0183467
0.0182599
0.0329762
0.0465476
0.0535576
0.0834433
0.0810473
0.12905
0.116151
0.183576
0.160377
0.245514
0.312143
0.212088
0.000243062
-0.0103472
0.00212097
-0.0129869
0.00657623
-0.00586061
0.0145746
0.0102615
0.0270502
0.0340721
0.0449455
0.065548
0.0692217
0.104773
0.100697
0.1521
0.14079
0.205421
0.264413
0.188519