# Probe 0 (5.5 0.5 0)
# Probe 1 (5.5 -0.5 0)
#       Probe             0             1
#        Time
            0             0             0
          0.1   6.31012e-05   6.31015e-05
          0.2   0.000573008   0.000573008
          0.3   0.000767822   0.000767822
          0.4   0.000871157   0.000871158
          0.5   0.000938586   0.000938586
          0.6   0.000992723   0.000992725
          0.7    0.00104538    0.00104538
          0.8    0.00110243    0.00110243
          0.9     0.0011682     0.0011682
            1    0.00124469    0.00124469
