/*--------------------------------*- C++ -*----------------------------------*\
  =========                 |
  \\      /  F ield         | OpenFOAM: The Open Source CFD Toolbox
   \\    /   O peration     | Website:  https://openfoam.org
    \\  /    A nd           | Version:  7
     \\/     M anipulation  |
\*---------------------------------------------------------------------------*/
FoamFile
{
    version     2.0;
    format      ascii;
    class       volVectorField;
    location    "6";
    object      U;
}
// * * * * * * * * * * * * * * * * * * * * * * * * * * * * * * * * * * * * * //

dimensions      [0 1 -1 0 0 0 0];

internalField   nonuniform List<vector> 
11050
(
(-3.28669e-11 3.01168e-11 0)
(-1.43179e-10 8.79742e-11 0)
(-3.16195e-10 1.05239e-10 0)
(-4.8733e-10 9.42364e-11 0)
(-5.99469e-10 6.95657e-11 0)
(-6.28992e-10 4.03157e-11 0)
(-5.65087e-10 1.23786e-11 0)
(-3.50238e-10 -1.42016e-11 0)
(9.29423e-12 -5.32583e-11 0)
(4.31658e-10 -9.49344e-11 0)
(9.29659e-10 -1.32195e-10 0)
(1.53568e-09 -1.63739e-10 0)
(2.23758e-09 -1.89692e-10 0)
(3.01983e-09 -2.10234e-10 0)
(3.8722e-09 -2.25613e-10 0)
(4.82793e-09 -2.38925e-10 0)
(5.89767e-09 -2.6028e-10 0)
(6.99873e-09 -2.94098e-10 0)
(8.10604e-09 -3.17692e-10 0)
(9.25228e-09 -3.27263e-10 0)
(1.04386e-08 -3.29574e-10 0)
(1.1664e-08 -3.3181e-10 0)
(1.29149e-08 -3.34737e-10 0)
(1.41757e-08 -3.34632e-10 0)
(1.54865e-08 -3.30492e-10 0)
(1.68194e-08 -3.38259e-10 0)
(1.80998e-08 -3.41261e-10 0)
(1.93532e-08 -3.40473e-10 0)
(2.06018e-08 -3.36591e-10 0)
(2.18328e-08 -3.29993e-10 0)
(2.3032e-08 -3.19853e-10 0)
(2.41921e-08 -3.04504e-10 0)
(2.53558e-08 -2.8554e-10 0)
(2.6507e-08 -2.78582e-10 0)
(2.75696e-08 -2.70911e-10 0)
(2.85585e-08 -2.59864e-10 0)
(2.95027e-08 -2.45592e-10 0)
(3.03929e-08 -2.28617e-10 0)
(3.12174e-08 -2.08571e-10 0)
(3.19711e-08 -1.84185e-10 0)
(3.26955e-08 -1.57093e-10 0)
(3.33789e-08 -1.42263e-10 0)
(3.39499e-08 -1.27695e-10 0)
(3.44234e-08 -1.10284e-10 0)
(3.483e-08 -9.00099e-11 0)
(-7.03162e-11 1.69068e-10 0)
(-2.77765e-10 3.63117e-10 0)
(-5.57091e-10 3.97497e-10 0)
(-7.80853e-10 3.20587e-10 0)
(-8.45301e-10 1.78002e-10 0)
(-6.94104e-10 8.43352e-13 0)
(-2.9132e-10 -1.90375e-10 0)
(4.43462e-10 -3.87804e-10 0)
(1.51077e-09 -6.02678e-10 0)
(2.80513e-09 -8.23631e-10 0)
(4.33084e-09 -1.03248e-09 0)
(6.12997e-09 -1.22332e-09 0)
(8.18416e-09 -1.39526e-09 0)
(1.04667e-08 -1.54984e-09 0)
(1.29592e-08 -1.69023e-09 0)
(1.56952e-08 -1.8217e-09 0)
(1.8668e-08 -1.93326e-09 0)
(2.1772e-08 -2.08032e-09 0)
(2.49722e-08 -2.20095e-09 0)
(2.82827e-08 -2.28064e-09 0)
(3.16877e-08 -2.33132e-09 0)
(3.51798e-08 -2.36976e-09 0)
(3.87419e-08 -2.39982e-09 0)
(4.23516e-08 -2.41679e-09 0)
(4.60416e-08 -2.42043e-09 0)
(4.97742e-08 -2.43499e-09 0)
(5.34377e-08 -2.43085e-09 0)
(5.7036e-08 -2.41194e-09 0)
(6.05992e-08 -2.37915e-09 0)
(6.41082e-08 -2.33312e-09 0)
(6.75389e-08 -2.27278e-09 0)
(7.08775e-08 -2.19632e-09 0)
(7.41638e-08 -2.10823e-09 0)
(7.73763e-08 -2.03147e-09 0)
(8.04076e-08 -1.94816e-09 0)
(8.32554e-08 -1.85376e-09 0)
(8.59575e-08 -1.74782e-09 0)
(8.85007e-08 -1.63123e-09 0)
(9.08671e-08 -1.50387e-09 0)
(9.30487e-08 -1.3649e-09 0)
(9.50881e-08 -1.21908e-09 0)
(9.6972e-08 -1.08787e-09 0)
(9.86031e-08 -9.55642e-10 0)
(9.99831e-08 -8.16509e-10 0)
(1.01155e-07 -6.69572e-10 0)
(-7.50416e-11 3.86602e-10 0)
(-2.74658e-10 7.20216e-10 0)
(-4.95515e-10 7.20915e-10 0)
(-5.83527e-10 4.8908e-10 0)
(-4.15338e-10 1.04498e-10 0)
(8.28294e-11 -3.74277e-10 0)
(9.62407e-10 -9.06487e-10 0)
(2.31653e-09 -1.46623e-09 0)
(4.14499e-09 -2.03351e-09 0)
(6.34163e-09 -2.60593e-09 0)
(8.91348e-09 -3.15767e-09 0)
(1.1897e-08 -3.67745e-09 0)
(1.52668e-08 -4.16157e-09 0)
(1.89879e-08 -4.61245e-09 0)
(2.30376e-08 -5.03572e-09 0)
(2.74708e-08 -5.43077e-09 0)
(3.22178e-08 -5.72302e-09 0)
(3.71669e-08 -6.06937e-09 0)
(4.23314e-08 -6.37421e-09 0)
(4.76768e-08 -6.61177e-09 0)
(5.31601e-08 -6.78665e-09 0)
(5.87666e-08 -6.91879e-09 0)
(6.44796e-08 -7.01555e-09 0)
(7.02714e-08 -7.07764e-09 0)
(7.616e-08 -7.10773e-09 0)
(8.21055e-08 -7.11943e-09 0)
(8.7978e-08 -7.08958e-09 0)
(9.37575e-08 -7.02483e-09 0)
(9.94731e-08 -6.92555e-09 0)
(1.05099e-07 -6.79269e-09 0)
(1.10605e-07 -6.62676e-09 0)
(1.15968e-07 -6.42889e-09 0)
(1.21219e-07 -6.20463e-09 0)
(1.26329e-07 -5.9654e-09 0)
(1.31182e-07 -5.70328e-09 0)
(1.3576e-07 -5.41666e-09 0)
(1.40099e-07 -5.10516e-09 0)
(1.44181e-07 -4.76997e-09 0)
(1.47984e-07 -4.41242e-09 0)
(1.51495e-07 -4.03468e-09 0)
(1.54751e-07 -3.64289e-09 0)
(1.57736e-07 -3.24643e-09 0)
(1.60346e-07 -2.84201e-09 0)
(1.62574e-07 -2.42562e-09 0)
(1.64463e-07 -1.99638e-09 0)
(-5.84273e-11 5.73437e-10 0)
(-1.76085e-10 9.84213e-10 0)
(-2.20919e-10 8.73374e-10 0)
(-4.12745e-11 3.9457e-10 0)
(4.90999e-10 -3.37192e-10 0)
(1.45745e-09 -1.23405e-09 0)
(2.91735e-09 -2.23126e-09 0)
(4.9751e-09 -3.28141e-09 0)
(7.62375e-09 -4.34046e-09 0)
(1.07575e-08 -5.39969e-09 0)
(1.43918e-08 -6.42686e-09 0)
(1.85542e-08 -7.4076e-09 0)
(2.32119e-08 -8.3344e-09 0)
(2.83226e-08 -9.20632e-09 0)
(3.38646e-08 -1.00234e-08 0)
(3.99444e-08 -1.07718e-08 0)
(4.6374e-08 -1.13274e-08 0)
(5.30313e-08 -1.19405e-08 0)
(6.0041e-08 -1.24955e-08 0)
(6.73051e-08 -1.2959e-08 0)
(7.4747e-08 -1.33147e-08 0)
(8.23391e-08 -1.3587e-08 0)
(9.00659e-08 -1.37847e-08 0)
(9.78941e-08 -1.39126e-08 0)
(1.0583e-07 -1.39745e-08 0)
(1.13833e-07 -1.39781e-08 0)
(1.21762e-07 -1.39129e-08 0)
(1.29575e-07 -1.37819e-08 0)
(1.37298e-07 -1.35858e-08 0)
(1.44898e-07 -1.33268e-08 0)
(1.52337e-07 -1.30072e-08 0)
(1.59584e-07 -1.26309e-08 0)
(1.6666e-07 -1.22033e-08 0)
(1.73534e-07 -1.1732e-08 0)
(1.80079e-07 -1.12127e-08 0)
(1.8627e-07 -1.06464e-08 0)
(1.92134e-07 -1.00354e-08 0)
(1.97651e-07 -9.38244e-09 0)
(2.02792e-07 -8.69055e-09 0)
(2.0754e-07 -7.96413e-09 0)
(2.11927e-07 -7.20929e-09 0)
(2.15935e-07 -6.43124e-09 0)
(2.19453e-07 -5.63297e-09 0)
(2.22472e-07 -4.81256e-09 0)
(2.2503e-07 -3.97206e-09 0)
(-2.96544e-11 6.84733e-10 0)
(-1.65885e-11 1.06262e-09 0)
(1.96624e-10 7.42953e-10 0)
(7.37378e-10 -8.02859e-11 0)
(1.72916e-09 -1.25884e-09 0)
(3.25477e-09 -2.67546e-09 0)
(5.37578e-09 -4.24026e-09 0)
(8.20397e-09 -5.88418e-09 0)
(1.17239e-08 -7.54796e-09 0)
(1.58287e-08 -9.20657e-09 0)
(2.05393e-08 -1.08183e-08 0)
(2.58741e-08 -1.23699e-08 0)
(3.17967e-08 -1.38483e-08 0)
(3.82624e-08 -1.52421e-08 0)
(4.52566e-08 -1.65355e-08 0)
(5.29501e-08 -1.77014e-08 0)
(6.09933e-08 -1.8615e-08 0)
(6.92444e-08 -1.95429e-08 0)
(7.79821e-08 -2.03943e-08 0)
(8.7058e-08 -2.11406e-08 0)
(9.63569e-08 -2.17153e-08 0)
(1.05824e-07 -2.21658e-08 0)
(1.15448e-07 -2.2496e-08 0)
(1.2519e-07 -2.27097e-08 0)
(1.35048e-07 -2.28107e-08 0)
(1.44975e-07 -2.27974e-08 0)
(1.54821e-07 -2.26894e-08 0)
(1.64537e-07 -2.24739e-08 0)
(1.74139e-07 -2.21541e-08 0)
(1.83586e-07 -2.17334e-08 0)
(1.92831e-07 -2.12162e-08 0)
(2.01836e-07 -2.06087e-08 0)
(2.10616e-07 -1.9917e-08 0)
(2.19135e-07 -1.91476e-08 0)
(2.2726e-07 -1.83028e-08 0)
(2.34956e-07 -1.73791e-08 0)
(2.42246e-07 -1.63848e-08 0)
(2.49102e-07 -1.53249e-08 0)
(2.55492e-07 -1.42041e-08 0)
(2.61394e-07 -1.30287e-08 0)
(2.66837e-07 -1.18054e-08 0)
(2.71796e-07 -1.05391e-08 0)
(2.76161e-07 -9.23967e-09 0)
(2.79919e-07 -7.90188e-09 0)
(2.83102e-07 -6.5344e-09 0)
(4.72166e-12 6.94038e-10 0)
(1.7985e-10 9.01449e-10 0)
(7.06267e-10 2.63179e-10 0)
(1.67045e-09 -1.0087e-09 0)
(3.18896e-09 -2.7349e-09 0)
(5.34111e-09 -4.76934e-09 0)
(8.18566e-09 -6.99777e-09 0)
(1.18345e-08 -9.33189e-09 0)
(1.62642e-08 -1.17025e-08 0)
(2.13699e-08 -1.40616e-08 0)
(2.71686e-08 -1.635e-08 0)
(3.36681e-08 -1.85632e-08 0)
(4.08387e-08 -2.06782e-08 0)
(4.8642e-08 -2.26662e-08 0)
(5.70695e-08 -2.44944e-08 0)
(6.63307e-08 -2.61317e-08 0)
(7.59331e-08 -2.75585e-08 0)
(8.57075e-08 -2.88419e-08 0)
(9.60594e-08 -3.00178e-08 0)
(1.06854e-07 -3.10689e-08 0)
(1.17925e-07 -3.18742e-08 0)
(1.29162e-07 -3.2523e-08 0)
(1.4058e-07 -3.30083e-08 0)
(1.52131e-07 -3.33255e-08 0)
(1.6381e-07 -3.34804e-08 0)
(1.75544e-07 -3.34669e-08 0)
(1.87185e-07 -3.33146e-08 0)
(1.98691e-07 -3.29929e-08 0)
(2.10058e-07 -3.2522e-08 0)
(2.21239e-07 -3.19062e-08 0)
(2.32178e-07 -3.11505e-08 0)
(2.42833e-07 -3.02635e-08 0)
(2.53209e-07 -2.92533e-08 0)
(2.63265e-07 -2.81233e-08 0)
(2.72871e-07 -2.6887e-08 0)
(2.81979e-07 -2.55283e-08 0)
(2.90603e-07 -2.40702e-08 0)
(2.98712e-07 -2.2519e-08 0)
(3.06272e-07 -2.08804e-08 0)
(3.13254e-07 -1.91626e-08 0)
(3.19685e-07 -1.73745e-08 0)
(3.25532e-07 -1.55207e-08 0)
(3.30689e-07 -1.36181e-08 0)
(3.35139e-07 -1.16523e-08 0)
(3.38906e-07 -9.64726e-09 0)
(4.30164e-11 6.03531e-10 0)
(4.01698e-10 5.28071e-10 0)
(1.27406e-09 -5.49569e-10 0)
(2.69764e-09 -2.38319e-09 0)
(4.78774e-09 -4.75901e-09 0)
(7.61435e-09 -7.50552e-09 0)
(1.12268e-08 -1.04897e-08 0)
(1.57299e-08 -1.36141e-08 0)
(2.10974e-08 -1.68056e-08 0)
(2.72349e-08 -1.99394e-08 0)
(3.41365e-08 -2.29756e-08 0)
(4.17961e-08 -2.58943e-08 0)
(5.02094e-08 -2.86531e-08 0)
(5.93448e-08 -3.12201e-08 0)
(6.91904e-08 -3.35862e-08 0)
(7.99004e-08 -3.57933e-08 0)
(9.10201e-08 -3.81617e-08 0)
(1.02344e-07 -3.98922e-08 0)
(1.14224e-07 -4.13445e-08 0)
(1.2666e-07 -4.25892e-08 0)
(1.39417e-07 -4.36815e-08 0)
(1.52317e-07 -4.45634e-08 0)
(1.65429e-07 -4.52156e-08 0)
(1.78689e-07 -4.564e-08 0)
(1.92083e-07 -4.58535e-08 0)
(2.05526e-07 -4.58702e-08 0)
(2.18879e-07 -4.56329e-08 0)
(2.32085e-07 -4.51722e-08 0)
(2.45114e-07 -4.4522e-08 0)
(2.57928e-07 -4.36824e-08 0)
(2.70463e-07 -4.26555e-08 0)
(2.82667e-07 -4.14485e-08 0)
(2.94547e-07 -4.00754e-08 0)
(3.06049e-07 -3.85394e-08 0)
(3.17049e-07 -3.68214e-08 0)
(3.2749e-07 -3.49499e-08 0)
(3.37362e-07 -3.29523e-08 0)
(3.46647e-07 -3.08313e-08 0)
(3.55304e-07 -2.85929e-08 0)
(3.63298e-07 -2.62484e-08 0)
(3.70655e-07 -2.38135e-08 0)
(3.77336e-07 -2.12957e-08 0)
(3.83241e-07 -1.86713e-08 0)
(3.88344e-07 -1.59702e-08 0)
(3.92654e-07 -1.32231e-08 0)
(1.10833e-10 4.8939e-10 0)
(6.63239e-10 -2.95158e-11 0)
(1.86814e-09 -1.71081e-09 0)
(3.77314e-09 -4.2373e-09 0)
(6.46818e-09 -7.37409e-09 0)
(1.00009e-08 -1.09323e-08 0)
(1.44004e-08 -1.47598e-08 0)
(1.97565e-08 -1.87417e-08 0)
(2.61043e-08 -2.28e-08 0)
(3.33303e-08 -2.67777e-08 0)
(4.13653e-08 -3.06722e-08 0)
(5.02338e-08 -3.44108e-08 0)
(5.99282e-08 -3.79397e-08 0)
(7.03825e-08 -4.12196e-08 0)
(8.15168e-08 -4.42383e-08 0)
(9.32107e-08 -4.70412e-08 0)
(1.0581e-07 -4.99891e-08 0)
(1.19099e-07 -5.22322e-08 0)
(1.32608e-07 -5.41169e-08 0)
(1.46497e-07 -5.57199e-08 0)
(1.60721e-07 -5.71606e-08 0)
(1.75235e-07 -5.82984e-08 0)
(1.89982e-07 -5.91246e-08 0)
(2.04867e-07 -5.96514e-08 0)
(2.19864e-07 -5.98936e-08 0)
(2.3496e-07 -5.98708e-08 0)
(2.49977e-07 -5.95283e-08 0)
(2.64772e-07 -5.89298e-08 0)
(2.79358e-07 -5.80774e-08 0)
(2.93709e-07 -5.69768e-08 0)
(3.07752e-07 -5.56337e-08 0)
(3.2142e-07 -5.40546e-08 0)
(3.34713e-07 -5.22519e-08 0)
(3.47613e-07 -5.0237e-08 0)
(3.59951e-07 -4.79889e-08 0)
(3.71626e-07 -4.55649e-08 0)
(3.82666e-07 -4.29656e-08 0)
(3.93056e-07 -4.01999e-08 0)
(4.02742e-07 -3.72801e-08 0)
(4.11682e-07 -3.42193e-08 0)
(4.19899e-07 -3.10343e-08 0)
(4.27392e-07 -2.77436e-08 0)
(4.34027e-07 -2.43134e-08 0)
(4.39727e-07 -2.08088e-08 0)
(4.44538e-07 -1.72337e-08 0)
(1.39623e-10 2.6759e-10 0)
(8.54162e-10 -9.2029e-10 0)
(2.42346e-09 -3.3601e-09 0)
(4.84898e-09 -6.70607e-09 0)
(8.17557e-09 -1.07155e-08 0)
(1.24417e-08 -1.51862e-08 0)
(1.76675e-08 -1.99468e-08 0)
(2.39215e-08 -2.48545e-08 0)
(3.12516e-08 -2.9801e-08 0)
(3.95139e-08 -3.47177e-08 0)
(4.86382e-08 -3.9545e-08 0)
(5.86858e-08 -4.41935e-08 0)
(6.96305e-08 -4.86118e-08 0)
(8.14071e-08 -5.27462e-08 0)
(9.39236e-08 -5.65475e-08 0)
(1.06963e-07 -5.9989e-08 0)
(1.20965e-07 -6.31265e-08 0)
(1.35735e-07 -6.59252e-08 0)
(1.50695e-07 -6.83959e-08 0)
(1.66064e-07 -7.05229e-08 0)
(1.81821e-07 -7.22901e-08 0)
(1.97905e-07 -7.36711e-08 0)
(2.14226e-07 -7.46745e-08 0)
(2.30687e-07 -7.53056e-08 0)
(2.47256e-07 -7.55676e-08 0)
(2.63909e-07 -7.54688e-08 0)
(2.8045e-07 -7.50445e-08 0)
(2.96757e-07 -7.4298e-08 0)
(3.12847e-07 -7.32141e-08 0)
(3.28668e-07 -7.18113e-08 0)
(3.44145e-07 -7.01045e-08 0)
(3.59212e-07 -6.81026e-08 0)
(3.73857e-07 -6.58114e-08 0)
(3.88054e-07 -6.32476e-08 0)
(4.01622e-07 -6.04462e-08 0)
(4.14473e-07 -5.74149e-08 0)
(4.26639e-07 -5.41462e-08 0)
(4.38082e-07 -5.06617e-08 0)
(4.48749e-07 -4.69813e-08 0)
(4.58595e-07 -4.31204e-08 0)
(4.67635e-07 -3.90914e-08 0)
(4.75873e-07 -3.49169e-08 0)
(4.83157e-07 -3.0627e-08 0)
(4.89421e-07 -2.62385e-08 0)
(4.94723e-07 -2.1746e-08 0)
(1.49591e-10 -1.5283e-10 0)
(1.02222e-09 -2.19387e-09 0)
(2.97254e-09 -5.52091e-09 0)
(5.92326e-09 -9.80514e-09 0)
(9.88831e-09 -1.47937e-08 0)
(1.48967e-08 -2.02721e-08 0)
(2.09627e-08 -2.60582e-08 0)
(2.8151e-08 -3.19937e-08 0)
(3.6454e-08 -3.79321e-08 0)
(4.57358e-08 -4.38504e-08 0)
(5.59697e-08 -4.96243e-08 0)
(6.71888e-08 -5.51801e-08 0)
(7.9363e-08 -6.0467e-08 0)
(9.24335e-08 -6.54335e-08 0)
(1.063e-07 -7.0029e-08 0)
(1.2074e-07 -7.42162e-08 0)
(1.3611e-07 -7.79193e-08 0)
(1.52238e-07 -8.13286e-08 0)
(1.68632e-07 -8.43209e-08 0)
(1.85476e-07 -8.68615e-08 0)
(2.02732e-07 -8.89385e-08 0)
(2.20322e-07 -9.05637e-08 0)
(2.38152e-07 -9.17483e-08 0)
(2.56125e-07 -9.2488e-08 0)
(2.74204e-07 -9.27908e-08 0)
(2.92335e-07 -9.26616e-08 0)
(3.10337e-07 -9.21339e-08 0)
(3.28108e-07 -9.11962e-08 0)
(3.45638e-07 -8.98486e-08 0)
(3.62861e-07 -8.81121e-08 0)
(3.79705e-07 -8.60063e-08 0)
(3.96103e-07 -8.35449e-08 0)
(4.12041e-07 -8.07367e-08 0)
(4.2746e-07 -7.75965e-08 0)
(4.42194e-07 -7.41662e-08 0)
(4.56177e-07 -7.04404e-08 0)
(4.69414e-07 -6.64292e-08 0)
(4.81858e-07 -6.21562e-08 0)
(4.93455e-07 -5.76442e-08 0)
(5.04162e-07 -5.2914e-08 0)
(5.13989e-07 -4.79819e-08 0)
(5.22916e-07 -4.28652e-08 0)
(5.30807e-07 -3.76191e-08 0)
(5.37618e-07 -3.22365e-08 0)
(5.43384e-07 -2.673e-08 0)
(1.71413e-10 -6.84781e-10 0)
(1.20782e-09 -3.75296e-09 0)
(3.52632e-09 -8.12447e-09 0)
(6.99268e-09 -1.34793e-08 0)
(1.15918e-08 -1.95596e-08 0)
(1.73394e-08 -2.61438e-08 0)
(2.42412e-08 -3.30417e-08 0)
(3.2366e-08 -4.00875e-08 0)
(4.16576e-08 -4.712e-08 0)
(5.19761e-08 -5.40858e-08 0)
(6.3324e-08 -6.08627e-08 0)
(7.57067e-08 -6.73756e-08 0)
(8.90897e-08 -7.35727e-08 0)
(1.03419e-07 -7.94048e-08 0)
(1.18595e-07 -8.48222e-08 0)
(1.34433e-07 -8.97759e-08 0)
(1.51146e-07 -9.41447e-08 0)
(1.6859e-07 -9.81692e-08 0)
(1.86411e-07 -1.01682e-07 0)
(2.04714e-07 -1.04642e-07 0)
(2.23428e-07 -1.07049e-07 0)
(2.42466e-07 -1.08931e-07 0)
(2.61748e-07 -1.10311e-07 0)
(2.81175e-07 -1.11153e-07 0)
(3.007e-07 -1.11491e-07 0)
(3.20265e-07 -1.11305e-07 0)
(3.39685e-07 -1.10647e-07 0)
(3.58863e-07 -1.09504e-07 0)
(3.77776e-07 -1.07874e-07 0)
(3.96345e-07 -1.05777e-07 0)
(4.14496e-07 -1.03236e-07 0)
(4.32164e-07 -1.00271e-07 0)
(4.4933e-07 -9.69005e-08 0)
(4.65927e-07 -9.3135e-08 0)
(4.81787e-07 -8.90078e-08 0)
(4.96848e-07 -8.45307e-08 0)
(5.11105e-07 -7.97178e-08 0)
(5.24502e-07 -7.45934e-08 0)
(5.36983e-07 -6.91824e-08 0)
(5.48505e-07 -6.35112e-08 0)
(5.5908e-07 -5.76035e-08 0)
(5.6867e-07 -5.14721e-08 0)
(5.77143e-07 -4.51743e-08 0)
(5.8447e-07 -3.8715e-08 0)
(5.90674e-07 -3.21125e-08 0)
(1.9941e-10 -1.30356e-09 0)
(1.40086e-09 -5.58475e-09 0)
(4.07756e-09 -1.11655e-08 0)
(8.05004e-09 -1.77278e-08 0)
(1.32753e-08 -2.50171e-08 0)
(1.97555e-08 -3.28071e-08 0)
(2.74866e-08 -4.09004e-08 0)
(3.65383e-08 -4.91249e-08 0)
(4.68202e-08 -5.73225e-08 0)
(5.81833e-08 -6.54055e-08 0)
(7.06441e-08 -7.32589e-08 0)
(8.41837e-08 -8.07954e-08 0)
(9.87604e-08 -8.7962e-08 0)
(1.14326e-07 -9.47056e-08 0)
(1.30788e-07 -1.00969e-07 0)
(1.48002e-07 -1.06694e-07 0)
(1.6604e-07 -1.11762e-07 0)
(1.84779e-07 -1.16391e-07 0)
(2.04009e-07 -1.20425e-07 0)
(2.23747e-07 -1.23824e-07 0)
(2.43883e-07 -1.26587e-07 0)
(2.64316e-07 -1.28744e-07 0)
(2.8501e-07 -1.3034e-07 0)
(3.05854e-07 -1.31279e-07 0)
(3.26788e-07 -1.31621e-07 0)
(3.47739e-07 -1.31315e-07 0)
(3.68509e-07 -1.30517e-07 0)
(3.89044e-07 -1.29165e-07 0)
(4.09297e-07 -1.27238e-07 0)
(4.29171e-07 -1.24757e-07 0)
(4.48584e-07 -1.21748e-07 0)
(4.67471e-07 -1.18236e-07 0)
(4.85818e-07 -1.14248e-07 0)
(5.03547e-07 -1.0979e-07 0)
(5.20484e-07 -1.04918e-07 0)
(5.36576e-07 -9.96421e-08 0)
(5.5181e-07 -9.39722e-08 0)
(5.66122e-07 -8.79373e-08 0)
(5.79452e-07 -8.15635e-08 0)
(5.91753e-07 -7.488e-08 0)
(6.03045e-07 -6.79159e-08 0)
(6.13269e-07 -6.0684e-08 0)
(6.22294e-07 -5.32593e-08 0)
(6.30111e-07 -4.56513e-08 0)
(6.3673e-07 -3.7875e-08 0)
(2.28013e-10 -2.02159e-09 0)
(1.58992e-09 -7.69499e-09 0)
(4.61744e-09 -1.46429e-08 0)
(9.08831e-09 -2.25447e-08 0)
(1.49297e-08 -3.11603e-08 0)
(2.21351e-08 -4.02583e-08 0)
(3.06898e-08 -4.96337e-08 0)
(4.06541e-08 -5.911e-08 0)
(5.19159e-08 -6.85409e-08 0)
(6.43169e-08 -7.78066e-08 0)
(7.78807e-08 -8.68045e-08 0)
(9.25689e-08 -9.54176e-08 0)
(1.08328e-07 -1.03601e-07 0)
(1.2512e-07 -1.11292e-07 0)
(1.42862e-07 -1.18424e-07 0)
(1.61436e-07 -1.24924e-07 0)
(1.80787e-07 -1.30681e-07 0)
(2.0081e-07 -1.35849e-07 0)
(2.21413e-07 -1.40384e-07 0)
(2.42546e-07 -1.44267e-07 0)
(2.64068e-07 -1.47461e-07 0)
(2.85846e-07 -1.49926e-07 0)
(3.07924e-07 -1.51649e-07 0)
(3.30181e-07 -1.52693e-07 0)
(3.52526e-07 -1.53052e-07 0)
(3.74801e-07 -1.5268e-07 0)
(3.96824e-07 -1.51731e-07 0)
(4.18672e-07 -1.50147e-07 0)
(4.40234e-07 -1.47886e-07 0)
(4.6138e-07 -1.44993e-07 0)
(4.82024e-07 -1.41486e-07 0)
(5.02095e-07 -1.37391e-07 0)
(5.2159e-07 -1.32737e-07 0)
(5.40405e-07 -1.27538e-07 0)
(5.58365e-07 -1.2187e-07 0)
(5.75447e-07 -1.15744e-07 0)
(5.91624e-07 -1.09152e-07 0)
(6.06817e-07 -1.02144e-07 0)
(6.20967e-07 -9.4745e-08 0)
(6.34023e-07 -8.69829e-08 0)
(6.4601e-07 -7.88905e-08 0)
(6.5684e-07 -7.04898e-08 0)
(6.66383e-07 -6.18644e-08 0)
(6.74665e-07 -5.30351e-08 0)
(6.81681e-07 -4.40018e-08 0)
(2.54492e-10 -2.83603e-09 0)
(1.77007e-09 -1.00592e-08 0)
(5.14475e-09 -1.84935e-08 0)
(1.01066e-08 -2.78587e-08 0)
(1.65497e-08 -3.79125e-08 0)
(2.44707e-08 -4.84155e-08 0)
(3.38406e-08 -5.91622e-08 0)
(4.46994e-08 -6.99826e-08 0)
(5.69264e-08 -8.07485e-08 0)
(7.03526e-08 -9.12603e-08 0)
(8.50129e-08 -1.01426e-07 0)
(1.00849e-07 -1.11111e-07 0)
(1.1778e-07 -1.20278e-07 0)
(1.3579e-07 -1.28881e-07 0)
(1.54812e-07 -1.36883e-07 0)
(1.74754e-07 -1.44237e-07 0)
(1.95463e-07 -1.50914e-07 0)
(2.16757e-07 -1.5667e-07 0)
(2.38604e-07 -1.61703e-07 0)
(2.61013e-07 -1.66039e-07 0)
(2.83899e-07 -1.69629e-07 0)
(3.07135e-07 -1.72398e-07 0)
(3.30582e-07 -1.74294e-07 0)
(3.5412e-07 -1.75445e-07 0)
(3.77797e-07 -1.7581e-07 0)
(4.01374e-07 -1.75417e-07 0)
(4.24665e-07 -1.74265e-07 0)
(4.47807e-07 -1.72348e-07 0)
(4.70645e-07 -1.69667e-07 0)
(4.93019e-07 -1.66314e-07 0)
(5.14863e-07 -1.62293e-07 0)
(5.36093e-07 -1.57603e-07 0)
(5.56705e-07 -1.52271e-07 0)
(5.7657e-07 -1.46331e-07 0)
(5.95512e-07 -1.39815e-07 0)
(6.13555e-07 -1.32743e-07 0)
(6.30647e-07 -1.25135e-07 0)
(6.46685e-07 -1.17071e-07 0)
(6.61628e-07 -1.08583e-07 0)
(6.75416e-07 -9.9693e-08 0)
(6.88073e-07 -9.04341e-08 0)
(6.99486e-07 -8.08505e-08 0)
(7.09522e-07 -7.09561e-08 0)
(7.18254e-07 -6.08058e-08 0)
(7.25655e-07 -5.04184e-08 0)
(2.84114e-10 -3.69238e-09 0)
(1.97325e-09 -1.25939e-08 0)
(5.68989e-09 -2.26643e-08 0)
(1.11113e-08 -3.36493e-08 0)
(1.81418e-08 -4.52715e-08 0)
(2.67637e-08 -5.72916e-08 0)
(3.69198e-08 -6.95047e-08 0)
(4.86203e-08 -8.17425e-08 0)
(6.18078e-08 -9.38926e-08 0)
(7.63104e-08 -1.05705e-07 0)
(9.2108e-08 -1.17076e-07 0)
(1.09125e-07 -1.27942e-07 0)
(1.27234e-07 -1.38201e-07 0)
(1.4641e-07 -1.4779e-07 0)
(1.66583e-07 -1.56677e-07 0)
(1.87636e-07 -1.64852e-07 0)
(2.09718e-07 -1.72475e-07 0)
(2.32504e-07 -1.78937e-07 0)
(2.55635e-07 -1.8452e-07 0)
(2.79312e-07 -1.89271e-07 0)
(3.03498e-07 -1.93183e-07 0)
(3.28063e-07 -1.96226e-07 0)
(3.52846e-07 -1.98376e-07 0)
(3.77719e-07 -1.99612e-07 0)
(4.0269e-07 -1.99933e-07 0)
(4.27553e-07 -1.99502e-07 0)
(4.52164e-07 -1.98067e-07 0)
(4.76594e-07 -1.95737e-07 0)
(5.00628e-07 -1.92644e-07 0)
(5.24133e-07 -1.88804e-07 0)
(5.47112e-07 -1.84215e-07 0)
(5.69467e-07 -1.78874e-07 0)
(5.91157e-07 -1.72808e-07 0)
(6.12068e-07 -1.66101e-07 0)
(6.32037e-07 -1.58678e-07 0)
(6.51049e-07 -1.50594e-07 0)
(6.69012e-07 -1.41949e-07 0)
(6.85835e-07 -1.32783e-07 0)
(7.01511e-07 -1.23137e-07 0)
(7.15985e-07 -1.13042e-07 0)
(7.29258e-07 -1.02536e-07 0)
(7.41259e-07 -9.17091e-08 0)
(7.51843e-07 -8.04654e-08 0)
(7.61031e-07 -6.88992e-08 0)
(7.68788e-07 -5.71169e-08 0)
(3.1601e-10 -4.61909e-09 0)
(2.15918e-09 -1.53677e-08 0)
(6.18062e-09 -2.72656e-08 0)
(1.20511e-08 -4.00129e-08 0)
(1.96718e-08 -5.33269e-08 0)
(2.89921e-08 -6.69762e-08 0)
(3.99386e-08 -8.07532e-08 0)
(5.24844e-08 -9.4474e-08 0)
(6.66149e-08 -1.0799e-07 0)
(8.21737e-08 -1.2116e-07 0)
(9.90285e-08 -1.33849e-07 0)
(1.17139e-07 -1.45996e-07 0)
(1.36438e-07 -1.57456e-07 0)
(1.56854e-07 -1.6813e-07 0)
(1.78277e-07 -1.7795e-07 0)
(2.00431e-07 -1.86917e-07 0)
(2.23773e-07 -1.95272e-07 0)
(2.48007e-07 -2.02483e-07 0)
(2.72446e-07 -2.0868e-07 0)
(2.97396e-07 -2.13889e-07 0)
(3.22849e-07 -2.18129e-07 0)
(3.48699e-07 -2.21408e-07 0)
(3.74801e-07 -2.23714e-07 0)
(4.01009e-07 -2.25017e-07 0)
(4.27187e-07 -2.25312e-07 0)
(4.5335e-07 -2.24777e-07 0)
(4.79362e-07 -2.23088e-07 0)
(5.04973e-07 -2.20439e-07 0)
(5.30122e-07 -2.16942e-07 0)
(5.5478e-07 -2.12563e-07 0)
(5.78896e-07 -2.07333e-07 0)
(6.02355e-07 -2.01277e-07 0)
(6.25065e-07 -1.94419e-07 0)
(6.46994e-07 -1.86822e-07 0)
(6.67993e-07 -1.78461e-07 0)
(6.87909e-07 -1.6939e-07 0)
(7.06699e-07 -1.59691e-07 0)
(7.24322e-07 -1.49374e-07 0)
(7.40737e-07 -1.38497e-07 0)
(7.5589e-07 -1.27114e-07 0)
(7.6974e-07 -1.1527e-07 0)
(7.82307e-07 -1.03047e-07 0)
(7.93452e-07 -9.03976e-08 0)
(8.03043e-07 -7.74134e-08 0)
(8.1111e-07 -6.41935e-08 0)
(3.34404e-10 -5.68862e-09 0)
(2.30379e-09 -1.84778e-08 0)
(6.6295e-09 -3.23358e-08 0)
(1.29585e-08 -4.69483e-08 0)
(2.11574e-08 -6.20556e-08 0)
(3.11607e-08 -7.7431e-08 0)
(4.28898e-08 -9.28674e-08 0)
(5.63204e-08 -1.0817e-07 0)
(7.1376e-08 -1.23124e-07 0)
(8.78928e-08 -1.37715e-07 0)
(1.05788e-07 -1.51773e-07 0)
(1.25013e-07 -1.65173e-07 0)
(1.45497e-07 -1.77802e-07 0)
(1.67146e-07 -1.89564e-07 0)
(1.89807e-07 -2.00386e-07 0)
(2.13062e-07 -2.10258e-07 0)
(2.37601e-07 -2.19322e-07 0)
(2.63219e-07 -2.27314e-07 0)
(2.89003e-07 -2.34168e-07 0)
(3.15271e-07 -2.39855e-07 0)
(3.42008e-07 -2.44402e-07 0)
(3.69119e-07 -2.47855e-07 0)
(3.96482e-07 -2.50249e-07 0)
(4.23964e-07 -2.51609e-07 0)
(4.51364e-07 -2.51931e-07 0)
(4.78796e-07 -2.51236e-07 0)
(5.06102e-07 -2.49366e-07 0)
(5.32915e-07 -2.46447e-07 0)
(5.59245e-07 -2.42476e-07 0)
(5.85041e-07 -2.37496e-07 0)
(6.10245e-07 -2.31582e-07 0)
(6.34764e-07 -2.24783e-07 0)
(6.58515e-07 -2.17116e-07 0)
(6.81433e-07 -2.0854e-07 0)
(7.03363e-07 -1.99212e-07 0)
(7.24178e-07 -1.89125e-07 0)
(7.43831e-07 -1.7829e-07 0)
(7.6225e-07 -1.66751e-07 0)
(7.79384e-07 -1.54581e-07 0)
(7.95188e-07 -1.41854e-07 0)
(8.09632e-07 -1.28628e-07 0)
(8.22737e-07 -1.14921e-07 0)
(8.34348e-07 -1.00822e-07 0)
(8.44337e-07 -8.63811e-08 0)
(8.52748e-07 -7.16292e-08 0)
(3.5368e-10 -6.86184e-09 0)
(2.45247e-09 -2.18502e-08 0)
(7.07823e-09 -3.77896e-08 0)
(1.38491e-08 -5.43912e-08 0)
(2.26052e-08 -7.14048e-08 0)
(3.32688e-08 -8.86076e-08 0)
(4.57587e-08 -1.05795e-07 0)
(6.00795e-08 -1.22768e-07 0)
(7.60585e-08 -1.39278e-07 0)
(9.35134e-08 -1.55344e-07 0)
(1.12442e-07 -1.70782e-07 0)
(1.32764e-07 -1.85474e-07 0)
(1.54398e-07 -1.99325e-07 0)
(1.77246e-07 -2.12244e-07 0)
(2.01124e-07 -2.24145e-07 0)
(2.25551e-07 -2.34973e-07 0)
(2.51248e-07 -2.44646e-07 0)
(2.78134e-07 -2.53388e-07 0)
(3.05293e-07 -2.60899e-07 0)
(3.32946e-07 -2.67093e-07 0)
(3.61013e-07 -2.71981e-07 0)
(3.89384e-07 -2.75622e-07 0)
(4.17938e-07 -2.78094e-07 0)
(4.46572e-07 -2.7948e-07 0)
(4.75152e-07 -2.7981e-07 0)
(5.0385e-07 -2.7887e-07 0)
(5.32427e-07 -2.76823e-07 0)
(5.60476e-07 -2.73606e-07 0)
(5.8802e-07 -2.69188e-07 0)
(6.14952e-07 -2.63619e-07 0)
(6.41212e-07 -2.57004e-07 0)
(6.66743e-07 -2.49413e-07 0)
(6.91543e-07 -2.40873e-07 0)
(7.15437e-07 -2.31251e-07 0)
(7.38243e-07 -2.20882e-07 0)
(7.59949e-07 -2.0969e-07 0)
(7.80462e-07 -1.9768e-07 0)
(7.99675e-07 -1.84896e-07 0)
(8.17519e-07 -1.71398e-07 0)
(8.3395e-07 -1.57267e-07 0)
(8.48985e-07 -1.42584e-07 0)
(8.6261e-07 -1.27337e-07 0)
(8.74652e-07 -1.11704e-07 0)
(8.85036e-07 -9.56971e-08 0)
(8.93792e-07 -7.9344e-08 0)
(3.7574e-10 -8.10439e-09 0)
(2.60601e-09 -2.54415e-08 0)
(7.5239e-09 -4.36093e-08 0)
(1.47215e-08 -6.23355e-08 0)
(2.40177e-08 -8.13719e-08 0)
(3.53227e-08 -1.00502e-07 0)
(4.85552e-08 -1.19521e-07 0)
(6.37571e-08 -1.3823e-07 0)
(8.0656e-08 -1.56391e-07 0)
(9.90419e-08 -1.7399e-07 0)
(1.18985e-07 -1.90869e-07 0)
(1.40368e-07 -2.06925e-07 0)
(1.63105e-07 -2.22063e-07 0)
(1.87108e-07 -2.362e-07 0)
(2.12198e-07 -2.49226e-07 0)
(2.37966e-07 -2.6099e-07 0)
(2.64832e-07 -2.70987e-07 0)
(2.92815e-07 -2.80252e-07 0)
(3.21321e-07 -2.88399e-07 0)
(3.50365e-07 -2.95315e-07 0)
(3.7979e-07 -3.009e-07 0)
(4.09437e-07 -3.05105e-07 0)
(4.39168e-07 -3.07929e-07 0)
(4.68899e-07 -3.09387e-07 0)
(4.98727e-07 -3.09452e-07 0)
(5.28638e-07 -3.07631e-07 0)
(5.58322e-07 -3.05295e-07 0)
(5.87605e-07 -3.01786e-07 0)
(6.16389e-07 -2.96983e-07 0)
(6.44486e-07 -2.90881e-07 0)
(6.71816e-07 -2.83586e-07 0)
(6.98365e-07 -2.75169e-07 0)
(7.24252e-07 -2.65666e-07 0)
(7.49106e-07 -2.54927e-07 0)
(7.7271e-07 -2.4342e-07 0)
(7.95268e-07 -2.31057e-07 0)
(8.16612e-07 -2.17838e-07 0)
(8.36616e-07 -2.03794e-07 0)
(8.55188e-07 -1.88947e-07 0)
(8.72261e-07 -1.7336e-07 0)
(8.879e-07 -1.57132e-07 0)
(9.02025e-07 -1.40287e-07 0)
(9.14458e-07 -1.23004e-07 0)
(9.25219e-07 -1.05339e-07 0)
(9.34308e-07 -8.73149e-08 0)
(3.98534e-10 -9.42318e-09 0)
(2.75678e-09 -2.92548e-08 0)
(7.95565e-09 -4.97936e-08 0)
(1.55694e-08 -7.07743e-08 0)
(2.53964e-08 -9.19438e-08 0)
(3.7333e-08 -1.13095e-07 0)
(5.12988e-08 -1.34022e-07 0)
(6.73541e-08 -1.54533e-07 0)
(8.51604e-08 -1.74445e-07 0)
(1.04473e-07 -1.93641e-07 0)
(1.25396e-07 -2.12033e-07 0)
(1.47802e-07 -2.29513e-07 0)
(1.71605e-07 -2.45954e-07 0)
(1.96734e-07 -2.61293e-07 0)
(2.23088e-07 -2.754e-07 0)
(2.50589e-07 -2.88092e-07 0)
(2.78781e-07 -2.98968e-07 0)
(3.07476e-07 -3.08786e-07 0)
(3.36912e-07 -3.17414e-07 0)
(3.67029e-07 -3.24795e-07 0)
(3.97692e-07 -3.30812e-07 0)
(4.28696e-07 -3.35375e-07 0)
(4.5986e-07 -3.38454e-07 0)
(4.91109e-07 -3.40016e-07 0)
(5.22824e-07 -3.39968e-07 0)
(5.53781e-07 -3.3774e-07 0)
(5.83904e-07 -3.34977e-07 0)
(6.14284e-07 -3.31045e-07 0)
(6.44291e-07 -3.25821e-07 0)
(6.73591e-07 -3.19157e-07 0)
(7.0205e-07 -3.11179e-07 0)
(7.29681e-07 -3.01911e-07 0)
(7.56701e-07 -2.91395e-07 0)
(7.82507e-07 -2.79599e-07 0)
(8.06851e-07 -2.66859e-07 0)
(8.30192e-07 -2.53283e-07 0)
(8.52315e-07 -2.38753e-07 0)
(8.73094e-07 -2.23379e-07 0)
(8.92423e-07 -2.07138e-07 0)
(9.10183e-07 -1.90057e-07 0)
(9.26429e-07 -1.72239e-07 0)
(9.41066e-07 -1.53851e-07 0)
(9.53889e-07 -1.34787e-07 0)
(9.6498e-07 -1.15341e-07 0)
(9.74368e-07 -9.55549e-08 0)
(4.21275e-10 -1.08192e-08 0)
(2.90023e-09 -3.32799e-08 0)
(8.36858e-09 -5.63115e-08 0)
(1.63956e-08 -7.96294e-08 0)
(2.67513e-08 -1.03011e-07 0)
(3.93144e-08 -1.26253e-07 0)
(5.40061e-08 -1.49161e-07 0)
(7.08623e-08 -1.71572e-07 0)
(8.9555e-08 -1.93393e-07 0)
(1.09799e-07 -2.14269e-07 0)
(1.31671e-07 -2.34208e-07 0)
(1.55107e-07 -2.53012e-07 0)
(1.79991e-07 -2.70537e-07 0)
(2.06253e-07 -2.86848e-07 0)
(2.33843e-07 -3.01923e-07 0)
(2.62637e-07 -3.1573e-07 0)
(2.92123e-07 -3.28539e-07 0)
(3.22058e-07 -3.39142e-07 0)
(3.52674e-07 -3.4819e-07 0)
(3.83979e-07 -3.55787e-07 0)
(4.15851e-07 -3.61898e-07 0)
(4.48053e-07 -3.66482e-07 0)
(4.80394e-07 -3.69548e-07 0)
(5.12857e-07 -3.71093e-07 0)
(5.46082e-07 -3.71071e-07 0)
(5.78319e-07 -3.69359e-07 0)
(6.09322e-07 -3.66093e-07 0)
(6.40692e-07 -3.61521e-07 0)
(6.71844e-07 -3.55603e-07 0)
(7.02344e-07 -3.4803e-07 0)
(7.31941e-07 -3.3917e-07 0)
(7.60705e-07 -3.29043e-07 0)
(7.88814e-07 -3.17671e-07 0)
(8.156e-07 -3.05207e-07 0)
(8.4071e-07 -2.91279e-07 0)
(8.64801e-07 -2.76493e-07 0)
(8.87704e-07 -2.60312e-07 0)
(9.09196e-07 -2.4327e-07 0)
(9.29269e-07 -2.25495e-07 0)
(9.47732e-07 -2.06948e-07 0)
(9.64506e-07 -1.87607e-07 0)
(9.79722e-07 -1.67634e-07 0)
(9.93074e-07 -1.46956e-07 0)
(1.00444e-06 -1.25707e-07 0)
(1.01406e-06 -1.04079e-07 0)
(4.44978e-10 -1.2251e-08 0)
(3.04614e-09 -3.74603e-08 0)
(8.80911e-09 -6.30903e-08 0)
(1.72653e-08 -8.88777e-08 0)
(2.81363e-08 -1.14619e-07 0)
(4.13041e-08 -1.40081e-07 0)
(5.66636e-08 -1.65076e-07 0)
(7.41905e-08 -1.8946e-07 0)
(9.37578e-08 -2.13233e-07 0)
(1.15037e-07 -2.35911e-07 0)
(1.37989e-07 -2.57423e-07 0)
(1.62656e-07 -2.77652e-07 0)
(1.88702e-07 -2.96538e-07 0)
(2.15947e-07 -3.14018e-07 0)
(2.444e-07 -3.30083e-07 0)
(2.73702e-07 -3.44802e-07 0)
(3.04584e-07 -3.5887e-07 0)
(3.36483e-07 -3.70288e-07 0)
(3.68336e-07 -3.7997e-07 0)
(4.00778e-07 -3.88054e-07 0)
(4.33823e-07 -3.94517e-07 0)
(4.67229e-07 -3.99297e-07 0)
(5.00783e-07 -4.02385e-07 0)
(5.3447e-07 -4.03782e-07 0)
(5.68797e-07 -4.03591e-07 0)
(6.02358e-07 -4.0274e-07 0)
(6.34712e-07 -3.99143e-07 0)
(6.67129e-07 -3.93645e-07 0)
(6.99539e-07 -3.86585e-07 0)
(7.31201e-07 -3.78198e-07 0)
(7.61655e-07 -3.68455e-07 0)
(7.9126e-07 -3.57372e-07 0)
(8.20103e-07 -3.45043e-07 0)
(8.47975e-07 -3.31852e-07 0)
(8.74178e-07 -3.16966e-07 0)
(8.99334e-07 -3.00511e-07 0)
(9.23305e-07 -2.82782e-07 0)
(9.45296e-07 -2.64113e-07 0)
(9.65777e-07 -2.44712e-07 0)
(9.84779e-07 -2.24557e-07 0)
(1.00215e-06 -2.03557e-07 0)
(1.01786e-06 -1.81769e-07 0)
(1.03172e-06 -1.59509e-07 0)
(1.04355e-06 -1.3644e-07 0)
(1.05345e-06 -1.12878e-07 0)
(4.62108e-10 -1.37376e-08 0)
(3.19259e-09 -4.18223e-08 0)
(9.22837e-09 -7.01886e-08 0)
(1.80584e-08 -9.86086e-08 0)
(2.94298e-08 -1.26848e-07 0)
(4.32213e-08 -1.54668e-07 0)
(5.92803e-08 -1.81872e-07 0)
(7.74716e-08 -2.08296e-07 0)
(9.78269e-08 -2.33841e-07 0)
(1.20146e-07 -2.58347e-07 0)
(1.44155e-07 -2.81572e-07 0)
(1.69794e-07 -3.03474e-07 0)
(1.96908e-07 -3.24004e-07 0)
(2.25388e-07 -3.42912e-07 0)
(2.55064e-07 -3.60095e-07 0)
(2.85121e-07 -3.75616e-07 0)
(3.17122e-07 -3.90152e-07 0)
(3.50616e-07 -4.02491e-07 0)
(3.8371e-07 -4.1297e-07 0)
(4.17352e-07 -4.21591e-07 0)
(4.51629e-07 -4.28371e-07 0)
(4.86299e-07 -4.3327e-07 0)
(5.21113e-07 -4.36331e-07 0)
(5.55944e-07 -4.37638e-07 0)
(5.90513e-07 -4.37348e-07 0)
(6.25265e-07 -4.36413e-07 0)
(6.60039e-07 -4.32562e-07 0)
(6.94013e-07 -4.26588e-07 0)