/*--------------------------------*- C++ -*----------------------------------*\
  =========                 |
  \\      /  F ield         | OpenFOAM: The Open Source CFD Toolbox
   \\    /   O peration     | Website:  https://openfoam.org
    \\  /    A nd           | Version:  9
     \\/     M anipulation  |
\*---------------------------------------------------------------------------*/
FoamFile
{
    format      ascii;
    class       surfaceScalarField;
    location    "12.2";
    object      phi;
}
// * * * * * * * * * * * * * * * * * * * * * * * * * * * * * * * * * * * * * //

dimensions      [0 3 -1 0 0 0 0];

internalField   nonuniform List<scalar> 
16735
(
-0.00368137
0.00368137
3.24047e-10
-0.0110169
0.00733555
1.39003e-10
-0.0208733
0.00985641
-3.51043e-10
-0.0326161
0.0117428
-9.65626e-10
-0.0464348
0.0138187
-1.78453e-09
-0.0620035
0.0155687
-2.87255e-09
-0.0810898
0.0190863
-4.37717e-09
-0.101165
0.020075
-6.21123e-09
-0.128428
0.027263
-8.38148e-09
0.0271489
-1.0917e-08
-0.155577
-0.00359161
0.00727299
-0.0107636
0.0145075
-0.0203791
0.0194719
-0.0317726
0.0231363
-0.0450887
0.0271348
-0.0599094
0.0303895
-0.0779411
0.0371179
-0.096432
0.0385659
-0.1216
0.0524314
0.0511697
-0.145621
-0.0034172
0.0106902
-0.0102697
0.02136
-0.0194138
0.028616
-0.0301256
0.0338481
-0.0424608
0.03947
-0.0558382
0.0437669
-0.0718204
0.0531001
-0.0872863
0.0540318
-0.108456
0.0736015
0.0693022
-0.126589
-0.00316798
0.0138582
-0.00955974
0.0277518
-0.0180229
0.0370791
-0.0277525
0.0435777
-0.0386742
0.0503917
-0.0500112
0.0551038
-0.0630611
0.06615
-0.074318
0.0652887
-0.089936
0.0892194
0.0794411
-0.100075
-0.0028579
0.0167161
-0.00866869
0.0335626
-0.01627
0.0446805
-0.024762
0.0520697
-0.0339003
0.05953
-0.0427313
0.0639348
-0.0521149
0.0755336
-0.0583021
0.071476
-0.0672523
0.0981697
0.080296
-0.0681072
-0.00250406
0.0192201
-0.00763943
0.038698
-0.0142315
0.0512726
-0.0212858
0.059124
-0.0283442
0.0665884
-0.034353
0.0699437
-0.0394991
0.0806796
-0.0400976
0.0720745
-0.0416708
0.0997428
0.0714279
-0.0328027
-0.0021256
0.0213457
-0.0065202
0.0430926
-0.0119936
0.0567459
-0.0174684
0.0645988
-0.0222264
0.0713464
-0.0252466
0.0729639
-0.02573
0.0811631
-0.020559
0.0669035
-0.0141696
0.0933534
0.0532052
0.00405307
-0.00174246
0.0230882
-0.00536136
0.0467115
-0.00964594
0.0610305
-0.0134552
0.0684081
-0.0157616
0.0736527
-0.0157574
0.0729597
-0.0112223
0.076628
-0.000674845
0.056356
0.0140349
0.0786437
0.0241413
0.0430989
-0.00137404
0.0244622
-0.00421201
0.0495494
-0.00727548
0.064094
-0.00938019
0.0705128
-0.00913273
0.0734053
-0.00617127
0.0699982
0.00366699
0.0667898
0.0205694
0.0394536
0.0427349
0.0564781
-0.0165103
0.0833865
-0.0010379
0.0255001
-0.00311636
0.0516279
-0.00495943
0.0659371
-0.00535396
0.0709074
-0.00244608
0.0704974
0.00349713
0.064055
0.0183579
0.051929
0.0414916
0.0163199
0.0728681
0.0251017
-0.0700708
0.126429
-0.000748484
0.0262486
-0.0021102
0.0529896
-0.00275755
0.0665844
-0.00146151
0.0696113
0.00405724
0.0649786
0.0134746
0.0546376
0.0337339
0.0316697
0.0627392
-0.0126854
0.105337
-0.0174961
-0.138547
0.173813
-0.000516161
0.0267648
-0.00121787
0.0536913
-0.000699043
0.0660656
0.00236096
0.0665513
0.0105027
0.0568369
0.0237054
0.0414349
0.0501738
0.00520125
0.0856268
-0.0481384
0.141556
-0.0734257
-0.222972
0.225981
-0.000346491
0.0271113
-0.000449931
0.0537947
0.00117739
0.0644383
0.00610692
0.0616218
0.0171159
0.0458279
0.0348068
0.023744
0.0683095
-0.0283014
0.112131
-0.0919601
0.182879
-0.144174
-0.321258
0.281165
-0.000240363
0.0273516
0.000200627
0.0533538
0.00292575
0.0617131
0.00985151
0.054696
0.0241428
0.0315366
0.0475469
0.000339886
0.0888853
-0.0696397
0.143882
-0.146957
0.229333
-0.229625
-0.42737
0.335445
-0.000185886
0.0275375
0.000758323
0.0524095
0.00463391
0.0578375
0.0138005
0.0455295
0.0319745
0.0133626
0.0626708
-0.0303565
0.112678
-0.119647
0.180768
-0.215047
0.278268
-0.327124
-0.533267
0.384164
-0.000172819
0.0277103
0.00126882
0.0509679
0.00641673
0.0526896
0.0182346
0.0337116
0.0411336
-0.00953642
0.0806707
-0.0698935
0.140152
-0.179128
0.220603
-0.295498
0.324566
-0.431087
-0.632079
0.423378
-0.000184129
0.0278945
0.00179181
0.048992
0.00843057
0.0460509
0.0235067
0.0186355
0.0522413
-0.038271
0.101644
-0.119296
0.170728
-0.248213
0.259857
-0.384627
0.362988
-0.534217
-0.719998
0.450907
-0.000197775
0.0280922
0.00240068
0.0463935
0.0108613
0.0375903
0.0300026
-0.000505892
0.0658372
-0.0741056
0.125211
-0.17867
0.202388
-0.325389
0.2947
-0.47694
0.390497
-0.630014
-0.796118
0.466617
-0.00018886
0.0282811
0.00317749
0.0430272
0.0139117
0.0268561
0.03808
-0.0246742
0.0820972
-0.118123
0.150333
-0.246906
0.232289
-0.407345
0.322156
-0.566807
0.406713
-0.714571
-0.861402
0.471998
-0.000131135
0.0284122
0.0042062
0.0386898
0.0177896
0.0132727
0.0479875
-0.0548722
0.100597
-0.170732
0.175272
-0.321581
0.257855
-0.489928
0.340898
-0.64985
0.412963
-0.786636
-0.918142
0.469702
6.50999e-06
0.0284057
0.00556883
0.0331275
0.0226908
-0.00384924
0.0597603
-0.0919417
0.120288
-0.23126
0.198028
-0.399321
0.277455
-0.569354
0.351212
-0.723607
0.412729
-0.848153
-0.971731
0.466319
0.000206681
0.028199
0.00734337
0.0259908
0.0287691
-0.025275
0.0731153
-0.136288
0.139723
-0.297868
0.216976
-0.476574
0.290535
-0.642913
0.354508
-0.787581
0.408698
-0.902343
-1.01812
0.455084
0.000515026
0.027684
0.00960584
0.0169
0.0360816
-0.0517507
0.0874156
-0.187622
0.157427
-0.367879
0.231228
-0.550375
0.297432
-0.709118
0.352754
-0.842902
0.399472
-0.949061
-1.05758
0.43893
0.000936898
0.0267471
0.0124268
0.00541008
0.0445245
-0.0838484
0.10176
-0.244858
0.17226
-0.438379
0.240617
-0.618732
0.299103
-0.767604
0.346692
-0.890491
0.38725
-0.989619
-1.0929
0.422575
0.00147995
0.0252672
0.0158615
-0.00897148
0.0538045
-0.121791
0.115175
-0.306228
0.183599
-0.506804
0.245478
-0.680611
0.296489
-0.818615
0.33751
-0.931512
0.373042
-1.02515
-1.12436
0.404497
0.00215525
0.0231119
0.0199226
-0.0267388
0.0634722
-0.165341
0.126821
-0.369576
0.191297
-0.57128
0.246366
-0.73568
0.290536
-0.862785
0.326015
-0.966992
0.357341
-1.05648
-1.15283
0.385813
0.00298314
0.0201288
0.0245514
-0.0483071
0.0729897
-0.213779
0.136147
-0.432734
0.195528
-0.630661
0.243926
-0.784078
0.282019
-0.900878
0.312853
-0.997826
0.340712
-1.08433
-1.17867
0.366559
0.00399694
0.0161318
0.0296104
-0.0739206
0.0817997
-0.265968
0.142918
-0.493852
0.196642
-0.684385
0.238782
-0.826217
0.271583
-0.93368
0.298514
-1.02476
0.323397
-1.10922
-1.20218
0.346903
0.00523701
0.0108948
0.0349027
-0.103586
0.0894132
-0.320479
0.14715
-0.551588
0.195067
-0.732302
0.231495
-0.862646
0.259732
-0.961917
0.283343
-1.04837
0.305624
-1.1315
-1.22352
0.326965
0.00673196
0.00416287
0.0402049
-0.137059
0.0955005
-0.375775
0.149012
-0.6051
0.191237
-0.774527
0.222545
-0.893954
0.246851
-0.986223
0.267593
-1.06911
0.287517
-1.15142
-1.24279
0.306786
0.00847537
-0.0043125
0.0452941
-0.173878
0.0999164
-0.430397
0.148746
-0.65393
0.185564
-0.811346
0.212327
-0.920716
0.233233
-1.00713
0.251439
-1.08732
0.269173
-1.16916
-1.26004
0.286427
0.0104157
-0.0147282
0.0499543
-0.213417
0.102658
-0.4831
0.146624
-0.697896
0.178413
-0.843135
0.20116
-0.943463
0.219095
-1.02506
0.235006
-1.10323
0.250655
-1.18481
-1.2753
0.265915
0.0124675
-0.0271957
0.0539847
-0.254934
0.10381
-0.532926
0.142917
-0.737002
0.170096
-0.870314
0.189295
-0.962662
0.204595
-1.04036
0.218382
-1.11701
0.232011
-1.19844
-1.28858
0.245285
0.0145347
-0.0417304
0.0572199
-0.297619
0.103509
-0.579215
0.137882
-0.771375
0.160877
-0.893309
0.176929
-0.978714
0.189852
-1.05329
0.20163
-1.12879
0.213279
-1.21008
-1.29986
0.224564
0.0165319
-0.0582624
0.0595511
-0.340638
0.101912
-0.621576
0.131755
-0.801217
0.150968
-0.912522
0.164211
-0.991957
0.174952
-1.06403
0.184795
-1.13863
0.194488
-1.21978
-1.30915
0.203779
0.0183905
-0.0766529
0.0609331
-0.383181
0.0991854
-0.659829
0.124746
-0.826778
0.140545
-0.928322
0.151259
-1.00267
0.159959
-1.07273
0.167916
-1.14659
0.175668
-1.22753
-1.31644
0.182959
0.0200534
-0.0967063
0.0613745
-0.424502
0.0954912
-0.693945
0.117041
-0.848327
0.129754
-0.941035
0.13816
-1.01108
0.144923
-1.07949
0.151025
-1.15269
0.156843
-1.23335
-1.32173
0.162131
0.0214678
-0.118174
0.0609205
-0.463955
0.0909806
-0.724005
0.108799
-0.866146
0.118709
-0.950945
0.124984
-1.01735
0.129883
-1.08439
0.13415
-1.15696
0.138039
-1.23724
-1.32502
0.141323
0.0225833
-0.140757
0.0596295
-0.501001
0.0857907
-0.750167
0.100157
-0.880512
0.107505
-0.958293
0.111784
-1.02163
0.114871
-1.08748
0.117317
-1.15941
0.119283
-1.2392
-1.3263
0.120568
0.023358
-0.164115
0.0576117
-0.535255
0.080047
-0.772602
0.0912275
-0.891692
0.0962163
-0.963282
0.0986031
-1.02402
0.0999149
-1.08879
0.100547
-1.16004
0.100599
-1.23925
-1.32561
0.0999029
0.023765
-0.18788
0.0550339
-0.566523
0.0738665
-0.791435
0.0821025
-0.899928
0.0849027
-0.966082
0.0854746
-1.02459
0.0850375
-1.08835
0.0838616
-1.15886
0.0820125
-1.23741
-1.32297
0.0793779
0.0237951
-0.211675
0.0519567
-0.594685
0.0673515
-0.806829
0.072859
-0.905436
0.0736113
-0.966834
0.0724276
-1.02341
0.0702612
-1.08618
0.0672827
-1.15588
0.0635411
-1.23366
-1.31838
0.0589528
0.0234561
-0.235132
0.0484534
-0.619682
0.0605908
-0.818967
0.0635611
-0.908406
0.0623799
-0.965653
0.0594861
-1.02051
0.0556063
-1.0823
0.0508352
-1.15111
0.0452073
-1.22804
-1.31182
0.0386408
0.0227717
-0.257903
0.0445976
-0.641508
0.0536607
-0.82803
0.0542613
-0.909007
0.0512392
-0.962631
0.0466713
-1.01595
0.0410909
-1.07672
0.0345426
-1.14456
0.0270534
-1.22055
-1.30323
0.018468
0.0217771
-0.27968
0.0404594
-0.66019
0.0466101
-0.834181
0.0450015
-0.907398
0.0402148
-0.957844
0.0340025
-1.00973
0.0267318
-1.06945
0.0184141
-1.13625
0.00914571
-1.21128
-1.29248
-0.00160597
0.0205144
-0.300195
0.036104
-0.67578
0.0394978
-0.837574
0.0358169
-0.903717
0.0293283
-0.951356
0.0214955
-1.0019
0.0125468
-1.0605
0.00241004
-1.12611
-0.00855701
-1.20031
-1.27986
-0.0211795
0.0190273
-0.319222
0.031591
-0.688344
0.0323751
-0.838358
0.0267374
-0.89808
0.0185963
-0.943214
0.00915741
-0.992462
-0.00145612
-1.04989
-0.0131913
-1.11437
-0.0261021
-1.1874
-1.26542
-0.0405367
0.0173587
-0.336581
0.0269739
-0.697959
0.0252843
-0.836669
0.0177891
-0.890584
0.00802195
-0.933447
-0.00298439
-0.981455
-0.0151568
-1.03772
-0.0285809
-1.10095
-0.0433552
-1.17263
-1.24915
-0.0596225
0.0155483
-0.352129
0.0223004
-0.704711
0.01826
-0.832628
0.00899094
-0.881315
-0.00237204
-0.922084
-0.0148315
-0.968996
-0.0286421
-1.02391
-0.0437363
-1.08586
-0.0603122
-1.15605
-1.23107
-0.0783991
0.0136325
-0.365762
0.0176121
-0.708691
0.0113287
-0.826345
0.000314324
-0.870301
-0.0124285
-0.909342
-0.0264793
-0.954945
-0.0418778
-1.00851
-0.0586256
-1.06911
-0.0769576
-1.13772
-1.21118
-0.0968442
0.0116442
-0.377406
0.0129459
-0.709992
0.00449836
-0.817897
-0.0080298
-0.857773
-0.022307
-0.895064
-0.037891
-0.939361
-0.054848
-0.991553
-0.0732247
-1.05073
-0.0932744
-1.11767
-1.18952
-0.114931
0.0096129
-0.387019
0.00833669
-0.708716
-0.00217394
-0.807387
-0.0162244
-0.843722
-0.0319652
-0.879324
-0.0490496
-0.922277
-0.0675371
-0.973066
-0.087513
-1.03076
-0.109245
-1.09594
-1.16613
-0.132639
0.00756272
-0.394581
0.00382501
-0.704979
-0.00855981
-0.795002
-0.0242142
-0.828068
-0.0413872
-0.862151
-0.0599408
-0.903723
-0.0799303
-0.953076
-0.101473
-1.00921
-0.124851
-1.07256
-1.14104
-0.149946
0.00551254
-0.400094
-0.000553147
-0.698913
-0.0148075
-0.780748
-0.0319844
-0.810891
-0.0505626
-0.843572
-0.0705526
-0.883733
-0.0920133
-0.931615
-0.115087
-0.986139
-0.140078
-1.04757
-1.11428
-0.166831
0.00348246
-0.403576
-0.00506727
-0.690363
-0.0208898
-0.764925
-0.039522
-0.792259
-0.0594804
-0.823614
-0.0808736
-0.86234
-0.103772
-0.908717
-0.128343
-0.961568
-0.154908
-1.021
-1.08593
-0.183266
0.00150925
-0.405086
-0.00935979
-0.679494
-0.0267905
-0.747494
-0.0468188
-0.772231
-0.0681305
-0.802302
-0.0908927
-0.839578
-0.115194
-0.884415
-0.141226
-0.935536
-0.169324
-0.992905
-1.05602
-0.199227
-0.0004159
-0.40467
-0.0134858
-0.666424
-0.0324996
-0.728481
-0.0538698
-0.75086
-0.0765034
-0.779669
-0.100599
-0.815482
-0.126268
-0.858746
-0.153726
-0.908078
-0.183309
-0.963322
-1.02461
-0.214718
-0.00252406
-0.402146
-0.0174595
-0.651489
-0.0380048
-0.707935
-0.0606695
-0.728196
-0.0845904
-0.755748
-0.109983
-0.790089
-0.136984
-0.831746
-0.165844
-0.879218
-0.196858
-0.932309
-0.991763
-0.229707
-0.00449994
-0.397646
-0.0212797
-0.634709
-0.0432954
-0.685919
-0.0672123
-0.704279
-0.0923829
-0.730577
-0.119034
-0.763438
-0.147334
-0.803446
-0.177574
-0.848977
-0.209924
-0.899959
-0.957731
-0.243956
-0.0063896
-0.391256
-0.0249437
-0.616155
-0.0483655
-0.662498
-0.0734928
-0.679151
-0.0998733
-0.704197
-0.127743
-0.735569
-0.157308
-0.773881
-0.18887
-0.817414
-0.22252
-0.866309
-0.92292
-0.257331
-0.00819875
-0.383057
-0.0284486
-0.595905
-0.0532106
-0.637736
-0.0795059
-0.652856
-0.107054
-0.676648
-0.136102
-0.706521
-0.16689
-0.743093
-0.199676
-0.784628
-0.234157
-0.831828
-0.885919
-0.271158
-0.00992765
-0.37313
-0.0317911
-0.574042
-0.0578276
-0.611699
-0.0852468
-0.625437
-0.11392
-0.647975
-0.144104
-0.676337
-0.176059
-0.711138
-0.209954
-0.750733
-0.245691
-0.796091
-0.847331
-0.284279
-0.011575
-0.361555
-0.0349686
-0.550648
-0.0622136
-0.584454
-0.0907111
-0.596939
-0.120463
-0.618223
-0.151739
-0.645061
-0.184814
-0.678063
-0.219844
-0.715702
-0.256951
-0.758984
-0.807408
-0.296874
-0.0131389
-0.348416
-0.0379784
-0.525809
-0.0663663
-0.556066
-0.0958947
-0.567411
-0.126678
-0.58744
-0.158997
-0.612742
-0.193131
-0.643929
-0.229242
-0.679592
-0.267564
-0.720662
-0.766227
-0.308746
-0.0146173
-0.333799
-0.0408181
-0.499608
-0.0702837
-0.526601
-0.100794
-0.536901
-0.13256
-0.555674
-0.165872
-0.57943
-0.201018
-0.608784
-0.238181
-0.642428
-0.277654
-0.681188
-0.723906
-0.319975
-0.0160079
-0.317791
-0.0434857
-0.47213
-0.0739638
-0.496122
-0.105404
-0.505461
-0.138101
-0.522977
-0.172353
-0.545178
-0.208457
-0.57268
-0.246618
-0.604267
-0.287162
-0.640644
-0.680517
-0.330551
-0.0173084
-0.300482
-0.0459795
-0.443459
-0.0774048
-0.464697
-0.109723
-0.473142
-0.143298
-0.489402
-0.178436
-0.510041
-0.215443
-0.535673
-0.254549
-0.565161
-0.296094
-0.599098
-0.636132
-0.340479
-0.0185158
-0.281966
-0.0482979
-0.413677
-0.080605
-0.43239
-0.113747
-0.44
-0.148145
-0.455004
-0.184112
-0.474073
-0.221967
-0.497818
-0.261958
-0.52517
-0.304435
-0.556621
-0.590817
-0.34975
-0.0196264
-0.26234
-0.0504395
-0.382864
-0.0835631
-0.399266
-0.117473
-0.40609
-0.152637
-0.41984
-0.189377
-0.437334
-0.228022
-0.459173
-0.268836
-0.484356
-0.312176
-0.513282
-0.544638
-0.358355
-0.0206334
-0.241707
-0.0524024
-0.351095
-0.0862779
-0.365391
-0.120898
-0.37147
-0.15677
-0.383968
-0.194222
-0.399881
-0.233598
-0.419798
-0.275173
-0.442781
-0.319306
-0.469148
-0.497662
-0.366282
-0.0215222
-0.220185
-0.0541855
-0.318432
-0.0887491
-0.330827
-0.12402
-0.3362
-0.16054
-0.347447
-0.198644
-0.361777
-0.238689
-0.379754
-0.28096
-0.40051
-0.325817
-0.424291
-0.449959
-0.373521
-0.0223367
-0.197848
-0.0557911
-0.284977
-0.0909764
-0.295642
-0.126836
-0.30034
-0.163943
-0.31034
-0.202638
-0.323082
-0.243289
-0.339103
-0.28619
-0.357608
-0.331699
-0.378781
-0.401598
-0.38006
-0.0230786
-0.174769
-0.0572199
-0.250836
-0.0929591
-0.259903
-0.129344
-0.263955
-0.166976
-0.272708
-0.206199
-0.28386
-0.247391
-0.29791
-0.290856
-0.314144
-0.336945
-0.332692
-0.352654
-0.385889
-0.0237353
-0.151034
-0.0584716
-0.216099
-0.0946963
-0.223678
-0.131543
-0.227109
-0.169637
-0.234613
-0.209322
-0.244174
-0.250991
-0.256241
-0.294951
-0.270184
-0.341547
-0.286096
-0.3032
-0.391001
-0.0243017
-0.126732
-0.0595457
-0.180856
-0.0961871
-0.187037
-0.13343
-0.189866
-0.171922
-0.196122
-0.212006
-0.20409
-0.254085
-0.214162
-0.298469
-0.2258
-0.345499
-0.239066
-0.253314
-0.395386
-0.0247757
-0.101957
-0.0604415
-0.14519
-0.0974307
-0.150047
-0.135005
-0.152292
-0.173829
-0.157298
-0.214246
-0.163673
-0.256667
-0.171741
-0.301405
-0.181062
-0.348794
-0.191677
-0.203068
-0.399039
-0.0251558
-0.0768007
-0.0611586
-0.109187
-0.0984264
-0.11278
-0.136266
-0.114452
-0.175357
-0.118207
-0.216041
-0.122989
-0.258736
-0.129046
-0.303756
-0.136043
-0.351429
-0.144003
-0.15254
-0.401958
-0.0254414
-0.0513593
-0.0616968
-0.0729315
-0.0991737
-0.0753026
-0.137213
-0.0764121
-0.176504
-0.0789163
-0.217389
-0.0821042
-0.26029
-0.0861451
-0.305521
-0.0908122
-0.353405
-0.0961188
-0.101805
-0.404141
-0.025632
-0.0257273
-0.0620557
-0.0365078
-0.0996721
-0.0376862
-0.137845
-0.0382394
-0.177269
-0.0394916
-0.218288
-0.0410856
-0.261326
-0.0431069
-0.306697
-0.0454411
-0.354722
-0.0480942
-0.050935
-0.405592
-0.0257273
4.36875e-11
-0.0622352
3.29657e-11
-0.0999214
1.9097e-11
-0.138161
7.92836e-12
-0.177652
-4.13551e-12
-0.218738
-1.54388e-11
-0.261845
-2.54384e-11
-0.307286
-3.35709e-11
-0.35538
-3.9685e-11
-4.39524e-11
-0.406315
-0.0257273
0.0257273
-0.0622352
0.0365078
-0.0999214
0.0376862
-0.138161
0.0382394
-0.177652
0.0394916
-0.218738
0.0410856
-0.261845
0.0431069
-0.307286
0.0454411
-0.35538
0.0480942
0.050935
-0.406315
-0.025632
0.0513593
-0.0620557
0.0729315
-0.0996721
0.0753026
-0.137845
0.0764121
-0.177269
0.0789163
-0.218288
0.0821042
-0.261326
0.0861451
-0.306697
0.0908122
-0.354722
0.0961188
0.101805
-0.405592
-0.0254414
0.0768007
-0.0616968
0.109187
-0.0991737
0.11278
-0.137213
0.114452
-0.176504
0.118207
-0.217389
0.122989
-0.26029
0.129046
-0.305521
0.136043
-0.353405
0.144003
0.15254
-0.404141
-0.0251558
0.101957
-0.0611586
0.14519
-0.0984264
0.150047
-0.136266
0.152292
-0.175357
0.157298
-0.216041
0.163673
-0.258736
0.171741
-0.303756
0.181062
-0.351429
0.191677
0.203068
-0.401958
-0.0247757
0.126732
-0.0604415
0.180856
-0.0974307
0.187037
-0.135005
0.189866
-0.173829
0.196122
-0.214246
0.20409
-0.256667
0.214162
-0.301405
0.2258
-0.348794
0.239066
0.253314
-0.399039
-0.0243017
0.151034
-0.0595457
0.216099
-0.0961871
0.223678
-0.13343
0.227109
-0.171922
0.234613
-0.212006
0.244174
-0.254085
0.256241
-0.298469
0.270184
-0.345499
0.286096
0.3032
-0.395386
-0.0237353
0.174769
-0.0584716
0.250836
-0.0946963
0.259903
-0.131543
0.263955
-0.169637
0.272708
-0.209322
0.28386
-0.250991
0.29791
-0.294951
0.314144
-0.341547
0.332692
0.352654
-0.391001
-0.0230786
0.197848
-0.0572199
0.284977
-0.0929591
0.295642
-0.129344
0.30034
-0.166976
0.31034
-0.206199
0.323082
-0.247391
0.339103
-0.290856
0.357608
-0.336945
0.378781
0.401598
-0.385889
-0.0223367
0.220185
-0.0557911
0.318432
-0.0909764
0.330827
-0.126836
0.3362
-0.163943
0.347447
-0.202638
0.361777
-0.243289
0.379754
-0.28619
0.40051
-0.331699
0.424291
0.449959
-0.38006
-0.0215222
0.241707
-0.0541855
0.351095
-0.0887491
0.365391
-0.12402
0.37147
-0.16054
0.383968
-0.198644
0.399881
-0.238689
0.419798
-0.28096
0.442781
-0.325817
0.469148
0.497662
-0.373521
-0.0206334
0.26234
-0.0524024
0.382864
-0.0862779
0.399266
-0.120898
0.40609
-0.15677
0.41984
-0.194222
0.437334
-0.233598
0.459173
-0.275173
0.484356
-0.319306
0.513282
0.544638
-0.366282
-0.0196264
0.281966
-0.0504395
0.413677
-0.0835631
0.43239
-0.117473
0.44
-0.152637
0.455004
-0.189377
0.474073
-0.228022
0.497818
-0.268836
0.52517
-0.312176
0.556621
0.590817
-0.358355
-0.0185158
0.300482
-0.0482979
0.443459
-0.080605
0.464697
-0.113747
0.473142
-0.148145
0.489402
-0.184112
0.510041
-0.221967
0.535673
-0.261958
0.565161
-0.304435
0.599098
0.636132
-0.34975
-0.0173084
0.317791
-0.0459795
0.47213
-0.0774048
0.496122
-0.109723
0.505461
-0.143298
0.522977
-0.178436
0.545178
-0.215443
0.57268
-0.254549
0.604267
-0.296094
0.640644
0.680517
-0.340479
-0.0160079
0.333799
-0.0434857
0.499608
-0.0739638
0.526601
-0.105404
0.536901
-0.138101
0.555674
-0.172353
0.57943
-0.208457
0.608784
-0.246618
0.642428
-0.287162
0.681188
0.723906
-0.330551
-0.0146173
0.348416
-0.0408181
0.525809
-0.0702837
0.556066
-0.100794
0.567411
-0.13256
0.58744
-0.165872
0.612742
-0.201018
0.643929
-0.238181
0.679592
-0.277654
0.720662
0.766227
-0.319975
-0.0131389
0.361555
-0.0379784
0.550648
-0.0663663
0.584454
-0.0958947
0.596939
-0.126678
0.618223
-0.158997
0.645061
-0.193131
0.678063
-0.229242
0.715702
-0.267564
0.758984
0.807408
-0.308746
-0.011575
0.37313
-0.0349686
0.574042
-0.0622136
0.611699
-0.0907111
0.625437
-0.120463
0.647975
-0.151739
0.676337
-0.184814
0.711138
-0.219844
0.750733
-0.256951
0.796091
0.847331
-0.296874
-0.00992765
0.383057
-0.0317911
0.595905
-0.0578276
0.637736
-0.0852468
0.652856
-0.11392
0.676648
-0.144104
0.706521
-0.176059
0.743093
-0.209954
0.784628
-0.245691
0.831828
0.885919
-0.284279
-0.00819875
0.391256
-0.0284486
0.616155
-0.0532106
0.662498
-0.0795059
0.679151
-0.107054
0.704197
-0.136102
0.735569
-0.16689
0.773881
-0.199676
0.817414
-0.234157
0.866309
0.92292
-0.271158
-0.0063896
0.397646
-0.0249437
0.634709
-0.0483655
0.685919
-0.0734928
0.704279
-0.0998733
0.730577
-0.127743
0.763438
-0.157308
0.803446
-0.18887
0.848977
-0.22252
0.899959
0.957731
-0.257331
-0.00449994
0.402146
-0.0212797
0.651489
-0.0432954
0.707935
-0.0672123
0.728196
-0.0923829
0.755748
-0.119034
0.790089
-0.147334
0.831746
-0.177574
0.879218
-0.209924
0.932309
0.991763
-0.243956
-0.00252406
0.40467
-0.0174595
0.666424
-0.0380048
0.728481
-0.0606695
0.75086
-0.0845904
0.779669
-0.109983
0.815482
-0.136984
0.858746
-0.165844
0.908078
-0.196858
0.963322
1.02461
-0.229707
-0.0004159
0.405086
-0.0134858
0.679494
-0.0324996
0.747494
-0.0538698
0.772231
-0.0765034
0.802302
-0.100599
0.839578
-0.126268
0.884415
-0.153726
0.935536
-0.183309
0.992905
1.05602
-0.214718
0.00150925
0.403576
-0.00935979
0.690363
-0.0267905
0.764925
-0.0468188
0.792259
-0.0681305
0.823614
-0.0908927
0.86234
-0.115194
0.908717
-0.141226
0.961568
-0.169324
1.021
1.08593
-0.199227
0.00348246
0.400094
-0.00506727
0.698913
-0.0208898
0.780748
-0.039522
0.810891
-0.0594804
0.843572
-0.0808736
0.883733
-0.103772
0.931615
-0.128343
0.986139
-0.154908
1.04757
1.11428
-0.183266
0.00551254
0.394581
-0.000553147
0.704979
-0.0148075
0.795002
-0.0319844
0.828068
-0.0505626
0.862151
-0.0705526
0.903723
-0.0920133
0.953076
-0.115087
1.00921
-0.140078
1.07256
1.14104
-0.166831
0.00756272
0.387019
0.00382501
0.708716
-0.00855981
0.807387
-0.0242142
0.843722
-0.0413872
0.879324
-0.0599408
0.922277
-0.0799303
0.973066
-0.101473
1.03076
-0.124851
1.09594
1.16613
-0.149946
0.0096129
0.377406
0.00833669
0.709992
-0.00217394
0.817897
-0.0162244
0.857773
-0.0319652
0.895064
-0.0490496
0.939361
-0.0675371
0.991553
-0.087513
1.05073
-0.109245
1.11767
1.18952
-0.132639
0.0116442
0.365762
0.0129459
0.708691
0.00449836
0.826345
-0.0080298
0.870301
-0.022307
0.909342
-0.037891
0.954945
-0.054848
1.00851
-0.0732247
1.06911
-0.0932744
1.13772
1.21118
-0.114931
0.0136325
0.352129
0.0176121
0.704711
0.0113287
0.832628
0.000314324
0.881315
-0.0124285
0.922084
-0.0264793
0.968996
-0.0418778
1.02391
-0.0586256
1.08586
-0.0769576
1.15605
1.23107
-0.0968442
0.0155483
0.336581
0.0223004
0.697959
0.01826
0.836669
0.00899094
0.890584
-0.00237204
0.933447
-0.0148315
0.981455
-0.0286421
1.03772
-0.0437363
1.10095
-0.0603122
1.17263
1.24915
-0.0783991
0.0173587
0.319222
0.0269739
0.688344
0.0252843
0.838358
0.0177891
0.89808
0.00802195
0.943214
-0.00298439
0.992462
-0.0151568
1.04989
-0.0285809
1.11437
-0.0433552
1.1874
1.26542
-0.0596225
0.0190273
0.300195
0.031591
0.67578
0.0323751
0.837574
0.0267374
0.903717
0.0185963
0.951356
0.00915741
1.0019
-0.00145612
1.0605
-0.0131913
1.12611
-0.0261021
1.20031
1.27986
-0.0405367
0.0205144
0.27968
0.036104
0.66019
0.0394978
0.834181
0.0358169
0.907398
0.0293283
0.957844
0.0214955
1.00973
0.0125468
1.06945
0.00241004
1.13625
-0.00855701
1.21128
1.29248
-0.0211795
0.0217771
0.257903
0.0404594
0.641508
0.0466101
0.82803
0.0450015
0.909007
0.0402148
0.962631
0.0340025
1.01595
0.0267318
1.07672
0.0184141
1.14456
0.00914571
1.22055
1.30323
-0.00160598
0.0227717
0.235132
0.0445976
0.619682
0.0536607
0.818967
0.0542613
0.908406
0.0512392
0.965653
0.0466713
1.02051
0.0410909
1.0823
0.0345426
1.15111
0.0270534
1.22804
1.31182
0.018468
0.0234561
0.211675
0.0484534
0.594685
0.0605908
0.806829
0.0635611
0.905436
0.0623799
0.966834
0.0594861
1.02341
0.0556063
1.08618
0.0508352
1.15588
0.0452073
1.23366
1.31838
0.0386408
0.0237951
0.18788
0.0519567
0.566523
0.0673515
0.791435
0.072859
0.899928
0.0736113
0.966082
0.0724276
1.02459
0.0702612
1.08835
0.0672827
1.15886
0.0635411
1.23741
1.32297
0.0589528
0.023765
0.164115
0.0550339
0.535255
0.0738665
0.772602
0.0821025
0.891692
0.0849027
0.963282
0.0854746
1.02402
0.0850375
1.08879
0.0838616
1.16004
0.0820125
1.23925
1.32561
0.0793779
0.023358
0.140757
0.0576117
0.501001
0.080047
0.750167
0.0912275
0.880512
0.0962163
0.958293
0.0986031
1.02163
0.0999149
1.08748
0.100547
1.15941
0.100599
1.2392
1.3263
0.0999029
0.0225833
0.118174
0.0596295
0.463955
0.0857907
0.724005
0.100157
0.866146
0.107505
0.950945
0.111784
1.01735
0.114871
1.08439
0.117317
1.15696
0.119283
1.23724
1.32502
0.120568
0.0214678
0.0967063
0.0609205
0.424502
0.0909806
0.693945
0.108799
0.848327
0.118709
0.941035
0.124984
1.01108
0.129883
1.07949
0.13415
1.15269
0.138039
1.23335
1.32173
0.141323
0.0200534
0.0766529
0.0613745
0.383181
0.0954912
0.659829
0.117041
0.826778
0.129754
0.928322
0.13816
1.00267
0.144923
1.07273
0.151025
1.14659
0.156843
1.22753
1.31644
0.162131
0.0183905
0.0582624
0.0609331
0.340638
0.0991854
0.621576
0.124746
0.801217
0.140545
0.912522
0.151259
0.991957
0.159959
1.06403
0.167916
1.13863
0.175668
1.21978
1.30915
0.182959
0.0165319
0.0417304
0.0595511
0.297619
0.101912
0.579215
0.131755
0.771375
0.150968
0.893309
0.164211
0.978714
0.174952
1.05329
0.184795
1.12879
0.194488
1.21008
1.29986
0.203779
0.0145347
0.0271957
0.0572199
0.254934
0.103509
0.532926
0.137882
0.737002
0.160877
0.870314
0.176929
0.962662
0.189852
1.04036
0.20163
1.11701
0.213279
1.19844
1.28858
0.224564
0.0124675
0.0147282
0.0539847
0.213417
0.10381
0.4831
0.142917
0.697896
0.170096
0.843135
0.189295
0.943463
0.204595
1.02506
0.218382
1.10323
0.232011
1.18481
1.2753
0.245285
0.0104157
0.0043125
0.0499543
0.173878
0.102658
0.430397
0.146624
0.65393
0.178413
0.811346
0.20116
0.920716
0.219095
1.00713
0.235006
1.08732
0.250655
1.16916
1.26004
0.265915
0.00847537
-0.00416287
0.0452941
0.137059
0.0999164
0.375775
0.148746
0.6051
0.185564
0.774527
0.212327
0.893954
0.233233
0.986223
0.251439
1.06911
0.269173
1.15142
1.24279
0.286427
0.00673196
-0.0108948
0.0402049
0.103586
0.0955005
0.320479
0.149012
0.551589
0.191237
0.732302
0.222545
0.862646
0.246851
0.961917
0.267593
1.04837
0.287517
1.1315
1.22352
0.306786
0.00523701
-0.0161318
0.0349027
0.0739206
0.0894132
0.265968
0.14715
0.493852
0.195067
0.684385
0.231495
0.826217
0.259732
0.93368
0.283343
1.02476
0.305624
1.10922
1.20218
0.326965
0.00399694
-0.0201288
0.0296104
0.0483071
0.0817997
0.213779
0.142918
0.432734
0.196642
0.630661
0.238782
0.784078
0.271583
0.900878
0.298514
0.997826
0.323397
1.08433
1.17867
0.346903
0.00298314
-0.0231119
0.0245514
0.0267388
0.0729897
0.165341
0.136147
0.369576
0.195528
0.57128
0.243926
0.73568
0.282019
0.862785
0.312853
0.966992
0.340712
1.05648
1.15283
0.366559
0.00215525
-0.0252672
0.0199226
0.00897148
0.0634722
0.121791
0.126821
0.306228
0.191297
0.506804
0.246366
0.680611
0.290536
0.818615
0.326015
0.931512
0.357341
1.02515
1.12436
0.385813
0.00147995
-0.0267471
0.0158615
-0.00541008
0.0538045
0.0838484
0.115175
0.244858
0.183599
0.438379
0.245478
0.618732
0.296489
0.767604
0.33751
0.890491
0.373042
0.989619
1.0929
0.404497
0.000936898
-0.027684
0.0124268
-0.0169
0.0445245
0.0517507
0.10176
0.187622
0.17226
0.367879
0.240617
0.550375
0.299103
0.709118
0.346692
0.842902
0.38725
0.949061
1.05758
0.422575
0.000515026
-0.028199
0.00960584
-0.0259908
0.0360816
0.025275
0.0874156
0.136288
0.157427
0.297868
0.231228
0.476574
0.297432
0.642913
0.352754
0.787581
0.399472
0.902343
1.01812
0.43893
0.000206681
-0.0284057
0.00734337
-0.0331275
0.0287691
0.00384924
0.0731153
0.0919417
0.139723
0.23126
0.216976
0.399321
0.290535
0.569354
0.354508
0.723607
0.408698
0.848153
0.971731
0.455084
6.51005e-06
-0.0284122
0.00556883
-0.0386898
0.0226908
-0.0132727
0.0597603
0.0548722
0.120288
0.170732
0.198028
0.321581
0.277455
0.489928
0.351212
0.64985
0.412729
0.786636
0.918142
0.466319
-0.000131135
-0.0282811
0.0042062
-0.0430272
0.0177896
-0.0268561
0.0479875
0.0246742
0.100597
0.118123
0.175272
0.246906
0.257855
0.407345
0.340898
0.566807
0.412963
0.714571
0.861402
0.469702
-0.000188859
-0.0280922
0.00317749
-0.0463935
0.0139117
-0.0375903
0.03808
0.000505893
0.0820972
0.0741056
0.150333
0.17867
0.232289
0.325389
0.322156
0.47694
0.406713
0.630014
0.796118
0.471998
-0.000197775
-0.0278945
0.00240068
-0.048992
0.0108613
-0.0460509
0.0300026
-0.0186355
0.0658372
0.038271
0.125211
0.119296
0.202388
0.248213
0.2947
0.384627
0.390497
0.534217
0.719998
0.466617
-0.000184129
-0.0277103
0.00179181
-0.0509679
0.00843057
-0.0526896
0.0235067
-0.0337116
0.0522413
0.00953642
0.101644
0.0698935
0.170728
0.179128
0.259857
0.295498
0.362988
0.431087
0.632079
0.450907
-0.000172819
-0.0275375
0.00126882
-0.0524096
0.00641673
-0.0578375
0.0182346
-0.0455295
0.0411336
-0.0133626
0.0806707
0.0303565
0.140152
0.119647
0.220603
0.215047
0.324566
0.327124
0.533267
0.423378
-0.000185886
-0.0273516
0.000758323
-0.0533538
0.00463391
-0.0617131
0.0138005
-0.054696
0.0319745
-0.0315366
0.0626708
-0.000339883
0.112678
0.0696397
0.180768
0.146957
0.278268
0.229625
0.42737
0.384164
-0.000240363
-0.0271113
0.000200627
-0.0537947
0.00292575
-0.0644383
0.00985151
-0.0616218
0.0241428
-0.0458279
0.0475469
-0.023744
0.0888853
0.0283014
0.143882
0.0919601
0.229333
0.144174
0.321258
0.335445
-0.000346491
-0.0267648
-0.000449931
-0.0536913
0.00117739
-0.0660656
0.00610692
-0.0665513
0.0171159
-0.0568369
0.0348068
-0.0414349
0.0683095
-0.00520124
0.112131
0.0481384
0.182879
0.0734257
0.222972
0.281165
-0.000516161
-0.0262486
-0.00121787
-0.0529896
-0.000699043
-0.0665844
0.00236096
-0.0696113
0.0105027
-0.0649786
0.0237054
-0.0546376
0.0501738
-0.0316696
0.0856268
0.0126854
0.141556
0.0174961
0.138547
0.225981
-0.000748484
-0.0255001
-0.00211021
-0.0516279
-0.00275755
-0.0659371
-0.00146151
-0.0709074