/*--------------------------------*- C++ -*----------------------------------*\
  =========                 |
  \\      /  F ield         | OpenFOAM: The Open Source CFD Toolbox
   \\    /   O peration     | Website:  https://openfoam.org
    \\  /    A nd           | Version:  9
     \\/     M anipulation  |
\*---------------------------------------------------------------------------*/
FoamFile
{
    format      ascii;
    class       volScalarField;
    location    "5.2";
    object      p;
}
// * * * * * * * * * * * * * * * * * * * * * * * * * * * * * * * * * * * * * //

dimensions      [0 2 -2 0 0 0 0];

internalField   nonuniform List<scalar> 
8500
(
-0.354036
-0.36278
-0.35859
-0.352537
-0.342543
-0.329838
-0.315479
-0.297651
-0.282841
-0.259909
-0.354969
-0.363403
-0.359137
-0.352986
-0.342944
-0.330196
-0.315832
-0.297866
-0.283252
-0.259665
-0.356823
-0.36464
-0.360223
-0.353877
-0.343739
-0.330906
-0.316541
-0.298325
-0.284032
-0.259178
-0.359577
-0.366477
-0.361834
-0.355195
-0.34491
-0.331949
-0.317592
-0.299064
-0.285115
-0.258458
-0.3632
-0.368895
-0.363948
-0.356917
-0.346434
-0.333296
-0.318845
-0.300076
-0.286531
-0.257529
-0.367652
-0.371866
-0.366539
-0.359017
-0.348283
-0.334934
-0.320356
-0.301247
-0.288242
-0.256417
-0.372888
-0.375361
-0.369575
-0.361465
-0.350418
-0.33682
-0.322103
-0.302549
-0.290189
-0.255157
-0.378856
-0.379347
-0.373025
-0.364227
-0.35281
-0.338913
-0.324038
-0.303964
-0.292309
-0.253789
-0.3855
-0.383789
-0.376853
-0.367271
-0.355426
-0.341175
-0.326117
-0.305469
-0.294537
-0.252363
-0.392772
-0.388643
-0.38103
-0.370566
-0.358232
-0.343577
-0.328297
-0.307043
-0.296797
-0.250931
-0.400639
-0.393865
-0.385517
-0.374085
-0.3612
-0.346091
-0.330543
-0.308668
-0.29901
-0.249554
-0.408984
-0.399467
-0.390286
-0.377802
-0.364307
-0.348695
-0.332818
-0.310335
-0.301093
-0.248296
-0.417794
-0.405387
-0.395313
-0.381697
-0.367533
-0.35137
-0.335094
-0.312034
-0.30296
-0.247217
-0.427026
-0.411595
-0.400576
-0.385756
-0.370864
-0.354104
-0.337343
-0.313762
-0.304523
-0.246376
-0.436631
-0.418069
-0.406056
-0.389967
-0.374292
-0.356887
-0.339544
-0.315513
-0.305699
-0.245841
-0.446567
-0.424785
-0.411738
-0.394323
-0.377811
-0.359712
-0.341678
-0.317283
-0.306406
-0.24568
-0.456796
-0.431722
-0.41761
-0.398818
-0.381417
-0.362572
-0.343727
-0.319062
-0.306538
-0.24583
-0.46728
-0.438859
-0.423659
-0.403448
-0.385105
-0.365455
-0.345683
-0.320853
-0.305947
-0.245985
-0.477981
-0.446174
-0.429872
-0.408207
-0.388867
-0.368343
-0.347545
-0.32266
-0.304557
-0.246841
-0.48886
-0.453646
-0.436236
-0.413084
-0.39269
-0.371209
-0.349299
-0.324403
-0.302755
-0.25357
-0.499873
-0.461247
-0.44273
-0.418062
-0.396551
-0.374013
-0.350902
-0.325816
-0.301253
-0.272172
-0.51097
-0.468947
-0.449331
-0.423118
-0.400417
-0.376703
-0.352286
-0.326696
-0.299522
-0.277073
-0.522095
-0.47671
-0.456004
-0.428217
-0.404243
-0.37922
-0.353381
-0.326931
-0.297484
-0.277252
-0.533183
-0.484491
-0.462709
-0.433314
-0.407973
-0.381495
-0.354114
-0.326493
-0.29516
-0.275405
-0.544159
-0.492238
-0.469393
-0.438351
-0.411536
-0.38345
-0.354407
-0.325368
-0.292435
-0.272002
-0.554936
-0.499887
-0.475991
-0.443257
-0.414851
-0.385
-0.354177
-0.323536
-0.28921
-0.267419
-0.565415
-0.507366
-0.482425
-0.447948
-0.417822
-0.386054
-0.353342
-0.320974
-0.285419
-0.261967
-0.575487
-0.514591
-0.488605
-0.452326
-0.420345
-0.386514
-0.351823
-0.317663
-0.281014
-0.255837
-0.585027
-0.521464
-0.494427
-0.456281
-0.422306
-0.386282
-0.349545
-0.31358
-0.275959
-0.24914
-0.593902
-0.52788
-0.499776
-0.459692
-0.423587
-0.385258
-0.34644
-0.308705
-0.270231
-0.241928
-0.601967
-0.533718
-0.504525
-0.462429
-0.424064
-0.383348
-0.342446
-0.303017
-0.263812
-0.234225
-0.609067
-0.538851
-0.508534
-0.464355
-0.423614
-0.380458
-0.337508
-0.2965
-0.256694
-0.226033
-0.615038
-0.54314
-0.511657
-0.465329
-0.422116
-0.376505
-0.331579
-0.289138
-0.248868
-0.217343
-0.619712
-0.546439
-0.513742
-0.465206
-0.419452
-0.371412
-0.324622
-0.280919
-0.240334
-0.208146
-0.622916
-0.548596
-0.51463
-0.463845
-0.415511
-0.365112
-0.316605
-0.271837
-0.23109
-0.198428
-0.624473
-0.549453
-0.514164
-0.461106
-0.410195
-0.357548
-0.307508
-0.261885
-0.221139
-0.188182
-0.62421
-0.548851
-0.512185
-0.456859
-0.403412
-0.348674
-0.297314
-0.251064
-0.210484
-0.1774
-0.621954
-0.546633
-0.50854
-0.450981
-0.395087
-0.338456
-0.286016
-0.239376
-0.199132
-0.166081
-0.617542
-0.542644
-0.503084
-0.443362
-0.385155
-0.326871
-0.273614
-0.226828
-0.187091
-0.154224
-0.610815
-0.536733
-0.495682
-0.433906
-0.37357
-0.313907
-0.260113
-0.213429
-0.174372
-0.141837
-0.601631
-0.528762
-0.486212
-0.422535
-0.360299
-0.299562
-0.245527
-0.199194
-0.16099
-0.128931
-0.589859
-0.5186
-0.474569
-0.409187
-0.345322
-0.283845
-0.229875
-0.184139
-0.146958
-0.11552
-0.575386
-0.506134
-0.460666
-0.393818
-0.328639
-0.266776
-0.213182
-0.168286
-0.132293
-0.101613
-0.558119
-0.491267
-0.444435
-0.376405
-0.310262
-0.248385
-0.195479
-0.151662
-0.117025
-0.0871856
-0.537986
-0.473921
-0.425832
-0.356946
-0.290218
-0.22871
-0.176803
-0.134299
-0.101222
-0.0721997
-0.51494
-0.454039
-0.404837
-0.335457
-0.268551
-0.2078
-0.157192
-0.116213
-0.0849547
-0.0567921
-0.488958
-0.43159
-0.381452
-0.311974
-0.245316
-0.185709
-0.13669
-0.0974419
-0.0680603
-0.0411607
-0.460045
-0.406566
-0.355707
-0.286554
-0.220581
-0.162497
-0.115366
-0.0781588
-0.0505899
-0.0251927
-0.428233
-0.378986
-0.327652
-0.259273
-0.194427
-0.138231
-0.0933018
-0.0582977
-0.032683
-0.00890535
-0.393584
-0.348894
-0.297367
-0.230227
-0.166948
-0.11304
-0.0705125
-0.0379177
-0.014387
0.00765938
-0.356186
-0.316361
-0.264963
-0.199522
-0.138246
-0.0869738
-0.047103
-0.0170818
0.00425367
0.0244536
-0.316159
-0.281497
-0.23058
-0.167255
-0.108439
-0.0601294
-0.0231509
0.00414586
0.0231897
0.0414236
-0.273654
-0.244454
-0.194327
-0.133569
-0.0776516
-0.0326121
0.00126237
0.0256971
0.0423682
0.0585097
-0.228847
-0.205401
-0.156189
-0.0987563
-0.0460175
-0.00452991
0.0260488
0.0474995
0.0617329
0.0756436
-0.181887
-0.164463
-0.116601
-0.0628513
-0.0136756
0.0240033
0.0511161
0.0694771
0.0812239
0.092749
-0.132935
-0.121895
-0.0757755
-0.0260326
0.019226
0.0528695
0.0763674
0.0915511
0.100782
0.109744
-0.0825698
-0.0777181
-0.0338651
0.0115038
0.0525344
0.0819462
0.101702
0.113644
0.12036
0.126529
-0.0308226
-0.0323428
0.00890674
0.049562
0.086093
0.111108
0.127018
0.135684
0.139923
0.142905
0.0220201
0.0139709
0.0523005
0.0879411
0.119741
0.140224
0.15221
0.157605
0.159374
0.158529
0.0756296
0.0609636
0.0960703
0.126435
0.153317
0.169166
0.177175
0.179316
0.178436
0.1731
0.129682
0.108352
0.139963
0.164836
0.186653
0.197801
0.201813
0.200698
0.196757
0.186994
0.183846
0.155842
0.18372
0.202934
0.219587
0.225998
0.226017
0.221638
0.214898
0.202506
0.237783
0.20313
0.227081
0.240519
0.251951
0.253629
0.249681
0.242033
0.232521
0.218157
0.29115
0.249914
0.269783
0.277384
0.283584
0.280562
0.272699
0.261811
0.249536
0.233388
0.3436
0.295886
0.311568
0.313322
0.314324
0.306672
0.294971
0.280899
0.26592
0.248047
0.394788
0.340744
0.35218
0.348132
0.344013
0.331835
0.316397
0.299223
0.28163
0.262081
0.444372
0.384186
0.391367
0.381619
0.3725
0.355932
0.336882
0.316709
0.296608
0.275432
0.492018
0.42592
0.428888
0.413592
0.399635
0.378846
0.356332
0.333284
0.310797
0.288045
0.537404
0.465662
0.46451
0.44387
0.425278
0.400466
0.374661
0.348882
0.324144
0.299873
0.580216
0.503141
0.49801
0.472279
0.449294
0.420686
0.391783
0.363436
0.336594
0.310872
0.62016
0.538099
0.529178
0.498658
0.471557
0.439408
0.40762
0.376883
0.348095
0.321005
0.656958
0.570295
0.557818
0.522855
0.491949
0.456538
0.422098
0.389165
0.358599
0.330235
0.690352
0.599506
0.583752
0.54473
0.510361
0.47199
0.435148
0.400228
0.36806
0.338528
0.720109
0.625529
0.606814
0.564157
0.526694
0.485687
0.446708
0.410022
0.376435
0.345855
0.746018
0.648182
0.62686
0.581023
0.540862
0.497561
0.456723
0.418503
0.383688
0.352187
0.767896
0.667307
0.643763
0.595231
0.552787
0.507549
0.465144
0.425631
0.389784
0.357502
0.785588
0.68277
0.657415
0.606698
0.562406
0.515602
0.471931
0.431373
0.394695
0.361778
0.798969
0.694464
0.667731
0.615358
0.569666
0.521678
0.477051
0.435704
0.398399
0.365
0.807943
0.702305
0.674645
0.621159
0.574528
0.525747
0.480478
0.438603
0.400878
0.367155
0.812446
0.70624
0.678113
0.624068
0.576966
0.527786
0.482195
0.440055
0.402121
0.368235
0.812446
0.70624
0.678113
0.624068
0.576966
0.527786
0.482195
0.440055
0.402121
0.368235
0.807943
0.702305
0.674645
0.621159
0.574528
0.525747
0.480478
0.438603
0.400878
0.367155
0.798969
0.694464
0.667731
0.615358
0.569666
0.521678
0.477051
0.435704
0.398399
0.365
0.785588
0.68277
0.657415
0.606698
0.562406
0.515602
0.471931
0.431373
0.394695
0.361778
0.767896
0.667307
0.643763
0.595231
0.552787
0.507549
0.465144
0.425631
0.389784
0.357502
0.746018
0.648182
0.62686
0.581023
0.540862
0.497561
0.456723
0.418503
0.383688
0.352187
0.720109
0.625529
0.606814
0.564157
0.526694
0.485687
0.446708
0.410022
0.376435
0.345855
0.690352
0.599506
0.583752
0.54473
0.510361
0.47199
0.435148
0.400228
0.36806
0.338528
0.656958
0.570295
0.557818
0.522855
0.491949
0.456538
0.422098
0.389165
0.358599
0.330235
0.62016
0.538099
0.529178
0.498658
0.471557
0.439408
0.40762
0.376883
0.348095
0.321005
0.580216
0.503141
0.49801
0.472279
0.449294
0.420686
0.391783
0.363436
0.336594
0.310872
0.537404
0.465662
0.46451
0.44387
0.425278
0.400466
0.374661
0.348882
0.324144
0.299873
0.492018
0.42592
0.428888
0.413592
0.399635
0.378846
0.356332
0.333284
0.310797
0.288045
0.444372
0.384186
0.391367
0.381619
0.3725
0.355932
0.336882
0.316709
0.296608
0.275432
0.394788
0.340744
0.35218
0.348132
0.344013
0.331835
0.316397
0.299223
0.28163
0.262081
0.3436
0.295886
0.311568
0.313322
0.314324
0.306672
0.294971
0.280899
0.26592
0.248047
0.29115
0.249914
0.269783
0.277384
0.283584
0.280562
0.272699
0.261811
0.249536
0.233388
0.237783
0.20313
0.227081
0.240519
0.251951
0.253629
0.249681
0.242033
0.232521
0.218157
0.183846
0.155842
0.18372
0.202934
0.219587
0.225998
0.226017
0.221638
0.214898
0.202506
0.129682
0.108352
0.139963
0.164836
0.186653
0.197801
0.201813
0.200698
0.196757
0.186994
0.0756296
0.0609636
0.0960703
0.126435
0.153317
0.169166
0.177175
0.179316
0.178436
0.1731
0.0220201
0.0139709
0.0523005
0.0879411
0.119741
0.140224
0.15221
0.157605
0.159374
0.158529
-0.0308226
-0.0323428
0.00890674
0.049562
0.086093
0.111108
0.127018
0.135684
0.139923
0.142905
-0.0825698
-0.0777181
-0.0338651
0.0115038
0.0525344
0.0819462
0.101702
0.113644
0.12036
0.126529
-0.132935
-0.121895
-0.0757755
-0.0260326
0.019226
0.0528694
0.0763674
0.0915511
0.100782
0.109744
-0.181887
-0.164463
-0.116601
-0.0628513
-0.0136756
0.0240033
0.0511161
0.0694771
0.0812239
0.092749
-0.228847
-0.205401
-0.156189
-0.0987563
-0.0460175
-0.00452991
0.0260488
0.0474995
0.0617329
0.0756436
-0.273654
-0.244454
-0.194327
-0.133569
-0.0776516
-0.0326121
0.00126236
0.0256971
0.0423682
0.0585097
-0.316159
-0.281497
-0.23058
-0.167255
-0.108439
-0.0601294
-0.0231509
0.00414586
0.0231897
0.0414236
-0.356186
-0.316361
-0.264963
-0.199522
-0.138246
-0.0869738
-0.047103
-0.0170818
0.00425367
0.0244536
-0.393584
-0.348894
-0.297367
-0.230227
-0.166948
-0.11304
-0.0705125
-0.0379177
-0.014387
0.00765938
-0.428233
-0.378986
-0.327652
-0.259273
-0.194427
-0.138231
-0.0933018
-0.0582977
-0.032683
-0.00890535
-0.460045
-0.406566
-0.355707
-0.286554
-0.220581
-0.162497
-0.115366
-0.0781588
-0.0505899
-0.0251927
-0.488958
-0.43159
-0.381452
-0.311974
-0.245316
-0.185709
-0.13669
-0.0974419
-0.0680603
-0.0411607
-0.51494
-0.454039
-0.404837
-0.335457
-0.268551
-0.2078
-0.157192
-0.116213
-0.0849547
-0.0567921
-0.537986
-0.473921
-0.425832
-0.356946
-0.290218
-0.22871
-0.176804
-0.134299
-0.101222
-0.0721997
-0.558119
-0.491267
-0.444435
-0.376405
-0.310262
-0.248385
-0.195479
-0.151663
-0.117025
-0.0871856
-0.575386
-0.506134
-0.460666
-0.393818
-0.328639
-0.266776
-0.213182
-0.168286
-0.132293
-0.101613
-0.589859
-0.5186
-0.474569
-0.409187
-0.345322
-0.283845
-0.229875
-0.184139
-0.146958
-0.11552
-0.601631
-0.528762
-0.486212
-0.422535
-0.360299
-0.299562
-0.245527
-0.199194
-0.16099
-0.128931
-0.610815
-0.536733
-0.495682
-0.433906
-0.37357
-0.313907
-0.260113
-0.213429
-0.174372
-0.141837
-0.617542
-0.542644
-0.503084
-0.443362
-0.385155
-0.326871
-0.273614
-0.226828
-0.187091
-0.154224
-0.621954
-0.546633
-0.50854
-0.450981
-0.395087
-0.338456
-0.286016
-0.239376
-0.199132
-0.166081
-0.62421
-0.548851
-0.512185
-0.456859
-0.403412
-0.348674
-0.297314
-0.251064
-0.210484
-0.1774
-0.624473
-0.549453
-0.514164
-0.461106
-0.410195
-0.357548
-0.307508
-0.261885
-0.221139
-0.188182
-0.622916
-0.548596
-0.51463
-0.463845
-0.415511
-0.365112
-0.316605
-0.271837
-0.23109
-0.198428
-0.619712
-0.546439
-0.513742
-0.465206
-0.419452
-0.371412
-0.324622
-0.280919
-0.240334
-0.208146
-0.615038
-0.54314
-0.511657
-0.465329
-0.422116
-0.376505
-0.331579
-0.289138
-0.248868
-0.217343
-0.609067
-0.538851
-0.508534
-0.464355
-0.423614
-0.380458
-0.337508
-0.2965
-0.256694
-0.226033
-0.601967
-0.533718
-0.504525
-0.462429
-0.424064
-0.383348
-0.342446
-0.303017
-0.263812
-0.234225
-0.593902
-0.52788
-0.499776
-0.459692
-0.423587
-0.385258
-0.34644
-0.308705
-0.270231
-0.241928
-0.585027
-0.521464
-0.494427
-0.456281
-0.422306
-0.386282
-0.349545
-0.31358
-0.275959
-0.24914
-0.575487
-0.514591
-0.488605
-0.452326
-0.420345
-0.386514
-0.351823
-0.317663
-0.281014
-0.255837
-0.565415
-0.507366
-0.482425
-0.447948
-0.417822
-0.386054
-0.353342
-0.320974
-0.285419
-0.261967
-0.554936
-0.499887
-0.475991
-0.443257
-0.414851
-0.385
-0.354177
-0.323536
-0.28921
-0.267419
-0.544159
-0.492238
-0.469393
-0.438351
-0.411536
-0.38345
-0.354407
-0.325368
-0.292435
-0.272002
-0.533183
-0.484491
-0.462709
-0.433314
-0.407973
-0.381495
-0.354114
-0.326493
-0.29516
-0.275405
-0.522095
-0.47671
-0.456004
-0.428217
-0.404243
-0.37922
-0.353381
-0.326931
-0.297484
-0.277252
-0.51097
-0.468947
-0.449331
-0.423118
-0.400417
-0.376703
-0.352286
-0.326696
-0.299522
-0.277073
-0.499873
-0.461247
-0.44273
-0.418062
-0.396551
-0.374013
-0.350902
-0.325816
-0.301253
-0.272172
-0.48886
-0.453646
-0.436236
-0.413084
-0.39269
-0.371209
-0.349299
-0.324403
-0.302755
-0.25357
-0.477981
-0.446174
-0.429872
-0.408207
-0.388867
-0.368343
-0.347545
-0.32266
-0.304557
-0.246841
-0.46728
-0.438859
-0.423659
-0.403448
-0.385105
-0.365455
-0.345683
-0.320853
-0.305947
-0.245985
-0.456796
-0.431722
-0.41761
-0.398818
-0.381417
-0.362572
-0.343727
-0.319062
-0.306538
-0.24583
-0.446567
-0.424785
-0.411738
-0.394323
-0.377811
-0.359712
-0.341678
-0.317283
-0.306406
-0.24568
-0.436631
-0.418069
-0.406056
-0.389967
-0.374292
-0.356887
-0.339544
-0.315513
-0.305699
-0.245841
-0.427026
-0.411595
-0.400576
-0.385756
-0.370864
-0.354104
-0.337343
-0.313762
-0.304523
-0.246376
-0.417794
-0.405387
-0.395313
-0.381697
-0.367533
-0.35137
-0.335094
-0.312034
-0.30296
-0.247217
-0.408984
-0.399467
-0.390286
-0.377802
-0.364307
-0.348695
-0.332818
-0.310335
-0.301093
-0.248296
-0.400639
-0.393865
-0.385517
-0.374085
-0.3612
-0.346091
-0.330543
-0.308668
-0.29901
-0.249554
-0.392772
-0.388643
-0.38103
-0.370566
-0.358232
-0.343577
-0.328297
-0.307043
-0.296797
-0.250931
-0.3855
-0.383789
-0.376853
-0.367271
-0.355426
-0.341175
-0.326117
-0.305469
-0.294537
-0.252363
-0.378856
-0.379347
-0.373025
-0.364227
-0.35281
-0.338913
-0.324038
-0.303964
-0.292309
-0.253789
-0.372888
-0.375361
-0.369575
-0.361465
-0.350418
-0.33682
-0.322103
-0.302549
-0.290189
-0.255157
-0.367652
-0.371866
-0.366539
-0.359017
-0.348283
-0.334934
-0.320356
-0.301247
-0.288242
-0.256417
-0.3632
-0.368895
-0.363948
-0.356917
-0.346434
-0.333296
-0.318845
-0.300076
-0.286531
-0.257529
-0.359577
-0.366477
-0.361834
-0.355195
-0.34491
-0.331949
-0.317592
-0.299064
-0.285115
-0.258458
-0.356823
-0.36464
-0.360223
-0.353877
-0.343739
-0.330906
-0.316541
-0.298325
-0.284032
-0.259178
-0.354969
-0.363403
-0.359137
-0.352986
-0.342944
-0.330196
-0.315832
-0.297866
-0.283252
-0.259665
-0.354036
-0.36278
-0.35859
-0.352537
-0.342543
-0.329838
-0.315479
-0.297651
-0.282841
-0.259909
-0.251267
-0.243166
-0.234376
-0.225189
-0.215418
-0.20504
-0.194053
-0.182442
-0.170203
-0.157348
-0.143914
-0.129965
-0.115605
-0.100974
-0.0862592
-0.0716836
-0.0575067
-0.0440043
-0.0314685
-0.0201435
-0.0103205
-0.00204178
0.00427504
0.00924092
0.0115657
0.0139947
0.0116436
0.0142275
0.00454582
0.0142646
-0.251944
-0.243715
-0.23484
-0.225638
-0.215858
-0.205474
-0.194487
-0.182878
-0.170641
-0.157788
-0.144354
-0.130403
-0.116038
-0.1014
-0.0866731
-0.0720823
-0.0578867
-0.0443621
-0.0318013
-0.0204486
-0.010596
-0.0022862
0.0040626
0.00905994
0.0114171
0.0138724
0.0115553
0.0141473
0.00451824
0.0141858
-0.253279
-0.244799
-0.235755
-0.226523
-0.216724
-0.206328
-0.195339
-0.183734
-0.171501
-0.158651
-0.145218
-0.131264
-0.11689
-0.102237
-0.0874877
-0.0728677
-0.0586357
-0.0450681
-0.0324583
-0.0210515
-0.0111409
-0.0027699
0.00364186
0.00870123
0.0111224
0.0136295
0.01138
0.0139879
0.00446342
0.0140294
-0.25523
-0.246392
-0.237098
-0.227818
-0.21799
-0.207574
-0.196582
-0.184979
-0.172752
-0.159908
-0.146476
-0.132518
-0.118132
-0.103458
-0.0886778
-0.0740164
-0.0597327
-0.0461035
-0.0334233
-0.0219381
-0.011943
-0.0034829
0.00302089
0.00817118
0.0106865
0.0132697
0.0111201
0.0137514
0.00438197
0.013798
-0.257732
-0.248459
-0.238834
-0.229488
-0.219618
-0.209173
-0.198172
-0.186572
-0.174351
-0.161513
-0.148084
-0.134122
-0.119723
-0.105024
-0.0902073
-0.0754955
-0.0611479
-0.0474416
-0.0346726
-0.023088
-0.0129853
-0.00441093
0.00221129
0.00747894
0.0101162
0.0127982
0.0107791
0.0134406
0.00427481
0.0134951
-0.260698
-0.250953
-0.240918
-0.231485
-0.22156
-0.211074
-0.200058
-0.188458
-0.176244
-0.163414
-0.149989
-0.136025
-0.121613
-0.106889
-0.0920322
-0.0772642
-0.0628442
-0.0490495
-0.0361774
-0.0244762
-0.0142464
-0.00553615
0.0012276
0.00663605
0.00942042
0.0122216
0.0103615
0.0130595
0.00414312
0.0131254
-0.26402
-0.253809
-0.243293
-0.233753
-0.22376
-0.21322
-0.202181
-0.190578
-0.17837
-0.165548
-0.152131
-0.138167
-0.123746
-0.108999
-0.0941023
-0.0792766
-0.06478
-0.0508898
-0.0379046
-0.026074
-0.0157017
-0.00683804
8.66483e-05
0.00565588
0.00860941
0.0115478
0.00987258
0.0126124
0.00398828
0.0126946
-0.267588
-0.256946
-0.245894
-0.236228
-0.226156
-0.215547
-0.204478
-0.192867
-0.180662
-0.167851
-0.154445
-0.140487
-0.126062
-0.111297
-0.0963647
-0.0814836
-0.0669105
-0.0529223
-0.0398187
-0.0278505
-0.0173247
-0.00829434
-0.00119323
0.00455315
0.00769455
0.0107854
0.00931823
0.0121046
0.00381188
0.0122087
-0.271309
-0.260275
-0.248647
-0.238842
-0.22868
-0.21799
-0.20688
-0.195256
-0.183055
-0.170257
-0.156867
-0.142922
-0.128501
-0.113726
-0.0987658
-0.0838358
-0.0691907
-0.0551065
-0.0418836
-0.029774
-0.0190881
-0.0098819
-0.00259285
0.0033433
0.0066879
0.00994359
0.00870486
0.0115414
0.00361562
0.0116748
-0.275026
-0.263687
-0.251469
-0.241518
-0.231259
-0.220479
-0.20932
-0.197679
-0.185482
-0.172701
-0.159333
-0.145411
-0.131004
-0.11623
-0.101254
-0.0862851
-0.0715766
-0.0574024
-0.0440638
-0.0318132
-0.0209648
-0.0115776
-0.00409292
0.00204205
0.00560181
0.00903206
0.00803912
0.0109289
0.0034013
0.0111
-0.278584
-0.267062
-0.254273
-0.244176
-0.23382
-0.222944
-0.211731
-0.200073
-0.187881
-0.175122
-0.161786
-0.147897
-0.133518
-0.11876
-0.103781
-0.0887868
-0.0740268
-0.0597727
-0.0463255
-0.0339382
-0.0229287
-0.013359
-0.00567454
0.000664875
0.0044486
0.00806042
0.00732779
0.0102729
0.00317078
0.0104918
-0.281835
-0.270269
-0.256962
-0.246733
-0.236284
-0.225314
-0.21405
-0.202375
-0.190194
-0.177466
-0.164173
-0.15033
-0.135994
-0.121268
-0.106303
-0.0913006
-0.0765041
-0.062183
-0.0486377
-0.0361214
-0.0249552
-0.015205
-0.00731975
-0.000773345
0.00324025
0.00703813
0.00657758
0.00957955
0.0029259
0.00985747
-0.284641
-0.273168
-0.259433
-0.249103
-0.238574
-0.227522
-0.216214
-0.204532
-0.192371
-0.179685
-0.166448
-0.152668
-0.138392
-0.123716
-0.108785
-0.0937915
-0.0789759
-0.0646032
-0.0509729
-0.0383378
-0.0270223
-0.0170962
-0.00901197
-0.00225872
0.00198804
0.00597423
0.00579495
0.0088547
0.00266848
0.00920439
-0.286867
-0.275614
-0.261582
-0.251197
-0.240609
-0.229501
-0.218169
-0.206493
-0.194367
-0.181739
-0.168575
-0.154875
-0.140678
-0.126073
-0.111195
-0.0962308
-0.081415
-0.0670081
-0.0533076
-0.040566
-0.0291107
-0.0190154
-0.0107362
-0.00377851
0.000702456
0.00487728
0.00498607
0.00810408
0.00240023
0.00853955
-0.288401
-0.277463
-0.263302
-0.252925
-0.242316
-0.231192
-0.219865
-0.208219
-0.196149
-0.183597
-0.170524
-0.156924
-0.142827
-0.128312
-0.113508
-0.0985947
-0.0837985
-0.0693755
-0.0556211
-0.0427866
-0.0312024
-0.0209466
-0.0124781
-0.00532035
-0.000606116
0.00375585
0.00415724
0.00733348
0.00212297
0.00786966
-0.289184
-0.278599
-0.264501
-0.254198
-0.243615
-0.232529
-0.221251
-0.209668
-0.19768
-0.185229
-0.17227
-0.15879
-0.144814
-0.130412
-0.115704
-0.100862
-0.0861054
-0.071685
-0.0578935
-0.0449807
-0.0332799
-0.0228736
-0.0142233
-0.00687161
-0.001927
0.00261885
0.00331509
0.00654892
0.00183874
0.00720111
-0.289112
-0.278844
-0.265048
-0.254899
-0.244416
-0.233455
-0.222288
-0.210815
-0.198948
-0.186627
-0.173808
-0.160472
-0.146639
-0.13237
-0.117779
-0.103027
-0.0883297
-0.0739298
-0.0601174
-0.047141
-0.035336
-0.0247898
-0.0159658
-0.00842708
-0.00325568
0.00147022
0.00246262
0.00575376
0.00154862
0.00653909
-0.287801
-0.277892
-0.264883
-0.255054
-0.244792
-0.234059
-0.223069
-0.211749
-0.200033
-0.187866
-0.175205
-0.162028
-0.148352
-0.134232
-0.119773
-0.105129
-0.090507
-0.0761434
-0.0623247
-0.0492973
-0.0373983
-0.02672
-0.0177277
-0.0100056
-0.00460806
0.000297488
0.00159001
0.00494241
0.001249
0.00588605
-0.286939
-0.276592
-0.26437
-0.254708
-0.244658
-0.234204
-0.223436
-0.212309
-0.200779
-0.188796
-0.17632
-0.163333
-0.149844
-0.135903
-0.121608
-0.107103
-0.0925864
-0.078287
-0.0644864
-0.0514283
-0.0394515
-0.0286537
-0.0195017
-0.0116027
-0.00598243
-0.000899228
0.000695213
0.0041144
0.000936209
0.00524669
-0.284632
-0.271837
-0.260862
-0.25154
-0.242071
-0.232283
-0.222059
-0.211384
-0.200243
-0.188605
-0.176444
-0.163748
-0.150529
-0.136838
-0.122765
-0.108452
-0.0940893
-0.0799016
-0.0661669
-0.0531274
-0.0411228
-0.0302571
-0.0209951
-0.0129698
-0.00717164
-0.00195631
-9.94542e-05
0.00335544
0.000645922
0.00465084
-0.258336
-0.264291
-0.260103
-0.251436
-0.242307
-0.232757
-0.222675
-0.212113
-0.201066
-0.189507
-0.177408
-0.164759
-0.151574
-0.137901
-0.123835
-0.109516
-0.0951371
-0.0809248
-0.0671577
-0.0540795
-0.0420268
-0.0311093
-0.0217769
-0.0136918
-0.00778735
-0.00253262
-0.000510815
0.00287953
0.000491734
0.00418024
-0.250705
-0.255464
-0.252906
-0.245324
-0.237128
-0.228347
-0.218881
-0.20884
-0.198252
-0.187107
-0.175396
-0.163115
-0.150286
-0.136958
-0.123224
-0.109223
-0.0951396
-0.081194
-0.0676566
-0.054766
-0.0428502
-0.0320244
-0.0227225
-0.0146409
-0.00865862
-0.00336304
-0.00114153
0.00223627
0.000257185
0.00367914
-0.244501
-0.247032
-0.244827
-0.238131
-0.230705
-0.222624
-0.213776
-0.204284
-0.194197
-0.183523
-0.172261
-0.16042
-0.148025
-0.13513
-0.121826
-0.108244
-0.0945642
-0.0809945
-0.0677937
-0.0551925
-0.0435055
-0.0328522
-0.0236453
-0.01562
-0.00959049
-0.00427694
-0.00184913
0.00151643
-9.55615e-06
0.00314355
-0.23834
-0.239057
-0.236873
-0.230953
-0.224193
-0.216741
-0.208486
-0.199539
-0.189959
-0.179763
-0.168961
-0.15757
-0.145621
-0.133168
-0.120301
-0.107148
-0.0938791
-0.0806947
-0.0678411
-0.0555414
-0.0440959
-0.0336291
-0.0245299
-0.016574
-0.0105063
-0.00518516
-0.00255393
0.000791399
-0.000276263
0.00259909
-0.231827
-0.231139
-0.228766
-0.223518
-0.217385
-0.210538
-0.20288
-0.194496
-0.185448
-0.175759
-0.165446
-0.154532
-0.143052
-0.131063
-0.118654
-0.105946
-0.0931039
-0.0803186
-0.0678248
-0.0558383
-0.044645
-0.0343749
-0.0253922
-0.017514
-0.011414
-0.00609142
-0.00325909
6.21009e-05
-0.000544981
0.00204956
-0.224479
-0.223028
-0.220396
-0.215718
-0.210187
-0.203929
-0.196867
-0.189062
-0.180571
-0.171418
-0.161625
-0.15122
-0.140241
-0.128745
-0.11682
-0.104584
-0.0921936
-0.0798304
-0.0677179
-0.0560645
-0.0451416
-0.0350842
-0.0262319
-0.0184429
-0.0123195
-0.0070018
-0.0039715
-0.0006755
-0.000820217
0.00149753
-0.216308
-0.214622
-0.211774
-0.207592
-0.202643
-0.196958
-0.190484
-0.183266
-0.175348
-0.166753
-0.157506
-0.147636
-0.137184
-0.126208
-0.114794
-0.103055
-0.0911393
-0.0792209
-0.0675112
-0.0562111
-0.0455774
-0.0357498
-0.027043
-0.0193557
-0.0132191
-0.00791302
-0.00468991
-0.00141863
-0.00110318
0.000948009
-0.207426
-0.205869
-0.20292
-0.199187
-0.194805
-0.189682
-0.183789
-0.177158
-0.169822
-0.1618
-0.153118
-0.143805
-0.133902
-0.123469
-0.112588
-0.101366
-0.0899462
-0.0784923
-0.0672044
-0.0562759
-0.0459488
-0.036367
-0.0278203
-0.0202467
-0.0141079
-0.00881977
-0.00541117
-0.00216258
-0.00139421
0.00040681
-0.197957
-0.196765
-0.193855
-0.190551
-0.186721
-0.182153
-0.17683
-0.170784
-0.164034
-0.156596
-0.148492
-0.139752
-0.130417
-0.120544
-0.110213
-0.0995271
-0.0886199
-0.0776477
-0.0667984
-0.0562577
-0.0462531
-0.0369317
-0.0285595
-0.0211111
-0.0149817
-0.00971718
-0.00613238
-0.00290279
-0.0016937
-0.000120242
-0.188052
-0.187353
-0.184619
-0.181737
-0.178442
-0.174422
-0.16966
-0.164192
-0.158028
-0.151177
-0.14366
-0.135503
-0.126749
-0.11745
-0.107684
-0.0975478
-0.0871676
-0.0766911
-0.0662947
-0.056156
-0.0464882
-0.0374408
-0.0292566
-0.0219442
-0.0158363
-0.0106006
-0.00685072
-0.00363481
-0.0020019
-0.000627508
-0.177868
-0.177712
-0.175266
-0.172807
-0.170029
-0.166546
-0.162335
-0.157435
-0.151851
-0.145587
-0.138659
-0.131092
-0.122925
-0.114209
-0.105017
-0.0954411
-0.0855986
-0.0756286
-0.0656965
-0.0559715
-0.0466529
-0.0378913
-0.0299079
-0.0227416
-0.0166673
-0.0114651
-0.00756312
-0.00435408
-0.00231857
-0.00110982
-0.16756
-0.167939
-0.165864
-0.163828
-0.161546
-0.158586
-0.154912
-0.150567
-0.145554
-0.13987
-0.133528
-0.126551
-0.118974
-0.110846
-0.102233
-0.0932223
-0.0839239
-0.0744678
-0.0650081
-0.0557058
-0.0467466
-0.0382811
-0.03051
-0.023499
-0.0174707
-0.0123061
-0.00826623
-0.00505612
-0.00264288
-0.00156262
-0.157272
-0.158139
-0.156487
-0.15487
-0.153058
-0.150601
-0.147448
-0.143642
-0.139185
-0.134072
-0.128309
-0.121917
-0.114927
-0.107385
-0.0993513
-0.0909079
-0.0821561
-0.0732175
-0.0642354
-0.0553618
-0.0467698
-0.0386084
-0.03106
-0.0242124
-0.018242
-0.0131189
-0.00895644
-0.00573665
-0.00297349
-0.00198201
-0.147133
-0.148419
-0.14721
-0.146003
-0.144631
-0.142653
-0.14
-0.136713
-0.132795
-0.128236
-0.123041
-0.117224
-0.110814
-0.103852
-0.0963945
-0.0885155
-0.080309
-0.0718878
-0.0633848
-0.0549432
-0.0467235
-0.0388725
-0.0315553
-0.0248781
-0.0189772
-0.0138989
-0.00962998
-0.00639166
-0.00330852
-0.00236497
-0.137252
-0.138877
-0.138109
-0.137293
-0.13633
-0.1348
-0.132623
-0.129832
-0.126431
-0.122408
-0.117763
-0.112508
-0.106666
-0.100275
-0.0933846
-0.0860632
-0.0783968
-0.0704894
-0.0624638
-0.0544543
-0.0466097
-0.0390729
-0.0319939
-0.0254929
-0.0196723
-0.0146419
-0.0102829
-0.00701741
-0.00364562
-0.00270947
-0.127717
-0.129602
-0.129251
-0.128803
-0.128214
-0.1271
-0.125369
-0.123047
-0.120139
-0.116629
-0.112515
-0.107803
-0.102514
-0.0966793
-0.090344
-0.0835696
-0.0764343
-0.0690338
-0.0614807
-0.0539005
-0.0464308
-0.03921
-0.0323743
-0.0260541
-0.0203237
-0.015344
-0.0109112
-0.00761055
-0.00398196
-0.00301451
-0.118596
-0.120667
-0.120698
-0.120589
-0.120339
-0.119603
-0.118287
-0.116406
-0.113963
-0.110941
-0.107333
-0.103143
-0.0983871
-0.0930912
-0.0872951
-0.0810534
-0.074437
-0.0675328
-0.0604442
-0.0532877
-0.0461904
-0.039285
-0.0326958
-0.0265594
-0.0209281
-0.0160015
-0.0115109
-0.00816816
-0.0043144
-0.00328014
-0.109939
-0.112132
-0.112503
-0.1127
-0.112753
-0.11236
-0.111424
-0.109953
-0.107944
-0.105381
-0.102253
-0.0985607
-0.0943148
-0.0895367
-0.0842604
-0.0785339
-0.0724206
-0.0659993
-0.0593641
-0.0526229
-0.0458925
-0.0392998
-0.0329581
-0.0270074
-0.0214825
-0.0166116
-0.0120783
-0.00868784
-0.00463954
-0.00350737
-0.101782
-0.104045
-0.104711
-0.10518
-0.1055
-0.105414
-0.104824
-0.103728
-0.102121
-0.099987
-0.0973104
-0.0940881
-0.0903264
-0.0860419
-0.0812628
-0.0760308
-0.0704019
-0.0644469
-0.0582511
-0.0519139
-0.0455426
-0.0392574
-0.0331621
-0.0273973
-0.0219847
-0.0171715
-0.0126096
-0.00916767
-0.00495395
-0.00369803
-0.0941501
-0.0964439
-0.0973593
-0.0980667
-0.098622
-0.0988057
-0.0985249
-0.097771
-0.0965347
-0.0947964
-0.0925398
-0.0897575
-0.0864515
-0.0826335
-0.0783261
-0.0735648
-0.0683985
-0.0628902
-0.057117
-0.0511697
-0.0451469
-0.0391618
-0.0333096
-0.0277293
-0.0224332
-0.0176796
-0.0131019
-0.00960625
-0.00525428
-0.0038546
-0.0870644
-0.0893575
-0.0904824
-0.0913955
-0.0921538
-0.0925735
-0.0925679
-0.0921215
-0.0912211
-0.0898454
-0.0879759
-0.0856016
-0.0827204
-0.0793391
-0.0754753
-0.0711581
-0.0664296
-0.0613456
-0.0559752
-0.050401
-0.0447134
-0.0390183
-0.0334035
-0.0280046
-0.0228275
-0.0181347
-0.0135524
-0.0100027
-0.00553743
-0.00398004
-0.0805419
-0.0828123
-0.08411
-0.0851986
-0.0861307
-0.0867545
-0.0869903
-0.0868173
-0.0862183
-0.0851709
-0.0836542
-0.0816542
-0.0791647
-0.0761882
-0.072737
-0.0688344
-0.0645162
-0.0598311
-0.0548407
-0.0496199
-0.0442513
-0.0388337
-0.0334481
-0.0282255
-0.0231677
-0.0185364
-0.0139593
-0.0103566
-0.00580065
-0.00407757
-0.0745998
-0.0768323
-0.0782707
-0.0795073
-0.0805863
-0.0813841
-0.0818291
-0.0818958
-0.0815643
-0.0808105
-0.0796117
-0.0779508
-0.0758181
-0.073212
-0.0701399
-0.0666198
-0.0626814
-0.0583669
-0.0537307
-0.0488406
-0.0437718
-0.0386163
-0.033449
-0.0283955
-0.0234552
-0.0188851
-0.0143211
-0.0106681
-0.00604163
-0.00415046
-0.0692573
-0.0714424
-0.0729936
-0.0743533
-0.075555
-0.0764992
-0.0771219
-0.0773959
-0.0772987
-0.0768041
-0.0758873
-0.0745291
-0.0727166
-0.0704444
-0.0677156
-0.0645431
-0.060951
-0.0569755
-0.0526645
-0.0480791
-0.0432879
-0.0383761
-0.0334133
-0.0285193
-0.0236924
-0.0191822
-0.0146373
-0.0109376
-0.0062586