/*--------------------------------*- C++ -*----------------------------------*\
  =========                 |
  \\      /  F ield         | OpenFOAM: The Open Source CFD Toolbox
   \\    /   O peration     | Website:  https://openfoam.org
    \\  /    A nd           | Version:  9
     \\/     M anipulation  |
\*---------------------------------------------------------------------------*/
FoamFile
{
    format      ascii;
    class       surfaceScalarField;
    location    "5.2";
    object      phi;
}
// * * * * * * * * * * * * * * * * * * * * * * * * * * * * * * * * * * * * * //

dimensions      [0 3 -1 0 0 0 0];

internalField   nonuniform List<scalar> 
16735
(
-0.00161922
0.00161922
8.36075e-11
-0.00444401
0.00282479
1.20733e-10
-0.00757291
0.0031289
7.18077e-11
-0.0102338
0.0026609
-4.50686e-11
-0.0118308
0.00159696
-2.47004e-10
-0.011781
-4.97735e-05
-5.06581e-10
-0.00951625
-0.00226475
-8.13448e-10
-0.00435073
-0.00516552
-1.15176e-09
0.00387869
-0.00822942
-1.48845e-09
-0.0122446
-1.7982e-09
0.0161233
-0.00158402
0.00320324
-0.00432265
0.00556342
-0.00731284
0.00611909
-0.00977683
0.0051249
-0.0111088
0.00292888
-0.0107134
-0.000445122
-0.00800655
-0.00497161
-0.00230598
-0.0108661
0.00664433
-0.0171797
-0.0253592
0.0197589
-0.00151436
0.0047176
-0.00408205
0.00813111
-0.00679694
0.00883397
-0.00887012
0.00719809
-0.00967622
0.00373498
-0.00859522
-0.00152613
-0.00500904
-0.00855778
0.00176661
-0.0176417
0.0121269
-0.02754
-0.0401734
0.026941
-0.00141163
0.00612922
-0.00372639
0.0104459
-0.0060335
0.0111411
-0.00752787
0.00869246
-0.00755595
0.00376306
-0.00546139
-0.00362069
-0.000545819
-0.0134733
0.00784444
-0.026032
0.0202118
-0.0399073
-0.0574551
0.0374936
-0.00127786
0.00740708
-0.00326162
0.0124296
-0.00503448
0.0129139
-0.0057705
0.00942848
-0.00478052
0.00277308
-0.00136904
-0.00703216
0.00520143
-0.0200438
0.0157318
-0.0365624
0.0307255
-0.054901
-0.0778902
0.0511605
-0.00111557
0.00852265
-0.00269525
0.0140093
-0.0038149
0.0140336
-0.00362373
0.00923731
-0.00138974
0.00053908
0.00363194
-0.0120538
0.012231
-0.0286429
0.0253017
-0.0496331
0.0434512
-0.0730506
-0.102057
0.0676183
-0.000927663
0.00945031
-0.00203594
0.0151176
-0.00239225
0.0143899
-0.00111756
0.00796263
0.00256552
-0.003144
0.00946005
-0.0189484
0.0204125
-0.0395953
0.0363868
-0.0656074
0.0581346
-0.0947984
-0.13041
0.0864875
-0.000717288
0.0101676
-0.00129309
0.0156934
-0.000785649
0.0138825
0.00171447
0.00546251
0.00703397
-0.0084635
0.0160327
-0.027947
0.0296171
-0.0531798
0.0487977
-0.084788
0.0744912
-0.120492
-0.163264
0.107345
-0.000487795
0.0106554
-0.000476224
0.0156818
0.000985029
0.0124212
0.00483806
0.00160948
0.0119597
-0.0155852
0.023263
-0.0392503
0.0397102
-0.069627
0.0623313
-0.107409
0.0922143
-0.150375
-0.200783
0.129734
-0.00024326
0.0108987
0.000403171
0.0150354
0.00289937
0.00992502
0.00821766
-0.00370881
0.0172846
-0.0246521
0.0310605
-0.0530263
0.0505522
-0.0891187
0.076775
-0.133632
0.11098
-0.18458
-0.242973
0.15317
2.3101e-05
0.0108756
0.00133886
0.0137196
0.004938
0.00632589
0.0118181
-0.010589
0.0229504
-0.0357843
0.0393332
-0.0694091
0.0620002
-0.111786
0.0919112
-0.163543
0.130454
-0.223123
-0.289675
0.177156
0.000290276
0.0105853
0.00232035
0.0116895
0.00708239
0.00156385
0.0156057
-0.0191123
0.0289001
-0.0490788
0.0479888
-0.0884977
0.073909
-0.137706
0.107519
-0.197153
0.150296
-0.2659
-0.340562
0.201183
0.000569235
0.010016
0.00334043
0.00891836
0.00931545
-0.00441117
0.0195483
-0.0293451
0.035078
-0.0646085
0.0569355
-0.110355
0.086132
-0.166902
0.123377
-0.234398
0.170163
-0.312686
-0.395148
0.224749
0.000855563
0.00916048
0.00439264
0.00538128
0.0116218
-0.0116403
0.0236155
-0.0413388
0.0414299
-0.0824229
0.0660816
-0.135007
0.0985197
-0.199341
0.139258
-0.275137
0.189708
-0.363135
-0.452799
0.247359
0.00114785
0.00801263
0.00547151
0.00105762
0.0139876
-0.0201564
0.027779
-0.0551302
0.0479022
-0.102546
0.0753341
-0.162439
0.110919
-0.234925
0.154937
-0.319154
0.20859
-0.416788
-0.512754
0.268545
0.00144527
0.00656736
0.00657256
-0.00406968
0.0164003
-0.0299842
0.032011
-0.0707409
0.0544415
-0.124977
0.0845981
-0.192596
0.123172
-0.273499
0.170181
-0.366164
0.22647
-0.473076
-0.574169
0.287884
0.00174738
0.00481998
0.00769212
-0.0100144
0.0188484
-0.0411405
0.0362845
-0.088177
0.0609932
-0.149685
0.0937749
-0.225377
0.135115
-0.314839
0.184761
-0.41581
0.243015
-0.53133
-0.636199
0.305045
0.00205405
0.00276593
0.00882699
-0.0167874
0.0213206
-0.0536341
0.0405716
-0.107428
0.0674999
-0.176614
0.10276
-0.260638
0.146583
-0.358661
0.198451
-0.467679
0.257913
-0.590792
-0.698106
0.31982
0.00236529
0.000400648
0.00997416
-0.0243962
0.0238053
-0.0674652
0.0448428
-0.128466
0.0739002
-0.205671
0.111445
-0.298182
0.157407
-0.404624
0.211044
-0.521316
0.270906
-0.650654
-0.759452
0.332252
0.00268116
-0.00228051
0.0111304
-0.0328455
0.0262897
-0.0826245
0.0490658
-0.151242
0.0801283
-0.236734
0.119711
-0.337765
0.167414
-0.452326
0.222306
-0.576208
0.281892
-0.710239
-0.820756
0.343196
0.00300162
-0.00528213
0.0122921
-0.042136
0.0287598
-0.0990923
0.0532052
-0.175687
0.0861132
-0.269641
0.127438
-0.37909
0.176415
-0.501303
0.231863
-0.631657
0.291001
-0.769377
-0.89383
0.364076
0.00332644
-0.00860857
0.0134545
-0.052264
0.0311993
-0.116837
0.0572222
-0.20171
0.0917805
-0.3042
0.134504
-0.421813
0.18424
-0.551039
0.239485
-0.686902
0.297164
-0.827056
-0.959461
0.362795
0.00365502
-0.0122636
0.0146119
-0.0632209
0.0335896
-0.135815
0.0610744
-0.229195
0.0970536
-0.340179
0.140796
-0.465555
0.190753
-0.600996
0.245061
-0.74121
0.300528
-0.882523
-1.01863
0.359694
0.00398639
-0.01625
0.0157574
-0.0749919
0.0359094
-0.155967
0.0647165
-0.258002
0.101856
-0.377319
0.14621
-0.509909
0.195852
-0.650639
0.248596
-0.793953
0.301379
-0.935306
-1.07208
0.354832
0.00431909
-0.0205691
0.0168825
-0.0875553
0.0381353
-0.17722
0.0681011
-0.287967
0.106113
-0.415331
0.150656
-0.554452
0.199467
-0.69945
0.250117
-0.844604
0.299802
-0.984991
-1.12037
0.348089
0.00465117
-0.0252202
0.0179773
-0.100881
0.0402417
-0.199484
0.0711797
-0.318905
0.109754
-0.453905
0.154061
-0.598758
0.201554
-0.746943
0.249673
-0.892723
0.295942
-1.03126
-1.16389
0.339463
0.00498017
-0.0302004
0.0190309
-0.114932
0.0422012
-0.222654
0.0739043
-0.350608
0.112716
-0.492717
0.156367
-0.642408
0.202102
-0.792679
0.24734
-0.93796
0.289978
-1.0739
-1.20295
0.329043
0.00530313
-0.0355035
0.020031
-0.12966
0.0439858
-0.246609
0.0762288
-0.382851
0.114945
-0.531434
0.157538
-0.685002
0.201129
-0.83627
0.243218
-0.98005
0.282106
-1.11279
-1.23783
0.316979
0.0056167
-0.0411202
0.0209645
-0.145008
0.0455673
-0.271212
0.0781106
-0.415395
0.116397
-0.569721
0.15756
-0.726164
0.198678
-0.877388
0.237432
-1.0188
0.272533
-1.14789
-1.26874
0.303448
0.00591712
-0.0470374
0.0218178
-0.160908
0.046918
-0.296312
0.0795124
-0.447989
0.117043
-0.607251
0.156437
-0.765558
0.194818
-0.915769
0.23012
-1.0541
0.261462
-1.17923
-1.29592
0.28864
0.00620039
-0.0532377
0.0225772
-0.177285
0.0480122
-0.321747
0.0804029
-0.48038
0.116865
-0.643714
0.154193
-0.802886
0.189634
-0.95121
0.221429
-1.0859
0.249091
-1.20689
-1.31957
0.272739
0.00646229
-0.0597
0.0232292
-0.194052
0.0488263
-0.347344
0.0807584
-0.512312
0.11586
-0.678816
0.15087
-0.837896
0.183226
-0.983566
0.211514
-1.11419
0.235608
-1.23098
-1.33988
0.255921
0.00669855
-0.0663986
0.0237607
-0.211114
0.0493401
-0.372924
0.0805632
-0.543535
0.114039
-0.712291
0.146522
-0.87038
0.175703
-1.01275
0.200524
-1.13901
0.221186
-1.25165
-1.35704
0.238344
0.0069049
-0.0733035
0.0241598
-0.228369
0.049537
-0.398301
0.0798097
-0.573808
0.111421
-0.743903
0.141217
-0.900176
0.167178
-1.03871
0.188606
-1.16044
0.205984
-1.26903
-1.37121
0.220153
0.00707718
-0.0803807
0.0244157
-0.245708
0.0494046
-0.42329
0.0784986
-0.602902
0.108041
-0.773445
0.13503
-0.927165
0.157767
-1.06144
0.175899
-1.17857
0.190144
-1.28327
-1.38254
0.201473
0.00721147
-0.0875921
0.0245192
-0.263015
0.048935
-0.447706
0.0766386
-0.630605
0.103938
-0.800745
0.12804
-0.951267
0.147582
-1.08099
0.16253
-1.19352
0.173791
-1.29453
-1.39116
0.182415
0.00730413
-0.0948963
0.0244627
-0.280174
0.048125
-0.471368
0.0742453
-0.656726
0.0991618
-0.825661
0.120332
-0.972438
0.136734
-1.09739
0.148618
-1.2054
0.157038
-1.30295
-1.3972
0.163074
0.00735192
-0.102248
0.0242408
-0.297063
0.0469758
-0.494103
0.0713409
-0.681091
0.0937645
-0.848085
0.111989
-0.990662
0.125324
-1.11072
0.134271
-1.21435
0.13998
-1.30866
-1.40075
0.143534
0.00735204
-0.1096
0.02385
-0.313561
0.0454927
-0.515746
0.0679529
-0.703551
0.0878035
-0.867935
0.103094
-1.00595
0.113449
-1.12108
0.119582
-1.22048
0.122704
-1.31178
-1.40191
0.123866
0.00730222
-0.116902
0.0232887
-0.329547
0.0436854
-0.536142
0.0641132
-0.723979
0.0813376
-0.88516
0.0937274
-1.01834
0.1012
-1.12855
0.104639
-1.22392
0.105282
-1.31243
-1.40076
0.104133
0.0072007
-0.124103
0.0225576
-0.344904
0.041567
-0.555152
0.0598573
-0.742269
0.0744265
-0.899729
0.0839654
-1.02788
0.0886561
-1.13324
0.0895159
-1.22478
0.0877801
-1.31069
-1.39737
0.0843882
0.00704636
-0.13115
0.0216593
-0.359517
0.0391537
-0.572646
0.0552229
-0.758338
0.0671293
-0.911635
0.0738806
-1.03463
0.0758932
-1.13525
0.0742811
-1.22317
0.0702534
-1.30666
-1.3918
0.0646788
0.00683863
-0.137988
0.0205982
-0.373277
0.0364646
-0.588512
0.0502496
-0.772123
0.0595039
-0.92089
0.0635407
-1.03867
0.0629781
-1.13469
0.0589934
-1.21918
0.0527523
-1.30042
-1.38409
0.0450445
0.00657758
-0.144566
0.0193806
-0.38608
0.0335206
-0.602652
0.0449775
-0.78358
0.0516063
-0.927518
0.0530084
-1.04007
0.0499716
-1.13165
0.0437061
-1.21292
0.0353206
-1.29204
-1.37429
0.0255173
0.00626386
-0.15083
0.0180142
-0.39783
0.0303446
-0.614983
0.0394471
-0.792683
0.0434897
-0.931561
0.0423417
-1.03892
0.036928
-1.12624
0.0284679
-1.20446
0.0180026
-1.28157
-1.36237
0.00608606
0.00589871
-0.156728
0.0165081
-0.40844
0.0269605
-0.625435
0.0336983
-0.79942
0.0352048
-0.933068
0.0315935
-1.03531
0.0238948
-1.11854
0.0133164
-1.19388
0.000910292
-1.26916
-1.34838
-0.0130757
0.00548392
-0.162212
0.0148727
-0.417829
0.0233932
-0.633956
0.02777
-0.803797
0.0267991
-0.932097
0.0208128
-1.02933
0.0109167
-1.10864
-0.00174823
-1.18121
-0.0161549
-1.25476
-1.33252
-0.0320207
0.0050218
-0.167234
0.0131192
-0.425926
0.0196677
-0.640504
0.0217
-0.80583
0.018317
-0.928714
0.0100438
-1.02105
-0.00196556
-1.09663
-0.0165618
-1.16662
-0.0329525
-1.23837
-1.31472
-0.0507445
0.00451513
-0.171749
0.0112595
-0.43267
0.0158094
-0.645054
0.0155246
-0.805545
0.00979951
-0.922989
-0.000683598
-1.01057
-0.0147051
-1.08261
-0.0312193
-1.1501
-0.0495057
-1.22008
-1.29502
-0.069207
0.00396714
-0.175716
0.00930609
-0.438009
0.0118433
-0.647591
0.00927829
-0.80298
0.00128613
-0.914996
-0.0112988
-0.997985
-0.0272827
-1.06663
-0.045657
-1.13173
-0.065794
-1.19994
-1.27344
-0.0873808
0.00338141
-0.179098
0.00727159
-0.441899
0.00779406
-0.648114
0.00299515
-0.798181
-0.00718921
-0.904812
-0.0218031
-0.983371
-0.039665
-1.04877
-0.0598439
-1.11155
-0.081793
-1.17799
-1.24999
-0.105241
0.00276194
-0.18186
0.0051704
-0.444308
0.00368748
-0.646631
-0.00329766
-0.791196
-0.0155945
-0.892515
-0.0321554
-0.96681
-0.0518238
-1.0291
-0.0737529
-1.08962
-0.0974779
-1.15427
-1.2247
-0.122764
0.00211316
-0.183973
0.00301886
-0.445214
-0.000438001
-0.643174
-0.00957099
-0.782063
-0.0239006
-0.878186
-0.0423275
-0.948383
-0.0637335
-1.00769
-0.0873586
-1.066
-0.112823
-1.1288
-1.1976
-0.139928
0.00144082
-0.185414
0.00084079
-0.444614
-0.00462983
-0.637703
-0.0157987
-0.770894
-0.0320799
-0.861904
-0.0522945
-0.928169
-0.0753705
-0.984617
-0.100637
-1.04073
-0.127804
-1.10164
-1.16869
-0.156709
0.000746642
-0.18616
-0.00137976
-0.442487
-0.00879086
-0.630292
-0.0219546
-0.75773
-0.0401081
-0.843751
-0.0620335
-0.906244
-0.0867132
-0.959937
-0.113564
-1.01388
-0.142394
-1.07281
-1.138
-0.173084
-3.45006e-06
-0.186157
-0.00362767
-0.438863
-0.012925
-0.620995
-0.028016
-0.742639
-0.0479626
-0.823804
-0.0715239
-0.882682
-0.0977417
-0.933719
-0.126118
-0.985503
-0.156566
-1.04236
-1.10554
-0.189027
-0.000707986
-0.185449
-0.00587107
-0.4337
-0.0170152
-0.609851
-0.0339623
-0.725692
-0.0556232
-0.802143
-0.0807474
-0.857558
-0.108438
-0.906028
-0.138279
-0.955663
-0.170296
-1.01034
-1.07132
-0.204515
-0.00144095
-0.184008
-0.00810413
-0.427037
-0.0210444
-0.59691
-0.0397744
-0.706962
-0.0630714
-0.778846
-0.0896872
-0.830942
-0.118786
-0.876929
-0.150028
-0.924421
-0.183558
-0.976812
-1.03536
-0.219518
-0.00217862
-0.181829
-0.0103164
-0.418899
-0.0249969
-0.58223
-0.0454346
-0.686525
-0.0702908
-0.75399
-0.0983281
-0.802905
-0.128772
-0.846486
-0.161351
-0.891842
-0.196312
-0.941851
-0.997738
-0.233936
-0.00291558
-0.178914
-0.0124971
-0.409317
-0.0288578
-0.565869
-0.0509269
-0.664455
-0.0772662
-0.727651
-0.106657
-0.773514
-0.138383
-0.81476
-0.172232
-0.857992
-0.208509
-0.905574
-0.958458
-0.247789
-0.00364726
-0.175266
-0.0146364
-0.398328
-0.0326132
-0.547892
-0.0562367
-0.640832
-0.0839842
-0.699903
-0.114661
-0.742837
-0.147612
-0.781809
-0.182662
-0.822942
-0.21976
-0.868477
-0.919244
-0.258974
-0.00436937
-0.170897
-0.0167245
-0.385973
-0.0362503
-0.528366
-0.0613508
-0.615731
-0.0904323
-0.670822
-0.122331
-0.710939
-0.156451
-0.747689
-0.192658
-0.786735
-0.230975
-0.83016
-0.878759
-0.271459
-0.00507783
-0.165819
-0.0187525
-0.372299
-0.0397572
-0.507362
-0.0662568
-0.589232
-0.0965993
-0.640479
-0.129655
-0.677883
-0.164887
-0.712457
-0.202199
-0.749424
-0.241662
-0.790696
-0.837003
-0.283418
-0.00576874
-0.16005
-0.0207119
-0.357355
-0.043123
-0.484951
-0.0709439
-0.561411
-0.102475
-0.608948
-0.136624
-0.643734
-0.17291
-0.676171
-0.211274
-0.71106
-0.251819
-0.750151
-0.794069
-0.294754
-0.00643842
-0.153612
-0.0225948
-0.341199
-0.0463375
-0.461208
-0.0754019
-0.532347
-0.10805
-0.5763
-0.14323
-0.608555
-0.180513
-0.638887
-0.219877
-0.671697
-0.261453
-0.708575
-0.750036
-0.305486
-0.00708337
-0.146529
-0.0243939
-0.323888
-0.0493918
-0.43621
-0.0796218
-0.502117
-0.113317
-0.542605
-0.149464
-0.572408
-0.187688
-0.600662
-0.227999
-0.631386
-0.270555
-0.666019
-0.704968
-0.315623
-0.0077003
-0.138828
-0.0261024
-0.305486
-0.0522774
-0.410035
-0.0835952
-0.470799
-0.118266
-0.507934
-0.155319
-0.535356
-0.194428
-0.561553
-0.235633
-0.590181
-0.279117
-0.622534
-0.658924
-0.325161
-0.00828613
-0.130542
-0.0277139
-0.286058
-0.0549866
-0.382762
-0.0873146
-0.438471
-0.122892
-0.472356
-0.160788
-0.49746
-0.200724
-0.521617
-0.242769
-0.548136
-0.287129
-0.578175
-0.611961
-0.334092
-0.00883798
-0.121704
-0.0292228
-0.265674
-0.0575126
-0.354473
-0.0907731
-0.40521
-0.127188
-0.435942
-0.165865
-0.458783
-0.206569
-0.480912
-0.249399
-0.505306
-0.294579
-0.532995
-0.564137
-0.342403
-0.0093532
-0.112351
-0.0306238
-0.244403
-0.0598492
-0.325247
-0.0939645
-0.371095
-0.131147
-0.39876
-0.170542
-0.419387
-0.211957
-0.439498
-0.255514
-0.46175
-0.301456
-0.487053
-0.515509
-0.350083
-0.00982935
-0.102522
-0.0319122
-0.22232
-0.0619906
-0.295169
-0.0968832
-0.336202
-0.134764
-0.360879
-0.174815
-0.379335
-0.21688
-0.397433
-0.261105
-0.417525
-0.307749
-0.440409
-0.466141
-0.357117
-0.0102642
-0.0922575
-0.0330837
-0.199501
-0.0639318
-0.264321
-0.0995241
-0.30061
-0.138034
-0.32237
-0.178678
-0.338691
-0.221332
-0.354779
-0.266163
-0.372693
-0.313447
-0.393125
-0.416097
-0.363491
-0.0106558
-0.0816017
-0.0341344
-0.176022
-0.0656683
-0.232787
-0.101883
-0.264395
-0.140952
-0.283301
-0.182124
-0.297519
-0.225305
-0.311598
-0.270681
-0.327317
-0.31854
-0.345266
-0.365444
-0.369193
-0.0110023
-0.0705994
-0.0350611
-0.151963
-0.0671962
-0.200652
-0.103955
-0.227636
-0.143515
-0.243741
-0.185151
-0.255882
-0.228796
-0.267954
-0.274652
-0.281461
-0.323018
-0.2969
-0.314254
-0.374209
-0.0113022
-0.0592972
-0.0358607
-0.127405
-0.0685121
-0.168001
-0.105738
-0.190411
-0.145718
-0.203761
-0.187753
-0.213847
-0.231797
-0.223909
-0.278068
-0.23519
-0.326873
-0.248094
-0.262598
-0.378529
-0.0115542
-0.047743
-0.0365308
-0.102428
-0.0696131
-0.134918
-0.107228
-0.152796
-0.147559
-0.16343
-0.189927
-0.171479
-0.234306
-0.179531
-0.280924
-0.188572
-0.330097
-0.198921
-0.210551
-0.382144
-0.0117571
-0.035986
-0.0370694
-0.0771158
-0.0704967
-0.101491
-0.108423
-0.114869
-0.149035
-0.122819
-0.19167
-0.128843
-0.236317
-0.134884
-0.283215
-0.141674
-0.332684
-0.149451
-0.15819
-0.385045
-0.01191
-0.024076
-0.0374747
-0.051551
-0.0711611
-0.0678047
-0.109321
-0.0767093
-0.150143
-0.0819963
-0.19298
-0.0860072
-0.237828
-0.0900351
-0.284936
-0.0945667
-0.334629
-0.0997584
-0.105592
-0.387227
-0.0120123
-0.0120636
-0.0377457
-0.0258177
-0.0716048
-0.0339455
-0.10992
-0.0383936
-0.150884
-0.0410333
-0.193854
-0.0430371
-0.238837
-0.0450513
-0.286086
-0.0473185
-0.335927
-0.0499165
-0.0528358
-0.388684
-0.0120636
9.38717e-11
-0.0378813
2.02432e-10
-0.0718269
2.73247e-10
-0.11022
3.12479e-10
-0.151254
3.33522e-10
-0.194291
3.43028e-10
-0.239342
3.45681e-10
-0.286661
3.45264e-10
-0.336577
3.39558e-10
3.29969e-10
-0.389413
-0.0120636
0.0120636
-0.0378813
0.0258177
-0.0718269
0.0339455
-0.11022
0.0383936
-0.151254
0.0410333
-0.194291
0.0430371
-0.239342
0.0450513
-0.286661
0.0473185
-0.336577
0.0499165
0.0528358
-0.389413
-0.0120123
0.024076
-0.0377457
0.051551
-0.0716048
0.0678047
-0.10992
0.0767093
-0.150884
0.0819963
-0.193854
0.0860072
-0.238837
0.0900351
-0.286086
0.0945667
-0.335927
0.0997584
0.105592
-0.388684
-0.01191
0.035986
-0.0374747
0.0771158
-0.0711611
0.101491
-0.109321
0.114869
-0.150143
0.122819
-0.19298
0.128843
-0.237828
0.134884
-0.284936
0.141674
-0.334629
0.149451
0.15819
-0.387227
-0.0117571
0.047743
-0.0370694
0.102428
-0.0704967
0.134918
-0.108423
0.152796
-0.149035
0.16343
-0.19167
0.171479
-0.236317
0.179531
-0.283215
0.188572
-0.332684
0.198921
0.210551
-0.385045
-0.0115542
0.0592972
-0.0365308
0.127405
-0.0696131
0.168001
-0.107228
0.190411
-0.147559
0.203761
-0.189927
0.213847
-0.234306
0.223909
-0.280924
0.23519
-0.330097
0.248094
0.262598
-0.382144
-0.0113022
0.0705994
-0.0358607
0.151963
-0.0685121
0.200652
-0.105738
0.227636
-0.145718
0.243741
-0.187753
0.255882
-0.231797
0.267954
-0.278068
0.281461
-0.326873
0.2969
0.314254
-0.378529
-0.0110023
0.0816017
-0.0350611
0.176022
-0.0671962
0.232787
-0.103955
0.264395
-0.143515
0.283301
-0.185151
0.297519
-0.228796
0.311598
-0.274652
0.327317
-0.323018
0.345266
0.365444
-0.374209
-0.0106558
0.0922575
-0.0341344
0.199501
-0.0656683
0.264321
-0.101883
0.30061
-0.140952
0.32237
-0.182124
0.338691
-0.225305
0.354779
-0.270681
0.372693
-0.31854
0.393125
0.416097
-0.369193
-0.0102642
0.102522
-0.0330837
0.22232
-0.0639318
0.295169
-0.0995241
0.336202
-0.138034
0.360879
-0.178678
0.379335
-0.221332
0.397433
-0.266163
0.417525
-0.313447
0.440409
0.466141
-0.363491
-0.00982935
0.112351
-0.0319122
0.244403
-0.0619906
0.325247
-0.0968832
0.371095
-0.134764
0.39876
-0.174815
0.419387
-0.21688
0.439498
-0.261105
0.46175
-0.307749
0.487053
0.515509
-0.357117
-0.0093532
0.121704
-0.0306238
0.265674
-0.0598492
0.354473
-0.0939645
0.40521
-0.131147
0.435942
-0.170542
0.458783
-0.211957
0.480912
-0.255514
0.505306
-0.301456
0.532995
0.564137
-0.350083
-0.00883798
0.130542
-0.0292228
0.286058
-0.0575126
0.382762
-0.0907731
0.438471
-0.127188
0.472356
-0.165865
0.49746
-0.206569
0.521617
-0.249399
0.548136
-0.294579
0.578175
0.611961
-0.342403
-0.00828613
0.138828
-0.0277139
0.305486
-0.0549866
0.410035
-0.0873146
0.470799
-0.122892
0.507934
-0.160788
0.535356
-0.200724
0.561553
-0.242769
0.590181
-0.287129
0.622534
0.658924
-0.334092
-0.0077003
0.146529
-0.0261024
0.323888
-0.0522774
0.43621
-0.0835952
0.502117
-0.118266
0.542605
-0.155319
0.572408
-0.194428
0.600662
-0.235633
0.631386
-0.279117
0.666019
0.704968
-0.325161
-0.00708337
0.153612
-0.0243939
0.341199
-0.0493918
0.461208
-0.0796218
0.532347
-0.113317
0.5763
-0.149464
0.608555
-0.187688
0.638887
-0.227999
0.671697
-0.270555
0.708575
0.750036
-0.315623
-0.00643842
0.16005
-0.0225948
0.357355
-0.0463375
0.484951
-0.0754019
0.561411
-0.10805
0.608948
-0.14323
0.643734
-0.180513
0.676171
-0.219877
0.71106
-0.261453
0.750151
0.794069
-0.305486
-0.00576874
0.165819
-0.0207119
0.372299
-0.043123
0.507362
-0.0709439
0.589232
-0.102475
0.640479
-0.136624
0.677883
-0.17291
0.712457
-0.211274
0.749424
-0.251819
0.790696
0.837003
-0.294754
-0.00507783
0.170897
-0.0187525
0.385973
-0.0397572
0.528366
-0.0662568
0.615731
-0.0965993
0.670822
-0.129655
0.710939
-0.164887
0.747689
-0.202199
0.786735
-0.241662
0.83016
0.878759
-0.283418
-0.00436937
0.175266
-0.0167245
0.398328
-0.0362503
0.547892
-0.0613508
0.640832
-0.0904323
0.699903
-0.122331
0.742837
-0.156451
0.781809
-0.192658
0.822942
-0.230975
0.868477
0.919244
-0.271459
-0.00364726
0.178914
-0.0146364
0.409317
-0.0326132
0.565869
-0.0562367
0.664455
-0.0839842
0.727651
-0.114661
0.773514
-0.147612
0.81476
-0.182662
0.857992
-0.21976
0.905574
0.958458
-0.258974
-0.00291558
0.181829
-0.0124971
0.418899
-0.0288578
0.58223
-0.0509269
0.686525
-0.0772662
0.75399
-0.106657
0.802905
-0.138383
0.846486
-0.172232
0.891842
-0.208509
0.941851
0.997738
-0.247789
-0.00217862
0.184008
-0.0103164
0.427037
-0.0249969
0.59691
-0.0454346
0.706962
-0.0702908
0.778846
-0.0983281
0.830942
-0.128772
0.876929
-0.161351
0.924421
-0.196312
0.976812
1.03536
-0.233936
-0.00144095
0.185449
-0.00810413
0.4337
-0.0210444
0.609851
-0.0397744
0.725692
-0.0630714
0.802143
-0.0896872
0.857558
-0.118786
0.906028
-0.150028
0.955663
-0.183558
1.01034
1.07132
-0.219518
-0.000707986
0.186157
-0.00587107
0.438863
-0.0170152
0.620995
-0.0339623
0.742639
-0.0556232
0.823804
-0.0807474
0.882682
-0.108438
0.933719
-0.138279
0.985503
-0.170296
1.04236
1.10554
-0.204515
-3.45006e-06
0.18616
-0.00362767
0.442487
-0.012925
0.630292
-0.028016
0.75773
-0.0479626
0.843751
-0.0715239
0.906244
-0.0977417
0.959937
-0.126118
1.01388
-0.156566
1.07281
1.138
-0.189027
0.000746642
0.185414
-0.00137976
0.444614
-0.00879086
0.637703
-0.0219546
0.770894
-0.0401081
0.861904
-0.0620335
0.928169
-0.0867132
0.984617
-0.113564
1.04073
-0.142394
1.10164
1.16869
-0.173084
0.00144082
0.183973
0.00084079
0.445214
-0.00462983
0.643174
-0.0157987
0.782063
-0.0320799
0.878186
-0.0522945
0.948383
-0.0753705
1.00769
-0.100637
1.066
-0.127804
1.1288
1.1976
-0.156709
0.00211316
0.18186
0.00301886
0.444308
-0.000438001
0.646631
-0.00957099
0.791196
-0.0239006
0.892515
-0.0423275
0.96681
-0.0637335
1.0291
-0.0873586
1.08962
-0.112823
1.15427
1.2247
-0.139928
0.00276194
0.179098
0.0051704
0.441899
0.00368748
0.648114
-0.00329766
0.798181
-0.0155945
0.904812
-0.0321554
0.983371
-0.0518238
1.04877
-0.0737529
1.11155
-0.0974779
1.17799
1.24999
-0.122764
0.00338141
0.175716
0.00727159
0.438009
0.00779406
0.647591
0.00299515
0.80298
-0.00718921
0.914996
-0.0218031
0.997985
-0.039665
1.06663
-0.0598439
1.13173
-0.081793
1.19994
1.27344
-0.105241
0.00396714
0.171749
0.00930609
0.43267
0.0118433
0.645054
0.00927829
0.805545
0.00128613
0.922989
-0.0112988
1.01057
-0.0272827
1.08261
-0.045657
1.1501
-0.065794
1.22008
1.29502
-0.0873808
0.00451513
0.167234
0.0112595
0.425926
0.0158094
0.640504
0.0155246
0.80583
0.00979951
0.928714
-0.000683598
1.02105
-0.0147051
1.09663
-0.0312193
1.16662
-0.0495057
1.23837
1.31472
-0.069207
0.0050218
0.162212
0.0131192
0.417829
0.0196677
0.633956
0.0217
0.803797
0.018317
0.932097
0.0100438
1.02933
-0.00196556
1.10864
-0.0165618
1.18121
-0.0329525
1.25476
1.33252
-0.0507445
0.00548392
0.156728
0.0148727
0.40844
0.0233932
0.625435
0.02777
0.79942
0.0267991
0.933068
0.0208128
1.03531
0.0109167
1.11854
-0.00174823
1.19388
-0.0161549
1.26916
1.34838
-0.0320207
0.00589871
0.15083
0.0165081
0.39783
0.0269605
0.614983
0.0336983
0.792683
0.0352048
0.931561
0.0315935
1.03892
0.0238948
1.12624
0.0133164
1.20446
0.000910292
1.28157
1.36237
-0.0130757
0.00626386
0.144566
0.0180142
0.38608
0.0303446
0.602652
0.0394471
0.78358
0.0434897
0.927518
0.0423417
1.04007
0.036928
1.13165
0.0284679
1.21292
0.0180026
1.29204
1.37429
0.00608606
0.00657758
0.137988
0.0193806
0.373277
0.0335206
0.588512
0.0449775
0.772123
0.0516063
0.92089
0.0530084
1.03867
0.0499716
1.13469
0.0437061
1.21918
0.0353206
1.30042
1.38409
0.0255173
0.00683863
0.13115
0.0205982
0.359517
0.0364646
0.572646
0.0502496
0.758338
0.0595039
0.911635
0.0635407
1.03463
0.0629781
1.13525
0.0589934
1.22317
0.0527523
1.30666
1.3918
0.0450445
0.00704636
0.124103
0.0216593
0.344904
0.0391537
0.555152
0.0552229
0.742269
0.0671293
0.899729
0.0738806
1.02788
0.0758932
1.13324
0.0742811
1.22478
0.0702534
1.31069
1.39737
0.0646788
0.0072007
0.116902
0.0225576
0.329547
0.041567
0.536142
0.0598573
0.723979
0.0744265
0.88516
0.0839654
1.01834
0.0886561
1.12855
0.0895159
1.22392
0.0877801
1.31243
1.40076
0.0843882
0.00730222
0.1096
0.0232887
0.313561
0.0436854
0.515746
0.0641132
0.703551
0.0813376
0.867935
0.0937274
1.00595
0.1012
1.12108
0.104639
1.22048
0.105282
1.31178
1.40191
0.104133
0.00735204
0.102248
0.02385
0.297063
0.0454927
0.494103
0.0679529
0.681091
0.0878035
0.848085
0.103094
0.990662
0.113449
1.11072
0.119582
1.21435
0.122704
1.30866
1.40075
0.123866
0.00735192
0.0948963
0.0242408
0.280174
0.0469758
0.471368
0.0713409
0.656726
0.0937645
0.825661
0.111989
0.972438
0.125324
1.09739
0.134271
1.2054
0.13998
1.30295
1.3972
0.143534
0.00730413
0.0875921
0.0244627
0.263015
0.048125
0.447706
0.0742453
0.630605
0.0991618
0.800745
0.120332
0.951267
0.136734
1.08099
0.148618
1.19352
0.157038
1.29453
1.39116
0.163074
0.00721147
0.0803807
0.0245192
0.245708
0.048935
0.42329
0.0766386
0.602902
0.103938
0.773445
0.12804
0.927165
0.147582
1.06144
0.16253
1.17857
0.173791
1.28327
1.38254
0.182415
0.00707718
0.0733035
0.0244157
0.228369
0.0494046
0.398301
0.0784986
0.573808
0.108041
0.743903
0.13503
0.900176
0.157767
1.03871
0.175899
1.16044
0.190144
1.26903
1.37121
0.201473
0.0069049
0.0663986
0.0241598
0.211114
0.049537
0.372924
0.0798097
0.543535
0.111421
0.712291
0.141217
0.87038
0.167178
1.01275
0.188606
1.13901
0.205984
1.25165
1.35704
0.220153
0.00669855
0.0597
0.0237607
0.194052
0.0493401
0.347344
0.0805632
0.512312
0.114039
0.678816
0.146522
0.837896
0.175703
0.983566
0.200524
1.11419
0.221186
1.23098
1.33988
0.238344
0.00646229
0.0532377
0.0232292
0.177285
0.0488263
0.321747
0.0807584
0.48038
0.11586
0.643714
0.15087
0.802886
0.183226
0.95121
0.211514
1.0859
0.235608
1.20689
1.31957
0.255921
0.00620039
0.0470374
0.0225772
0.160908
0.0480122
0.296312
0.0804029
0.447989
0.116865
0.607251
0.154193
0.765558
0.189634
0.915769
0.221429
1.0541
0.249091
1.17923
1.29592
0.272739
0.00591712
0.0411202
0.0218178
0.145008
0.046918
0.271212
0.0795124
0.415395
0.117043
0.569721
0.156437
0.726164
0.194818
0.877388
0.23012
1.0188
0.261462
1.14789
1.26874
0.28864
0.0056167
0.0355035
0.0209645
0.12966
0.0455673
0.246609
0.0781106
0.382851
0.116397
0.531434
0.15756
0.685002
0.198678
0.83627
0.237432
0.98005
0.272533
1.11279
1.23783
0.303448
0.00530313
0.0302004
0.020031
0.114932
0.0439858
0.222654
0.0762288
0.350608
0.114945
0.492717
0.157538
0.642408
0.201129
0.792679
0.243218
0.93796
0.282106
1.0739
1.20295
0.316979
0.00498017
0.0252202
0.0190309
0.100881
0.0422012
0.199484
0.0739043
0.318905
0.112716
0.453905
0.156367
0.598758
0.202102
0.746943
0.24734
0.892723
0.289978
1.03126
1.16389
0.329043
0.00465117
0.0205691
0.0179773
0.0875553
0.0402417
0.17722
0.0711797
0.287967
0.109754
0.415331
0.154061
0.554452
0.201554
0.69945
0.249673
0.844604
0.295942
0.984991
1.12037
0.339463
0.00431909
0.01625
0.0168825
0.0749919
0.0381353
0.155967
0.0681011
0.258002
0.106113
0.377319
0.150656
0.509909
0.199467
0.650639
0.250117
0.793953
0.299802
0.935306
1.07208
0.348089
0.00398639
0.0122636
0.0157574
0.0632209
0.0359094
0.135815
0.0647165
0.229195
0.101856
0.340179
0.14621
0.465555
0.195852
0.600996
0.248596
0.74121
0.301379
0.882523
1.01863
0.354832
0.00365502
0.00860857
0.0146119
0.052264
0.0335896
0.116837
0.0610744
0.20171
0.0970536
0.3042
0.140796
0.421813
0.190753
0.551039
0.245061
0.686902
0.300528
0.827056
0.959461
0.359694
0.00332644
0.00528213
0.0134545
0.042136
0.0311993
0.0990923
0.0572222
0.175687
0.0917805
0.269641
0.134504
0.37909
0.18424
0.501303
0.239485
0.631657
0.297164
0.769377
0.89383
0.362795
0.00300162
0.00228051
0.0122921
0.0328455
0.0287598
0.0826245
0.0532052
0.151242
0.0861132
0.236734
0.127438
0.337765
0.176415
0.452326
0.231863
0.576208
0.291001
0.710239
0.820756
0.364076
0.00268116
-0.000400648
0.0111304
0.0243962
0.0262897
0.0674652
0.0490658
0.128466
0.0801283
0.205671
0.119711
0.298182
0.167414
0.404624
0.222306
0.521316
0.281892
0.650654
0.759452
0.343196
0.00236529
-0.00276593
0.00997416
0.0167874
0.0238053
0.0536341
0.0448428
0.107428
0.0739002
0.176614
0.111445
0.260638
0.157407
0.358661
0.211044
0.467679
0.270906
0.590792
0.698106
0.332252
0.00205405
-0.00481998
0.00882699
0.0100144
0.0213206
0.0411405
0.0405716
0.088177
0.0674999
0.149685
0.10276
0.225377
0.146583
0.314839
0.198451
0.41581
0.257913
0.53133
0.636199
0.31982
0.00174738
-0.00656736
0.00769212
0.00406968
0.0188484
0.0299842
0.0362845
0.0707409
0.0609932
0.124977
0.0937749
0.192596
0.135115
0.273499
0.184761
0.366164
0.243015
0.473076
0.574169
0.305045
0.00144527
-0.00801263
0.00657256
-0.00105762
0.0164003
0.0201564
0.032011
0.0551302
0.0544415
0.102546
0.0845981
0.162439
0.123172
0.234925
0.170181
0.319154
0.22647
0.416788
0.512754
0.287884
0.00114785
-0.00916048
0.00547151
-0.00538128
0.0139876
0.0116403
0.027779
0.0413388
0.0479022
0.0824229
0.0753341
0.135007
0.110919
0.199341
0.154937
0.275137
0.20859
0.363135
0.452799
0.268545
0.000855563
-0.010016
0.00439264
-0.00891836
0.0116218
0.00441117
0.0236155
0.0293451
0.0414299
0.0646085
0.0660816
0.110355
0.0985197
0.166902
0.139258
0.234398
0.189708
0.312686
0.395148
0.247359
0.000569235
-0.0105853
0.00334043
-0.0116895
0.00931545
-0.00156385
0.0195483
0.0191123
0.035078
0.0490788
0.0569355
0.0884977
0.086132
0.137706
0.123377
0.197153
0.170163
0.2659
0.340562
0.224749
0.000290276
-0.0108756
0.00232035
-0.0137196
0.00708239
-0.00632589
0.0156057
0.010589
0.0289001
0.0357844
0.0479888
0.0694091
0.073909
0.111786
0.107519
0.163543
0.150296
0.223123
0.289675
0.201183
2.3101e-05
-0.0108987