/*--------------------------------*- C++ -*----------------------------------*\
  =========                 |
  \\      /  F ield         | OpenFOAM: The Open Source CFD Toolbox
   \\    /   O peration     | Website:  https://openfoam.org
    \\  /    A nd           | Version:  9
     \\/     M anipulation  |
\*---------------------------------------------------------------------------*/
FoamFile
{
    format      ascii;
    class       volVectorField;
    location    "5.2";
    object      U;
}
// * * * * * * * * * * * * * * * * * * * * * * * * * * * * * * * * * * * * * //

dimensions      [0 1 -1 0 0 0 0];

internalField   nonuniform List<vector> 
8500
(
(-0.00403746 0.00139522 0)
(-0.0153473 0.00208439 -7.40984e-23)
(-0.0291004 0.00188125 -4.10331e-24)
(-0.0381547 0.00119228 7.62857e-37)
(-0.0423861 0.000264219 -1.07323e-23)
(-0.0406869 -0.000791032 9.00132e-24)
(-0.0334972 -0.00190603 -5.67201e-23)
(-0.0195596 -0.00306559 -8.44941e-23)
(-0.00227496 -0.00401303 -7.23191e-23)
(0.022575 -0.00504038 -3.645e-24)
(-0.00419399 0.00415093 2.07612e-22)
(-0.0153372 0.00619125 6.92425e-23)
(-0.028572 0.00557627 2.77997e-22)
(-0.0369342 0.00351328 0)
(-0.0403216 0.00073964 0)
(-0.0376561 -0.00241085 1.73001e-23)
(-0.0294096 -0.00573757 4.21915e-23)
(-0.0142519 -0.00918006 8.99838e-23)
(0.0041824 -0.0120339 5.47129e-23)
(0.0308146 -0.0150571 1.45855e-23)
(-0.00449871 0.00680344 -1.84483e-22)
(-0.0153035 0.0101138 0)
(-0.0275028 0.00907053 -2.61791e-22)
(-0.034485 0.00564518 0)
(-0.0361909 0.0010576 -4.3074e-23)
(-0.0316026 -0.00414304 3.61267e-23)
(-0.0212509 -0.00963302 0)
(-0.00368503 -0.015255 0)
(0.0170213 -0.0200266 0)
(0.0471842 -0.0248753 0)
(-0.00493519 0.00928718 3.74661e-22)
(-0.0152191 0.0137345 -2.80386e-22)
(-0.0258681 0.0122357 -6.57786e-23)
(-0.0307897 0.00746744 -4.07698e-22)
(-0.0299903 0.00111858 -3.97431e-22)
(-0.0225434 -0.00605795 3.47879e-23)
(-0.00905476 -0.013645 -2.92149e-23)
(0.0120574 -0.0212917 3.1793e-22)
(0.0360971 -0.0279354 2.53916e-24)
(0.0714606 -0.0343489 2.77965e-22)
(-0.00547935 0.0115412 -3.74661e-22)
(-0.0150441 0.016943 -3.64589e-22)
(-0.0236305 0.0149515 9.89717e-23)
(-0.025822 0.00886772 5.42245e-22)
(-0.0217124 0.000831214 -4.66172e-23)
(-0.0105062 -0.0082145 5.71914e-22)
(0.00711781 -0.0177832 0)
(0.0328731 -0.0273049 -3.62122e-22)
(0.0612145 -0.0357095 -6.94203e-23)
(0.103306 -0.0433278 -3.83175e-22)
(-0.00610017 0.013511 9.55455e-23)
(-0.0147259 0.0196394 6.04513e-22)
(-0.0207402 0.0171092 -4.69724e-22)
(-0.0195452 0.00974504 1.37639e-24)
(-0.0113438 0.000115167 -4.00622e-22)
(0.00448859 -0.0106619 1.46381e-22)
(0.02718 -0.0220373 -5.89469e-23)
(0.0586088 -0.0332722 4.54114e-22)
(0.0921393 -0.0433126 -7.50889e-23)
(0.142287 -0.0516568 2.20403e-22)
(-0.00676049 0.0151495 4.83229e-23)
(-0.0142006 0.0217365 0)
(-0.0171351 0.0186138 -4.72062e-24)
(-0.0119121 0.0100131 0)
(0.00113478 -0.00109458 7.12986e-22)
(0.0224209 -0.0134398 -5.74926e-22)
(0.0510452 -0.0264161 0)
(0.0890784 -0.0391275 1.642e-24)
(0.12859 -0.050686 0)
(0.187886 -0.0591728 0)
(-0.00741802 0.0164184 -7.92428e-22)
(-0.0133933 0.0231616 -8.18942e-23)
(-0.0127407 0.0193878 6.08977e-22)
(-0.00286361 0.00960354 1.09282e-22)
(0.0157505 -0.0028445 -7.19501e-22)
(0.0432699 -0.016566 -4.36957e-22)
(0.0786239 -0.0309093 -5.9636e-23)
(0.124075 -0.0447953 4.60294e-22)
(0.170245 -0.0577466 -7.59415e-23)
(0.239502 -0.0657044 5.64041e-23)
(-0.00802656 0.0172893 8.92133e-22)
(-0.0122193 0.0238577 -6.73199e-22)
(-0.00747032 0.0193725 -2.04741e-22)
(0.00767123 0.00846898 1.13391e-22)
(0.0325402 -0.00516073 7.22709e-22)
(0.0670175 -0.0200348 6.53529e-22)
(0.109822 -0.0354782 -6.00266e-23)
(0.163374 -0.0501852 9.44712e-23)
(0.216758 -0.064385 -1.46282e-22)
(0.296459 -0.0710748 5.88851e-23)
(-0.00853672 0.0177424 8.22549e-22)
(-0.0105865 0.0237876 6.7229e-22)
(-0.00122595 0.0185302 -9.78971e-22)
(0.0197751 0.006585 -1.14536e-22)
(0.0515511 -0.00804482 0)
(0.0936502 -0.0238162 0)
(0.144541 -0.0400567 0)
(0.206727 -0.0551846 -1.48463e-21)
(0.26775 -0.0704607 -6.06393e-22)
(0.357996 -0.075107 4.29302e-22)
(-0.00889412 0.0177627 -1.6619e-21)
(-0.00839718 0.022936 0)
(0.00609972 0.0168473 2.24515e-21)
(0.0335418 0.00395331 9.15906e-22)
(0.072839 -0.0114705 9.38818e-23)
(0.123158 -0.0278533 0)
(0.182678 -0.0445503 -9.53552e-22)
(0.253865 -0.0596588 7.44244e-22)
(0.322815 -0.0757985 6.06388e-22)
(0.423271 -0.0776264 -4.29314e-22)
(-0.00904321 0.017352 9.44196e-22)
(-0.00554359 0.0213017 -8.80163e-23)
(0.014621 0.0143342 -1.12931e-21)
(0.0490737 0.000603644 -1.02902e-21)
(0.0964667 -0.0153818 0)
(0.155532 -0.0320594 1.19828e-21)
(0.224117 -0.0488357 -6.54212e-24)
(0.304487 -0.0634533 6.59826e-22)
(0.381509 -0.0801875 6.92624e-22)
(0.491365 -0.0784685 -4.25062e-22)
(-0.00893292 0.0165237 -1.51232e-24)
(-0.0019152 0.0188984 1.50684e-21)
(0.0244607 0.0110269 -1.45801e-22)
(0.0664794 -0.00340505 8.20654e-22)
(0.122499 -0.0196911 4.74176e-22)
(0.190756 -0.0363174 3.10335e-22)
(0.268726 -0.0527607 9.53078e-22)
(0.358258 -0.0664 -8.50247e-22)
(0.443336 -0.0833857 -4.74009e-22)
(0.561281 -0.0774907 3.06429e-22)
(-0.00850896 0.0152927 0)
(0.0025981 0.0157656 -1.24526e-21)
(0.035745 0.00698688 -1.47898e-22)
(0.0858702 -0.00798389 1.00735e-23)
(0.150999 -0.0242791 7.53468e-22)
(0.228803 -0.0404798 -1.05938e-21)
(0.316344 -0.0561468 9.65791e-22)
(0.414795 -0.0683254 -9.85734e-23)
(0.507742 -0.0851287 0)
(0.631946 -0.0745884 0)
(-0.00771731 0.0136822 1.13166e-22)
(0.00810715 0.0119603 -1.46715e-21)
(0.0485998 0.00230115 0)
(0.107354 -0.0130142 -1.06071e-22)
(0.182019 -0.0289954 9.75956e-23)
(0.269621 -0.0443711 0)
(0.366765 -0.0587941 -9.72965e-22)
(0.473663 -0.06906 -7.6487e-22)
(0.574097 -0.0851444 1.41162e-22)
(0.702232 -0.0697217 -1.18994e-22)
(-0.00650537 0.0117231 -1.13087e-22)
(0.0147214 0.00755641 1.56209e-21)
(0.0631476 -0.00291888 0)
(0.131032 -0.0183487 -1.07307e-21)
(0.215591 -0.0336607 9.86056e-23)
(0.313128 -0.0477919 -1.23627e-21)
(0.419733 -0.060489 -1.18642e-22)
(0.53437 -0.0684498 8.64629e-22)
(0.641697 -0.083172 0)
(0.770984 -0.0629449 8.43358e-22)
(-0.00482215 0.00945285 -1.80068e-21)
(0.0225462 0.00264419 -9.68271e-23)
(0.0795031 -0.00853861 -1.48751e-22)
(0.156987 -0.0238136 1.24478e-22)
(0.251721 -0.0380708 -1.56431e-21)
(0.359195 -0.0505244 1.23627e-21)
(0.474923 -0.0610149 9.90949e-22)
(0.596364 -0.0663669 7.73461e-22)
(0.709751 -0.0789715 1.24666e-21)
(0.837019 -0.0543876 -7.24946e-22)
(-0.00261862 0.00691403 1.91602e-21)
(0.0316805 -0.00267083 0)
(0.0977684 -0.0144021 1.39314e-21)
(0.185281 -0.0292118 -1.26116e-22)
(0.290375 -0.0420017 3.1438e-21)
(0.407638 -0.0523413 0)
(0.531937 -0.0601667 -9.90942e-22)
(0.659056 -0.0627215 4.34819e-24)
(0.777398 -0.0723068 -1.38791e-21)
(0.899081 -0.0441669 1.19089e-22)
(0.000151846 0.00415431 0)
(0.0422145 -0.00826924 1.56631e-21)
(0.118028 -0.0203348 -1.24243e-21)
(0.215945 -0.0343271 0)
(0.331473 -0.0452166 -1.57949e-21)
(0.458211 -0.0530146 0)
(0.590304 -0.0577703 1.00162e-21)
(0.721839 -0.0574693 -7.77798e-22)
(0.843779 -0.0629406 -1.23611e-21)
(0.95616 -0.032687 -8.58698e-22)
(0.00353291 0.00122582 -2.44822e-22)
(0.0542268 -0.0140193 -1.36077e-21)
(0.140345 -0.0261463 0)
(0.248974 -0.0389294 0)
(0.374879 -0.0474737 0)
(0.510596 -0.052327 -1.54412e-22)
(0.649474 -0.0536982 -1.00999e-21)
(0.784098 -0.0505929 -1.01994e-22)
(0.908106 -0.0508557 1.2361e-21)
(1.00871 -0.0224732 9.77019e-22)
(0.00756469 -0.00181511 0)
(0.0677821 -0.0197783 -1.61918e-21)
(0.164753 -0.031634 0)
(0.284317 -0.0427802 0)
(0.420397 -0.0485344 0)
(0.564399 -0.0500811 1.55368e-22)
(0.708828 -0.04787 -1.26304e-21)
(0.845121 -0.0420744 8.74364e-23)
(0.969297 -0.0368795 9.16616e-22)
(1.06052 -0.0181088 9.48924e-22)
(0.012283 -0.00490825 0)
(0.0829286 -0.0253949 1.61917e-21)
(0.191258 -0.0365867 -1.31783e-21)
(0.321876 -0.0456397 0)
(0.467766 -0.0481718 -1.64209e-21)
(0.619164 -0.0461079 0)
(0.767703 -0.0402389 1.01072e-21)
(0.904064 -0.0319318 -7.9001e-22)
(1.0253 -0.0227946 -1.22279e-21)
(1.11121 -0.0147503 -9.42521e-22)
(0.0177184 -0.0079897 2.18806e-21)
(0.099695 -0.0307103 0)
(0.219827 -0.0407893 1.15665e-21)
(0.361501 -0.0472731 1.34876e-22)
(0.516666 -0.04618 3.29959e-21)
(0.674378 -0.0402755 0)
(0.825436 -0.0307922 -1.01691e-21)
(0.96017 -0.0201756 -1.57977e-21)
(1.07591 -0.00836828 -1.05973e-21)
(1.15588 -0.0058465 -1.41277e-23)
(0.0238955 -0.0109921 -2.32031e-21)
(0.118089 -0.0355608 1.1103e-22)
(0.250392 -0.044027 1.63342e-22)
(0.40299 -0.047458 -1.36687e-22)
(0.56672 -0.0423823 -1.6575e-21)
(0.729493 -0.0324979 1.30923e-21)
(0.881392 -0.0195613 1.0169e-21)
(1.0128 -0.00689072 7.8976e-22)
(1.1212 0.0065476 1.20624e-21)
(1.19395 0.00647648 -1.04673e-21)
(0.0308317 -0.0138448 1.34707e-22)
(0.138094 -0.0397797 1.61388e-21)
(0.282841 -0.04609 0)
(0.446088 -0.0459913 -9.44228e-22)
(0.617503 -0.036639 -1.08593e-22)
(0.783943 -0.0227402 -1.30923e-21)
(0.934978 -0.0066275 1.22421e-22)
(1.06146 0.00774736 6.8135e-22)
(1.16124 0.0218957 0)
(1.22588 0.0205179 9.39323e-22)
(0.0385361 -0.0164746 -1.43828e-22)
(0.159667 -0.0432 -1.72697e-21)
(0.317026 -0.0467783 0)
(0.490492 -0.0426955 1.19211e-22)
(0.668552 -0.0288523 -1.09653e-22)
(0.837163 -0.0110204 0)
(0.985666 0.00788136 -1.01693e-21)
(1.10579 0.0235138 -7.84294e-22)
(1.19609 0.037572 -1.4192e-22)
(1.25209 0.0353894 -1.19647e-22)
(0.0470084 -0.0188057 0)
(0.182742 -0.0456566 -1.99457e-21)
(0.352755 -0.0459064 1.80359e-22)
(0.535856 -0.0374241 -1.10462e-23)
(0.719382 -0.0189706 -8.55218e-22)
(0.888609 0.00259318 -1.48084e-21)
(1.03301 0.0238 1.1501e-21)
(1.14555 0.0401658 0)
(1.22589 0.0534492 0)
(1.27306 0.0505368 0)
(0.056238 -0.020761 7.42228e-24)
(0.20722 -0.0469898 1.67927e-21)
(0.389799 -0.0433079 1.82808e-22)
(0.581798 -0.0300664 1.22974e-21)
(0.769494 -0.00698897 7.43681e-22)
(0.937777 0.0179876 -1.58764e-22)
(1.07664 0.0409358 1.02047e-21)
(1.18065 0.0574615 -6.61517e-22)
(1.25086 0.0693873 -7.03756e-22)
(1.28932 0.0655966 5.48663e-22)
(0.0662028 -0.0222627 1.07834e-21)
(0.232976 -0.0470473 1.20788e-22)
(0.427891 -0.0388393 -1.44716e-21)
(0.627909 -0.0205502 -1.11571e-21)
(0.818398 0.00705182 0)
(0.984214 0.0350122 1.32265e-21)
(1.11629 0.0590795 -7.73632e-24)
(1.21108 0.0751725 8.52333e-22)
(1.27125 0.0852489 4.91563e-22)
(1.30141 0.0803395 -4.33212e-22)
(0.0768684 -0.0232333 -2.462e-21)
(0.259858 -0.0456883 0)
(0.466735 -0.0323841 2.90902e-21)
(0.673762 -0.00884374 9.80909e-22)
(0.865622 0.0230682 1.12918e-22)
(1.02753 0.0534873 0)
(1.15179 0.0780153 -1.00036e-21)
(1.23695 0.0930914 7.3936e-22)
(1.28739 0.100911 5.4349e-22)
(1.30981 0.0946293 -4.08471e-22)
(0.0881878 -0.0235972 1.23978e-21)
(0.287686 -0.0427858 9.33491e-22)
(0.506006 -0.0238559 -1.63823e-21)
(0.718926 0.00504351 1.47595e-22)
(0.910724 0.0409382 0)
(1.06742 0.0732126 0)
(1.18305 0.0975297 0)
(1.25842 0.111036 -1.46398e-21)
(1.29964 0.11627 -5.43493e-22)
(1.31503 0.108392 4.08457e-22)
(0.100101 -0.0232816 1.11975e-21)
(0.316256 -0.0382301 -9.22292e-22)
(0.545359 -0.0132008 9.54468e-23)
(0.762969 0.0210622 0)
(0.953306 0.0605075 8.62931e-22)
(1.10364 0.0939757 5.70722e-22)
(1.21007 0.117418 6.47129e-23)
(1.27573 0.128852 -6.71335e-23)
(1.30833 0.131245 1.32274e-22)
(1.31747 0.121596 -5.19398e-23)
(0.112534 -0.022219 -1.26905e-21)
(0.345338 -0.0319317 1.14953e-22)
(0.584436 -0.000399066 7.39279e-22)
(0.805476 0.0391248 -2.10075e-22)
(0.993019 0.0815952 -6.47245e-22)
(1.13603 0.115559 -8.09498e-22)
(1.23291 0.13749 6.38354e-23)
(1.28912 0.146408 3.63338e-22)
(1.31385 0.145772 0)
(1.31753 0.134233 -4.23824e-23)
(0.1254 -0.0203477 -8.03083e-23)
(0.374684 -0.023824 0)
(0.622869 0.0145339 2.16379e-24)
(0.846052 0.0591089 0)
(1.02957 0.104 8.51947e-22)
(1.16447 0.137746 -6.30292e-22)
(1.2517 0.157571 0)
(1.2989 0.163598 1.04557e-23)
(1.31652 0.159809 0)
(1.31553 0.14631 0)
(0.138602 -0.0176146 -1.56918e-22)
(0.404032 -0.0138656 1.01963e-21)
(0.660292 0.0315473 -8.37728e-22)
(0.884334 0.0808606 1.41867e-22)
(1.06271 0.127507 -3.87025e-22)
(1.18895 0.160325 -7.19435e-23)
(1.26658 0.177503 0)
(1.30533 0.180334 2.57731e-22)
(1.31666 0.173322 6.42653e-23)
(1.31178 0.157843 1.65798e-22)
(0.152028 -0.0139758 -6.47265e-22)
(0.433105 -0.00204245 -4.19752e-22)
(0.696346 0.050556 -1.37478e-22)
(0.919993 0.104199 5.66995e-22)
(1.09227 0.151892 4.95767e-23)
(1.20947 0.183095 6.18433e-22)
(1.27776 0.197148 0)
(1.30872 0.196547 -3.1e-22)
(1.31458 0.186292 5.23016e-23)
(1.3065 0.168846 -3.66641e-22)
(0.165559 -0.00939916 -6.47265e-22)
(0.461619 0.0116311 4.20111e-22)
(0.730685 0.071442 -4.13684e-24)
(0.952741 0.128921 -6.618e-22)
(1.11812 0.176926 -3.60027e-22)
(1.2261 0.205865 -3.4705e-23)
(1.28545 0.216384 2.91454e-23)
(1.30933 0.21218 3.45039e-22)
(1.31052 0.198702 -4.71264e-24)
(1.29991 0.179333 1.186e-22)
(0.179065 -0.0038649 -3.21251e-22)
(0.489287 0.0271109 0)
(0.762981 0.0940561 -3.68129e-22)
(0.982333 0.154805 0)
(1.14019 0.202383 -4.5436e-22)
(1.23895 0.228456 3.94055e-23)
(1.28986 0.235101 0)
(1.30744 0.227186 0)
(1.30473 0.210542 0)
(1.29218 0.189313 0)
(0.192411 0.00263269 2.82379e-22)
(0.515825 0.0443234 1.33265e-22)
(0.792933 0.118221 3.68129e-22)
(1.00857 0.181615 0)
(1.15844 0.228037 0)
(1.24815 0.250703 -1.61386e-23)
(1.29123 0.253205 6.15018e-23)
(1.30328 0.241527 6.65188e-23)
(1.29741 0.221801 5.68978e-23)
(1.28344 0.19879 -9.19503e-24)
(0.205456 0.0100844 -4.94721e-24)
(0.540954 0.0631655 -1.24463e-22)
(0.820268 0.143735 5.8839e-24)
(1.03129 0.209107 7.71684e-24)
(1.17288 0.253669 -1.19715e-23)
(1.25385 0.272454 4.61891e-24)
(1.28978 0.270613 -5.32957e-23)
(1.29707 0.255169 -6.20231e-23)
(1.28872 0.232468 -4.34571e-23)
(1.27382 0.207763 1.30977e-24)
(0.218058 0.0184655 0)
(0.56441 0.0835059 -1.20862e-22)
(0.844746 0.170374 -4.59072e-24)
(1.05039 0.23703 8.68282e-24)
(1.18358 0.279068 1.66271e-37)
(1.25622 0.293567 -1.16575e-37)
(1.28573 0.287249 -4.77325e-23)
(1.28904 0.268081 -5.36951e-23)
(1.27884 0.242529 -3.91775e-23)
(1.26342 0.216225 0)
(0.230073 0.0277353 3.39142e-22)
(0.585941 0.105186 9.88126e-23)
(0.866161 0.197897 3.60519e-22)
(1.0658 0.265132 -1.68919e-23)
(1.19061 0.304031 0)
(1.25544 0.313913 1.38196e-23)
(1.27928 0.303048 3.1104e-23)
(1.27934 0.280234 5.79195e-23)
(1.26788 0.251969 3.07748e-23)
(1.25233 0.224166 7.07933e-24)
(0.24136 0.0378368 -3.02007e-22)
(0.605318 0.128024 0)
(0.884347 0.226048 -3.40334e-22)
(1.07748 0.293159 0)
(1.19407 0.328366 -3.81947e-23)
(1.25171 0.333373 3.20345e-23)
(1.27065 0.317947 0)
(1.26816 0.291599 0)
(1.25596 0.260767 0)
(1.24061 0.231568 0)
(0.251784 0.0486974 5.68176e-22)
(0.622335 0.151814 -3.68971e-22)
(0.899172 0.254561 -8.02047e-23)
(1.08545 0.320863 -3.62687e-22)
(1.19411 0.35189 -3.50395e-22)
(1.24522 0.351839 2.39e-23)
(1.26002 0.331891 -2.00714e-23)
(1.25564 0.302149 1.52389e-22)
(1.24317 0.2689 4.119e-24)
(1.22832 0.238406 8.77182e-23)
(0.261216 0.0602292 -5.68176e-22)
(0.636811 0.176332 -4.36714e-22)
(0.910545 0.283162 1.12632e-22)
(1.08974 0.347999 4.36311e-22)
(1.19086 0.374432 -2.02347e-23)
(1.23615 0.36921 3.73578e-22)
(1.24757 0.344827 0)
(1.24192 0.311853 -1.72833e-22)
(1.22963 0.276352 -2.22656e-23)
(1.21546 0.244645 -1.04865e-22)
(0.269536 0.07233 1.2975e-22)
(0.648595 0.201337 7.54732e-22)
(0.918414 0.311576 -5.04558e-22)
(1.09044 0.374333 -1.02939e-22)
(1.18449 0.395832 -2.61699e-22)
(1.2247 0.385392 5.38744e-23)
(1.23347 0.356706 -3.30459e-23)
(1.2271 0.320678 1.59789e-22)
(1.21544 0.283117 -2.58128e-23)
(1.2021 0.250265 5.52938e-23)
(0.276636 0.0848846 6.33639e-23)
(0.65757 0.226576 0)
(0.922763 0.339526 3.57578e-23)
(1.08764 0.399637 0)
(1.17519 0.415938 5.24357e-22)
(1.21106 0.400302 -3.36782e-22)
(1.21786 0.367481 0)
(1.21131 0.328574 -2.3e-23)
(1.20064 0.289164 0)
(1.18834 0.255233 0)
(0.282422 0.0977659 -9.20895e-22)
(0.663647 0.251788 -8.32533e-23)
(0.92361 0.366738 6.06139e-22)
(1.08148 0.423694 7.77919e-23)
(1.16313 0.434613 -5.3793e-22)
(1.19541 0.413861 -1.86037e-22)
(1.2009 0.377114 -2.5201e-23)
(1.19465 0.335522 7.85001e-23)
(1.18524 0.294436 -1.65737e-23)
(1.17426 0.259545 4.52246e-24)
(0.286814 0.110837 1.02588e-21)
(0.666773 0.276703 -6.44439e-22)
(0.92101 0.392944 -1.72074e-22)
(1.07209 0.4463 8.99698e-23)
(1.14851 0.451729 4.23486e-22)
(1.17794 0.425996 2.82419e-22)
(1.18275 0.385555 -2.10277e-23)
(1.17725 0.341503 -3.4684e-23)
(1.16931 0.298909 -1.72116e-23)
(1.15985 0.263159 4.59566e-24)
(0.28975 0.123953 7.77303e-22)
(0.666927 0.30105 6.33506e-22)
(0.91505 0.417887 -7.21853e-22)
(1.05966 0.467264 -8.09254e-23)
(1.13152 0.46717 0)
(1.15882 0.436641 0)
(1.16353 0.392761 0)
(1.15917 0.346485 -1.82795e-22)
(1.15294 0.30256 -1.03142e-23)
(1.14516 0.266039 -2.75267e-23)
(0.291184 0.136963 -1.47434e-21)
(0.664122 0.324561 0)
(0.905849 0.441317 1.5399e-21)
(1.04436 0.486408 4.46788e-22)
(1.11237 0.480827 0)
(1.13823 0.445738 0)
(1.14337 0.398695 -1.00993e-22)
(1.14049 0.350435 6.64862e-23)
(1.13617 0.305361 1.03143e-23)
(1.13022 0.268155 2.75256e-23)
(0.291091 0.149714 7.74752e-22)
(0.658403 0.346968 -6.52453e-23)
(0.893557 0.463003 -7.21346e-22)
(1.0264 0.503565 -4.89281e-22)
(1.09127 0.492605 3.55944e-23)
(1.11635 0.453232 1.58751e-22)
(1.1224 0.403323 6.95278e-23)
(1.1213 0.353325 -3.21037e-23)
(1.11906 0.307287 -7.00735e-23)
(1.11507 0.269473 8.56545e-23)
(0.289463 0.162048 -3.55907e-24)
(0.649853 0.368016 8.22618e-22)
(0.878347 0.482727 -8.03738e-23)
(1.00597 0.518587 2.50363e-22)
(1.06841 0.502416 1.24771e-22)
(1.09334 0.459076 -6.39236e-23)
(1.10073 0.406614 2.08914e-23)
(1.10169 0.355129 3.99452e-23)
(1.10165 0.308312 -9.21749e-23)
(1.09976 0.269965 -6.42251e-23)
(0.286315 0.173812 0)
(0.63859 0.387461 -7.0376e-22)
(0.860375 0.50027 -6.63188e-23)
(0.983327 0.53135 -8.61467e-23)
(1.04402 0.510184 -1.26201e-22)
(1.06936 0.463227 -6.7818e-23)
(1.0785 0.40854 -1.20373e-22)
(1.08173 0.355824 0)
(1.084 0.308416 0)
(1.08431 0.2696 0)
(0.281675 0.184849 4.71416e-23)
(0.624749 0.405083 -4.98467e-22)
(0.839842 0.515438 0)
(0.958711 0.541734 -1.0067e-22)
(1.0183 0.515852 1.01194e-23)
(1.04459 0.465651 0)
(1.05582 0.409078 1.10931e-22)
(1.06151 0.355393 1.94665e-22)
(1.06616 0.307581 -4.41107e-23)
(1.06876 0.268348 3.71392e-23)
(0.275569 0.194989 -3.31087e-23)
(0.608498 0.42067 5.26264e-22)
(0.81701 0.528083 0)
(0.932354 0.549629 -1.09707e-22)
(0.991464 0.519366 1.19743e-24)
(1.01918 0.46632 2.30779e-22)
(1.03281 0.408208 3.00236e-23)
(1.04111 0.35382 -2.19914e-22)
(1.04817 0.305794 0)
(1.05316 0.266175 -4.04961e-22)
(0.268085 0.204088 -2.14304e-22)
(0.590007 0.433999 -1.74699e-23)
(0.79213 0.538068 -4.5453e-24)
(0.904496 0.554953 3.80371e-24)
(0.963708 0.520688 2.82937e-22)
(0.993285 0.465212 -2.30781e-22)
(1.00958 0.405915 -3.2881e-22)
(1.02063 0.351097 -3.01414e-22)
(1.03008 0.303044 -5.29884e-22)
(1.03751 0.263047 3.53688e-22)
(0.25933 0.212038 2.35114e-22)
(0.56947 0.444889 0)
(0.765456 0.545258 -9.93123e-23)
(0.875387 0.557638 8.54613e-24)
(0.935244 0.519785 -7.03047e-22)
(0.967073 0.462313 0)
(0.986262 0.40219 3.28813e-22)
(1.00015 0.347218 -5.31448e-23)
(1.01194 0.299318 6.01819e-22)
(1.0219 0.25892 -6.05545e-23)
(0.249392 0.218712 0)
(0.547124 0.453193 -1.30441e-22)
(0.737255 0.54955 8.91004e-23)
(0.845278 0.557635 0)
(0.906276 0.516641 4.20111e-22)
(0.940694 0.457615 0)
(0.962965 0.397029 -4.73532e-22)
(0.97975 0.342185 3.54563e-22)
(0.993821 0.294609 6.8772e-22)
(1.00645 0.253744 5.68326e-22)
(0.238381 0.223996 3.56285e-23)
(0.523218 0.458781 1.0053e-22)
(0.707803 0.550863 0)
(0.814421 0.55491 0)
(0.877007 0.511246 0)
(0.914301 0.45112 7.40151e-23)
(0.939805 0.390436 3.47335e-22)
(0.959528 0.336007 5.38535e-23)
(0.975869 0.288947 -6.87724e-22)
(0.99128 0.247648 -6.39532e-22)
(0.226427 0.227791 0)
(0.49801 0.461545 4.59893e-22)
(0.67738 0.549139 0)
(0.783068 0.549448 0)
(0.847635 0.503606 0)
(0.888043 0.442836 -8.54629e-23)
(0.916894 0.382417 7.59185e-22)
(0.939592 0.328689 -1.81025e-22)
(0.958374 0.282422 -6.39074e-22)
(0.9764 0.240674 -6.66347e-22)
(0.213671 0.230017 0)
(0.471767 0.461403 -4.59894e-22)
(0.64627 0.544343 5.98017e-22)
(0.751468 0.54125 0)
(0.818355 0.493736 9.62436e-22)
(0.862065 0.432778 0)
(0.894342 0.372982 -6.15072e-22)
(0.920066 0.320204 5.60551e-22)
(0.941494 0.27501 8.38071e-22)
(0.962147 0.234362 6.67899e-22)
(0.200261 0.230607 -1.09672e-21)
(0.444765 0.458297 0)
(0.61476 0.536463 -5.13073e-22)
(0.719869 0.530335 -7.10881e-23)
(0.789358 0.481663 -2.05551e-21)
(0.836511 0.420971 0)
(0.872252 0.362149 7.51007e-22)
(0.901007 0.310569 4.85668e-23)
(0.925051 0.266592 8.66514e-22)
(0.947839 0.227437 8.49599e-25)
(0.186357 0.229512 1.16716e-21)
(0.417284 0.452199 -5.9133e-23)
(0.583132 0.525511 -9.94874e-23)
(0.688511 0.516737 -8.32563e-23)
(0.76083 0.467427 1.09307e-21)
(0.811518 0.407448 -1.00529e-21)
(0.85073 0.349943 -7.51012e-22)
(0.882493 0.299812 -6.09125e-22)
(0.909109 0.257216 -9.81408e-22)
(0.933847 0.21966 9.2718e-22)
(0.172122 0.226702 -8.32397e-23)
(0.389608 0.443105 -1.03834e-21)
(0.551668 0.511522 0)
(0.657629 0.500507 7.10248e-22)
(0.73295 0.451077 8.00603e-23)
(0.787222 0.39225 1.00529e-21)
(0.829879 0.336394 -1.0363e-22)
(0.864607 0.287956 -6.14202e-22)
(0.893742 0.246924 0)
(0.920328 0.211047 -8.2554e-22)
(0.157724 0.222162 1.02322e-22)
(0.362018 0.431038 1.10822e-21)
(0.520644 0.49455 0)
(0.627453 0.481713 -2.22341e-23)
(0.705893 0.432675 8.83262e-23)
(0.763753 0.375425 0)
(0.809801 0.321539 9.39211e-22)
(0.847427 0.27503 7.01349e-22)
(0.879011 0.235738 1.38639e-22)
(0.907367 0.201637 -1.1677e-22)
(0.143333 0.215897 0)
(0.334794 0.416048 1.57887e-21)
(0.490328 0.474675 -1.41051e-22)
(0.598203 0.460438 7.97468e-23)
(0.679826 0.412293 7.88006e-22)
(0.741237 0.357032 1.40637e-21)
(0.790591 0.305422 -1.06391e-21)
(0.831027 0.261065 0)
(0.864974 0.223685 0)
(0.895031 0.191453 0)
(0.129116 0.207932 -8.05658e-24)
(0.308208 0.39821 -1.32454e-21)
(0.46098 0.451996 1.55519e-22)
(0.57009 0.436779 -1.09274e-21)
(0.654908 0.390015 -6.84165e-22)
(0.719793 0.337137 2.33831e-22)
(0.772341 0.288095 -1.05913e-21)
(0.81548 0.246103 7.20314e-22)
(0.851689 0.210796 7.99058e-22)
(0.883378 0.180523 -6.32688e-22)
(0.115242 0.198305 -1.02813e-21)
(0.282524 0.377623 -1.09596e-22)
(0.432849 0.426631 1.40121e-21)
(0.543315 0.410851 1.11612e-21)
(0.63129 0.365934 0)
(0.699534 0.315813 -1.33414e-21)
(0.755137 0.269616 -5.09679e-23)
(0.800853 0.230191 -9.26643e-22)
(0.839207 0.197111 -5.60532e-22)
(0.872456 0.16888 5.04063e-22)
(0.101871 0.187078 2.40315e-21)
(0.257998 0.35441 0)
(0.406169 0.398719 -2.89657e-21)
(0.518067 0.382778 -9.75582e-22)
(0.609113 0.340154 -1.17733e-22)
(0.680567 0.293142 0)
(0.739063 0.250049 1.10193e-21)
(0.787209 0.213381 -8.95036e-22)
(0.827579 0.182671 -6.96989e-22)
(0.862305 0.156566 5.41753e-22)
(0.089161 0.174324 -1.24447e-21)
(0.23487 0.32872 -9.64735e-22)
(0.381165 0.368416 1.68272e-21)
(0.494523 0.352701 -1.56792e-22)
(0.588512 0.312789 0)
(0.662991 0.269215 0)
(0.724194 0.229467 0)
(0.774607 0.195731 1.82118e-21)
(0.816851 0.167524 6.96991e-22)
(0.852962 0.143627 -5.41753e-22)
(0.0772591 0.160137 -1.2371e-21)
(0.213365 0.300718 9.53469e-22)
(0.358041 0.335897 1.0271e-22)
(0.472847 0.320772 0)
(0.569608 0.28396 -1.02293e-21)
(0.6469 0.244126 -7.00585e-22)
(0.710602 0.207945 -7.9125e-23)
(0.763102 0.177306 1.41484e-22)
(0.807066 0.151725 -1.83213e-22)
(0.84446 0.130111 7.39895e-23)
(0.0663042 0.144622 1.39681e-21)
(0.193694 0.270592 -1.28838e-22)
(0.336989 0.301351 -1.07723e-21)
(0.453189 0.287153 2.47071e-22)
(0.552513 0.253797 7.62488e-22)
(0.632377 0.21798 9.97429e-22)
(0.69835 0.185567 -8.16985e-23)
(0.752744 0.158172 -4.6458e-22)
(0.798264 0.135329 0)
(0.836828 0.116071 7.03528e-23)
(0.0564235 0.127902 9.33205e-23)
(0.176047 0.238548 0)
(0.31818 0.264981 -3.13784e-23)
(0.435685 0.252019 0)
(0.537329 0.22244 -1.08953e-21)
(0.619498 0.190886 8.41647e-22)
(0.687498 0.162421 0)
(0.743578 0.138403 1.10468e-23)
(0.790481 0.118399 0)
(0.830091 0.101563 0)
(0.0477316 0.110109 1.87394e-22)
(0.160594 0.204808 -1.22115e-21)
(0.301767 0.227003 1.00813e-21)
(0.420454 0.215552 -1.77772e-22)
(0.524145 0.190032 4.7037e-22)
(0.608331 0.162959 1.30084e-22)
(0.678098 0.138601 0)
(0.735646 0.118076 -3.79323e-22)
(0.783748 0.100998 -1.0232e-22)
(0.824273 0.0866439 -3.04233e-22)
(0.0403291 0.0913892 8.05278e-22)
(0.147484 0.169606 -1.80394e-21)
(0.287882 0.187646 1.72695e-22)
(0.4076 0.177943 -7.39109e-22)
(0.513037 0.156726 -8.43762e-23)
(0.598934 0.134318 -8.60364e-22)
(0.670194 0.114202 0)
(0.72898 0.0972704 5.18061e-22)
(0.778094 0.0831932 -9.53147e-23)
(0.819394 0.0713743 6.92854e-22)
(0.0343018 0.0718971 -8.05279e-22)
(0.136842 0.133193 6.60537e-22)
(0.276639 0.147147 -1.1868e-22)
(0.397211 0.13939 8.69604e-22)
(0.504073 0.122676 4.94341e-22)
(0.591357 0.105088 5.29631e-23)
(0.663825 0.089325 -4.44788e-23)
(0.723612 0.0760694 -5.80634e-22)
(0.773542 0.0650554 4.44182e-24)
(0.815469 0.0558156 -2.30381e-22)
(0.0297194 0.0517958 4.16487e-22)
(0.12877 0.0958257 0)
(0.268126 0.105751 4.88557e-22)
(0.389357 0.100097 0)
(0.497303 0.0880449 6.97859e-23)
(0.585639 0.0753954 -5.85312e-23)
(0.659021 0.0640732 0)
(0.719565 0.0545583 0)
(0.770111 0.0466561 0)
(0.812514 0.0400307 0)
(0.0266347 0.0312547 -3.65745e-22)
(0.123346 0.0577718 -1.32624e-22)
(0.262413 0.0637097 -4.88558e-22)
(0.384091 0.0602721 0)
(0.492767 0.0529949 0)
(0.581811 0.0453706 2.6984e-23)
(0.655806 0.0385521 -1.09166e-22)
(0.716857 0.0328245 -1.32788e-22)
(0.767815 0.0280691 -1.26671e-22)
(0.810538 0.0240836 2.06272e-23)
(0.0250834 0.0104479 -6.58042e-24)
(0.120621 0.0193034 1.43824e-22)
(0.259545 0.0212799 -6.96396e-24)
(0.38145 0.0201264 2.38807e-23)
(0.490493 0.017693 -9.59766e-24)
(0.579891 0.0151458 0)
(0.654194 0.0128688 8.65045e-23)
(0.7155 0.0109564 1.32788e-22)
(0.766665 0.00936897 9.60383e-23)
(0.809548 0.00803873 1.46546e-23)
(0.0250834 -0.0104479 -6.58042e-24)
(0.120621 -0.0193034 1.43824e-22)
(0.259545 -0.0212799 -6.96396e-24)
(0.38145 -0.0201264 2.38807e-23)
(0.490493 -0.017693 -9.59766e-24)
(0.579891 -0.0151458 0)
(0.654194 -0.0128688 7.61192e-23)
(0.7155 -0.0109564 1.41521e-22)
(0.766665 -0.00936897 1.0218e-22)
(0.809548 -0.00803873 0)
(0.0266347 -0.0312547 -4.67229e-22)
(0.123346 -0.0577718 -1.73874e-22)
(0.262413 -0.0637098 -5.18103e-22)
(0.384091 -0.0602721 2.47256e-23)
(0.492767 -0.0529949 0)
(0.581811 -0.0453706 -2.6984e-23)
(0.655806 -0.0385521 -6.38432e-23)
(0.716857 -0.0328245 -1.32788e-22)
(0.767815 -0.0280691 -7.76884e-23)
(0.810538 -0.0240836 -2.06272e-23)
(0.0297194 -0.0517958 4.16487e-22)
(0.12877 -0.0958257 0)
(0.268126 -0.105751 4.88557e-22)
(0.389357 -0.100097 0)
(0.497303 -0.0880449 6.97859e-23)
(0.585639 -0.0753954 -5.85312e-23)
(0.659021 -0.0640732 0)
(0.719565 -0.0545583 0)
(0.770111 -0.0466561 0)
(0.812514 -0.0400307 0)
(0.0343018 -0.0718971 -8.05279e-22)
(0.136842 -0.133193 5.14564e-22)
(0.276639 -0.147147 1.1868e-22)
(0.397211 -0.13939 5.94703e-22)
(0.504073 -0.122676 6.43809e-22)
(0.591357 -0.105088 -5.29631e-23)
(0.663825 -0.089325 4.44788e-23)
(0.723612 -0.0760694 -4.55489e-22)
(0.773542 -0.0650554 -4.44182e-24)
(0.815469 -0.0558156 -3.86307e-22)
(0.0403291 -0.0913892 8.05278e-22)
(0.147484 -0.169606 6.28841e-22)
(0.287882 -0.187646 -1.72695e-22)
(0.4076 -0.177943 -7.25197e-22)
(0.513037 -0.156726 6.23886e-23)
(0.598934 -0.134318 -8.60364e-22)
(0.670194 -0.114202 0)
(0.72898 -0.0972704 5.18061e-22)
(0.778094 -0.0831932 9.53147e-23)
(0.819394 -0.0713743 5.323e-22)
(0.0477316 -0.110109 -1.87394e-22)
(0.160594 -0.204808 1.22115e-21)
(0.301767 -0.227003 7.87845e-22)
(0.420454 -0.215552 1.77772e-22)
(0.524145 -0.190032 5.92528e-22)
(0.608331 -0.162959 -1.95009e-22)
(0.678098 -0.138601 8.59553e-23)
(0.735646 -0.118076 -6.22365e-22)
(0.783748 -0.100998 1.0232e-22)
(0.824273 -0.0866439 -3.04233e-22)
(0.0564235 -0.127902 -9.33205e-23)
(0.176047 -0.238548 0)
(0.31818 -0.264981 -3.13784e-23)
(0.435685 -0.252019 0)
(0.537329 -0.22244 -1.08953e-21)
(0.619498 -0.190886 8.41647e-22)
(0.687498 -0.162421 0)
(0.743578 -0.138403 1.10468e-23)
(0.790481 -0.118399 0)
(0.830091 -0.101563 0)
(0.0663042 -0.144622 1.39681e-21)
(0.193694 -0.270592 1.28838e-22)
(0.336989 -0.301351 -7.58861e-22)
(0.453189 -0.287153 -1.60974e-22)
(0.552513 -0.253797 1.28338e-21)
(0.632377 -0.21798 5.92181e-22)
(0.69835 -0.185567 8.16985e-23)
(0.752744 -0.158172 -5.80954e-22)
(0.798264 -0.135329 9.79874e-23)
(0.836828 -0.116071 -7.03528e-23)
(0.0772591 -0.160137 -1.55652e-21)
(0.213365 -0.300718 9.76004e-22)
(0.358041 -0.335897 9.4311e-23)
(0.472847 -0.320772 -1.64878e-22)
(0.569608 -0.28396 -1.02293e-21)
(0.6469 -0.244126 -8.89021e-22)
(0.710602 -0.207945 7.9125e-23)
(0.763102 -0.177306 -8.50355e-23)
(0.807066 -0.151725 1.83213e-22)
(0.84446 -0.130111 -7.39895e-23)
(0.089161 -0.174324 -1.24447e-21)
(0.23487 -0.32872 -9.64735e-22)
(0.381165 -0.368416 1.308e-21)
(0.494523 -0.352701 1.56792e-22)
(0.588512 -0.312789 0)
(0.662991 -0.269215 0)
(0.724194 -0.229467 0)
(0.774607 -0.195731 1.82118e-21)
(0.816851 -0.167524 6.96991e-22)
(0.852962 -0.143627 -5.41753e-22)
(0.101871 -0.187078 2.40315e-21)
(0.257998 -0.35441 0)
(0.406169 -0.398719 -2.89657e-21)
(0.518067 -0.382778 -1.11612e-21)
(0.609113 -0.340154 0)
(0.680567 -0.293142 0)
(0.739063 -0.250049 1.10193e-21)
(0.787209 -0.213381 -8.95036e-22)
(0.827579 -0.182671 -6.96989e-22)
(0.862305 -0.156566 5.41753e-22)
(0.115242 -0.198305 -1.28922e-21)
(0.282524 -0.377623 1.09596e-22)
(0.432849 -0.426631 1.40121e-21)
(0.543315 -0.410851 1.24864e-21)
(0.63129 -0.365934 -1.11013e-22)
(0.699534 -0.315813 -1.33414e-21)
(0.755137 -0.269616 -5.09679e-23)
(0.800853 -0.230191 -7.22812e-22)
(0.839207 -0.197111 -7.32158e-22)
(0.872456 -0.16888 5.04063e-22)
(0.129116 -0.207932 8.05658e-24)
(0.308208 -0.39821 -1.49587e-21)
(0.46098 -0.451996 -1.55519e-22)
(0.57009 -0.436779 -8.44818e-22)
(0.654908 -0.390015 -6.92934e-22)
(0.719793 -0.337137 -2.48193e-22)
(0.772341 -0.288095 -1.04277e-21)
(0.81548 -0.246103 9.29134e-22)
(0.851689 -0.210796 4.93627e-22)
(0.883378 -0.180523 -3.7544e-22)
(0.143333 -0.215897 0)
(0.334794 -0.416048 1.24154e-21)
(0.490328 -0.474675 1.41051e-22)
(0.598203 -0.460438 7.97468e-23)
(0.679826 -0.412293 7.88006e-22)
(0.741237 -0.357032 1.1094e-21)
(0.790591 -0.305422 -9.32176e-22)
(0.831027 -0.261065 9.89406e-23)
(0.864974 -0.223685 0)
(0.895031 -0.191453 0)