/*--------------------------------*- C++ -*----------------------------------*\
  =========                 |
  \\      /  F ield         | OpenFOAM: The Open Source CFD Toolbox
   \\    /   O peration     | Website:  https://openfoam.org
    \\  /    A nd           | Version:  9
     \\/     M anipulation  |
\*---------------------------------------------------------------------------*/
FoamFile
{
    format      ascii;
    class       surfaceScalarField;
    location    "39.4";
    object      phi;
}
// * * * * * * * * * * * * * * * * * * * * * * * * * * * * * * * * * * * * * //

dimensions      [0 3 -1 0 0 0 0];

internalField   nonuniform List<scalar> 
16735
(
-0.00299088
0.00299093
-4.72541e-08
-0.00898192
0.00599117
-1.33443e-07
-0.0168522
0.00787048
-2.15313e-07
-0.0258773
0.00902538
-2.95606e-07
-0.0359495
0.0100726
-3.97354e-07
-0.0464902
0.0105412
-5.23567e-07
-0.0585914
0.0121019
-6.98779e-07
-0.0695642
0.0109736
-8.91835e-07
-0.0843263
0.0147633
-1.12026e-06
0.0111254
-1.34724e-06
-0.0954504
-0.00293959
0.00593052
-0.00883511
0.0118867
-0.0165687
0.0156041
-0.0254071
0.0178638
-0.0352294
0.0198949
-0.0454254
0.0207372
-0.0570813
0.0237579
-0.0674089
0.0213011
-0.0814543
0.0288087
0.0209933
-0.0913222
-0.00283922
0.00876974
-0.00854658
0.017594
-0.0160099
0.0230674
-0.0244782
0.026332
-0.0338018
0.0292186
-0.0433145
0.0302499
-0.0540711
0.0345146
-0.0631199
0.0303499
-0.0757441
0.041433
0.0283993
-0.0831502
-0.00269406
0.0114638
-0.00812629
0.0230263
-0.0151917
0.0301329
-0.0231127
0.034253
-0.0316914
0.0377972
-0.0401942
0.0387527
-0.049579
0.0438993
-0.0567316
0.0375025
-0.067241
0.0519424
0.0322304
-0.071072
-0.00251033
0.0139741
-0.00758871
0.0281047
-0.0141375
0.0366816
-0.0213433
0.0414588
-0.0289346
0.0453885
-0.0361181
0.0459362
-0.043629
0.0514102
-0.0482784
0.0421519
-0.0559569
0.0596209
0.031493
-0.0552196
-0.00229589
0.01627
-0.00695215
0.0327609
-0.0128752
0.0426047
-0.0192111
0.0477947
-0.0255778
0.0517552
-0.0311542
0.0515126
-0.0362483
0.0565043
-0.0377882
0.0436918
-0.0418039
0.0636366
0.025307
-0.0356179
-0.0020599
0.0183299
-0.00623801
0.036939
-0.0114383
0.0478049
-0.0167634
0.0531198
-0.0216742
0.056666
-0.0253806
0.0552191
-0.0274634
0.0585871
-0.0252952
0.0415237
-0.0245133
0.0628547
0.0129024
-0.0121086
-0.00181238
0.0201423
-0.00546968
0.0405963
-0.00986337
0.0521986
-0.0140503
0.0573068
-0.0172781
0.0598937
-0.0188754
0.0568164
-0.017285
0.0569967
-0.0108974
0.0351361
-0.00346629
0.0554236
-0.00704682
0.0164829
-0.00156369
0.021706
-0.00467125
0.0437039
-0.00818801
0.0557154
-0.0111195
0.0602382
-0.0124356
0.0612099
-0.0116979
0.0560788
-0.00563849
0.0509373
0.00550882
0.0239888
0.0206594
0.040273
-0.0376245
0.0512371
-0.00132392
0.0230299
-0.00386592
0.0462459
-0.00644755
0.058297
-0.00800985
0.0618005
-0.00716969
0.0603697
-0.00388338
0.0527924
0.00720137
0.0398525
0.0243578
0.00683229
0.0491131
0.0155177
-0.0812862
0.0927748
-0.00110226
0.0241322
-0.00307415
0.0482178
-0.00467188
0.0598947
-0.00474622
0.0618749
-0.00143441
0.0570579
0.00490483
0.0464532
0.0214863
0.023271
0.0451264
-0.0168078
0.082129
-0.0214848
-0.14059
0.141433
-0.00090624
0.0250384
-0.00231152
0.049623
-0.0028806
0.0604638
-0.00134299
0.0603372
0.00459809
0.0511168
0.0148782
0.0361731
0.0378372
0.000312053
0.0686925
-0.0476632
0.119956
-0.0727486
-0.216737
0.196104
-0.000741132
0.0257796
-0.00158661
0.0504685
-0.00107377
0.059951
0.00230426
0.0569592
0.0112032
0.0422179
0.0262465
0.0211298
0.0565843
-0.0300258
0.0964117
-0.0874906
0.162924
-0.139261
-0.307748
0.253935
-0.000609406
0.026389
-0.00089928
0.0507584
0.000752021
0.0582997
0.00622066
0.0514906
0.0185771
0.0298615
0.0395681
0.000138803
0.0780859
-0.0685436
0.129349
-0.138754
0.210621
-0.220532
-0.4079
0.310773
-0.000511401
0.0269004
-0.000236909
0.0504839
0.00263503
0.0554277
0.0104945
0.043631
0.0269542
0.0134018
0.0553535
-0.0282605
0.102708
-0.115898
0.167121
-0.203167
0.260583
-0.313994
-0.509453
0.362136
-0.000438019
0.0273384
0.000419271
0.0496266
0.00467332
0.0511737
0.0153203
0.0329841
0.0366741
-0.00795206
0.0739073
-0.0654936
0.130665
-0.172655
0.207629
-0.280131
0.308182
-0.414548
-0.605547
0.404276
-0.000378268
0.0277167
0.00111019
0.0481382
0.00696948
0.0453144
0.0209566
0.0189969
0.0481876
-0.035183
0.0952127
-0.112519
0.161438
-0.23888
0.247672
-0.366366
0.348485
-0.515361
-0.692038
0.434976
-0.000319799
0.0280364
0.00188753
0.0459308
0.00965945
0.0375425
0.0277105
0.000945919
0.0619335
-0.069406
0.118887
-0.169472
0.193304
-0.313298
0.283722
-0.456783
0.378343
-0.609982
-0.767523
0.453829
-0.000245789
0.0282822
0.00281106
0.042874
0.0129033
0.0274503
0.0358896
-0.0220404
0.0781009
-0.111617
0.144025
-0.235396
0.2237
-0.392974
0.312835
-0.545918
0.397043
-0.694191
-0.832543
0.462063
-0.000136003
0.0284182
0.00394719
0.0387908
0.0168774
0.0145201
0.0457325
-0.0508956
0.0963844
-0.162269
0.169097
-0.308108
0.250142
-0.474019
0.333466
-0.629242
0.405646
-0.766371
-0.889186
0.462289
3.10258e-05
0.0283872
0.00536627
0.0334555
0.021762
-0.00187562
0.05731
-0.0864436
0.1159
-0.220859
0.19224
-0.384448
0.270919
-0.552698
0.345585
-0.703908
0.40716
-0.827945
-0.945156
0.463129
0.000248979
0.0281382
0.00714274
0.0265618
0.0277152
-0.0224481
0.0704156
-0.129144
0.135334
-0.285778
0.211833
-0.460946
0.285304
-0.62617
0.350327
-0.76893
0.405197
-0.882816
-0.993716
0.453757
0.000556071
0.0275822
0.0093542
0.0177637
0.0348218
-0.0479156
0.0845078
-0.17883
0.153269
-0.354539
0.226897
-0.534575
0.293476
-0.692748
0.349887
-0.825341
0.397533
-0.930462
-1.03496
0.438777
0.000962593
0.0266196
0.0120779
0.00664837
0.0430261
-0.0788638
0.098766
-0.23457
0.168534
-0.424307
0.237152
-0.603192
0.2963
-0.751897
0.344947
-0.873988
0.386477
-0.971993
-1.07189
0.423406
0.00147992
0.0251397
0.0153806
-0.00725227
0.0520891
-0.115572
0.112255
-0.294735
0.180431
-0.492483
0.242854
-0.665615
0.294665
-0.803708
0.33668
-0.916002
0.373189
-1.0085
-1.10481
0.406113
0.00212199
0.0230177
0.0192923
-0.0244226
0.0616057
-0.157886
0.124127
-0.357256
0.188734
-0.557091
0.244509
-0.721391
0.28952
-0.848718
0.325927
-0.952409
0.358197
-1.04077
-1.13465
0.388033
0.0029103
0.0201074
0.0237752
-0.0452876
0.0710657
-0.205176
0.133786
-0.419976
0.193561
-0.616866
0.242739
-0.770569
0.281661
-0.88764
0.313356
-0.984103
0.342126
-1.06954
-1.16179
0.369271
0.00387767
0.0162297
0.0287105
-0.0701204
0.0799222
-0.256388
0.140945
-0.480999
0.195229
-0.671149
0.238164
-0.813504
0.271755
-0.921232
0.299488
-1.01184
0.325252
-1.09531
-1.18654
0.349993
0.00506428
0.0111654
0.0339135
-0.0989696
0.0876757
-0.31015
0.145578
-0.538901
0.194146
-0.719718
0.231351
-0.850709
0.260327
-0.950208
0.284691
-1.0362
0.307825
-1.11844
-1.20906
0.330352
0.00650141
0.004664
0.0391662
-0.131634
0.0939683
-0.364952
0.147825
-0.592758
0.190744
-0.762636
0.222789
-0.882755
0.247784
-0.975203
0.269238
-1.05765
0.289992
-1.13919
-1.22947
0.310395
0.00818884
-0.00352484
0.0442461
-0.167692
0.0986234
-0.41933
0.147915
-0.64205
0.185433
-0.800154
0.212886
-0.910208
0.234434
-0.99675
0.253318
-1.07654
0.271859
-1.15774
-1.2478
0.290196
0.0100823
-0.0136071
0.0489366
-0.206546
0.101614
-0.472007
0.146112
-0.686548
0.178583
-0.832625
0.201972
-0.933597
0.220507
-1.01528
0.237068
-1.0931
0.253501
-1.17417
-1.26409
0.269792
0.0121013
-0.0257084
0.0530349
-0.24748
0.103011
-0.521983
0.142685
-0.726223
0.170515
-0.860454
0.190308
-0.953391
0.206173
-1.03115
0.220585
-1.10751
0.234972
-1.18856
-1.27834
0.249223
0.0141507
-0.0398591
0.0563695
-0.289698
0.102938
-0.568552
0.137892
-0.761177
0.161498
-0.88406
0.178101
-0.969993
0.191558
-1.04461
0.203938
-1.11989
0.216317
-1.20093
-1.29055
0.228523
0.016143
-0.0560021
0.0588221
-0.332378
0.10155
-0.61128
0.13197
-0.791597
0.151753
-0.903843
0.165507
-0.983747
0.176756
-1.05586
0.187178
-1.13031
0.197572
-1.21133
-1.30071
0.207727
0.018007
-0.074009
0.0603373
-0.374708
0.0990103
-0.649953
0.125133
-0.81772
0.141462
-0.920171
0.152651
-0.994937
0.161835
-1.06504
0.170349
-1.13883
0.178769
-1.21975
-1.30881
0.186868
0.0196844
-0.0936934
0.0609151
-0.415939
0.0954798
-0.684518
0.11757
-0.83981
0.130773
-0.933374
0.139624
-1.00379
0.14685
-1.07226
0.153486
-1.14546
0.159937
-1.2262
-1.31484
0.165976
0.0211222
-0.114816
0.0605954
-0.455412
0.0911114
-0.715034
0.109443
-0.858141
0.119807
-0.943738
0.126501
-1.01048
0.131843
-1.07761
0.136621
-1.15024
0.141108
-1.23069
-1.31882
0.145087
0.0222703
-0.137086
0.0594362
-0.492578
0.0860435
-0.741641
0.100892
-0.87299
0.108662
-0.951508
0.113337
-1.01516
0.116848
-1.08112
0.11978
-1.15317
0.122308
-1.23321
-1.32075
0.124234
0.0230854
-0.160171
0.0575237
-0.527016
0.0804023
-0.764519
0.0920345
-0.884622
0.0974168
-0.95689
0.100178
-1.01792
0.101896
-1.08284
0.10299
-1.15427
0.103567
-1.23379
-1.32064
0.10346
0.0235387
-0.18371
0.0550374
-0.558515
0.0743062
-0.783788
0.0829646
-0.893281
0.0861326
-0.960058
0.0870602
-1.01885
0.0870108
-1.08279
0.0862728
-1.15353
0.0849127
-1.23243
-1.31855
0.082817
0.0236185
-0.207328
0.0520429
-0.586939
0.0678597
-0.799605
0.0737619
-0.899183
0.0748592
-0.961155
0.0740142
-1.018
0.0722172
-1.08099
0.0696522
-1.15097
0.0663671
-1.22915
-1.31445
0.062271
0.0233301
-0.230659
0.048612
-0.612221
0.0611532
-0.812146
0.0644928
-0.902523
0.0636364
-0.960299
0.0610655
-1.01543
0.0575368
-1.07746
0.0531539
-1.14658
0.0479475
-1.22394
-1.30834
0.0418392
0.0226946
-0.253353
0.0448185
-0.634345
0.0542664
-0.821594
0.0552119
-0.903468
0.0524964
-0.957584
0.0482365
-1.01117
0.0429895
-1.07221
0.0368038
-1.1404
0.0296984
-1.21683
-1.30019
0.0215471
0.0217455
-0.275099
0.0407326
-0.653332
0.0472506
-0.828112
0.0459627
-0.90218
0.041466
-0.953087
0.0355474
-1.00525
0.0285941
-1.06526
0.0206157
-1.13242
0.0116836
-1.2079
-1.28984
0.00133626
0.0205233
-0.295622
0.0364202
-0.669229
0.040163
-0.831855
0.0367818
-0.898799
0.0305681
-0.946873
0.0230156
-0.997698
0.0143687
-1.05661
0.00456665
-1.12262
-0.00608454
-1.19725
-1.27751
-0.0184145
0.0190716
-0.314694
0.0319415
-0.682099
0.0330567
-0.83297
0.0277001
-0.893442
0.0198208
-0.938994
0.0106509
-0.988528
0.000297786
-1.04626
-0.0111431
-1.11118
-0.0237349
-1.18466
-1.26336
-0.0378917
0.0174329
-0.332127
0.027351
-0.692017
0.0259754
-0.831595
0.0187439
-0.886211
0.00923063
-0.929481
-0.00154371
-0.977754
-0.0134406
-1.03436
-0.026599
-1.09802
-0.0410868
-1.17017
-1.24734
-0.0571018
0.0156473
-0.347774
0.0226971
-0.699067
0.0189553
-0.827853
0.00993387
-0.877189
-0.00121462
-0.918332
-0.0134173
-0.965551
-0.0269784
-1.0208
-0.0418246
-1.08317
-0.0581433
-1.15385
-1.22949
-0.0759981
0.0137513
-0.361525
0.0180221
-0.703338
0.0120241
-0.821855
0.00126183
-0.866427
-0.0112818
-0.905788
-0.0251036
-0.951729
-0.0402686
-1.00564
-0.0567853
-1.06665
-0.0748849
-1.13575
-1.20981
-0.0945616
0.0117784
-0.373304
0.0133632
-0.704922
0.00519283
-0.813684
-0.00712653
-0.854108
-0.0211874
-0.891728
-0.0365562
-0.936361
-0.0532945
-0.988899
-0.0714565
-1.04849
-0.0912963
-1.11591
-1.18834
-0.112763
0.00975883
-0.383062
0.00875549
-0.703919
-0.00151238
-0.803417
-0.0153394
-0.840281
-0.0308755
-0.876192
-0.0477565
-0.91948
-0.0660397
-0.970616
-0.0858168
-1.02872
-0.107359
-1.09437
-1.16512
-0.130583
0.00771761
-0.39078
0.00423901
-0.70044
-0.00790156
-0.791276
-0.0233502
-0.824832
-0.0403289
-0.859213
-0.0586904
-0.901118
-0.078489
-0.950817
-0.0998475
-1.00736
-0.123054
-1.07116
-1.14018
-0.147997
0.00567355
-0.396454
-8.4034e-05
-0.694683
-0.0141603
-0.7772
-0.0311439
-0.807849
-0.0495368
-0.84082
-0.0693453
-0.88131
-0.0906278
-0.929535
-0.113532
-0.984452
-0.138368
-1.04633
-1.11356
-0.164985
0.00364474
-0.400098
-0.00464548
-0.686393
-0.0202572
-0.761588
-0.0387063
-0.789399
-0.0584878
-0.821038
-0.0797095
-0.860088
-0.102442
-0.906802
-0.126857
-0.960037
-0.153282
-1.0199
-1.08532
-0.18152
0.00166757
-0.401766
-0.00894821
-0.675777
-0.0261738
-0.744363
-0.0460279
-0.769545
-0.0671713
-0.799895
-0.0897717
-0.837487
-0.113918
-0.882656
-0.139806
-0.934149
-0.167778
-0.991933
-1.05552
-0.197576
-0.000221302
-0.401545
-0.0130831
-0.662915
-0.0319003
-0.725545
-0.0531044
-0.748341
-0.0755778
-0.777422
-0.099521
-0.813544
-0.125045
-0.857132
-0.152371
-0.906823
-0.18184
-0.962464
-1.02421
-0.213157
-0.00234922
-0.399195
-0.0170667
-0.648198
-0.0374241
-0.705188
-0.0599296
-0.725836
-0.083698
-0.753653
-0.108947
-0.788296
-0.135813
-0.830266
-0.164552
-0.878084
-0.195462
-0.931553
-0.991437
-0.228232
-0.00432852
-0.394867
-0.0208975
-0.631629
-0.0427336
-0.683352
-0.0664978
-0.702071
-0.0915234
-0.728628
-0.118038
-0.761781
-0.146213
-0.802091
-0.176341
-0.847955
-0.208597
-0.899298
-0.957472
-0.242562
-0.00622126
-0.388646
-0.0245726
-0.613277
-0.0478226
-0.660102
-0.0728035
-0.677091
-0.0990459
-0.702385
-0.126787
-0.734039
-0.156236
-0.772643
-0.187695
-0.816496
-0.221255
-0.865737
-0.922708
-0.256019
-0.00803377
-0.380612
-0.0280887
-0.593222
-0.0526866
-0.635504
-0.0788413
-0.650936
-0.106258
-0.674968
-0.135186
-0.705112
-0.165866
-0.741963
-0.198557
-0.783804
-0.232969
-0.831325
-0.88575
-0.269927
-0.00976638
-0.370845
-0.0314427
-0.571546
-0.057322
-0.609625
-0.0846063
-0.623652
-0.113154
-0.64642
-0.143225
-0.675041
-0.175079
-0.710109
-0.208889
-0.749994
-0.244561
-0.795653
-0.847204
-0.283108
-0.0114177
-0.359428
-0.0346314
-0.548332
-0.061726
-0.58253
-0.090094
-0.595284
-0.119727
-0.616787
-0.150896
-0.643872
-0.183877
-0.677128
-0.21883
-0.71504
-0.25588
-0.758604
-0.807321
-0.295762
-0.0129857
-0.346442
-0.0376523
-0.523666
-0.0658961
-0.554286
-0.0953001
-0.56588
-0.12597
-0.586117
-0.158189
-0.611653
-0.192236
-0.64308
-0.228276
-0.679
-0.266547
-0.720333
-0.766174
-0.307694
-0.0144683
-0.331974
-0.0405029
-0.497631
-0.0698301
-0.524959
-0.100221
-0.535489
-0.131878
-0.554459
-0.165096
-0.578436
-0.200161
-0.608015
-0.23726
-0.641901
-0.276687
-0.680906
-0.723881
-0.31898
-0.0158632
-0.31611
-0.043181
-0.470313
-0.073526
-0.494614
-0.104852
-0.504164
-0.137446
-0.521866
-0.171608
-0.544274
-0.207636
-0.571987
-0.245739
-0.603798
-0.286243
-0.640403
-0.680515
-0.329609
-0.0171679
-0.298943
-0.0456848
-0.441796
-0.0769821
-0.463317
-0.10919
-0.471956
-0.142666
-0.488389
-0.177719
-0.509221
-0.214657
-0.53505
-0.25371
-0.564745
-0.295219
-0.598893
-0.636148
-0.339586
-0.0183793
-0.280563
-0.0480128
-0.412163
-0.0801964
-0.431133
-0.113232
-0.43892
-0.147535
-0.454086
-0.183423
-0.473333
-0.221213
-0.497259
-0.261155
-0.524803
-0.3036
-0.556448
-0.590846
-0.348902
-0.0194937
-0.26107
-0.0501634
-0.381493
-0.0831677
-0.398129
-0.116975
-0.405114
-0.152048
-0.419012
-0.188712
-0.43667
-0.227296
-0.458675
-0.268066
-0.484033
-0.311378
-0.513136
-0.544677
-0.357548
-0.0205042
-0.240565
-0.0521346
-0.349863
-0.0858947
-0.364369
-0.120415
-0.370593
-0.156201
-0.383226
-0.193581
-0.399289
-0.232899
-0.419357
-0.274433
-0.442499
-0.318543
-0.469027
-0.497708
-0.365512
-0.0213963
-0.219169
-0.0539255
-0.317334
-0.0883772
-0.329917
-0.123551
-0.335419
-0.159988
-0.346789
-0.198024
-0.361253
-0.238015
-0.379366
-0.280248
-0.400265
-0.325085
-0.42419
-0.450007
-0.372785
-0.0222152
-0.196954
-0.0555381
-0.284011
-0.0906146
-0.294841
-0.12638
-0.299654
-0.163407
-0.309763
-0.202036
-0.322624
-0.242636
-0.338766
-0.285503
-0.357398
-0.330995
-0.378699
-0.401648
-0.379354
-0.0229604
-0.173993
-0.0569733
-0.249998
-0.0926064
-0.259208
-0.1289
-0.26336
-0.166455
-0.272208
-0.205614
-0.283465
-0.246758
-0.297621
-0.290191
-0.313965
-0.336265
-0.332625
-0.352702
-0.385211
-0.0236197
-0.150374
-0.0582307
-0.215387
-0.0943516
-0.223087
-0.131109
-0.226603
-0.169127
-0.23419
-0.208752
-0.24384
-0.250376
-0.255998
-0.294306
-0.270035
-0.340888
-0.286043
-0.303245
-0.390345
-0.0241884
-0.126185
-0.0593095
-0.180266
-0.0958492
-0.186547
-0.133005
-0.189447
-0.171423
-0.195772
-0.211448
-0.203815
-0.253484
-0.213963
-0.29784
-0.225679
-0.344859
-0.239024
-0.253353
-0.394751
-0.0246641
-0.101521
-0.0602093
-0.14472
-0.0970986
-0.149658
-0.134587
-0.151958
-0.173339
-0.15702
-0.213699
-0.163455
-0.256079
-0.171583
-0.30079
-0.180967
-0.348169
-0.191645
-0.203101
-0.39842
-0.0250457
-0.0764756
-0.0609297
-0.108837
-0.0980989
-0.112489
-0.135854
-0.114203
-0.174874
-0.118
-0.215503
-0.122826
-0.258157
-0.128929
-0.303152
-0.135973
-0.350816
-0.143981
-0.152566
-0.401352
-0.0253324
-0.0511432
-0.0614702
-0.0726987
-0.0988496
-0.0751092
-0.136806
-0.0762467
-0.176027
-0.0787785
-0.216857
-0.0819963
-0.259718
-0.0860674
-0.304925
-0.0907659
-0.352801
-0.0961041
-0.101822
-0.403545
-0.0255237
-0.0256194
-0.0618308
-0.0363916
-0.0993503
-0.0375897
-0.13744
-0.0381568
-0.176796
-0.0394229
-0.21776
-0.0410318
-0.260759
-0.0430682
-0.306107
-0.0454182
-0.354124
-0.048087
-0.0509439
-0.405003
-0.0256194
-6.77084e-09
-0.0620111
-1.12028e-08
-0.0996007
-1.18812e-08
-0.137758
-1.20817e-08
-0.17718
-1.24598e-08
-0.218212
-1.28319e-08
-0.26128
-1.32178e-08
-0.306699
-1.35416e-08
-0.354786
-1.37923e-08
-1.39148e-08
-0.405729
-0.0256194
0.0256194
-0.0620111
0.0363916
-0.0996007
0.0375896
-0.137758
0.0381568
-0.17718
0.0394228
-0.218212
0.0410318
-0.26128
0.0430681
-0.306699
0.0454182
-0.354786
0.048087
0.0509439
-0.405729
-0.0255237
0.0511432
-0.0618308
0.0726986
-0.0993503
0.0751092
-0.13744
0.0762467
-0.176796
0.0787784
-0.21776
0.0819963
-0.260759
0.0860674
-0.306107
0.0907659
-0.354124
0.0961041
0.101822
-0.405003
-0.0253324
0.0764756
-0.0614702
0.108836
-0.0988496
0.112489
-0.136806
0.114203
-0.176027
0.118
-0.216857
0.122826
-0.259718
0.128929
-0.304925
0.135973
-0.352801
0.143981
0.152566
-0.403545
-0.0250457
0.101521
-0.0609297
0.14472
-0.0980989
0.149658
-0.135854
0.151958
-0.174874
0.15702
-0.215503
0.163455
-0.258157
0.171583
-0.303152
0.180967
-0.350816
0.191645
0.203101
-0.401352
-0.0246641
0.126185
-0.0602093
0.180266
-0.0970986
0.186547
-0.134587
0.189447
-0.173339
0.195772
-0.213699
0.203815
-0.256079
0.213962
-0.30079
0.225679
-0.348169
0.239024
0.253353
-0.39842
-0.0241884
0.150374
-0.0593095
0.215387
-0.0958492
0.223087
-0.133005
0.226603
-0.171423
0.23419
-0.211448
0.24384
-0.253484
0.255998
-0.29784
0.270035
-0.344859
0.286042
0.303245
-0.394751
-0.0236197
0.173993
-0.0582307
0.249998
-0.0943516
0.259208
-0.131109
0.26336
-0.169127
0.272208
-0.208752
0.283465
-0.250376
0.297621
-0.294306
0.313965
-0.340888
0.332625
0.352702
-0.390345
-0.0229604
0.196954
-0.0569733
0.284011
-0.0926064
0.294841
-0.1289
0.299654
-0.166455
0.309763
-0.205614
0.322624
-0.246758
0.338766
-0.290191
0.357398
-0.336265
0.378699
0.401648
-0.385211
-0.0222152
0.219169
-0.0555381
0.317334
-0.0906146
0.329917
-0.12638
0.335419
-0.163407
0.346789
-0.202036
0.361253
-0.242636
0.379366
-0.285503
0.400265
-0.330995
0.42419
0.450007
-0.379354
-0.0213963
0.240565
-0.0539255
0.349863
-0.0883772
0.364369
-0.123551
0.370593
-0.159988
0.383226
-0.198024
0.399289
-0.238015
0.419357
-0.280248
0.442499
-0.325085
0.469026
0.497708
-0.372785
-0.0205042
0.26107
-0.0521346
0.381493
-0.0858947
0.398129
-0.120415
0.405113
-0.156201
0.419012
-0.193581
0.43667
-0.232899
0.458675
-0.274433
0.484033
-0.318543
0.513136
0.544677
-0.365512
-0.0194937
0.280563
-0.0501634
0.412163
-0.0831677
0.431133
-0.116975
0.43892
-0.152048
0.454086
-0.188712
0.473333
-0.227296
0.497259
-0.268066
0.524803
-0.311378
0.556448
0.590846
-0.357548
-0.0183793
0.298943
-0.0480128
0.441796
-0.0801964
0.463317
-0.113232
0.471956
-0.147535
0.488389
-0.183423
0.509221
-0.221213
0.535049
-0.261155
0.564745
-0.3036
0.598893
0.636148
-0.348902
-0.0171679
0.31611
-0.0456848
0.470313
-0.0769821
0.494614
-0.10919
0.504164
-0.142666
0.521866
-0.177719
0.544274
-0.214657
0.571987
-0.25371
0.603798
-0.295219
0.640403
0.680515
-0.339586
-0.0158632
0.331974
-0.043181
0.497631
-0.073526
0.524959
-0.104852
0.535489
-0.137446
0.554459
-0.171608
0.578436
-0.207636
0.608015
-0.245739
0.641901
-0.286243
0.680906
0.723881
-0.329609
-0.0144683
0.346442
-0.0405029
0.523666
-0.0698301
0.554286
-0.100221
0.56588
-0.131878
0.586117
-0.165096
0.611653
-0.200161
0.64308
-0.23726
0.679
-0.276687
0.720333
0.766174
-0.31898
-0.0129857
0.359428
-0.0376523
0.548332
-0.0658961
0.58253
-0.0953001
0.595284
-0.12597
0.616787
-0.158189
0.643872
-0.192236
0.677128
-0.228276
0.71504
-0.266547
0.758604
0.807321
-0.307694
-0.0114177
0.370845
-0.0346314
0.571546
-0.061726
0.609625
-0.090094
0.623652
-0.119727
0.64642
-0.150896
0.675041
-0.183877
0.710109
-0.21883
0.749994
-0.25588
0.795653
0.847204
-0.295762
-0.00976638
0.380612
-0.0314427
0.593222
-0.057322
0.635504
-0.0846063
0.650936
-0.113154
0.674968
-0.143225
0.705112
-0.175079
0.741963
-0.208889
0.783804
-0.244561
0.831325
0.88575
-0.283108
-0.00803377
0.388646
-0.0280887
0.613277
-0.0526866
0.660102
-0.0788413
0.677091
-0.106258
0.702385
-0.135186
0.734039
-0.165866
0.772643
-0.198557
0.816496
-0.232969
0.865737
0.922708
-0.269927
-0.00622126
0.394867
-0.0245726
0.631629
-0.0478226
0.683352
-0.0728035
0.702071
-0.0990459
0.728628
-0.126787
0.761781
-0.156236
0.802091
-0.187695
0.847955
-0.221255
0.899298
0.957472
-0.256019
-0.00432852
0.399195
-0.0208975
0.648198
-0.0427336
0.705188
-0.0664978
0.725836
-0.0915234
0.753653
-0.118038
0.788296
-0.146213
0.830266
-0.176341
0.878084
-0.208597
0.931553
0.991437
-0.242562
-0.00234922
0.401545
-0.0170667
0.662915
-0.0374241
0.725545
-0.0599296
0.748341
-0.083698
0.777422
-0.108947
0.813544
-0.135813
0.857132
-0.164552
0.906823
-0.195462
0.962464
1.02421
-0.228232
-0.000221305
0.401766
-0.0130831
0.675777
-0.0319003
0.744363
-0.0531044
0.769545
-0.0755778
0.799895
-0.099521
0.837487
-0.125045
0.882656
-0.152371
0.934149
-0.18184
0.991933
1.05552
-0.213157
0.00166757
0.400098
-0.00894822
0.686393
-0.0261738
0.761588
-0.046028
0.789399
-0.0671713
0.821038
-0.0897717
0.860088
-0.113918
0.906802
-0.139806
0.960037
-0.167778
1.0199
1.08532
-0.197576
0.00364474
0.396454
-0.00464548
0.694683
-0.0202572
0.7772
-0.0387063
0.807848
-0.0584878
0.84082
-0.0797095
0.88131
-0.102442
0.929535
-0.126857
0.984452
-0.153282
1.04633
1.11356
-0.18152
0.00567355
0.39078
-8.404e-05
0.70044
-0.0141603
0.791276
-0.0311439
0.824832
-0.0495369
0.859213
-0.0693453
0.901118
-0.0906278
0.950817
-0.113532
1.00736
-0.138368
1.07116
1.14018
-0.164985
0.00771761
0.383062
0.004239
0.703919
-0.00790156
0.803417
-0.0233502
0.840281
-0.0403289
0.876192
-0.0586904
0.91948
-0.078489
0.970616
-0.0998475
1.02872
-0.123054
1.09437
1.16512
-0.147997
0.00975883
0.373304
0.00875549
0.704922
-0.00151239
0.813684
-0.0153395
0.854108
-0.0308755
0.891728
-0.0477565
0.936361
-0.0660397
0.988899
-0.0858168
1.04849
-0.107359
1.11591
1.18834
-0.130583
0.0117784
0.361525
0.0133632
0.703338
0.00519282
0.821855
-0.00712654
0.866427
-0.0211874
0.905788
-0.0365562
0.951729
-0.0532945
1.00564
-0.0714566
1.06665
-0.0912963
1.13575
1.20981
-0.112763
0.0137513
0.347774
0.0180221
0.699067
0.0120241
0.827853
0.00126182
0.877189
-0.0112818
0.918332
-0.0251036
0.965551
-0.0402686
1.0208
-0.0567854
1.08317
-0.074885
1.15385
1.22949
-0.0945616
0.0156473
0.332127
0.0226971
0.692017
0.0189553
0.831595
0.00993386
0.886211
-0.00121463
0.929481
-0.0134173
0.977754
-0.0269784
1.03436
-0.0418246
1.09802
-0.0581433
1.17017
1.24734
-0.0759981
0.0174329
0.314694
0.027351
0.682099
0.0259754
0.83297
0.0187438
0.893442
0.00923061
0.938994
-0.00154372
0.988528
-0.0134406
1.04626
-0.026599
1.11118
-0.0410868
1.18466
1.26336
-0.0571018
0.0190716
0.295622
0.0319415
0.669229
0.0330567
0.831855
0.0277001
0.898799
0.0198208
0.946873
0.0106509
0.997698
0.000297772
1.05661
-0.0111431
1.12262
-0.0237349
1.19725
1.27751
-0.0378917
0.0205233
0.275099
0.0364202
0.653332
0.040163
0.828112
0.0367818
0.90218
0.0305681
0.953087
0.0230155
1.00525
0.0143687
1.06526
0.00456664
1.13242
-0.00608456
1.2079
1.28984
-0.0184145
0.0217455
0.253353
0.0407326
0.634345
0.0472506
0.821594
0.0459627
0.903468
0.041466
0.957584
0.0355474
1.01117
0.0285941
1.07221
0.0206156
1.1404
0.0116836
1.21683
1.30019
0.00133625
0.0226946
0.230659
0.0448185
0.612221
0.0542664
0.812146
0.0552118
0.902523
0.0524964
0.960299
0.0482365
1.01543
0.0429895
1.07746
0.0368038
1.14658
0.0296984
1.22394
1.30834
0.0215471
0.0233301
0.207329
0.048612
0.586939
0.0611532
0.799605
0.0644928
0.899183
0.0636364
0.961155
0.0610655
1.018
0.0575367
1.08099
0.0531539
1.15097
0.0479475
1.22915
1.31445
0.0418392
0.0236185
0.18371
0.0520429
0.558515
0.0678597
0.783788
0.0737619
0.893281
0.0748592
0.960058
0.0740142
1.01885
0.0722171
1.08279
0.0696522
1.15353
0.0663671
1.23243
1.31855
0.062271
0.0235387
0.160171
0.0550374
0.527016
0.0743062
0.76452
0.0829646
0.884622
0.0861326
0.95689
0.0870602
1.01792
0.0870107
1.08284
0.0862728
1.15427
0.0849127
1.23379
1.32064
0.082817
0.0230854
0.137086
0.0575237
0.492578
0.0804023
0.741641
0.0920345
0.87299
0.0974168
0.951508
0.100178
1.01516
0.101896
1.08112
0.10299
1.15317
0.103567
1.23321
1.32075
0.10346
0.0222703
0.114816
0.0594362
0.455412
0.0860435
0.715034
0.100892
0.858141
0.108662
0.943738
0.113337
1.01048
0.116848
1.07761
0.11978
1.15024
0.122308
1.23069
1.31882
0.124234
0.0211222
0.0936935
0.0605954
0.415939
0.0911114
0.684518
0.109443
0.83981
0.119807
0.933374
0.126501
1.00379
0.131843
1.07226
0.136621
1.14546
0.141108
1.2262
1.31484
0.145087
0.0196844
0.0740091
0.0609151
0.374708
0.0954798
0.649953
0.11757
0.81772
0.130773
0.920171
0.139624
0.994937
0.14685
1.06504
0.153486
1.13883
0.159937
1.21975
1.30881
0.165976
0.018007
0.0560021
0.0603373
0.332378
0.0990103
0.61128
0.125133
0.791597
0.141462
0.903843
0.152651
0.983747
0.161835
1.05586
0.170349
1.13031
0.178769
1.21133
1.30071
0.186868
0.016143
0.0398591
0.0588221
0.289699
0.10155
0.568552
0.13197
0.761177
0.151753
0.88406
0.165507
0.969993
0.176756
1.04461
0.187178
1.11989
0.197572
1.20093
1.29055
0.207727
0.0141507
0.0257084
0.0563695
0.24748
0.102938
0.521983
0.137892
0.726223
0.161498
0.860454
0.178101
0.953391
0.191558
1.03115
0.203938
1.10751
0.216317
1.18856
1.27834
0.228523
0.0121013
0.0136071
0.0530349
0.206546
0.103011
0.472007
0.142685
0.686548
0.170515
0.832625
0.190308
0.933597
0.206173
1.01528
0.220585
1.0931
0.234972
1.17417
1.26409
0.249223
0.0100823
0.00352487
0.0489366
0.167692
0.101614
0.41933
0.146112
0.64205
0.178583
0.800154
0.201972
0.910208
0.220506
0.99675
0.237068
1.07654
0.253501
1.15774
1.2478
0.269792
0.00818884
-0.00466397
0.0442461
0.131635
0.0986234
0.364952
0.147915
0.592758
0.185433
0.762637
0.212886
0.882755
0.234434
0.975203
0.253318
1.05765
0.271859
1.13919
1.22947
0.290196
0.00650141
-0.0111654
0.0391662
0.0989697
0.0939683
0.31015
0.147825
0.538901
0.190744
0.719718
0.222789
0.850709
0.247784
0.950208
0.269238
1.0362
0.289992
1.11844
1.20906
0.310395
0.00506428
-0.0162297
0.0339135
0.0701204
0.0876757
0.256388
0.145578
0.481
0.194146
0.67115
0.231351
0.813504
0.260327
0.921232
0.284691
1.01184
0.307825
1.09531
1.18654
0.330352
0.00387767
-0.0201073
0.0287105
0.0452876
0.0799222
0.205176
0.140945
0.419977
0.195229
0.616866
0.238164
0.770569
0.271755
0.88764
0.299488
0.984104
0.325252
1.06954
1.16179
0.349993
0.0029103
-0.0230176
0.0237753
0.0244227
0.0710657
0.157886
0.133786
0.357256
0.193561
0.557091
0.242739
0.721391
0.281661
0.848718
0.313356
0.952409
0.342125
1.04077
1.13465
0.369271
0.002122
-0.0251396
0.0192924
0.00725233
0.0616058
0.115572
0.124127
0.294736
0.188734
0.492483
0.244509
0.665615
0.289519
0.803708
0.325927
0.916002
0.358197
1.0085
1.10481
0.388033
0.00147993
-0.0266196
0.0153806
-0.00664832
0.0520891
0.0788639
0.112255
0.23457
0.180431
0.424307
0.242854
0.603192
0.294665
0.751897
0.33668
0.873988
0.373189
0.971993
1.07189
0.406113
0.000962599
-0.0275822
0.0120779
-0.0177636
0.0430261
0.0479157
0.098766
0.17883
0.168534
0.354539
0.237152
0.534575
0.2963
0.692749
0.344947
0.825341
0.386477
0.930462
1.03496
0.423406
0.000556077
-0.0281382
0.00935422
-0.0265618
0.0348218
0.0224482
0.0845078
0.129144
0.153269
0.285778
0.226897
0.460946
0.293476
0.62617
0.349887
0.768931
0.397533
0.882816
0.993716
0.438777
0.000248986
-0.0283872
0.00714275
-0.0334555
0.0277152
0.00187569
0.0704156
0.0864437
0.135334
0.220859
0.211833
0.384448
0.285304
0.552698
0.350326
0.703908
0.405197
0.827946
0.945156
0.453757
3.10322e-05
-0.0284183
0.00536629
-0.0387908
0.021762
-0.01452
0.05731
0.0508957
0.1159
0.162269
0.19224
0.308108
0.270919
0.47402
0.345585
0.629242
0.407159
0.766371
0.889186
0.463129
-0.000135996
-0.0282823
0.00394721
-0.042874
0.0168774
-0.0274502
0.0457325
0.0220406
0.0963844
0.111618
0.169097
0.235396
0.250142
0.392974
0.333466
0.545918
0.405646
0.694191
0.832543
0.462288
-0.000245783
-0.0280365
0.00281107
-0.0459308
0.0129033
-0.0375424
0.0358897
-0.000945805
0.078101
0.0694062
0.144025
0.169472
0.2237
0.313298
0.312835
0.456784
0.397043
0.609983
0.767524
0.462063
-0.000319795
-0.0277167
0.00188753
-0.0481382
0.00965946
-0.0453144
0.0277105
-0.0189968
0.0619335
0.0351832
0.118887
0.112519
0.193304
0.238881
0.283722
0.366366
0.378343
0.515362
0.692038
0.453828
-0.000378266
-0.0273384
0.00111019
-0.0496266
0.00696948
-0.0511736
0.0209566
-0.032984
0.0481876
0.00795224
0.0952127
0.065494
0.161438
0.172656
0.247672
0.280132
0.348485
0.414549
0.605547
0.434976
-0.000438019
-0.0269004
0.000419265
-0.0504839
0.0046733
-0.0554277
0.0153202
-0.0436309
0.0366741
-0.0134016
0.0739073
0.0282608
0.130665
0.115898
0.207629
0.203168
0.308182
0.313995
0.509454
0.404276
-0.000511404
-0.026389
-0.000236922
-0.0507584
0.002635
-0.0582996
0.0104945
-0.0514904
0.0269541
-0.0298613
0.0553534
-0.000138489
0.102708
0.0685441
0.167121
0.138755
0.260583
0.220533
0.407901
0.362136
-0.000609411
-0.0257796
-0.000899299
-0.0504685
0.000751981
-0.0599509
0.0062206
-0.056959
0.018577
-0.0422177
0.039568
-0.0211295
0.0780858
0.0300263
0.129349
0.0874911
0.210621
0.139262
0.307749
0.310772
-0.000741139
-0.0250384
-0.00158664
-0.049623
-0.00107383
-0.0604637
0.00230418
-0.0603371
0.0112031
-0.0511166
0.0262463
-0.0361727
0.0565841
-0.000311491
0.0964114
0.0476638
0.162924
0.0727496
0.216739
0.253934
-0.00090625
-0.0241322
-0.00231155
-0.0482177
-0.00288067
-0.0598946
-0.00134308
-0.0618746
0.00459795
-0.0570576
0.014878
-0.0464528
0.0378369
-0.0232704
0.0686922
0.0168085
0.119956
0.0214859
0.140591
0.196103
-0.00110227
-0.0230299
-0.00307418
-0.0462458