/*--------------------------------*- C++ -*----------------------------------*\
  =========                 |
  \\      /  F ield         | OpenFOAM: The Open Source CFD Toolbox
   \\    /   O peration     | Website:  https://openfoam.org
    \\  /    A nd           | Version:  7
     \\/     M anipulation  |
\*---------------------------------------------------------------------------*/
FoamFile
{
    version     2.0;
    format      ascii;
    class       volScalarField;
    location    "1.4";
    object      rho;
}
// * * * * * * * * * * * * * * * * * * * * * * * * * * * * * * * * * * * * * //

dimensions      [1 -3 0 0 0 0 0];

internalField   nonuniform List<scalar> 
1575
(
1.40001
1.40001
1.40001
1.40001
1.40001
1.40001
1.40001
1.82959
4.74538
5.5732
5.62693
5.6889
5.71663
5.72645
5.75315
1.40001
1.40001
1.40001
1.40001
1.40001
1.40001
1.40001
1.7705
4.63888
5.54692
5.5989
5.64849
5.66839
5.66822
5.69689
1.40001
1.40001
1.40001
1.40001
1.40001
1.40001
1.40001
1.64603
4.46891
5.52505
5.55118
5.59335
5.61762
5.62239
5.63807
1.40001
1.40001
1.40001
1.40001
1.40001
1.40001
1.40001
1.46125
4.18631
5.48922
5.48634
5.4961
5.48897
5.46881
5.47657
1.40001
1.40001
1.40001
1.40001
1.40001
1.40001
1.40001
1.4019
3.70294
5.353
5.36348
5.35359
5.34305
5.29034
5.2916
1.40001
1.40001
1.40001
1.40001
1.40001
1.40001
1.40001
1.40001
3.07404
5.15994
5.27007
5.22193
5.14067
4.83257
4.02923
1.40001
1.40001
1.40001
1.40001
1.40001
1.40001
1.40001
1.4
2.32357
4.8872
5.21203
5.127
4.95651
4.6151
3.81666
1.40001
1.40001
1.40001
1.40001
1.40001
1.40001
1.40001
1.4
1.59049
4.38209
5.18939
5.05385
4.80907
4.44113
3.675
1.40001
1.40001
1.40001
1.40001
1.40001
1.40001
1.40001
1.40001
1.40572
3.4224
5.01679
4.92743
4.6854
4.30414
3.68666
1.40001
1.40001
1.40001
1.40001
1.40001
1.40001
1.40001
1.40001
1.39995
2.2003
4.78085
4.89967
4.63086
4.25182
3.73114
1.40001
1.40001
1.40001
1.40001
1.40001
1.40001
1.40001
1.40001
1.39999
1.50038
3.90585
4.8563
4.56623
4.22758
3.79453
1.40001
1.40001
1.40001
1.40001
1.40001
1.40001
1.40001
1.40001
1.4
1.40099
2.48517
4.60922
4.57496
4.25978
3.89125
1.40001
1.40001
1.40001
1.40001
1.40001
1.40001
1.40001
1.40001
1.4
1.4
1.56726
3.75594
4.6194
4.30576
3.9605
1.40001
1.40001
1.40001
1.40001
1.40001
1.40001
1.40001
1.40001
1.40001
1.40001
1.40322
2.25358
4.28139
4.35895
4.03187
1.40001
1.40001
1.40001
1.40001
1.40001
1.40001
1.40001
1.40001
1.40001
1.40001
1.40001
1.49832
3.19692
4.33955
4.12998
1.40001
1.40001
1.40001
1.40001
1.40001
1.40001
1.40001
1.40001
1.40001
1.40001
1.40001
1.40148
1.87545
3.74174
4.21323
1.40001
1.40001
1.40001
1.40001
1.40001
1.40001
1.40001
1.40001
1.40001
1.40001
1.40001
1.40001
1.42876
2.37554
3.91671
1.40001
1.40001
1.40001
1.40001
1.40001
1.40001
1.40001
1.40001
1.40001
1.40001
1.40001
1.40001
1.40032
1.52615
2.80716
1.40001
1.40001
1.40001
1.40001
1.40001
1.40001
1.40001
1.40001
1.40001
1.40001
1.40001
1.40001
1.40001
1.40301
1.68312
1.40001
1.40001
1.40001
1.40001
1.40001
1.40001
1.40001
1.40001
1.40001
1.40001
1.40001
1.40001
1.40001
1.40002
1.41205
1.40001
1.40001
1.40001
1.40001
1.40001
1.40001
1.40001
1.40001
1.40001
1.40001
1.40001
1.40001
1.40001
1.40001
1.40011
1.40001
1.40001
1.40001
1.40001
1.40001
1.40001
1.40001
1.40001
1.40001
1.40001
1.40001
1.40001
1.40001
1.40001
1.40001
1.40001
1.40001
1.40001
1.40001
1.40001
1.40001
1.40001
1.40001
1.40001
1.40001
1.40001
1.40001
1.40001
1.40001
1.40001
1.40001
1.40001
1.40001
1.40001
1.40001
1.40001
1.40001
1.40001
1.40001
1.40001
1.40001
1.40001
1.40001
1.40001
1.40001
1.40001
1.40001
1.40001
1.40001
1.40001
1.40001
1.40001
1.40001
1.40001
1.40001
1.40001
1.40001
1.40001
1.40001
1.40001
1.41755
0.662655
0.345938
0.312574
0.357164
0.473099
0.587261
0.718616
0.826753
0.897201
0.905819
0.907644
0.930732
0.972165
1.00007
1.00059
1.00199
1.00371
0.996137
0.985756
0.982322
0.980754
0.974404
0.963516
0.953048
0.944724
0.93595
0.920922
0.905009
0.894146
0.886095
0.882703
0.884353
0.912654
0.995387
1.16794
1.38165
1.63922
1.86784
2.03879
2.16896
2.26269
2.27763
2.27229
2.26634
2.2274
2.16334
2.09739
2.02157
1.94394
1.87829
1.81972
1.76266
1.71197
1.66496
1.61864
1.57966
1.5451
1.51797
1.47533
2.1232
1.41672
1.06738
0.809584
0.726025
0.741309
0.725451
0.704464
0.728894
0.778882
0.813072
0.847583
0.891948
0.947373
0.991502
0.992825
0.995882
1.00358
1.00315
0.997286
0.996729
0.998459
0.994977
0.986083
0.977419
0.966565
0.955953
0.942953
0.92813
0.917525
0.914875
0.934723
1.00517
1.14291
1.30954
1.4332
1.51516
1.56947
1.61517
1.6915
1.79737
1.87761
1.92152
1.94095
1.97828
1.99752
2.00597
2.00787
1.98961
1.95369
1.91532
1.87738
1.83149
1.78068
1.73603
1.69249
1.64754
1.60808
1.57934
1.53294
2.61494
1.95089
1.60672
1.31465
1.03541
0.933235
0.882712
0.789602
0.754231
0.777266
0.831395
0.878959
0.91771
0.961449
1.00348
1.01174
1.02197
1.04659
1.06009
1.05664
1.06238
1.0661
1.06318
1.0531
1.03718
1.01549
0.992132
0.974768
0.966107
0.980993
1.03988
1.18876
1.37736
1.52538
1.6427
1.64882
1.64112
1.61466
1.60656
1.6083
1.60554
1.61146
1.64246
1.69932
1.76842
1.84537
1.90978
1.96171
1.97545
1.96735
1.96471
1.95304
1.92291
1.89044
1.8679
1.84525
1.81228
1.76729
1.72833
1.66524
2.97586
2.38005
1.98221
1.71511
1.43233
1.21642
1.14098
1.03972
0.923059
0.905235
0.895099
0.875538
0.879625
0.901615
0.940197
0.96991
0.992554
1.02053
1.0501
1.06218
1.07702
1.1018
1.10796
1.10429
1.09248
1.06775
1.04011
1.03594
1.08451
1.21933
1.44069
1.6216
1.73245
1.77113
1.76429
1.735
1.69688
1.67106
1.63488
1.60675
1.58999
1.56401
1.52659
1.49875
1.49352
1.51516
1.56372
1.6364
1.72361
1.79813
1.8652
1.90709
1.90378
1.89442
1.87892
1.87225
1.8562
1.8367
1.8266
1.79082
3.18882
2.69887
2.29881
2.00631
1.73857
1.49778
1.36548
1.25709
1.12885
1.04919
0.997522
0.922316
0.884997
0.892521
0.904854
0.917004
0.935228
0.962105
1.00069
1.03027
1.05099
1.08407
1.09641
1.10008
1.09767
1.09516
1.1142
1.20693
1.45404
1.68861
1.86458
1.8783
1.86939
1.84887
1.8068
1.75182
1.70714
1.66802
1.63747
1.61621
1.59164
1.54806
1.507
1.47698
1.45071
1.43144
1.42169
1.41655
1.42805
1.45881
1.50174
1.5567
1.61085
1.6629
1.70412
1.75589
1.79967
1.8225
1.83237
1.80499
3.34941
2.92888
2.56292
2.26546
1.99889
1.76384
1.58677
1.44137
1.31853
1.23642
1.17141
1.0825
0.989742
0.973114
0.952443
0.933377
0.935169
0.935449
0.937665
0.952403
0.977098
1.01511
1.04931
1.07155
1.09003
1.13912
1.32548
1.64008
1.8594
1.97919
1.99139
1.9619
1.91108
1.87017
1.8134
1.74467
1.69404
1.65624
1.62626
1.59941
1.57259
1.53615
1.50174
1.47895
1.45318
1.4307
1.41557
1.40203
1.38472
1.36495
1.34304
1.32838
1.32381
1.3346
1.36113
1.4086
1.48513
1.57788
1.63772
1.67101
3.49156
3.10586
2.77617
2.49127
2.20673
1.98246
1.81569
1.65742
1.49118
1.39274
1.31058
1.22035
1.12991
1.0819
1.03716
0.978766
0.949428
0.943833
0.934502
0.930423
0.932912
0.942713
0.975078
1.00785
1.11785
1.38746
1.71736
1.96334
1.9829
1.99326
1.98134
1.94234
1.90257
1.85213
1.79947
1.75302
1.7117
1.67286
1.63101
1.59825
1.56532
1.53268
1.51687
1.50128
1.47902
1.45676
1.43436
1.41012
1.38702
1.36303
1.33344
1.30525
1.28529
1.26795
1.25903
1.25722
1.26998
1.29714
1.32168
1.35502
3.60107
3.25116
2.93794
2.67265
2.4189
2.1787
1.99381
1.8307
1.67084
1.56484
1.47481
1.36126
1.24465
1.1963
1.15167
1.08983
1.04234
1.0181
0.986031
0.947147
0.938936
0.941131
0.957382
1.1011
1.42279
1.7664
1.89128
1.95238
1.93252
1.90952
1.89253
1.84642
1.81969
1.81719
1.78895
1.75385
1.72525
1.68891
1.6508
1.62032
1.59311
1.56935
1.54802
1.52159
1.49495
1.47394
1.45156
1.42403
1.39645
1.36992
1.33673
1.2993
1.28275
1.27527
1.26074
1.23912
1.23235
1.23013
1.22725
1.21538
3.70858
3.38615
3.09684
2.83844
2.58513
2.3632
2.17976
2.00136
1.82418
1.71223
1.61918
1.51007
1.394
1.3259
1.26357
1.18058
1.12786
1.0964
1.05626
1.00303
0.972864
1.01709
1.19389
1.52727
1.83218
1.89727
1.86976
1.85657
1.80733
1.77311
1.75736
1.72465
1.71824
1.73405
1.72506
1.70846
1.69089
1.68077
1.66336
1.63435
1.61886
1.59512
1.5632
1.52386
1.50468
1.49259
1.47496
1.4473
1.41233
1.37298
1.32839
1.30987
1.30053
1.28749
1.2666
1.23588
1.20707
1.20005
1.19561
1.18818
3.82156
3.5237
3.23739
2.98527
2.74975
2.52972
2.33768
2.15594
1.98527
1.86976
1.75901
1.62733
1.51051
1.45322
1.39069
1.30662
1.2319
1.17958
1.13829
1.11148
1.17617
1.43744
1.78639
1.99635
1.99335
1.94463
1.87842
1.81597
1.74206
1.70431
1.67213
1.63711
1.6234
1.62325
1.61964
1.61044
1.60164
1.6045
1.61046
1.60052
1.57136
1.56319
1.55162
1.52517
1.51135
1.50618
1.49542
1.46995
1.42978
1.38774
1.35146
1.32781
1.30745
1.28654
1.26704
1.23649
1.20124
1.18347
1.17745
1.17331
3.96603
3.66941
3.39572
3.13358
2.89823
2.69451
2.50956
2.30923
2.12842
2.0101
1.90306
1.77604
1.6459
1.56908
1.49622
1.40981
1.33895
1.28908
1.29415
1.39262
1.71991
2.0711
2.23686
2.19574
2.08267
1.97102
1.89459
1.8174
1.73914
1.6929
1.65066
1.61676
1.60739
1.60062
1.57732
1.54349
1.51605
1.50288
1.50363
1.49178
1.48069
1.48695
1.47853
1.45246
1.44202
1.4425
1.44441
1.44186
1.43143
1.41132
1.38494
1.3544
1.32456
1.29574
1.26426
1.23151
1.20081
1.18013
1.17098
1.1616
4.06288
3.82275
3.53836
3.2842
3.0488
2.82676
2.6437
2.46363
2.28516
2.15387
2.03072
1.8939
1.77656
1.69413
1.6167
1.5184
1.438
1.48973
1.75247
2.10276
2.43655
2.48419
2.42517
2.31569
2.17809
2.05659
1.96233
1.87571
1.80833
1.75598
1.70949
1.67667
1.64909
1.61506
1.57093
1.51962
1.49762
1.48406
1.46342
1.4361
1.41839
1.40423
1.3829
1.36487
1.35667
1.36031
1.36463
1.37022
1.38036
1.37505
1.35095
1.31195
1.28185
1.27035
1.2638
1.24631
1.22291
1.20044
1.18013
1.15086
3.91096
3.94906
3.71987
3.43296
3.20334
2.99045
2.79772
2.60511
2.42734
2.30405
2.18141
2.04017
1.91335
1.80186
1.73022
1.66856
1.76107
2.15129
2.58548
2.78148
2.76899
2.66625
2.52106
2.38123
2.26129
2.16558
2.07626
1.99205
1.91926
1.85092
1.78992
1.7407
1.69844
1.65299
1.59961
1.54971
1.51667
1.48773
1.45146
1.41882
1.39418
1.37107
1.34478
1.3226
1.30515
1.28848
1.26915
1.25723
1.25924
1.26943
1.27236
1.25167
1.23118
1.22838
1.22206
1.20388
1.18643
1.18273
1.18234
1.15434
3.07895
3.88005
3.84922
3.62165
3.36764
3.13602
2.93622
2.77079
2.59425
2.44637
2.30961
2.16482
2.04883
1.94422
1.94719
2.16858
2.63453
3.1043
3.19479
3.07917
2.9124
2.76738
2.6196
2.47523
2.3627
2.27921
2.20124
2.12575
2.05152
1.97357
1.89576
1.82478
1.76289
1.70804
1.657
1.61206
1.57167
1.53073
1.48701
1.44263
1.40172
1.36383
1.33175
1.31105
1.29119
1.26738
1.23126
1.19577
1.1882
1.18552
1.18038
1.16897
1.14635
1.13961
1.14335
1.13985
1.14093
1.14779
1.14507
1.12091
1.84838
3.21652
3.81762
3.77954
3.56125
3.31969
3.10045
2.90863
2.74008
2.60207
2.45907
2.3057
2.17745
2.30261
2.7501
3.33078
3.59078
3.5143
3.36759
3.17607
2.99113
2.84534
2.71965
2.59984
2.4961
2.40772
2.3252
2.24426
2.16361
2.08142
1.9987
1.91997
1.84573
1.77822
1.72444
1.68206
1.63745
1.58491
1.53349
1.48705
1.43809
1.38041
1.33703
1.3143
1.28753
1.25707
1.22173
1.18702
1.16379
1.14902
1.13554
1.12066
1.09485
1.06147
1.05374
1.05392
1.05718
1.07359
1.07997
1.06661
1.42855
1.96639
3.26156
3.75775
3.7226
3.52734
3.27891
3.07363
2.9062
2.72948
2.59044
2.53526
2.78884
3.48844
3.98377
4.13025
4.02123
3.77371
3.53033
3.31938
3.13088
2.9714
2.83842
2.72198
2.6207
2.53026
2.44334
2.35419
2.26109
2.16738
2.07828
1.99734
1.9238
1.85643
1.79482
1.74089
1.69759
1.649
1.59184
1.54086
1.48091
1.40843
1.35059
1.3307
1.31775
1.28951
1.24567
1.19723
1.16332
1.14234
1.12119
1.09461
1.06951
1.03597
1.00417
0.998643
1.0001
1.01356
1.015
1.00221
1.40036
1.4453
2.03099
3.25403
3.70073
3.67354
3.49033
3.23647
3.05473
2.87429
2.9734
3.51929
4.27338
4.70113
4.57314
4.37186
4.13867
3.89118
3.67666
3.48837
3.30115
3.12065
2.95965
2.82661
2.71624
2.62026
2.53039
2.43948
2.34291
2.24012
2.1352
2.04275
1.9722
1.91473
1.8619
1.80866
1.74288
1.65956
1.59368
1.55665
1.527
1.48465
1.43098
1.37282
1.31412
1.26414
1.21834
1.18699
1.17001
1.15334
1.12779
1.09029
1.05023
1.01722
0.991645
0.980833
0.977705
0.973546
0.961582
0.941694
1.40001
1.4007
1.45709
2.04897
3.20287
3.6371
3.58765
3.45321
3.3175
3.60413
4.47922
5.31842
5.50727
5.32383
4.91667
4.5088
4.20079
3.95949
3.76613
3.59661
3.42669
3.25394
3.08187
2.93256
2.80336
2.69074
2.58956
2.49154
2.39042
2.2875
2.19112
2.10701
2.03126
1.95952
1.89205
1.82469
1.74939
1.67752
1.63127
1.58906
1.5367
1.48091
1.43081
1.37954
1.32335
1.27344
1.23694
1.21387
1.19103
1.16246
1.12734
1.08791
1.04829
1.01183
0.988233
0.977388
0.9704
0.959208
0.94082
0.920984
1.40001
1.40001
1.40102
1.4608
2.02764
3.07615
3.48338
3.89085
4.59925
5.55693
6.04691
5.99261
5.71807
5.33142
4.93434
4.61616
4.34247
4.10362
3.895
3.70387
3.51597
3.35335
3.22786
3.09197
2.9555
2.83184
2.71991
2.61255
2.50531
2.40114
2.30446
2.21328
2.12387
2.03699
1.95575
1.88072
1.81618
1.76608
1.7152
1.6536
1.58713
1.52556
1.46829
1.41279
1.36427
1.32816
1.30101
1.2732
1.23866
1.19737
1.15423
1.11219
1.07158
1.03688
1.01389
0.998004
0.982925
0.96333
0.943315
0.921536
1.40001
1.40001
1.40001
1.40108
1.46297
2.0254
3.52557
5.43458
7.43148
8.07607
7.54427
6.56754
5.7483
5.18827
4.8503
4.59295
4.36242
4.15227
3.94865
3.74826
3.55767
3.37404
3.19192
3.03092
2.89048
2.76623
2.65426
2.54722
2.43992
2.33437
2.23507
2.14291
2.05575
1.97143
1.89028
1.81777
1.76063
1.71217
1.65928
1.59814
1.5344
1.47329
1.41424
1.35937
1.31515
1.28212
1.25478
1.22791
1.19482
1.15536
1.11444
1.07165
1.029
0.998293
0.977602
0.961029
0.94244
0.91984
0.903062
0.886171
)
;

boundaryField
{
    inlet
    {
        type            calculated;
        value           uniform 1.40001;
    }
    outlet
    {
        type            calculated;
        value           nonuniform List<scalar> 
20
(
1.47357
1.53181
1.66406
1.79298
1.80753
1.67635
1.36053
1.21652
1.18833
1.17266
1.16143
1.15288
1.15629
1.12212
1.06818
1.00364
0.942705
0.921393
0.921799
0.886179
)
;
    }
    bottom
    {
        type            symmetryPlane;
    }
    top
    {
        type            symmetryPlane;
    }
    obstacle
    {
        type            calculated;
        value           nonuniform List<scalar> 
65
(
5.75315
5.69689
5.63807
5.47657
5.2916
1.41755
0.662655
0.345938
0.312574
0.357164
0.473099
0.587261
0.718616
0.826753
0.897201
0.905819
0.907644
0.930732
0.972165
1.00007
1.00059
1.00199
1.00371
0.996137
0.985756
0.982322
0.980754
0.974404
0.963516
0.953048
0.944724
0.93595
0.920922
0.905009
0.894146
0.886095
0.882703
0.884353
0.912654
0.995387
1.16794
1.38165
1.63922
1.86784
2.03879
2.16896
2.26269
2.27763
2.27229
2.26634
2.2274
2.16334
2.09739
2.02157
1.94394
1.87829
1.81972
1.76266
1.71197
1.66496
1.61864
1.57966
1.5451
1.51797
1.47533
)
;
    }
    defaultFaces
    {
        type            empty;
    }
}


// ************************************************************************* //
