/*--------------------------------*- C++ -*----------------------------------*\
  =========                 |
  \\      /  F ield         | OpenFOAM: The Open Source CFD Toolbox
   \\    /   O peration     | Website:  https://openfoam.org
    \\  /    A nd           | Version:  9
     \\/     M anipulation  |
\*---------------------------------------------------------------------------*/
FoamFile
{
    format      ascii;
    class       volScalarField;
    location    "25";
    object      p;
}
// * * * * * * * * * * * * * * * * * * * * * * * * * * * * * * * * * * * * * //

dimensions      [0 2 -2 0 0 0 0];

internalField   nonuniform List<scalar> 
8500
(
-0.306012
-0.310243
-0.311089
-0.312856
-0.31497
-0.315245
-0.319056
-0.315464
-0.321738
-0.31448
-0.306279
-0.310448
-0.311287
-0.313023
-0.31517
-0.315339
-0.319356
-0.315398
-0.322153
-0.314363
-0.306805
-0.310852
-0.311677
-0.313348
-0.315561
-0.315517
-0.319945
-0.315248
-0.322978
-0.314127
-0.307577
-0.311444
-0.312246
-0.313818
-0.316126
-0.315759
-0.320803
-0.314987
-0.324199
-0.31377
-0.308576
-0.312209
-0.312974
-0.314408
-0.316839
-0.316036
-0.321895
-0.314576
-0.325792
-0.31329
-0.30978
-0.313128
-0.31384
-0.315092
-0.317666
-0.316324
-0.323165
-0.313981
-0.327714
-0.312668
-0.311161
-0.314179
-0.314816
-0.31584
-0.31856
-0.316598
-0.324538
-0.313171
-0.329908
-0.311845
-0.312693
-0.31534
-0.315874
-0.316624
-0.319471
-0.316845
-0.325917
-0.312137
-0.332283
-0.310814
-0.314351
-0.316591
-0.316986
-0.317418
-0.32034
-0.317062
-0.327186
-0.310958
-0.334386
-0.309787
-0.316109
-0.317912
-0.318123
-0.318201
-0.321111
-0.317263
-0.328123
-0.309855
-0.336166
-0.308377
-0.317949
-0.319288
-0.319262
-0.318957
-0.321725
-0.317539
-0.3286
-0.308724
-0.337573
-0.306751
-0.319858
-0.320706
-0.320382
-0.319677
-0.322077
-0.31793
-0.328633
-0.307643
-0.338188
-0.305396
-0.32183
-0.322161
-0.321472
-0.320381
-0.322194
-0.318308
-0.328222
-0.306933
-0.337468
-0.304863
-0.323868
-0.323653
-0.322525
-0.321045
-0.322131
-0.318618
-0.327294
-0.306752
-0.335022
-0.305164
-0.325983
-0.32519
-0.323554
-0.321649
-0.321935
-0.318844
-0.325919
-0.307018
-0.330838
-0.305475
-0.328203
-0.326777
-0.324596
-0.3222
-0.321658
-0.31879
-0.324222
-0.307357
-0.325427
-0.304701
-0.330561
-0.328438
-0.325679
-0.32273
-0.321376
-0.318421
-0.322288
-0.307384
-0.319428
-0.302332
-0.333098
-0.330204
-0.326839
-0.323279
-0.321148
-0.317758
-0.320084
-0.306905
-0.313092
-0.298393
-0.335862
-0.33211
-0.32812
-0.323883
-0.32098
-0.316912
-0.317518
-0.305848
-0.306343
-0.293307
-0.33891
-0.334196
-0.329574
-0.324568
-0.32083
-0.316003
-0.314571
-0.304067
-0.299227
-0.287847
-0.342298
-0.336513
-0.33125
-0.325334
-0.320673
-0.315067
-0.311318
-0.301338
-0.292365
-0.282499
-0.346069
-0.33913
-0.333187
-0.326165
-0.320542
-0.314041
-0.307841
-0.297614
-0.286194
-0.275916
-0.350299
-0.342099
-0.335391
-0.327072
-0.320494
-0.312804
-0.304171
-0.293163
-0.279999
-0.269118
-0.355052
-0.345484
-0.337823
-0.328137
-0.320523
-0.311248
-0.300306
-0.288123
-0.273802
-0.262281
-0.360389
-0.349337
-0.340431
-0.329492
-0.320536
-0.309316
-0.296199
-0.282694
-0.267492
-0.255358
-0.366378
-0.35367
-0.343221
-0.331209
-0.320412
-0.306981
-0.29183
-0.276968
-0.261045
-0.248415
-0.373093
-0.358433
-0.346308
-0.33321
-0.320051
-0.30424
-0.287183
-0.271008
-0.254465
-0.241384
-0.380606
-0.363527
-0.349894
-0.33529
-0.319375
-0.301097
-0.28225
-0.264836
-0.247734
-0.234264
-0.388956
-0.36885
-0.354166
-0.337233
-0.318315
-0.297556
-0.277022
-0.258454
-0.240851
-0.227015
-0.39812
-0.374341
-0.359161
-0.338887
-0.316802
-0.293611
-0.271489
-0.251851
-0.233796
-0.219617
-0.407978
-0.380013
-0.364697
-0.340155
-0.314772
-0.289245
-0.265634
-0.245011
-0.226551
-0.212042
-0.418304
-0.385946
-0.370383
-0.340962
-0.312173
-0.284426
-0.259434
-0.23791
-0.219092
-0.204271
-0.428766
-0.392238
-0.375731
-0.341217
-0.308961
-0.27912
-0.25286
-0.230525
-0.211396
-0.19628
-0.439043
-0.398948
-0.380281
-0.340805
-0.305098
-0.27329
-0.245881
-0.222828
-0.20344
-0.188052
-0.448833
-0.406043
-0.383683
-0.339596
-0.300542
-0.266899
-0.238464
-0.21479
-0.195204
-0.179568
-0.45788
-0.413346
-0.385719
-0.337453
-0.295246
-0.259916
-0.230577
-0.206384
-0.186665
-0.170812
-0.465981
-0.420532
-0.386286
-0.33425
-0.289161
-0.252308
-0.222189
-0.197585
-0.177804
-0.16177
-0.472977
-0.427141
-0.385371
-0.329887
-0.282232
-0.244041
-0.213272
-0.188369
-0.168602
-0.152436
-0.47874
-0.432648
-0.383004
-0.324296
-0.274405
-0.23508
-0.203801
-0.178716
-0.159044
-0.14282
-0.483162
-0.436577
-0.379163
-0.31743
-0.265633
-0.225394
-0.193752
-0.168608
-0.149117
-0.132946
-0.486143
-0.438593
-0.373727
-0.309243
-0.255873
-0.214952
-0.183106
-0.158028
-0.138811
-0.122831
-0.487575
-0.43842
-0.366605
-0.299692
-0.245089
-0.203731
-0.171849
-0.146961
-0.128116
-0.112451
-0.487328
-0.435856
-0.357734
-0.288738
-0.233255
-0.191711
-0.159967
-0.135396
-0.117043
-0.101745
-0.485243
-0.430766
-0.347071
-0.276356
-0.220351
-0.178877
-0.147446
-0.123322
-0.105634
-0.0906315
-0.481134
-0.42306
-0.334565
-0.262548
-0.206363
-0.165216
-0.134274
-0.110743
-0.0939346
-0.0790933
-0.474794
-0.412681
-0.320177
-0.247316
-0.191279
-0.150722
-0.120458
-0.0976972
-0.081919
-0.0672674
-0.466006
-0.399593
-0.303888
-0.23066
-0.175083
-0.13542
-0.106037
-0.0842679
-0.069475
-0.0552386
-0.454558
-0.383781
-0.285689
-0.212578
-0.157784
-0.119371
-0.0910774
-0.070428
-0.0566124
-0.0430115
-0.440258
-0.365242
-0.265575
-0.193091
-0.13947
-0.102633
-0.0755366
-0.0561893
-0.0433776
-0.0305924
-0.422945
-0.343996
-0.243533
-0.172285
-0.120288
-0.0851086
-0.0594546
-0.0415656
-0.0298182
-0.0179952
-0.402502
-0.320103
-0.219564
-0.150313
-0.100177
-0.0668536
-0.0428712
-0.0265816
-0.015977
-0.00524681
-0.378864
-0.293688
-0.193755
-0.127147
-0.0791849
-0.047927
-0.02583
-0.0112697
-0.00189516
0.00761601
-0.352018
-0.264915
-0.166296
-0.102703
-0.0573687
-0.0283949
-0.00837904
0.00433038
0.0123875
0.020549
-0.322012
-0.233813
-0.137324
-0.0770991
-0.0347961
-0.00832754
0.00942749
0.0201747
0.0268346
0.0335074
-0.288968
-0.200136
-0.10722
-0.0504783
-0.0115416
0.0122001
0.027529
0.0362179
0.0414149
0.0464476
-0.253059
-0.164185
-0.0759395
-0.0229904
0.0123083
0.0331082
0.0458606
0.0524186
0.0560962
0.0592992
-0.214386
-0.126367
-0.0435361
0.00521842
0.0366533
0.0543116
0.0643571
0.0687428
0.0708231
0.0718886
-0.172919
-0.0873111
-0.0101403
0.0340057
0.0613824
0.0757205
0.0829562
0.0851572
0.0854832
0.0838793
-0.129142
-0.0471768
0.0240684
0.0632283
0.0863763
0.097242
0.101597
0.101602
0.0999016
0.0949819
-0.0834147
-0.00615651
0.0588856
0.0927373
0.111509
0.118781
0.120212
0.117968
0.113915
0.105515
-0.0361156
0.0355124
0.0940918
0.122376
0.13665
0.140239
0.138717
0.134113
0.127472
0.116795
0.0123523
0.0775659
0.129458
0.15198
0.161665
0.161517
0.157013
0.149926
0.140773
0.128605
0.0615697
0.119723
0.164749
0.18138
0.186419
0.182509
0.175007
0.165376
0.153868
0.140457
0.111106
0.16169
0.199728
0.210401
0.210774
0.203105
0.192603
0.180415
0.166703
0.152176
0.160522
0.203169
0.234156
0.238868
0.234591
0.223196
0.209712
0.194998
0.179203
0.163579
0.209379
0.243859
0.267798
0.266603
0.257733
0.242672
0.226249
0.209067
0.191304
0.174571
0.25724
0.28346
0.300422
0.293432
0.280063
0.261423
0.242129
0.222558
0.202936
0.18507
0.303674
0.321681
0.3318
0.319182
0.301445
0.279343
0.257271
0.23541
0.214036
0.19502
0.348263
0.358242
0.361715
0.343686
0.321752
0.29633
0.271595
0.247559
0.224543
0.20437
0.390595
0.392881
0.389958
0.366781
0.340856
0.312284
0.285025
0.258943
0.234401
0.213076
0.430297
0.425343
0.41633
0.388314
0.358638
0.327111
0.297489
0.269504
0.243554
0.221102
0.467068
0.455339
0.440643
0.408137
0.374986
0.340724
0.308916
0.279186
0.25195
0.228413
0.500613
0.482612
0.46272
0.426116
0.389796
0.35304
0.319244
0.287936
0.259543
0.234978
0.53064
0.506947
0.482403
0.442127
0.402972
0.363987
0.328415
0.295706
0.266287
0.240772
0.556887
0.528157
0.499546
0.456061
0.41443
0.373497
0.336377
0.302453
0.272145
0.245772
0.579123
0.546081
0.514027
0.467821
0.424095
0.381512
0.343084
0.308136
0.277081
0.249962
0.597151
0.560585
0.525741
0.477328
0.431904
0.387985
0.348497
0.312723
0.281065
0.253326
0.610814
0.57156
0.534601
0.484516
0.437806
0.392874
0.352584
0.316188
0.284074
0.255856
0.619989
0.578922
0.540544
0.489335
0.441762
0.396151
0.355323
0.318509
0.286091
0.257545
0.624597
0.582617
0.543526
0.491753
0.443747
0.397794
0.356696
0.319673
0.287102
0.258391
0.624597
0.582617
0.543526
0.491753
0.443747
0.397794
0.356696
0.319673
0.287102
0.258391
0.619989
0.578922
0.540544
0.489335
0.441762
0.396151
0.355323
0.318509
0.286091
0.257545
0.610814
0.57156
0.534601
0.484516
0.437806
0.392874
0.352584
0.316188
0.284074
0.255856
0.597151
0.560585
0.525741
0.477328
0.431904
0.387985
0.348497
0.312723
0.281065
0.253326
0.579123
0.546081
0.514027
0.467821
0.424095
0.381512
0.343084
0.308136
0.277081
0.249962
0.556887
0.528157
0.499546
0.456061
0.41443
0.373497
0.336377
0.302453
0.272145
0.245772
0.53064
0.506947
0.482403
0.442127
0.402972
0.363987
0.328415
0.295706
0.266287
0.240772
0.500613
0.482612
0.46272
0.426116
0.389796
0.35304
0.319244
0.287936
0.259543
0.234978
0.467068
0.455339
0.440643
0.408137
0.374986
0.340724
0.308916
0.279186
0.25195
0.228413
0.430297
0.425343
0.41633
0.388314
0.358638
0.327111
0.297489
0.269504
0.243554
0.221102
0.390595
0.392881
0.389958
0.366781
0.340856
0.312284
0.285025
0.258943
0.234401
0.213076
0.348263
0.358242
0.361715
0.343686
0.321752
0.29633
0.271595
0.247559
0.224543
0.20437
0.303674
0.321681
0.3318
0.319182
0.301445
0.279343
0.257271
0.23541
0.214036
0.19502
0.25724
0.28346
0.300422
0.293432
0.280063
0.261423
0.242129
0.222558
0.202936
0.18507
0.209379
0.243859
0.267798
0.266603
0.257733
0.242672
0.226249
0.209067
0.191304
0.174571
0.160522
0.203169
0.234156
0.238868
0.234591
0.223196
0.209712
0.194998
0.179203
0.163579
0.111106
0.16169
0.199728
0.210401
0.210774
0.203105
0.192603
0.180415
0.166703
0.152176
0.0615697
0.119723
0.164749
0.18138
0.186419
0.182509
0.175007
0.165376
0.153868
0.140457
0.0123523
0.0775659
0.129458
0.15198
0.161665
0.161517
0.157013
0.149926
0.140773
0.128605
-0.0361156
0.0355123
0.0940918
0.122376
0.13665
0.140239
0.138717
0.134113
0.127472
0.116795
-0.0834147
-0.00615652
0.0588856
0.0927373
0.111509
0.118781
0.120212
0.117968
0.113915
0.105515
-0.129142
-0.0471768
0.0240684
0.0632283
0.0863763
0.097242
0.101597
0.101602
0.0999015
0.0949819
-0.172919
-0.0873111
-0.0101403
0.0340057
0.0613824
0.0757205
0.0829562
0.0851572
0.0854832
0.0838793
-0.214386
-0.126367
-0.0435361
0.00521841
0.0366533
0.0543116
0.0643571
0.0687428
0.0708231
0.0718886
-0.253059
-0.164185
-0.0759395
-0.0229904
0.0123083
0.0331082
0.0458606
0.0524186
0.0560962
0.0592992
-0.288968
-0.200136
-0.10722
-0.0504784
-0.0115416
0.0122001
0.027529
0.0362179
0.0414149
0.0464476
-0.322012
-0.233813
-0.137324
-0.0770991
-0.0347961
-0.00832755
0.00942748
0.0201747
0.0268346
0.0335074
-0.352018
-0.264915
-0.166296
-0.102703
-0.0573687
-0.0283949
-0.00837905
0.00433037
0.0123875
0.0205489
-0.378864
-0.293688
-0.193755
-0.127147
-0.0791849
-0.047927
-0.02583
-0.0112697
-0.00189517
0.007616
-0.402502
-0.320103
-0.219564
-0.150313
-0.100177
-0.0668536
-0.0428712
-0.0265816
-0.015977
-0.00524682
-0.422945
-0.343996
-0.243533
-0.172285
-0.120288
-0.0851086
-0.0594546
-0.0415657
-0.0298182
-0.0179952
-0.440258
-0.365242
-0.265575
-0.193091
-0.13947
-0.102633
-0.0755366
-0.0561893
-0.0433776
-0.0305924
-0.454558
-0.383781
-0.285689
-0.212578
-0.157784
-0.119371
-0.0910774
-0.070428
-0.0566124
-0.0430115
-0.466006
-0.399593
-0.303888
-0.23066
-0.175083
-0.13542
-0.106037
-0.0842679
-0.069475
-0.0552386
-0.474794
-0.412681
-0.320177
-0.247316
-0.191279
-0.150722
-0.120458
-0.0976972
-0.081919
-0.0672674
-0.481134
-0.42306
-0.334565
-0.262548
-0.206363
-0.165216
-0.134274
-0.110743
-0.0939346
-0.0790933
-0.485243
-0.430766
-0.347071
-0.276356
-0.220351
-0.178877
-0.147446
-0.123322
-0.105634
-0.0906315
-0.487328
-0.435856
-0.357734
-0.288738
-0.233255
-0.191711
-0.159967
-0.135396
-0.117043
-0.101745
-0.487575
-0.43842
-0.366605
-0.299692
-0.245089
-0.203731
-0.171849
-0.146961
-0.128116
-0.112451
-0.486143
-0.438593
-0.373727
-0.309243
-0.255873
-0.214952
-0.183106
-0.158028
-0.138811
-0.122831
-0.483162
-0.436577
-0.379163
-0.31743
-0.265633
-0.225394
-0.193752
-0.168608
-0.149117
-0.132946
-0.47874
-0.432648
-0.383004
-0.324296
-0.274405
-0.23508
-0.203801
-0.178716
-0.159044
-0.14282
-0.472977
-0.427141
-0.385371
-0.329887
-0.282232
-0.244041
-0.213272
-0.188369
-0.168602
-0.152436
-0.465981
-0.420532
-0.386286
-0.33425
-0.289161
-0.252308
-0.222189
-0.197585
-0.177804
-0.16177
-0.45788
-0.413346
-0.385719
-0.337453
-0.295246
-0.259916
-0.230577
-0.206384
-0.186665
-0.170812
-0.448833
-0.406043
-0.383683
-0.339596
-0.300542
-0.266899
-0.238464
-0.21479
-0.195204
-0.179568
-0.439043
-0.398948
-0.380281
-0.340805
-0.305098
-0.27329
-0.245881
-0.222828
-0.20344
-0.188052
-0.428766
-0.392238
-0.375731
-0.341217
-0.308961
-0.27912
-0.25286
-0.230525
-0.211396
-0.19628
-0.418304
-0.385946
-0.370383
-0.340962
-0.312173
-0.284426
-0.259434
-0.23791
-0.219092
-0.204271
-0.407978
-0.380013
-0.364697
-0.340155
-0.314772
-0.289245
-0.265634
-0.245011
-0.226551
-0.212042
-0.39812
-0.374341
-0.359161
-0.338887
-0.316802
-0.293611
-0.271489
-0.251851
-0.233796
-0.219617
-0.388956
-0.36885
-0.354166
-0.337233
-0.318315
-0.297556
-0.277022
-0.258454
-0.240851
-0.227015
-0.380606
-0.363527
-0.349894
-0.33529
-0.319375
-0.301097
-0.28225
-0.264836
-0.247734
-0.234264
-0.373093
-0.358433
-0.346308
-0.33321
-0.320051
-0.30424
-0.287183
-0.271008
-0.254465
-0.241384
-0.366378
-0.35367
-0.343221
-0.331209
-0.320412
-0.306981
-0.29183
-0.276968
-0.261045
-0.248415
-0.360389
-0.349337
-0.340431
-0.329492
-0.320536
-0.309316
-0.296199
-0.282694
-0.267492
-0.255358
-0.355052
-0.345484
-0.337823
-0.328137
-0.320523
-0.311248
-0.300306
-0.288123
-0.273802
-0.262281
-0.350299
-0.342099
-0.335391
-0.327072
-0.320494
-0.312804
-0.304171
-0.293163
-0.279999
-0.269118
-0.346069
-0.33913
-0.333187
-0.326165
-0.320542
-0.314041
-0.307841
-0.297614
-0.286194
-0.275916
-0.342298
-0.336513
-0.33125
-0.325334
-0.320673
-0.315067
-0.311318
-0.301338
-0.292365
-0.282499
-0.33891
-0.334196
-0.329574
-0.324568
-0.32083
-0.316003
-0.314571
-0.304067
-0.299227
-0.287847
-0.335862
-0.33211
-0.32812
-0.323883
-0.32098
-0.316912
-0.317518
-0.305848
-0.306343
-0.293307
-0.333098
-0.330204
-0.326839
-0.323279
-0.321148
-0.317758
-0.320084
-0.306905
-0.313092
-0.298393
-0.330561
-0.328438
-0.325679
-0.32273
-0.321376
-0.318421
-0.322288
-0.307384
-0.319428
-0.302331
-0.328203
-0.326777
-0.324596
-0.3222
-0.321658
-0.31879
-0.324222
-0.307357
-0.325426
-0.304701
-0.325983
-0.32519
-0.323554
-0.321649
-0.321935
-0.318844
-0.325919
-0.307018
-0.330838
-0.305475
-0.323868
-0.323653
-0.322525
-0.321045
-0.322131
-0.318618
-0.327294
-0.306752
-0.335022
-0.305164
-0.32183
-0.322161
-0.321472
-0.320381
-0.322194
-0.318308
-0.328222
-0.306933
-0.337468
-0.304863
-0.319858
-0.320706
-0.320382
-0.319677
-0.322077
-0.31793
-0.328633
-0.307643
-0.338188
-0.305396
-0.317949
-0.319288
-0.319262
-0.318957
-0.321725
-0.317539
-0.3286
-0.308724
-0.337573
-0.306751
-0.316109
-0.317912
-0.318123
-0.318201
-0.321111
-0.317263
-0.328123
-0.309855
-0.336166
-0.308377
-0.314351
-0.316591
-0.316986
-0.317418
-0.32034
-0.317062
-0.327186
-0.310958
-0.334386
-0.309787
-0.312693
-0.31534
-0.315874
-0.316624
-0.319471
-0.316845
-0.325917
-0.312137
-0.332283
-0.310814
-0.311161
-0.314179
-0.314816
-0.31584
-0.31856
-0.316598
-0.324538
-0.313171
-0.329908
-0.311845
-0.30978
-0.313128
-0.31384
-0.315092
-0.317666
-0.316324
-0.323165
-0.313981
-0.327714
-0.312668
-0.308576
-0.312209
-0.312974
-0.314408
-0.316839
-0.316036
-0.321895
-0.314576
-0.325792
-0.31329
-0.307577
-0.311444
-0.312246
-0.313818
-0.316126
-0.315759
-0.320803
-0.314987
-0.324199
-0.31377
-0.306805
-0.310852
-0.311677
-0.313348
-0.315561
-0.315517
-0.319945
-0.315248
-0.322978
-0.314127
-0.306279
-0.310448
-0.311287
-0.313023
-0.31517
-0.315339
-0.319356
-0.315398
-0.322153
-0.314363
-0.306012
-0.310243
-0.311089
-0.312856
-0.31497
-0.315245
-0.319056
-0.315464
-0.321738
-0.31448
-0.322003
-0.31262
-0.313908
-0.306436
-0.303
-0.295486
-0.289339
-0.281068
-0.272823
-0.262555
-0.250395
-0.233802
-0.211558
-0.181903
-0.143287
-0.0993734
-0.0581025
-0.0267353
-0.00735599
0.00284845
0.00630596
0.00697982
0.00567914
0.00447451
0.00304658
0.00203517
0.00140549
0.00109134
0.000535609
0.000548983
-0.322241
-0.312751
-0.313996
-0.306539
-0.303076
-0.295564
-0.289404
-0.281158
-0.272921
-0.262686
-0.250578
-0.23405
-0.21188
-0.182312
-0.143738
-0.0997946
-0.0584499
-0.0269918
-0.00754338
0.00271656
0.00621158
0.00691434
0.00563274
0.00444272
0.00302466
0.00201926
0.00139475
0.00108448
0.000531056
0.000546275
-0.322687
-0.312993
-0.314166
-0.306734
-0.303225
-0.295723
-0.28956
-0.2813
-0.273104
-0.262935
-0.250926
-0.234525
-0.212497
-0.183093
-0.144618
-0.100601
-0.0591317
-0.0275024
-0.00792019
0.00244948
0.00602037
0.00678153
0.00553897
0.00437849
0.00298049
0.00198734
0.00137319
0.0010707
0.000521996
0.000540849
-0.323295
-0.313317
-0.314405
-0.307008
-0.303432
-0.295932
-0.289713
-0.281536
-0.273366
-0.263282
-0.25141
-0.235184
-0.213353
-0.184189
-0.145831
-0.101773
-0.0601258
-0.0282634
-0.00848993
0.00204134
0.00572803
0.00657811
0.00539603
0.00428059
0.00291348
0.00193925
0.0013407
0.00104988
0.000508524
0.000532696
-0.32399
-0.313668
-0.314694
-0.307332
-0.303697
-0.296231
-0.290039
-0.281793
-0.273682
-0.2637
-0.251988
-0.235977
-0.214391
-0.1855
-0.147328
-0.103237
-0.0614043
-0.0292694
-0.00925657
0.00148513
0.00532928
0.00630003
0.00520171
0.00414751
0.0028229
0.00187478
0.00129714
0.00102184
0.000490767
0.000521819
-0.324691
-0.314029
-0.314994
-0.307698
-0.303976
-0.296485
-0.290268
-0.282124
-0.274035
-0.26416
-0.252628
-0.236846
-0.215521
-0.186956
-0.149023
-0.104939
-0.0629375
-0.0305132
-0.010223
0.000774282
0.00481893
0.0059434
0.00495383
0.00397773
0.002708
0.00179377
0.00124239
0.000986443
0.000468883
0.000508242
-0.325375
-0.314265
-0.315314
-0.308033
-0.304301
-0.296921
-0.290615
-0.282434
-0.274414
-0.264634
-0.253272
-0.237739
-0.2167
-0.188478
-0.150835
-0.106823
-0.0646953
-0.0319857
-0.0113894
-9.50216e-05
0.00419314
0.00550525
0.00465069
0.00377002
0.00256819
0.00169614
0.00117639
0.000943574
0.000443047
0.000492027
-0.325761
-0.314556
-0.3155
-0.308407
-0.304556
-0.297219
-0.290886
-0.282801
-0.274772
-0.265103
-0.253899
-0.23861
-0.217856
-0.189999
-0.152701
-0.10884
-0.0666487
-0.0336753
-0.0127518
-0.00112304
0.0034505
0.00498413
0.00429148
0.0035237
0.00240317
0.00158199
0.00109916
0.000893189
0.000413447
0.000473281
-0.325788
-0.314788
-0.315542
-0.308735
-0.304784
-0.297571
-0.291179
-0.283127
-0.27512
-0.265532
-0.254472
-0.239419
-0.218946
-0.191464
-0.154569
-0.110946
-0.0687693
-0.0355662
-0.0143021
-0.00230662
0.00259291
0.00438055
0.0038766
0.00323884
0.00221301
0.00145156
0.00101087
0.000835342
0.000380272
0.000452159
-0.325418
-0.31488
-0.315441
-0.308959
-0.304914
-0.297835
-0.291415
-0.283426
-0.27542
-0.265903
-0.254964
-0.240132
-0.219933
-0.192832
-0.156395
-0.113105
-0.0710294
-0.0376394
-0.0160278
-0.00363797
0.00162509
0.00369712
0.00340764
0.00291632
0.00199824
0.00130534
0.000911828
0.000770193
0.000343716
0.000428863
-0.324365
-0.314824
-0.315119
-0.309043
-0.304933
-0.298027
-0.291588
-0.283657
-0.275656
-0.266192
-0.255351
-0.240721
-0.220785
-0.194071
-0.158148
-0.115287
-0.0734022
-0.0398734
-0.0179126
-0.00510555
0.000554448
0.00293821
0.00288738
0.00255783
0.0017598
0.00114401
0.000802477
0.000698014
0.000303972
0.000403629
-0.322443
-0.314511
-0.314529
-0.308926
-0.304806
-0.298066
-0.29165
-0.283789
-0.275797
-0.266374
-0.25561
-0.241167
-0.221482
-0.195159
-0.159803
-0.117468
-0.0758618
-0.0422442
-0.0199369
-0.00669496
-0.000609431
0.00210986
0.00231955
0.00216571
0.00149904
0.00096843
0.000683416
0.000619177
0.000261237
0.00037672
-0.319678
-0.313794
-0.313636
-0.308513
-0.304439
-0.297945
-0.291574
-0.283796
-0.275815
-0.266428
-0.255719
-0.241449
-0.22201
-0.196081
-0.161344
-0.119626
-0.0783838
-0.0447268
-0.0220794
-0.00838987
-0.00185547
0.00121931
0.00170865
0.00174286
0.00121764
0.000779625
0.00055535
0.000534142
0.000215708
0.000348409
-0.316477
-0.312464
-0.312339
-0.307787
-0.303842
-0.297549
-0.291286
-0.283631
-0.275679
-0.266329
-0.255664
-0.241556
-0.222361
-0.196836
-0.162764
-0.121748
-0.0809457
-0.0472963
-0.0243181
-0.010173
-0.00317181
0.000274461
0.00105959
0.00129249
0.000917476
0.000578713
0.000419073
0.000443434
0.000167588
0.000318967
-0.31306
-0.310473
-0.310578
-0.306659
-0.302942
-0.296972
-0.290813
-0.283284
-0.275371
-0.266063
-0.255434
-0.241482
-0.222537
-0.197427
-0.16406
-0.123823
-0.0835272
-0.0499283
-0.0266311
-0.0120272
-0.00454661
-0.000716581
0.000377483
0.000817971
0.000600563
0.000366887
0.000275433
0.000347626
0.000117087
0.000288653
-0.309348
-0.307881
-0.308281
-0.305057
-0.3016
-0.295917
-0.289996
-0.282683
-0.274857
-0.265613
-0.255024
-0.241231
-0.222548
-0.197869
-0.165238
-0.125842
-0.0861105
-0.0526005
-0.0289986
-0.0139367
-0.00596857
-0.00174565
-0.000332319
0.000322876
0.000269078
0.00014542
0.000125321
0.000247326
6.44242e-05
0.000257705
-0.305474
-0.304655
-0.305462
-0.303046
-0.300036
-0.294852
-0.289061
-0.281911
-0.274163
-0.264992
-0.254448
-0.240817
-0.222413
-0.198183
-0.166315
-0.127808
-0.0886854
-0.055296
-0.0314024
-0.0158852
-0.00742542
-0.00280421
-0.00106467
-0.00018949
-7.48277e-05
-8.44561e-05
-3.04333e-05
0.000143108
9.81195e-06
0.000226331
-0.301382
-0.300886
-0.302052
-0.300409
-0.297825
-0.29306
-0.287536
-0.280775
-0.273219
-0.264176
-0.253704
-0.240253
-0.22215
-0.19839
-0.167302
-0.129707
-0.0912216
-0.057979
-0.0338129
-0.0178531
-0.00890688
-0.00388737
-0.00181757
-0.000717991
-0.00043036
-0.000322172
-0.000191314
3.53697e-05
-4.6589e-05
0.000194695
-0.297121
-0.296841
-0.298498
-0.297752
-0.295757
-0.291547
-0.286378
-0.279659
-0.272199
-0.263264
-0.252863
-0.239591
-0.221798
-0.198514
-0.168206
-0.131547
-0.0937308
-0.0606718
-0.0362599
-0.0198655
-0.0104291
-0.00500211
-0.00259268
-0.00126228
-0.000797884
-0.000567494
-0.000356834
-7.54686e-05
-0.000104606
0.000162968
-0.293117
-0.291996
-0.293683
-0.293754
-0.292411
-0.288822
-0.283895
-0.277909
-0.270803
-0.262112
-0.251868
-0.238852
-0.221457
-0.198749
-0.169304
-0.133601
-0.0964624
-0.0635348
-0.0388035
-0.0219216
-0.0119644
-0.00611898
-0.00336894
-0.00180814
-0.00116784
-0.000815247
-0.000524029
-0.000187439
-0.000163582
0.000131522
-0.28792
-0.288227
-0.290117
-0.290809
-0.289956
-0.286951
-0.282769
-0.276391
-0.269343
-0.26074
-0.250531
-0.237578
-0.220316
-0.197844
-0.16886
-0.133837
-0.0973694
-0.0649001
-0.0402946
-0.0233198
-0.0131233
-0.00702808
-0.00403317
-0.002288
-0.00149831
-0.00104036
-0.000677065
-0.000289967
-0.000218361
0.000102897
-0.282227
-0.283318
-0.285403
-0.286605
-0.286103
-0.283351
-0.278963
-0.273579
-0.266814
-0.258386
-0.248239
-0.235334
-0.218192
-0.195968
-0.167527
-0.133367
-0.0978183
-0.0660193
-0.0416828
-0.0246915
-0.0142879
-0.00795245
-0.00471184
-0.00277912
-0.00183715
-0.0012685
-0.000829398
-0.000391792
-0.000271572
7.54718e-05
-0.276256
-0.277956
-0.28029
-0.282046
-0.282012
-0.279754
-0.276114
-0.270673
-0.264097
-0.255817
-0.245727
-0.232874
-0.215872
-0.193926
-0.166062
-0.132794
-0.098194
-0.0670984
-0.0430649
-0.0260837
-0.0154864
-0.0089154
-0.00542542
-0.00329867
-0.00219754
-0.00151131
-0.000990987
-0.000499942
-0.000327833
4.68632e-05
-0.270032
-0.27237
-0.274978
-0.277262
-0.27771
-0.275932
-0.272552
-0.267537
-0.261188
-0.253078
-0.243067
-0.230293
-0.21346
-0.191828
-0.164569
-0.132217
-0.0985767
-0.0681942
-0.0444721
-0.027507
-0.0167182
-0.00991047
-0.00616638
-0.00384
-0.00257434
-0.00176596
-0.00116056
-0.000613462
-0.000386957
1.72457e-05
-0.263507
-0.266589
-0.269486
-0.272251
-0.273178
-0.271851
-0.268854
-0.264185
-0.258078
-0.250155
-0.240248
-0.227577
-0.210942
-0.189657
-0.163034
-0.131617
-0.0989517
-0.0692968
-0.0458994
-0.0289595
-0.0179827
-0.0109373
-0.00693459
-0.00440312
-0.00296764
-0.0020326
-0.00133822
-0.000732397
-0.000448991
-1.3351e-05
-0.256726
-0.260635
-0.263838
-0.267041
-0.268441
-0.267566
-0.264965
-0.260637
-0.254784
-0.247064
-0.237281
-0.224737
-0.208329
-0.187421
-0.161457
-0.130992
-0.0993117
-0.0703969
-0.0473387
-0.0304355
-0.0192768
-0.0119942
-0.00772962
-0.00498806
-0.00337771
-0.00231148
-0.00152409
-0.000856809
-0.000513957
-4.48792e-05
-0.249763
-0.254539
-0.25807
-0.261673
-0.263539
-0.263119
-0.260903
-0.256922
-0.251334
-0.243829
-0.234191
-0.221796
-0.205639
-0.185138
-0.159852
-0.130347
-0.099656
-0.0714897
-0.0487841
-0.0319293
-0.0205963
-0.0130785
-0.00855008
-0.00559407
-0.00380419
-0.00260248
-0.00171808
-0.000986622
-0.000581826
-7.72651e-05
-0.24267
-0.248327
-0.252211
-0.256181
-0.258503
-0.258534
-0.256701
-0.253068
-0.247752
-0.240473
-0.230999
-0.218776
-0.202894
-0.182824
-0.158231
-0.129687
-0.0999841
-0.072571
-0.05023
-0.0334358
-0.0219373
-0.0141875
-0.00939424
-0.0062201
-0.00424649
-0.0029053
-0.00192004
-0.0011217
-0.000652546
-0.000110425
-0.235497
-0.242023
-0.246284
-0.250593
-0.253355
-0.253832
-0.252382
-0.249095
-0.244058
-0.237016
-0.227726
-0.215695
-0.200111
-0.180493
-0.156603
-0.129016
-0.100295
-0.0736362
-0.0516709
-0.0349494
-0.0232955
-0.0153179
-0.0102602
-0.00686497
-0.00470392
-0.00321958
-0.00212979
-0.00126188
-0.000726044
-0.000144267
-0.228293
-0.235649
-0.24031
-0.244934
-0.248116
-0.249034
-0.247964
-0.245023
-0.240271
-0.233475
-0.224388
-0.212572
-0.197305
-0.178159
-0.154976
-0.128338
-0.100587
-0.0746811
-0.0531011
-0.0364647
-0.0246666
-0.0164665
-0.0111458
-0.00752735
-0.00517566
-0.00354488
-0.00234707
-0.00140695
-0.000802227
-0.000178695
-0.221103
-0.229232
-0.234308
-0.239227
-0.242806
-0.244156
-0.243466
-0.240868
-0.236407
-0.229868
-0.221001
-0.20942
-0.19449
-0.17583
-0.153358
-0.127655
-0.100859
-0.0757016
-0.0545155
-0.0379762
-0.0260458
-0.0176298
-0.0120488
-0.00820568
-0.00566074
-0.00388061
-0.00257154
-0.00155667
-0.000880975
-0.000213599
-0.213972
-0.222798
-0.2283
-0.233496
-0.237443
-0.239216
-0.238903
-0.236648
-0.232482
-0.226209
-0.21758
-0.206253
-0.191675
-0.173517
-0.151754
-0.126969
-0.101111
-0.0766942
-0.0559089
-0.0394785
-0.0274286
-0.0188039
-0.0129665
-0.0088982
-0.00615801
-0.00422608
-0.0028028
-0.00171071
-0.000962137
-0.000248865
-0.206943
-0.216376
-0.222306
-0.227768
-0.232052
-0.23423
-0.234293
-0.232377
-0.228511
-0.222512
-0.214138
-0.203083
-0.188873
-0.171225
-0.150168
-0.126283
-0.101341
-0.0776555
-0.0572764
-0.0409663
-0.0288101
-0.0199851
-0.013896
-0.00960291
-0.00666612
-0.00458041
-0.00304032
-0.0018687
-0.00104553
-0.000284369
-0.200058
-0.209998
-0.216351
-0.222065
-0.226654
-0.229218
-0.229651
-0.228073
-0.224508
-0.218792
-0.210686
-0.19992
-0.186092
-0.168963
-0.148605
-0.125597
-0.101549
-0.0785822
-0.0586132
-0.042434
-0.0301851
-0.0211688
-0.0148341
-0.0103175
-0.00718349
-0.00494257
-0.00328348
-0.00203021
-0.00113093
-0.000319976
-0.193353
-0.203696
-0.210455
-0.216413
-0.221275
-0.224201
-0.224998
-0.223754
-0.220492
-0.215062
-0.207239
-0.196778
-0.183342
-0.166737
-0.14707
-0.124914
-0.101733
-0.0794716
-0.0599147
-0.0438763
-0.0315483
-0.0223505
-0.0157772
-0.0110393
-0.00770828
-0.00531132
-0.0035315
-0.00219467
-0.00121807
-0.000355544
-0.18686
-0.197502
-0.204644
-0.210837
-0.21594
-0.219202
-0.220352
-0.219438
-0.216479
-0.211341
-0.20381
-0.193667
-0.180632
-0.164553
-0.145565
-0.124236
-0.101895
-0.0803209
-0.0611762
-0.0452873
-0.0328938
-0.0235251
-0.0167213
-0.0117654
-0.00823835
-0.00568519
-0.00378344
-0.00236146
-0.00130662
-0.000390919
-0.180609
-0.19145
-0.198945
-0.20536
-0.210679
-0.214246
-0.215737
-0.215147
-0.212489
-0.207645
-0.200415
-0.190601
-0.177972
-0.162419
-0.144097
-0.123565
-0.102033
-0.0811276
-0.062393
-0.0466613
-0.0342158
-0.0246871
-0.0176618
-0.0124923
-0.00877122
-0.00606243
-0.00403819
-0.00252981
-0.00139619
-0.000425939
-0.174627
-0.185576
-0.193385
-0.200009
-0.20552
-0.209362
-0.211176
-0.210903
-0.208543
-0.203995
-0.197071
-0.187594
-0.175374
-0.160342
-0.142669
-0.122904
-0.102148
-0.0818895
-0.0635606
-0.0479924
-0.0355076
-0.0258305
-0.0185938
-0.0132161
-0.00930402
-0.006441
-0.00429442
-0.00269883
-0.00148631
-0.000460428
-0.168938
-0.179914
-0.187995
-0.194813
-0.200496
-0.204582
-0.206697
-0.206732
-0.204667
-0.200412
-0.193797
-0.18466
-0.17285
-0.158331
-0.141287
-0.122255
-0.102241
-0.0826045
-0.0646742
-0.0492743
-0.0367624
-0.0269487
-0.0195116
-0.0139325
-0.00983344
-0.00681853
-0.00455055
-0.00286747
-0.00157644
-0.000494195
-0.163568
-0.174499
-0.182807
-0.189803
-0.195639
-0.19994
-0.202332
-0.202662
-0.200885
-0.196919
-0.190612
-0.181816
-0.170413
-0.156394
-0.139957
-0.121622
-0.102312
-0.0832708
-0.0657294
-0.0505007
-0.0379728
-0.0280347
-0.020409
-0.0146363
-0.0103557
-0.00719226
-0.00480473
-0.00303452
-0.00166593
-0.000527034
-0.158537
-0.169366
-0.177854
-0.18501
-0.190984
-0.195471
-0.198115
-0.198724
-0.197227
-0.193544
-0.18754
-0.179082
-0.168077
-0.154544
-0.138686
-0.121009
-0.102363
-0.0838865
-0.0667214
-0.0516646
-0.039131
-0.0290807
-0.0212791
-0.015322
-0.0108665
-0.00755903
-0.00505482
-0.00319856
-0.00175401
-0.000558718
-0.153869
-0.164549
-0.173173
-0.180469
-0.186567
-0.191215
-0.194082
-0.194952
-0.193724
-0.190315
-0.184605
-0.176478
-0.165859
-0.15279
-0.137481
-0.120422
-0.102396
-0.0844502
-0.0676453
-0.0527592
-0.0402286
-0.0300783
-0.0221142
-0.0159832
-0.011361
-0.00791522
-0.00529834
-0.00335799
-0.00183981
-0.000588997
-0.149585
-0.160083
-0.168801
-0.176217
-0.182425
-0.187213
-0.190275
-0.191384
-0.19041
-0.187264
-0.181836
-0.174026
-0.163776
-0.151147
-0.136352
-0.119865
-0.102413
-0.0849605
-0.0684964
-0.0537768
-0.0412564
-0.0310181
-0.022906
-0.0166129
-0.0118336
-0.00825673
-0.00553243
-0.00351096
-0.0019223
-0.000617595
-0.145708
-0.156003
-0.164776
-0.172295
-0.1786
-0.183506
-0.186738
-0.18806