/*--------------------------------*- C++ -*----------------------------------*\
  =========                 |
  \\      /  F ield         | OpenFOAM: The Open Source CFD Toolbox
   \\    /   O peration     | Website:  https://openfoam.org
    \\  /    A nd           | Version:  9
     \\/     M anipulation  |
\*---------------------------------------------------------------------------*/
FoamFile
{
    format      ascii;
    class       surfaceScalarField;
    location    "25";
    object      phi;
}
// * * * * * * * * * * * * * * * * * * * * * * * * * * * * * * * * * * * * * //

dimensions      [0 3 -1 0 0 0 0];

internalField   nonuniform List<scalar> 
16735
(
-0.00300443
0.00300444
-6.31701e-09
-0.00902113
0.00601671
-1.39603e-08
-0.0169273
0.00790622
-1.95245e-08
-0.0259991
0.00907179
-2.41608e-08
-0.0361334
0.0101343
-2.96427e-08
-0.046754
0.0106207
-3.58632e-08
-0.0589672
0.0122132
-4.38678e-08
-0.0700803
0.0111132
-5.09097e-08
-0.0850523
0.014972
-5.73602e-08
0.0113867
-5.97653e-08
-0.096439
-0.00295254
0.00595698
-0.00887261
0.0119368
-0.0166405
0.0156741
-0.0255228
0.0179542
-0.0354028
0.0200143
-0.0456715
0.0208894
-0.0574278
0.0239695
-0.067877
0.0215624
-0.0821031
0.0291981
0.021473
-0.0921893
-0.00285099
0.00880797
-0.00858078
0.0176666
-0.016075
0.0231683
-0.024582
0.0264612
-0.033955
0.0293873
-0.0435271
0.0304615
-0.0543622
0.0348046
-0.0634986
0.0306988
-0.0762502
0.0419497
0.0290181
-0.0837954
-0.00270417
0.0115121
-0.00815583
0.0231182
-0.0152475
0.03026
-0.0232
0.0344136
-0.0318165
0.0380038
-0.0403607
0.0390057
-0.0497947
0.0442386
-0.0569906
0.0378947
-0.0675597
0.0525187
0.0328909
-0.0714325
-0.00251841
0.0140305
-0.00761252
0.0282123
-0.0141818
0.0368294
-0.0214104
0.0416422
-0.0290258
0.0456192
-0.0362302
0.04621
-0.043757
0.0517654
-0.0484018
0.0425394
-0.056068
0.0601849
0.0320977
-0.0552747
-0.00230172
0.0163323
-0.00696954
0.0328802
-0.0129067
0.0427666
-0.0192558
0.0479913
-0.0256319
0.0519952
-0.0312081
0.0517863
-0.0362842
0.0568415
-0.0377736
0.0440288
-0.0417086
0.0641199
0.0257715
-0.0353824
-0.0020634
0.0183957
-0.0062487
0.0370655
-0.0114564
0.0479743
-0.016785
0.0533199
-0.0216903
0.0569005
-0.0253771
0.0554731
-0.0274096
0.058874
-0.0251519
0.0417711
-0.0242268
0.0631948
0.0131665
-0.0116218
-0.00181363
0.0202093
-0.00547378
0.0407256
-0.00986832
0.0523688
-0.0140494
0.057501
-0.0172575
0.0601087
-0.0188183
0.0570339
-0.0171487
0.0572044
-0.0106448
0.0352672
-0.00299682
0.0555469
-0.00704348
0.0172131
-0.00156289
0.0217722
-0.00466926
0.043832
-0.00818063
0.0558802
-0.0110976
0.060418
-0.0123813
0.0613924
-0.0115934
0.0562459
-0.00542641
0.0510374
0.00587278
0.023968
0.0212399
0.0401797
-0.0379665
0.0521629
-0.00132141
0.0230936
-0.00385863
0.0463692
-0.00642931
0.0584509
-0.00796971
0.0619584
-0.00708564
0.0605083
-0.00374011
0.0529004
0.0074622
0.0398351
0.0247899
0.00664029
0.0498171
0.0151525
-0.0820288
0.0938794
-0.00109845
0.024192
-0.00306257
0.0483333
-0.00464464
0.0600329
-0.00469079
0.0620045
-0.00132255
0.05714
0.00509304
0.0464848
0.0218049
0.0231232
0.0456229
-0.0171777
0.0829406
-0.0221652
-0.141781
0.142693
-0.000901587
0.0250936
-0.00229679
0.0497285
-0.0028464
0.0605825
-0.00127609
0.0604342
0.00472522
0.0511387
0.0150986
0.0361115
0.0382083
1.35063e-05
0.0692631
-0.0482325
0.120873
-0.0737755
-0.218384
0.197476
-0.000736098
0.0258297
-0.00156988
0.0505623
-0.00103439
0.0600471
0.00238313
0.0570167
0.0113491
0.0421727
0.026502
0.0209585
0.0570067
-0.0304911
0.0970778
-0.0883036
0.163949
-0.140647
-0.309784
0.255348
-0.000604426
0.0264342
-0.000881567
0.0508394
0.000793793
0.0583717
0.00630671
0.0515038
0.0187396
0.0297398
0.039863
-0.000164892
0.0785624
-0.0691905
0.130122
-0.139863
0.211733
-0.222258
-0.410189
0.312138
-0.000506874
0.026941
-0.000218916
0.0505515
0.0026793
0.0554735
0.0105876
0.0435954
0.0271341
0.0131934
0.0556927
-0.0287235
0.103245
-0.116743
0.167977
-0.204594
0.261712
-0.315993
-0.511841
0.363364
-0.000433988
0.027375
0.000436747
0.0496808
0.00471962
0.0511906
0.0154219
0.0328932
0.0368759
-0.00826071
0.0742935
-0.0661411
0.131268
-0.173718
0.208518
-0.281845
0.309229
-0.416703
-0.607912
0.4053
-0.000374912
0.0277499
0.00112736
0.0481785
0.00701845
0.0452995
0.0210702
0.0188414
0.0484191
-0.0356096
0.0956453
-0.113367
0.162092
-0.240164
0.248529
-0.368282
0.349362
-0.517536
-0.694316
0.435766
-0.000317098
0.028067
0.00190466
0.0459567
0.00971267
0.0374915
0.027841
0.000713122
0.0622027
-0.0699712
0.11936
-0.170524
0.19397
-0.314775
0.284478
-0.45879
0.379012
-0.61207
-0.769697
0.454392
-0.00024358
0.0283106
0.00282883
0.0428843
0.0129631
0.0273572
0.0360426
-0.0223664
0.0784112
-0.11234
0.14452
-0.236633
0.224326
-0.394581
0.313442
-0.547906
0.39751
-0.696138
-0.834621
0.462434
-0.000133983
0.0284446
0.00396659
0.0387837
0.0169471
0.0143767
0.0459126
-0.051332
0.0967297
-0.163157
0.169586
-0.30949
0.250685
-0.47568
0.333911
-0.631131
0.40594
-0.768167
-0.891183
0.462502
3.2869e-05
0.0284117
0.0053886
0.033428
0.0218451
-0.00207975
0.0575189
-0.0870058
0.116264
-0.221902
0.192691
-0.385916
0.271354
-0.554343
0.34588
-0.705657
0.407331
-0.829618
-0.946952
0.4631
0.000251386
0.0281603
0.00716949
0.0265099
0.0278151
-0.0227253
0.0706499
-0.129841
0.135696
-0.286948
0.21222
-0.46244
0.285626
-0.627749
0.350503
-0.770534
0.405241
-0.884356
-0.995336
0.453625
0.00055929
0.027601
0.00938703
0.0176822
0.0349406
-0.0482789
0.0847584
-0.179658
0.153604
-0.355793
0.227207
-0.536044
0.293693
-0.694235
0.349965
-0.826806
0.397485
-0.931876
-1.03644
0.438589
0.000966924
0.0266341
0.0121185
0.00653058
0.0431633
-0.0793236
0.0990196
-0.235515
0.168826
-0.425599
0.237384
-0.604602
0.296427
-0.753278
0.344947
-0.875325
0.386365
-0.973294
-1.07325
0.423174
0.00148564
0.0251485
0.0154305
-0.00741428
0.0522411
-0.116134
0.112497
-0.29577
0.18067
-0.493773
0.243014
-0.666945
0.294718
-0.804982
0.33662
-0.917228
0.373029
-1.0097
-1.10607
0.405847
0.00212942
0.0230191
0.0193524
-0.0246372
0.0617664
-0.158548
0.124344
-0.358348
0.188918
-0.558346
0.244605
-0.722632
0.289514
-0.849891
0.325822
-0.953536
0.358004
-1.04188
-1.13581
0.387746
0.00291989
0.0200992
0.0238449
-0.0455623
0.0712273
-0.205931
0.133972
-0.421093
0.193693
-0.618068
0.242781
-0.771721
0.28161
-0.88872
0.313218
-0.985143
0.341908
-1.07058
-1.16287
0.368966
0.00389005
0.0162091
0.0287882
-0.0704604
0.0800765
-0.257219
0.141095
-0.482111
0.195314
-0.672286
0.238162
-0.81457
0.27167
-0.922228
0.299326
-1.0128
0.325017
-1.09627
-1.18753
0.349677
0.00508018
0.0111289
0.0339966
-0.0993768
0.0878156
-0.311038
0.145692
-0.539988
0.19419
-0.720785
0.231314
-0.851694
0.260216
-0.951129
0.284511
-1.0371
0.307578
-1.11933
-1.20998
0.330028
0.00652136
0.00460758
0.0392517
-0.132107
0.0940889
-0.365875
0.147906
-0.593805
0.190754
-0.763632
0.222725
-0.883665
0.247653
-0.976057
0.269045
-1.05849
0.289737
-1.14003
-1.23031
0.310067
0.00821285
-0.00360526
0.0443309
-0.168225
0.0987225
-0.420267
0.147966
-0.643049
0.185414
-0.80108
0.212801
-0.911051
0.234288
-0.997544
0.253116
-1.07732
0.271598
-1.15851
-1.24858
0.289867
0.0101097
-0.0137149
0.0490178
-0.207133
0.101691
-0.47294
0.146137
-0.687494
0.178542
-0.833485
0.20187
-0.934379
0.220351
-1.01603
0.23686
-1.09382
0.253237
-1.17488
-1.2648
0.269463
0.0121311
-0.025846
0.0531096
-0.248112
0.103067
-0.522898
0.142688
-0.727115
0.170456
-0.861254
0.190195
-0.954118
0.20601
-1.03184
0.220373
-1.10819
0.234707
-1.18922
-1.27899
0.248897
0.0141816
-0.0400276
0.0564353
-0.290366
0.102976
-0.569438
0.137875
-0.762014
0.161425
-0.884804
0.177978
-0.970671
0.191391
-1.04525
0.203724
-1.12052
0.216053
-1.20155
-1.29114
0.228202
0.0161739
-0.0562015
0.0588775
-0.333069
0.10157
-0.612131
0.131938
-0.792381
0.151669
-0.904535
0.165378
-0.98438
0.176585
-1.05646
0.186964
-1.1309
0.19731
-1.21189
-1.30124
0.207411
0.0180372
-0.0742387
0.0603813
-0.375413
0.0990152
-0.650765
0.125088
-0.818454
0.141369
-0.920816
0.152517
-0.995529
0.161663
-1.06561
0.170136
-1.13937
0.178511
-1.22027
-1.30929
0.186559
0.0197132
-0.0939519
0.0609478
-0.416648
0.0954718
-0.685289
0.117514
-0.840496
0.130674
-0.933976
0.139488
-1.00434
0.146678
-1.07279
0.153275
-1.14597
0.159684
-1.22668
-1.31528
0.165675
0.0211489
-0.115101
0.0606171
-0.456116
0.0910923
-0.715764
0.109379
-0.858783
0.119704
-0.944301
0.126363
-1.011
0.131671
-1.0781
0.136412
-1.15071
0.14086
-1.23112
-1.31922
0.144795
0.0222942
-0.137395
0.0594473
-0.493269
0.086015
-0.742332
0.100822
-0.87359
0.108557
-0.952036
0.113199
-1.01565
0.116678
-1.08158
0.119576
-1.15361
0.122066
-1.23361
-1.3211
0.123952
0.0231059
-0.160501
0.0575262
-0.52769
0.0803661
-0.765172
0.0919598
-0.885184
0.0973093
-0.957385
0.100041
-1.01838
0.101728
-1.08327
0.10279
-1.15467
0.103332
-1.23416
-1.32096
0.103188
0.0235554
-0.184056
0.0550327
-0.559167
0.0742639
-0.784403
0.0828866
-0.893806
0.0860243
-0.960523
0.086924
-1.01928
0.0868459
-1.08319
0.0860771
-1.1539
0.0846848
-1.23276
-1.31883
0.0825547
0.0236311
-0.207687
0.0520318
-0.587568
0.0678125
-0.800184
0.0736818
-0.899676
0.074751
-0.961592
0.0738797
-1.0184
0.0720556
-1.08137
0.0694616
-1.15131
0.0661464
-1.22945
-1.3147
0.0620187
0.0233386
-0.231026
0.0485954
-0.612824
0.0611023
-0.812691
0.0644114
-0.902985
0.0635288
-0.96071
0.0609331
-1.01581
0.0573788
-1.07781
0.0529689
-1.1469
0.0477347
-1.22421
-1.30856
0.0415965
0.0226993
-0.253725
0.0447972
-0.634922
0.0542128
-0.822106
0.0551298
-0.903902
0.05239
-0.95797
0.0481067
-1.01153
0.0428355
-1.07254
0.0366246
-1.14069
0.0294939
-1.21708
-1.30038
0.0213142
0.0217465
-0.275472
0.0407075
-0.653883
0.0471948
-0.828593
0.0458807
-0.902588
0.0413611
-0.95345
0.0354203
-1.00559
0.0284443
-1.06556
0.0204422
-1.13269
0.0114878
-1.20813
-1.29
0.00110797
0.0205212
-0.295993
0.036392
-0.669754
0.0401058
-0.832307
0.0367003
-0.899182
0.030465
-0.947215
0.0228914
-0.998011
0.0142235
-1.0569
0.00439781
-1.12286
-0.00627504
-1.19746
-1.27766
-0.0186201
0.0190668
-0.31506
0.0319109
-0.682598
0.0329988
-0.833395
0.0276195
-0.893803
0.0197198
-0.939315
0.0105296
-0.988821
0.000153528
-1.04652
-0.0113031
-1.1114
-0.0239165
-1.18484
-1.26348
-0.038089
0.0174258
-0.332486
0.0273186
-0.692491
0.0259172
-0.831994
0.0186646
-0.88655
0.00913168
-0.929782
-0.0016596
-0.97803
-0.0135757
-1.0346
-0.0267533
-1.09823
-0.0412604
-1.17034
-1.24746
-0.0572899
0.0156383
-0.348124
0.0226634
-0.699516
0.0188973
-0.828228
0.00985611
-0.877509
-0.00130846
-0.918618
-0.0135307
-0.965808
-0.0271089
-1.02103
-0.0419729
-1.08336
-0.0583088
-1.154
-1.22959
-0.0761776
0.0137408
-0.361865
0.0179877
-0.703763
0.0119665
-0.822206
0.0011847
-0.866727
-0.0113745
-0.906058
-0.0252134
-0.951969
-0.0403945
-1.00585
-0.0569277
-1.06683
-0.0750428
-1.13589
-1.2099
-0.0947323
0.0117669
-0.373632
0.0133285
-0.705324
0.00513572
-0.814014
-0.00720018
-0.854391
-0.0212775
-0.891981
-0.0366622
-0.936584
-0.0534158
-0.989092
-0.071593
-1.04865
-0.0914467
-1.11603
-1.18842
-0.112925
0.00974644
-0.383378
0.00872099
-0.704299
-0.00156638
-0.803726
-0.0154112
-0.840546
-0.0309628
-0.87643
-0.0478588
-0.919688
-0.0661564
-0.970794
-0.0859474
-1.02886
-0.107502
-1.09448
-1.16518
-0.130736
0.00770458
-0.391083
0.00420521
-0.7008
-0.00795512
-0.791566
-0.0234199
-0.825082
-0.0404134
-0.859436
-0.058789
-0.901312
-0.0786011
-0.950982
-0.0999724
-1.00749
-0.123191
-1.07126
-1.14023
-0.148143
0.00566009
-0.396743
-0.00012519
-0.695014
-0.0142128
-0.777478
-0.0312114
-0.808083
-0.0496184
-0.841029
-0.0694402
-0.881491
-0.0907354
-0.929687
-0.113652
-0.984572
-0.138497
-1.04641
-1.11361
-0.165124
0.00363132
-0.400374
-0.00467948
-0.686704
-0.0203083
-0.76185
-0.0387715
-0.78962
-0.0585664
-0.821234
-0.0798007
-0.860256
-0.102545
-0.906943
-0.126971
-0.960146
-0.153405
-1.01998
-1.08536
-0.181651
0.00165459
-0.402029
-0.00898127
-0.676068
-0.0262234
-0.744608
-0.046091
-0.769752
-0.0672471
-0.800078
-0.0898594
-0.837644
-0.114017
-0.882785
-0.139915
-0.934248
-0.167895
-0.992
-1.05555
-0.1977
-0.000237569
-0.401791
-0.0131154
-0.66319
-0.0319483
-0.725775
-0.0531652
-0.748535
-0.0756507
-0.777593
-0.0996051
-0.81369
-0.12514
-0.857251
-0.152475
-0.906913
-0.181952
-0.962523
-1.02423
-0.213275
-0.00236335
-0.399428
-0.0170981
-0.648455
-0.0374704
-0.705402
-0.0599882
-0.726018
-0.0837681
-0.753813
-0.109027
-0.78843
-0.135903
-0.830375
-0.164651
-0.878165
-0.195568
-0.931606
-0.991456
-0.228343
-0.0043423
-0.395085
-0.0209279
-0.63187
-0.0427783
-0.683552
-0.0665542
-0.702242
-0.0915908
-0.728776
-0.118116
-0.761905
-0.146299
-0.802191
-0.176436
-0.848029
-0.208698
-0.899343
-0.957487
-0.242667
-0.00623474
-0.388851
-0.0246021
-0.613502
-0.0478657
-0.660288
-0.0728578
-0.677249
-0.0991106
-0.702523
-0.126862
-0.734154
-0.156318
-0.772735
-0.187785
-0.816563
-0.221351
-0.865777
-0.92272
-0.256118
-0.00804694
-0.380804
-0.0281173
-0.593432
-0.0527281
-0.635677
-0.0788935
-0.651084
-0.10632
-0.675096
-0.135257
-0.705218
-0.165944
-0.742047
-0.198643
-0.783864
-0.233059
-0.83136
-0.88576
-0.27002
-0.00977921
-0.371024
-0.0314702
-0.571741
-0.0573619
-0.609786
-0.0846566
-0.623789
-0.113214
-0.646539
-0.143293
-0.675139
-0.175154
-0.710185
-0.208971
-0.750048
-0.244647
-0.795684
-0.847211
-0.283196
-0.0114302
-0.359594
-0.0346581
-0.548513
-0.0617644
-0.58268
-0.0901423
-0.595411
-0.119784
-0.616897
-0.150962
-0.643962
-0.183949
-0.677198
-0.218908
-0.715089
-0.255961
-0.758631
-0.807326
-0.295847
-0.0129978
-0.346596
-0.037678
-0.523833
-0.065933
-0.554425
-0.0953466
-0.565998
-0.126025
-0.586219
-0.158251
-0.611736
-0.192305
-0.643144
-0.22835
-0.679044
-0.266624
-0.720356
-0.766176
-0.307774
-0.0144801
-0.332116
-0.0405277
-0.497785
-0.0698657
-0.525087
-0.100265
-0.535598
-0.131931
-0.554552
-0.165156
-0.578511
-0.200227
-0.608073
-0.237331
-0.64194
-0.276761
-0.680926
-0.723881
-0.319056
-0.0158746
-0.316242
-0.0432049
-0.470455
-0.0735603
-0.494731
-0.104895
-0.504264
-0.137497
-0.521951
-0.171666
-0.544342
-0.207699
-0.572039
-0.245807
-0.603832
-0.286313
-0.64042
-0.680513
-0.329681
-0.0171789
-0.299063
-0.0457079
-0.441926
-0.0770151
-0.463424
-0.109231
-0.472047
-0.142715
-0.488467
-0.177775
-0.509283
-0.214717
-0.535096
-0.253774
-0.564776
-0.295286
-0.598908
-0.636145
-0.339654
-0.0183901
-0.280673
-0.0480352
-0.412281
-0.0802284
-0.431231
-0.113272
-0.439004
-0.147583
-0.454156
-0.183476
-0.47339
-0.221271
-0.497302
-0.261217
-0.52483
-0.303664
-0.556461
-0.590843
-0.348966
-0.0195041
-0.261169
-0.050185
-0.3816
-0.0831985
-0.398217
-0.117013
-0.405189
-0.152094
-0.419075
-0.188763
-0.43672
-0.227352
-0.458713
-0.268125
-0.484057
-0.311439
-0.513146
-0.544673
-0.357609
-0.0205143
-0.240654
-0.0521555
-0.349959
-0.0859246
-0.364448
-0.120453
-0.370661
-0.156245
-0.383283
-0.19363
-0.399334
-0.232953
-0.41939
-0.27449
-0.44252
-0.318601
-0.469035
-0.497704
-0.365571
-0.0214062
-0.219248
-0.0539458
-0.317419
-0.0884061
-0.329988
-0.123588
-0.335479
-0.160031
-0.34684
-0.198072
-0.361293
-0.238067
-0.379396
-0.280303
-0.400283
-0.325141
-0.424197
-0.450003
-0.372841
-0.0222247
-0.197024
-0.0555579
-0.284086
-0.0906428
-0.294903
-0.126416
-0.299707
-0.163449
-0.309807
-0.202083
-0.322659
-0.242687
-0.338792
-0.285556
-0.357414
-0.331049
-0.378705
-0.401644
-0.379408
-0.0229696
-0.174054
-0.0569926
-0.250063
-0.0926339
-0.259262
-0.128935
-0.263406
-0.166495
-0.272247
-0.205659
-0.283495
-0.246807
-0.297643
-0.290242
-0.313979
-0.336317
-0.33263
-0.352698
-0.385263
-0.0236287
-0.150425
-0.0582494
-0.215442
-0.0943784
-0.223133
-0.131142
-0.226642
-0.169167
-0.234222
-0.208796
-0.243866
-0.250423
-0.256016
-0.294356
-0.270047
-0.340939
-0.286046
-0.303241
-0.390396
-0.0241972
-0.126228
-0.0593279
-0.180311
-0.0958755
-0.186585
-0.133038
-0.189479
-0.171462
-0.195798
-0.211492
-0.203836
-0.25353
-0.213978
-0.297889
-0.225688
-0.344908
-0.239027
-0.25335
-0.394799
-0.0246728
-0.101555
-0.0602274
-0.144757
-0.0971244
-0.149688
-0.13462
-0.151984
-0.173377
-0.157041
-0.213742
-0.163472
-0.256124
-0.171595
-0.300837
-0.180974
-0.348217
-0.191647
-0.203099
-0.398468
-0.0250543
-0.0765009
-0.0609475
-0.108864
-0.0981243
-0.112511
-0.135886
-0.114222
-0.174912
-0.118016
-0.215544
-0.122839
-0.258202
-0.128938
-0.303199
-0.135978
-0.350864
-0.143982
-0.152564
-0.401399
-0.0253409
-0.05116
-0.0614879
-0.0727168
-0.0988748
-0.0751242
-0.136837
-0.0762595
-0.176064
-0.0787891
-0.216898
-0.0820046
-0.259762
-0.0860733
-0.304971
-0.0907694
-0.352848
-0.0961052
-0.101821
-0.403591
-0.0255322
-0.0256278
-0.0618483
-0.0364006
-0.0993753
-0.0375971
-0.137472
-0.0381632
-0.176833
-0.0394281
-0.217801
-0.0410359
-0.260803
-0.0430711
-0.306153
-0.0454199
-0.354171
-0.0480875
-0.0509432
-0.405048
-0.0256278
-9.98307e-10
-0.0620285
-1.44256e-09
-0.0996256
-1.45158e-09
-0.137789
-1.41588e-09
-0.177217
-1.39552e-09
-0.218253
-1.37746e-09
-0.261324
-1.36468e-09
-0.306744
-1.35303e-09
-0.354832
-1.34162e-09
-1.32449e-09
-0.405775
-0.0256278
0.0256278
-0.0620285
0.0364006
-0.0996256
0.0375971
-0.137789
0.0381632
-0.177217
0.0394281
-0.218253
0.0410359
-0.261324
0.0430711
-0.306744
0.0454199
-0.354832
0.0480875
0.0509432
-0.405775
-0.0255322
0.05116
-0.0618483
0.0727167
-0.0993753
0.0751242
-0.137472
0.0762595
-0.176833
0.0787891
-0.217801
0.0820046
-0.260803
0.0860733
-0.306153
0.0907694
-0.354171
0.0961052
0.101821
-0.405048
-0.0253409
0.0765009
-0.0614879
0.108864
-0.0988748
0.112511
-0.136837
0.114222
-0.176064
0.118016
-0.216898
0.122839
-0.259762
0.128938
-0.304971
0.135978
-0.352848
0.143982
0.152564
-0.403591
-0.0250543
0.101555
-0.0609475
0.144757
-0.0981243
0.149688
-0.135886
0.151984
-0.174912
0.157041
-0.215544
0.163472
-0.258202
0.171595
-0.303199
0.180974
-0.350864
0.191647
0.203099
-0.401399
-0.0246728
0.126228
-0.0602274
0.180311
-0.0971244
0.186585
-0.13462
0.189479
-0.173377
0.195798
-0.213742
0.203836
-0.256124
0.213978
-0.300837
0.225688
-0.348217
0.239027
0.25335
-0.398468
-0.0241972
0.150425
-0.0593279
0.215442
-0.0958755
0.223133
-0.133038
0.226642
-0.171462
0.234222
-0.211492
0.243866
-0.25353
0.256016
-0.297889
0.270047
-0.344908
0.286046
0.303241
-0.394799
-0.0236287
0.174054
-0.0582494
0.250063
-0.0943784
0.259262
-0.131142
0.263406
-0.169167
0.272247
-0.208796
0.283495
-0.250423
0.297643
-0.294356
0.313979
-0.340939
0.33263
0.352698
-0.390396
-0.0229696
0.197024
-0.0569926
0.284086
-0.0926339
0.294903
-0.128935
0.299707
-0.166495
0.309807
-0.205659
0.322659
-0.246807
0.338792
-0.290242
0.357414
-0.336317
0.378705
0.401644
-0.385263
-0.0222247
0.219248
-0.0555579
0.317419
-0.0906428
0.329988
-0.126416
0.335479
-0.163449
0.34684
-0.202083
0.361293
-0.242687
0.379396
-0.285556
0.400283
-0.331049
0.424197
0.450003
-0.379408
-0.0214062
0.240654
-0.0539458
0.349959
-0.0884061
0.364448
-0.123588
0.370661
-0.160031
0.383283
-0.198072
0.399334
-0.238067
0.41939
-0.280303
0.44252
-0.325141
0.469035
0.497704
-0.372841
-0.0205143
0.261169
-0.0521555
0.3816
-0.0859246
0.398217
-0.120453
0.405189
-0.156245
0.419075
-0.19363
0.43672
-0.232953
0.458713
-0.27449
0.484057
-0.318601
0.513146
0.544673
-0.365571
-0.0195041
0.280673
-0.050185
0.412281
-0.0831985
0.431231
-0.117013
0.439004
-0.152094
0.454156
-0.188763
0.47339
-0.227352
0.497302
-0.268125
0.52483
-0.311439
0.556461
0.590843
-0.357609
-0.0183901
0.299063
-0.0480352
0.441926
-0.0802284
0.463424
-0.113272
0.472047
-0.147583
0.488467
-0.183476
0.509283
-0.221271
0.535096
-0.261217
0.564776
-0.303664
0.598908
0.636145
-0.348966
-0.0171789
0.316242
-0.0457079
0.470455
-0.0770151
0.494731
-0.109231
0.504264
-0.142715
0.521951
-0.177775
0.544342
-0.214717
0.572039
-0.253774
0.603832
-0.295286
0.64042
0.680513
-0.339654
-0.0158746
0.332116
-0.0432049
0.497785
-0.0735603
0.525087
-0.104895
0.535598
-0.137497
0.554552
-0.171666
0.578511
-0.207699
0.608073
-0.245807
0.64194
-0.286313
0.680926
0.723881
-0.329681
-0.0144801
0.346596
-0.0405277
0.523833
-0.0698657
0.554425
-0.100265
0.565998
-0.131931
0.586219
-0.165156
0.611736
-0.200227
0.643144
-0.237331
0.679044
-0.276761
0.720356
0.766176
-0.319056
-0.0129978
0.359594
-0.037678
0.548513
-0.065933
0.58268
-0.0953466
0.595411
-0.126025
0.616897
-0.158251
0.643962
-0.192305
0.677198
-0.22835
0.715089
-0.266624
0.758631
0.807326
-0.307774
-0.0114302
0.371024
-0.0346581
0.571741
-0.0617644
0.609786
-0.0901423
0.623789
-0.119784
0.646539
-0.150962
0.675139
-0.183949
0.710185
-0.218908
0.750048
-0.255961
0.795684
0.847211
-0.295847
-0.00977921
0.380804
-0.0314702
0.593432
-0.0573619
0.635677
-0.0846566
0.651084
-0.113214
0.675096
-0.143293
0.705218
-0.175154
0.742047
-0.208971
0.783864
-0.244647
0.83136
0.88576
-0.283196
-0.00804694
0.388851
-0.0281173
0.613502
-0.0527281
0.660288
-0.0788935
0.677249
-0.10632
0.702523
-0.135257
0.734154
-0.165944
0.772735
-0.198643
0.816563
-0.233059
0.865777
0.92272
-0.27002
-0.00623474
0.395085
-0.0246021
0.63187
-0.0478657
0.683552
-0.0728578
0.702242
-0.0991106
0.728776
-0.126862
0.761905
-0.156318
0.802191
-0.187785
0.848029
-0.221351
0.899343
0.957487
-0.256118
-0.0043423
0.399428
-0.0209279
0.648455
-0.0427783
0.705402
-0.0665542
0.726018
-0.0915908
0.753813
-0.118116
0.78843
-0.146299
0.830375
-0.176436
0.878165
-0.208698
0.931606
0.991456
-0.242667
-0.00236335
0.401791
-0.0170981
0.66319
-0.0374704
0.725775
-0.0599882
0.748535
-0.0837681
0.777593
-0.109027
0.81369
-0.135903
0.857251
-0.164651
0.906913
-0.195568
0.962523
1.02423
-0.228343
-0.000237569
0.402029
-0.0131154
0.676068
-0.0319483
0.744607
-0.0531652
0.769752
-0.0756507
0.800078
-0.0996051
0.837644
-0.12514
0.882785
-0.152475
0.934248
-0.181952
0.992
1.05555
-0.213275
0.00165459
0.400374
-0.00898127
0.686704
-0.0262234
0.76185
-0.046091
0.78962
-0.0672471
0.821234
-0.0898594
0.860256
-0.114017
0.906943
-0.139915
0.960146
-0.167895
1.01998
1.08536
-0.1977
0.00363132
0.396743
-0.00467948
0.695014
-0.0203083
0.777478
-0.0387715
0.808083
-0.0585664
0.841029
-0.0798007
0.881491
-0.102545
0.929687
-0.126971
0.984572
-0.153405
1.04641
1.11361
-0.181651
0.00566009
0.391083
-0.00012519
0.7008
-0.0142128
0.791566
-0.0312114
0.825082
-0.0496184
0.859436
-0.0694402
0.901312
-0.0907354
0.950982
-0.113652
1.00749
-0.138497
1.07126
1.14023
-0.165124
0.00770458
0.383378
0.00420521
0.704299
-0.00795512
0.803726
-0.0234199
0.840546
-0.0404134
0.87643
-0.058789
0.919688
-0.0786011
0.970794
-0.0999724
1.02886
-0.123191
1.09448
1.16518
-0.148143
0.00974644
0.373632
0.00872099
0.705324
-0.00156638
0.814014
-0.0154112
0.854391
-0.0309628
0.891981
-0.0478588
0.936584
-0.0661564
0.989092
-0.0859474
1.04865
-0.107502
1.11603
1.18842
-0.130736
0.0117669
0.361865
0.0133285
0.703763
0.00513572
0.822206
-0.00720018
0.866727
-0.0212775
0.906058
-0.0366622
0.951969
-0.0534158
1.00585
-0.071593
1.06683
-0.0914467
1.13589
1.2099
-0.112925
0.0137408
0.348124
0.0179877
0.699516
0.0119665
0.828228
0.0011847
0.877509
-0.0113745
0.918618
-0.0252134
0.965808
-0.0403945
1.02103
-0.0569277
1.08336
-0.0750428
1.154
1.22959
-0.0947323
0.0156383
0.332486
0.0226634
0.692491
0.0188973
0.831994
0.00985611
0.88655
-0.00130846
0.929782
-0.0135307
0.97803
-0.0271089
1.0346
-0.0419729
1.09823
-0.0583088
1.17034
1.24746
-0.0761776
0.0174258
0.31506
0.0273186
0.682598
0.0259172
0.833395
0.0186646
0.893803
0.00913168
0.939315
-0.00165961
0.988821
-0.0135757
1.04652
-0.0267534
1.1114
-0.0412604
1.18484
1.26348
-0.0572899
0.0190668
0.295993
0.0319109
0.669754
0.0329988
0.832307
0.0276195
0.899182
0.0197198
0.947215
0.0105296
0.998011
0.000153528
1.0569
-0.0113031
1.12286
-0.0239165
1.19746
1.27766
-0.038089
0.0205212
0.275472
0.036392
0.653883
0.0401058
0.828593
0.0367003
0.902588
0.030465
0.95345
0.0228914
1.00558
0.0142235
1.06556
0.00439781
1.13269
-0.00627504
1.20813
1.29
-0.0186201
0.0217465
0.253725
0.0407075
0.634922
0.0471948
0.822106
0.0458807
0.903902
0.0413611
0.95797
0.0354203
1.01153
0.0284443
1.07254
0.0204422
1.14069
0.0114878
1.21708
1.30038
0.00110797
0.0226993
0.231026
0.0447972
0.612824
0.0542128
0.812691
0.0551298
0.902985
0.05239
0.96071
0.0481067
1.01581
0.0428355
1.07781
0.0366246
1.1469
0.0294939
1.22421
1.30856
0.0213142
0.0233386
0.207687
0.0485954
0.587568
0.0611023
0.800184
0.0644114
0.899676
0.0635288
0.961592
0.0609331
1.0184
0.0573788
1.08137
0.0529689
1.15131
0.0477347
1.22945
1.3147
0.0415965
0.0236311
0.184056
0.0520318
0.559167
0.0678125
0.784403
0.0736818
0.893806
0.074751
0.960523
0.0738797
1.01928
0.0720556
1.08319
0.0694616
1.1539
0.0661464
1.23276
1.31883
0.0620187
0.0235554
0.160501
0.0550327
0.52769
0.0742639
0.765172
0.0828866
0.885184
0.0860243
0.957385
0.086924
1.01838
0.0868459
1.08327
0.0860771
1.15467
0.0846848
1.23416
1.32096
0.0825547
0.0231059
0.137395
0.0575262
0.493269
0.0803661
0.742332
0.0919598
0.87359
0.0973093
0.952036
0.100041
1.01565
0.101728
1.08158
0.10279
1.15361
0.103332
1.23361
1.3211
0.103188
0.0222942
0.115101
0.0594473
0.456116
0.086015
0.715764
0.100822
0.858783
0.108557
0.944301
0.113199
1.011
0.116678
1.0781
0.119576
1.15071
0.122066
1.23112
1.31922
0.123952
0.0211489
0.0939519
0.0606171
0.416648
0.0910923
0.685289
0.109379
0.840496
0.119704
0.933976
0.126363
1.00434
0.131671
1.07279
0.136412
1.14597
0.14086
1.22668
1.31528
0.144795
0.0197132
0.0742387
0.0609478
0.375413
0.0954718
0.650765
0.117514
0.818454
0.130674
0.920816
0.139488
0.995529
0.146678
1.06561
0.153275
1.13937
0.159684
1.22027
1.30929
0.165675
0.0180372
0.0562015
0.0603813
0.333069
0.0990152
0.612131
0.125088
0.792381
0.141369
0.904535
0.152517
0.98438
0.161663
1.05646
0.170136
1.1309
0.178511
1.21189
1.30124
0.186559
0.0161739
0.0400276
0.0588775
0.290366
0.10157
0.569438
0.131938
0.762014
0.151669
0.884804
0.165378
0.970671
0.176585
1.04525
0.186964
1.12052
0.19731
1.20155
1.29114
0.207411
0.0141816
0.025846
0.0564353
0.248112
0.102976
0.522898
0.137875
0.727115
0.161425
0.861254
0.177978
0.954118
0.191391
1.03184
0.203724
1.10819
0.216053
1.18922
1.27899
0.228202
0.0121311
0.0137149
0.0531096
0.207133
0.103067
0.47294
0.142688
0.687494
0.170456
0.833485
0.190195
0.934379
0.20601
1.01603
0.220373
1.09382
0.234707
1.17488
1.2648
0.248897
0.0101097
0.00360526
0.0490178
0.168225
0.101691
0.420267
0.146137
0.643049
0.178542
0.80108
0.20187
0.911051
0.220351
0.997544
0.23686
1.07732
0.253237
1.15851
1.24858
0.269463
0.00821285
-0.00460758
0.0443309
0.132107
0.0987225
0.365875
0.147966
0.593805
0.185414
0.763632
0.212801
0.883665
0.234288
0.976057
0.253116
1.05849
0.271598
1.14003
1.23031
0.289867
0.00652136
-0.0111289
0.0392517
0.0993768
0.0940889
0.311038
0.147906
0.539988
0.190754
0.720785
0.222725
0.851694
0.247653
0.951129
0.269045
1.0371
0.289737
1.11933
1.20998
0.310067
0.00508018
-0.0162091
0.0339966
0.0704604
0.0878156
0.257219
0.145692
0.482111
0.19419
0.672286
0.231314
0.81457
0.260216
0.922228
0.284511
1.0128
0.307578
1.09627
1.18753
0.330028
0.00389005
-0.0200992
0.0287882
0.0455623
0.0800765
0.205931
0.141095
0.421093
0.195314
0.618068
0.238162
0.771721
0.27167
0.88872
0.299326
0.985143
0.325017
1.07058
1.16287
0.349677
0.00291989
-0.0230191
0.0238449
0.0246372
0.0712273
0.158548
0.133972
0.358348
0.193693
0.558346
0.242781
0.722632
0.28161
0.849891
0.313218
0.953536
0.341908
1.04188
1.13581
0.368966
0.00212942
-0.0251485
0.0193524
0.00741428
0.0617664
0.116134
0.124344
0.29577
0.188918
0.493773
0.244605
0.666945
0.289514
0.804982
0.325822
0.917228
0.358004
1.0097
1.10607
0.387746
0.00148564
-0.0266341
0.0154305
-0.00653057
0.0522411
0.0793236
0.112497
0.235515
0.18067
0.425599
0.243014
0.604602
0.294718
0.753278
0.33662
0.875325
0.373029
0.973294
1.07325
0.405847
0.000966925
-0.027601
0.0121185
-0.0176822
0.0431633
0.0482789
0.0990196
0.179658
0.168826
0.355793
0.237384
0.536044
0.296427
0.694235
0.344947
0.826806
0.386365
0.931876
1.03644
0.423174
0.00055929
-0.0281603
0.00938703
-0.0265099
0.0349406
0.0227253
0.0847584
0.129841
0.153604
0.286948
0.227207
0.46244
0.293693
0.627749
0.349965
0.770534
0.397485
0.884356
0.995336
0.438589
0.000251386
-0.0284117
0.00716949
-0.033428
0.0278151
0.00207975
0.0706499
0.0870058
0.135696
0.221902
0.21222
0.385916
0.285626
0.554343
0.350503
0.705657
0.405241
0.829618
0.946952
0.453625
3.28693e-05
-0.0284446
0.0053886
-0.0387837
0.0218451
-0.0143767
0.0575189
0.051332
0.116264
0.163157
0.192691
0.30949
0.271354
0.47568
0.34588
0.631131
0.407331
0.768167
0.891183
0.463099
-0.000133983
-0.0283106
0.00396659
-0.0428843
0.0169471
-0.0273572
0.0459126
0.0223664
0.0967297
0.11234
0.169586
0.236633
0.250685
0.394581
0.333911
0.547906
0.40594
0.696138
0.834621
0.462502
-0.00024358
-0.028067
0.00282883
-0.0459567
0.0129631
-0.0374915
0.0360426
-0.000713114
0.0784112
0.0699713
0.14452
0.170524
0.224326
0.314775
0.313442
0.45879
0.39751
0.61207
0.769697
0.462434
-0.000317098
-0.0277499
0.00190466
-0.0481785
0.00971267
-0.0452995
0.027841
-0.0188414
0.0622027
0.0356096
0.11936
0.113367
0.19397
0.240164
0.284477
0.368282
0.379012
0.517536
0.694316
0.454392
-0.000374912
-0.027375
0.00112736
-0.0496808
0.00701845
-0.0511906
0.0210702
-0.0328932
0.0484191
0.00826072
0.0956453
0.0661411
0.162092
0.173718
0.248529
0.281845
0.349362
0.416703
0.607912
0.435766
-0.000433989
-0.026941
0.000436746
-0.0505515
0.00471962
-0.0554735
0.0154219
-0.0435954
0.0368759
-0.0131933
0.0742935
0.0287235
0.131268
0.116743
0.208518
0.204594
0.309229
0.315993
0.511841
0.4053
-0.000506874
-0.0264342
-0.000218918
-0.0508394
0.0026793
-0.0583717
0.0105876
-0.0515038
0.0271341
-0.0297398
0.0556927
0.000164912
0.103245
0.0691905
0.167977
0.139863
0.261712
0.222258
0.410189
0.363364
-0.000604427
-0.0258297
-0.00088157
-0.0505623
0.000793788
-0.060047
0.00630671
-0.0570167
0.0187396
-0.0421727
0.039863
-0.0209585
0.0785624
0.0304911
0.130121
0.0883037
0.211733
0.140647
0.309784
0.312138
-0.000736099
-0.0250936
-0.00156988
-0.0497285
-0.0010344
-0.0605825
0.00238312
-0.0604342
0.0113491
-0.0511387
0.026502
-0.0361114
0.0570066
-1.34704e-05
0.0970778
0.0482325
0.163949
0.0737756
0.218384
0.255348
-0.000901588
-0.024192
-0.0022968
-0.0483333
-0.00284641
-0.0600329
-0.0012761
-0.0620045
0.00472521
-0.05714
0.0150986
-0.0464848
0.0382083
-0.0231232
0.0692631
0.0171777
0.120873
0.0221653
0.141781
0.197476
-0.00109845
-0.0230936
-0.00306257
-0.0463692
-0.00464464