/*--------------------------------*- C++ -*----------------------------------*\
  =========                 |
  \\      /  F ield         | OpenFOAM: The Open Source CFD Toolbox
   \\    /   O peration     | Website:  https://openfoam.org
    \\  /    A nd           | Version:  7
     \\/     M anipulation  |
\*---------------------------------------------------------------------------*/
FoamFile
{
    version     2.0;
    format      ascii;
    class       volScalarField;
    location    "2.9";
    object      rho;
}
// * * * * * * * * * * * * * * * * * * * * * * * * * * * * * * * * * * * * * //

dimensions      [1 -3 0 0 0 0 0];

internalField   nonuniform List<scalar> 
64512
(
1.40001
1.40001
1.40001
1.40001
1.40001
1.40001
1.40001
1.40001
1.40001
1.40001
1.40001
1.40001
1.40001
1.40001
1.40001
1.40001
1.40001
1.40001
1.40001
1.40001
1.40001
1.40001
1.40001
1.40001
1.40001
1.40001
1.40001
1.40001
1.40001
1.40001
1.40001
1.40001
1.40001
1.40001
1.40001
1.40001
1.40001
1.40001
1.40001
1.40001
1.40001
1.40001
1.40001
1.40001
1.40001
1.40001
1.40001
1.40001
1.40001
3.41225
5.34563
5.41788
5.44445
5.47421
5.50257
5.52953
5.55455
5.57702
5.59598
5.6112
5.62358
5.63488
5.64822
5.66471
5.68273
5.70221
5.724
5.74674
5.7667
5.78065
5.78844
5.79428
5.80395
5.82005
5.84014
5.86027
5.8774
5.88964
5.89723
5.9029
5.90949
5.91766
5.92643
5.93495
5.94306
5.95119
5.95985
5.96882
5.97715
5.98375
5.98776
5.98885
5.98709
5.98419
5.98216
5.98211
1.40001
1.40001
1.40001
1.40001
1.40001
1.40001
1.40001
1.40001
1.40001
1.40001
1.40001
1.40001
1.40001
1.40001
1.40001
1.40001
1.40001
1.40001
1.40001
1.40001
1.40001
1.40001
1.40001
1.40001
1.40001
1.40001
1.40001
1.40001
1.40001
1.40001
1.40001
1.40001
1.40001
1.40001
1.40001
1.40001
1.40001
1.40001
1.40001
1.40001
1.40001
1.40001
1.40001
1.40001
1.40001
1.40001
1.40001
1.40001
1.40001
3.39114
5.33538
5.41958
5.44591
5.47532
5.50313
5.52974
5.55429
5.57647
5.59546
5.61091
5.62355
5.63471
5.6474
5.66337
5.68125
5.70076
5.72286
5.74617
5.76645
5.78053
5.78819
5.79393
5.8035
5.81944
5.83942
5.85946
5.87658
5.88879
5.89638
5.90205
5.90867
5.91687
5.9257
5.93426
5.94237
5.95043
5.95896
5.96779
5.97603
5.98262
5.98668
5.98781
5.986
5.98299
5.98082
5.98068
1.40001
1.40001
1.40001
1.40001
1.40001
1.40001
1.40001
1.40001
1.40001
1.40001
1.40001
1.40001
1.40001
1.40001
1.40001
1.40001
1.40001
1.40001
1.40001
1.40001
1.40001
1.40001
1.40001
1.40001
1.40001
1.40001
1.40001
1.40001
1.40001
1.40001
1.40001
1.40001
1.40001
1.40001
1.40001
1.40001
1.40001
1.40001
1.40001
1.40001
1.40001
1.40001
1.40001
1.40001
1.40001
1.40001
1.40001
1.40001
1.40001
3.35031
5.32757
5.41948
5.4454
5.47455
5.50189
5.52851
5.55312
5.5753
5.59453
5.61033
5.62317
5.63413
5.64614
5.66148
5.67917
5.69871
5.72113
5.74498
5.76556
5.77991
5.78758
5.79323
5.80269
5.81838
5.83817
5.85806
5.87515
5.88738
5.895
5.90073
5.90736
5.91557
5.92442
5.93302
5.94115
5.94915
5.95753
5.96616
5.97426
5.98081
5.98494
5.98613
5.98425
5.98108
5.97866
5.97835
1.40001
1.40001
1.40001
1.40001
1.40001
1.40001
1.40001
1.40001
1.40001
1.40001
1.40001
1.40001
1.40001
1.40001
1.40001
1.40001
1.40001
1.40001
1.40001
1.40001
1.40001
1.40001
1.40001
1.40001
1.40001
1.40001
1.40001
1.40001
1.40001
1.40001
1.40001
1.40001
1.40001
1.40001
1.40001
1.40001
1.40001
1.40001
1.40001
1.40001
1.40001
1.40001
1.40001
1.40001
1.40001
1.40001
1.40001
1.40001
1.40001
3.2933
5.31805
5.41837
5.44348
5.47247
5.49964
5.5264
5.55148
5.57409
5.59379
5.60997
5.62273
5.63311
5.64407
5.65875
5.67642
5.69617
5.71907
5.74335
5.76424
5.77891
5.78663
5.79215
5.80143
5.81678
5.83627
5.8559
5.87295
5.88525
5.89301
5.89887
5.90554
5.91369
5.92247
5.93107
5.93921
5.94717
5.95542
5.96383
5.97172
5.97817
5.98229
5.98345
5.98145
5.97804
5.97531
5.97477
1.40001
1.40001
1.40001
1.40001
1.40001
1.40001
1.40001
1.40001
1.40001
1.40001
1.40001
1.40001
1.40001
1.40001
1.40001
1.40001
1.40001
1.40001
1.40001
1.40001
1.40001
1.40001
1.40001
1.40001
1.40001
1.40001
1.40001
1.40001
1.40001
1.40001
1.40001
1.40001
1.40001
1.40001
1.40001
1.40001
1.40001
1.40001
1.40001
1.40001
1.40001
1.40001
1.40001
1.40001
1.40001
1.40001
1.40001
1.40001
1.40001
3.22076
5.30458
5.41603
5.44002
5.46883
5.49581
5.52276
5.54875
5.5725
5.59311
5.60982
5.62235
5.6319
5.64159
5.65565
5.67349
5.69353
5.71691
5.74141
5.7625
5.77747
5.78528
5.79062
5.79962
5.81453
5.83358
5.85285
5.86985
5.8823
5.89034
5.89641
5.90311
5.91113
5.91975
5.92827
5.93643
5.94441
5.95259
5.96085
5.96856
5.9749
5.97898
5.98005
5.97788
5.97418
5.97114
5.97037
1.40001
1.40001
1.40001
1.40001
1.40001
1.40001
1.40001
1.40001
1.40001
1.40001
1.40001
1.40001
1.40001
1.40001
1.40001
1.40001
1.40001
1.40001
1.40001
1.40001
1.40001
1.40001
1.40001
1.40001
1.40001
1.40001
1.40001
1.40001
1.40001
1.40001
1.40001
1.40001
1.40001
1.40001
1.40001
1.40001
1.40001
1.40001
1.40001
1.40001
1.40001
1.40001
1.40001
1.40001
1.40001
1.40001
1.40001
1.40001
1.40001
3.13191
5.28567
5.41327
5.43565
5.46415
5.49088
5.51792
5.54497
5.57046
5.59245
5.60985
5.62211
5.63066
5.63887
5.65226
5.6704
5.69073
5.71453
5.73905
5.7603
5.77555
5.78347
5.78857
5.79719
5.81155
5.8301
5.84895
5.86589
5.87858
5.88699
5.89335
5.90011
5.90798
5.91642
5.92484
5.93299
5.94098
5.94911
5.95724
5.9648
5.97099
5.97494
5.97584
5.97344
5.96945
5.96613
5.96516
1.40001
1.40001
1.40001
1.40001
1.40001
1.40001
1.40001
1.40001
1.40001
1.40001
1.40001
1.40001
1.40001
1.40001
1.40001
1.40001
1.40001
1.40001
1.40001
1.40001
1.40001
1.40001
1.40001
1.40001
1.40001
1.40001
1.40001
1.40001
1.40001
1.40001
1.40001
1.40001
1.40001
1.40001
1.40001
1.40001
1.40001
1.40001
1.40001
1.40001
1.40001
1.40001
1.40001
1.40001
1.40001
1.40001
1.40001
1.40001
1.40001
3.02543
5.26123
5.41036
5.43089
5.45961
5.48582
5.5127
5.54036
5.5675
5.59126
5.60969
5.62201
5.6297
5.63639
5.64891
5.66724
5.68783
5.71183
5.73622
5.75761
5.77314
5.78116
5.78592
5.79401
5.80772
5.82574
5.84423
5.86119
5.8742
5.88302
5.88963
5.89638
5.90406
5.9123
5.92057
5.92865
5.9366
5.94468
5.95274
5.96025
5.96635
5.97016
5.97081
5.96814
5.96384
5.96031
5.95919
1.40001
1.40001
1.40001
1.40001
1.40001
1.40001
1.40001
1.40001
1.40001
1.40001
1.40001
1.40001
1.40001
1.40001
1.40001
1.40001
1.40001
1.40001
1.40001
1.40001
1.40001
1.40001
1.40001
1.40001
1.40001
1.40001
1.40001
1.40001
1.40001
1.40001
1.40001
1.40001
1.40001
1.40001
1.40001
1.40001
1.40001
1.40001
1.40001
1.40001
1.40001
1.40001
1.40001
1.40001
1.40001
1.40001
1.40001
1.40001
1.40001
2.90008
5.23227
5.40818
5.42628
5.45543
5.48114
5.5077
5.53535
5.56365
5.58921
5.60906
5.62196
5.62922
5.63465
5.64597
5.66416
5.68492
5.70882
5.73298
5.75453
5.77035
5.77853
5.78292
5.79035
5.80329
5.82076
5.83895
5.85597
5.86925
5.87837
5.88509
5.89173
5.89924
5.90733
5.9155
5.92346
5.93127
5.93921
5.94722
5.95476
5.96088
5.96461
5.96504
5.96212
5.95757
5.95392
5.95276
1.40001
1.40001
1.40001
1.40001
1.40001
1.40001
1.40001
1.40001
1.40001
1.40001
1.40001
1.40001
1.40001
1.40001
1.40001
1.40001
1.40001
1.40001
1.40001
1.40001
1.40001
1.40001
1.40001
1.40001
1.40001
1.40001
1.40001
1.40001
1.40001
1.40001
1.40001
1.40001
1.40001
1.40001
1.40001
1.40001
1.40001
1.40001
1.40001
1.40001
1.40001
1.40001
1.40001
1.40001
1.40001
1.40001
1.40001
1.40001
1.40001
2.75622
5.19696
5.40862
5.42327
5.45183
5.47686
5.50305
5.5303
5.55902
5.58604
5.60756
5.62153
5.62894
5.63359
5.64331
5.66075
5.68147
5.70495
5.72885
5.75057
5.76672
5.77516
5.77923
5.78597
5.79806
5.815
5.83296
5.85006
5.86357
5.87289
5.87961
5.88609
5.89345
5.90151
5.90968
5.91757
5.92523
5.93301
5.94095
5.94855
5.95472
5.95833
5.95848
5.95521
5.9504
5.94664
5.94548
1.40001
1.40001
1.40001
1.40001
1.40001
1.40001
1.40001
1.40001
1.40001
1.40001
1.40001
1.40001
1.40001
1.40001
1.40001
1.40001
1.40001
1.40001
1.40001
1.40001
1.40001
1.40001
1.40001
1.40001
1.40001
1.40001
1.40001
1.40001
1.40001
1.40001
1.40001
1.40001
1.40001
1.40001
1.40001
1.40001
1.40001
1.40001
1.40001
1.40001
1.40001
1.40001
1.40001
1.40001
1.40001
1.40001
1.40001
1.40001
1.40001
2.5969
5.15064
5.41155
5.42248
5.44974
5.47316
5.49846
5.52509
5.55368
5.58169
5.60493
5.62052
5.62878
5.63327
5.64122
5.65728
5.67769
5.70048
5.72416
5.74596
5.7624
5.7712
5.77501
5.7811
5.79231
5.80867
5.8264
5.84351
5.85719
5.86665
5.87334
5.87969
5.88697
5.89505
5.90324
5.911
5.91838
5.92586
5.9336
5.94117
5.94737
5.95094
5.95087
5.94729
5.94229
5.93849
5.93742
1.40001
1.40001
1.40001
1.40001
1.40001
1.40001
1.40001
1.40001
1.40001
1.40001
1.40001
1.40001
1.40001
1.40001
1.40001
1.40001
1.40001
1.40001
1.40001
1.40001
1.40001
1.40001
1.40001
1.40001
1.40001
1.40001
1.40001
1.40001
1.40001
1.40001
1.40001
1.40001
1.40001
1.40001
1.40001
1.40001
1.40001
1.40001
1.40001
1.40001
1.40001
1.40001
1.40001
1.40001
1.40001
1.40001
1.40001
1.40001
1.40001
2.42524
5.08563
5.41714
5.42475
5.44934
5.47041
5.49407
5.51954
5.54744
5.57589
5.6006
5.6181
5.62792
5.63292
5.63926
5.65351
5.67332
5.69522
5.71867
5.74041
5.757
5.76627
5.77004
5.77568
5.78608
5.80182
5.81922
5.83623
5.84999
5.85958
5.8663
5.87256
5.87975
5.88781
5.89595
5.90356
5.91068
5.91786
5.9254
5.9329
5.93909
5.94259
5.9423
5.93845
5.93333
5.9295
5.92857
1.40001
1.40001
1.40001
1.40001
1.40001
1.40001
1.40001
1.40001
1.40001
1.40001
1.40001
1.40001
1.40001
1.40001
1.40001
1.40001
1.40001
1.40001
1.40001
1.40001
1.40001
1.40001
1.40001
1.40001
1.40001
1.40001
1.40001
1.40001
1.40001
1.40001
1.40001
1.40001
1.40001
1.40001
1.40001
1.40001
1.40001
1.40001
1.40001
1.40001
1.40001
1.40001
1.40001
1.40001
1.40001
1.40001
1.40001
1.40001
1.40001
2.24743
4.99576
5.42424
5.4296
5.45052
5.46893
5.49067
5.51461
5.54128
5.56948
5.59525
5.61479
5.62678
5.63293
5.63824
5.6503
5.66898
5.68982
5.71267
5.73417
5.75074
5.76058
5.76457
5.77001
5.77968
5.79464
5.81148
5.82819
5.84192
5.85168
5.85853
5.8648
5.87192
5.87985
5.8878
5.89514
5.90196
5.90887
5.9162
5.92355
5.92962
5.93298
5.93252
5.92853
5.92342
5.91961
5.91885
1.40001
1.40001
1.40001
1.40001
1.40001
1.40001
1.40001
1.40001
1.40001
1.40001
1.40001
1.40001
1.40001
1.40001
1.40001
1.40001
1.40001
1.40001
1.40001
1.40001
1.40001
1.40001
1.40001
1.40001
1.40001
1.40001
1.40001
1.40001
1.40001
1.40001
1.40001
1.40001
1.40001
1.40001
1.40001
1.40001
1.40001
1.40001
1.40001
1.40001
1.40001
1.40001
1.40001
1.40001
1.40001
1.40001
1.40001
1.40001
1.40001
2.0662
4.87804
5.42967
5.43448
5.45259
5.46838
5.48801
5.51017
5.53532
5.56274
5.58911
5.61045
5.62473
5.6325
5.63774
5.64755
5.66437
5.68428
5.70627
5.7272
5.74359
5.7541
5.75866
5.76415
5.77318
5.78723
5.80327
5.81943
5.83299
5.84289
5.84996
5.85633
5.86335
5.87101
5.8786
5.88558
5.89212
5.89884
5.906
5.91315
5.919
5.92216
5.92159
5.91761
5.91266
5.90893
5.90838
1.40001
1.40001
1.40001
1.40001
1.40001
1.40001
1.40001
1.40001
1.40001
1.40001
1.40001
1.40001
1.40001
1.40001
1.40001
1.40001
1.40001
1.40001
1.40001
1.40001
1.40001
1.40001
1.40001
1.40001
1.40001
1.40001
1.40001
1.40001
1.40001
1.40001
1.40001
1.40001
1.40001
1.40001
1.40001
1.40001
1.40001
1.40001
1.40001
1.40001
1.40001
1.40001
1.40001
1.40001
1.40001
1.40001
1.40001
1.40001
1.40001
1.8878
4.73848
5.43569
5.43882
5.45478
5.46871
5.48613
5.50612
5.52952
5.55582
5.58226
5.6049
5.62127
5.63107
5.63713
5.64526
5.65988
5.67855
5.69951
5.71964
5.73568
5.74685
5.75233
5.75816
5.76667
5.77967
5.79464
5.80994
5.82313
5.83311
5.84048
5.84704
5.85397
5.86127
5.86836
5.87492
5.88122
5.88784
5.89487
5.90172
5.90719
5.91006
5.90941
5.90552
5.90084
5.89722
5.89688
1.40001
1.40001
1.40001
1.40001
1.40001
1.40001
1.40001
1.40001
1.40001
1.40001
1.40001
1.40001
1.40001
1.40001
1.40001
1.40001
1.40001
1.40001
1.40001
1.40001
1.40001
1.40001
1.40001
1.40001
1.40001
1.40001
1.40001
1.40001
1.40001
1.40001
1.40001
1.40001
1.40001
1.40001
1.40001
1.40001
1.40001
1.40001
1.40001
1.40001
1.40001
1.40001
1.40001
1.40001
1.40001
1.40001
1.40001
1.40001
1.40001
1.72183
4.57523
5.43972
5.44008
5.45477
5.46905
5.48548
5.50361
5.52493
5.5494
5.57491
5.59792
5.61585
5.62789
5.63551
5.64313
5.65579
5.67269
5.69219
5.7114
5.7271
5.73891
5.74558
5.75187
5.75994
5.77177
5.7855
5.79978
5.81246
5.82247
5.83015
5.83691
5.8437
5.85054
5.85706
5.86315
5.86922
5.87573
5.88257
5.88899
5.89393
5.89646
5.89585
5.89224
5.88795
5.88455
5.88444
1.40001
1.40001
1.40001
1.40001
1.40001
1.40001
1.40001
1.40001
1.40001
1.40001
1.40001
1.40001
1.40001
1.40001
1.40001
1.40001
1.40001
1.40001
1.40001
1.40001
1.40001
1.40001
1.40001
1.40001
1.40001
1.40001
1.40001
1.40001
1.40001
1.40001
1.40001
1.40001
1.40001
1.40001
1.40001
1.40001
1.40001
1.40001
1.40001
1.40001
1.40001
1.40001
1.40001
1.40001
1.40001
1.40001
1.40001
1.40001
1.40001
1.57231
4.38392
5.43527
5.43447
5.4484
5.46434
5.48093
5.49836
5.51823
5.54113
5.5657
5.58894
5.60826
5.62257
5.63222
5.64034
5.65162
5.66668
5.68442
5.70263
5.71799
5.73022
5.73809
5.7449
5.75268
5.76336
5.77587
5.78907
5.80116
5.81109
5.81896
5.82581
5.83238
5.83871
5.84463
5.85027
5.85612
5.8625
5.86904
5.87489
5.8792
5.88139
5.88088
5.87765
5.87381
5.87062
5.87064
1.40001
1.40001
1.40001
1.40001
1.40001
1.40001
1.40001
1.40001
1.40001
1.40001
1.40001
1.40001
1.40001
1.40001
1.40001
1.40001
1.40001
1.40001
1.40001
1.40001
1.40001
1.40001
1.40001
1.40001
1.40001
1.40001
1.40001
1.40001
1.40001
1.40001
1.40001
1.40001
1.40001
1.40001
1.40001
1.40001
1.40001
1.40001
1.40001
1.40001
1.40001
1.40001
1.40001
1.40001
1.40001
1.40001
1.40001
1.40001
1.40001
1.43716
4.1571
5.40566
5.41747
5.43525
5.45577
5.47497
5.49345
5.51242
5.53326
5.55585
5.5783
5.59815
5.61415
5.62598
5.63543
5.64618
5.65983
5.67585
5.69298
5.70804
5.7205
5.72956
5.73695
5.74466
5.75429
5.76563
5.77774
5.78918
5.79894
5.80689
5.8137
5.81993
5.8257
5.83105
5.83627
5.84186
5.84797
5.85404
5.85919
5.86282
5.86466
5.86431
5.86157
5.85821
5.85526
5.8554
1.40001
1.40001
1.40001
1.40001
1.40001
1.40001
1.40001
1.40001
1.40001
1.40001
1.40001
1.40001
1.40001
1.40001
1.40001
1.40001
1.40001
1.40001
1.40001
1.40001
1.40001
1.40001
1.40001
1.40001
1.40001
1.40001
1.40001
1.40001
1.40001
1.40001
1.40001
1.40001
1.40001
1.40001
1.40001
1.40001
1.40001
1.40001
1.40001
1.40001
1.40001
1.40001
1.40001
1.40001
1.40001
1.40001
1.40001
1.40001
1.40001
1.40109
3.87765
5.34763
5.39198
5.41732
5.44197
5.46221
5.4813
5.50023
5.52053
5.5424
5.56448
5.58471
5.60201
5.61574
5.62696
5.63821
5.65124
5.66598
5.68215
5.69704
5.70966
5.71977
5.72774
5.7355
5.74422
5.75449
5.76563
5.7765
5.78605
5.79393
5.80049
5.80622
5.81139
5.81623
5.82111
5.82642
5.83212
5.83753
5.84187
5.84481
5.84628
5.84605
5.84375
5.84082
5.83806
5.83829
1.40001
1.40001
1.40001
1.40001
1.40001
1.40001
1.40001
1.40001
1.40001
1.40001
1.40001
1.40001
1.40001
1.40001
1.40001
1.40001
1.40001
1.40001
1.40001
1.40001
1.40001
1.40001
1.40001
1.40001
1.40001
1.40001
1.40001
1.40001
1.40001
1.40001
1.40001
1.40001
1.40001
1.40001
1.40001
1.40001
1.40001
1.40001
1.40001
1.40001
1.40001
1.40001
1.40001
1.40001
1.40001
1.40001
1.40001
1.40001
1.40001
1.40001
3.54982
5.2879
5.37071
5.40006
5.42797
5.45046
5.47056
5.48975
5.50961
5.53038
5.5514
5.57114
5.5885
5.60337
5.61593
5.62789
5.64086
5.65483
5.67007
5.68473
5.6974
5.70836
5.71688
5.72487
5.73297
5.74237
5.75268
5.76301
5.77224
5.77986
5.78601
5.79117
5.79579
5.80023
5.80477
5.80964
5.81463
5.81912
5.82256
5.82485
5.82602
5.8259
5.82399
5.82142
5.81887
5.8192
1.40001
1.40001
1.40001
1.40001
1.40001
1.40001
1.40001
1.40001
1.40001
1.40001
1.40001
1.40001
1.40001
1.40001
1.40001
1.40001
1.40001
1.40001
1.40001
1.40001
1.40001
1.40001
1.40001
1.40001
1.40001
1.40001
1.40001
1.40001
1.40001
1.40001
1.40001
1.40001
1.40001
1.40001
1.40001
1.40001
1.40001
1.40001
1.40001
1.40001
1.40001
1.40001
1.40001
1.40001
1.40001
1.40001
1.40001
1.40001
1.40001
1.40001
3.20629
5.23306
5.36003
5.3899
5.41498
5.43742
5.45773
5.47712
5.49712
5.5177
5.53837
5.55783
5.575
5.58998
5.60313
5.61533
5.62802
5.64144
5.65582
5.67047
5.68338
5.695
5.70411
5.71246
5.72027
5.729
5.73857
5.74836
5.75722
5.7645
5.7702
5.77482
5.77894
5.78296
5.78704
5.79123
5.79529
5.79879
5.8014
5.80309
5.80401
5.80378
5.80192
5.79945
5.79698
5.79733
1.40001
1.40001
1.40001
1.40001
1.40001
1.40001
1.40001
1.40001
1.40001
1.40001
1.40001
1.40001
1.40001
1.40001
1.40001
1.40001
1.40001
1.40001
1.40001
1.40001
1.40001
1.40001
1.40001
1.40001
1.40001
1.40001
1.40001
1.40001
1.40001
1.40001
1.40001
1.40001
1.40001
1.40001
1.40001
1.40001
1.40001
1.40001
1.40001
1.40001
1.40001
1.40001
1.40001
1.40001
1.40001
1.40001
1.40001
1.40001
1.40001
1.40001
2.84435
5.15564
5.36353
5.38862
5.41298
5.43326
5.45071
5.46784
5.48608
5.50498
5.52445
5.54324
5.56022
5.57535
5.58901
5.60169
5.61438
5.62706
5.64074
5.65474
5.66778
5.67978
5.68935
5.69803
5.70587
5.71419
5.72317
5.73243
5.74086
5.74774
5.75299
5.7571
5.76073
5.76425
5.7677
5.77094
5.77384
5.77622
5.77799
5.77907
5.77969
5.77922
5.77728
5.77473
5.7723
5.7727
1.40001
1.40001
1.40001
1.40001
1.40001
1.40001
1.40001
1.40001
1.40001
1.40001
1.40001
1.40001
1.40001
1.40001
1.40001
1.40001
1.40001
1.40001
1.40001
1.40001
1.40001
1.40001
1.40001
1.40001
1.40001
1.40001
1.40001
1.40001
1.40001
1.40001
1.40001
1.40001
1.40001
1.40001
1.40001
1.40001
1.40001
1.40001
1.40001
1.40001
1.40001
1.40001
1.40001
1.40001
1.40001
1.40001
1.40001
1.40001
1.40001
1.40001
2.48457
5.03701
5.39028
5.39983
5.41845
5.43392
5.44887
5.46403
5.48022
5.49782
5.51573
5.53254
5.54771
5.56126
5.57415
5.58674
5.59926
5.61187
5.62447
5.63821
5.65089
5.6625
5.67248
5.68147
5.68961
5.6977
5.70618
5.71485
5.72278
5.72927
5.73415
5.73785
5.741
5.74391
5.74646
5.7485
5.75015
5.75144
5.75247
5.75295
5.75314
5.7521
5.74963
5.7465
5.74382
5.74403
1.40001
1.40001
1.40001
1.40001
1.40001
1.40001
1.40001
1.40001
1.40001
1.40001
1.40001
1.40001
1.40001
1.40001
1.40001
1.40001
1.40001
1.40001
1.40001
1.40001
1.40001
1.40001
1.40001
1.40001
1.40001
1.40001
1.40001
1.40001
1.40001
1.40001
1.40001
1.40001
1.40001
1.40001
1.40001
1.40001
1.40001
1.40001
1.40001
1.40001
1.40001
1.40001
1.40001
1.40001
1.40001
1.40001
1.40001
1.40001
1.40001
1.40001
2.11724
4.86148
5.43302
5.42635
5.43999
5.44837
5.45676
5.46591
5.47818
5.4935
5.50961
5.5249
5.53855
5.55049
5.56163
5.57283
5.58445
5.59614
5.60793
5.61988
5.63276
5.64398
5.65392
5.66278
5.6713
5.67934
5.68737
5.69542
5.70285
5.709
5.71364
5.71701
5.71963
5.72174
5.72311
5.72372
5.72398
5.7241
5.72417
5.7239
5.72332
5.72147
5.71835
5.71451
5.71153
5.71155
1.40001
1.40001
1.40001
1.40001
1.40001
1.40001
1.40001
1.40001
1.40001
1.40001
1.40001
1.40001
1.40001
1.40001
1.40001
1.40001
1.40001
1.40001
1.40001
1.40001
1.40001
1.40001
1.40001
1.40001
1.40001
1.40001
1.40001
1.40001
1.40001
1.40001
1.40001
1.40001
1.40001
1.40001
1.40001
1.40001
1.40001
1.40001
1.40001
1.40001
1.40001
1.40001
1.40001
1.40001
1.40001
1.40001
1.40001
1.40001
1.40001
1.40001
1.7625
4.68086
5.47895
5.4324
5.44628
5.45451
5.46302
5.4716
5.4822
5.49547
5.50935
5.52207
5.53292
5.54238
5.55156
5.5611
5.57132
5.5819
5.5924
5.60278
5.61352
5.62436
5.63397
5.64261
5.65109
5.65898
5.66653
5.6739
5.68082
5.68668
5.69113
5.69423
5.69627
5.69732
5.69727
5.69636
5.69518
5.6941
5.69329
5.69221
5.69049
5.68745
5.683
5.67774
5.67383
5.67312
1.40001
1.40001
1.40001
1.40001
1.40001
1.40001
1.40001
1.40001
1.40001
1.40001
1.40001
1.40001
1.40001
1.40001
1.40001
1.40001
1.40001
1.40001
1.40001
1.40001
1.40001
1.40001
1.40001
1.40001
1.40001
1.40001
1.40001
1.40001
1.40001
1.40001
1.40001
1.40001
1.40001
1.40001
1.40001
1.40001
1.40001
1.40001
1.40001
1.40001
1.40001
1.40001
1.40001
1.40001
1.40001
1.40001
1.40001
1.40001
1.40001
1.40001
1.47753
4.34395
5.45217
5.42034
5.43495
5.44791
5.4606
5.47222
5.48431
5.49783
5.5109
5.52216
5.53092
5.53797
5.54455
5.55169
5.55996
5.5691
5.5783
5.58698
5.59593
5.60537
5.61403
5.62169
5.6294
5.63698
5.64376
5.65032
5.65666
5.66222
5.66652
5.66933
5.67068
5.67059
5.66895
5.66637
5.66363
5.66115
5.65887
5.65616
5.65268
5.64805
5.64207
5.63543
5.63063
5.62942
1.40001
1.40001
1.40001
1.40001
1.40001
1.40001
1.40001
1.40001
1.40001
1.40001
1.40001
1.40001
1.40001
1.40001
1.40001
1.40001
1.40001
1.40001
1.40001
1.40001
1.40001
1.40001
1.40001
1.40001
1.40001
1.40001
1.40001
1.40001
1.40001
1.40001
1.40001
1.40001
1.40001
1.40001
1.40001
1.40001
1.40001
1.40001
1.40001
1.40001
1.40001
1.40001
1.40001
1.40001
1.40001
1.40001
1.40001
1.40001
1.40001
1.40001
1.402
3.90647
5.33581
5.36412
5.39708
5.42394
5.44631
5.46384
5.47793
5.49234
5.50704
5.52029
5.52945
5.53542
5.54013
5.54519
5.5513
5.5585
5.56596
5.57282
5.5796
5.5872
5.59471
5.60134
5.60746
5.61359
5.61947
5.62499
5.63049
5.63554
5.63951
5.64189
5.64253
5.64108
5.63779
5.63343
5.629
5.62483
5.62074
5.61636
5.61086
5.60395
5.59558
5.58619
5.57915
5.57619
1.40001
1.40001
1.40001
1.40001
1.40001
1.40001
1.40001
1.40001
1.40001
1.40001
1.40001
1.40001
1.40001
1.40001
1.40001
1.40001
1.40001
1.40001
1.40001
1.40001
1.40001
1.40001
1.40001
1.40001
1.40001
1.40001
1.40001
1.40001
1.40001
1.40001
1.40001
1.40001
1.40001
1.40001
1.40001
1.40001
1.40001
1.40001
1.40001
1.40001
1.40001
1.40001
1.40001
1.40001
1.40001
1.40001
1.40001
1.40001
1.40001
1.40001
1.40001
3.43844
5.23479
5.32202
5.36523
5.40048
5.42757
5.44835
5.46623
5.48267
5.49897
5.51239
5.52356
5.53124
5.53595
5.53987
5.54442
5.54984
5.55555
5.56053
5.56506
5.57024
5.5759
5.5811
5.58571
5.59009
5.59433
5.59855
5.60284
5.60698
5.61025
5.61198
5.61166
5.6088
5.60391
5.59777
5.59134
5.58486
5.57823
5.57094
5.56202
5.5512
5.53921
5.52738
5.51855
5.51496
1.40001
1.40001
1.40001
1.40001
1.40001
1.40001
1.40001
1.40001
1.40001
1.40001
1.40001
1.40001
1.40001
1.40001
1.40001
1.40001
1.40001
1.40001
1.40001
1.40001
1.40001
1.40001
1.40001
1.40001
1.40001
1.40001
1.40001
1.40001
1.40001
1.40001
1.40001
1.40001
1.40001
1.40001
1.40001
1.40001
1.40001
1.40001
1.40001
1.40001
1.40001
1.40001
1.40001
1.40001
1.40001
1.40001
1.40001
1.40001
1.40001
1.40001
1.40001
2.96241
5.09864
5.30613
5.34847
5.38132
5.40724
5.42968
5.44802
5.4645
5.4816
5.4988
5.51239
5.52147
5.52817
5.53304
5.53745
5.54195
5.54636
5.54976
5.55227
5.55492
5.55811
5.5613
5.56401
5.56657
5.56908
5.57146
5.57395
5.57666
5.57878
5.57956
5.57793
5.57368
5.56719
5.55899
5.55005
5.54059
5.53052
5.51958
5.50707
5.49246
5.47581
5.4582
5.44354
5.4349
1.40001
1.40001
1.40001
1.40001
1.40001
1.40001
1.40001
1.40001
1.40001
1.40001
1.40001
1.40001
1.40001
1.40001
1.40001
1.40001
1.40001
1.40001
1.40001
1.40001
1.40001
1.40001
1.40001
1.40001
1.40001
1.40001
1.40001
1.40001
1.40001
1.40001
1.40001
1.40001
1.40001
1.40001
1.40001
1.40001
1.40001
1.40001
1.40001
1.40001
1.40001
1.40001
1.40001
1.40001
1.40001
1.40001
1.40001
1.40001
1.40001
1.40001
1.40001
2.4947
4.96681
5.30991
5.34244
5.37599
5.39958
5.41695
5.43188
5.44712
5.46276
5.47863
5.49397
5.5065
5.51568
5.52198
5.52779
5.53283
5.53696
5.5395
5.54053
5.54097
5.54153
5.54233
5.54285
5.54334
5.54385
5.54415
5.54442
5.54502
5.54556
5.54488
5.54182
5.53599
5.52762
5.51707
5.50514
5.49201
5.47759
5.4616
5.44293
5.42046
5.39462
5.36872
5.3482
5.33965
1.40001
1.40001
1.40001
1.40001
1.40001
1.40001
1.40001
1.40001
1.40001
1.40001
1.40001
1.40001
1.40001
1.40001
1.40001
1.40001
1.40001
1.40001
1.40001
1.40001
1.40001
1.40001
1.40001
1.40001
1.40001
1.40001
1.40001
1.40001
1.40001
1.40001
1.40001
1.40001
1.40001
1.40001
1.40001
1.40001
1.40001
1.40001
1.40001
1.40001
1.40001
1.40001
1.40001
1.40001
1.40001
1.40001
1.40001
1.40001
1.40001
1.40001
1.40001
1.99603
4.78795
5.40729
5.37814
5.38612
5.39328
5.40342
5.4166
5.43111
5.44511
5.4594
5.47377
5.48673
5.49723
5.50594
5.51342
5.51989
5.52496
5.5278
5.52838
5.52742
5.52578
5.52419
5.52243
5.52057
5.51867
5.51658
5.5142
5.5123
5.51058
5.50796
5.5032
5.49564
5.48518
5.47189
5.45635
5.43865
5.4185
5.39554
5.36881
5.33784
5.30268
5.26577
5.22841
5.19891
1.40001
1.40001
1.40001
1.40001
1.40001
1.40001
1.40001
1.40001
1.40001
1.40001
1.40001
1.40001
1.40001
1.40001
1.40001
1.40001
1.40001
1.40001
1.40001
1.40001
1.40001
1.40001
1.40001
1.40001
1.40001
1.40001
1.40001
1.40001
1.40001
1.40001
1.40001
1.40001
1.40001
1.40001
1.40001
1.40001
1.40001
1.40001
1.40001
1.40001
1.40001
1.40001
1.40001
1.40001
1.40001
1.40001
1.40001
1.40001
1.40001
1.40001
1.40001
1.53592
4.47251
5.47481
5.40959
5.39071
5.39326
5.40117
5.40992
5.41875
5.42932
5.44139
5.45424
5.46696
5.47782
5.48664
5.49475
5.50292
5.50931
5.5133
5.51444
5.51309
5.5102
5.50672
5.5029
5.49851
5.49408
5.48933
5.48395
5.47903
5.47453
5.46955
5.46273
5.4531
5.44016
5.42365
5.40381
5.3806
5.35355
5.32223
5.28518
5.2401
5.18283
5.11421
5.04767
5.00158
1.40001
1.40001
1.40001
1.40001
1.40001
1.40001
1.40001
1.40001
1.40001
1.40001
1.40001
1.40001
1.40001
1.40001
1.40001
1.40001
1.40001
1.40001
1.40001
1.40001
1.40001
1.40001
1.40001
1.40001
1.40001
1.40001
1.40001
1.40001
1.40001
1.40001
1.40001
1.40001
1.40001
1.40001
1.40001
1.40001
1.40001
1.40001
1.40001
1.40001
1.40001
1.40001
1.40001
1.40001
1.40001
1.40001
1.40001
1.40001
1.40001
1.40001
1.40001
1.40341
3.95521
5.35366
5.35192
5.38105
5.39405
5.40291
5.41039
5.41467
5.42019
5.42776
5.43698
5.44749
5.45782
5.4668
5.47462
5.48233
5.48971
5.4949
5.49708
5.4964
5.49337
5.48891
5.48358
5.47694
5.46993
5.46222
5.45379
5.4454
5.43761
5.42968
5.42036
5.40825
5.39246
5.37228
5.34754
5.31806
5.28292
5.24089
5.18917
5.12423
5.043
4.94374
4.83239
4.75215
1.40001
1.40001
1.40001
1.40001
1.40001
1.40001
1.40001
1.40001
1.40001
1.40001
1.40001
1.40001
1.40001
1.40001
1.40001
1.40001
1.40001
1.40001
1.40001
1.40001
1.40001
1.40001
1.40001
1.40001
1.40001
1.40001
1.40001
1.40001
1.40001
1.40001
1.40001
1.40001
1.40001
1.40001
1.40001
1.40001
1.40001
1.40001
1.40001
1.40001
1.40001
1.40001
1.40001
1.40001
1.40001
1.40001
1.40001
1.40001
1.40001
1.40001
1.40001
1.39999
3.33731
5.16951
5.31455
5.36301
5.38285
5.39672
5.40622
5.41137
5.41505
5.41895
5.42418
5.43118
5.43906
5.44683
5.45402
5.46089
5.4676
5.47323
5.47644
5.47688
5.47454
5.46995
5.4639
5.45571
5.44627
5.43567
5.42432
5.41231
5.40077
5.38934
5.37689
5.36177
5.34265
5.31835
5.28819
5.25166
5.20721
5.1529
5.0851
4.99909
4.88245
4.70573
4.35267
3.43805
1.40001
1.40001
1.40001
1.40001
1.40001
1.40001
1.40001
1.40001
1.40001
1.40001
1.40001
1.40001
1.40001
1.40001
1.40001
1.40001
1.40001
1.40001
1.40001
1.40001
1.40001
1.40001
1.40001
1.40001
1.40001
1.40001
1.40001
1.40001
1.40001
1.40001
1.40001
1.40001
1.40001
1.40001
1.40001
1.40001
1.40001
1.40001
1.40001
1.40001
1.40001
1.40001
1.40001
1.40001
1.40001
1.40001
1.40001
1.40001
1.40001
1.40001
1.40001
1.4
2.77308
5.01021
5.29819
5.33889
5.36689
5.38762
5.39635
5.4032
5.4083
5.41176
5.41492
5.41882
5.42339
5.42862
5.43403
5.43931
5.44464
5.44955
5.45293
5.45415
5.45281
5.44855
5.44259
5.43375
5.42251
5.40957
5.39545
5.37989
5.36428
5.34877
5.33244
5.31361
5.29064
5.26194
5.22608
5.18211
5.12782
5.06025
4.97426
4.85988
4.6981
4.43816
4.02337
3.00622
1.40001
1.40001
1.40001
1.40001
1.40001
1.40001
1.40001
1.40001
1.40001
1.40001
1.40001
1.40001
1.40001
1.40001
1.40001
1.40001
1.40001
1.40001
1.40001
1.40001
1.40001
1.40001
1.40001
1.40001
1.40001
1.40001
1.40001
1.40001
1.40001
1.40001
1.40001
1.40001
1.40001
1.40001
1.40001
1.40001
1.40001
1.40001
1.40001
1.40001
1.40001
1.40001
1.40001
1.40001
1.40001
1.40001
1.40001
1.40001
1.40001
1.40001
1.40001
1.4
2.18826
4.82167
5.34354
5.34201
5.35593
5.37082
5.38265
5.39247
5.39913
5.40365
5.40679
5.40926
5.41124
5.41357
5.41633
5.41921
5.42234
5.42574
5.4283
5.42943
5.4285
5.42473
5.41917
5.41038
5.39838
5.38379
5.36706
5.34835
5.32869
5.30873
5.28794
5.26479
5.23739
5.20394
5.16221
5.11069
5.04648
4.96583
4.86153
4.72361
4.52489
4.2575
3.71469
2.86345
1.40001
1.40001
1.40001
1.40001
1.40001
1.40001
1.40001
1.40001
1.40001
1.40001
1.40001
1.40001
1.40001
1.40001
1.40001
1.40001
1.40001
1.40001
1.40001
1.40001
1.40001
1.40001
1.40001
1.40001
1.40001
1.40001
1.40001
1.40001
1.40001
1.40001
1.40001
1.40001
1.40001
1.40001
1.40001
1.40001
1.40001
1.40001
1.40001
1.40001
1.40001
1.40001
1.40001
1.40001
1.40001
1.40001
1.40001
1.40001
1.40001
1.40001
1.40001
1.4
1.62914
4.5636
5.43202
5.37152
5.34964
5.35565
5.36834
5.37899
5.3869
5.39266
5.39684
5.39958
5.40074
5.40119
5.40146
5.40161
5.40183
5.40276
5.40376
5.40391
5.40222
5.39864
5.39305
5.38454
5.37272
5.35746
5.33886
5.31741
5.29412
5.26966
5.24389
5.21577
5.18331
5.14471
5.09713
5.03853
4.96493
4.87288
4.75304
4.59747
4.37824
4.06689
3.53458
2.86093
1.40001
1.40001
1.40001
1.40001
1.40001
1.40001
1.40001
1.40001
1.40001
1.40001
1.40001
1.40001
1.40001
1.40001
1.40001
1.40001
1.40001
1.40001
1.40001
1.40001
1.40001
1.40001
1.40001
1.40001
1.40001
1.40001
1.40001
1.40001
1.40001
1.40001
1.40001
1.40001
1.40001
1.40001
1.40001
1.40001
1.40001
1.40001
1.40001
1.40001
1.40001
1.40001
1.40001
1.40001
1.40001
1.40001
1.40001
1.40001
1.40001
1.40001
1.40001
1.40001
1.41026
3.99971
5.30497
5.31327
5.33101
5.34342
5.35585
5.3654
5.37302
5.37916
5.38413
5.38766
5.38922
5.38927
5.3882
5.38624
5.38382
5.38191
5.38059
5.37899
5.37568
5.37122
5.36513
5.35684
5.3453
5.32994
5.31024
5.28671
5.26026
5.23158
5.20077
5.16738
5.12955
5.08551
5.0321
4.96707
4.88534
4.78361
4.65231
4.4814
4.25275
3.92379
3.45421
2.90234
1.40001
1.40001
1.40001
1.40001
1.40001
1.40001
1.40001
1.40001
1.40001
1.40001
1.40001
1.40001
1.40001
1.40001
1.40001
1.40001
1.40001
1.40001
1.40001
1.40001
1.40001
1.40001
1.40001
1.40001
1.40001
1.40001
1.40001
1.40001
1.40001
1.40001
1.40001
1.40001
1.40001
1.40001
1.40001
1.40001
1.40001
1.40001
1.40001
1.40001
1.40001
1.40001
1.40001
1.40001
1.40001
1.40001
1.40001
1.40001
1.40001
1.40001
1.40001
1.40001
1.39996
3.28553
5.12596
5.27952
5.31661
5.33473
5.3442
5.35259
5.35921
5.36478
5.36968
5.37356
5.37587
5.37641
5.37511
5.37213
5.36792
5.36343
5.3593
5.3553
5.34998
5.34356
5.33607
5.32714
5.31555
5.3003
5.28029
5.25552
5.22674
5.19457
5.15918
5.12052
5.07712
5.02738
4.96817
4.8971
4.80904
4.69985
4.56108
4.3815
4.14978
3.83035
3.43142
2.97198
1.40001
1.40001
1.40001
1.40001
1.40001
1.40001
1.40001
1.40001
1.40001
1.40001
1.40001
1.40001
1.40001
1.40001
1.40001
1.40001
1.40001
1.40001
1.40001
1.40001
1.40001
1.40001
1.40001
1.40001
1.40001
1.40001
1.40001
1.40001
1.40001
1.40001
1.40001
1.40001
1.40001
1.40001
1.40001
1.40001
1.40001
1.40001
1.40001
1.40001
1.40001
1.40001
1.40001