4.99449 	3.9956 	-3.60822e-16 	1.14675 	-0.00174669 	0
4.9193 	3.93544 	-4.44089e-16 	1.15022 	-0.00174062 	0
4.8372 	3.86976 	-4.44089e-16 	1.15049 	-0.00516471 	0
4.76434 	3.81147 	-4.996e-16 	1.15569 	-0.00500284 	0
4.68478 	3.74783 	-7.21645e-16 	1.15625 	-0.00823581 	0
4.61418 	3.69134 	-7.77156e-16 	1.16038 	-0.00801801 	0
4.53709 	3.62967 	-5.55112e-16 	1.16119 	-0.0110822 	0
4.46868 	3.57494 	-5.55112e-16 	1.16543 	-0.010723 	0
4.39398 	3.51519 	-5.55112e-16 	1.16649 	-0.0136226 	0
4.32769 	3.46215 	-3.88578e-16 	1.17037 	-0.0131548 	0
4.25531 	3.40425 	-4.44089e-16 	1.17166 	-0.0159014 	0
4.19108 	3.35286 	-7.77156e-16 	1.17539 	-0.0152999 	0
4.12094 	3.29675 	-1.33227e-15 	1.1769 	-0.0179031 	0
4.0587 	3.24696 	-1.60982e-15 	1.18041 	-0.0171731 	0
3.99074 	3.19259 	-1.44329e-15 	1.18211 	-0.0196445 	0
3.93043 	3.14434 	-1.33227e-15 	1.18546 	-0.0187778 	0
3.86458 	3.09166 	-1.33227e-15 	1.18734 	-0.0211289 	0
3.80614 	3.04491 	-1.33227e-15 	1.19052 	-0.020124 	0
3.7462 	2.99696 	-1.36002e-15 	1.19255 	-0.0223669 	0
3.6857 	2.94856 	-1.36002e-15 	1.19462 	-0.0246022 	0
3.63083 	2.90466 	-1.22125e-15 	1.19775 	-0.0233665 	0
3.569 	2.8552 	-1.22125e-15 	1.19991 	-0.0255163 	0
3.51583 	2.81266 	-1.33227e-15 	1.20293 	-0.0241373 	0
3.45591 	2.76473 	-1.22125e-15 	1.20515 	-0.026214 	0
3.40439 	2.72351 	-1.11022e-15 	1.20808 	-0.0246888 	0
3.34634 	2.67707 	-1.22125e-15 	1.21032 	-0.0267049 	0
3.29641 	2.63713 	-1.22125e-15 	1.21317 	-0.0250307 	0
3.24016 	2.59213 	-1.22125e-15 	1.2154 	-0.026999 	0
3.19178 	2.55343 	-1.27676e-15 	1.21819 	-0.0251732 	0
3.13728 	2.50982 	-1.27676e-15 	1.22037 	-0.0271067 	0
3.0904 	2.47232 	-1.33227e-15 	1.22312 	-0.0251266 	0
3.03758 	2.43007 	-1.44329e-15 	1.2252 	-0.0270386 	0
2.99216 	2.39373 	-1.66533e-15 	1.22793 	-0.0249018 	0
2.94525 	2.3562 	-1.69309e-15 	1.22985 	-0.0268056 	0
2.89697 	2.31758 	-1.58207e-15 	1.23135 	-0.0287851 	0
2.85432 	2.28346 	-1.38778e-15 	1.23429 	-0.0264191 	0
2.80473 	2.24378 	-1.05471e-15 	1.23549 	-0.0284161 	0
2.76341 	2.21072 	-8.88178e-16 	1.23847 	-0.0258909 	0
2.71535 	2.17228 	-8.88178e-16 	1.23931 	-0.0279189 	0
2.67531 	2.14025 	-7.21645e-16 	1.24233 	-0.0252329 	0
2.62874 	2.103 	-6.10623e-16 	1.24273 	-0.0273057 	0
2.58994 	2.07196 	-7.77156e-16 	1.24584 	-0.0244576 	0
2.54482 	2.03586 	-8.88178e-16 	1.24571 	-0.0265886 	0
2.50723 	2.00578 	-8.88178e-16 	1.24891 	-0.0235777 	0
2.46399 	1.97119 	-9.81853e-16 	1.24818 	-0.0257802 	0
2.42707 	1.94166 	-1.2039e-15 	1.24643 	-0.028117 	0
2.39177 	1.91342 	-1.22125e-15 	1.25007 	-0.0248932 	0
2.34941 	1.87953 	-9.99201e-16 	1.24752 	-0.0273237 	0
2.3152 	1.85216 	-7.77156e-16 	1.25131 	-0.0239403 	0
2.27415 	1.81932 	-7.77156e-16 	1.24788 	-0.0264764 	0
2.24101 	1.79281 	-8.88178e-16 	1.25183 	-0.0229346 	0
2.20123 	1.76098 	-6.66134e-16 	1.24742 	-0.0255875 	0
2.16911 	1.73529 	-4.44089e-16 	1.25156 	-0.0218888 	0
2.13057 	1.70445 	-4.44089e-16 	1.24609 	-0.0246695 	0
2.09945 	1.67956 	-4.44089e-16 	1.25044 	-0.0208162 	0
2.06562 	1.6525 	-2.22045e-16 	1.24382 	-0.023735 	0
2.03194 	1.62555 	1.11022e-16 	1.2356 	-0.0268072 	0
2.00272 	1.60218 	3.33067e-16 	1.24055 	-0.0227963 	0
1.96653 	1.57323 	3.33067e-16 	1.23103 	-0.0260168 	0
1.93822 	1.55057 	2.22045e-16 	1.23622 	-0.0218662 	0
1.90315 	1.52252 	-1.11022e-16 	1.22533 	-0.0252426 	0
1.87571 	1.50057 	-2.77556e-16 	1.23077 	-0.0209573 	0
1.84173 	1.47339 	-4.996e-16 	1.21845 	-0.0244968 	0
1.81515 	1.45212 	-7.77156e-16 	1.22415 	-0.020082 	0
1.7866 	1.42928 	-4.44089e-16 	1.21036 	-0.0237912 	0
1.75646 	1.40517 	-2.22045e-16 	1.19468 	-0.0276047 	0
1.7315 	1.3852 	-1.11022e-16 	1.201 	-0.0231379 	0
1.6996 	1.35968 	-1.11022e-16 	1.18376 	-0.027113 	0
1.67541 	1.34033 	-2.77556e-16 	1.19034 	-0.0225483 	0
1.64449 	1.31559 	-2.77556e-16 	1.1715 	-0.0266862 	0
1.62106 	1.29685 	-3.33067e-16 	1.17834 	-0.0220333 	0
1.59296 	1.27437 	-6.66134e-16 	1.15787 	-0.0263327 	0
1.56839 	1.25471 	-8.88178e-16 	1.13557 	-0.0306052 	0
1.54638 	1.23711 	-9.99201e-16 	1.14281 	-0.0260585 	0
1.51736 	1.21389 	-1.11022e-15 	1.11886 	-0.0304446 	0
1.49603 	1.19683 	-1.33227e-15 	1.12626 	-0.0258683 	0
1.46791 	1.17432 	-1.44329e-15 	1.10064 	-0.0303468 	0
1.44724 	1.1578 	-1.33227e-15 	1.10815 	-0.0257628 	0
1.42224 	1.13779 	-1.44329e-15 	1.08081 	-0.0302685 	0
1.39997 	1.11997 	-1.55431e-15 	1.05215 	-0.0343434 	0
1.38057 	1.10445 	-1.55431e-15 	1.05922 	-0.0300675 	0
1.35416 	1.08333 	-1.22125e-15 	1.02905 	-0.0339912 	0
1.33536 	1.06829 	-8.88178e-16 	1.03568 	-0.0297274 	0
1.31653 	1.05322 	-8.95117e-16 	1.00156 	-0.0348449 	-2.32075e-22
1.29873 	1.03899 	-1.00614e-15 	1.00723 	-0.0306248 	-3.58081e-22
1.2844 	1.02752 	-9.99201e-16 	0.963043 	-0.0361594 	9.95432e-22
1.26631 	1.01304 	-8.60423e-16 	0.966893 	-0.0317577 	1.35124e-23
1.25237 	1.0019 	-8.60423e-16 	0.920952 	-0.0358482 	-3.4871e-22
1.23709 	0.989673 	-8.88178e-16 	0.923243 	-0.030989 	-2.4572e-22
1.22038 	0.976303 	-8.88178e-16 	0.925672 	-0.0246046 	5.64761e-22
1.20712 	0.965699 	-9.29812e-16 	0.8805 	-0.0291176 	6.0913e-22
1.18842 	0.95074 	-7.07767e-16 	0.883721 	-0.0225624 	1.60096e-23
1.17555 	0.940441 	-4.44089e-16 	0.839631 	-0.0281428 	-5.07266e-22
1.13525 	0.908203 	-3.33067e-16 	0.832699 	-0.0308936 	-1.92352e-21
1.06503 	0.852026 	1.11022e-16 	0.752862 	-0.054999 	1.60804e-21
0.998203 	0.798563 	4.44089e-16 	0.684181 	-0.053961 	2.18615e-21
0.934602 	0.747682 	4.44089e-16 	0.607568 	-0.0556302 	1.86717e-21
0.874074 	0.699259 	3.33067e-16 	0.530787 	-0.0543108 	-6.46844e-22
0.816469 	0.653175 	1.11022e-16 	0.454034 	-0.0516765 	-2.0349e-21
0.761647 	0.609318 	0 	0.378999 	-0.0474453 	7.49158e-22
0.709473 	0.567578 	0 	0.306918 	-0.0417515 	-3.48356e-21
0.659819 	0.527855 	0 	0.239039 	-0.0347036 	1.71445e-22
0.612564 	0.490051 	0 	0.176553 	-0.0265493 	6.19881e-22
0.567591 	0.454073 	0 	0.12073 	-0.0176599 	-1.38205e-21
0.524791 	0.419833 	0 	0.0728629 	-0.00879711 	2.26333e-21
0.484058 	0.387247 	0 	0.0348191 	-0.000718179 	-2.13981e-21
0.445293 	0.356235 	2.22045e-16 	0.00812652 	0.00417766 	1.13534e-21
0.408401 	0.326721 	5.55112e-16 	-0.00315047 	0.00532356 	-3.61188e-21
-0.408401 	-0.326721 	-1.11022e-15 	0.128589 	-0.157289 	7.67705e-22
-0.445293 	-0.356235 	-9.99201e-16 	0.314911 	-0.357253 	5.89643e-22
-0.484058 	-0.387247 	-1.22125e-15 	0.461758 	-0.472497 	1.45841e-21
-0.524791 	-0.419833 	-1.33227e-15 	0.570917 	-0.526617 	4.32457e-22
-0.567591 	-0.454073 	-8.88178e-16 	0.652909 	-0.536875 	-1.48239e-21
-0.612564 	-0.490051 	-2.22045e-16 	0.713892 	-0.519628 	-4.74928e-22
-0.659819 	-0.527855 	2.22045e-16 	0.760283 	-0.487004 	-4.1197e-22
-0.709473 	-0.567578 	3.33067e-16 	0.796616 	-0.447776 	1.70074e-21
-0.761647 	-0.609318 	-1.11022e-16 	0.826236 	-0.407382 	-7.57459e-22
-0.816469 	-0.653175 	-5.55112e-16 	0.851278 	-0.368799 	7.67937e-22
-0.874074 	-0.699259 	-6.66134e-16 	0.873057 	-0.333325 	6.97588e-22
-0.934602 	-0.747682 	-3.33067e-16 	0.89236 	-0.301272 	-2.05539e-21
-0.998203 	-0.798563 	-1.11022e-16 	0.909579 	-0.272522 	-2.48107e-21
-1.06503 	-0.852026 	-4.44089e-16 	0.924925 	-0.246775 	-1.80438e-21
-1.13525 	-0.908203 	-9.99201e-16 	0.940354 	-0.222351 	9.29035e-22
-1.17553 	-0.940422 	-1.22125e-15 	0.945041 	-0.209519 	-1.58807e-22
-1.19337 	-0.954693 	-9.99201e-16 	0.953554 	-0.214617 	1.04395e-21
-1.21199 	-0.969588 	-8.32667e-16 	0.95359 	-0.201428 	5.17881e-24
-1.23105 	-0.984836 	-6.10623e-16 	0.961519 	-0.206117 	-4.77862e-23
-1.24941 	-0.999529 	-4.44089e-16 	0.959638 	-0.191942 	4.6128e-23
-1.2698 	-1.01584 	-4.44089e-16 	0.966785 	-0.196568 	-2.13374e-22
-1.28792 	-1.03034 	-4.44089e-16 	0.964634 	-0.181594 	-4.07448e-23
-1.30793 	-1.04635 	-6.10623e-16 	0.971012 	-0.185963 	7.82168e-23
-1.32894 	-1.06315 	-8.32667e-16 	0.976294 	-0.187176 	0
-1.34774 	-1.07819 	-9.4369e-16 	0.973546 	-0.172235 	0
-1.38282 	-1.10626 	-9.4369e-16 	0.977982 	-0.171131 	0
-1.40704 	-1.12563 	-8.88178e-16 	0.982391 	-0.169726 	0
-1.42706 	-1.14165 	-8.88178e-16 	0.979763 	-0.15581 	0
-1.46293 	-1.17034 	-9.99201e-16 	0.983767 	-0.154873 	0
-1.49035 	-1.19228 	-9.99201e-16 	0.987775 	-0.153802 	0
-1.51167 	-1.20934 	-1.05471e-15 	0.985283 	-0.140859 	0
-1.54824 	-1.23859 	-9.99201e-16 	0.988934 	-0.140002 	0
-1.57922 	-1.26337 	-8.32667e-16 	0.992587 	-0.138976 	0
-1.60193 	-1.28154 	-8.88178e-16 	0.990233 	-0.126948 	0
-1.6391 	-1.31128 	-9.4369e-16 	0.99355 	-0.12613 	0
-1.67401 	-1.3392 	-1.16573e-15 	0.996863 	-0.125159 	0
-1.69819 	-1.35855 	-1.22125e-15 	0.994608 	-0.113981 	0
-1.73588 	-1.3887 	-9.99201e-16 	0.997595 	-0.113194 	0
-1.77512 	-1.42009 	-7.91034e-16 	1.00057 	-0.112261 	0
-1.80088 	-1.4407 	-7.91034e-16 	0.998376 	-0.10187 	0
-1.83894 	-1.47115 	-5.55112e-16 	1.00103 	-0.101098 	0
-1.88297 	-1.50638 	-2.22045e-16 	1.00367 	-0.100187 	0
-1.9104 	-1.52832 	-1.11022e-16 	1.00149 	-0.0905234 	0
-1.94871 	-1.55897 	0 	1.00381 	-0.0897528 	0
-1.99801 	-1.59841 	1.11022e-16 	1.00611 	-0.0888482 	0
-2.02723 	-1.62179 	3.33067e-16 	1.00392 	-0.0798582 	0
-2.06562 	-1.6525 	3.33067e-16 	1.00591 	-0.0790782 	0
-2.12073 	-1.69659 	2.22045e-16 	1.00787 	-0.0781701 	0
-2.15185 	-1.72148 	1.11022e-16 	1.00564 	-0.0698032 	0
-2.19014 	-1.75211 	0 	1.00731 	-0.0690071 	0
-2.25164 	-1.80131 	1.11022e-16 	1.00894 	-0.0680894 	0
-2.28478 	-1.82782 	1.11022e-16 	1.00667 	-0.0602999 	0
-2.32275 	-1.8582 	0 	1.00803 	-0.0594857 	0
-2.39127 	-1.91301 	2.22045e-16 	1.00935 	-0.0585569 	0
-2.42657 	-1.94126 	4.44089e-16 	1.00704 	-0.0513029 	0
-2.46399 	-1.97119 	4.44089e-16 	1.0081 	-0.0504738 	0
-2.53802 	-2.03041 	3.67761e-16 	1.00914 	-0.0495379 	0
-2.57781 	-2.06225 	3.67761e-16 	1.01014 	-0.0484933 	0
-2.61661 	-2.09329 	4.996e-16 	1.00761 	-0.0419457 	0
-2.69326 	-2.15461 	6.38378e-16 	1.00838 	-0.0410126 	0
-2.73914 	-2.19131 	6.93889e-16 	1.00913 	-0.0399797 	0
-2.78046 	-2.22437 	6.66134e-16 	1.00662 	-0.0338916 	0
-2.85859 	-2.28687 	8.32667e-16 	1.00717 	-0.0329782 	0
-2.91122 	-2.32898 	9.4369e-16 	1.0077 	-0.0319754 	0
-2.95523 	-2.36419 	1.05471e-15 	1.00528 	-0.0263204 	0
-3.03468 	-2.42775 	1.27676e-15 	1.00564 	-0.0254527 	0
-3.09478 	-2.47582 	1.33227e-15 	1.00598 	-0.0245073 	0
-3.14165 	-2.51332 	1.33227e-15 	1.00373 	-0.019265 	0
-3.22223 	-2.57778 	1.4988e-15 	1.00394 	-0.0184795 	0
-3.29058 	-2.63246 	1.60982e-15 	1.00413 	-0.01763 	0
-3.3405 	-2.6724 	1.44329e-15 	1.00217 	-0.0127901 	0
-3.42197 	-2.73757 	1.55431e-15 	1.00227 	-0.0121368 	0
-3.49943 	-2.79955 	1.88738e-15 	1.00236 	-0.0114354 	0
-3.5526 	-2.84208 	2.22045e-15 	1.00083 	-0.00700359 	0
-3.6347 	-2.90776 	2.44249e-15 	1.00086 	-0.0065479 	0
-3.72221 	-2.97777 	2.35922e-15 	1.00089 	-0.00606208 	0
-3.77884 	-3.02307 	2.02616e-15 	1.00005 	-0.00205637 	0
-3.86127 	-3.08901 	1.77636e-15 	1.00005 	-0.00188129 	0
-3.95985 	-3.16788 	1.77636e-15 	1.00006 	-0.00169606 	0
