-3.75 	3.93985 	-1.94289e-16 	1.00102 	0.000378056 	0
-3.75 	3.8214 	-1.8735e-16 	1.00101 	0.00112086 	0
-3.75 	3.70663 	-1.73472e-16 	1.00101 	0.001837 	0
-3.75 	3.59542 	-1.66533e-16 	1.001 	0.00252611 	0
-3.75 	3.48766 	-5.55112e-17 	1.00099 	0.0031876 	0
-3.75 	3.38324 	6.245e-17 	1.00097 	0.00382083 	0
-3.75 	3.28206 	1.80411e-16 	1.00095 	0.00442529 	0
-3.75 	3.18402 	1.8735e-16 	1.00093 	0.00500053 	0
-3.75 	3.08901 	7.63278e-17 	1.00091 	0.00554622 	0
-3.75 	2.99696 	6.93889e-17 	1.00089 	0.00606207 	0
-3.75 	2.90776 	-1.52656e-16 	1.00086 	0.0065479 	0
-3.75 	2.82133 	-2.70617e-16 	1.00083 	0.00700359 	0
-3.75 	2.73757 	-5.55112e-17 	1.0008 	0.00742911 	0
-3.75 	2.65642 	4.85723e-17 	1.00076 	0.00782455 	0
-3.75 	2.57778 	2.63678e-16 	1.00072 	0.00819006 	0
-3.75 	2.50158 	4.85723e-16 	1.00068 	0.00852593 	0
-3.75 	2.42775 	4.996e-16 	1.00064 	0.00883251 	0
-3.75 	2.3562 	5.20417e-16 	1.0006 	0.00911029 	0
-3.75 	2.28687 	5.34295e-16 	1.00055 	0.00935982 	0
-3.75 	2.2197 	4.23273e-16 	1.0005 	0.00958177 	0
-3.75 	2.15461 	3.05311e-16 	1.00045 	0.00977689 	0
-3.75 	2.09153 	3.1225e-16 	1.0004 	0.00994601 	0
-3.75 	2.03041 	3.19189e-16 	1.00035 	0.01009 	0
-3.75 	1.97119 	3.19189e-16 	1.00029 	0.0102099 	0
-3.75 	1.91381 	1.94289e-16 	1.00024 	0.0103066 	0
-3.75 	1.8582 	7.63278e-17 	1.00018 	0.0103813 	0
-3.75 	1.80432 	8.32667e-17 	1.00013 	0.0104351 	0
-3.75 	1.75211 	8.32667e-17 	1.00007 	0.0104689 	0
-3.75 	1.70152 	8.32667e-17 	1.00002 	0.0104841 	0
-3.75 	1.6525 	1.8735e-16 	0.999964 	0.0104817 	0
-3.75 	1.605 	2.98372e-16 	0.999909 	0.0104629 	0
-3.75 	1.55897 	3.05311e-16 	0.999855 	0.0104288 	0
-3.75 	1.51437 	3.05311e-16 	0.999802 	0.0103805 	0
-3.75 	1.47115 	3.05311e-16 	0.999749 	0.0103191 	0
-3.75 	1.42928 	3.05311e-16 	0.999697 	0.0102457 	0
-3.75 	1.3887 	3.19189e-16 	0.999645 	0.0101613 	0
-3.75 	1.34938 	2.35922e-16 	0.999595 	0.0100669 	0
-3.75 	1.31128 	1.38778e-16 	0.999545 	0.00996349 	0
-3.75 	1.27437 	1.249e-16 	0.999497 	0.009852 	0
-3.75 	1.23859 	1.11022e-16 	0.999449 	0.00973332 	0
-3.75 	1.20393 	9.71445e-17 	0.999403 	0.00960819 	0
-3.75 	1.17034 	1.94289e-16 	0.999357 	0.00947745 	0
-3.75 	1.13779 	2.98372e-16 	0.999312 	0.00934299 	0
-3.75 	1.10626 	2.91434e-16 	0.999269 	0.00920773 	0
-3.75 	1.0757 	2.98372e-16 	0.999226 	0.00906652 	0
-3.75 	1.04329 	1.249e-16 	0.99918 	0.00887569 	1.8584e-23
-3.75 	1.00853 	8.32667e-17 	0.999139 	0.00861402 	1.98588e-23
-3.75 	0.973723 	3.747e-16 	0.999104 	0.00834211 	-1.39169e-23
-3.75 	0.938864 	5.27356e-16 	0.999075 	0.00806931 	-5.88542e-23
-3.75 	0.903954 	5.41234e-16 	0.999049 	0.00779335 	-3.10082e-23
-3.75 	0.868994 	3.60822e-16 	0.999027 	0.00751316 	9.43248e-23
-3.75 	0.833985 	2.498e-16 	0.999007 	0.00722889 	1.18986e-24
-3.75 	0.798927 	3.05311e-16 	0.998989 	0.00694121 	1.13312e-22
-3.75 	0.763821 	3.05311e-16 	0.998972 	0.00665049 	-1.66972e-22
-3.75 	0.728666 	1.38778e-16 	0.998957 	0.00635699 	1.77326e-23
-3.75 	0.693464 	-8.32667e-17 	0.998943 	0.00606098 	1.1553e-22
-3.75 	0.658217 	-1.11022e-16 	0.998931 	0.00576264 	-1.18927e-22
-3.75 	0.622924 	-2.77556e-16 	0.998919 	0.00546216 	1.62792e-23
-3.75 	0.587587 	-6.10623e-16 	0.998908 	0.00515968 	-7.62357e-24
-3.75 	0.552209 	-8.32667e-16 	0.998898 	0.00485538 	5.57435e-23
-3.75 	0.516789 	-9.4369e-16 	0.998889 	0.00454941 	-1.38451e-22
-3.75 	0.481331 	-1.05471e-15 	0.998881 	0.0042419 	4.00028e-23
-3.75 	0.445835 	-1.16573e-15 	0.998873 	0.00393299 	-3.55575e-23
-3.75 	0.410304 	-1.27676e-15 	0.998866 	0.00362281 	1.17904e-23
-3.75 	0.374741 	-1.38778e-15 	0.99886 	0.00331148 	2.52463e-23
-3.75 	0.339147 	-1.38778e-15 	0.998854 	0.00299912 	3.40594e-23
-3.75 	0.303525 	-1.38778e-15 	0.998849 	0.00268583 	-2.23844e-23
-3.75 	0.267878 	-1.66533e-15 	0.998845 	0.00237173 	2.55958e-24
-3.75 	0.232208 	-2.10942e-15 	0.998841 	0.00205692 	7.4665e-23
-3.75 	0.196518 	-2.33147e-15 	0.998838 	0.00174149 	-3.78397e-23
-3.75 	0.160811 	-2.498e-15 	0.998835 	0.00142555 	-6.03479e-24
-3.75 	0.12509 	-2.66454e-15 	0.998833 	0.00110919 	-3.39128e-23
-3.75 	0.0893577 	-2.77556e-15 	0.998831 	0.000792506 	1.62502e-23
-3.75 	0.0536178 	-2.83107e-15 	0.99883 	0.000475595 	1.02699e-23
-3.75 	0.0178731 	-2.88658e-15 	0.99883 	0.000158547 	-6.61237e-26
-3.75 	-0.0178731 	-2.94209e-15 	0.99883 	-0.000158548 	4.52557e-25
-3.75 	-0.0536178 	-2.94209e-15 	0.99883 	-0.000475596 	8.73604e-24
-3.75 	-0.0893577 	-3.10862e-15 	0.998831 	-0.000792507 	1.48005e-23
-3.75 	-0.12509 	-3.27516e-15 	0.998833 	-0.00110919 	-2.98956e-23
-3.75 	-0.160811 	-3.21965e-15 	0.998835 	-0.00142555 	-1.38564e-23
-3.75 	-0.196518 	-3.05311e-15 	0.998838 	-0.00174149 	-3.39933e-23
-3.75 	-0.232208 	-3.21965e-15 	0.998841 	-0.00205692 	6.79869e-23
-3.75 	-0.267878 	-3.33067e-15 	0.998845 	-0.00237173 	-6.74002e-24
-3.75 	-0.303525 	-3.27516e-15 	0.998849 	-0.00268584 	-2.81433e-23
-3.75 	-0.339147 	-3.33067e-15 	0.998854 	-0.00299912 	2.75435e-23
-3.75 	-0.374741 	-3.4972e-15 	0.99886 	-0.00331149 	4.48308e-23
-3.75 	-0.410304 	-3.66374e-15 	0.998866 	-0.00362282 	3.00692e-23
-3.75 	-0.445835 	-3.9968e-15 	0.998873 	-0.00393299 	-1.62149e-23
-3.75 	-0.481331 	-4.66294e-15 	0.998881 	-0.0042419 	7.80719e-23
-3.75 	-0.516789 	-4.996e-15 	0.998889 	-0.00454941 	-1.68676e-22
-3.75 	-0.552209 	-4.94049e-15 	0.998898 	-0.00485538 	7.94527e-23
-3.75 	-0.587587 	-4.71845e-15 	0.998908 	-0.00515968 	-2.28192e-25
-3.75 	-0.622924 	-4.60743e-15 	0.998919 	-0.00546216 	3.40012e-23
-3.75 	-0.658217 	-4.4964e-15 	0.998931 	-0.00576264 	-1.26771e-22
-3.75 	-0.693464 	-4.38538e-15 	0.998943 	-0.00606098 	1.03331e-22
-3.75 	-0.728666 	-4.41314e-15 	0.998957 	-0.006357 	-9.46791e-24
-3.75 	-0.763821 	-4.27436e-15 	0.998972 	-0.00665049 	-1.30916e-22
-3.75 	-0.798927 	-4.38538e-15 	0.998989 	-0.00694121 	1.51148e-22
-3.75 	-0.833985 	-4.46865e-15 	0.999007 	-0.00722889 	-5.60476e-23
-3.75 	-0.868994 	-4.57967e-15 	0.999027 	-0.00751316 	3.75161e-23
-3.75 	-0.903954 	-4.64906e-15 	0.999049 	-0.00779335 	-5.62133e-23
-3.75 	-0.938864 	-4.57967e-15 	0.999075 	-0.00806931 	-5.32763e-24
-3.75 	-0.973723 	-4.84335e-15 	0.999104 	-0.00834212 	-1.43281e-23
-3.75 	-1.00853 	-4.59355e-15 	0.999139 	-0.00861402 	-2.21132e-23
-3.75 	-1.04329 	-4.14946e-15 	0.99918 	-0.00887569 	3.16163e-23
-3.75 	-1.0757 	-4.10783e-15 	0.999226 	-0.00906652 	0
-3.75 	-1.10626 	-3.98986e-15 	0.999269 	-0.00920773 	0
-3.75 	-1.13779 	-3.75394e-15 	0.999312 	-0.009343 	0
-3.75 	-1.17034 	-3.64292e-15 	0.999357 	-0.00947745 	0
-3.75 	-1.20393 	-3.64292e-15 	0.999403 	-0.0096082 	0
-3.75 	-1.23859 	-3.64292e-15 	0.999449 	-0.00973332 	0
-3.75 	-1.27437 	-3.6568e-15 	0.999497 	-0.009852 	0
-3.75 	-1.31128 	-3.66374e-15 	0.999545 	-0.00996349 	0
-3.75 	-1.34938 	-3.42781e-15 	0.999595 	-0.0100669 	0
-3.75 	-1.3887 	-3.18495e-15 	0.999645 	-0.0101613 	0
-3.75 	-1.42928 	-3.17107e-15 	0.999697 	-0.0102457 	0
-3.75 	-1.47115 	-3.1572e-15 	0.999749 	-0.0103191 	0
-3.75 	-1.51437 	-3.15026e-15 	0.999802 	-0.0103805 	0
-3.75 	-1.55897 	-3.14332e-15 	0.999855 	-0.0104288 	0
-3.75 	-1.605 	-3.12944e-15 	0.999909 	-0.0104629 	0
-3.75 	-1.6525 	-3.1225e-15 	0.999964 	-0.0104817 	0
-3.75 	-1.70152 	-3.24046e-15 	1.00002 	-0.0104841 	0
-3.75 	-1.75211 	-3.34455e-15 	1.00007 	-0.0104689 	0
-3.75 	-1.80432 	-3.33067e-15 	1.00013 	-0.0104351 	0
-3.75 	-1.8582 	-3.33761e-15 	1.00018 	-0.0103813 	0
-3.75 	-1.91381 	-3.35149e-15 	1.00024 	-0.0103067 	0
-3.75 	-1.97119 	-3.25434e-15 	1.00029 	-0.0102099 	0
-3.75 	-2.03041 	-3.04617e-15 	1.00035 	-0.01009 	0
-3.75 	-2.09153 	-2.83801e-15 	1.0004 	-0.00994601 	0
-3.75 	-2.15461 	-2.73392e-15 	1.00045 	-0.0097769 	0
-3.75 	-2.2197 	-3.07393e-15 	1.0005 	-0.00958177 	0
-3.75 	-2.28687 	-3.407e-15 	1.00055 	-0.00935982 	0
-3.75 	-2.3562 	-3.50414e-15 	1.0006 	-0.00911029 	0
-3.75 	-2.42775 	-3.60822e-15 	1.00064 	-0.00883251 	0
-3.75 	-2.50158 	-3.60129e-15 	1.00068 	-0.00852593 	0
-3.75 	-2.57778 	-3.60129e-15 	1.00072 	-0.00819006 	0
-3.75 	-2.65642 	-3.60822e-15 	1.00076 	-0.00782455 	0
-3.75 	-2.73757 	-3.38618e-15 	1.0008 	-0.00742911 	0
-3.75 	-2.82133 	-3.16414e-15 	1.00083 	-0.00700359 	0
-3.75 	-2.90776 	-3.16414e-15 	1.00086 	-0.0065479 	0
-3.75 	-2.99696 	-3.16414e-15 	1.00089 	-0.00606208 	0
-3.75 	-3.08901 	-3.16414e-15 	1.00091 	-0.00554622 	0
-3.75 	-3.18402 	-3.2821e-15 	1.00093 	-0.00500053 	0
-3.75 	-3.28206 	-3.40006e-15 	1.00095 	-0.00442529 	0
-3.75 	-3.38324 	-3.61516e-15 	1.00097 	-0.00382083 	0
-3.75 	-3.48766 	-3.93435e-15 	1.00099 	-0.0031876 	0
-3.75 	-3.59542 	-4.03844e-15 	1.001 	-0.00252611 	0
-3.75 	-3.70663 	-4.03844e-15 	1.00101 	-0.001837 	0
-3.75 	-3.8214 	-3.93435e-15 	1.00101 	-0.00112086 	0
-3.75 	-3.93985 	-3.80251e-15 	1.00102 	-0.000378056 	0
