/*--------------------------------*- C++ -*----------------------------------*\
  =========                 |
  \\      /  F ield         | OpenFOAM: The Open Source CFD Toolbox
   \\    /   O peration     | Website:  https://openfoam.org
    \\  /    A nd           | Version:  9
     \\/     M anipulation  |
\*---------------------------------------------------------------------------*/
FoamFile
{
    format      ascii;
    class       volVectorField;
    location    "27";
    object      U;
}
// * * * * * * * * * * * * * * * * * * * * * * * * * * * * * * * * * * * * * //

dimensions      [0 1 -1 0 0 0 0];

internalField   nonuniform List<vector> 
8500
(
(-0.00650755 0.0026005 0)
(-0.0292141 0.00448313 -6.801e-23)
(-0.0613491 0.00494694 -3.73928e-24)
(-0.0892497 0.00478381 7.08278e-37)
(-0.116767 0.00446928 -1.04168e-23)
(-0.1373 0.00386925 8.67354e-24)
(-0.161355 0.00382191 -5.86883e-23)
(-0.172361 0.00251611 -9.09486e-23)
(-0.192853 0.00355642 -8.31074e-23)
(-0.20018 0.00128225 -4.31616e-24)
(-0.00680153 0.00774915 1.96473e-22)
(-0.02947 0.0133747 6.35417e-23)
(-0.0612232 0.0147656 2.5499e-22)
(-0.0885628 0.0142809 0)
(-0.115492 0.0133388 0)
(-0.135037 0.0115474 1.74642e-23)
(-0.158515 0.0113982 4.41065e-23)
(-0.167778 0.00748715 9.70731e-23)
(-0.187735 0.0106316 6.25545e-23)
(-0.192798 0.00370736 1.72735e-23)
(-0.00738124 0.0127427 -1.74597e-22)
(-0.0299783 0.0220437 0)
(-0.0609759 0.0243589 -2.39962e-22)
(-0.0871981 0.0235663 0)
(-0.112956 0.0219991 -4.17254e-23)
(-0.130521 0.0190459 3.47427e-23)
(-0.152843 0.0187647 0)
(-0.158578 0.0122837 0)
(-0.17751 0.0175994 0)
(-0.178075 0.005732 0)
(-0.00823078 0.0174846 3.50945e-22)
(-0.0307315 0.0303475 -2.55135e-22)
(-0.0606163 0.0335793 -6.01682e-23)
(-0.0851734 0.0324994 -3.75093e-22)
(-0.109181 0.0303051 -3.76449e-22)
(-0.123771 0.02625 3.5028e-23)
(-0.144352 0.0257577 -2.92466e-23)
(-0.144685 0.0168161 3.38359e-22)
(-0.16217 0.0244044 1.3059e-26)
(-0.156015 0.00715005 3.41144e-22)
(-0.00932772 0.0218884 -3.50944e-22)
(-0.0317188 0.0381518 -3.29693e-22)
(-0.060156 0.0422828 9.05084e-23)
(-0.0825139 0.0409407 5.00567e-22)
(-0.104194 0.0381046 -4.25445e-23)
(-0.114818 0.033051 5.57004e-22)
(-0.133044 0.0321776 0)
(-0.12597 0.0210242 -3.87494e-22)
(-0.141635 0.0310068 -8.25686e-23)
(-0.126434 0.00787124 -4.7425e-22)
(-0.0106447 0.0258807 8.84468e-23)
(-0.0329261 0.0453337 5.48348e-22)
(-0.0596077 0.0503302 -4.23756e-22)
(-0.0792503 0.0487528 -2.98591e-25)
(-0.0980162 0.0452382 -3.79464e-22)
(-0.103701 0.0393478 1.40681e-22)
(-0.118893 0.0377771 -5.87535e-23)
(-0.102244 0.0248753 4.84637e-22)
(-0.115708 0.0373515 -8.27287e-23)
(-0.0887004 0.00804294 2.71583e-22)
(-0.0121515 0.0294042 4.43081e-23)
(-0.034336 0.0517841 0)
(-0.058981 0.0575878 -1.57129e-24)
(-0.0754143 0.0558023 0)
(-0.0906515 0.0515423 6.73064e-22)
(-0.0904642 0.0450492 -5.57498e-22)
(-0.101815 0.0422544 0)
(-0.0732614 0.0283717 -1.13313e-24)
(-0.0840603 0.0432164 0)
(-0.0414392 0.00828246 0)
(-0.013817 0.032419 -7.1432e-22)
(-0.0359282 0.0574105 -7.37771e-23)
(-0.0582781 0.0639308 5.46668e-22)
(-0.0710313 0.0619602 1.01311e-22)
(-0.0820669 0.0568547 -6.76936e-22)
(-0.0751326 0.050079 -4.17576e-22)
(-0.0815961 0.0452473 -5.90437e-23)
(-0.038745 0.0316037 4.81142e-22)
(-0.0462444 0.0478626 -8.30372e-23)
(0.0177616 0.0096449 6.87403e-23)
(-0.0156112 0.034904 8.04147e-22)
(-0.0376781 0.0621381 -5.93009e-22)
(-0.0574882 0.0692465 -1.83195e-22)
(-0.0661084 0.0671017 1.01065e-22)
(-0.0721671 0.0610229 6.76864e-22)
(-0.0576852 0.0543917 6.29242e-22)
(-0.0577696 0.0463443 -5.91753e-23)
(0.00167645 0.0347482 9.62975e-23)
(-0.00207263 0.050494 -1.66452e-22)
(0.0929152 0.0126314 7.00259e-23)
(-0.0175075 0.0368563 7.22329e-22)
(-0.0395557 0.0659111 5.93331e-22)
(-0.0565797 0.0734376 -8.59553e-22)
(-0.0606183 0.0711073 -1.01375e-22)
(-0.060756 0.0639052 0)
(-0.0380122 0.0579906 0)
(-0.0295495 0.0453458 0)
(0.0490551 0.03783 -1.52565e-21)
(0.0481791 0.0502328 -6.95808e-22)
(0.187713 0.0177967 5.33726e-22)
(-0.0194839 0.0382899 -1.44894e-21)
(-0.0415227 0.0686934 0)
(-0.0554924 0.0764267 1.96771e-21)
(-0.0544809 0.0738659 8.13955e-22)
(-0.0474915 0.0653754 8.4704e-23)
(-0.0157167 0.0608094 0)
(0.0040637 0.0424688 -9.66786e-22)
(0.10473 0.0412023 7.61439e-22)
(0.106219 0.0457422 6.95798e-22)
(0.303746 0.025623 -5.33706e-22)
(-0.0215234 0.0392337 8.17824e-22)
(-0.0435284 0.0704685 -7.48703e-23)
(-0.0541243 0.0781606 -9.85598e-22)
(-0.0475397 0.0752835 -9.16172e-22)
(-0.0319395 0.0654328 0)
(0.010088 0.0625887 1.12086e-21)
(0.0447901 0.038211 5.46074e-25)
(0.169511 0.0456653 6.57371e-22)
(0.177393 0.0372928 7.80958e-22)
(0.43938 0.035214 -5.29446e-22)
(-0.0236141 0.0397281 4.48231e-26)
(-0.0455044 0.0712383 1.28308e-21)
(-0.0523173 0.0786121 -1.23978e-22)
(-0.0394733 0.0752681 7.15167e-22)
(-0.013577 0.0641726 4.27244e-22)
(0.0406172 0.0631069 2.84578e-22)
(0.0954278 0.0334299 9.64438e-22)
(0.243819 0.0510564 -8.54406e-22)
(0.270009 0.0288706 -5.31525e-22)
(0.588461 0.0453544 3.89692e-22)
(-0.0257481 0.0398212 0)
(-0.0473578 0.0710212 -1.05679e-21)
(-0.0498559 0.0777877 -1.24475e-22)
(-0.0297667 0.0737565 1.6248e-24)
(0.00842699 0.0616769 6.81661e-22)
(0.0773934 0.0622727 -9.79932e-22)
(0.159133 0.0297372 9.58966e-22)
(0.328253 0.0558772 -9.77422e-23)
(0.390492 0.0264005 0)
(0.740619 0.0560389 0)
(-0.0279198 0.039565 9.28487e-23)
(-0.0489609 0.0698511 -1.21942e-21)
(-0.0464472 0.0757364 0)
(-0.0177231 0.0707912 -1.01052e-22)
(0.035283 0.0580948 8.51078e-23)
(0.122548 0.059965 0)
(0.238272 0.0291675 -9.60844e-22)
(0.424325 0.0590194 -7.56212e-22)
(0.536449 0.0331977 1.6461e-22)
(0.883669 0.0680159 -1.38335e-22)
(-0.0301201 0.039007 -9.32918e-23)
(-0.050146 0.0677803 1.29599e-21)
(-0.0416785 0.072529 0)
(-0.00243619 0.0665335 -9.23203e-22)
(0.0685555 0.0537564 8.51502e-23)
(0.178764 0.056516 -1.12258e-21)
(0.333348 0.0330474 -1.16285e-22)
(0.533915 0.0618285 8.53523e-22)
(0.694811 0.0479106 0)
(1.0071 0.0810406 1.0532e-21)
(-0.0323285 0.0381851 -1.41843e-21)
(-0.050702 0.0648737 -7.70524e-23)
(-0.0349956 0.0682592 -1.24927e-22)
(0.0172661 0.0612466 1.03333e-22)
(0.110213 0.0492518 -1.3595e-21)
(0.248884 0.0531916 1.12256e-21)
(0.442545 0.0413802 9.44848e-22)
(0.655824 0.0673578 7.56086e-22)
(0.847726 0.0667766 1.30628e-21)
(1.1048 0.0937299 -9.21447e-22)
(-0.034509 0.0371274 1.5123e-21)
(-0.0503613 0.0611981 0)
(-0.0257044 0.0630619 1.13454e-21)
(0.0428347 0.0552837 -1.03611e-22)
(0.162507 0.0454048 2.71813e-21)
(0.334909 0.0520144 0)
(0.561953 0.0534538 -9.44828e-22)
(0.782939 0.0772029 -1.88636e-24)
(0.980578 0.0865229 -1.46429e-21)
(1.17568 0.104645 1.32815e-22)
(-0.0366068 0.03585 0)
(-0.0487941 0.0568209 1.24631e-21)
(-0.0129661 0.0571122 -1.00927e-21)
(0.0759632 0.049114 0)
(0.227596 0.0432781 -1.35863e-21)
(0.436399 0.0550109 0)
(0.685628 0.0685235 9.29664e-22)
(0.904503 0.0904054 -7.54169e-22)
(1.08602 0.105218 -1.25045e-21)
(1.22268 0.112803 -1.00831e-21)
(-0.0385408 0.0343541 -1.91818e-22)
(-0.0456096 0.0518136 -1.08886e-21)
(0.00420778 0.0506261 0)
(0.118502 0.0433954 0)
(0.306818 0.0441177 0)
(0.549457 0.0631468 -1.38866e-22)
(0.806156 0.0856078 -9.31757e-22)
(1.01127 0.105128 -9.52735e-23)
(1.1634 0.121713 1.25044e-21)
(1.25119 0.117477 1.13427e-21)
(-0.040202 0.0326306 0)
(-0.0403538 0.0462501 -1.26382e-21)
(0.0269579 0.0438728 0)
(0.172254 0.0390752 0)
(0.3997 0.0490585 0)
(0.667252 0.0759267 1.37968e-22)
(0.916496 0.103355 -1.1385e-21)
(1.09841 0.120018 8.84792e-23)
(1.21643 0.134798 8.92671e-22)
(1.26812 0.118046 9.74822e-22)
(-0.0414664 0.030675 0)
(-0.032497 0.0401917 1.26382e-21)
(0.0565713 0.0372194 -1.0303e-21)
(0.238535 0.0374065 0)
(0.503214 0.0585924 -1.35625e-21)
(0.782061 0.0918584 0)
(1.0119 0.120576 9.10569e-22)
(1.1652 0.134012 -7.27093e-22)
(1.25079 0.143388 -1.19452e-21)
(1.29264 0.12863 -9.69892e-22)
(-0.0421933 0.0284732 1.60758e-21)
(-0.021441 0.0336897 0)
(0.0944336 0.0312274 9.0259e-22)
(0.317499 0.0396922 1.05622e-22)
(0.612031 0.0722322 2.71242e-21)
(0.887548 0.109269 0)
(1.09047 0.136566 -8.88924e-22)
(1.21376 0.146078 -1.44249e-21)
(1.27528 0.151565 -1.00145e-21)
(1.30175 0.1347 -5.33282e-24)
(-0.0422095 0.0259977 -1.70744e-21)
(-0.00651256 0.0268099 8.19727e-23)
(0.141862 0.0267641 1.28387e-22)
(0.4075 0.0467476 -1.06191e-22)
(0.719954 0.0887632 -1.35617e-21)
(0.979897 0.126859 1.09306e-21)
(1.15253 0.150919 8.8892e-22)
(1.24821 0.156702 7.15395e-22)
(1.28942 0.157994 1.14331e-21)
(1.3049 0.140486 -1.00991e-21)
(-0.0413244 0.0232204 1.01192e-22)
(0.0130668 0.0196615 1.23207e-21)
(0.199772 0.0250106 0)
(0.505 0.0584538 -7.38444e-22)
(0.82163 0.106844 -8.60215e-23)
(1.05768 0.143803 -1.09305e-21)
(1.19994 0.163689 1.06539e-22)
(1.27122 0.165839 5.99563e-22)
(1.29707 0.16369 0)
(1.30483 0.145512 8.98839e-22)
(-0.0393304 0.0201134 -1.04387e-22)
(0.0381809 0.01248 -1.31512e-21)
(0.268216 0.0272029 0)
(0.605311 0.073857 9.9157e-23)
(0.913504 0.125426 -8.62459e-23)
(1.12119 0.159703 0)
(1.23489 0.174999 -8.51398e-22)
(1.28574 0.173847 -6.8874e-22)
(1.29995 0.168691 -1.31626e-22)
(1.30157 0.150063 -1.10723e-22)
(-0.0359897 0.016648 0)
(0.069754 0.00575471 -1.51562e-21)
(0.346035 0.0341435 1.35901e-22)
(0.703764 0.0917191 -5.21604e-24)
(0.993837 0.143844 -6.76387e-22)
(1.17161 0.174418 -1.1966e-21)
(1.25971 0.185069 9.60289e-22)
(1.29391 0.180955 0)
(1.29948 0.173275 0)
(1.29721 0.154397 0)
(-0.0310076 0.0128044 2.29378e-24)
(0.108597 0.000332916 1.27077e-21)
(0.430859 0.0458317 1.37593e-22)
(0.796652 0.110995 9.56454e-22)
(1.06224 0.161734 5.89696e-22)
(1.21061 0.187965 -1.16859e-22)
(1.27647 0.194121 8.29011e-22)
(1.29748 0.187415 -5.59582e-22)
(1.29686 0.177588 -6.2874e-22)
(1.29167 0.158584 5.05068e-22)
(-0.0240062 0.00859383 7.89016e-22)
(0.15518 -0.00261181 8.87569e-23)
(0.519536 0.0615403 -1.09935e-21)
(0.88158 0.130971 -8.61756e-22)
(1.11916 0.178918 0)
(1.23991 0.200441 1.05439e-21)
(1.28698 0.202378 -1.586e-23)
(1.29775 0.193423 7.20829e-22)
(1.2927 0.181751 4.39669e-22)
(1.28564 0.162714 -4.00301e-22)
(-0.0145192 0.00409593 -1.81603e-21)
(0.209397 -0.00182266 0)
(0.608759 0.0802471 2.21495e-21)
(0.957336 0.151208 7.57093e-22)
(1.16553 0.195333 8.68715e-23)
(1.26116 0.211989 0)
(1.2927 0.210043 -8.06465e-22)
(1.29567 0.199138 6.11291e-22)
(1.28755 0.185846 4.74986e-22)
(1.27917 0.166831 -3.74504e-22)
(-0.00201943 -0.000498521 9.1888e-22)
(0.270459 0.00365864 7.16579e-22)
(0.695598 0.101041 -1.25166e-21)
(1.02356 0.17147 1.12534e-22)
(1.20247 0.210988 0)
(1.27585 0.222764 0)
(1.29478 0.217289 0)
(1.29192 0.204675 -1.20539e-21)
(1.28168 0.189929 -4.74991e-22)
(1.27242 0.170951 3.74487e-22)
(0.0140117 -0.0048444 8.50823e-22)
(0.336967 0.0141952 -7.10838e-22)
(0.777767 0.123277 7.29489e-23)
(1.08043 0.19164 0)
(1.23117 0.225931 6.5702e-22)
(1.28524 0.232919 4.36216e-22)
(1.29413 0.224257 5.01055e-23)
(1.28695 0.210118 -5.25484e-23)
(1.2753 0.194031 1.1377e-22)
(1.26543 0.175087 -4.59936e-23)
(0.033956 -0.00841434 -9.65693e-22)
(0.407141 0.0295292 8.992e-23)
(0.853679 0.146523 5.7782e-22)
(1.12843 0.211656 -1.61154e-22)
(1.25277 0.240233 -4.92832e-22)
(1.29038 0.242594 -6.1986e-22)
(1.2914 0.231057 4.9018e-23)
(1.28109 0.215517 2.97422e-22)
(1.26851 0.198168 0)
(1.25822 0.179231 -4.09749e-23)
(0.0579811 -0.0105483 -6.25711e-23)
(0.479087 0.0489992 0)
(0.922369 0.170481 6.15205e-24)
(1.16818 0.231464 0)
(1.26832 0.253972 6.40607e-22)
(1.29211 0.251909 -4.75613e-22)
(1.28707 0.237764 0)
(1.27453 0.220905 9.71067e-24)
(1.26137 0.202346 0)
(1.25078 0.183372 0)
(0.0860257 -0.0105554 -1.25065e-22)
(0.550997 0.0718405 8.16813e-22)
(0.983387 0.194931 -6.58714e-22)
(1.20039 0.251007 1.08999e-22)
(1.27875 0.267227 -2.92736e-22)
(1.29113 0.260964 -5.08615e-23)
(1.2815 0.244428 0)
(1.26739 0.226293 2.05921e-22)
(1.25391 0.206557 5.29985e-23)
(1.24311 0.187494 1.51834e-22)
(0.117792 -0.0078361 -5.2673e-22)
(0.621254 0.0973783 -3.29717e-22)
(1.03666 0.219713 -1.08505e-22)
(1.22576 0.270226 4.35345e-22)
(1.28487 0.280071 3.59583e-23)
(1.28794 0.269833 4.63815e-22)
(1.27493 0.251076 0)
(1.25976 0.231681 -2.48336e-22)
(1.24614 0.210788 4.61765e-23)
(1.23519 0.191575 -3.34729e-22)
(0.152781 -0.0019909 -5.26728e-22)
(0.688476 0.125078 3.42828e-22)
(1.08238 0.244703 -4.11644e-24)
(1.24498 0.289063 -5.06779e-22)
(1.28735 0.292564 -2.67668e-22)
(1.28296 0.278568 -2.61941e-23)
(1.2675 0.257714 2.1871e-23)
(1.25166 0.237054 2.7726e-22)
(1.23806 0.215022 -2.33035e-24)
(1.22701 0.195593 1.08888e-22)
(0.19035 0.00712851 -2.71326e-22)
(0.751516 0.154509 0)
(1.12089 0.269794 -2.96121e-22)
(1.25871 0.307469 0)
(1.28674 0.304752 -3.37081e-22)
(1.27649 0.287201 2.9078e-23)
(1.25933 0.264335 0)
(1.24312 0.242393 0)
(1.22965 0.219236 0)
(1.21856 0.199519 0)
(0.229759 0.0194429 2.37978e-22)
(0.809465 0.185292 1.15045e-22)
(1.15266 0.294879 2.96123e-22)
(1.26755 0.325407 0)
(1.28349 0.316665 0)
(1.26874 0.295742 -1.2116e-23)
(1.25049 0.270919 4.66111e-23)
(1.23414 0.247672 5.33435e-23)
(1.22091 0.223403 4.94241e-23)
(1.20984 0.203323 -8.19176e-24)
(0.270221 0.0347232 -4.30471e-24)
(0.861678 0.217061 -1.07666e-22)
(1.17812 0.319842 4.93305e-24)
(1.27207 0.34286 5.83387e-24)
(1.27796 0.328315 -8.91675e-24)
(1.25987 0.304182 3.39242e-24)
(1.24101 0.277434 -4.06676e-23)
(1.22472 0.25286 -4.98517e-23)
(1.21184 0.22749 -3.74033e-23)
(1.20088 0.206971 1.51039e-24)
(0.310938 0.0526726 0)
(0.907819 0.249473 -1.0856e-22)
(1.19767 0.34456 -3.35308e-24)
(1.27273 0.359814 6.83913e-24)
(1.27045 0.339701 1.22441e-37)
(1.24999 0.312499 -8.60346e-38)
(1.23091 0.283842 -3.64958e-23)
(1.21485 0.25792 -4.35223e-23)
(1.20241 0.231454 -3.43404e-23)
(1.19169 0.210429 0)
(0.35113 0.0729753 3.11885e-22)
(0.947791 0.282235 8.9009e-23)
(1.2117 0.368922 2.95268e-22)
(1.26995 0.37624 -1.33483e-23)
(1.26117 0.350805 0)
(1.23917 0.320654 1.03699e-23)
(1.2202 0.2901 2.39099e-23)
(1.20453 0.262815 4.68104e-23)
(1.19263 0.235248 2.65807e-23)
(1.18226 0.213675 6.52212e-24)
(0.390055 0.0953315 -2.77958e-22)
(0.981594 0.315087 0)
(1.22059 0.392804 -2.79133e-22)
(1.26408 0.392103 0)
(1.25032 0.361593 -2.82192e-23)
(1.22746 0.328599 2.34971e-23)
(1.2089 0.29616 0)
(1.19375 0.267505 0)
(1.18251 0.238831 0)
(1.17256 0.216688 0)
(0.427026 0.119463 5.51053e-22)
(1.00931 0.347788 -3.5375e-22)
(1.22471 0.416082 -6.7928e-23)
(1.25544 0.407359 -2.78493e-22)
(1.23801 0.372015 -2.5847e-22)
(1.2149 0.336276 1.80188e-23)
(1.19699 0.301969 -1.50449e-23)
(1.1825 0.271943 1.25838e-22)
(1.17206 0.242174 2.12477e-24)
(1.16252 0.219443 9.30287e-23)
(0.461431 0.145103 -5.51054e-22)
(1.03109 0.380113 -4.27181e-22)
(1.22442 0.438631 9.46494e-23)
(1.24428 0.421958 3.32968e-22)
(1.22438 0.382013 -1.5767e-23)
(1.20152 0.343625 2.7757e-22)
(1.18447 0.307476 0)
(1.17078 0.27607 -1.43452e-22)
(1.16135 0.245266 -2.22888e-23)
(1.15209 0.221956 -1.17375e-22)
(0.492739 0.17198 1.31195e-22)
(1.0471 0.411844 7.29975e-22)
(1.22002 0.460323 -4.25773e-22)
(1.23085 0.43584 -8.0684e-23)
(1.20949 0.391521 -1.93077e-22)
(1.18732 0.350577 4.14409e-23)
(1.17136 0.312621 -2.49994e-23)
(1.15862 0.279824 1.38872e-22)
(1.15035 0.248092 -2.31458e-23)
(1.14136 0.224256 6.29644e-23)
(0.520508 0.199805 6.64289e-23)
(1.05756 0.442768 0)
(1.21181 0.481024 2.66467e-23)
(1.21534 0.448938 0)
(1.19342 0.400461 3.8685e-22)
(1.17236 0.357062 -2.51248e-22)
(1.15767 0.317346 0)
(1.14609 0.283162 -1.68411e-23)
(1.13901 0.250591 0)
(1.13044 0.22617 0)
(0.544394 0.228264 -1.02037e-21)
(1.06267 0.472668 -7.89474e-23)
(1.20008 0.500602 5.19223e-22)
(1.19791 0.461174 5.93933e-23)
(1.17622 0.408749 -3.99633e-22)
(1.15668 0.363005 -1.40703e-22)
(1.14348 0.321588 -1.93889e-23)
(1.1332 0.286057 7.92173e-23)
(1.12727 0.252721 -1.6323e-23)
(1.11933 0.227726 8.7784e-24)
(0.56414 0.257023 1.1358e-21)
(1.06268 0.501323 -6.83818e-22)
(1.18507 0.518918 -1.50385e-22)
(1.1787 0.472465 7.36723e-23)
(1.15798 0.416293 3.13523e-22)
(1.14035 0.368328 2.14228e-22)
(1.12876 0.32529 -1.64059e-23)
(1.11992 0.288478 -2.04415e-23)
(1.1152 0.254438 -2.22025e-23)
(1.10806 0.228864 7.93533e-24)
(0.57958 0.285731 9.41124e-22)
(1.05782 0.528508 6.63505e-22)
(1.16702 0.535824 -6.32138e-22)
(1.15788 0.482718 -6.68147e-23)
(1.13885 0.423022 0)
(1.12335 0.372946 0)
(1.11352 0.328397 0)
(1.1063 0.290382 -2.00528e-22)
(1.10282 0.255709 -4.56277e-23)
(1.09664 0.229564 1.87206e-23)
(0.590632 0.314027 -1.83189e-21)
(1.04834 0.554005 0)
(1.14613 0.551156 1.34891e-21)
(1.13567 0.491837 3.52389e-22)
(1.11887 0.428855 0)
(1.10566 0.376786 0)
(1.09783 0.330842 -9.87329e-23)
(1.09234 0.291729 8.19788e-23)
(1.09017 0.256499 4.56281e-23)
(1.08508 0.229791 -1.87198e-23)
(0.597293 0.341548 9.8729e-22)
(1.03456 0.577613 -7.92317e-23)
(1.12264 0.564741 -6.35993e-22)
(1.11219 0.499703 -3.85512e-22)
(1.09804 0.433712 2.74918e-23)
(1.08737 0.379782 1.31689e-22)
(1.08171 0.332568 5.09031e-23)
(1.07808 0.292477 4.53296e-24)
(1.07728 0.256774 -1.11549e-23)
(1.07342 0.229516 2.6032e-23)
(0.599632 0.367926 -1.17008e-23)
(1.01678 0.599145 9.6148e-22)
(1.09682 0.576465 -8.40701e-23)
(1.08746 0.506153 2.01835e-22)
(1.07643 0.437515 9.45036e-23)
(1.06852 0.381866 -4.31129e-23)
(1.06521 0.333519 4.17209e-23)
(1.06355 0.292588 -6.82939e-24)
(1.06418 0.2565 -2.15681e-23)
(1.0617 0.228712 -1.85796e-23)
(0.597792 0.392797 0)
(0.995302 0.618372 -8.44245e-22)
(1.06894 0.586233 -7.24406e-23)
(1.0616 0.511058 -6.67737e-23)
(1.05413 0.440161 -9.58752e-23)
(1.04918 0.382976 -6.21219e-23)
(1.0484 0.333644 -6.25253e-23)
(1.0488 0.292025 0)
(1.05092 0.255642 0)
(1.04995 0.227343 0)
(0.591972 0.415833 8.22896e-23)
(0.970209 0.634952 -6.80033e-22)
(1.03935 0.593999 0)
(1.03476 0.514341 -7.9158e-23)
(1.03122 0.44156 8.27898e-24)
(1.02942 0.38305 0)
(1.03131 0.332895 5.71976e-23)
(1.03386 0.290755 1.11695e-22)
(1.03752 0.254164 -2.31446e-23)
(1.03821 0.225364 1.94401e-23)
(0.582396 0.43682 -6.00923e-23)
(0.941729 0.648587 7.29363e-22)
(1.0083 0.599617 0)
(1.00708 0.515964 -9.33197e-23)
(1.00779 0.441627 1.44045e-24)
(1.00932 0.382032 1.57732e-22)
(1.01403 0.331232 1.83944e-23)
(1.01878 0.288744 -1.27092e-22)
(1.024 0.252033 0)
(1.02653 0.222735 -2.31397e-22)
(0.569277 0.455534 -8.31796e-22)
(0.91034 0.659159 -4.03512e-23)
(0.975958 0.60288 -7.59003e-24)
(0.978701 0.515858 6.27828e-24)
(0.983945 0.44029 2.11999e-22)
(0.988956 0.37987 -1.57733e-22)
(0.996605 0.328619 -2.20074e-22)
(1.0036 0.285963 -1.9232e-22)
(1.01043 0.249219 -3.27602e-22)
(1.01503 0.219449 2.0255e-22)
(0.552736 0.471622 8.80957e-22)
(0.876605 0.666655 0)
(0.942554 0.603658 -2.8876e-23)
(0.949781 0.513957 3.70305e-24)
(0.959782 0.437487 -5.29557e-22)
(0.968417 0.376516 0)
(0.979103 0.325024 2.20076e-22)
(0.988345 0.282373 -4.05937e-23)
(0.996884 0.245697 3.71959e-22)
(1.004 0.215545 -3.72494e-23)
(0.532988 0.484664 0)
(0.840907 0.670922 9.65765e-23)
(0.908287 0.601888 2.43994e-23)
(0.920469 0.510191 0)
(0.935414 0.433169 3.17559e-22)
(0.947793 0.371933 0)
(0.961578 0.32042 -3.3003e-22)
(0.973073 0.277935 2.32917e-22)
(0.983555 0.241425 4.46803e-22)
(0.993739 0.211091 3.52009e-22)
(0.510519 0.494492 -2.63704e-23)
(0.803591 0.671823 -7.49311e-23)
(0.873387 0.597509 0)
(0.890923 0.5045 0)
(0.91096 0.427293 0)
(0.927173 0.366091 5.31898e-23)
(0.944092 0.31479 2.41326e-22)
(0.957873 0.272623 3.70757e-23)
(0.970628 0.236345 -4.46806e-22)
(0.984128 0.206034 -3.95288e-22)
(0.485745 0.500936 0)
(0.765001 0.669242 2.15656e-22)
(0.838093 0.590479 0)
(0.861303 0.496834 0)
(0.886541 0.419828 0)
(0.90665 0.358966 -6.20572e-23)
(0.926719 0.308117 5.41668e-22)
(0.942868 0.26644 -1.23898e-22)
(0.958183 0.23047 -4.27407e-22)
(0.974508 0.198878 -4.31647e-22)
(0.459078 0.503863 0)
(0.725497 0.663101 -2.15657e-22)
(0.802647 0.58077 4.57681e-22)
(0.831776 0.487157 0)
(0.862283 0.410755 7.4285e-22)
(0.886321 0.350545 0)
(0.909547 0.300387 -4.39143e-22)
(0.928171 0.259402 3.91726e-22)
(0.945972 0.224257 5.59623e-22)
(0.963603 0.193707 4.30288e-22)
(0.430928 0.503179 -3.98986e-22)
(0.685443 0.653353 0)
(0.767294 0.568373 -3.90626e-22)
(0.802511 0.475446 -5.54686e-23)
(0.838313 0.400063 -1.58997e-21)
(0.866283 0.340817 0)
(0.89267 0.291587 5.45242e-22)
(0.913848 0.25143 3.76679e-23)
(0.934114 0.216988 5.91181e-22)
(0.953127 0.187085 2.43185e-24)
(0.401704 0.498832 4.37796e-22)
(0.645202 0.639979 -3.18571e-23)
(0.732276 0.553296 -7.94923e-23)
(0.773678 0.461697 -6.57543e-23)
(0.81476 0.387754 8.47119e-22)
(0.846638 0.329789 -7.56799e-22)
(0.876168 0.281735 -5.45245e-22)
(0.899903 0.242624 -4.29398e-22)
(0.922448 0.209144 -6.68084e-22)
(0.942634 0.180241 6.19621e-22)
(0.371811 0.490808 -5.1863e-23)
(0.605138 0.622994 -7.99699e-22)
(0.697833 0.535565 0)
(0.745449 0.445918 5.72731e-22)
(0.791753 0.37384 6.3098e-23)
(0.82749 0.317468 7.56803e-22)
(0.860134 0.27083 -7.51509e-23)
(0.886407 0.232933 -4.38494e-22)
(0.911123 0.200518 0)
(0.932441 0.172702 -5.52777e-22)
(0.341647 0.479132 6.00933e-23)
(0.565606 0.60244 8.42275e-22)
(0.664201 0.515225 0)
(0.717995 0.428136 -1.4411e-23)
(0.769422 0.358346 6.98841e-23)
(0.808942 0.303878 0)
(0.844642 0.258899 6.93989e-22)
(0.873395 0.222411 5.01398e-22)
(0.900156 0.191241 9.5485e-23)
(0.9226 0.164627 -8.02047e-23)
(0.311597 0.463865 0)
(0.526955 0.578391 1.27612e-21)
(0.63161 0.492339 -1.13e-22)
(0.691482 0.408393 6.72403e-23)
(0.747896 0.341307 6.19226e-22)
(0.791095 0.289047 1.07108e-21)
(0.829773 0.245966 -7.87432e-22)
(0.860929 0.211065 0)
(0.889618 0.181294 0)
(0.913193 0.155974 0)
(0.282036 0.445106 2.41905e-24)
(0.489521 0.550945 -1.05883e-21)
(0.600282 0.466988 1.26528e-22)
(0.666076 0.386744 -8.8544e-22)
(0.727298 0.322771 -5.365e-22)
(0.774049 0.273015 1.80962e-22)
(0.815602 0.232065 -7.91393e-22)
(0.849061 0.198932 5.2234e-22)
(0.879561 0.170715 5.63055e-22)
(0.904275 0.146775 -4.38821e-22)
(0.253322 0.422992 -7.4549e-22)
(0.453623 0.520226 -8.30045e-23)
(0.570432 0.43927 1.16495e-21)
(0.641933 0.363263 9.1092e-22)
(0.707753 0.302796 0)
(0.757899 0.255832 -1.02089e-21)
(0.802202 0.217236 -4.09681e-23)
(0.83785 0.186045 -6.72269e-22)
(0.870041 0.159524 -3.94799e-22)
(0.895891 0.137053 3.49192e-22)
(0.225795 0.397704 1.78698e-21)
(0.41956 0.486373 0)
(0.542266 0.409299 -2.41435e-21)
(0.619207 0.338036 -7.97275e-22)
(0.689378 0.281452 -9.43377e-23)
(0.742737 0.237553 0)
(0.789645 0.201528 8.24257e-22)
(0.827348 0.172445 -6.55081e-22)
(0.861107 0.147754 -4.9716e-22)
(0.888082 0.126837 3.79476e-22)
(0.199769 0.369462 -9.40373e-22)
(0.387608 0.449544 -8.28014e-22)
(0.515982 0.377203 1.40557e-21)
(0.598042 0.311162 -1.2918e-22)
(0.672284 0.258818 0)
(0.728652 0.218245 0)
(0.777996 0.184992 0)
(0.81761 0.158174 1.33518e-21)
(0.852809 0.135438 4.97162e-22)
(0.880882 0.116162 -3.79476e-22)
(0.175515 0.338488 -9.76002e-22)
(0.358034 0.409949 8.24935e-22)
(0.491773 0.343124 8.68378e-23)
(0.578576 0.282758 0)
(0.656578 0.234984 -8.138e-22)
(0.715725 0.197982 -5.4266e-22)
(0.76732 0.167689 -6.02624e-23)
(0.808685 0.143282 1.05305e-22)
(0.845192 0.122614 -1.31853e-22)
(0.874321 0.105065 5.26005e-23)
(0.15327 0.304986 1.10815e-21)
(0.331093 0.367843 -1.11221e-22)
(0.469814 0.307226 -9.09932e-22)
(0.560934 0.252949 2.02414e-22)
(0.642358 0.21005 6.05929e-22)
(0.704032 0.176842 7.72033e-22)
(0.757673 0.149683 -6.2362e-23)
(0.80062 0.127821 -3.41229e-22)
(0.838301 0.109326 0)
(0.868426 0.0935883 4.94024e-23)
(0.13326 0.269182 7.59461e-23)
(0.307011 0.323489 0)
(0.450258 0.26969 -2.84682e-23)
(0.545234 0.221874 0)
(0.629712 0.184124 -8.69667e-22)
(0.693642 0.154914 6.53484e-22)
(0.749109 0.131045 0)
(0.793458 0.111847 8.9678e-24)
(0.832174 0.0956183 0)
(0.863221 0.0817748 0)
(0.115695 0.231338 1.57462e-22)
(0.285989 0.277157 -1.07346e-21)
(0.433239 0.230708 8.53259e-22)
(0.531579 0.189683 -1.46643e-22)
(0.618719 0.157322 3.76553e-22)
(0.684617 0.13229 1.03007e-22)
(0.741675 0.11185 0)
(0.787239 0.0954203 -2.81339e-22)
(0.826849 0.0815419 -7.48825e-23)
(0.858726 0.0696711 -2.1653e-22)
(0.100762 0.191733 6.73288e-22)
(0.268201 0.229127 -1.59204e-21)
(0.418876 0.190486 1.46709e-22)
(0.520059 0.156531 -6.12741e-22)
(0.60945 0.129766 -6.87392e-23)
(0.677011 0.109068 -6.68979e-22)
(0.735413 0.0921775 0)
(0.781999 0.0786068 3.84634e-22)
(0.822357 0.0671493 -6.86971e-23)
(0.854956 0.0573238 4.94049e-22)
(0.0886209 0.150667 -6.73289e-22)
(0.253792 0.17969 5.83958e-22)
(0.407265 0.149236 -1.0136e-22)
(0.51075 0.122583 7.18841e-22)
(0.601963 0.101586 3.94704e-22)
(0.67087 0.0853514 4.09095e-23)
(0.73036 0.0721089 -3.41572e-23)
(0.777767 0.0614735 -4.30758e-22)
(0.818727 0.0524969 3.86242e-24)
(0.851925 0.0447797 -1.64124e-22)
(0.0794 0.10845 3.52226e-22)
(0.24288 0.129147 0)
(0.398487 0.107179 4.16274e-22)
(0.503713 0.0880103 0)
(0.596305 0.0729153 5.54037e-23)
(0.66623 0.0612456 -4.61321e-23)
(0.726543 0.0517298 0)
(0.774571 0.0440897 0)
(0.815983 0.0376422 0)
(0.849643 0.0320867 0)
(0.0731979 0.0654036 -3.0856e-22)
(0.235556 0.0778082 -1.18804e-22)
(0.392602 0.0645406 -4.16275e-22)
(0.498996 0.0529872 0)
(0.592513 0.0438912 0)
(0.663122 0.0368599 2.0871e-23)
(0.723987 0.0311276 -8.32801e-23)
(0.772428 0.0265261 -9.88343e-23)
(0.814142 0.022643 -9.21986e-23)
(0.848117 0.0192912 1.48788e-23)
(0.0700803 0.021857 -5.58566e-24)
(0.231879 0.0259895 1.28158e-22)
(0.389649 0.0215525 -5.73703e-24)
(0.49663 0.0176926 1.97845e-23)
(0.590611 0.0146541 -7.79653e-24)
(0.661563 0.0123054 0)
(0.722704 0.0103908 6.58539e-23)
(0.771354 0.00885408 9.88344e-23)
(0.813219 0.00755728 7.00407e-23)
(0.847353 0.00643678 1.0462e-23)
(0.0700803 -0.021857 -5.58566e-24)
(0.231879 -0.0259896 1.28158e-22)
(0.389649 -0.0215525 -5.73703e-24)
(0.49663 -0.0176926 1.97845e-23)
(0.590611 -0.0146541 -7.79653e-24)
(0.661563 -0.0123054 0)
(0.722704 -0.0103908 5.80096e-23)
(0.771354 -0.00885408 1.054e-22)
(0.813219 -0.00755728 7.44844e-23)
(0.847353 -0.00643678 0)
(0.0731979 -0.0654036 -3.95892e-22)
(0.235556 -0.0778083 -1.54082e-22)
(0.392602 -0.0645406 -4.4127e-22)
(0.498996 -0.0529872 2.06754e-23)
(0.592513 -0.0438912 0)
(0.663122 -0.0368599 -2.0871e-23)
(0.723987 -0.0311276 -4.84277e-23)
(0.772428 -0.0265261 -9.88343e-23)
(0.814142 -0.022643 -5.67701e-23)
(0.848117 -0.0192912 -1.48788e-23)
(0.0794 -0.10845 3.52226e-22)
(0.24288 -0.129147 0)
(0.398487 -0.107179 4.16274e-22)
(0.503713 -0.0880103 0)
(0.596305 -0.0729153 5.54037e-23)
(0.66623 -0.0612456 -4.61321e-23)
(0.726543 -0.0517298 0)
(0.774571 -0.0440897 0)
(0.815983 -0.0376422 0)
(0.849643 -0.0320867 0)
(0.0886209 -0.150667 -6.73289e-22)
(0.253792 -0.17969 4.56098e-22)
(0.407265 -0.149236 1.0136e-22)
(0.51075 -0.122583 4.92238e-22)
(0.601963 -0.101586 5.15943e-22)
(0.67087 -0.0853514 -4.09095e-23)
(0.73036 -0.0721089 3.41572e-23)
(0.777767 -0.0614735 -3.38512e-22)
(0.818727 -0.0524969 -3.86242e-24)
(0.851925 -0.0447797 -2.75511e-22)
(0.100762 -0.191733 6.73288e-22)
(0.268201 -0.229127 5.51984e-22)
(0.418876 -0.190486 -1.46709e-22)
(0.520059 -0.156531 -5.98336e-22)
(0.60945 -0.129766 5.01887e-23)
(0.677011 -0.109068 -6.68979e-22)
(0.735413 -0.0921775 0)
(0.781999 -0.0786068 3.84634e-22)
(0.822357 -0.0671493 6.86971e-23)
(0.854956 -0.0573238 3.78647e-22)
(0.115695 -0.231338 -1.57462e-22)
(0.285989 -0.277157 1.07346e-21)
(0.433239 -0.230708 6.6774e-22)
(0.531579 -0.189683 1.46643e-22)
(0.618719 -0.157322 4.70691e-22)
(0.684617 -0.13229 -1.50887e-22)
(0.741675 -0.11185 6.58473e-23)
(0.787239 -0.0954204 -4.59881e-22)
(0.826849 -0.0815419 7.48825e-23)
(0.858726 -0.0696711 -2.1653e-22)
(0.13326 -0.269182 -7.59461e-23)
(0.307011 -0.323489 0)
(0.450258 -0.26969 -2.84682e-23)
(0.545234 -0.221874 0)
(0.629712 -0.184124 -8.69667e-22)
(0.693642 -0.154914 6.53484e-22)
(0.749109 -0.131045 0)
(0.793458 -0.111847 8.9678e-24)
(0.832174 -0.0956183 0)
(0.863221 -0.0817748 0)
(0.15327 -0.304986 1.10815e-21)
(0.331093 -0.367843 1.11221e-22)
(0.469814 -0.307226 -6.40391e-22)
(0.560934 -0.252949 -1.31054e-22)
(0.642358 -0.21005 1.02168e-21)
(0.704032 -0.176842 4.57641e-22)
(0.757673 -0.149683 6.2362e-23)
(0.80062 -0.127821 -4.26295e-22)
(0.838301 -0.109326 7.13553e-23)
(0.868426 -0.0935883 -4.94024e-23)
(0.175515 -0.338488 -1.2403e-21)
(0.358034 -0.409949 8.31096e-22)
(0.491773 -0.343124 7.79116e-23)
(0.578576 -0.282758 -1.36277e-22)
(0.656578 -0.234984 -8.138e-22)
(0.715725 -0.197982 -6.8701e-22)
(0.76732 -0.167689 6.02624e-23)
(0.808685 -0.143282 -5.97592e-23)
(0.845192 -0.122614 1.31853e-22)
(0.874321 -0.105065 -5.26005e-23)
(0.199769 -0.369462 -9.40373e-22)
(0.387608 -0.449544 -8.28014e-22)
(0.515982 -0.377203 1.09323e-21)
(0.598042 -0.311162 1.2918e-22)
(0.672284 -0.258818 0)
(0.728652 -0.218245 0)
(0.777996 -0.184992 0)
(0.81761 -0.158174 1.33518e-21)
(0.852809 -0.135438 4.97162e-22)
(0.880882 -0.116162 -3.79476e-22)
(0.225795 -0.397704 1.78698e-21)
(0.41956 -0.486373 0)
(0.542266 -0.409299 -2.41435e-21)
(0.619207 -0.338036 -9.10924e-22)
(0.689378 -0.281452 0)
(0.742737 -0.237553 0)
(0.789645 -0.201528 8.24257e-22)
(0.827348 -0.172445 -6.55081e-22)
(0.861107 -0.147754 -4.9716e-22)
(0.888082 -0.126837 3.79476e-22)
(0.253322 -0.422992 -9.47727e-22)
(0.453623 -0.520226 8.30045e-23)
(0.570432 -0.43927 1.16495e-21)
(0.641933 -0.363263 1.01779e-21)
(0.707753 -0.302796 -8.87074e-23)
(0.757899 -0.255832 -1.02089e-21)
(0.802202 -0.217236 -4.09681e-23)
(0.83785 -0.186045 -5.25513e-22)
(0.870041 -0.159524 -5.17902e-22)
(0.895891 -0.137053 3.49192e-22)
(0.282036 -0.445106 -2.41905e-24)
(0.489521 -0.550945 -1.21911e-21)
(0.600282 -0.466988 -1.26528e-22)
(0.666076 -0.386744 -6.86111e-22)
(0.727298 -0.322771 -5.47012e-22)
(0.774049 -0.273015 -1.86557e-22)
(0.815602 -0.232065 -7.75171e-22)
(0.849061 -0.198932 6.75437e-22)
(0.879561 -0.170715 3.49643e-22)
(0.904275 -0.146775 -2.59563e-22)
(0.311597 -0.463865 0)
(0.526955 -0.578391 1.00181e-21)
(0.63161 -0.492339 1.13e-22)
(0.691482 -0.408393 6.72403e-23)
(0.747896 -0.341307 6.19226e-22)
(0.791095 -0.289047 8.47256e-22)
(0.829773 -0.245966 -6.86822e-22)
(0.860929 -0.211065 7.22055e-23)
(0.889618 -0.181294 0)
(0.913193 -0.155974 0)
(0.341647 -0.479132 -6.00933e-23)
(0.565606 -0.60244 8.42275e-22)
(0.664201 -0.515225 0)
(0.717995 -0.428136 1.53968e-22)
(0.769422 -0.358346 -6.98841e-23)
(0.808942 -0.303878 0)
(0.844642 -0.258899 6.93989e-22)
(0.873395 -0.222411 5.01398e-22)
(0.900156 -0.191241 -9.5485e-23)
(0.9226 -0.164627 8.02047e-23)
(0.371811 -0.490808 5.1863e-23)
(0.605138 -0.622994 -8.84843e-22)