/*--------------------------------*- C++ -*----------------------------------*\
  =========                 |
  \\      /  F ield         | OpenFOAM: The Open Source CFD Toolbox
   \\    /   O peration     | Website:  https://openfoam.org
    \\  /    A nd           | Version:  9
     \\/     M anipulation  |
\*---------------------------------------------------------------------------*/
FoamFile
{
    format      ascii;
    class       volVectorField;
    location    "0.1";
    object      U;
}
// * * * * * * * * * * * * * * * * * * * * * * * * * * * * * * * * * * * * * //

dimensions      [0 1 -1 0 0 0 0];

internalField   nonuniform List<vector> 
252
(
(3 -2.11608e-14 0)
(3 -2.98068e-14 0)
(3 -1.08592e-14 0)
(3 5.22829e-15 0)
(3 1.58327e-15 0)
(2.4991 0.0141647 0)
(3 -2.35701e-14 0)
(3 -2.64407e-14 0)
(3 1.85826e-14 0)
(3 2.23829e-14 0)
(3 1.30586e-14 0)
(2.55264 0.275338 0)
(3 9.98839e-15 0)
(3 4.60526e-15 0)
(3 -5.1378e-16 0)
(3 -1.07619e-14 0)
(3 3.04264e-15 0)
(2.84256 0.382118 0)
(3 3.82739e-15 0)
(3 -6.78743e-15 0)
(3 -5.00133e-14 0)
(3 -3.1576e-14 0)
(3 -3.38889e-14 0)
(2.99788 0.01254 0)
(3 -1.56606e-14 0)
(3 -1.28796e-14 0)
(3 1.57088e-14 0)
(3 3.50986e-14 0)
(3 1.22725e-15 0)
(3 3.31462e-05 0)
(3 -6.81496e-16 0)
(3 -9.1761e-15 0)
(3 3.4419e-16 0)
(3 1.26308e-14 0)
(3 8.7709e-15 0)
(3 5.34408e-09 0)
(3 1.0546e-14 0)
(3 1.7416e-14 0)
(3 -8.82503e-15 0)
(3 -4.19203e-14 0)
(3 -5.12588e-14 0)
(3 1.25142e-13 0)
(3 -3.42125e-15 0)
(3 9.07973e-15 0)
(3 5.08506e-14 0)
(3 2.81622e-14 0)
(3 4.44206e-14 0)
(3 -1.28496e-14 0)
(3 -1.12825e-14 0)
(3 6.67728e-16 0)
(3 5.77757e-14 0)
(3 8.3445e-14 0)
(3 4.57845e-14 0)
(3 -5.43902e-15 0)
(3 3.46943e-15 0)
(3 1.31205e-14 0)
(3 1.82145e-14 0)
(3 1.61568e-14 0)
(3 -2.70677e-14 0)
(3 -2.06652e-14 0)
(2.95791 0.274265 0)
(3.03562 0.104163 0)
(3.01776 0.0176289 0)
(3.00157 0.000953219 0)
(3.00001 6.74595e-06 0)
(3 2.05236e-09 0)
(3 -2.14759e-14 0)
(3 -4.52472e-14 0)
(3 -3.35448e-14 0)
(3 -2.40631e-15 0)
(3 2.31265e-14 0)
(3 3.51624e-14 0)
(3 7.14882e-14 0)
(3 4.153e-14 0)
(3 -8.47445e-15 0)
(3 -7.76443e-15 0)
(3 1.47313e-14 0)
(3 1.94054e-14 0)
(3 8.11442e-15 0)
(3 -7.6532e-15 0)
(3 -3.2168e-14 0)
(3 -9.65797e-15 0)
(3 2.9084e-14 0)
(3 3.23057e-14 0)
(2.99372 0.0559138 0)
(3.00572 0.0354475 0)
(3.00653 0.00963128 0)
(3.00092 0.000673545 0)
(3.00001 5.83647e-06 0)
(3 2.41034e-09 0)
(3 -5.68785e-15 0)
(3 -3.13764e-14 0)
(3 -6.11212e-14 0)
(3 -1.76288e-14 0)
(3 2.01896e-14 0)
(3 1.83316e-14 0)
(3 2.33017e-14 0)
(3 1.86482e-14 0)
(3 -1.03649e-14 0)
(3 7.83856e-15 0)
(3 5.68602e-15 0)
(3 1.84486e-15 0)
(3 8.48468e-16 0)
(3 -1.75967e-14 0)
(3 -4.84551e-14 0)
(3 -1.14546e-14 0)
(3 3.60367e-14 0)
(3 1.83223e-14 0)
(2.99968 0.00176425 0)
(2.9997 0.00221317 0)
(3.00014 0.00101498 0)
(3.00007 0.000102914 0)
(3 1.1043e-06 0)
(3 4.61379e-10 0)
(3 5.92352e-14 0)
(3 5.04376e-14 0)
(3 3.03782e-14 0)
(3 3.20137e-15 0)
(3 -4.37538e-14 0)
(3 -7.96111e-14 0)
(3 -8.85601e-14 0)
(3 -3.71863e-14 0)
(3 1.4408e-14 0)
(3 1.98183e-14 0)
(3 9.74746e-15 0)
(3 1.52407e-14 0)
(3 1.54457e-14 0)
(3 -1.28161e-14 0)
(3 -3.95337e-14 0)
(3 -5.1477e-14 0)
(3 -5.57588e-14 0)
(3 -5.48895e-14 0)
(3 3.45927e-06 0)
(3 8.14707e-06 0)
(3 5.50803e-06 0)
(3 7.49224e-07 0)
(3 7.58252e-09 0)
(3 1.93528e-12 0)
(3 -4.42312e-14 0)
(3 -3.60986e-14 0)
(3 -7.64102e-16 0)
(3 -3.65448e-15 0)
(3 -1.76776e-14 0)
(3 -4.42491e-14 0)
(3 -3.55411e-14 0)
(3 -1.75262e-14 0)
(3 -8.51582e-15 0)
(3 -3.51963e-14 0)
(3 -8.43265e-15 0)
(3 -1.078e-14 0)
(3 -1.52367e-14 0)
(3 -5.03894e-15 0)
(3 -1.59016e-14 0)
(3 -3.09909e-14 0)
(3 -2.17528e-14 0)
(3 1.29767e-14 0)
(3 2.33712e-10 0)
(3 9.59282e-10 0)
(3 8.18872e-10 0)
(3 1.09441e-10 0)
(3 7.17409e-13 0)
(3 3.59937e-15 0)
(3 -4.57145e-14 0)
(3 -5.08919e-14 0)
(3 -3.59128e-14 0)
(3 -1.50893e-14 0)
(3 -2.97139e-14 0)
(3 1.58499e-14 0)
(3 1.81044e-14 0)
(3 -9.61667e-15 0)
(3 -2.36938e-14 0)
(3 -2.2719e-15 0)
(3 3.50385e-15 0)
(3 -3.53139e-15 0)
(3 -1.16474e-14 0)
(3 4.29928e-15 0)
(3 1.19671e-14 0)
(3 3.89279e-14 0)
(3 4.08278e-14 0)
(3 3.6086e-14 0)
(3 -1.92264e-14 0)
(3 4.00658e-14 0)
(3 7.08459e-14 0)
(3 3.58439e-14 0)
(3 3.51074e-16 0)
(3 4.33505e-15 0)
(3 7.68406e-15 0)
(3 2.91322e-14 0)
(3 1.70787e-14 0)
(3 2.90359e-14 0)
(3 2.31101e-14 0)
(3 2.50077e-14 0)
(3 3.46255e-14 0)
(3 3.88246e-15 0)
(3 1.19965e-14 0)
(3 1.74524e-14 0)
(3 1.76225e-15 0)
(3 8.30186e-15 0)
(3 3.34553e-15 0)
(3 -2.14756e-14 0)
(3 -6.58968e-15 0)
(3 -1.81732e-15 0)
(3 -7.64102e-15 0)
(3 -1.28617e-14 0)
(3 -5.67225e-15 0)
(3 -2.15883e-14 0)
(3 -5.08706e-14 0)
(3 -4.36157e-14 0)
(3 -2.75765e-14 0)
(3 -4.99185e-14 0)
(3 -4.19182e-14 0)
(3 -2.06583e-14 0)
(3 -2.09061e-14 0)
(3 7.70297e-15 0)
(3 3.11449e-14 0)
(3 2.50131e-14 0)
(3 3.59334e-14 0)
(3 2.04793e-14 0)
(3 -7.48237e-15 0)
(3 -3.5507e-14 0)
(3 -3.91e-14 0)
(3 -3.62363e-14 0)
(3 -3.6787e-14 0)
(3 -2.56891e-14 0)
(3 -4.27702e-14 0)
(3 -8.36932e-14 0)
(3 -2.78312e-14 0)
(3 -1.29665e-14 0)
(3 2.87743e-15 0)
(3 -1.83666e-14 0)
(3 -5.05747e-14 0)
(3 -4.15093e-14 0)
(3 -1.03188e-14 0)
(3 -1.29128e-14 0)
(3 -2.52166e-14 0)
(3 -3.65667e-14 0)
(3 -4.30031e-14 0)
(3 -2.40176e-14 0)
(3 -2.32933e-14 0)
(3 1.02003e-14 0)
(3 1.96119e-14 0)
(3 1.78497e-14 0)
(3 -1.43381e-14 0)
(3 -2.18501e-14 0)
(3 -8.63228e-15 0)
(3 -1.02844e-14 0)
(3 -3.05159e-14 0)
(3 -2.1801e-14 0)
(3 -2.60896e-14 0)
(3 -2.47473e-14 0)
(3 -1.00228e-14 0)
(3 -8.22614e-15 0)
)
;

boundaryField
{
    inlet
    {
        type            fixedValue;
        value           uniform (3 0 0);
    }
    outlet
    {
        type            inletOutlet;
        inletValue      uniform (3 0 0);
        value           nonuniform List<vector> 8((3 3.23057e-14 0) (3 1.83223e-14 0) (3 -5.48895e-14 0) (3 1.29767e-14 0) (3 3.6086e-14 0) (3 -1.28617e-14 0) (3 -1.29665e-14 0) (3 -8.22614e-15 0));
    }
    bottom
    {
        type            symmetryPlane;
    }
    top
    {
        type            symmetryPlane;
    }
    obstacle
    {
        type            slip;
    }
    defaultFaces
    {
        type            empty;
    }
}


// ************************************************************************* //
