# Probe 0 (5.5 0.5 0)
# Probe 1 (5.5 -0.5 0)
#       Probe             0             1
#        Time
            0             0             0
          0.1   -0.00150001   -0.00150001
          0.2  -1.84612e-05  -1.84613e-05
          0.3   0.000526627   0.000526627
          0.4   0.000795889   0.000795886
          0.5   0.000949277   0.000949279
          0.6    0.00105138    0.00105138
          0.7    0.00113493    0.00113493
          0.8    0.00121876    0.00121876
          0.9     0.0013158     0.0013158
            1    0.00143011    0.00143011
          1.1    0.00156493    0.00156493
          1.2     0.0017227     0.0017227
          1.3     0.0019029     0.0019029
          1.4    0.00210436    0.00210436
          1.5    0.00232537    0.00232537
          1.6    0.00256522    0.00256522
          1.7    0.00282086    0.00282086
          1.8    0.00309101    0.00309102
          1.9    0.00337545    0.00337545
            2    0.00366587    0.00366587
          2.1    0.00397203    0.00397203
          2.2    0.00428526    0.00428525
          2.3    0.00460912    0.00460913
          2.4    0.00493753    0.00493754
          2.5    0.00527543    0.00527542
          2.6    0.00561797    0.00561798
          2.7    0.00596905    0.00596904
          2.8    0.00632667    0.00632668
          2.9    0.00669007    0.00669008
            3    0.00706118    0.00706119
          3.1    0.00743884    0.00743883
          3.2    0.00782397    0.00782397
          3.3    0.00821689    0.00821689
          3.4     0.0086177     0.0086177
          3.5    0.00902637    0.00902638
          3.6     0.0094436    0.00944359
          3.7    0.00986943    0.00986943
          3.8     0.0103044     0.0103044
          3.9     0.0107503     0.0107502
            4      0.011203      0.011203
          4.1     0.0116665     0.0116665
          4.2     0.0121415     0.0121415
          4.3     0.0126251     0.0126251
          4.4     0.0131189     0.0131189
          4.5     0.0136234     0.0136234
          4.6     0.0141378     0.0141378
          4.7     0.0146627     0.0146627
          4.8     0.0151976     0.0151976
          4.9     0.0157418     0.0157418
            5     0.0162972     0.0162972
          5.1     0.0168619     0.0168619
          5.2     0.0174348     0.0174347
          5.3     0.0180156     0.0180156
          5.4     0.0186057     0.0186057
          5.5     0.0192008     0.0192008
          5.6     0.0198021     0.0198021
          5.7     0.0204089     0.0204089
          5.8     0.0210215     0.0210215
          5.9     0.0216365     0.0216365
            6     0.0222539     0.0222539
          6.1     0.0228748     0.0228748
          6.2     0.0234981     0.0234981
          6.3     0.0241227     0.0241227
          6.4     0.0247495     0.0247495
          6.5      0.025378      0.025378
          6.6     0.0260072     0.0260073
          6.7     0.0266379     0.0266379
          6.8     0.0272708     0.0272708
          6.9     0.0279058     0.0279058
            7     0.0285434     0.0285434
          7.1     0.0291828     0.0291828
          7.2     0.0298242     0.0298242
          7.3     0.0304688     0.0304689
          7.4     0.0311152     0.0311152
          7.5     0.0317648     0.0317648
          7.6      0.032417      0.032417
          7.7     0.0330725     0.0330725
          7.8     0.0337321     0.0337321
          7.9     0.0343949     0.0343949
            8     0.0350613     0.0350613
          8.1     0.0357314     0.0357314
          8.2     0.0364061     0.0364061
          8.3     0.0370857     0.0370857
          8.4     0.0377677     0.0377677
          8.5     0.0384533     0.0384533
          8.6     0.0391399     0.0391399
          8.7     0.0398252     0.0398252
          8.8     0.0405071     0.0405071
          8.9     0.0411812     0.0411812
            9     0.0418452     0.0418452
          9.1      0.042496      0.042496
          9.2       0.04313     0.0431301
          9.3     0.0437466     0.0437466
          9.4     0.0443441     0.0443441
          9.5     0.0449231     0.0449231
          9.6     0.0454849     0.0454849
          9.7     0.0460306     0.0460307
          9.8     0.0465587     0.0465587
          9.9     0.0470737     0.0470737
           10     0.0475739      0.047574
         10.1      0.048062      0.048062
         10.2     0.0485358     0.0485358
         10.3     0.0489928     0.0489928
         10.4     0.0494378     0.0494378
         10.5      0.049865      0.049865
         10.6     0.0502765     0.0502765
         10.7       0.05067     0.0506701
         10.8     0.0510458     0.0510458
         10.9     0.0514033     0.0514033
           11     0.0517423     0.0517423
         11.1     0.0520568     0.0520568
         11.2     0.0523535     0.0523535
         11.3     0.0526269     0.0526269
         11.4     0.0528784     0.0528783
         11.5     0.0531057     0.0531057
         11.6      0.053309     0.0533089
         11.7     0.0534863     0.0534863
         11.8     0.0536381      0.053638
         11.9     0.0537633     0.0537633
           12     0.0538604     0.0538603
         12.1     0.0539271      0.053927
         12.2     0.0539652     0.0539652
         12.3     0.0539719     0.0539719
         12.4     0.0539465     0.0539464
         12.5     0.0538906     0.0538905
         12.6     0.0538014     0.0538013
         12.7     0.0536768     0.0536767
         12.8     0.0535177     0.0535176
         12.9     0.0533229     0.0533228
           13     0.0530911      0.053091
         13.1     0.0528221     0.0528219
         13.2      0.052515     0.0525149
         13.3     0.0523287     0.0523286
         13.4     0.0519227     0.0519226
         13.5     0.0514766     0.0514764
         13.6     0.0509866     0.0509865
         13.7      0.050454     0.0504539
         13.8     0.0498764     0.0498763
         13.9     0.0492543     0.0492542
           14     0.0485974     0.0485973
         14.1     0.0479166     0.0479165
         14.2     0.0471907     0.0471906
         14.3     0.0464209     0.0464209
         14.4     0.0456053     0.0456053
         14.5      0.044745      0.044745
         14.6     0.0438382     0.0438382
         14.7     0.0428853     0.0428854
         14.8     0.0418859      0.041886
         14.9     0.0408403     0.0408404
           15     0.0397485     0.0397487
         15.1     0.0386075     0.0386077
         15.2      0.037423     0.0374232
         15.3     0.0361902     0.0361905
         15.4     0.0349108     0.0349111
         15.5     0.0335846      0.033585
         15.6     0.0322132     0.0322137
         15.7     0.0307959     0.0307964
         15.8     0.0293338     0.0293343
         15.9     0.0278267     0.0278273
           16     0.0262746     0.0262752
         16.1     0.0246808     0.0246815
         16.2     0.0230435     0.0230442
         16.3     0.0213637     0.0213645
         16.4     0.0196428     0.0196436
         16.5     0.0178817     0.0178825
         16.6      0.016081     0.0160818
         16.7     0.0142415     0.0142424
         16.8      0.012366     0.0123669
         16.9     0.0104511     0.0104521
           17    0.00850261    0.00850353
         17.1    0.00651972    0.00652062
         17.2    0.00450329    0.00450421
         17.3    0.00245543    0.00245629
         17.4   0.000376531    0.00037735
         17.5   -0.00173057   -0.00172982
         17.6   -0.00386563   -0.00386495
         17.7   -0.00602737   -0.00602673
         17.8   -0.00821338   -0.00821284
         17.9    -0.0104229    -0.0104224
           18    -0.0126542    -0.0126539
         18.1    -0.0149054    -0.0149052
         18.2    -0.0171756    -0.0171756
         18.3    -0.0194611    -0.0194612
         18.4    -0.0217641    -0.0217644
         18.5    -0.0240779    -0.0240784
         18.6     -0.026406    -0.0264067
         18.7    -0.0287418    -0.0287426
         18.8    -0.0310873    -0.0310884
         18.9    -0.0334392    -0.0334404
           19    -0.0357965     -0.035798
         19.1     -0.038157    -0.0381587
         19.2    -0.0405191     -0.040521
         19.3    -0.0428819    -0.0428841
         19.4    -0.0452409    -0.0452432
         19.5    -0.0475972    -0.0475997
         19.6    -0.0499499    -0.0499527
         19.7     -0.052294    -0.0522969
         19.8    -0.0546313    -0.0546343
         19.9     -0.056958    -0.0569612
           20    -0.0592736     -0.059277
         20.1    -0.0615755    -0.0615791
         20.2    -0.0638648    -0.0638684
         20.3    -0.0661368    -0.0661404
         20.4    -0.0683924    -0.0683961
         20.5    -0.0706291    -0.0706328
         20.6     -0.072846    -0.0728497
         20.7    -0.0750416    -0.0750451
         20.8    -0.0772145    -0.0772179
         20.9     -0.079365    -0.0793683
           21    -0.0814897    -0.0814927
         21.1    -0.0835896    -0.0835925
         21.2    -0.0856623    -0.0856648
         21.3    -0.0877068    -0.0877091
         21.4    -0.0897229    -0.0897247
         21.5    -0.0917094     -0.091711
         21.6    -0.0936651    -0.0936661
         21.7    -0.0955897    -0.0955902
         21.8    -0.0974824    -0.0974823
         21.9    -0.0993421    -0.0993415
           22     -0.101168     -0.101167
         22.1     -0.102961      -0.10296
         22.2      -0.10472     -0.104717
         22.3     -0.106443      -0.10644
         22.4     -0.108131     -0.108127
         22.5     -0.109783     -0.109779
         22.6       -0.1114     -0.111395
         22.7     -0.112978     -0.112973
         22.8     -0.114521     -0.114515
         22.9     -0.116029     -0.116022
           23     -0.117496     -0.117488
         23.1     -0.118929     -0.118921
         23.2     -0.120323     -0.120315
         23.3     -0.121681     -0.121672
         23.4     -0.123001     -0.122992
         23.5     -0.124285     -0.124276
         23.6     -0.125532     -0.125522
         23.7     -0.126741     -0.126731
         23.8     -0.127914     -0.127904
         23.9     -0.129051     -0.129041
           24     -0.130151     -0.130141
         24.1     -0.131215     -0.131205
         24.2     -0.132244     -0.132234
         24.3     -0.133237     -0.133228
         24.4     -0.134196     -0.134187
         24.5     -0.135119     -0.135111
         24.6     -0.136009     -0.136001
         24.7     -0.136865     -0.136858
         24.8     -0.137687     -0.137681
         24.9     -0.138477     -0.138472
           25     -0.139235     -0.139231
         25.1     -0.139961     -0.139958
         25.2     -0.140656     -0.140654
         25.3     -0.141321      -0.14132
         25.4     -0.141955     -0.141956
         25.5     -0.142559     -0.142562
         25.6     -0.143136      -0.14314
         25.7     -0.143684     -0.143689
         25.8     -0.144204     -0.144211
         25.9     -0.144698     -0.144706
           26     -0.145165     -0.145175
         26.1     -0.145607     -0.145618
         26.2     -0.146024     -0.146037
         26.3     -0.146416     -0.146431
         26.4     -0.146785     -0.146801
         26.5     -0.147131     -0.147148
         26.6     -0.147455     -0.147473
         26.7     -0.147757     -0.147776
         26.8     -0.148037     -0.148058
         26.9     -0.148298      -0.14832
           27      -0.14854     -0.148562
         27.1      -0.14876     -0.148783
         27.2     -0.148966     -0.148989
         27.3     -0.149152     -0.149176
         27.4     -0.149321     -0.149345
         27.5     -0.149474     -0.149498
         27.6     -0.149611     -0.149634
         27.7     -0.149733     -0.149756
         27.8      -0.14984     -0.149862
         27.9     -0.149933     -0.149954
           28     -0.150014     -0.150034
         28.1     -0.150081     -0.150099
         28.2     -0.150136     -0.150152
         28.3     -0.150179     -0.150194
         28.4     -0.150211     -0.150224
         28.5     -0.150232     -0.150243
         28.6     -0.150244     -0.150252
         28.7     -0.150246     -0.150252
         28.8     -0.150239     -0.150241
         28.9     -0.150222     -0.150222
           29     -0.150198     -0.150194
         29.1     -0.150165     -0.150158
         29.2     -0.150125     -0.150115
         29.3     -0.150078     -0.150065
         29.4     -0.150025     -0.150008
         29.5     -0.149965     -0.149946
         29.6       -0.1499     -0.149877
         29.7     -0.149829     -0.149802
         29.8     -0.149753     -0.149723
         29.9     -0.149672     -0.149639
           30     -0.149586     -0.149551
         30.1     -0.149496     -0.149458
         30.2     -0.149403     -0.149362
         30.3     -0.149305     -0.149263
         30.4     -0.149205      -0.14916
         30.5     -0.149101     -0.149054
         30.6     -0.148994     -0.148946
         30.7     -0.148884     -0.148835
         30.8     -0.148772     -0.148722
         30.9     -0.148658     -0.148607
           31     -0.148541     -0.148491
         31.1     -0.148423     -0.148373
         31.2     -0.148303     -0.148254
         31.3     -0.148181     -0.148134
         31.4     -0.148058     -0.148013
         31.5     -0.147934     -0.147891
         31.6     -0.147809     -0.147768
         31.7     -0.147682     -0.147645
         31.8     -0.147555     -0.147521
         31.9     -0.147428     -0.147398
           32     -0.147299     -0.147274
         32.1     -0.147171      -0.14715
         32.2     -0.147042     -0.147026
         32.3     -0.146912     -0.146902
         32.4     -0.146783     -0.146778
         32.5     -0.146654     -0.146655
         32.6     -0.146524     -0.146532
         32.7     -0.146395     -0.146409
         32.8     -0.146266     -0.146286
         32.9     -0.146137     -0.146164
           33     -0.146009     -0.146042
         33.1     -0.145881     -0.145921
         33.2     -0.145754     -0.145801
         33.3     -0.145627      -0.14568
         33.4     -0.145501     -0.145561
         33.5     -0.145376     -0.145441
         33.6     -0.145252     -0.145323
         33.7     -0.145128     -0.145204
         33.8     -0.145005     -0.145086
         33.9     -0.144883     -0.144969
           34     -0.144763     -0.144852
         34.1     -0.144643     -0.144736
         34.2     -0.144524      -0.14462
         34.3     -0.144407     -0.144504
         34.4      -0.14429     -0.144389
         34.5     -0.144175     -0.144274
         34.6      -0.14406      -0.14416
         34.7     -0.143948     -0.144046
         34.8     -0.143836     -0.143933
         34.9     -0.143725      -0.14382
           35     -0.143616     -0.143707
         35.1     -0.143508     -0.143595
         35.2     -0.143402     -0.143483
         35.3     -0.143296     -0.143372
         35.4     -0.143192     -0.143261
         35.5     -0.143089      -0.14315
         35.6     -0.142987      -0.14304
         35.7     -0.142886      -0.14293
         35.8     -0.142787     -0.142821
         35.9     -0.142689     -0.142712
           36     -0.142592     -0.142604
         36.1     -0.142495     -0.142496
         36.2       -0.1424     -0.142389
         36.3     -0.142306     -0.142283
         36.4     -0.142213     -0.142177
         36.5     -0.142121     -0.142073
         36.6      -0.14203     -0.141969
         36.7      -0.14194     -0.141865
         36.8      -0.14185     -0.141763
         36.9     -0.141761     -0.141662
           37     -0.141673     -0.141562
         37.1     -0.141586     -0.141462
         37.2     -0.141499     -0.141364
         37.3     -0.141412     -0.141267
         37.4     -0.141326     -0.141171
         37.5     -0.141241     -0.141077
         37.6     -0.141156     -0.140984
         37.7     -0.141071     -0.140892
         37.8     -0.140986     -0.140802
         37.9     -0.140902     -0.140713
           38     -0.140818     -0.140626
         38.1     -0.140734      -0.14054
         38.2      -0.14065     -0.140456
         38.3     -0.140567     -0.140374
         38.4     -0.140483     -0.140293
         38.5       -0.1404     -0.140214
         38.6     -0.140316     -0.140136
         38.7     -0.140233      -0.14006
         38.8      -0.14015     -0.139986
         38.9     -0.140067     -0.139914
           39     -0.139984     -0.139844
         39.1     -0.139901     -0.139774
         39.2     -0.139818     -0.139707
         39.3     -0.139735     -0.139641
         39.4     -0.139653     -0.139577
         39.5     -0.139571     -0.139515
         39.6     -0.139489     -0.139453
         39.7     -0.139408     -0.139394
         39.8     -0.139327     -0.139335
         39.9     -0.139246     -0.139278
           40     -0.139166     -0.139222
         40.1     -0.139087     -0.139167
         40.2     -0.139009     -0.139113
         40.3     -0.138931      -0.13906
         40.4     -0.138855     -0.139008
         40.5     -0.138779     -0.138957
         40.6     -0.138705     -0.138906
         40.7     -0.138631     -0.138856
         40.8     -0.138559     -0.138806
         40.9     -0.138489     -0.138756
           41      -0.13842     -0.138707
         41.1     -0.138353     -0.138657
         41.2     -0.138287     -0.138608
         41.3     -0.138223     -0.138558
         41.4     -0.138161     -0.138509
         41.5     -0.138101     -0.138459
         41.6     -0.138043     -0.138408
         41.7     -0.137987     -0.138357
         41.8     -0.137933     -0.138306
         41.9     -0.137881     -0.138254
           42     -0.137831     -0.138201
         42.1     -0.137784     -0.138147
         42.2     -0.137739     -0.138093
         42.3     -0.137697     -0.138038
         42.4     -0.137656     -0.137982
         42.5     -0.137618     -0.137925
         42.6     -0.137582     -0.137868
         42.7     -0.137548      -0.13781
         42.8     -0.137516     -0.137751
         42.9     -0.137487     -0.137691
           43     -0.137459      -0.13763
         43.1     -0.137434     -0.137569
         43.2      -0.13741     -0.137508
         43.3     -0.137388     -0.137446
         43.4     -0.137367     -0.137384
         43.5     -0.137348     -0.137321
         43.6      -0.13733     -0.137259
         43.7     -0.137313     -0.137196
         43.8     -0.137297     -0.137134
         43.9     -0.137282     -0.137072
           44     -0.137268     -0.137011
         44.1     -0.137254      -0.13695
         44.2      -0.13724      -0.13689
         44.3     -0.137226     -0.136832
         44.4     -0.137211     -0.136774
         44.5     -0.137197     -0.136718
         44.6     -0.137182     -0.136664
         44.7     -0.137165     -0.136611
         44.8     -0.137148      -0.13656
         44.9      -0.13713     -0.136511
           45      -0.13711     -0.136465
         45.1     -0.137089     -0.136421
         45.2     -0.137066      -0.13638
         45.3     -0.137041     -0.136341
         45.4     -0.137014     -0.136305
         45.5     -0.136985     -0.136272
         45.6     -0.136953     -0.136242
         45.7      -0.13692     -0.136215
         45.8     -0.136884     -0.136192
         45.9     -0.136845     -0.136172
           46     -0.136803     -0.136155
         46.1     -0.136759     -0.136141
         46.2     -0.136712      -0.13613
         46.3     -0.136663     -0.136123
         46.4     -0.136612     -0.136119
         46.5     -0.136558     -0.136117
         46.6     -0.136501     -0.136119
         46.7     -0.136443     -0.136123
         46.8     -0.136382      -0.13613
         46.9      -0.13632      -0.13614
           47     -0.136255     -0.136151
         47.1      -0.13619     -0.136165
         47.2     -0.136123     -0.136181
         47.3     -0.136055     -0.136198
         47.4     -0.135986     -0.136216
         47.5     -0.135917     -0.136235
         47.6     -0.135848     -0.136254
         47.7     -0.135779     -0.136274
         47.8     -0.135711     -0.136294
         47.9     -0.135643     -0.136313
           48     -0.135577     -0.136331
         48.1     -0.135512     -0.136348
         48.3     -0.135389     -0.136378
         48.4     -0.135331     -0.136389
         48.5     -0.135276     -0.136398
         48.6     -0.135225     -0.136404
         48.7     -0.135177     -0.136406
         48.8     -0.135133     -0.136405
         48.9     -0.135093       -0.1364
           49     -0.135058     -0.136391
         49.1     -0.135028     -0.136377
         49.2     -0.135003     -0.136358
         49.3     -0.134983     -0.136335
         49.4     -0.134968     -0.136306
         49.5     -0.134959     -0.136273
         49.6     -0.134955     -0.136233
         49.7     -0.134957     -0.136189
         49.8     -0.134964     -0.136139
         49.9     -0.134977     -0.136084
           50     -0.134996     -0.136024
         50.2     -0.135062       -0.1359
         50.3      -0.13511     -0.135838
         50.4     -0.135151      -0.13576
         50.5     -0.135197     -0.135677
         50.6     -0.135246     -0.135591
         50.7     -0.135299       -0.1355
         50.8     -0.135356     -0.135407
         50.9     -0.135416     -0.135311
           51     -0.135478     -0.135212
         51.1     -0.135542     -0.135112
         51.2     -0.135607      -0.13501
         51.3     -0.135673     -0.134908
         51.4     -0.135739     -0.134806
         51.5     -0.135804     -0.134705
         51.6     -0.135868     -0.134604
         51.7     -0.135927     -0.134503
         51.8      -0.13598     -0.134401
         52.1      -0.13611      -0.13411
         52.2     -0.136144     -0.134023
         52.3     -0.136178     -0.133948
         52.4     -0.136208     -0.133882
         52.5      -0.13623     -0.133823
         52.6     -0.136246     -0.133772
         52.7     -0.136253     -0.133729
         52.8      -0.13625     -0.133695
         52.9      -0.13624      -0.13367
           53      -0.13622     -0.133655
         53.1      -0.13619      -0.13365
         53.2      -0.13615     -0.133654
         53.3       -0.1361     -0.133669
         53.4     -0.136039     -0.133695
         53.5     -0.135969      -0.13373
         53.6     -0.135887     -0.133777
         53.7     -0.135796     -0.133834
           54     -0.135464     -0.134063
         54.1     -0.135335     -0.134158
         54.2     -0.135197     -0.134261
         54.3     -0.135053     -0.134372
         54.4     -0.134901     -0.134491
         54.5     -0.134743     -0.134616
         54.6      -0.13458     -0.134746
         54.7     -0.134412     -0.134881
         54.8     -0.134241      -0.13502
         54.9     -0.134068     -0.135161
           55     -0.133894     -0.135304
         55.1     -0.133719     -0.135447
         55.2     -0.133546      -0.13559
         55.3     -0.133375      -0.13573
         55.4     -0.133208     -0.135867
         55.5     -0.133046     -0.135999
         55.6      -0.13289     -0.136125
         55.9     -0.132471     -0.136457
           56     -0.132352     -0.136546
         56.1     -0.132245     -0.136624
         56.2     -0.132152     -0.136688
         56.3     -0.132073     -0.136738
         56.4      -0.13201     -0.136773
         56.5     -0.131962     -0.136791
         56.6     -0.131932     -0.136792
         56.7      -0.13192     -0.136775
         56.8     -0.131926      -0.13674
         56.9      -0.13195     -0.136686
           57     -0.131994     -0.136612
         57.1     -0.132058     -0.136519
         57.2     -0.132141     -0.136406
         57.3     -0.132243     -0.136275
         57.4     -0.132365     -0.136123
         57.8     -0.133037     -0.135333
         57.9     -0.133247     -0.135093
           58     -0.133473     -0.134839
         58.1     -0.133712     -0.134572
         58.2     -0.133963     -0.134294
         58.3     -0.134225     -0.134004
         58.4     -0.134496     -0.133706
         58.5     -0.134774     -0.133402
         58.6     -0.135058     -0.133094
         58.7     -0.135345     -0.132782
         58.8     -0.135633     -0.132471
         58.9      -0.13592     -0.132161
           59     -0.136203     -0.131856
         59.1      -0.13648     -0.131556
         59.2     -0.136749     -0.131266
         59.3     -0.137008     -0.130987
         59.7     -0.137885      -0.13003
         59.8     -0.138054      -0.12984
         59.9     -0.138197     -0.129677
           60     -0.138313     -0.129541
         60.1       -0.1384     -0.129431
         60.2     -0.138456     -0.129354
         60.3     -0.138482     -0.129306
         60.4     -0.138471     -0.129292
         60.5     -0.138428     -0.129312
         60.6     -0.138347     -0.129367
         60.7      -0.13823     -0.129458
         60.8     -0.138075     -0.129585
         60.9     -0.137884     -0.129749
           61     -0.137655      -0.12995
         61.1      -0.13739     -0.130185
         61.2     -0.137088     -0.130458
         61.6     -0.135547     -0.131884
         61.7     -0.135087     -0.132316
         61.8       -0.1346     -0.132776
         61.9     -0.134095     -0.133257
           62     -0.133566     -0.133763
         62.1     -0.133022     -0.134285
         62.2     -0.132466     -0.134821
         62.3     -0.131899      -0.13537
         62.4     -0.131329     -0.135924
         62.5     -0.130756     -0.136484
         62.6     -0.130187     -0.137042
         62.7     -0.129625     -0.137594
         62.8     -0.129078     -0.138136
         62.9     -0.128543     -0.138664
           63     -0.128031     -0.139172
         63.5     -0.125917     -0.141267
         63.6     -0.125613     -0.141565
         63.7     -0.125362     -0.141809
         63.8     -0.125159     -0.142002
         63.9     -0.125013     -0.142136
           64     -0.124926     -0.142207
         64.1     -0.124896     -0.142217
         64.2     -0.124932      -0.14216
         64.3     -0.125032     -0.142034
         64.4     -0.125198     -0.141838
         64.5     -0.125432     -0.141571
         64.6     -0.125731     -0.141239
         64.7     -0.126103     -0.140825
         64.8      -0.12654     -0.140347
         64.9     -0.127042     -0.139802
         65.4     -0.130505      -0.13613
         65.5     -0.131366     -0.135232
         65.6     -0.132274     -0.134291
         65.7     -0.133223     -0.133315
         65.8     -0.134209      -0.13231
         65.9     -0.135228     -0.131276
           66     -0.136267     -0.130229
         66.1     -0.137323     -0.129172
         66.2     -0.138392      -0.12811
         66.3     -0.139457      -0.12706
         66.4     -0.140519     -0.126017
         66.5     -0.141568     -0.124994
         66.6     -0.142589     -0.124005
         66.7     -0.143578     -0.123055
         66.8     -0.144525      -0.12215
         67.3     -0.148309     -0.118559
         67.4     -0.148811     -0.118081
         67.5     -0.149209       -0.1177
         67.6     -0.149505      -0.11741
         67.7     -0.149694     -0.117227
         67.8     -0.149739     -0.117163
         67.9     -0.149664     -0.117209
           68      -0.14946     -0.117372
         68.1     -0.149127     -0.117656
         68.2     -0.148674     -0.118057
         68.3     -0.148046     -0.118592
         68.4     -0.147307     -0.119248
         68.5     -0.146435     -0.120027
         68.6      -0.14542     -0.120935
         69.2       -0.1369     -0.128825
         69.3     -0.135157     -0.130503
         69.4      -0.13334     -0.132262
         69.5     -0.131468     -0.134103
         69.6     -0.129554     -0.136002
         69.7     -0.127611     -0.137956
         69.8     -0.125654     -0.139948
         69.9     -0.123691     -0.141968
           70     -0.121741     -0.143994
         70.1     -0.119821     -0.146027
         70.2     -0.117933     -0.148032
         70.3     -0.116155     -0.149995
         70.4      -0.11438     -0.151912
         70.5     -0.112725      -0.15375
         71.1     -0.105252     -0.162245
         71.2     -0.104546     -0.163063
         71.3     -0.103997     -0.163683
         71.4     -0.103639     -0.164071
         71.5     -0.103478     -0.164231
         71.6     -0.103509     -0.164164
         71.7     -0.103765     -0.163795
         71.8     -0.104218     -0.163216
         71.9     -0.104896     -0.162331
           72     -0.105797     -0.161217
         72.1     -0.106916      -0.15982
         72.2     -0.108273     -0.158155
         72.3     -0.109845     -0.156259
         72.4     -0.111643     -0.154113
           73     -0.126893     -0.137006
         73.1      -0.13008     -0.133613
         73.2     -0.133441     -0.130156
         73.3     -0.136935     -0.126629
         73.4      -0.14054     -0.123069
         73.5      -0.14424     -0.119506
         73.6     -0.148013     -0.115955
         73.7     -0.151822      -0.11245
         73.8     -0.155638     -0.109012
         73.9     -0.159433     -0.105674
           74      -0.16318     -0.102463
         74.1     -0.166842    -0.0993791
         74.2     -0.170379    -0.0964764
         74.3     -0.173747    -0.0937582
         74.9     -0.188555    -0.0823739
           75     -0.189786    -0.0814388
         75.1     -0.190567    -0.0807842
         75.2     -0.190874    -0.0804783
         75.3     -0.190729    -0.0805126
         75.4     -0.190081    -0.0808787
         75.5     -0.188893    -0.0815843
         75.6     -0.187221    -0.0826608
         75.7     -0.185018    -0.0841098
         75.8     -0.182326    -0.0859251
         75.9     -0.179081    -0.0881209