# Probe 0 (5.5 0.5 0)
# Probe 1 (5.5 -0.5 0)
#       Probe             0             1
#        Time
            0             (1 0 0)             (1 0 0)
          0.1             (0.995221 -0.00145526 2.70975e-25)             (0.995221 0.00145526 6.35194e-26)
          0.2             (0.994913 -0.00154826 3.59543e-27)             (0.994913 0.00154826 5.0208e-28)
          0.3             (0.994638 -0.00163399 -9.47793e-26)             (0.994638 0.00163399 -2.2684e-26)
          0.4             (0.994368 -0.00171926 -1.4337e-25)             (0.994368 0.00171926 -3.4142e-26)
          0.5             (0.994093 -0.00180687 -1.71047e-25)             (0.994093 0.00180687 -4.06731e-26)
          0.6             (0.993809 -0.00189818 -1.89467e-25)             (0.993809 0.00189818 -4.50234e-26)
          0.7             (0.993512 -0.00199394 -2.04531e-25)             (0.993512 0.00199394 -4.85933e-26)
          0.8             (0.993202 -0.0020945 -2.1965e-25)             (0.993202 0.0020945 -5.2171e-26)
          0.9             (0.992879 -0.00220001 -2.37146e-25)             (0.992879 0.00220001 -5.63178e-26)
            1             (0.992542 -0.00231049 -2.57759e-25)             (0.992542 0.00231049 -6.11984e-26)
          1.1             (0.992192 -0.00242588 -2.8207e-25)             (0.992192 0.00242588 -6.69558e-26)
          1.2             (0.991829 -0.00254609 -3.10522e-25)             (0.991829 0.00254609 -7.36903e-26)
          1.3             (0.991454 -0.00267103 -3.4302e-25)             (0.991454 0.00267104 -8.13817e-26)
          1.4             (0.991067 -0.00280062 -3.79345e-25)             (0.991067 0.00280062 -8.99866e-26)
          1.5             (0.990669 -0.00293475 -4.19203e-25)             (0.990669 0.00293476 -9.94214e-26)
          1.6             (0.990259 -0.00307343 -4.62458e-25)             (0.990259 0.00307343 -1.09658e-25)
          1.7             (0.989839 -0.00321666 -5.08557e-25)             (0.989839 0.00321666 -1.20575e-25)
          1.8             (0.989409 -0.00336445 -5.57248e-25)             (0.989409 0.00336445 -1.32134e-25)
          1.9             (0.988968 -0.00351692 -6.08553e-25)             (0.988968 0.00351692 -1.44264e-25)
            2             (0.988517 -0.0036742 -6.60985e-25)             (0.988517 0.0036742 -1.56603e-25)
          2.1             (0.988056 -0.00383653 -7.16142e-25)             (0.988056 0.00383653 -1.69729e-25)
          2.2             (0.987584 -0.00400454 -7.72624e-25)             (0.987584 0.00400454 -1.83112e-25)
          2.3             (0.987102 -0.00417996 -8.30815e-25)             (0.987102 0.00417996 -1.96901e-25)
          2.4             (0.986608 -0.00435597 -8.9029e-25)             (0.986608 0.00435597 -2.10932e-25)
          2.5             (0.986101 -0.00453988 -9.51192e-25)             (0.986101 0.00453989 -2.25366e-25)
          2.6             (0.985584 -0.00473083 -1.01292e-24)             (0.985584 0.00473083 -2.40043e-25)
          2.7             (0.985054 -0.00492914 -1.07622e-24)             (0.985054 0.00492914 -2.5504e-25)
          2.8             (0.984512 -0.00513518 -1.14069e-24)             (0.984512 0.00513518 -2.70331e-25)
          2.9             (0.983956 -0.00534971 -1.20622e-24)             (0.983956 0.00534971 -2.85852e-25)
            3             (0.983387 -0.0055735 -1.27312e-24)             (0.983387 0.00557351 -3.01718e-25)
          3.1             (0.982804 -0.00580755 -1.3412e-24)             (0.982804 0.00580755 -3.17866e-25)
          3.2             (0.982205 -0.00605291 -1.41064e-24)             (0.982205 0.00605291 -3.34333e-25)
          3.3             (0.981591 -0.00631072 -1.48147e-24)             (0.981591 0.00631073 -3.51134e-25)
          3.4             (0.980961 -0.00658207 -1.55372e-24)             (0.980961 0.00658208 -3.68278e-25)
          3.5             (0.980313 -0.0068679 -1.62739e-24)             (0.980313 0.00686791 -3.85761e-25)
          3.6             (0.979648 -0.00716883 -1.70259e-24)             (0.979648 0.00716883 -4.0361e-25)
          3.7             (0.978964 -0.00748498 -1.77935e-24)             (0.978964 0.00748499 -4.21829e-25)
          3.8             (0.978261 -0.00781592 -1.85775e-24)             (0.978261 0.00781592 -4.40443e-25)
          3.9             (0.977538 -0.00816079 -1.93812e-24)             (0.977538 0.00816079 -4.59523e-25)
            4             (0.976793 -0.00851874 -2.01972e-24)             (0.976793 0.00851874 -4.78901e-25)
          4.1             (0.976028 -0.00888966 -2.10326e-24)             (0.976028 0.00888966 -4.9874e-25)
          4.2             (0.975241 -0.00927508 -2.18887e-24)             (0.975241 0.00927509 -5.19076e-25)
          4.3             (0.974433 -0.00967903 -2.27604e-24)             (0.974433 0.00967903 -5.39782e-25)
          4.4             (0.973604 -0.0101085 -2.36504e-24)             (0.973604 0.0101085 -5.60925e-25)
          4.5             (0.972754 -0.0105732 -2.45597e-24)             (0.972754 0.0105732 -5.82527e-25)
          4.6             (0.971883 -0.0110848 -2.54868e-24)             (0.971883 0.0110848 -6.04553e-25)
          4.7             (0.970992 -0.0116555 -2.64329e-24)             (0.970992 0.0116555 -6.27026e-25)
          4.8             (0.970082 -0.012296 -2.73971e-24)             (0.970082 0.012296 -6.49923e-25)
          4.9             (0.969154 -0.013014 -2.83781e-24)             (0.969154 0.0130141 -6.73215e-25)
            5             (0.968209 -0.0138136 -2.93794e-24)             (0.968209 0.0138136 -6.96976e-25)
          5.1             (0.967252 -0.0146939 -3.03976e-24)             (0.967252 0.014694 -7.21124e-25)
          5.2             (0.966286 -0.0156502 -3.14306e-24)             (0.966286 0.0156502 -7.45611e-25)
          5.3             (0.965317 -0.0166732 -3.24783e-24)             (0.965317 0.0166733 -7.70426e-25)
          5.4             (0.964352 -0.0177506 -3.35428e-24)             (0.964352 0.0177507 -7.95619e-25)
          5.5             (0.963393 -0.018867 -3.46166e-24)             (0.963393 0.018867 -8.21008e-25)
          5.6             (0.962446 -0.020005 -3.57016e-24)             (0.962446 0.020005 -8.46639e-25)
          5.7             (0.961511 -0.0211461 -3.6797e-24)             (0.961511 0.0211461 -8.72491e-25)
          5.8             (0.960587 -0.0222725 -3.79029e-24)             (0.960587 0.0222725 -8.98566e-25)
          5.9             (0.959672 -0.0233682 -3.90134e-24)             (0.959672 0.0233682 -9.24728e-25)
            6             (0.958759 -0.0244207 -4.01284e-24)             (0.958759 0.0244207 -9.50979e-25)
          6.1             (0.957842 -0.025422 -4.12497e-24)             (0.957842 0.025422 -9.77364e-25)
          6.2             (0.956916 -0.0263687 -4.23757e-24)             (0.956916 0.0263688 -1.00384e-24)
          6.3             (0.955974 -0.0272618 -4.35039e-24)             (0.955974 0.0272618 -1.03037e-24)
          6.4             (0.955013 -0.0281052 -4.46361e-24)             (0.955013 0.0281053 -1.05699e-24)
          6.5             (0.954031 -0.0289053 -4.57714e-24)             (0.954031 0.0289054 -1.08368e-24)
          6.6             (0.953028 -0.0296692 -4.69082e-24)             (0.953028 0.0296692 -1.1104e-24)
          6.7             (0.952006 -0.0304038 -4.80475e-24)             (0.952006 0.0304038 -1.13718e-24)
          6.8             (0.95097 -0.0311161 -4.91909e-24)             (0.95097 0.0311161 -1.16406e-24)
          6.9             (0.949925 -0.0318121 -5.0338e-24)             (0.949925 0.031812 -1.19103e-24)
            7             (0.948875 -0.032497 -5.14899e-24)             (0.948875 0.032497 -1.21811e-24)
          7.1             (0.947828 -0.0331755 -5.26451e-24)             (0.947828 0.0331755 -1.24526e-24)
          7.2             (0.946789 -0.0338515 -5.38039e-24)             (0.946789 0.0338514 -1.27249e-24)
          7.3             (0.945762 -0.0345279 -5.49685e-24)             (0.945762 0.0345278 -1.29986e-24)
          7.4             (0.944753 -0.035207 -5.61363e-24)             (0.944753 0.0352069 -1.32729e-24)
          7.5             (0.943766 -0.0358903 -5.73102e-24)             (0.943766 0.0358902 -1.35487e-24)
          7.6             (0.942806 -0.0365789 -5.84888e-24)             (0.942806 0.0365788 -1.38254e-24)
          7.7             (0.941877 -0.0372735 -5.96734e-24)             (0.941877 0.0372734 -1.41035e-24)
          7.8             (0.940983 -0.037975 -6.08655e-24)             (0.940983 0.0379749 -1.43832e-24)
          7.9             (0.940129 -0.0386849 -6.20636e-24)             (0.940129 0.0386848 -1.46643e-24)
            8             (0.93932 -0.0394058 -6.32681e-24)             (0.93932 0.0394057 -1.49467e-24)
          8.1             (0.938557 -0.040142 -6.44797e-24)             (0.938557 0.0401419 -1.52306e-24)
          8.2             (0.937841 -0.0409001 -6.56995e-24)             (0.937841 0.0409 -1.55164e-24)
          8.3             (0.937169 -0.0416893 -6.69286e-24)             (0.937169 0.0416892 -1.58039e-24)
          8.4             (0.936535 -0.0425214 -6.81624e-24)             (0.936535 0.0425213 -1.60922e-24)
          8.5             (0.935926 -0.04341 -6.94031e-24)             (0.935926 0.0434099 -1.63815e-24)
          8.6             (0.935325 -0.0443692 -7.06462e-24)             (0.935325 0.044369 -1.66706e-24)
          8.7             (0.934709 -0.0454112 -7.1888e-24)             (0.934709 0.0454111 -1.69584e-24)
          8.8             (0.934052 -0.0465441 -7.31246e-24)             (0.934052 0.0465439 -1.72437e-24)
          8.9             (0.933327 -0.0477692 -7.43482e-24)             (0.933327 0.0477691 -1.75247e-24)
            9             (0.93251 -0.0490799 -7.55548e-24)             (0.93251 0.0490797 -1.78002e-24)
          9.1             (0.931584 -0.0504612 -7.67388e-24)             (0.931584 0.0504611 -1.8069e-24)
          9.2             (0.930537 -0.051892 -7.78935e-24)             (0.930537 0.0518918 -1.83297e-24)
          9.3             (0.92937 -0.0533476 -7.90174e-24)             (0.92937 0.0533474 -1.85823e-24)
          9.4             (0.92809 -0.0548044 -8.01075e-24)             (0.92809 0.0548043 -1.88263e-24)
          9.5             (0.926711 -0.0562435 -8.11643e-24)             (0.926711 0.0562434 -1.90621e-24)
          9.6             (0.925249 -0.0576533 -8.21903e-24)             (0.925249 0.0576532 -1.92907e-24)
          9.7             (0.923719 -0.0590301 -8.3187e-24)             (0.923719 0.05903 -1.95124e-24)
          9.8             (0.922136 -0.0603774 -8.41518e-24)             (0.922135 0.0603773 -1.97267e-24)
          9.9             (0.920506 -0.0617032 -8.50932e-24)             (0.920506 0.0617031 -1.99355e-24)
           10             (0.918835 -0.0630172 -8.6008e-24)             (0.918835 0.0630171 -2.01378e-24)
         10.1             (0.917124 -0.0643282 -8.69012e-24)             (0.917124 0.0643282 -2.03347e-24)
         10.2             (0.915372 -0.0656431 -8.77689e-24)             (0.915371 0.0656431 -2.0525e-24)
         10.3             (0.913578 -0.066966 -8.8607e-24)             (0.913578 0.0669661 -2.07077e-24)
         10.4             (0.911742 -0.068299 -8.94238e-24)             (0.911741 0.068299 -2.08847e-24)
         10.5             (0.909863 -0.0696427 -9.02092e-24)             (0.909862 0.0696428 -2.10536e-24)
         10.6             (0.907941 -0.0709975 -9.09669e-24)             (0.907941 0.0709976 -2.12153e-24)
         10.7             (0.905978 -0.0723634 -9.16929e-24)             (0.905978 0.0723635 -2.13687e-24)
         10.8             (0.903974 -0.0737406 -9.23874e-24)             (0.903974 0.0737408 -2.15139e-24)
         10.9             (0.901928 -0.0751293 -9.30494e-24)             (0.901928 0.0751296 -2.16507e-24)
           11             (0.899842 -0.0765298 -9.36787e-24)             (0.899842 0.0765301 -2.17789e-24)
         11.1             (0.897716 -0.0779421 -9.42647e-24)             (0.897716 0.0779424 -2.18961e-24)
         11.2             (0.89555 -0.0793659 -9.48191e-24)             (0.89555 0.0793662 -2.2005e-24)
         11.3             (0.893344 -0.0808012 -9.53322e-24)             (0.893344 0.0808015 -2.21033e-24)
         11.4             (0.891098 -0.0822475 -9.58065e-24)             (0.891098 0.0822479 -2.21916e-24)
         11.5             (0.888814 -0.0837046 -9.6238e-24)             (0.888814 0.0837051 -2.22688e-24)
         11.6             (0.88649 -0.085172 -9.66267e-24)             (0.88649 0.0851725 -2.23351e-24)
         11.7             (0.884127 -0.0866493 -9.69695e-24)             (0.884127 0.0866497 -2.23895e-24)
         11.8             (0.881725 -0.0881357 -9.72669e-24)             (0.881726 0.0881362 -2.24323e-24)
         11.9             (0.879285 -0.0896308 -9.75172e-24)             (0.879285 0.0896313 -2.24631e-24)
           12             (0.876806 -0.0911338 -9.77174e-24)             (0.876806 0.0911344 -2.2481e-24)
         12.1             (0.874288 -0.092644 -9.78636e-24)             (0.874288 0.0926446 -2.24852e-24)
         12.2             (0.871731 -0.0941606 -9.79592e-24)             (0.871732 0.0941612 -2.24765e-24)
         12.3             (0.869136 -0.0956827 -9.79988e-24)             (0.869136 0.0956833 -2.24535e-24)
         12.4             (0.866502 -0.0972095 -9.79811e-24)             (0.866502 0.0972101 -2.24161e-24)
         12.5             (0.863829 -0.0987399 -9.79094e-24)             (0.863829 0.0987405 -2.23649e-24)
         12.6             (0.861117 -0.100273 -9.77785e-24)             (0.861118 0.100274 -2.22987e-24)
         12.7             (0.858366 -0.101808 -9.75842e-24)             (0.858367 0.101809 -2.22166e-24)
         12.8             (0.855577 -0.103344 -9.73287e-24)             (0.855577 0.103344 -2.21191e-24)
         12.9             (0.852748 -0.104879 -9.70095e-24)             (0.852749 0.104879 -2.20056e-24)
           13             (0.849881 -0.106412 -9.66243e-24)             (0.849881 0.106413 -2.18754e-24)
         13.1             (0.846974 -0.107943 -9.61726e-24)             (0.846975 0.107944 -2.17287e-24)
         13.2             (0.844029 -0.109471 -9.56531e-24)             (0.844029 0.109471 -2.1565e-24)
         13.3             (0.841044 -0.110993 -9.5354e-24)             (0.841044 0.110993 -2.14503e-24)
         13.4             (0.83802 -0.112509 -9.46572e-24)             (0.838021 0.11251 -2.12432e-24)
         13.5             (0.834958 -0.114019 -9.38886e-24)             (0.834958 0.114019 -2.10183e-24)
         13.6             (0.831856 -0.115519 -9.30417e-24)             (0.831857 0.115519 -2.07741e-24)
         13.7             (0.828716 -0.11701 -9.21185e-24)             (0.828716 0.11701 -2.0511e-24)
         13.8             (0.825537 -0.11849 -9.11148e-24)             (0.825537 0.11849 -2.02282e-24)
         13.9             (0.82232 -0.119958 -9.00312e-24)             (0.82232 0.119958 -1.99257e-24)
           14             (0.819064 -0.121412 -8.88855e-24)             (0.819064 0.121412 -1.96077e-24)
         14.1             (0.815769 -0.122852 -8.76975e-24)             (0.815769 0.122852 -1.92788e-24)
         14.2             (0.812437 -0.124276 -8.64287e-24)             (0.812436 0.124275 -1.89302e-24)
         14.3             (0.809066 -0.125682 -8.50812e-24)             (0.809065 0.125682 -1.85623e-24)
         14.4             (0.805657 -0.127071 -8.36514e-24)             (0.805657 0.12707 -1.81744e-24)
         14.5             (0.802211 -0.128439 -8.21414e-24)             (0.802211 0.128438 -1.7767e-24)
         14.6             (0.798728 -0.129787 -8.05477e-24)             (0.798727 0.129785 -1.73394e-24)
         14.7             (0.795207 -0.131112 -7.88714e-24)             (0.795206 0.13111 -1.68919e-24)
         14.8             (0.79165 -0.132413 -7.71114e-24)             (0.791649 0.132412 -1.64242e-24)
         14.9             (0.788056 -0.13369 -7.52682e-24)             (0.788055 0.133688 -1.59366e-24)
           15             (0.784427 -0.134941 -7.3342e-24)             (0.784425 0.134939 -1.5429e-24)
         15.1             (0.780761 -0.136164 -7.13269e-24)             (0.78076 0.136162 -1.49003e-24)
         15.2             (0.777061 -0.137359 -6.92335e-24)             (0.777059 0.137357 -1.4353e-24)
         15.3             (0.773325 -0.138524 -6.7053e-24)             (0.773324 0.138522 -1.37851e-24)
         15.4             (0.769556 -0.139658 -6.47885e-24)             (0.769554 0.139656 -1.31973e-24)
         15.5             (0.765752 -0.140759 -6.24394e-24)             (0.76575 0.140757 -1.25896e-24)
         15.6             (0.761916 -0.141828 -6.00085e-24)             (0.761914 0.141826 -1.19628e-24)
         15.7             (0.758046 -0.142862 -5.74946e-24)             (0.758044 0.14286 -1.13165e-24)
         15.8             (0.754145 -0.143861 -5.48996e-24)             (0.754143 0.143859 -1.06514e-24)
         15.9             (0.750213 -0.144823 -5.22232e-24)             (0.750211 0.144821 -9.96748e-25)
           16             (0.74625 -0.145747 -4.9465e-24)             (0.746248 0.145745 -9.26466e-25)
         16.1             (0.742257 -0.146633 -4.66314e-24)             (0.742255 0.146631 -8.54455e-25)
         16.2             (0.738235 -0.14748 -4.37185e-24)             (0.738233 0.147478 -7.80633e-25)
         16.3             (0.734185 -0.148286 -4.07285e-24)             (0.734183 0.148284 -7.05059e-25)
         16.4             (0.730107 -0.149051 -3.76637e-24)             (0.730105 0.149049 -6.27793e-25)
         16.5             (0.726003 -0.149773 -3.45255e-24)             (0.726002 0.149772 -5.48883e-25)
         16.6             (0.721873 -0.150453 -3.13151e-24)             (0.721872 0.150452 -4.6836e-25)
         16.7             (0.717719 -0.15109 -2.80339e-24)             (0.717718 0.151089 -3.86265e-25)
         16.8             (0.713542 -0.151682 -2.46868e-24)             (0.713541 0.151682 -3.02725e-25)
         16.9             (0.709342 -0.15223 -2.12677e-24)             (0.709341 0.15223 -2.17603e-25)
           17             (0.70512 -0.152733 -1.77868e-24)             (0.70512 0.152733 -1.31145e-25)
         17.1             (0.700878 -0.153189 -1.42428e-24)             (0.700878 0.15319 -4.3331e-26)
         17.2             (0.696617 -0.1536 -1.06371e-24)             (0.696617 0.153601 4.57968e-26)
         17.3             (0.692338 -0.153964 -6.97343e-25)             (0.692339 0.153965 1.36146e-25)
         17.4             (0.688042 -0.154282 -3.25248e-25)             (0.688043 0.154283 2.27692e-25)
         17.5             (0.683731 -0.154553 5.20722e-26)             (0.683732 0.154554 3.20308e-25)
         17.6             (0.679405 -0.154776 4.34579e-25)             (0.679407 0.154778 4.13977e-25)
         17.7             (0.675066 -0.154953 8.22046e-25)             (0.675069 0.154955 5.08639e-25)
         17.8             (0.670716 -0.155082 1.21404e-24)             (0.670719 0.155085 6.04189e-25)
         17.9             (0.666355 -0.155164 1.61044e-24)             (0.666358 0.155167 7.00586e-25)
           18             (0.661986 -0.155199 2.01093e-24)             (0.661989 0.155203 7.97758e-25)
         18.1             (0.657608 -0.155188 2.41516e-24)             (0.657612 0.155192 8.9561e-25)
         18.2             (0.653225 -0.15513 2.82302e-24)             (0.653229 0.155134 9.94111e-25)
         18.3             (0.648837 -0.155025 3.2338e-24)             (0.648841 0.15503 1.09309e-24)
         18.4             (0.644445 -0.154875 3.6479e-24)             (0.64445 0.154879 1.19265e-24)
         18.5             (0.640051 -0.154679 4.06414e-24)             (0.640057 0.154684 1.29248e-24)
         18.6             (0.635657 -0.154438 4.48315e-24)             (0.635663 0.154443 1.39275e-24)
         18.7             (0.631264 -0.154153 4.90371e-24)             (0.63127 0.154158 1.49316e-24)
         18.8             (0.626873 -0.153824 5.32624e-24)             (0.62688 0.153829 1.5938e-24)
         18.9             (0.622486 -0.153451 5.75009e-24)             (0.622493 0.153457 1.69453e-24)
           19             (0.618105 -0.153036 6.17512e-24)             (0.618111 0.153042 1.7953e-24)
         19.1             (0.613729 -0.15258 6.6009e-24)             (0.613736 0.152585 1.89602e-24)
         19.2             (0.609362 -0.152082 7.02718e-24)             (0.609369 0.152088 1.99662e-24)
         19.3             (0.605005 -0.151545 7.45377e-24)             (0.605012 0.15155 2.09706e-24)
         19.4             (0.600658 -0.150968 7.87986e-24)             (0.600665 0.150973 2.19715e-24)
         19.5             (0.596324 -0.150353 8.30566e-24)             (0.596331 0.150357 2.29693e-24)
         19.6             (0.592003 -0.1497 8.731e-24)             (0.59201 0.149705 2.39637e-24)
         19.7             (0.587697 -0.149011 9.15497e-24)             (0.587704 0.149015 2.49526e-24)
         19.8             (0.583408 -0.148287 9.57791e-24)             (0.583414 0.148291 2.59367e-24)
         19.9             (0.579136 -0.147529 9.99912e-24)             (0.579142 0.147532 2.69144e-24)
           20             (0.574883 -0.146737 1.04185e-23)             (0.574889 0.14674 2.78857e-24)
         20.1             (0.570651 -0.145913 1.08356e-23)             (0.570655 0.145915 2.88493e-24)
         20.2             (0.566439 -0.145059 1.12506e-23)             (0.566443 0.14506 2.98057e-24)
         20.3             (0.56225 -0.144174 1.16627e-23)             (0.562254 0.144175 3.07531e-24)
         20.4             (0.558085 -0.143261 1.20719e-23)             (0.558088 0.143261 3.16917e-24)
         20.5             (0.553945 -0.14232 1.2478e-23)             (0.553947 0.142319 3.26206e-24)
         20.6             (0.549831 -0.141353 1.28806e-23)             (0.549831 0.141351 3.35394e-24)
         20.7             (0.545743 -0.140361 1.32795e-23)             (0.545743 0.140358 3.44476e-24)
         20.8             (0.541684 -0.139345 1.36745e-23)             (0.541682 0.139341 3.53446e-24)
         20.9             (0.537653 -0.138307 1.40656e-23)             (0.537651 0.138302 3.62306e-24)
           21             (0.533653 -0.137246 1.44522e-23)             (0.533649 0.137241 3.7104e-24)
         21.1             (0.529683 -0.136166 1.48345e-23)             (0.529678 0.136159 3.79656e-24)
         21.2             (0.525744 -0.135066 1.52119e-23)             (0.525738 0.135059 3.88142e-24)
         21.3             (0.521839 -0.133949 1.55845e-23)             (0.521831 0.13394 3.96494e-24)
         21.4             (0.517966 -0.132814 1.5952e-23)             (0.517958 0.132805 4.04713e-24)
         21.5             (0.514128 -0.131664 1.63143e-23)             (0.514118 0.131654 4.12795e-24)
         21.6             (0.510324 -0.1305 1.66711e-23)             (0.510313 0.130489 4.20734e-24)
         21.7             (0.506555 -0.129323 1.70225e-23)             (0.506543 0.129311 4.2853e-24)
         21.8             (0.502823 -0.128133 1.73682e-23)             (0.502809 0.128121 4.36179e-24)
         21.9             (0.499127 -0.126932 1.7708e-23)             (0.499112 0.12692 4.43679e-24)
           22             (0.495468 -0.125722 1.80419e-23)             (0.495452 0.125709 4.51027e-24)
         22.1             (0.491846 -0.124503 1.83699e-23)             (0.49183 0.124489 4.58226e-24)
         22.2             (0.488262 -0.123276 1.86917e-23)             (0.488245 0.123262 4.65269e-24)
         22.3             (0.484717 -0.122043 1.90072e-23)             (0.484699 0.122029 4.72154e-24)
         22.4             (0.481211 -0.120804 1.93164e-23)             (0.481192 0.12079 4.78884e-24)
         22.5             (0.477744 -0.11956 1.96192e-23)             (0.477724 0.119547 4.85456e-24)
         22.6             (0.474316 -0.118313 1.99157e-23)             (0.474296 0.1183 4.91871e-24)
         22.7             (0.470928 -0.117064 2.02054e-23)             (0.470908 0.117051 4.9812e-24)
         22.8             (0.46758 -0.115813 2.04886e-23)             (0.467559 0.1158 5.04212e-24)
         22.9             (0.464272 -0.114561 2.07656e-23)             (0.464251 0.114549 5.10151e-24)
           23             (0.461004 -0.11331 2.10352e-23)             (0.460984 0.113299 5.15913e-24)
         23.1             (0.457777 -0.112059 2.12987e-23)             (0.457757 0.11205 5.21529e-24)
         23.2             (0.45459 -0.110811 2.15553e-23)             (0.454571 0.110803 5.2698e-24)
         23.3             (0.451444 -0.109566 2.18053e-23)             (0.451425 0.109559 5.32274e-24)
         23.4             (0.448338 -0.108325 2.20485e-23)             (0.448321 0.108319 5.37406e-24)
         23.5             (0.445274 -0.107088 2.22851e-23)             (0.445257 0.107083 5.42384e-24)
         23.6             (0.442249 -0.105856 2.2515e-23)             (0.442234 0.105853 5.47203e-24)
         23.7             (0.439266 -0.10463 2.27383e-23)             (0.439252 0.104629 5.51866e-24)
         23.8             (0.436323 -0.103411 2.29548e-23)             (0.43631 0.103412 5.56373e-24)
         23.9             (0.43342 -0.1022 2.31649e-23)             (0.43341 0.102202 5.6073e-24)
           24             (0.430558 -0.100996 2.33684e-23)             (0.430549 0.101001 5.64934e-24)
         24.1             (0.427736 -0.0998019 2.35652e-23)             (0.42773 0.0998086 5.68985e-24)
         24.2             (0.424955 -0.0986168 2.37556e-23)             (0.42495 0.0986255 5.72888e-24)
         24.3             (0.422213 -0.0974417 2.39398e-23)             (0.42221 0.0974525 5.76648e-24)
         24.4             (0.419511 -0.0962772 2.41175e-23)             (0.419511 0.0962901 5.80261e-24)
         24.5             (0.416848 -0.0951238 2.4289e-23)             (0.416851 0.0951388 5.83733e-24)
         24.6             (0.414224 -0.093982 2.44542e-23)             (0.41423 0.093999 5.87059e-24)
         24.7             (0.41164 -0.0928524 2.46132e-23)             (0.411648 0.0928714 5.90251e-24)
         24.8             (0.409095 -0.0917355 2.47662e-23)             (0.409106 0.0917564 5.93304e-24)
         24.9             (0.406588 -0.0906317 2.49134e-23)             (0.406602 0.0906543 5.9623e-24)
           25             (0.404119 -0.0895414 2.50546e-23)             (0.404136 0.0895656 5.9902e-24)
         25.1             (0.401688 -0.0884649 2.51901e-23)             (0.401707 0.0884907 6.01682e-24)
         25.2             (0.399294 -0.0874027 2.53198e-23)             (0.399317 0.0874299 6.04218e-24)
         25.3             (0.396938 -0.0863551 2.5444e-23)             (0.396964 0.0863835 6.06631e-24)
         25.4             (0.394619 -0.0853226 2.55627e-23)             (0.394647 0.0853519 6.08922e-24)
         25.5             (0.392336 -0.0843052 2.5676e-23)             (0.392367 0.0843353 6.11094e-24)
         25.6             (0.39009 -0.0833034 2.57841e-23)             (0.390123 0.083334 6.13154e-24)
         25.7             (0.387879 -0.0823174 2.5887e-23)             (0.387915 0.0823482 6.15099e-24)
         25.8             (0.385704 -0.0813473 2.59848e-23)             (0.385742 0.0813781 6.16935e-24)
         25.9             (0.383564 -0.0803934 2.60778e-23)             (0.383604 0.080424 6.18663e-24)
           26             (0.381459 -0.0794558 2.61658e-23)             (0.381501 0.0794859 6.20285e-24)
         26.1             (0.379388 -0.0785349 2.62493e-23)             (0.379431 0.0785642 6.2181e-24)
         26.2             (0.377351 -0.0776308 2.63282e-23)             (0.377396 0.0776589 6.23236e-24)
         26.3             (0.375348 -0.0767434 2.64025e-23)             (0.375393 0.07677 6.24565e-24)
         26.4             (0.373378 -0.0758729 2.64726e-23)             (0.373424 0.0758978 6.258e-24)
         26.5             (0.37144 -0.0750194 2.65384e-23)             (0.371486 0.0750423 6.26946e-24)
         26.6             (0.369535 -0.0741829 2.66001e-23)             (0.369581 0.0742034 6.28003e-24)
         26.7             (0.367661 -0.0733635 2.66578e-23)             (0.367707 0.0733814 6.28979e-24)
         26.8             (0.365819 -0.0725611 2.67116e-23)             (0.365864 0.0725762 6.29869e-24)
         26.9             (0.364008 -0.0717757 2.67618e-23)             (0.364052 0.0717876 6.30683e-24)
           27             (0.362228 -0.0710074 2.68083e-23)             (0.36227 0.0710159 6.31422e-24)
         27.1             (0.360477 -0.0702561 2.6851e-23)             (0.360517 0.070261 6.32079e-24)
         27.2             (0.358756 -0.0695217 2.68909e-23)             (0.358794 0.0695228 6.3268e-24)
         27.3             (0.357065 -0.0688041 2.69272e-23)             (0.3571 0.0688013 6.33205e-24)
         27.4             (0.355402 -0.0681033 2.69604e-23)             (0.355434 0.0680964 6.33665e-24)
         27.5             (0.353768 -0.067419 2.69906e-23)             (0.353797 0.0674078 6.34062e-24)
         27.6             (0.352162 -0.0667512 2.70178e-23)             (0.352186 0.0667356 6.34399e-24)
         27.7             (0.350583 -0.0660997 2.70422e-23)             (0.350603 0.0660798 6.34679e-24)
         27.8             (0.349031 -0.0654643 2.70639e-23)             (0.349047 0.06544 6.34903e-24)
         27.9             (0.347506 -0.064845 2.70829e-23)             (0.347517 0.0648163 6.35071e-24)
           28             (0.346007 -0.0642414 2.70997e-23)             (0.346013 0.0642084 6.35195e-24)
         28.1             (0.344533 -0.0636534 2.71139e-23)             (0.344534 0.0636162 6.35267e-24)
         28.2             (0.343085 -0.0630808 2.71259e-23)             (0.34308 0.0630395 6.35294e-24)
         28.3             (0.341662 -0.0625234 2.71357e-23)             (0.341651 0.0624782 6.35278e-24)
         28.4             (0.340263 -0.0619808 2.71433e-23)             (0.340246 0.0619319 6.35219e-24)