/*--------------------------------*- C++ -*----------------------------------*\
  =========                 |
  \\      /  F ield         | OpenFOAM: The Open Source CFD Toolbox
   \\    /   O peration     | Website:  https://openfoam.org
    \\  /    A nd           | Version:  7
     \\/     M anipulation  |
\*---------------------------------------------------------------------------*/
FoamFile
{
    version     2.0;
    format      ascii;
    class       volScalarField;
    location    "2.3";
    object      T;
}
// * * * * * * * * * * * * * * * * * * * * * * * * * * * * * * * * * * * * * //

dimensions      [0 0 0 1 0 0 0];

internalField   nonuniform List<scalar> 
64512
(
1
1
1
1
1
1
1
1
1
1
1
1
1
1
1
1
1
1
1
1
1
1
1
1
1
1
1
1
1
1
1
1
1
1
1
1
1
1
1
1
1
1
1
1
1
1
1
1
1
1.53817
2.57647
2.69827
2.69772
2.70151
2.70741
2.71427
2.72064
2.72595
2.73007
2.73326
2.73608
2.73913
2.74279
2.7469
2.75093
2.75435
2.757
2.75913
2.76122
2.76383
2.76703
2.77024
2.77294
2.77506
2.77677
2.77857
2.78134
2.78553
2.79052
2.79509
2.79836
2.80049
2.80235
2.80456
2.8072
2.80976
2.81148
2.81215
2.81236
2.81314
2.81512
2.81903
2.82583
2.8336
2.83922
2.84156
1
1
1
1
1
1
1
1
1
1
1
1
1
1
1
1
1
1
1
1
1
1
1
1
1
1
1
1
1
1
1
1
1
1
1
1
1
1
1
1
1
1
1
1
1
1
1
1
1
1.53191
2.57368
2.69756
2.69747
2.70155
2.70758
2.71437
2.72062
2.72579
2.72982
2.73306
2.73599
2.73914
2.74286
2.74696
2.75092
2.75425
2.75685
2.75899
2.76113
2.76381
2.76706
2.77026
2.77291
2.77494
2.77655
2.77831
2.78109
2.78536
2.79043
2.79503
2.79829
2.8004
2.80223
2.80442
2.80705
2.8096
2.81131
2.81196
2.81215
2.81293
2.81491
2.81881
2.82562
2.8334
2.83903
2.84139
1
1
1
1
1
1
1
1
1
1
1
1
1
1
1
1
1
1
1
1
1
1
1
1
1
1
1
1
1
1
1
1
1
1
1
1
1
1
1
1
1
1
1
1
1
1
1
1
1
1.51338
2.56605
2.69624
2.69673
2.70151
2.70773
2.71442
2.72041
2.72528
2.72916
2.73247
2.73559
2.73899
2.74288
2.747
2.75084
2.75401
2.75649
2.75862
2.76084
2.76363
2.76699
2.77023
2.77285
2.77475
2.77626
2.77794
2.78074
2.7851
2.79027
2.79492
2.79817
2.80026
2.80206
2.80423
2.80684
2.80936
2.81103
2.81164
2.8118
2.81258
2.81457
2.81849
2.82532
2.8331
2.83875
2.84113
1
1
1
1
1
1
1
1
1
1
1
1
1
1
1
1
1
1
1
1
1
1
1
1
1
1
1
1
1
1
1
1
1
1
1
1
1
1
1
1
1
1
1
1
1
1
1
1
1
1.48637
2.55475
2.69517
2.69641
2.70159
2.70777
2.71419
2.71975
2.72426
2.72801
2.73145
2.73488
2.73865
2.74281
2.74696
2.75066
2.7536
2.75592
2.75802
2.76033
2.7633
2.76683
2.77015
2.77275
2.77452
2.77588
2.77747
2.78026
2.78471
2.78999
2.79469
2.79793
2.79999
2.80178
2.80393
2.80653
2.80901
2.81062
2.81118
2.81129
2.81207
2.81409
2.81804
2.82489
2.83267
2.83832
2.84071
1
1
1
1
1
1
1
1
1
1
1
1
1
1
1
1
1
1
1
1
1
1
1
1
1
1
1
1
1
1
1
1
1
1
1
1
1
1
1
1
1
1
1
1
1
1
1
1
1
1.45276
2.54039
2.69514
2.69652
2.7016
2.70743
2.71339
2.71854
2.72279
2.7265
2.73012
2.73393
2.73812
2.74258
2.74676
2.75029
2.753
2.75514
2.75719
2.75958
2.76273
2.76649
2.76995
2.77259
2.77426
2.77549
2.77697
2.77972
2.78421
2.78957
2.79431
2.79755
2.7996
2.80137
2.80352
2.80612
2.80856
2.8101
2.81059
2.81066
2.81143
2.81348
2.81748
2.82436
2.83212
2.83776
2.84014
1
1
1
1
1
1
1
1
1
1
1
1
1
1
1
1
1
1
1
1
1
1
1
1
1
1
1
1
1
1
1
1
1
1
1
1
1
1
1
1
1
1
1
1
1
1
1
1
1
1.41119
2.52228
2.6959
2.69704
2.7016
2.70673
2.71209
2.71688
2.72097
2.72473
2.72861
2.73283
2.73747
2.74221
2.74641
2.74973
2.75219
2.75414
2.75616
2.75861
2.76194
2.76592
2.7696
2.77237
2.77401
2.77514
2.7765
2.77916
2.78362
2.78898
2.79372
2.79695
2.79899
2.80076
2.80292
2.80552
2.80793
2.80941
2.80986
2.80991
2.81067
2.81274
2.81682
2.82371
2.83145
2.83706
2.8394
1
1
1
1
1
1
1
1
1
1
1
1
1
1
1
1
1
1
1
1
1
1
1
1
1
1
1
1
1
1
1
1
1
1
1
1
1
1
1
1
1
1
1
1
1
1
1
1
1
1.3615
2.49976
2.69663
2.69751
2.70148
2.70582
2.71052
2.71489
2.71886
2.72275
2.72694
2.7316
2.73667
2.74166
2.74582
2.74892
2.75115
2.75296
2.75495
2.75748
2.76098
2.76522
2.76915
2.77206
2.77369
2.77473
2.77598
2.77851
2.78288
2.7882
2.79293
2.79616
2.79821
2.8
2.80218
2.80478
2.80716
2.8086
2.80901
2.80904
2.80979
2.81189
2.81603
2.82292
2.83061
2.83618
2.83847
1
1
1
1
1
1
1
1
1
1
1
1
1
1
1
1
1
1
1
1
1
1
1
1
1
1
1
1
1
1
1
1
1
1
1
1
1
1
1
1
1
1
1
1
1
1
1
1
1
1.30582
2.47296
2.69639
2.69734
2.70113
2.70487
2.70894
2.7129
2.71672
2.72068
2.72514
2.73021
2.73569
2.74092
2.74508
2.74802
2.75009
2.75179
2.75376
2.75635
2.75999
2.76444
2.76856
2.77161
2.77325
2.77424
2.77539
2.7778
2.78204
2.78727
2.79195
2.79519
2.79725
2.79904
2.80121
2.80379
2.80614
2.80756
2.80797
2.808
2.80876
2.81091
2.81511
2.82197
2.8296
2.83511
2.83733
1
1
1
1
1
1
1
1
1
1
1
1
1
1
1
1
1
1
1
1
1
1
1
1
1
1
1
1
1
1
1
1
1
1
1
1
1
1
1
1
1
1
1
1
1
1
1
1
1
1.24451
2.44013
2.69485
2.69645
2.70071
2.70413
2.70757
2.71102
2.7146
2.71859
2.72331
2.72875
2.73458
2.74004
2.74424
2.7471
2.74907
2.7507
2.75262
2.7552
2.75889
2.76349
2.76781
2.77101
2.77273
2.77371
2.7748
2.77705
2.78108
2.78616
2.79078
2.79402
2.7961
2.7979
2.80006
2.80262
2.80495
2.80634
2.80675
2.8068
2.80759
2.80978
2.81403
2.82085
2.82839
2.83381
2.83593
1
1
1
1
1
1
1
1
1
1
1
1
1
1
1
1
1
1
1
1
1
1
1
1
1
1
1
1
1
1
1
1
1
1
1
1
1
1
1
1
1
1
1
1
1
1
1
1
1
1.17267
2.39608
2.69155
2.69517
2.70042
2.7036
2.70637
2.70917
2.7124
2.71642
2.72143
2.72723
2.73336
2.73902
2.74333
2.74623
2.7482
2.7498
2.75163
2.75417
2.75785
2.76253
2.76696
2.77029
2.77207
2.77305
2.77408
2.77615
2.77995
2.78486
2.78941
2.79268
2.7948
2.79661
2.79874
2.80125
2.80353
2.80489
2.80531
2.80539
2.80623
2.80849
2.81277
2.81956
2.827
2.83229
2.83429
1
1
1
1
1
1
1
1
1
1
1
1
1
1
1
1
1
1
1
1
1
1
1
1
1
1
1
1
1
1
1
1
1
1
1
1
1
1
1
1
1
1
1
1
1
1
1
1
1
1.09155
2.34802
2.69017
2.69519
2.7005
2.70332
2.70538
2.70763
2.71061
2.7147
2.71996
2.72604
2.7324
2.73825
2.74272
2.74565
2.74755
2.74897
2.75057
2.75293
2.75648
2.76117
2.76572
2.76924
2.77119
2.77225
2.77324
2.77515
2.77867
2.78336
2.78784
2.79114
2.79332
2.79514
2.79724
2.7997
2.80192
2.80324
2.80365
2.80376
2.80465
2.80699
2.81132
2.8181
2.82543
2.83055
2.83243
1
1
1
1
1
1
1
1
1
1
1
1
1
1
1
1
1
1
1
1
1
1
1
1
1
1
1
1
1
1
1
1
1
1
1
1
1
1
1
1
1
1
1
1
1
1
1
1
1
1.00472
2.2966
2.68899
2.69507
2.69928
2.70228
2.70417
2.70612
2.70885
2.71289
2.71822
2.72441
2.73089
2.73692
2.74161
2.74473
2.74678
2.74822
2.7497
2.7519
2.75524
2.75982
2.76441
2.76812
2.77026
2.77142
2.77238
2.77408
2.77728
2.78169
2.78607
2.7894
2.79164
2.79347
2.79553
2.79791
2.80006
2.80133
2.80173
2.80188
2.80283
2.80524
2.80964
2.81641
2.82364
2.82857
2.83031
1
1
1
1
1
1
1
1
1
1
1
1
1
1
1
1
1
1
1
1
1
1
1
1
1
1
1
1
1
1
1
1
1
1
1
1
1
1
1
1
1
1
1
1
1
1
1
1
1
1.00003
2.2341
2.68821
2.69624
2.69946
2.70236
2.70414
2.70597
2.7085
2.71228
2.71731
2.72326
2.72967
2.73583
2.74078
2.74415
2.74633
2.74772
2.749
2.75092
2.75393
2.75826
2.76279
2.76661
2.76895
2.77023
2.77119
2.77274
2.77563
2.77977
2.78404
2.78739
2.78971
2.79157
2.7936
2.7959
2.79798
2.79922
2.79961
2.79979
2.80077
2.80322
2.80769
2.81448
2.82165
2.82639
2.82802
1
1
1
1
1
1
1
1
1
1
1
1
1
1
1
1
1
1
1
1
1
1
1
1
1
1
1
1
1
1
1
1
1
1
1
1
1
1
1
1
1
1
1
1
1
1
1
1
1
1
2.15738
2.6831
2.69678
2.69965
2.70249
2.70434
2.70611
2.70839
2.71178
2.71633
2.72187
2.72808
2.73435
2.73965
2.74338
2.7458
2.74721
2.74834
2.74998
2.75259
2.75656
2.76095
2.76485
2.76743
2.7689
2.76992
2.77134
2.77392
2.77773
2.78181
2.78516
2.78755
2.78944
2.79143
2.79365
2.79568
2.7969
2.79731
2.79751
2.79847
2.80091
2.80541
2.81223
2.8194
2.824
2.82557
1
1
1
1
1
1
1
1
1
1
1
1
1
1
1
1
1
1
1
1
1
1
1
1
1
1
1
1
1
1
1
1
1
1
1
1
1
1
1
1
1
1
1
1
1
1
1
1
1
1
2.0656
2.66925
2.69461
2.69877
2.7024
2.70458
2.70637
2.70841
2.71128
2.7152
2.72018
2.72609
2.73244
2.73818
2.74243
2.74521
2.74671
2.74767
2.74899
2.75112
2.75457
2.75869
2.76259
2.76543
2.76718
2.76835
2.76971
2.77202
2.77548
2.77936
2.78271
2.78519
2.78713
2.78908
2.7912
2.79314
2.79434
2.79475
2.79497
2.79588
2.79825
2.80274
2.80959
2.81682
2.8214
2.82298
1
1
1
1
1
1
1
1
1
1
1
1
1
1
1
1
1
1
1
1
1
1
1
1
1
1
1
1
1
1
1
1
1
1
1
1
1
1
1
1
1
1
1
1
1
1
1
1
1
1
1.95878
2.64742
2.68906
2.69564
2.70085
2.70384
2.70592
2.70784
2.71022
2.71345
2.71774
2.7232
2.72957
2.73584
2.74085
2.74425
2.74604
2.74691
2.74793
2.74955
2.75238
2.7561
2.75994
2.76306
2.76516
2.76658
2.76796
2.77001
2.77309
2.77671
2.78001
2.78257
2.78456
2.78645
2.78845
2.7903
2.7915
2.79195
2.79221
2.79306
2.79531
2.79971
2.80655
2.81388
2.81854
2.8202
1
1
1
1
1
1
1
1
1
1
1
1
1
1
1
1
1
1
1
1
1
1
1
1
1
1
1
1
1
1
1
1
1
1
1
1
1
1
1
1
1
1
1
1
1
1
1
1
1
1
1.83836
2.62072
2.68186
2.69061
2.69735
2.70134
2.70404
2.70622
2.70843
2.71117
2.7148
2.71965
2.72575
2.73237
2.7382
2.74243
2.74478
2.7457
2.7465
2.74765
2.7498
2.75302
2.75669
2.76006
2.7626
2.76438
2.76588
2.76777
2.77049
2.77383
2.77707
2.77971
2.78176
2.7836
2.78546
2.78717
2.78834
2.78883
2.78913
2.78993
2.79202
2.79627
2.80308
2.81054
2.8154
2.81721
1
1
1
1
1
1
1
1
1
1
1
1
1
1
1
1
1
1
1
1
1
1
1
1
1
1
1
1
1
1
1
1
1
1
1
1
1
1
1
1
1
1
1
1
1
1
1
1
1
1
1.71022
2.59015
2.67513
2.68419
2.69173
2.69655
2.7002
2.70314
2.70574
2.70839
2.71156
2.71573
2.7213
2.72795
2.73448
2.73967
2.7429
2.74417
2.74491
2.7457
2.74718
2.74977
2.75312
2.75663
2.7596
2.76183
2.76355
2.76535
2.76772
2.77072
2.77383
2.77652
2.77865
2.78045
2.78215
2.7837
2.78481
2.78537
2.78574
2.7865
2.78843
2.79247
2.79917
2.80675
2.81187
2.81387
1
1
1
1
1
1
1
1
1
1
1
1
1
1
1
1
1
1
1
1
1
1
1
1
1
1
1
1
1
1
1
1
1
1
1
1
1
1
1
1
1
1
1
1
1
1
1
1
1
1
1.56233
2.54496
2.67171
2.67813
2.68488
2.69008
2.69478
2.69864
2.70194
2.7049
2.70791
2.71152
2.71638
2.72269
2.72957
2.73563
2.73995
2.74198
2.7429
2.74351
2.74444
2.74638
2.74929
2.75278
2.75613
2.75885
2.7609
2.76269
2.76477
2.76743
2.77035
2.77306
2.77526
2.77703
2.77856
2.77989
2.78091
2.78149
2.78194
2.78269
2.78446
2.78828
2.79483
2.80252
2.80794
2.81014
1
1
1
1
1
1
1
1
1
1
1
1
1
1
1
1
1
1
1
1
1
1
1
1
1
1
1
1
1
1
1
1
1
1
1
1
1
1
1
1
1
1
1
1
1
1
1
1
1
1
1.37838
2.4754
2.6717
2.67243
2.67778
2.68285
2.68813
2.69289
2.69708
2.70067
2.70388
2.70719
2.71137
2.71701
2.72375
2.73034
2.73567
2.73878
2.74023
2.74094
2.74155
2.74291
2.74528
2.74862
2.75222
2.75543
2.75787
2.75975
2.76162
2.76393
2.76662
2.76929
2.77155
2.7733
2.77465
2.77575
2.77663
2.77723
2.77773
2.77848
2.78012
2.78368
2.79006
2.79778
2.80344
2.8058
1
1
1
1
1
1
1
1
1
1
1
1
1
1
1
1
1
1
1
1
1
1
1
1
1
1
1
1
1
1
1
1
1
1
1
1
1
1
1
1
1
1
1
1
1
1
1
1
1
1
1.17354
2.39298
2.6731
2.67004
2.67391
2.67816
2.68269
2.68721
2.69175
2.69602
2.69976
2.70308
2.7067
2.71147
2.71758
2.7242
2.73016
2.7344
2.73669
2.73782
2.73836
2.73932
2.74116
2.74418
2.74789
2.75149
2.75436
2.75643
2.75818
2.7602
2.76264
2.76521
2.7675
2.76922
2.77041
2.77124
2.77193
2.77249
2.77299
2.77375
2.77528
2.77859
2.78479
2.79253
2.79839
2.80087
1
1
1
1
1
1
1
1
1
1
1
1
1
1
1
1
1
1
1
1
1
1
1
1
1
1
1
1
1
1
1
1
1
1
1
1
1
1
1
1
1
1
1
1
1
1
1
1
1
1
1.0204
2.32529
2.67267
2.66935
2.67305
2.67649
2.68026
2.68428
2.6885
2.69265
2.69646
2.69978
2.70301
2.70691
2.71201
2.71801
2.72398
2.72899
2.7322
2.73403
2.73482
2.73559
2.73698
2.73958
2.74318
2.74701
2.75027
2.75261
2.75436
2.75617
2.75838
2.76082
2.76306
2.76475
2.76578
2.76638
2.76685
2.76731
2.7678
2.76856
2.76994
2.77296
2.77895
2.78662
2.79257
2.79507
1
1
1
1
1
1
1
1
1
1
1
1
1
1
1
1
1
1
1
1
1
1
1
1
1
1
1
1
1
1
1
1
1
1
1
1
1
1
1
1
1
1
1
1
1
1
1
1
1
1
1.0002
2.22629
2.67335
2.67347
2.67573
2.67867
2.68153
2.68467
2.68808
2.69166
2.69514
2.69818
2.70089
2.70387
2.70773
2.71266
2.71808
2.72319
2.72703
2.72959
2.73085
2.73166
2.73276
2.7349
2.73819
2.74202
2.74555
2.7482
2.75008
2.75179
2.7538
2.75606
2.75821
2.75982
2.76073
2.76111
2.76131
2.7616
2.76201
2.76269
2.76387
2.7666
2.77238
2.78
2.78602
2.78851
1
1
1
1
1
1
1
1
1
1
1
1
1
1
1
1
1
1
1
1
1
1
1
1
1
1
1
1
1
1
1
1
1
1
1
1
1
1
1
1
1
1
1
1
1
1
1
1
1
1
1
2.09268
2.66788
2.676
2.6775
2.6803
2.68307
2.68589
2.68873
2.69176
2.69483
2.69761
2.69998
2.70228
2.70511
2.70875
2.71309
2.71771
2.72172
2.72476
2.72655
2.72755
2.72853
2.73022
2.73304
2.73661
2.74022
2.74314
2.74523
2.74697
2.74887
2.75091
2.75288
2.7544
2.7552
2.75538
2.75533
2.75538
2.75566
2.7562
2.75713
2.75957
2.76501
2.77241
2.77836
2.78073
1
1
1
1
1
1
1
1
1
1
1
1
1
1
1
1
1
1
1
1
1
1
1
1
1
1
1
1
1
1
1
1
1
1
1
1
1
1
1
1
1
1
1
1
1
1
1
1
1
1
1
1.92546
2.63374
2.67402
2.67817
2.68156
2.68414
2.68655
2.689
2.69164
2.69446
2.69705
2.69926
2.70127
2.70354
2.70646
2.70981
2.71338
2.71689
2.71988
2.72209
2.72338
2.72434
2.72563
2.72785
2.73094
2.73436
2.73743
2.73976
2.74168
2.74351
2.7453
2.74707
2.74845
2.74912
2.74909
2.74879
2.74855
2.74856
2.74879
2.74939
2.75148
2.75653
2.7637
2.76961
2.77191
1
1
1
1
1
1
1
1
1
1
1
1
1
1
1
1
1
1
1
1
1
1
1
1
1
1
1
1
1
1
1
1
1
1
1
1
1
1
1
1
1
1
1
1
1
1
1
1
1
1
1
1.73047
2.57204
2.66298
2.67142
2.67718
2.68127
2.68492
2.68814
2.69116
2.69388
2.69631
2.69834
2.70016
2.70211
2.70449
2.70721
2.71012
2.71295
2.71551
2.71771
2.7192
2.72022
2.7212
2.72279
2.72517
2.72814
2.73114
2.7337
2.73581
2.73756
2.73919
2.74075
2.74194
2.74244
2.74221
2.74163
2.74104
2.74064
2.74056
2.74085
2.74249
2.74692
2.75354
2.75914
2.76113
1
1
1
1
1
1
1
1
1
1
1
1
1
1
1
1
1
1
1
1
1
1
1
1
1
1
1
1
1
1
1
1
1
1
1
1
1
1
1
1
1
1
1
1
1
1
1
1
1
1
1
1.47301
2.47211
2.65115
2.65914
2.66713
2.67279
2.67779
2.68275
2.68741
2.69131
2.69443
2.69681
2.69876
2.70069
2.70288
2.70524
2.70755
2.70972
2.71172
2.71365
2.71534
2.71624
2.71694
2.71791
2.71952
2.72182
2.72451
2.72711
2.72929
2.731
2.73252
2.73388
2.73485
2.73514
2.73471
2.7338
2.73276
2.73177
2.7311
2.73089
2.73179
2.73536
2.74143
2.74678
2.74873
1
1
1
1
1
1
1
1
1
1
1
1
1
1
1
1
1
1
1
1
1
1
1
1
1
1
1
1
1
1
1
1
1
1
1
1
1
1
1
1
1
1
1
1
1
1
1
1
1
1
1
1.17142
2.37379
2.64638
2.64337
2.6495
2.65756
2.66573
2.67324
2.67972
2.68527
2.68965
2.693
2.69571
2.6982
2.7007
2.7031
2.70523
2.70702
2.70861
2.71009
2.71149
2.7125
2.71292
2.7133
2.7141
2.71558
2.7177
2.72004
2.72213
2.72382
2.72525
2.72643
2.72712
2.72716
2.72652
2.72524
2.72363
2.72188
2.72035
2.71953
2.71982
2.72235
2.72718
2.73145
2.73246
1
1
1
1
1
1
1
1
1
1
1
1
1
1
1
1
1
1
1
1
1
1
1
1
1
1
1
1
1
1
1
1
1
1
1
1
1
1
1
1
1
1
1
1
1
1
1
1
1
1
1
1.00779
2.29614
2.64456
2.63792
2.64352
2.6493
2.65551
2.66238
2.66986
2.67653
2.68199
2.68647
2.69025
2.69369
2.69694
2.69986
2.70225
2.70407
2.70552
2.70681
2.70803
2.70887
2.70908
2.70899
2.70908
2.70971
2.71103
2.71275
2.71456
2.71611
2.71741
2.71835
2.71874
2.71851
2.71757
2.71586
2.71357
2.71094
2.70826
2.70607
2.70497
2.70569
2.70868
2.71185
2.713
1
1
1
1
1
1
1
1
1
1
1
1
1
1
1
1
1
1
1
1
1
1
1
1
1
1
1
1
1
1
1
1
1
1
1
1
1
1
1
1
1
1
1
1
1
1
1
1
1
1
1
1.00001
2.1576
2.64401
2.64303
2.64434
2.64648
2.65058
2.65578
2.66146
2.66722
2.67279
2.67782
2.6824
2.68679
2.69104
2.69484
2.69788
2.7001
2.70175
2.70311
2.70434
2.70524
2.70539
2.70498
2.70447
2.70431
2.70467
2.70554
2.70677
2.70798
2.70902
2.70962
2.70967
2.70916
2.70784
2.70558
2.7025
2.69876
2.69456
2.6905
2.68758
2.6865
2.687
2.6867
2.68357
1
1
1
1
1
1
1
1
1
1
1
1
1
1
1
1
1
1
1
1
1
1
1
1
1
1
1
1
1
1
1
1
1
1
1
1
1
1
1
1
1
1
1
1
1
1
1
1
1
1
1
1
1.97367
2.63343
2.64887
2.648
2.64929
2.65143
2.65349
2.65627
2.66013
2.66456
2.66906
2.67363
2.67837
2.68323
2.68782
2.69166
2.69455
2.69671
2.69845
2.69997
2.70114
2.70148
2.70103
2.70016
2.69924
2.69867
2.69871
2.6991
2.69969
2.70025
2.7004
2.70008
2.69913
2.6973
2.69436
2.69034
2.68529
2.6794
2.67304
2.66692
2.66103
2.65478
2.64817
2.64139
1
1
1
1
1
1
1
1
1
1
1
1
1
1
1
1
1
1
1
1
1
1
1
1
1
1
1
1
1
1
1
1
1
1
1
1
1
1
1
1
1
1
1
1
1
1
1
1
1
1
1
1
1.72969
2.56298
2.64614
2.64847
2.65197
2.65343
2.6544
2.65581
2.65767
2.66006
2.66296
2.66631
2.67023
2.67476
2.6795
2.68381
2.6873
2.69008
2.69243
2.69445
2.69616
2.69693
2.69666
2.69571
2.69431
2.69295
2.6921
2.69164
2.69147
2.69132
2.6909
2.69001
2.68844
2.68593
2.68219
2.67709
2.67054
2.66252
2.65298
2.64217
2.63034
2.61733
2.60504
2.60043
1
1
1
1
1
1
1
1
1
1
1
1
1
1
1
1
1
1
1
1
1
1
1
1
1
1
1
1
1
1
1
1
1
1
1
1
1
1
1
1
1
1
1
1
1
1
1
1
1
1
1
1
1.39685
2.43569
2.64362
2.64398
2.64752
2.65049
2.65294
2.65478
2.65639
2.65801
2.65966
2.66156
2.66405
2.66738
2.67135
2.67538
2.67901
2.68216
2.68494
2.68755
2.68998
2.69143
2.69152
2.69075
2.68923
2.68739
2.68579
2.6845
2.6835
2.68254
2.68133
2.67965
2.67726
2.67387
2.66914
2.66281
2.65452
2.64407
2.63106
2.61514
2.5945
2.56354
2.50339
2.3671
1
1
1
1
1
1
1
1
1
1
1
1
1
1
1
1
1
1
1
1
1
1
1
1
1
1
1
1
1
1
1
1
1
1
1
1
1
1
1
1
1
1
1
1
1
1
1
1
1
1
1
1
1.047
2.31061
2.63813
2.63487
2.63736
2.64231
2.64781
2.65139
2.65386
2.65574
2.65731
2.65871
2.6602
2.66217
2.6648
2.66781
2.67086
2.67375
2.67654
2.67945
2.68242
2.68467
2.68541
2.68492
2.68356
2.68158
2.67948
2.67751
2.67569
2.67388
2.67178
2.66914
2.66573
2.66128
2.65538
2.64763
2.63747
2.62436
2.60744
2.58491
2.55316
2.50224
2.42569
2.21637
1
1
1
1
1
1
1
1
1
1
1
1
1
1
1
1
1
1
1
1
1
1
1
1
1
1
1
1
1
1
1
1
1
1
1
1
1
1
1
1
1
1
1
1
1
1
1
1
1
1
1
1
1.00049
2.18507
2.61872
2.62074
2.62704
2.63351
2.63992
2.64493
2.64882
2.65177
2.65405
2.65576
2.65709
2.65841
2.66
2.66184
2.66384
2.66597
2.6682
2.67085
2.67389
2.67668
2.67814
2.67803
2.67705
2.67522
2.67294
2.67052
2.66803
2.66542
2.6624
2.65872
2.65413
2.64842
2.64116
2.63184
2.61972
2.60393
2.58304
2.5549
2.51387
2.45901
2.34085
2.13511
1
1
1
1
1
1
1
1
1
1
1
1
1
1
1
1
1
1
1
1
1
1
1
1
1
1
1
1
1
1
1
1
1
1
1
1
1
1
1
1
1
1
1
1
1
1
1
1
1
1
1
1
0.999996
1.9823
2.59958
2.62343
2.62718
2.63055
2.63366
2.63778
2.642
2.64578
2.64903
2.6516
2.65346
2.65489
2.65612
2.65722
2.65827
2.65944
2.66074
2.66259
2.66506
2.66778
2.66967
2.67008
2.66949
2.668
2.66581
2.66319
2.66026
2.65695
2.65308
2.64838
2.64258
2.63551
2.62675
2.61578
2.60166
2.58343
2.55908
2.52661
2.48002
2.41193
2.28744
2.10395
1
1
1
1
1
1
1
1
1
1
1
1
1
1
1
1
1
1
1
1
1
1
1
1
1
1
1
1
1
1
1
1
1
1
1
1
1
1
1
1
1
1
1
1
1
1
1
1
1
1
1
1
0.999999
1.68916
2.52813
2.62274
2.62465
2.62622
2.6287
2.63185
2.63527
2.6389
2.64254
2.64587
2.64857
2.65063
2.65217
2.6532
2.65381
2.65423
2.65467
2.6555
2.65692
2.65887
2.66058
2.66126
2.66093
2.6598
2.65785
2.65527
2.65214
2.64838
2.6438
2.6382
2.63126
2.62284
2.61252
2.59988
2.58384
2.56338
2.53637
2.50012
2.45043
2.37545
2.26117
2.11391
1
1
1
1
1
1
1
1
1
1
1
1
1
1
1
1
1
1
1
1
1
1
1
1
1
1
1
1
1
1
1
1
1
1
1
1
1
1
1
1
1
1
1
1
1
1
1
1
1
1
1
1
1
1.30887
2.40435
2.61681
2.61515
2.61804
2.62285
2.62632
2.62929
2.63237
2.63573
2.63921
2.64244
2.64518
2.64734
2.6488
2.64948
2.64957
2.64951
2.6495
2.64978
2.65058
2.65149
2.65192
2.65162
2.65067
2.64897
2.64656
2.64343
2.63945
2.63438
2.62804
2.62012
2.61049
2.59871
2.58447
2.5667
2.54434
2.51535
2.47672
2.42518
2.35071
2.25218
2.12964
1
1
1
1
1
1
1
1
1
1
1
1
1
1
1
1
1
1
1
1
1
1
1
1
1
1
1
1
1
1
1
1
1
1
1
1
1
1
1
1
1
1
1
1
1
1
1
1
1
1
1
1
1
1.0259
2.2772
2.61687
2.61197
2.6132
2.61704
2.62046
2.62326
2.62599
2.62897
2.63226
2.63562
2.63869
2.64139
2.64342
2.64459
2.64492
2.64473
2.64425
2.64371
2.64342
2.64322
2.64285
2.64213
2.64096
2.63927
2.63697
2.63392
2.62992
2.62462
2.6178
2.60916
2.59854
2.58555
2.56988
2.55064
2.52676
2.49649
2.45692
2.40461
2.33558
2.25019
2.1441
1
1
1
1
1
1
1
1
1
1
1
1
1
1
1
1
1
1
1
1
1
1
1
1
1
1
1
1
1
1
1
1
1
1
1
1
1
1
1
1
1
1
1
1
1
1
1
1
1
1
1
1
1
1.00012
2.089
2.59312
2.60309
2.60732
2.61091
2.61397
2.61685
2.61961
2.62246
2.62552
2.62867
2.63169
2.63454
2.63694
2.6387
2.63958
2.63953
2.63901
2.63808
2.63698
2.6358
2.63444
2.6329
2.63115
2.62914
2.62673
2.62369
2.61972
2.61438
2.60735
2.59827
2.58696
2.57307
2.55627
2.53588
2.5109
2.47982
2.44055
2.38897
2.32609
2.25163
2.15908
1
1
1
1
1
1
1
1
1
1
1
1
1
1
1
1
1
1
1
1
1
1
1
1
1
1
1
1
1
1
1
1
1
1
1
1
1
1
1
1
1
1
1
1
1
1
1
1
1
1
1
1
1
0.999999
1.80401
2.54663
2.60274
2.60376
2.60631
2.6088
2.61128
2.61379
2.61641
2.6192
2.62197
2.62469
2.62737
2.62981
2.6319
2.63332
2.6337
2.63336
2.63243
2.63097
2.62913
2.62693
2.62446
2.62186
2.61916
2.61628
2.61296
2.60886
2.60349
2.59642
2.58722
2.57559
2.56124
2.54373
2.52258
2.49688
2.46555
2.42708
2.37774
2.32084
2.25426
2.17375
1
1
1
1
1
1
1
1
1
1
1
1
1
1
1
1
1
1
1
1
1
1
1
1
1
1
1
1
1
1
1
1
1
1
1
1
1
1
1
1
1
1
1
1
1
1
1
1
1
1
1
1
1
1
1.40598
2.42845
2.59734
2.59684
2.59989
2.60325
2.60593
2.60835
2.61078
2.61325
2.61561
2.61794
2.62028
2.6225
2.62455
2.62623
2.62706
2.62693
2.6262
2.62475
2.62262
2.61991
2.61673
2.61331
2.60976
2.60612
2.6022
2.59772
2.59217
2.58507
2.57591
2.56429
2.54985
2.53213
2.51067
2.48464
2.45381
2.41592
2.36969
2.31836
2.25746
2.18765
1
1
1
1
1
1
1
1
1
1
1
1
1
1
1
1
1
1
1
1
1
1
1
1
1
1
1
1
1
1
1
1
1
1
1
1
1
1
1
1
1
1
1
1
1
1
1
1
1
1
1
1
1
1
1.04446
2.28605
2.59919
2.59411
2.59501
2.59735
2.59988
2.60234
2.60477
2.60708
2.60922
2.61127
2.61331
2.61526
2.61708
2.61869
2.61972
2.61977
2.61925
2.61797
2.61587
2.61304
2.60953
2.60554
2.60121
2.5967
2.59192
2.58672
2.58068
2.57336
2.56422
2.55278
2.53858
2.5211
2.49986
2.47403
2.44421
2.4067
2.36411
2.31785
2.26127
2.20022
1
1
1
1
1
1
1
1
1
1
1
1
1
1
1
1
1
1
1
1
1
1
1
1
1
1
1
1
1
1
1
1
1
1
1
1
1
1
1
1
1
1
1
1
1
1
1
1
1
1
1
1
1
1
1.00038
2.08991
2.56995
2.58186
2.58864
2.59187
2.5939
2.59617
2.59853
2.60076
2.60273
2.60458
2.60639
2.6081
2.60963
2.61098
2.61195
2.61208
2.61166
2.61056
2.60864
2.60592
2.6024
2.59817
2.59331
2.58804
2.58238
2.57631
2.56953
2.56174
2.55244
2.54114
2.5273
2.51031
2.48973
2.46473
2.43591
2.39947
2.36081
2.31775
2.26473
2.21124
1
1
1
1
1
1
1
1
1
1
1
1
1
1
1
1
1
1
1
1
1
1
1
1
1
1
1
1
1
1
1
1
1
1
1
1
1
1
1
1
1
1
1
1
1
1
1
1
1
1
1
1
1
1
0.999998
1.75451
2.50957
2.58161
2.58411
2.58547
2.58784
2.59026
2.59256
2.59456
2.59632
2.59795
2.59952
2.601
2.60227
2.60332
2.60406
2.6041
2.60368
2.60264
2.60087
2.59833
2.59498
2.59078
2.58573
2.58
2.57364
2.56674
2.5591
2.5506
2.54085
2.52948
2.51592
2.49951
2.47981
2.45602
2.42816
2.39434
2.35878
2.31728
2.26884
2.22154
1
1
1
1
1
1
1
1
1
1
1
1
1
1
1
1
1
1
1
1
1
1
1
1
1
1
1
1
1
1
1
1
1
1
1
1
1
1
1
1
1
1
1
1
1
1
1
1
1
1
1
1
1
1
0.999999
1.29812
2.38295
2.57679
2.57313
2.57562
2.5798
2.58313
2.58579
2.58781
2.58956
2.59107
2.59246
2.59371
2.59476
2.59556
2.59609
2.59602
2.59555
2.59452
2.59283
2.59043
2.58723
2.58314
2.57811
2.57222
2.56548
2.55795
2.54958
2.54033
2.52992
2.51822
2.50472
2.48875
2.46987
2.44733
2.42102
2.39028
2.35658
2.31684
2.27415
2.23061
1
1
1
1
1
1
1
1
1
1
1
1
1
1
1
1
1
1
1
1
1
1
1
1
1
1
1
1
1
1
1
1
1
1
1
1
1
1
1
1
1
1
1
1
1
1
1
1
1
1
1
1
1
1
1
1.02186
2.24695
2.5663
2.56273
2.56671
2.57145
2.57535
2.57843
2.58074
2.58267
2.58419
2.58544
2.58643
2.58724
2.58781
2.58816
2.58803
2.58748
2.58642
2.58473
2.58233
2.57914
2.57512
2.57018
2.56434
2.55754
2.54974
2.5409
2.53104
2.51998
2.50773
2.49399
2.47819
2.45997
2.4387
2.41399
2.38545
2.35426
2.3176
2.27948
2.23775
1
1
1
1
1
1
1
1
1
1
1
1
1
1
1
1
1
1
1
1
1
1
1
1
1
1
1
1
1
1
1
1
1
1
1
1
1
1
1
1
1
1
1
1
1
1
1
1
1
1
1
1
1
1
1
1.00007
1.98431
2.53409
2.55719
2.56258
2.56601
2.5689
2.57118
2.57349
2.57556
2.57715
2.57832
2.57907
2.57962
2.57996
2.58018
2.58004
2.57948
2.57843
2.57674
2.5743
2.57103
2.56694
2.56201
2.55625
2.54955
2.54178
2.53281
2.52257
2.51103
2.49826
2.48416
2.46821
2.45054
2.43008
2.40636
2.3805
2.35244
2.31792
2.28252
2.24271
1
1
1
1
1
1
1
1
1
1
1
1
1
1
1
1
1
1
1
1
1
1
1
1
1
1
1
1
1
1
1
1
1
1
1
1
1
1
1
1
1
1
1
1
1
1
1
1
1
1
1
1
1
1
1
1
1.54861
2.44176
2.56108
2.56
2.56078
2.56253
2.56435
2.56629
2.56826
2.5699
2.57112
2.57175
2.57211
2.57225
2.57231
2.57215
2.57159
2.57057
2.56888
2.56637
2.56296
2.55871
2.55366
2.54789
2.54131
2.5337
2.52487
2.51463
2.50292
2.48981
2.47538
2.45914
2.44175
2.42147
2.39901
2.37606
2.34896
2.31624
2.28441
2.24833
1
1
1
1
1
1
1
1
1
1
1
1
1
1
1
1
1
1
1
1
1
1
1
1
1
1
1
1
1
1
1
1
1
1
1
1
1
1
1
1
1
1
1
1
1
1
1
1
1
1
1
1
1
1
1
1
1.08114
2.29072
2.56168
2.5541
2.55453
2.55599
2.55769
2.55921
2.5609
2.56247
2.56377
2.56448
2.56475
2.56474
2.56464
2.56439
2.5638
2.56277
2.56108
2.55855
2.55504
2.55062
2.54539
2.53949
2.53287
2.52541
2.51684
2.50687
2.49533
2.48219
2.46764
2.45115
2.43372
2.41375
2.39277
2.37063
2.34327
2.31479
2.28655
2.25355
1
1
1
1
1
1
1
1
1
1
1
1
1
1
1
1
1
1
1
1
1
1
1
1
1
1
1
1
1
1
1
1
1
1
1
1
1
1
1
1
1
1
1
1
1
1
1
1
1
1
1
1
1
1
1
1
1.00143
2.08417
2.5284
2.54011
2.54747
2.5509
2.5521
2.55291
2.55399
2.55521
2.55641
2.55722
2.55753
2.55747
2.55724
2.55682
2.5561
2.555
2.55326
2.55072
2.54718
2.54266
2.53725
2.53113
2.52437
2.51692
2.50856
2.49896
2.48785
2.47501
2.46061
2.44404
2.42677
2.4073
2.38692
2.3645
2.33879
2.31438
2.28709
2.25605
1
1
1
1
1
1
1
1
1
1
1
1
1
1
1
1
1
1
1
1
1
1
1
1
1
1
1
1
1
1
1
1
1
1
1
1
1
1
1
1
1
1
1
1
1
1
1
1
1
1
1
1
1
1
1
1
0.999991
1.6627
2.45039
2.54267
2.54287
2.54431
2.54626
2.54715
2.5478
2.54856
2.54945
2.55019
2.55053
2.55042
2.55007
2.54945
2.54854
2.54728
2.54544
2.54287
2.53934
2.5348
2.52929
2.52299
2.51602
2.50847
2.50021
2.49091
2.48033
2.468
2.45396
2.43785
2.421
2.40158
2.38141
2.35982
2.33652
2.31309
2.28581
2.25731
1
1
1
1
1
1
1
1
1
1
1
1
1
1
1
1
1
1
1
1
1
1
1
1
1
1
1
1
1
1
1
1
1
1
1
1
1
1
1
1
1
1
1
1
1
1
1
1
1
1
1
1
1
1
1
1
0.999998
1.12112
2.30249
2.54157
2.53382
2.53538
2.5379
2.53997
2.54106
2.54192
2.54266
2.54322
2.54348
2.54331
2.54283
2.54203
2.54093
2.53949
2.53751
2.5349
2.53141
2.52693
2.52142
2.51504
2.50793
2.50022
2.49193
2.48277
2.47267
2.46081
2.44737
2.43218
2.41541
2.3963
2.37738
2.35671
2.33388
2.30994
2.2843
2.25903
1
1
1
1
1
1
1
1
1
1
1
1
1
1
1
1
1
1
1
1
1
1
1
1
1
1
1
1
1
1
1
1
1
1
1
1
1
1
1
1
1
1
1
1
1
1
1
1
1
1
1
1
1
1
1
1
1
1.00338
2.1168
2.51027
2.51585
2.52328
2.52955
2.53205
2.53377
2.53509
2.53594
2.53639
2.53642
2.53612
2.53544
2.53447
2.5332
2.5316
2.52951
2.52688
2.52344
2.51905
2.51363
2.5073
2.50018
2.49238
2.48403
2.4749
2.46509
2.45352
2.44085
2.42643
2.40987
2.39216
2.37439
2.35333
2.33062
2.30796
2.28462
2.26036
1
1
1
1
1
1
1
1
1
1
1
1
1
1
1
1
1
1
1
1
1
1
1
1
1
1
1
1
1
1
1
1
1
1
1
1
1
1
1
1
1
1
1
1
1
1
1
1
1
1
1
1
1
1
1
1
1
0.999984
1.69392
2.44075
2.51865
2.51926
2.52108
2.52405
2.52665
2.52829
2.52925
2.52962
2.52936
2.52874
2.52779
2.52659
2.52515
2.52342
2.52126
2.51863
2.51528
2.51106
2.50581
2.49966
2.49265
2.4849
2.47651
2.46735
2.45759
2.44622
2.43415
2.42023
2.40461
2.38856
2.37057
2.34956
2.32874
2.30767
2.28501
2.26041
1
1
1
1
1
1
1
1
1
1
1
1
1
1
1
1
1
1
1
1
1
1
1
1
1
1
1
1
1
1
1
1
1
1
1
1
1
1
1
1
1
1
1
1
1
1
1
1
1
1
1
1
1
1
1
1
1
0.999996
1.13134
2.29505
2.52045
2.51149
2.51254
2.51495
2.51822
2.52031
2.52174
2.52241
2.52209
2.52128
2.52006
2.51858
2.51691
2.51504
2.51284
2.51026
2.50702
2.503
2.498
2.49211
2.48533
2.47775
2.46942
2.46024
2.45047
2.43927
2.4275
2.41407
2.39965
2.38425
2.36614
2.34688
2.32772
2.30716
2.28472
2.26027
1
1
1
1
1
1
1
1
1
1
1
1
1
1
1
1
1
1
1
1
1
1
1
1
1
1
1
1
1
1
1
1
1
1
1
1
1
1
1
1
1
1
1
1
1
1
1
1
1
1
1
1
1
1
1
1
1
0.999999
1.00397
2.09743
2.48981
2.49355
2.49964
2.5066
2.50977
2.51185
2.51368
2.51482
2.51462
2.51381
2.51241
2.51064
2.50866
2.50654
2.50422
2.50164
2.49851
2.4947
2.49001
2.48447
2.47799
2.47068
2.46252
2.45335
2.44357
2.43253
2.42097
2.40808
2.39436
2.3791
2.36207
2.34486
2.32606
2.30539
2.28396
2.26127
1
1
1
1
1
1
1
1
1
1
1
1
1
1
1
1
1
1
1
1
1
1
1
1
1
1
1
1
1
1
1
1
1
1
1
1
1
1
1
1
1
1
1
1
1
1
1
1
1
1
1
1
1
1
1
1
1
1
0.999985
1.63692
2.41077
2.49641
2.4984
2.50111
2.50209
2.50378
2.50567
2.50707
2.50714
2.50652
2.50513
2.50311
2.50076
2.49827
2.49567
2.49297
2.48989
2.48629
2.48189
2.47674
2.47062
2.4637
2.45568
2.44663
2.43694
2.42618
2.41488
2.40234
2.3889
2.37414
2.35855
2.34216
2.32314
2.30372
2.2843
2.2633
1
1
1
1
1
1
1
1
1
1
1
1
1
1
1
1
1
1
1
1
1
1
1
1
1
1
1
1
1
1
1
1
1
1
1
1
1
1
1
1
1
1
1
1
1
1
1
1
1
1
1
1
1
1
1
1
1
1
0.999996
1.1083
2.25857
2.49897
2.49261
2.49184
2.49313
2.49503
2.49684
2.49838
2.49908
2.4988
2.49775
2.49582
2.49328
2.49042
2.48741
2.48437
2.48118
2.47767
2.47354
2.4687
2.46306
2.45642
2.44865
2.43988
2.4304
2.42001
2.4089
2.39655
2.38351
2.36953
2.35468
2.33824
2.31986
2.30262
2.2848
2.26441
1
1
1
1
1
1
1
1
1
1
1
1
1
1
1
1
1
1
1
1
1
1
1
1
1
1
1
1
1
1
1
1
1
1
1
1
1
1
1
1
1
1
1
1
1
1
1
1
1
1
1
1
1
1
1
1
1
1
0.999999
1.0025
2.00058
2.46295
2.47479
2.48167
2.48549
2.48747
2.48876
2.49003
2.49104
2.49108
2.49041
2.48874
2.48622
2.48312
2.47968
2.47618
2.47267
2.46909
2.46513
2.46058
2.45527
2.44889
2.44158
2.43321
2.42403
2.41404
2.40305
2.39098
2.37855
2.36508
2.35034
2.3342
2.31728
2.30148
2.28443
2.2644
1
1
1
1
1
1
1
1
1
1
1
1
1
1
1
1
1
1
1
1
1
1
1
1
1
1
1
1
1
1
1
1
1
1
1
1
1
1
1
1
1
1
1
1
1
1
1
1
1
1
1
1
1
1
1
1
1
1
1
0.999992
1.45591
2.35838
2.47656
2.47559
2.47746
2.4788
2.47995
2.4812
2.48241
2.48293
2.48256
2.48131
2.47913
2.47613
2.47249
2.46853
2.46457
2.46069
2.45668
2.45227
2.44724
2.44126
2.43432
2.42635
2.41756
2.40794
2.39711
2.38556
2.37365
2.36025
2.34577
2.33062
2.31487
2.29951
2.2825
2.26336
1
1
1
1
1
1
1
1
1
1
1
1
1
1
1
1
1
1
1
1
1
1
1
1
1
1
1
1
1
1
1
1
1
1
1
1
1
1
1
1
1
1
1
1
1
1
1
1
1
1
1
1
1
1
1
1
1
1
1
0.999998
1.05037
2.19931
2.46891
2.46773
2.46915
2.46945
2.47048
2.47179
2.47309
2.47393
2.47385
2.47314
2.47155
2.46899
2.46553
2.46139
2.45707
2.4528
2.44855
2.44412
2.43923
2.43361
2.42705
2.41945
2.41112
2.40185
2.39136
2.3804
2.36877
2.35544
2.34161
2.32741
2.31226
2.29688
2.28003
2.26236
1
1
1
1
1
1
1
1
1
1
1
1
1
1
1
1
1
1
1
1
1
1
1
1
1
1
1
1
1
1
1
1
1
1
1
1
1
1
1
1
1
1
1
1
1
1
1
1
1
1
1
1
1
1
1
1
1
1
1
1
1.00043
1.80727
2.41568
2.45908
2.46163
2.46201
2.46316
2.46403
2.46456
2.46494
2.46494
2.4646
2.46357
2.46159
2.45858
2.45458
2.45011
2.44546
2.44085
2.43619
2.43127
2.42584
2.41964
2.41246
2.40455
2.39565
2.38566
2.37521
2.36372
2.35076
2.33778
2.32412
2.30918
2.29392
2.27804
2.26188
1
1
1
1
1
1
1
1
1
1
1
1
1
1
1
1
1
1
1
1
1
1
1
1
1
1
1
1
1
1
1
1
1
1
1
1
1
1
1
1
1
1
1
1
1
1
1
1
1
1
1
1
1
1
1
1
1
1
1
1
0.999999
1.18511
2.27959
2.46744
2.45734
2.4567
2.45591
2.4558
2.45518
2.45503
2.45519
2.45524
2.45485
2.4536
2.45123
2.44773
2.44342
2.43866
2.43378
2.42882
2.42373
2.4183
2.41231
2.40551
2.39798
2.38949
2.38006
2.37004
2.35878
2.34643
2.33406
2.32064
2.30601
2.29136
2.27665
2.26149
1
1
1
1
1
1
1
1
1
1
1
1
1
1
1
1
1
1
1
1
1
1
1
1
1
1
1
1
1
1
1
1
1
1
1
1
1
1
1
1
1
1
1
1
1
1
1
1
1
1
1
1
1
1
1
1
1
1
1
1
1
1.00758
2.06829
2.44149
2.44098
2.44396
2.44669
2.44739
2.44653
2.4462
2.44624
2.44633
2.44614
2.44532
2.44353
2.44062
2.43672
2.4321
2.42711
2.42191
2.41655
2.41098
2.40502
2.39846
2.39127
2.38324
2.37433
2.36471
2.35393
2.34228
2.33023
2.31696
2.30294
2.28918
2.27531
2.26049
1
1
1
1
1
1
1
1
1
1
1
1
1
1
1
1
1
1
1
1
1
1
1
1
1
1
1
1
1
1
1
1
1
1
1
1
1
1
1
1
1
1
1
1
1
1
1
1
1
1
1
1
1
1
1
1
1
1
1
1
1
0.999995
1.53214
2.35315
2.44191
2.44089
2.44031
2.43898
2.43838
2.43846
2.43841
2.43829
2.43793
2.43715
2.4357
2.43331
2.42991
2.42564
2.42077
2.41548