/*--------------------------------*- C++ -*----------------------------------*\
  =========                 |
  \\      /  F ield         | OpenFOAM: The Open Source CFD Toolbox
   \\    /   O peration     | Website:  https://openfoam.org
    \\  /    A nd           | Version:  7
     \\/     M anipulation  |
\*---------------------------------------------------------------------------*/
FoamFile
{
    version     2.0;
    format      ascii;
    class       volScalarField;
    location    "1.1";
    object      T;
}
// * * * * * * * * * * * * * * * * * * * * * * * * * * * * * * * * * * * * * //

dimensions      [0 0 0 1 0 0 0];

internalField   nonuniform List<scalar> 
25200
(
1
1
1
1
1
1
1
1
1
1
1
1
1
1
1
1
1
1
1
1
1
1
1
1
1
1
1
1
1
1
1
1
1
2.07369
2.73583
2.77908
2.7793
2.78188
2.78129
2.7795
2.77747
2.77896
2.78681
2.80288
2.8216
2.83522
2.84125
2.84237
2.84369
2.84755
2.85513
2.86459
2.87344
2.88124
2.88913
2.90252
2.93435
2.9866
3.03652
3.057
1
1
1
1
1
1
1
1
1
1
1
1
1
1
1
1
1
1
1
1
1
1
1
1
1
1
1
1
1
1
1
1
1
2.06495
2.73465
2.77838
2.77909
2.78128
2.7808
2.77908
2.77706
2.77848
2.78638
2.80266
2.82159
2.83536
2.84123
2.84219
2.84334
2.84714
2.85478
2.86428
2.8731
2.88085
2.88866
2.90217
2.93429
2.98656
3.03613
3.05646
1
1
1
1
1
1
1
1
1
1
1
1
1
1
1
1
1
1
1
1
1
1
1
1
1
1
1
1
1
1
1
1
1
2.04271
2.73245
2.77728
2.77782
2.77971
2.77936
2.77783
2.77594
2.77741
2.78558
2.80232
2.82155
2.83546
2.84095
2.84167
2.84268
2.84655
2.85436
2.86388
2.87258
2.88021
2.88813
2.90228
2.93505
2.98725
3.03589
3.05549
1
1
1
1
1
1
1
1
1
1
1
1
1
1
1
1
1
1
1
1
1
1
1
1
1
1
1
1
1
1
1
1
1
2.01073
2.72831
2.77545
2.7756
2.7771
2.7768
2.77553
2.77396
2.7757
2.78449
2.80188
2.82127
2.8351
2.84005
2.84056
2.84154
2.84559
2.85359
2.86309
2.87159
2.87902
2.88719
2.90231
2.93602
2.9883
3.03587
3.05458
1
1
1
1
1
1
1
1
1
1
1
1
1
1
1
1
1
1
1
1
1
1
1
1
1
1
1
1
1
1
1
1
1
1.96846
2.72247
2.77283
2.77245
2.77367
2.7732
2.77196
2.77083
2.77314
2.78305
2.80137
2.82071
2.83408
2.83831
2.83869
2.8398
2.84417
2.85241
2.86186
2.87008
2.87731
2.88583
2.90193
2.93659
2.98915
3.03592
3.05376
1
1
1
1
1
1
1
1
1
1
1
1
1
1
1
1
1
1
1
1
1
1
1
1
1
1
1
1
1
1
1
1
1
1.91324
2.71375
2.76944
2.76846
2.76936
2.76847
2.76673
2.76618
2.76955
2.78144
2.8011
2.82027
2.83261
2.8358
2.83597
2.83725
2.84208
2.85068
2.86011
2.86804
2.8751
2.88391
2.90073
2.93625
2.98934
3.03584
3.05307
1
1
1
1
1
1
1
1
1
1
1
1
1
1
1
1
1
1
1
1
1
1
1
1
1
1
1
1
1
1
1
1
1
1.8432
2.69993
2.76544
2.76373
2.76391
2.76218
2.75978
2.75994
2.76541
2.7802
2.80125
2.82012
2.8309
2.83274
2.83257
2.83387
2.83908
2.84815
2.85773
2.86549
2.87242
2.88132
2.89843
2.93465
2.98856
3.03548
3.05256
1
1
1
1
1
1
1
1
1
1
1
1
1
1
1
1
1
1
1
1
1
1
1
1
1
1
1
1
1
1
1
1
1
1.7574
2.67903
2.76062
2.75789
2.75704
2.75405
2.75154
2.75304
2.76179
2.77971
2.8016
2.81984
2.8288
2.8293
2.82875
2.82987
2.83525
2.84477
2.85469
2.8625
2.86936
2.87807
2.89499
2.93152
2.98643
3.03443
3.05192
1
1
1
1
1
1
1
1
1
1
1
1
1
1
1
1
1
1
1
1
1
1
1
1
1
1
1
1
1
1
1
1
1
1.64761
2.64609
2.75422
2.75026
2.74836
2.7448
2.74393
2.7476
2.75991
2.78
2.80191
2.81868
2.82584
2.8255
2.82456
2.82552
2.83091
2.84069
2.85089
2.85884
2.86565
2.874
2.89046
2.92694
2.98278
3.03224
3.05063
1
1
1
1
1
1
1
1
1
1
1
1
1
1
1
1
1
1
1
1
1
1
1
1
1
1
1
1
1
1
1
1
1
1.51521
2.59672
2.74546
2.74102
2.73845
2.73657
2.73787
2.74526
2.76059
2.78146
2.80228
2.81674
2.82198
2.82109
2.81987
2.82073
2.82612
2.83594
2.84624
2.85435
2.86114
2.86919
2.88516
2.92128
2.97769
3.02849
3.04795
1
1
1
1
1
1
1
1
1
1
1
1
1
1
1
1
1
1
1
1
1
1
1
1
1
1
1
1
1
1
1
1
1
1.35781
2.52293
2.73562
2.73139
2.73017
2.73016
2.73449
2.74586
2.76325
2.78345
2.80175
2.81304
2.81633
2.81514
2.81404
2.81519
2.82093
2.83083
2.84098
2.84899
2.8556
2.8634
2.879
2.91467
2.97133
3.02309
3.04348
1
1
1
1
1
1
1
1
1
1
1
1
1
1
1
1
1
1
1
1
1
1
1
1
1
1
1
1
1
1
1
1
1
1.18452
2.43231
2.72863
2.72549
2.72454
2.72616
2.73414
2.74845
2.76637
2.78463
2.79979
2.80781
2.80943
2.80799
2.8072
2.80878
2.81518
2.82533
2.83522
2.84288
2.84915
2.85671
2.87204
2.90719
2.96369
3.01579
3.03661
1
1
1
1
1
1
1
1
1
1
1
1
1
1
1
1
1
1
1
1
1
1
1
1
1
1
1
1
1
1
1
1
1
1.01289
2.33501
2.72556
2.72036
2.719
2.72268
2.73382
2.7502
2.76763
2.78381
2.7954
2.80036
2.80096
2.79943
2.79911
2.80152
2.80894
2.81924
2.82889
2.83597
2.84161
2.84866
2.8637
2.89832
2.95455
3.00676
3.02777
1
1
1
1
1
1
1
1
1
1
1
1
1
1
1
1
1
1
1
1
1
1
1
1
1
1
1
1
1
1
1
1
1
1.00008
2.22073
2.72236
2.71605
2.71557
2.72155
2.73472
2.75134
2.76723
2.7807
2.78843
2.79104
2.79109
2.78979
2.79006
2.79348
2.80185
2.81236
2.82179
2.82826
2.83307
2.8395
2.85404
2.88784
2.94344
2.99555
3.01641
1
1
1
1
1
1
1
1
1
1
1
1
1
1
1
1
1
1
1
1
1
1
1
1
1
1
1
1
1
1
1
1
1
1
2.07492
2.71213
2.70912
2.70993
2.71798
2.73189
2.74789
2.76237
2.77329
2.77864
2.78045
2.78062
2.77955
2.78046
2.78502
2.79396
2.80478
2.81391
2.81951
2.82317
2.82853
2.8419
2.87434
2.92931
2.98193
3.00332
1
1
1
1
1
1
1
1
1
1
1
1
1
1
1
1
1
1
1
1
1
1
1
1
1
1
1
1
1
1
1
1
1
1
1.87441
2.66689
2.70325
2.70395
2.71083
2.72345
2.73824
2.75192
2.76247
2.76752
2.76947
2.76981
2.76914
2.77064
2.77614
2.78553
2.79656
2.80514
2.80957
2.81184
2.81582
2.82765
2.85824
2.912
2.96488
2.98632
1
1
1
1
1
1
1
1
1
1
1
1
1
1
1
1
1
1
1
1
1
1
1
1
1
1
1
1
1
1
1
1
1
1
1.59639
2.57419
2.69816
2.69573
2.70034
2.71002
2.72284
2.73616
2.74762
2.75386
2.7569
2.75808
2.7585
2.76113
2.76725
2.77737
2.78812
2.79543
2.79818
2.79883
2.80086
2.80977
2.83668
2.88848
2.94218
2.96588
1
1
1
1
1
1
1
1
1
1
1
1
1
1
1
1
1
1
1
1
1
1
1
1
1
1
1
1
1
1
1
1
1
1
1.26604
2.45348
2.69789
2.69294
2.69537
2.70044
2.70915
2.72089
2.73206
2.73995
2.74474
2.74731
2.74924
2.75271
2.75867
2.76851
2.77828
2.7841
2.7852
2.78421
2.78392
2.78935
2.81215
2.8612
2.91343
2.93271
1
1
1
1
1
1
1
1
1
1
1
1
1
1
1
1
1
1
1
1
1
1
1
1
1
1
1
1
1
1
1
1
1
1
1.02126
2.34741
2.69081
2.68559
2.68666
2.68904
2.69585
2.70591
2.71574
2.72363
2.72916
2.7334
2.73762
2.74303
2.74996
2.7597
2.76801
2.77188
2.77116
2.76808
2.76504
2.76636
2.78108
2.82014
2.86781
2.88694
1
1
1
1
1
1
1
1
1
1
1
1
1
1
1
1
1
1
1
1
1
1
1
1
1
1
1
1
1
1
1
1
1
1
1.00011
2.18871
2.68802
2.68584
2.68649
2.68893
2.69461
2.70221
2.70933
2.71519
2.71953
2.72369
2.72847
2.7342
2.74133
2.75011
2.75644
2.75833
2.75619
2.75058
2.74316
2.73865
2.74476
2.77371
2.82025
2.85573
1
1
1
1
1
1
1
1
1
1
1
1
1
1
1
1
1
1
1
1
1
1
1
1
1
1
1
1
1
1
1
1
1
1
1
1.95499
2.65293
2.68209
2.68434
2.68865
2.69456
2.70052
2.70529
2.70905
2.71186
2.71529
2.71976
2.72477
2.73149
2.73879
2.74311
2.74313
2.73973
2.73147
2.71964
2.70862
2.70379
2.70729
2.69447
2.60811
1
1
1
1
1
1
1
1
1
1
1
1
1
1
1
1
1
1
1
1
1
1
1
1
1
1
1
1
1
1
1
1
1
1
1
1.60897
2.54678
2.67317
2.67613
2.68292
2.68987
2.69581
2.69965
2.70203
2.70385
2.70659
2.71031
2.71443
2.71998
2.72535
2.72775
2.72661
2.72157
2.71079
2.69505
2.67668
2.65769
2.63165
2.59422
2.43733
1
1
1
1
1
1
1
1
1
1
1
1
1
1
1
1
1
1
1
1
1
1
1
1
1
1
1
1
1
1
1
1
1
1
1
1.18129
2.39559
2.66675
2.66533
2.66984
2.67718
2.68418
2.68897
2.69161
2.69372
2.69643
2.69921
2.70249
2.70625
2.70952
2.70994
2.70794
2.70138
2.68837
2.66935
2.64527
2.61494
2.57489
2.49961
2.32482
1
1
1
1
1
1
1
1
1
1
1
1
1
1
1
1
1
1
1
1
1
1
1
1
1
1
1
1
1
1
1
1
1
1
1
1.00702
2.2481
2.64298
2.64543
2.65144
2.65905
2.66704
2.67329
2.6771
2.68015
2.68342
2.68602
2.68855
2.69041
2.69155
2.69043
2.68702
2.67901
2.6645
2.64298
2.61535
2.57706
2.5288
2.42949
2.28121
1
1
1
1
1
1
1
1
1
1
1
1
1
1
1
1
1
1
1
1
1
1
1
1
1
1
1
1
1
1
1
1
1
1
1
1.00001
1.99781
2.61689
2.63464
2.6415
2.6475
2.65392
2.65985
2.66371
2.66648
2.66913
2.67119
2.67275
2.67305
2.67229
2.66978
2.66474
2.65519
2.63968
2.61672
2.58687
2.54598
2.48969
2.38949
2.26494
1
1
1
1
1
1
1
1
1
1
1
1
1
1
1
1
1
1
1
1
1
1
1
1
1
1
1
1
1
1
1
1
1
1
1
1
1.6035
2.52405
2.62504
2.62916
2.63591
2.64212
2.64761
2.65121
2.65333
2.65483
2.65571
2.65576
2.65484
2.65275
2.64867
2.64193
2.63098
2.61471
2.59137
2.56019
2.51891
2.45931
2.36993
2.26544
1
1
1
1
1
1
1
1
1
1
1
1
1
1
1
1
1
1
1
1
1
1
1
1
1
1
1
1
1
1
1
1
1
1
1
1
1.12151
2.36515
2.62649
2.62131
2.62384
2.63006
2.63585
2.64002
2.64176
2.64186
2.64119
2.63935
2.63693
2.63371
2.62839
2.62012
2.60786
2.59072
2.56743
2.53622
2.49528
2.43727
2.35897
2.26962
1
1
1
1
1
1
1
1
1
1
1
1
1
1
1
1
1
1
1
1
1
1
1
1
1
1
1
1
1
1
1
1
1
1
1
1
1.00291
2.17414
2.59361
2.60272
2.61209
2.61782
2.6231
2.62799
2.63059
2.6306
2.62902
2.62535
2.62114
2.6165
2.60992
2.60031
2.58679
2.56882
2.54555
2.51512
2.47566
2.42112
2.35475
2.27791
1
1
1
1
1
1
1
1
1
1
1
1
1
1
1
1
1
1
1
1
1
1
1
1
1
1
1
1
1
1
1
1
1
1
1
1
0.999996
1.80809
2.53339
2.59129
2.60125
2.60705
2.61097
2.61503
2.61779
2.61795
2.61627
2.61194
2.60655
2.60082
2.59341
2.58305
2.56857
2.54972
2.52612
2.49646
2.45929
2.40929
2.3527
2.28503
1
1
1
1
1
1
1
1
1
1
1
1
1
1
1
1
1
1
1
1
1
1
1
1
1
1
1
1
1
1
1
1
1
1
1
1
0.999999
1.28079
2.39792
2.59328
2.58861
2.59183
2.5959
2.59972
2.60322
2.60435
2.60308
2.59901
2.59311
2.58655
2.57857
2.56789
2.55304
2.53365
2.50962
2.48068
2.44519
2.40075
2.35113
2.29132
1
1
1
1
1
1
1
1
1
1
1
1
1
1
1
1
1
1
1
1
1
1
1
1
1
1
1
1
1
1
1
1
1
1
1
1
1
1.0169
2.22393
2.56896
2.57012
2.57593
2.5796
2.58351
2.58792
2.59026
2.58955
2.58611
2.5801
2.5728
2.56429
2.5536
2.53905
2.51986
2.49572
2.46753
2.43318
2.39406
2.34921
2.29631
1
1
1
1
1
1
1
1
1
1
1
1
1
1
1
1
1
1
1
1
1
1
1
1
1
1
1
1
1
1
1
1
1
1
1
1
1
1.00005
1.83496
2.50729
2.55485
2.56374
2.56815
2.57058
2.57402
2.57648
2.57592
2.57276
2.56678
2.55901
2.55007
2.53928
2.52535
2.5071
2.48376
2.45591
2.42353
2.38858
2.34738
2.30128
1
1
1
1
1
1
1
1
1
1
1
1
1
1
1
1
1
1
1
1
1
1
1
1
1
1
1
1
1
1
1
1
1
1
1
1
1
1
1.24992
2.36326
2.55707
2.55216
2.55425
2.55654
2.55892
2.56121
2.56086
2.55835
2.55295
2.54513
2.53578
2.52454
2.51116
2.49395
2.47218
2.44528
2.41557
2.38337
2.34533
2.30428
1
1
1
1
1
1
1
1
1
1
1
1
1
1
1
1
1
1
1
1
1
1
1
1
1
1
1
1
1
1
1
1
1
1
1
1
1
1
1.01295
2.16124
2.52722
2.53244
2.54022
2.54188
2.54355
2.54522
2.54495
2.543
2.53848
2.53086
2.52103
2.50918
2.49574
2.47964
2.45984
2.43519
2.40844
2.37814
2.34369
2.30632
1
1
1
1
1
1
1
1
1
1
1
1
1
1
1
1
1
1
1
1
1
1
1
1
1
1
1
1
1
1
1
1
1
1
1
1
1
1
1.00002
1.69597
2.44853
2.52551
2.52769
2.52717
2.52826
2.52967
2.52943
2.52772
2.52389
2.51649
2.50633
2.49399
2.48009
2.46477
2.44705
2.42528
2.40097
2.37288
2.3414
2.30611
1
1
1
1
1
1
1
1
1
1
1
1
1
1
1
1
1
1
1
1
1
1
1
1
1
1
1
1
1
1
1
1
1
1
1
1
1
1
0.999999
1.12199
2.28309
2.51876
2.51083
2.51264
2.51416
2.51502
2.51458
2.51309
2.50943
2.50221
2.49194
2.47933
2.46498
2.44965
2.43353
2.41465
2.39284
2.36702
2.33798
2.30512
1
1
1
1
1
1
1
1
1
1
1
1
1
1
1
1
1
1
1
1
1
1
1
1
1
1
1
1
1
1
1
1
1
1
1
1
1
1
1
1.00296
1.96826
2.4652
2.49013
2.50066
2.50379
2.50302
2.50134
2.49913
2.49503
2.48818
2.47834
2.466
2.45158
2.43608
2.42054
2.4035
2.38353
2.35973
2.33263
2.30232
1
1
1
1
1
1
1
1
1
1
1
1
1
1
1
1
1
1
1
1
1
1
1
1
1
1
1
1
1
1
1
1
1
1
1
1
1
1
1
0.999999
1.34406
2.33556
2.4936
2.4878
2.48931
2.48833
2.48614
2.48347
2.47931
2.47297
2.46396
2.45234
2.43849
2.42322
2.40778
2.39148
2.37274
2.35083
2.32595
2.29825
1
1
1
1
1
1
1
1
1
1
1
1
1
1
1
1
1
1
1
1
1
1
1
1
1
1
1
1
1
1
1
1
1
1
1
1
1
1
1
1
1.02429
2.1223
2.46403
2.46714
2.47006
2.47211
2.47144
2.46912
2.46491
2.4587
2.45032
2.43959
2.42674
2.41211
2.39652
2.37996
2.36154
2.34094
2.3182
2.29311
1
1
1
1
1
1
1
1
1
1
1
1
1
1
1
1
1
1
1
1
1
1
1
1
1
1
1
1
1
1
1
1
1
1
1
1
1
1
1
1
1.0001
1.57163
2.37199
2.45976
2.45376
2.45459
2.45538
2.45394
2.45059
2.44483
2.43687
2.42679
2.41471
2.4008
2.38528
2.36832
2.35013
2.33088
2.31038
2.28808
1
1
1
1
1
1
1
1
1
1
1
1
1
1
1
1
1
1
1
1
1
1
1
1
1
1
1
1
1
1
1
1
1
1
1
1
1
1
1
1
1
1.07466
2.18668
2.44428
2.43782
2.43774
2.43831
2.43787
2.43577
2.431
2.4236
2.41388
2.40223
2.38898
2.37403
2.35742
2.3397
2.32146
2.3027
2.2828
1
1
1
1
1
1
1
1
1
1
1
1
1
1
1
1
1
1
1
1
1
1
1
1
1
1
1
1
1
1
1
1
1
1
1
1
1
1
1
1
1
1.00098
1.6956
2.36
2.42891
2.42481
2.42303
2.42276
2.42132
2.41729
2.41031
2.40084
2.38946
2.37659
2.3621
2.34616
2.32937
2.31236
2.29519
2.27726
1
1
1
1
1
1
1
1
1
1
1
1
1
1
1
1
1
1
1
1
1
1
1
1
1
1
1
1
1
1
1
1
1
1
1
1
1
1
1
1
1
1
1.12219
2.1862
2.41804
2.41072
2.40895
2.40761
2.40613
2.40286
2.39672
2.38787
2.37696
2.36447
2.3505
2.33558
2.32026
2.30465
2.28856
2.2716
1
1
1
1
1
1
1
1
1
1
1
1
1
1
1
1
1
1
1
1
1
1
1
1
1
1
1
1
1
1
1
1
1
1
1
1
1
1
1
1
1
1
1.00269
1.72831
2.33479
2.39948
2.39583
2.39365
2.39125
2.38795
2.3825
2.37456
2.36452
2.3527
2.33941
2.32538
2.31111
2.29657
2.28139
2.2652
1
1
1
1
1
1
1
1
1
1
1
1
1
1
1
1
1
1
1
1
1
1
1
1
1
1
1
1
1
1
1
1
1
1
1
1
1
1
1
1
1
1
1
1.14152
2.16074
2.39015
2.38471
2.38107
2.37657
2.37225
2.36712
2.3604
2.35186
2.34136
2.32915
2.31582
2.3021
2.28831
2.27399
2.25854
1
1
1
1
1
1
1
1
1
1
1
1
1
1
1
1
1
1
1
1
1
1
1
1
1
1
1
1
1
1
1
1
1
1
1
1
1
1
1
1
1
1
1
1.0036
1.68597
2.29888
2.37081
2.36537
2.36231
2.35824
2.35314
2.34688
2.33931
2.33019
2.31938
2.30708
2.29386
2.28018
2.26585
2.25054
1
1
1
1
1
1
1
1
1
1
1
1
1
1
1
1
1
1
1
1
1
1
1
1
1
1
1
1
1
1
1
1
1
1
1
1
1
1
1
1
1
1
1
1.00001
1.12451
2.11394
2.35902
2.35425
2.34917
2.34386
2.33866
2.33297
2.32627
2.31847
2.30916
2.29806
2.28542
2.2717
2.25711
2.24179
1
1
1
1
1
1
1
1
1
1
1
1
1
1
1
1
1
1
1
1
1
1
1
1
1
1
1
1
1
1
1
1
1
1
1
1
1
1
1
1
1
1
1
1
1.00278
1.5725
2.2482
2.34019
2.33339
2.33008
2.32586
2.32111
2.31525
2.30805
2.29926
2.2888
2.27675
2.26338
2.24887
2.23341
1
1
1
1
1
1
1
1
1
1
1
1
1
1
1
1
1
1
1
1
1
1
1
1
1
1
1
1
1
1
1
1
1
1
1
1
1
1
1
1
1
1
1
1
1.00001
1.08034
2.03555
2.31635
2.32315
2.31874
2.31342
2.30804
2.30241
2.29589
2.28784
2.27804
2.2666
2.25377
2.23978
2.22481
1
1
1
1
1
1
1
1
1
1
1
1
1
1
1
1
1
1
1
1
1
1
1
1
1
1
1
1
1
1
1
1
1
1
1
1
1
1
1
1
1
1
1
1
1
1.0012
1.44639
2.18162
2.3111
2.30504
2.30107
2.29568
2.29001
2.28387
2.27671
2.26783
2.25703
2.24475
2.23148
2.21747
1
1
1
1
1
1
1
1
1
1
1
1
1
1
1
1
1
1
1
1
1
1
1
1
1
1
1
1
1
1
1
1
1
1
1
1
1
1
1
1
1
1
1
1
1
1
1.04459
1.88992
2.26484
2.29539
2.28799
2.28179
2.27549
2.26921
2.26259
2.25472
2.24497
2.23366
2.22151
2.20903
1
1
1
1
1
1
1
1
1
1
1
1
1
1
1
1
1
1
1
1
1
1
1
1
1
1
1
1
1
1
1
1
1
1
1
1
1
1
1
1
1
1
1
1
1
1
1.00047
1.28918
2.09902
2.28589
2.27597
2.27033
2.26321
2.25652
2.24974
2.24233
2.23369
2.22367
2.21264
2.20117
1
1
1
1
1
1
1
1
1
1
1
1
1
1
1
1
1
1
1
1
1
1
1
1
1
1
1
1
1
1
1
1
1
1
1
1
1
1
1
1
1
1
1
1
1
1
1
1.01658
1.65876
2.18984
2.26239
2.25436
2.24827
2.24195
2.23534
2.2284
2.22095
2.2126
2.20319
2.19295
1
1
1
1
1
1
1
1
1
1
1
1
1
1
1
1
1
1
1
1
1
1
1
1
1
1
1
1
1
1
1
1
1
1
1
1
1
1
1
1
1
1
1
1
1
1
1
1.00012
1.12785
1.96023
2.24322
2.24281
2.23848
2.23216
2.22503
2.21767
2.21028
2.2026
2.19421
2.18494
1
1
1
1
1
1
1
1
1
1
1
1
1
1
1
1
1
1
1
1
1
1
1
1
1
1
1
1
1
1
1
1
1
1
1
1
1
1
1
1
1
1
1
1
1
1
1
1
1.0032
1.40631
2.09636
2.2322
2.2225
2.21815
2.21207
2.20588
2.19932
2.19233
2.18469
2.17625
1
1
1
1
1
1
1
1
1
1
1
1
1
1
1
1
1
1
1
1
1
1
1
1
1
1
1
1
1
1
1
1
1
1
1
1
1
1
1
1
1
1
1
1
1
1
1
1
1.00001
1.03706
1.71363
2.15554
2.21319
2.20431
2.19832
2.19286
2.18712
2.18085
2.17391
2.16612
1
1
1
1
1
1
1
1
1
1
1
1
1
1
1
1
1
1
1
1
1
1
1
1
1
1
1
1
1
1
1
1
1
1
1
1
1
1
1
1
1
1
1
1
1
1
1
1
1
1.00041
1.16664
1.93733
2.19235
2.19465
2.19004
2.18457
2.17892
2.17278
2.16588
2.15818
1
1
1
1
1
1
1
1
1
1
1
1
1
1
1
1
1
1
1
1
1
1
1
1
1
1
1
1
1
1
1
1
1
1
1
1
1
1
1
1
1
1
1
1
1
1
1
1
1
1
1.00544
1.41058
2.04931
2.18344
2.17694
2.17292
2.16824
2.16242
2.15559
2.14801
1
1
1
1
1
1
1
1
1
1
1
1
1
1
1
1
1
1
1
1
1
1
1
1
1
1
1
1
1
1
1
1
1
1
1
1
1
1
1
1
1
1
1
1
1
1
1
1
1
1
1.00003
1.03958
1.66124
2.10826
2.1691
2.16081
2.15529
2.14945
2.14276
2.13571
1
1
1
1
1
1
1
1
1
1
1
1
1
1
1
1
1
1
1
1
1
1
1
1
1
1
1
1
1
1
1
1
1
1
1
1
1
1
1
1
1
1
1
1
1
1
1
1
1
1
1
1.00049
1.14292
1.86432
2.12747
2.15535
2.14702
2.13894
2.13175
2.12476
1
1
1
1
1
1
1
1
1
1
1
1
1
1
1
1
1
1
1
1
1
1
1
1
1
1
1
1
1
1
1
1
1
1
1
1
1
1
1
1
1
1
1
1
1
1
1
1
1
1
1
1
1.0043
1.33186
1.9648
2.13833
2.13577
2.12823
2.12154
2.11491
1
1
1
1
1
1
1
1
1
1
1
1
1
1
1
1
1
1
1
1
1
1
1
1
1
1
1
1
1
1
1
1
1
1
1
1
1
1
1
1
1
1
1
1
1
1
1
1
1
1
1
1
1.00002
1.02455
1.53174
2.03272
2.12264
2.11598
2.1096
2.10413
1
1
1
1
1
1
1
1
1
1
1
1
1
1
1
1
1
1
1
1
1
1
1
1
1
1
1
1
1
1
1
1
1
1
1
1
1
1
1
1
1
1
1
1
1
1
1
1
1
1
1
1
1
1.00026
1.08332
1.7078
2.06381
2.11026
2.10207
2.09505
1
1
1
1
1
1
1
1
1
1
1
1
1
1
1
1
1
1
1
1
1
1
1
1
1
1
1
1
1
1
1
1
1
1
1
1
1
1
1
1
1
1
1
1
1
1
1
1
1
1
1
1
1
1
1.00174
1.19142
1.84169
2.06727
2.09754
2.08835
1
1
1
1
1
1
1
1
1
1
1
1
1
1
1
1
1
1
1
1
1
1
1
1
1
1
1
1
1
1
1
1
1
1
1
1
1
1
1
1
1
1
1
1
1
1
1
1
1
1
1
1
1
1
1.00001
1.00795
1.34141
1.91431
2.07432
2.08019
1
1
1
1
1
1
1
1
1
1
1
1
1
1
1
1
1
1
1
1
1
1
1
1
1
1
1
1
1
1
1
1
1
1
1
1
1
1
1
1
1
1
1
1
1
1
1
1
1
1
1
1
1
1
1
1.00006
1.02783
1.49068
1.961
2.06595
1
1
1
1
1
1
1
1
1
1
1
1
1
1
1
1
1
1
1
1
1
1
1
1
1
1
1
1
1
1
1
1
1
1
1
1
1
1
1
1
1
1
1
1
1
1
1
1
1
1
1
1
1
1
1
1
1.00033
1.0715
1.61502
1.99072
1
1
1
1
1
1
1
1
1
1
1
1
1
1
1
1
1
1
1
1
1
1
1
1
1
1
1
1
1
1
1
1
1
1
1
1
1
1
1
1
1
1
1
1
1
1
1
1
1
1
1
1
1
1
1
1
1
1.00144
1.13891
1.71543
1
1
1
1
1
1
1
1
1
1
1
1
1
1
1
1
1
1
1
1
1
1
1
1
1
1
1
1
1
1
1
1
1
1
1
1
1
1
1
1
1
1
1
1
1
1
1
1
1
1
1
1
1
1
1
1
1
1.00001
1.00455
1.22584
1
1
1
1
1
1
1
1
1
1
1
1
1
1
1
1
1
1
1
1
1
1
1
1
1
1
1
1
1
1
1
1
1
1
1
1
1
1
1
1
1
1
1
1
1
1
1
1
1
1
1
1
1
1
1
1
1
1
1.00003
1.0118
1
1
1
1
1
1
1
1
1
1
1
1
1
1
1
1
1
1
1
1
1
1
1
1
1
1
1
1
1
1
1
1
1
1
1
1
1
1
1
1
1
1
1
1
1
1
1
1
1
1
1
1
1
1
1
1
1
1
1
1.0001
1
1
1
1
1
1
1
1
1
1
1
1
1
1
1
1
1
1
1
1
1
1
1
1
1
1
1
1
1
1
1
1
1
1
1
1
1
1
1
1
1
1
1
1
1
1
1
1
1
1
1
1
1
1
1
1
1
1
1
1
1
1
1
1
1
1
1
1
1
1
1
1
1
1
1
1
1
1
1
1
1
1
1
1
1
1
1
1
1
1
1
1
1
1
1
1
1
1
1
1
1
1
1
1
1
1
1
1
1
1
1
1
1
1
1
1
1
1
1
1
1
1
1
1
1
1
1
1
1
1
1
1
1
1
1
1
1
1
1
1
1
1
1
1
1
1
1
1
1
1
1
1
1
1
1
1
1
1
1
1
1
1
1
1
1
1
1
1
1
1
1
1
1
1
1
1
1
1
1
1
1
1
1
1
1
1
1
1
1
1
1
1
1
1
1
1
1
1
1
1
1
1
1
1
1
1
1
1
1
1
1
1
1
1
1
1
1
1
1
1
1
1
1
1
1
1
1
1
1
1
1
1
1
1
1
1
1
1
1
1
1
1
1
1
1
1
1
1
1
1
1
1
1
1
1
1
1
1
1
1
1
1
1
1
1
1
1
1
1
1
1
1
1
1
1
1
1
1
1
1
1
1
1
1
1
1
1
1
1
1
1
1
1
1
1
1
1
1
1
1
1
1
1
1
1
1
1
1
1
1
1
1
1
1
1
1
1
1
1
1
1
1
1
1
1
1
1
1
1
1
1
1
1
1
1
1
1
1
1
1
1
1
1
1
1
1
1
1
1
1
1
1
1
1
1
1
1
1
1
1
1
1
1
1
1
1
1
1
1
1
1
1
1
1
1
1
1
1
1
1
1
1
1
1
1
1
1
1
1
1
1
1
1
1
1
1
1
1
1
1
1
1
1
1
1
1
1
1
1
1
1
1
1
1
1
1
1
1
1
1
1
1
1
1
1
1
1
1
1
1
1
1
1
1
1
1
1
1
1
1
1
1
1
1
1
1
1
1
1
1
1
1
1
1
1
1
1
1
1
1
1
1
1
1
1
1
1
1
1
1
1
1
1
1
1
1
1
1
1
1
1
1
1
1
1
1
1
1
1
1
1
1
1
1
1
1
1
1
1
1
1
1
1
1
1
1
1
1
1
1
1
1
1
1
1
1
1
1
1
1
1
1
1
1
1
1
1
1
1
1
1
1
1
1
1
1
1
1
1
1
1
1
1
1
1
1
1
1
1
1
1
1
1
1
1
1
1
1
1
1
1
1
1
1
1
1
1
1
1
1
1
1
1
1
1
1
1
1
1
1
1
1
1
1
1
1
1
1
1
1
1
1
1
1
1
1
1
1
1
1
1
1
1
1
1
1
1
1
1
1
1
1
1
1
1
1
1
1
1
1
1
1
1
1
1
1
1
1
1
1
1
1
1
1
1
1
1
1
1
1
1
1
1
1
1
1
1
1
1
1
1
1
1
1
1
1
1
1
1
1
1
1
1
1
1
1
1
1
1
1
1
1
1
1
1
1
1
1
1
1
1
1
1
1
1
1
1
1
1
1
1
1
1
1
1
1
1
1
1
1
1
1
1
1
1
1
1
1
1
1
1
1
1
1
1
1
1
1
1
1
1
1
1
1
1
1
1
1
1
1
1
1
1
1
1
1
1
1
1
1
1
1
1
1
1
1
1
1
1
1
1
1
1
1
1
1
1
1
1
1
1
1
1
1
1
1
1
1
1
1
1
1
1
1
1
1
1
1
1
1
1
1
1
1
1
1
1
1
1
1
1
1
1
1
1
1
1
1
1
1
1
1
1
1
1
1
1
1
1
1
1
1
1
1
1
1
1
1
1
1
1
1
1
1
1
1
1
1
1
1
1
1
1
1
1
1
1
1
1
1
1
1
1
1
1
1
1
1
1
1
1
1
1
1
1
1
1
1
1
1
1
1
1
1
1
1
1
1
1
1
1
1
1
1
1
1
1
1
1
1
1
1
1
1
1
1
1
1
1
1
1
1
1
1
1
1
1
1
1
1
1
1
1
1
1
1
1
1
1
1
1
1
1
1
1
1
1
1
1
1
1
1
1
1
1
1
1
1
1
1
1
1
1
1
1
1
1
1
1
1
1
1
1
1
1
1
1
1
1
1
1
1
1
1
1
1
1
1
1
1
1
1
1
1
1
1
1
1
1
1
1
1
1
1
1
1
1
1
1
1
1
1
1
1
1
1
1
1
1
1
1
1
1
1
1
1
1
1
1
1
1
1
1
1
1
1
1
1
1
1
1
1
1
1
1
1
1
1
1
1
1
1
1
1
1
1
1
1
1
1
1
1
1
1
1
1
1
1
1
1
1
1
1
1
1
1
1
1
1
1
1
1
1
1
1
1
1
1
1
1
1
1
1
1
1
1
1
1
1
1
1
1
1
1
1
1
1
1
1
1
1
1
1
1
1
1
1
1
1
1
1
1
1
1
1
1
1
1
1
1
1
1
1
1
1
1
1
1
1
1
1
1
1
1
1
1
1
1
1
1
1
1
1
1
1
1
1
1
1
1
1
1
1
1
1
1
1
1
1
1
1
1
1
1
1
1
1
1
1
1
1
1
1
1
1
1
1
1
1
1
1
1
1
1
1
1
1
1
1
1
1
1
1
1
1
1
1
1
1
1
1
1
1
1
1
1
1
1
1
1
1
1
1
1
1
1
1
1
1
1
1
1
1
1
1
1
1
1
1
1
1
1
1
1
1
1
1
1
1
1
1
1
1
1
1
1
1
1
1
1
1
1
1
1
1
1
1
1
1
1
1
1
1
1
1
1
1
1
1
1
1
1
1
1
1
1
1
1
1
1
1
1
1
1
1
1
1
1
1
1
1
1
1
1
1
1
1
1
1
1
1
1
1
1
1
1
1
1
1
1
1
1
1
1
1
1
1
1
1
1
1
1
1
1
1
1
1
1
1
1
1
1
1
1
1
1
1
1
1
1
1
1
1
1
1
1
1
1
1
1
1
1
1
1
1
1
1
1
1
1
1
1
1
1
1
1
1
1
1
1
1
1
1
1
1
1
1
1
1
1
1
1
1
1
1
1
1
1
1
1
1
1
1
1
1
1
1
1
1
1
1
1
1
1
1
1
1
1
1
1
1
1
1
1
1
1
1
1
1
1
1
1
1
1
1
1
1
1
1
1
1
1
1
1
1
1
1
1
1
1
1
1
1
1
1
1
1
1
1
1
1
1
1
1
1
1
1
1
1
1
1
1
1
1
1
1
1
1
1
1
1
1
1
1
1
1
1
1
1
1
1
1
1
1
1
1
1
1
1
1
1
1
1
1
1
1
1
1
1
1
1
1
1
1
1
1
1
1
1
1
1
1
1
1
1
1
1
1
1
1
1
1
1
1
1
1
1
1
1
1
1
1
1
1
1
1
1
1
1
1
1
1
1
1
1
1
1
1
1
1
1
1
1
1
1
1
1
1
1
1
1
1
1
1
1
1
1
1
1
1
1
1
1
1
1
1
1
1
1
1
1
1
1
1
1
1
1
1
1
1
1
1
1
1
1
1
1
1
1
1
1
1
1
1
1
1
1
1
1
1
1
1
1
1
1
1
1
1
1
1
1
1
1
1
1
1
1
1
1
1
1
1
1
1
1
1
1
1
1
1
1
1
1
1
1
1
1
1
1
1
1
1
1
1
1
1
1
1
1
1
1
1
1
1
1
1
1
1
1
1
1
1
1
1
1
1
1
1
1
1
1
1
1
1
1
1
1
1
1
1
1
1
1
1
1
1
1
1
1
1
1
1
1
1
1
1
1
1
1
1
1
1
1
1
1
1
1
1
1
1
1
1
1
1
1
1
1
1
1
1
1
1
1
1
1
1
1
1
1
1
1
1
1
1
1
1
1
1
1
1
1
1
1
1
1
1
1
1
1
1
1.66918
0.877916
0.643909
0.936405
1.0332
1.14795
1.26804
1.35339
1.31533
1.23321
1.23069
1.31233
1.44402
1.58329
1.66267
1.68059
1.67793
1.66607
1.65911
1.67006
1.72089
1.73741
1.73611
1.73176
1.7372
1.75754
1.76762
1.77406
1.78448
1.80522
1.825
1.82149
1.82148
1.82259
1.82105
1.82034
1.81581
1.80836
1.80775
1.81163
1.82064
1.82451
1.82635
1.82761
1.82817
1.82788
1.82615
1.82691
1.83162
1.83226
1.82898
1.82322
1.81725
1.81347
1.81301
1.81447
1.8204
1.83166
1.84041
1.84336
1.84375
1.84264
1.84131
1.84082
1.84151
1.84638
1.85161
1.852
1.85084
1.84745
1.84256
1.83887
1.83752
1.83738
1.83759
1.83715
1.83331
1.82645
1.8189
1.81272
1.81066
1.81022
1.81038
1.81343
1.81425
1.8146
1.81508
1.81483
1.81332
1.81298
1.8157
1.81998
1.823
1.82341
1.82311
1.82244
1.82056
1.8174
1.81445
1.81303
1.8124
1.81151
1.8102
1.80953
1.80925
1.80907
1.80841
1.80802
1.80854
1.8074
1.80617
1.80643
1.80698
1.80684
1.80469
1.80051
1.79827
1.79792
1.79788
1.79839
1.79929
1.79938
1.79891
1.79612
1.79014
1.78562
1.78384
1.7832
1.78272
1.78273
1.78352
1.78393
1.7835
1.78112
1.7763
1.77225
1.77138
1.77148
1.77223
1.77415
1.77673
1.77866
1.77994
1.78159
1.7833
1.78441
1.78538
1.78724
1.7897
1.79109
1.79177
1.79251
1.79235
1.78864
1.78453
1.78418
1.7844
1.78425
1.78365
1.7826
1.78202
1.78306
1.78526
1.7854
1.78599
1.78795
1.7901
1.79063
1.79002
1.78678
1.78168
1.77751
1.77383
1.76982
1.76552
1.76164
1.75939
1.75894
1.7591
1.76055
1.76343
1.76747
1.76991
1.77102
1.77239
1.77388
1.7743
1.77258
1.77032
1.77054
1.77271
1.77604
1.77935
1.78292
1.78637
1.79015
1.79437
1.79757
1.80042
1.80253
1.80242
1.80067
1.80172
1.80389
1.80459
1.80481
1.80556
1.80863
1.81149
1.8116
1.81154
1.81112
1.80956
1.80659
1.80271
1.79795
1.79541
1.79564
1.79637
1.79855
1.8036
1.81051
1.81584
1.81842
1.82023
1.82084
1.81891
1.81531
1.81467
1.81589
1.81884
1.82264
1.82726
1.83332
1.83927
1.84175
1.84254
1.84269
1.8413
1.83854
1.92236
1.50445
1.27977
1.1445
1.09171
1.10755
1.18468
1.20737
1.16731
1.10273
1.10224
1.12396
1.1766
1.25041
1.29748
1.31509
1.3413
1.39447
1.42499
1.45281
1.50229
1.55863
1.60562
1.63472
1.64715
1.65554
1.66677
1.67715
1.69273
1.72392
1.7468
1.74525
1.74833
1.75327
1.75466
1.75721
1.75895
1.7586
1.76123
1.77063
1.776
1.77931
1.78174
1.78425
1.78692
1.78984
1.79095
1.79194
1.79386
1.79375
1.79046
1.78597
1.78371
1.78342
1.78396
1.78731
1.79447
1.80436
1.81222
1.81558
1.81629
1.81561
1.81504
1.81509
1.81604
1.82109
1.82766
1.82912
1.8285
1.82605
1.82158
1.81794
1.81667
1.81617
1.81529
1.81372
1.81082
1.80563
1.79918
1.7937
1.79111
1.7906
1.79065
1.79254
1.79477
1.79656
1.79846
1.79998
1.8005
1.8002
1.80032
1.80242
1.80433
1.80504
1.80474
1.80385
1.80286
1.80151
1.79985
1.79896
1.79859
1.79806
1.79696
1.79509
1.79334
1.79242
1.79148
1.79013
1.78962
1.79049
1.7904
1.79114
1.79311
1.79526
1.796
1.79547
1.79269
1.78854
1.78585
1.78528
1.78537
1.78607
1.78611
1.78465
1.78153
1.77871
1.77584
1.7734
1.77283
1.77303
1.7737
1.77383
1.77335
1.77134
1.76737
1.76325
1.76173
1.76168
1.76232
1.76446
1.76801
1.77195
1.7749
1.7761
1.77614
1.77594
1.77598
1.77634
1.77686
1.77716
1.77772
1.7785
1.77906
1.77929
1.77918
1.77878
1.77865
1.77849
1.77782
1.77645
1.77558
1.77615
1.77828
1.77841
1.77867
1.77984
1.78119
1.7816
1.78101
1.7776
1.77237
1.76911
1.76664
1.76408
1.76187
1.76025
1.75879
1.75816
1.75813
1.75838
1.76022
1.76289
1.76447
1.76563
1.7669
1.76799
1.76805
1.76637
1.76493
1.76544
1.76813
1.77214
1.7761
1.77968
1.78293
1.7863
1.78952
1.79228
1.79516
1.79771
1.79842
1.79724
1.79715
1.79861
1.79901
1.7992
1.79973
1.80183
1.80395
1.80434
1.80458
1.80452
1.8036
1.80163
1.79916
1.79668
1.79479
1.79561
1.79795
1.80243
1.80986
1.81949
1.82873
1.83724
1.8458
1.85436
1.86141
1.86797
1.87471
1.88194
1.89003
1.8984
1.9068
1.91482
1.92146
1.92674
1.93109
1.93223
1.93084
1.94022
2.00015
1.80799
1.65758
1.50004
1.25986
1.16343
1.17017
1.18309
1.19333
1.18058
1.14661
1.11173
1.1091
1.11091
1.12412
1.14547
1.14028
1.15839
1.19861
1.24161
1.28161
1.33801
1.39586
1.44734
1.48167
1.49979
1.51722
1.54076
1.56298
1.59235
1.61759
1.63431
1.64017
1.64348
1.64862
1.65092
1.65306
1.65957
1.67276
1.68791
1.69209
1.69124
1.68937
1.68886
1.69219
1.70205
1.71176
1.71643
1.71766
1.71646
1.71218
1.7076
1.70597
1.7064
1.70956
1.71645
1.72557
1.73427
1.73936
1.74087
1.74077
1.73983
1.73999
1.74113
1.74385
1.74998
1.75798
1.76233
1.76294
1.76248
1.76
1.75706
1.75626
1.75639
1.75594
1.75542
1.75401
1.75065
1.74546
1.74079
1.73919
1.73919
1.73972
1.74097
1.74298
1.74534
1.74775
1.75031
1.75297
1.75568
1.75871
1.76067
1.76058
1.7592
1.75683
1.75445
1.75259
1.75112
1.75053
1.75065
1.75114
1.75139
1.7513
1.75073
1.74987
1.74882
1.7474
1.7457
1.74439
1.74391
1.74391
1.74472
1.74725
1.75119
1.75518
1.75764
1.75809
1.75738
1.75521
1.75307
1.75089
1.74789
1.7461
1.7455
1.74442
1.74341
1.74162
1.739
1.73883
1.73935
1.74008
1.74016
1.73981
1.73847
1.7355
1.73166
1.72932
1.72893
1.72926
1.73066
1.7339
1.73917
1.74399
1.74712
1.74861
1.7494
1.74958
1.74892
1.74686
1.74458
1.74296
1.74236
1.74302
1.74651
1.75008
1.75149
1.75161
1.75156
1.75115
1.75005
1.74894
1.7488
1.74982
1.75121
1.75198
1.75364
1.75542
1.75583
1.75497
1.75053
1.74462
1.74194
1.74056
1.73941
1.73922
1.73946
1.73973
1.74067
1.74245
1.74482
1.7473
1.74896
1.74984
1.75053
1.7512
1.75137
1.75043
1.74804
1.74728
1.74803
1.75086
1.75483
1.75878
1.7626
1.76645
1.77034
1.773
1.77537
1.77795
1.77996
1.78017
1.77868
1.77821
1.77948
1.78044
1.78144
1.78329
1.78647
1.78972
1.79208
1.79473
1.79837
1.80291
1.80889
1.81666
1.82651
1.83851
1.85191
1.86711
1.88426
1.90302
1.92224
1.94042
1.95591
1.96844
1.97894
1.98842
1.99694
2.00439
2.01106
2.01718
2.0233
2.02967
2.03473
2.03828
2.04177
2.04597
2.05023
2.05054
2.05907
2.07026
1.89719
1.75175
1.64434
1.52556
1.41642
1.28187
1.24993
1.27319
1.271
1.23811
1.21062
1.18987
1.15368
1.13313
1.13002
1.12789
1.13263
1.14573
1.15632
1.16943
1.19563
1.22862
1.26533
1.3167
1.35369
1.37734
1.40462
1.43064
1.45371
1.47517
1.5027
1.52024
1.53682
1.5547
1.56386
1.56823
1.57315
1.58157
1.58829
1.59477
1.59733
1.59636
1.59556
1.60032
1.61238
1.62152
1.62368
1.62337
1.6214
1.61797
1.61522
1.61463
1.61557
1.62011
1.62859
1.6389
1.64601
1.64881
1.64899
1.64833
1.64751
1.64813
1.65048
1.65495
1.6617
1.66925
1.6738
1.67573
1.67591
1.67418
1.67013
1.66847
1.66823
1.66826
1.66912
1.6699
1.66976
1.66845
1.66614
1.6652
1.66525
1.66573
1.66691
1.66904
1.67126
1.67278
1.67427
1.67646
1.6798
1.68438
1.68827
1.68937
1.68923
1.68824
1.6863
1.68363
1.68072
1.67879
1.67816
1.67793
1.67761
1.67689
1.6762
1.67621
1.67631
1.6763
1.67665
1.67748
1.67813
1.67876
1.67996
1.68237
1.68588
1.68951
1.69197
1.6928
1.6923
1.69055
1.6897
1.68925
1.68831
1.68701
1.68624
1.68508
1.68303
1.68017
1.67798
1.67816
1.67923
1.68092
1.68234
1.68262
1.6823
1.68087
1.67837
1.67647
1.67632
1.67671
1.67776
1.67941
1.68266
1.68667
1.68944
1.69083
1.69124
1.69134
1.69094
1.69006
1.68983
1.68997
1.69085
1.69345
1.69766
1.70161
1.70431
1.70547
1.70549
1.70529
1.70456
1.70337
1.70251
1.70184
1.70172
1.70183
1.70271
1.70441
1.70536
1.70489
1.70158
1.69909
1.69916
1.69937
1.69961
1.70012
1.70102
1.70247
1.70478
1.70808
1.71179
1.71436
1.71543
1.71607
1.71672
1.71697
1.71655
1.71497
1.71429
1.71496
1.71748
1.72111
1.72414
1.72629
1.72852
1.73101
1.73332
1.73486
1.7364
1.73789
1.73945
1.74065
1.74169
1.74602
1.75267
1.75982
1.76816
1.77888
1.7921
1.80687
1.82342
1.84239
1.86419
1.88716
1.90911
1.92878
1.94558
1.96029
1.97425
1.98722
1.99943
2.0111
2.02232
2.03143
2.03716
2.04077
2.04243
2.04222
2.04159
2.04139
2.04165
2.04256
2.04452
2.04629
2.047
2.04753
2.04867
2.05194
2.05749
2.06125
2.06454
2.10217
1.96452
1.84392
1.71894
1.64229
1.5625
1.45158
1.3733
1.37347
1.36898
1.32038
1.26919
1.26223
1.25151
1.22532
1.20054
1.19408
1.19595
1.19153
1.17138
1.16829
1.17271
1.16963
1.16597
1.17361
1.19193
1.22096
1.26337
1.31318
1.35014
1.37675
1.40839
1.43419
1.45387
1.4726
1.48439
1.49227
1.49978
1.5075
1.51146
1.52001
1.53095
1.53878
1.54591
1.55374
1.56008
1.56027
1.55701
1.55078
1.54622
1.54618
1.54668
1.5479
1.55141
1.55783
1.56638
1.57362
1.57637
1.57674
1.5764
1.57628
1.57718
1.57962
1.58407
1.58915
1.59398
1.59587
1.5968
1.59734
1.59733
1.59649
1.59484
1.5943
1.59433
1.59567
1.59673
1.59727
1.5972
1.59593
1.59381
1.5931
1.59319
1.59399
1.59602
1.59931
1.60253
1.60398
1.604
1.6041
1.60525
1.60805
1.61155
1.61378
1.61442
1.6144
1.61387
1.61186
1.60851
1.6059
1.60444
1.60319
1.60162
1.59984
1.59906
1.59908
1.5995
1.60026
1.60192
1.60433
1.60638
1.60816
1.61031
1.61334
1.61731
1.62083
1.62204
1.62149
1.61876
1.61641
1.61601
1.61601
1.61629
1.61702
1.61723
1.61695
1.61593
1.61292
1.61076
1.61074
1.61102
1.61195
1.6137
1.61486
1.61488
1.61428
1.6129
1.61222
1.61232
1.61296
1.61446
1.61698
1.62013
1.62238
1.62297
1.62272
1.62139
1.61988
1.61919
1.6191
1.61959
1.62136
1.62492
1.62984
1.63484
1.63854
1.64165
1.64345
1.64362
1.64362
1.64364
1.64366
1.64311
1.64225
1.64185
1.64184
1.64217
1.64284
1.64284
1.64098
1.638
1.63804
1.63956
1.6416
1.6438
1.64648
1.64988
1.65353
1.65762
1.66228
1.66673
1.66917
1.66966
1.66977
1.66967
1.66828
1.66538
1.66392
1.66415
1.66573
1.66882
1.67265
1.67588
1.67785
1.67976
1.68139
1.68292
1.68562
1.68996
1.69558
1.70205
1.71131
1.72602
1.74679
1.7723
1.80076
1.83011
1.85815
1.8846
1.90853
1.92893
1.9471
1.96334
1.97564
1.98482
1.99236
1.99806
2.00286
2.00739
2.00908
2.01064
2.01378
2.0173
2.01774
2.01661
2.01363
2.00953
2.0045
1.99905
1.99452
1.99147
1.98951
1.98739
1.98455