/*--------------------------------*- C++ -*----------------------------------*\
  =========                 |
  \\      /  F ield         | OpenFOAM: The Open Source CFD Toolbox
   \\    /   O peration     | Website:  https://openfoam.org
    \\  /    A nd           | Version:  9
     \\/     M anipulation  |
\*---------------------------------------------------------------------------*/
FoamFile
{
    format      ascii;
    class       volScalarField;
    location    "55";
    object      p;
}
// * * * * * * * * * * * * * * * * * * * * * * * * * * * * * * * * * * * * * //

dimensions      [0 2 -2 0 0 0 0];

internalField   nonuniform List<scalar> 
8500
(
-0.276074
-0.280286
-0.281122
-0.282869
-0.284953
-0.285198
-0.288949
-0.285325
-0.291491
-0.284177
-0.276338
-0.28049
-0.281319
-0.283034
-0.28515
-0.285292
-0.289245
-0.285259
-0.291902
-0.284062
-0.27686
-0.280891
-0.281706
-0.283358
-0.285538
-0.285468
-0.289829
-0.285112
-0.292722
-0.283833
-0.277627
-0.281479
-0.282271
-0.283824
-0.286099
-0.285708
-0.290681
-0.284855
-0.293937
-0.283485
-0.27862
-0.28224
-0.282995
-0.28441
-0.286808
-0.285985
-0.291767
-0.284451
-0.295526
-0.283015
-0.279816
-0.283154
-0.283855
-0.285091
-0.287631
-0.286273
-0.293034
-0.283864
-0.297447
-0.282404
-0.28119
-0.2842
-0.284827
-0.285837
-0.288522
-0.286549
-0.294404
-0.283065
-0.299645
-0.281594
-0.282715
-0.285357
-0.285881
-0.286619
-0.289431
-0.286799
-0.295785
-0.282042
-0.302028
-0.280575
-0.284364
-0.286603
-0.28699
-0.287413
-0.290301
-0.287019
-0.297059
-0.280868
-0.304159
-0.279555
-0.286115
-0.28792
-0.288125
-0.288196
-0.291075
-0.287225
-0.298009
-0.279773
-0.305959
-0.27816
-0.287949
-0.289292
-0.289261
-0.288952
-0.291693
-0.287503
-0.298502
-0.278651
-0.307387
-0.276544
-0.289853
-0.290707
-0.290381
-0.289675
-0.292055
-0.287899
-0.29855
-0.277573
-0.308038
-0.275183
-0.29182
-0.29216
-0.291472
-0.29038
-0.292181
-0.288283
-0.298151
-0.27686
-0.307363
-0.274634
-0.293853
-0.29365
-0.292526
-0.291047
-0.292126
-0.288602
-0.297242
-0.276675
-0.30497
-0.274927
-0.295965
-0.295185
-0.293556
-0.291655
-0.291937
-0.288836
-0.295884
-0.276939
-0.300839
-0.27526
-0.298182
-0.296771
-0.294598
-0.29221
-0.291667
-0.288793
-0.294201
-0.277287
-0.295466
-0.274539
-0.300536
-0.29843
-0.295682
-0.292742
-0.291389
-0.288435
-0.292283
-0.27733
-0.289496
-0.272238
-0.303068
-0.300193
-0.296842
-0.293292
-0.291164
-0.287781
-0.290099
-0.276874
-0.283188
-0.268375
-0.305828
-0.302096
-0.298121
-0.293897
-0.290998
-0.286941
-0.287557
-0.275845
-0.276472
-0.263366
-0.30887
-0.304178
-0.299571
-0.294582
-0.290852
-0.286036
-0.284634
-0.274104
-0.269392
-0.257994
-0.312251
-0.30649
-0.301243
-0.295347
-0.290698
-0.285106
-0.281405
-0.271424
-0.262566
-0.252745
-0.316015
-0.3091
-0.303175
-0.296177
-0.29057
-0.284089
-0.277952
-0.26775
-0.256439
-0.246228
-0.320235
-0.31206
-0.305372
-0.297082
-0.290524
-0.282866
-0.274306
-0.263348
-0.250288
-0.23949
-0.324976
-0.315435
-0.307799
-0.298144
-0.290555
-0.281329
-0.270468
-0.258354
-0.244137
-0.232706
-0.3303
-0.319277
-0.310402
-0.299492
-0.290574
-0.279418
-0.26639
-0.252967
-0.237871
-0.225832
-0.336274
-0.323598
-0.313187
-0.301202
-0.29046
-0.277107
-0.262051
-0.247281
-0.231466
-0.218934
-0.342972
-0.328349
-0.316265
-0.303199
-0.290111
-0.27439
-0.257434
-0.241358
-0.224924
-0.211945
-0.350465
-0.333433
-0.319839
-0.305279
-0.289451
-0.271272
-0.252531
-0.235221
-0.21823
-0.204862
-0.358795
-0.338747
-0.324094
-0.307228
-0.288408
-0.267757
-0.247333
-0.228871
-0.21138
-0.197648
-0.367938
-0.344231
-0.329072
-0.30889
-0.286914
-0.263838
-0.241828
-0.2223
-0.204356
-0.190282
-0.377776
-0.349895
-0.334595
-0.310169
-0.284906
-0.259497
-0.236001
-0.215488
-0.197139
-0.182737
-0.388086
-0.355818
-0.340276
-0.310989
-0.282329
-0.254705
-0.229827
-0.208415
-0.189707
-0.174991
-0.398535
-0.362096
-0.345628
-0.311259
-0.27914
-0.249424
-0.223279
-0.201055
-0.182035
-0.167024
-0.408806
-0.368793
-0.35019
-0.310865
-0.275301
-0.243619
-0.216325
-0.193383
-0.174102
-0.158817
-0.418593
-0.375873
-0.35361
-0.309676
-0.270769
-0.237253
-0.208932
-0.185368
-0.165886
-0.150352
-0.427642
-0.383164
-0.355668
-0.307555
-0.265497
-0.230294
-0.201068
-0.176983
-0.157366
-0.141614
-0.435747
-0.390343
-0.356259
-0.304376
-0.259436
-0.22271
-0.192702
-0.168204
-0.148522
-0.132587
-0.442751
-0.396953
-0.35537
-0.300039
-0.252532
-0.214466
-0.183807
-0.159007
-0.139336
-0.123267
-0.448523
-0.402469
-0.353027
-0.294476
-0.24473
-0.205528
-0.174356
-0.149372
-0.129792
-0.113663
-0.452956
-0.406414
-0.349212
-0.287637
-0.235983
-0.195864
-0.164326
-0.139281
-0.119879
-0.1038
-0.455949
-0.408454
-0.343806
-0.279479
-0.226248
-0.185445
-0.1537
-0.128717
-0.109585
-0.0936945
-0.457395
-0.408308
-0.336713
-0.269957
-0.215491
-0.174245
-0.142462
-0.117667
-0.0989017
-0.0833249
-0.457165
-0.405775
-0.327874
-0.259032
-0.203682
-0.162247
-0.130598
-0.106116
-0.0878389
-0.0726305
-0.455099
-0.40072
-0.317243
-0.246681
-0.190803
-0.149435
-0.118094
-0.0940573
-0.076439
-0.0615307
-0.451012
-0.393052
-0.30477
-0.232903
-0.176841
-0.135794
-0.104939
-0.0814917
-0.0647485
-0.0500026
-0.444696
-0.382712
-0.290417
-0.217701
-0.161783
-0.121322
-0.0911413
-0.0684583
-0.0527427
-0.0381784
-0.435937
-0.369666
-0.274163
-0.201076
-0.145612
-0.106039
-0.0767388
-0.0550383
-0.0403092
-0.0261505
-0.424521
-0.353896
-0.256
-0.183024
-0.128338
-0.0900101
-0.0617955
-0.0412099
-0.0274563
-0.0139249
-0.410257
-0.335401
-0.235922
-0.163566
-0.110045
-0.0732926
-0.0462694
-0.0269829
-0.0142303
-0.00150833
-0.392984
-0.3142
-0.213919
-0.142791
-0.0908853
-0.0557882
-0.0302016
-0.0123707
-0.000679028
0.0110858
-0.372585
-0.29035
-0.189989
-0.120849
-0.0707988
-0.037552
-0.0136322
0.00260243
0.0131546
0.0238308
-0.348992
-0.26398
-0.164216
-0.0977132
-0.0498299
-0.0186437
0.00339502
0.0179037
0.0272292
0.0366902
-0.322194
-0.235258
-0.136789
-0.0732992
-0.028037
0.000870501
0.0208324
0.0334936
0.041505
0.0496195
-0.292238
-0.204214
-0.107843
-0.0477237
-0.00548734
0.0209205
0.0386256
0.0493281
0.0559455
0.0625744
-0.259244
-0.170586
-0.0777745
-0.0211304
0.0177448
0.0414312
0.0567142
0.0653618
0.0705193
0.0755111
-0.223389
-0.134679
-0.0465303
0.00633074
0.0415728
0.0623228
0.0750332
0.0815533
0.0851943
0.0883592
-0.184772
-0.0969016
-0.0141629
0.0345134
0.0658966
0.0835101
0.0935175
0.0978685
0.099915
0.100945
-0.143358
-0.057887
0.0191981
0.063275
0.0906052
0.104903
0.112105
0.114274
0.114569
0.112932
-0.0996341
-0.0177942
0.0533732
0.0924728
0.115579
0.12641
0.130735
0.130711
0.128981
0.124032
-0.053958
0.0231856
0.0881581
0.121958
0.140693
0.147934
0.149339
0.147068
0.14299
0.134563
-0.00670942
0.0648153
0.123333
0.151573
0.165815
0.169379
0.167832
0.163205
0.156541
0.14584
0.0417096
0.106831
0.15867
0.181154
0.190813
0.190643
0.186119
0.179011
0.169838
0.157648
0.09088
0.148952
0.193932
0.210533
0.215551
0.211622
0.204103
0.194454
0.182928
0.169498
0.140371
0.190885
0.228884
0.239534
0.23989
0.232206
0.22169
0.209487
0.195758
0.181214
0.189745
0.232332
0.263288
0.267982
0.263693
0.252286
0.23879
0.224063
0.208254
0.192614
0.238561
0.272991
0.296907
0.295699
0.28682
0.271751
0.255319
0.238126
0.220351
0.203603
0.286384
0.312564
0.329508
0.322511
0.309137
0.290492
0.271191
0.251612
0.231979
0.2141
0.332783
0.350759
0.360866
0.348245
0.330507
0.308403
0.286326
0.264459
0.243075
0.224048
0.377339
0.387295
0.390762
0.372734
0.350802
0.325381
0.300644
0.276603
0.25358
0.233395
0.419642
0.421912
0.418987
0.395816
0.369896
0.341327
0.314068
0.287983
0.263434
0.2421
0.459316
0.454353
0.445344
0.417337
0.387669
0.356147
0.326526
0.29854
0.272584
0.250124
0.496063
0.484331
0.469643
0.437149
0.404008
0.369754
0.337948
0.308217
0.280978
0.257433
0.529586
0.511588
0.491708
0.455118
0.418811
0.382064
0.348272
0.316964
0.288568
0.263997
0.559595
0.535909
0.511379
0.471121
0.43198
0.393005
0.357439
0.324732
0.29531
0.269789
0.585826
0.557106
0.528513
0.485047
0.443433
0.402511
0.365398
0.331475
0.301166
0.274788
0.608048
0.57502
0.542986
0.496802
0.453093
0.410523
0.372102
0.337157
0.3061
0.278977
0.626066
0.589516
0.554693
0.506304
0.460898
0.416992
0.377512
0.341742
0.310083
0.282341
0.63972
0.600484
0.563549
0.513488
0.466797
0.42188
0.381598
0.345206
0.313092
0.28487
0.64889
0.607843
0.569489
0.518305
0.470751
0.425155
0.384336
0.347526
0.315108
0.286559
0.653496
0.611536
0.572469
0.520722
0.472735
0.426797
0.385708
0.34869
0.316119
0.287403
0.653496
0.611536
0.572469
0.520722
0.472735
0.426797
0.385708
0.34869
0.316119
0.287403
0.64889
0.607842
0.569488
0.518305
0.470751
0.425154
0.384335
0.347526
0.315107
0.286558
0.639719
0.600484
0.563548
0.513487
0.466797
0.421879
0.381598
0.345205
0.313091
0.28487
0.626065
0.589515
0.554693
0.506303
0.460897
0.416992
0.377512
0.341742
0.310083
0.28234
0.608047
0.575019
0.542986
0.496801
0.453092
0.410522
0.372101
0.337156
0.3061
0.278976
0.585825
0.557105
0.528512
0.485046
0.443432
0.40251
0.365397
0.331475
0.301165
0.274788
0.559593
0.535907
0.511377
0.47112
0.43198
0.393005
0.357439
0.324731
0.29531
0.269789
0.529584
0.511587
0.491706
0.455117
0.41881
0.382063
0.348271
0.316963
0.288567
0.263996
0.496061
0.48433
0.469641
0.437148
0.404007
0.369752
0.337947
0.308217
0.280977
0.257432
0.459314
0.454351
0.445342
0.417335
0.387668
0.356146
0.326525
0.298539
0.272583
0.250123
0.419639
0.42191
0.418985
0.395815
0.369895
0.341326
0.314067
0.287982
0.263433
0.242099
0.377336
0.387292
0.39076
0.372732
0.350801
0.32538
0.300643
0.276602
0.253579
0.233394
0.33278
0.350756
0.360864
0.348243
0.330506
0.308402
0.286325
0.264458
0.243074
0.224046
0.286381
0.312562
0.329506
0.322509
0.309135
0.29049
0.27119
0.251611
0.231977
0.214099
0.238557
0.272988
0.296904
0.295697
0.286818
0.271749
0.255317
0.238124
0.220349
0.203602
0.189741
0.232329
0.263285
0.267979
0.26369
0.252284
0.238789
0.224062
0.208253
0.192613
0.140367
0.190882
0.228881
0.239531
0.239888
0.232204
0.221688
0.209485
0.195756
0.181213
0.0908756
0.148948
0.193929
0.21053
0.215548
0.21162
0.204101
0.194452
0.182926
0.169497
0.041705
0.106827
0.158666
0.181152
0.190811
0.190641
0.186117
0.179009
0.169836
0.157646
-0.00671428
0.0648112
0.12333
0.15157
0.165813
0.169376
0.16783
0.163203
0.156539
0.145839
-0.0539632
0.0231812
0.0881543
0.121954
0.14069
0.147932
0.149336
0.147066
0.142988
0.134561
-0.0996395
-0.0177988
0.0533693
0.0924694
0.115576
0.126407
0.130732
0.130708
0.128979
0.12403
-0.143364
-0.0578918
0.019194
0.0632715
0.090602
0.104901
0.112102
0.114272
0.114567
0.11293
-0.184778
-0.0969066
-0.0141672
0.0345097
0.0658932
0.0835071
0.0935147
0.097866
0.0999128
0.100943
-0.223395
-0.134684
-0.0465348
0.00632684
0.0415693
0.0623197
0.0750304
0.0815507
0.085192
0.0883571
-0.259251
-0.170591
-0.0777792
-0.0211345
0.0177411
0.041428
0.0567113
0.0653591
0.0705168
0.0755089
-0.292244
-0.20422
-0.107848
-0.0477279
-0.00549111
0.0209171
0.0386226
0.0493253
0.0559429
0.0625722
-0.3222
-0.235263
-0.136794
-0.0733036
-0.0280409
0.00086698
0.0208292
0.0334907
0.0415024
0.0496172
-0.348999
-0.263986
-0.164221
-0.0977177
-0.049834
-0.0186474
0.00339171
0.0179007
0.0272265
0.0366877
-0.372592
-0.290356
-0.189994
-0.120853
-0.070803
-0.0375558
-0.0136357
0.00259932
0.0131518
0.0238283
-0.392991
-0.314206
-0.213924
-0.142796
-0.0908896
-0.0557921
-0.0302052
-0.0123739
-0.00068195
0.0110832
-0.410265
-0.335407
-0.235928
-0.163571
-0.110049
-0.0732967
-0.0462731
-0.0269862
-0.0142334
-0.001511
-0.424529
-0.353902
-0.256006
-0.183029
-0.128343
-0.0900143
-0.0617993
-0.0412134
-0.0274595
-0.0139277
-0.435944
-0.369673
-0.274169
-0.201081
-0.145617
-0.106043
-0.0767427
-0.0550418
-0.0403124
-0.0261533
-0.444704
-0.382719
-0.290423
-0.217707
-0.161788
-0.121326
-0.0911453
-0.068462
-0.0527461
-0.0381813
-0.451019
-0.393059
-0.304777
-0.232908
-0.176846
-0.135799
-0.104944
-0.0814955
-0.0647519
-0.0500056
-0.455106
-0.400728
-0.31725
-0.246687
-0.190808
-0.149439
-0.118098
-0.0940612
-0.0764425
-0.0615338
-0.457172
-0.405783
-0.327881
-0.259038
-0.203687
-0.162252
-0.130602
-0.10612
-0.0878425
-0.0726337
-0.457403
-0.408315
-0.33672
-0.269963
-0.215496
-0.17425
-0.142466
-0.117671
-0.0989055
-0.0833283
-0.455957
-0.408461
-0.343813
-0.279485
-0.226254
-0.18545
-0.153705
-0.128722
-0.109589
-0.0936979
-0.452964
-0.406422
-0.349219
-0.287643
-0.235989
-0.19587
-0.164331
-0.139286
-0.119883
-0.103803
-0.448531
-0.402477
-0.353034
-0.294482
-0.244736
-0.205534
-0.174361
-0.149377
-0.129797
-0.113667
-0.442758
-0.396961
-0.355377
-0.300046
-0.252538
-0.214471
-0.183812
-0.159012
-0.13934
-0.123271
-0.435755
-0.39035
-0.356266
-0.304383
-0.259442
-0.222716
-0.192708
-0.168209
-0.148527
-0.132591
-0.42765
-0.383172
-0.355675
-0.307561
-0.265504
-0.2303
-0.201074
-0.176988
-0.157371
-0.141618
-0.418601
-0.37588
-0.353617
-0.309682
-0.270775
-0.237259
-0.208938
-0.185373
-0.165891
-0.150357
-0.408813
-0.3688
-0.350197
-0.310872
-0.275307
-0.243625
-0.216331
-0.193388
-0.174107
-0.158822
-0.398543
-0.362104
-0.345635
-0.311265
-0.279147
-0.249431
-0.223286
-0.201061
-0.182041
-0.167029
-0.388093
-0.355825
-0.340283
-0.310996
-0.282336
-0.254711
-0.229834
-0.208421
-0.189713
-0.174996
-0.377783
-0.349902
-0.334602
-0.310176
-0.284913
-0.259504
-0.236008
-0.215495
-0.197146
-0.182742
-0.367945
-0.344238
-0.329079
-0.308897
-0.286921
-0.263845
-0.241835
-0.222307
-0.204363
-0.190288
-0.358803
-0.338754
-0.324101
-0.307234
-0.288415
-0.267764
-0.24734
-0.228879
-0.211387
-0.197654
-0.350473
-0.33344
-0.319845
-0.305286
-0.289458
-0.27128
-0.252539
-0.235229
-0.218238
-0.204869
-0.342979
-0.328355
-0.316271
-0.303206
-0.290119
-0.274398
-0.257443
-0.241367
-0.224932
-0.211952
-0.336281
-0.323604
-0.313193
-0.301209
-0.290468
-0.277115
-0.26206
-0.24729
-0.231475
-0.218942
-0.330307
-0.319284
-0.310409
-0.299499
-0.290582
-0.279427
-0.266399
-0.252977
-0.23788
-0.225841
-0.324983
-0.315442
-0.307805
-0.29815
-0.290563
-0.281338
-0.270478
-0.258365
-0.244148
-0.232716
-0.320242
-0.312067
-0.305379
-0.297089
-0.290531
-0.282875
-0.274317
-0.26336
-0.2503
-0.2395
-0.316022
-0.309106
-0.303181
-0.296184
-0.290578
-0.284099
-0.277963
-0.267763
-0.256452
-0.24624
-0.312259
-0.306496
-0.30125
-0.295353
-0.290706
-0.285116
-0.281417
-0.271438
-0.26258
-0.252759
-0.308878
-0.304185
-0.299578
-0.294589
-0.29086
-0.286046
-0.284646
-0.274119
-0.269408
-0.258009
-0.305835
-0.302102
-0.298128
-0.293904
-0.291007
-0.286951
-0.28757
-0.275861
-0.27649
-0.263383
-0.303075
-0.3002
-0.296849
-0.2933
-0.291173
-0.287791
-0.290113
-0.276891
-0.283207
-0.268394
-0.300543
-0.298437
-0.295689
-0.29275
-0.291397
-0.288446
-0.292298
-0.277348
-0.289517
-0.27226
-0.298189
-0.296778
-0.294605
-0.292217
-0.291676
-0.288805
-0.294216
-0.277306
-0.295487
-0.274562
-0.295973
-0.295191
-0.293563
-0.291663
-0.291946
-0.288848
-0.295899
-0.276959
-0.300861
-0.275286
-0.29386
-0.293657
-0.292533
-0.291055
-0.292135
-0.288614
-0.297257
-0.276695
-0.304994
-0.274954
-0.291827
-0.292166
-0.291478
-0.290388
-0.29219
-0.288295
-0.298166
-0.27688
-0.307388
-0.274663
-0.289859
-0.290713
-0.290387
-0.289683
-0.292064
-0.287911
-0.298565
-0.277593
-0.308062
-0.275212
-0.287956
-0.289298
-0.289268
-0.28896
-0.291702
-0.287515
-0.298517
-0.27867
-0.307412
-0.276573
-0.286122
-0.287926
-0.288131
-0.288203
-0.291083
-0.287236
-0.298024
-0.279791
-0.305983
-0.278188
-0.28437
-0.286609
-0.286996
-0.287419
-0.290309
-0.28703
-0.297073
-0.280886
-0.304182
-0.279582
-0.28272
-0.285362
-0.285887
-0.286625
-0.289439
-0.286809
-0.295798
-0.282059
-0.30205
-0.2806
-0.281195
-0.284205
-0.284832
-0.285843
-0.288529
-0.286558
-0.294416
-0.28308
-0.299665
-0.281617
-0.27982
-0.283158
-0.28386
-0.285096
-0.287637
-0.286281
-0.293044
-0.283877
-0.297464
-0.282424
-0.278623
-0.282243
-0.282998
-0.284414
-0.286813
-0.285992
-0.291776
-0.284462
-0.29554
-0.283032
-0.27763
-0.281482
-0.282274
-0.283827
-0.286103
-0.285713
-0.290688
-0.284864
-0.293948
-0.283499
-0.276862
-0.280893
-0.281708
-0.28336
-0.285541
-0.285472
-0.289834
-0.285118
-0.29273
-0.283843
-0.276339
-0.280491
-0.28132
-0.283036
-0.285152
-0.285294
-0.289248
-0.285263
-0.291907
-0.284068
-0.276074
-0.280287
-0.281122
-0.282869
-0.284953
-0.285199
-0.28895
-0.285326
-0.291493
-0.284179
-0.291508
-0.281891
-0.282811
-0.274774
-0.270469
-0.261645
-0.253603
-0.242743
-0.231317
-0.21779
-0.203021
-0.186792
-0.16904
-0.15089
-0.131558
-0.113177
-0.0948869
-0.0783346
-0.063768
-0.050489
-0.0406837
-0.0310689
-0.0249664
-0.0186346
-0.014479
-0.0105518
-0.00740116
-0.00447502
-0.00263939
-1.31429e-05
-0.291747
-0.282027
-0.282911
-0.274896
-0.270575
-0.261769
-0.253725
-0.242873
-0.231446
-0.217917
-0.20314
-0.186902
-0.169138
-0.150983
-0.131647
-0.113271
-0.094986
-0.0784308
-0.063855
-0.0505523
-0.040724
-0.0310877
-0.0249751
-0.0186452
-0.0144964
-0.0105754
-0.00742134
-0.00448516
-0.00264129
-1.46241e-05
-0.292196
-0.28228
-0.283105
-0.275129
-0.270781
-0.261999
-0.253953
-0.243115
-0.231689
-0.218164
-0.203379
-0.187134
-0.169354
-0.151189
-0.131842
-0.11346
-0.095167
-0.078597
-0.0640033
-0.0506647
-0.040807
-0.0311409
-0.025012
-0.018679
-0.0145307
-0.0106132
-0.00745152
-0.00450297
-0.00264886
-1.98254e-05
-0.292811
-0.282623
-0.283376
-0.275456
-0.271063
-0.262326
-0.254274
-0.24346
-0.232035
-0.21852
-0.203728
-0.187479
-0.169679
-0.151502
-0.132135
-0.113738
-0.095433
-0.078832
-0.0642124
-0.0508268
-0.0409334
-0.0312301
-0.0250785
-0.0187375
-0.0145828
-0.0106656
-0.0074919
-0.00452864
-0.00266218
-2.89085e-05
-0.293519
-0.282998
-0.283706
-0.275843
-0.271422
-0.262725
-0.254676
-0.243889
-0.232471
-0.21897
-0.204172
-0.187923
-0.170103
-0.151916
-0.132521
-0.114102
-0.0957762
-0.0791342
-0.0644822
-0.0510398
-0.0411045
-0.0313578
-0.0251765
-0.0188223
-0.014654
-0.0107331
-0.00754282
-0.00456255
-0.00268134
-4.20624e-05
-0.29424
-0.283387
-0.284053
-0.27628
-0.271817
-0.263189
-0.255127
-0.244388
-0.232977
-0.2195
-0.204701
-0.188455
-0.170611
-0.152411
-0.132997
-0.114548
-0.096195
-0.0795025
-0.0648127
-0.0513056
-0.0413223
-0.0315266
-0.0253081
-0.0189353
-0.0147456
-0.0108164
-0.00760483
-0.00460516
-0.00270644
-5.94752e-05
-0.294943
-0.283659
-0.284418
-0.276692
-0.272243
-0.263659
-0.255635
-0.244922
-0.233538
-0.220082
-0.205287
-0.189051
-0.1712
-0.152985
-0.133548
-0.115066
-0.0966861
-0.079936
-0.0652046
-0.0516264
-0.0415887
-0.0317396
-0.0254752
-0.0190786
-0.014859
-0.0109163
-0.00767859
-0.00465699
-0.00273759
-8.13053e-05
-0.295366
-0.283971
-0.28466
-0.277131
-0.272614
-0.264167
-0.256116
-0.245498
-0.234116
-0.220713
-0.205923
-0.189704
-0.171844
-0.153622
-0.134168
-0.115652
-0.0972465
-0.0804341
-0.0656585
-0.052005
-0.0419062
-0.0319995
-0.0256801
-0.0192539
-0.0149956
-0.0110336
-0.00776477
-0.00471857
-0.00277486
-0.000107654
-0.29542
-0.284239
-0.284743
-0.277531
-0.272921
-0.264642
-0.256593
-0.246064
-0.234704
-0.221355
-0.206582
-0.190391
-0.172533
-0.154311
-0.134849
-0.116299
-0.0978735
-0.0809965
-0.0661754
-0.0524439
-0.0422769
-0.0323092
-0.0259244
-0.0194628
-0.0151565
-0.0111689
-0.00786406
-0.00479037
-0.00281829
-0.000138543
-0.295085
-0.284358
-0.284687
-0.277816
-0.273159
-0.265052
-0.257017
-0.2466
-0.235271
-0.221995
-0.207246
-0.191097
-0.173253
-0.15504
-0.135582
-0.117004
-0.0985646
-0.081623
-0.066756
-0.0529451
-0.0427026
-0.0326706
-0.0262096
-0.0197066
-0.0153427
-0.0113228
-0.00797702
-0.00487275
-0.0028679
-0.000173898
-0.294073
-0.284331
-0.284404
-0.277958
-0.273252
-0.265368
-0.257369
-0.247078
-0.235793
-0.222605
-0.207897
-0.191804
-0.173991
-0.155798
-0.13636
-0.11776
-0.0993168
-0.082313
-0.0674004
-0.0535099
-0.0431843
-0.033085
-0.0265365
-0.0199858
-0.0155549
-0.0114957
-0.00810408
-0.00496594
-0.00292365
-0.000213547
-0.292196
-0.284051
-0.283853
-0.277896
-0.273213
-0.265526
-0.257602
-0.247462
-0.236246
-0.223165
-0.208515
-0.192497
-0.174733
-0.156576
-0.137176
-0.118563
-0.100127
-0.0830654
-0.068108
-0.0541388
-0.0437223
-0.0335526
-0.0269052
-0.0203003
-0.0157931
-0.0116876
-0.00824543
-0.00507
-0.00298543
-0.000257221
-0.289477
-0.283371
-0.283002
-0.277539
-0.272911
-0.265529
-0.257706
-0.247729
-0.236605
-0.223651
-0.209082
-0.193159
-0.175469
-0.157365
-0.138024
-0.119408
-0.100993
-0.0838783
-0.0688772
-0.0548309
-0.0443154
-0.0340727
-0.0273151
-0.0206497
-0.0160571
-0.0118982
-0.00840104
-0.0051848
-0.00305309
-0.000304566
-0.286313
-0.282094
-0.281753
-0.276874
-0.272418
-0.265232
-0.25759
-0.247838
-0.236842
-0.224045
-0.209582
-0.193778
-0.176188
-0.158156
-0.138897
-0.120292
-0.101909
-0.0847491
-0.0697053
-0.055584
-0.0449618
-0.0346433
-0.0277647
-0.0210325
-0.016346
-0.012127
-0.00857061
-0.00531004
-0.00312639
-0.000355168
-0.28294
-0.280155
-0.28005
-0.275815
-0.271593
-0.264828
-0.257319
-0.247789
-0.236942
-0.224328
-0.210001
-0.194343
-0.176881
-0.158943
-0.139789
-0.12121
-0.102871
-0.085674
-0.0705884
-0.0563943
-0.0456584
-0.0352615
-0.0282518
-0.021447
-0.0166587
-0.0123731
-0.00875362
-0.00544524
-0.00320504
-0.000408565
-0.279276
-0.27763
-0.277822
-0.274293
-0.270358
-0.263828
-0.25669
-0.247503
-0.236873
-0.224485
-0.210331
-0.194847
-0.177542
-0.15972
-0.140695
-0.122156
-0.103875
-0.0866482
-0.0715217
-0.0572574
-0.0464013
-0.0359236
-0.0287737
-0.0218907
-0.0169936
-0.0126356
-0.00894927
-0.00558974
-0.00328865
-0.000464276
-0.275455
-0.274477
-0.275082
-0.272371
-0.268916
-0.26305
-0.255983
-0.247072
-0.236657
-0.224514
-0.210564
-0.195282
-0.178164
-0.160484
-0.14161
-0.123129
-0.104916
-0.087668
-0.072501
-0.0581685
-0.0471862
-0.0366251
-0.0293271
-0.0223606
-0.0173487
-0.0129128
-0.00915644
-0.00574271
-0.00337682
-0.000521838
-0.271419
-0.270787
-0.271759
-0.269834
-0.26682
-0.26133
-0.254689
-0.246298
-0.236232
-0.224406
-0.21071
-0.195664
-0.178763
-0.161243
-0.142537
-0.124125
-0.105986
-0.088723
-0.0735147
-0.0591162
-0.0480038
-0.0373578
-0.0299065
-0.0228526
-0.0177214
-0.0132034
-0.00937424
-0.00590354
-0.00346927
-0.000580893
-0.267213
-0.266822
-0.268296
-0.267281
-0.264876
-0.260029
-0.253787
-0.245537
-0.23571
-0.22417
-0.210733
-0.195934
-0.179276
-0.161942
-0.143431
-0.125113
-0.107065
-0.0898025
-0.0745621
-0.0601028
-0.0488604
-0.0381274
-0.0305175
-0.0233708
-0.0181146
-0.0135091
-0.00960358
-0.00607244
-0.00356586
-0.000640979
-0.263258
-0.262062
-0.263583
-0.263406
-0.261687
-0.25752
-0.251599
-0.244222
-0.234944
-0.22387
-0.210812
-0.196344
-0.179978
-0.162852
-0.144536
-0.126302
-0.108324
-0.0910375
-0.0757278
-0.0611844
-0.0497806
-0.0389447
-0.0311576
-0.0239087
-0.0185196
-0.0138217
-0.00983699
-0.0062438
-0.00366345
-0.000700586
-0.258093
-0.258341
-0.260078
-0.260528
-0.259301
-0.255738
-0.250596
-0.242945
-0.233812
-0.222947
-0.210102
-0.195839
-0.179695
-0.162759
-0.144651
-0.12657
-0.108741
-0.0915512
-0.0762953
-0.0617876
-0.0503438
-0.0394909
-0.0316154
-0.0243146
-0.0188404
-0.0140781
-0.0100342
-0.00639298
-0.00375087
-0.000754675
-0.252449
-0.253495
-0.255433
-0.256401
-0.255536
-0.252267
-0.24703
-0.240271
-0.231589
-0.221087
-0.208582
-0.194628
-0.178811
-0.162154
-0.14435
-0.126505
-0.108903
-0.0918785
-0.0767265
-0.0623014
-0.0508439
-0.0399984
-0.0320455
-0.0247008
-0.0191466
-0.0143218
-0.0102211
-0.00653484
-0.0038322
-0.000805592
-0.246536
-0.2482
-0.250392
-0.251923
-0.251533
-0.248763
-0.244184
-0.237625
-0.229249
-0.219088
-0.206918
-0.19328
-0.177803
-0.161442
-0.14396
-0.126369
-0.109011
-0.0921697
-0.0771343
-0.0628069
-0.0513426
-0.0405131
-0.0324844
-0.0250978
-0.0194625
-0.0145736
-0.0104147
-0.0066823
-0.00391609
-0.000858124
-0.240377
-0.242685
-0.245157
-0.247227
-0.247331
-0.245069
-0.240876
-0.234759
-0.226759
-0.216964
-0.205157
-0.191859
-0.176745
-0.160698
-0.143553
-0.126232
-0.109127
-0.0924785
-0.0775637
-0.0633383
-0.0518665
-0.0410539
-0.0329461
-0.0255157
-0.0197955
-0.0148394
-0.0106193
-0.00683793
-0.00400448
-0.000912658
-0.23392
-0.236977
-0.239748
-0.242313
-0.242912
-0.241137
-0.237371
-0.231697
-0.224101
-0.214698
-0.203281
-0.190347
-0.175619
-0.159909
-0.14312
-0.126083
-0.109244
-0.0927989
-0.0780108
-0.063893
-0.0524147
-0.0416201
-0.0334307
-0.0259547
-0.0201461
-0.0151196
-0.0108352
-0.007002
-0.00409752
-0.000969132
-0.227211
-0.231102
-0.234189
-0.237208
-0.2383
-0.237014
-0.233699
-0.228472
-0.221296
-0.212302
-0.201297
-0.188747
-0.174425
-0.159069
-0.142652
-0.125916
-0.109355
-0.093124
-0.0784691
-0.0644656
-0.0529827
-0.0422082
-0.0339357
-0.0264128
-0.020513
-0.0154134
-0.0110618
-0.00717402
-0.00419492
-0.00102729
-0.220324
-0.225089
-0.228516
-0.231954
-0.233535
-0.232742
-0.229882
-0.225108
-0.218364
-0.209793
-0.199217
-0.187067
-0.173167
-0.158183
-0.142151
-0.125731
-0.109456
-0.0934512
-0.0789357
-0.0650526
-0.0535678
-0.0428154
-0.0344591
-0.0268883
-0.020895
-0.0157198
-0.0112982
-0.00735351
-0.00429643
-0.00108689
-0.213311
-0.218964
-0.222758
-0.226584
-0.228648
-0.228349
-0.225944
-0.221624
-0.215327
-0.207189
-0.197054
-0.185318
-0.171854
-0.157256
-0.14162
-0.125528
-0.109548
-0.0937785
-0.0794083
-0.0656514
-0.0541676
-0.0434393
-0.0349993
-0.0273798
-0.021291
-0.0160381
-0.0115441
-0.00754002
-0.00440179
-0.00114768
-0.206222
-0.212753
-0.216939
-0.221127
-0.223661
-0.223855
-0.221908
-0.218046
-0.2122
-0.204504
-0.194821
-0.18351
-0.170492
-0.156291
-0.14106
-0.125307
-0.109629
-0.0941035
-0.0798842
-0.0662588
-0.0547793
-0.044077
-0.0355541
-0.0278853
-0.0216999
-0.0163674
-0.0117986
-0.007733
-0.00451075
-0.00120938
-0.199106
-0.206477
-0.21108
-0.215607
-0.218595
-0.219278
-0.217793
-0.214388
-0.208998
-0.20175
-0.192527
-0.181651
-0.169085
-0.155292
-0.140472
-0.125067
-0.109698
-0.0944239
-0.0803606
-0.0668716
-0.0554003
-0.0447258
-0.0361215
-0.0284029
-0.0221202
-0.0167066
-0.012061
-0.00793182
-0.00462296
-0.00127173
-0.192008
-0.200161
-0.205199
-0.210048
-0.213469
-0.214636
-0.213614
-0.210664
-0.205735
-0.19894
-0.190183
-0.179748
-0.16764
-0.154262
-0.139858
-0.12481
-0.109753
-0.0947373
-0.0808348
-0.0674866
-0.0560276
-0.0453827
-0.0366991
-0.0289306
-0.0225503
-0.0170547
-0.0123303
-0.0081358
-0.00473808
-0.00133444
-0.184972
-0.193834
-0.199318
-0.204474
-0.208303
-0.209945
-0.209386
-0.20689
-0.202423
-0.196083
-0.187796
-0.177808
-0.166161
-0.153206
-0.139219
-0.124534
-0.109793
-0.0950418
-0.0813044
-0.0681007
-0.0566585
-0.0460447
-0.0372847
-0.0294662
-0.0229888
-0.0174102
-0.0126055
-0.00834417
-0.00485571
-0.00139721
-0.178043
-0.187524
-0.193459
-0.198909
-0.203118
-0.205221
-0.205124
-0.203079
-0.199073
-0.19319
-0.185374
-0.175837
-0.164653
-0.152125
-0.138557
-0.124241
-0.109817
-0.0953355
-0.081767
-0.068711
-0.0572902
-0.046709
-0.0378759
-0.0300075
-0.023434
-0.017772
-0.0128856
-0.00855613
-0.00497542
-0.00145974
-0.17126
-0.181262
-0.187643
-0.193378
-0.197936
-0.200482
-0.200843
-0.199245
-0.195697
-0.190272
-0.182927
-0.173844
-0.163121
-0.151024
-0.137874
-0.123931
-0.109825
-0.0956165
-0.0822205
-0.0693148
-0.05792
-0.0473726
-0.0384703
-0.0305523
-0.023884
-0.0181385
-0.0131694
-0.0087708
-0.00509677
-0.00152175
-0.164661
-0.175079
-0.181893
-0.187904
-0.192781
-0.195747
-0.196559
-0.195404
-0.192309
-0.187338
-0.180463
-0.171834
-0.161571
-0.149907
-0.137172
-0.123604
-0.109817
-0.0958834
-0.0826628
-0.0699092
-0.0585453
-0.0480326
-0.0390653
-0.0310983
-0.024337
-0.0185082
-0.0134559
-0.00898726
-0.00521926
-0.00158293
-0.158277
-0.169008
-0.176233
-0.182511
-0.187679
-0.191038
-0.192291
-0.191571
-0.188923
-0.184402
-0.177991
-0.169815
-0.160009
-0.148776
-0.136455
-0.123262
-0.109791
-0.0961347
-0.0830919
-0.0704915
-0.0591632
-0.0486861
-0.0396584
-0.0316429
-0.0247909
-0.0188795
-0.0137436
-0.00920451
-0.00534237
-0.00164299
-0.152137
-0.163082
-0.170688
-0.177223
-0.182655
-0.186379
-0.188057
-0.187765
-0.185554
-0.181476
-0.175524
-0.167798
-0.158441
-0.147638
-0.135724
-0.122906
-0.10975
-0.0963695
-0.083506
-0.071059
-0.059771
-0.0493299
-0.0402466
-0.0321835
-0.0252437
-0.0192504
-0.0140312
-0.00942146
-0.00546552
-0.00170164
-0.146268
-0.157336
-0.165285
-0.172066
-0.177738
-0.181796
-0.18388
-0.184004
-0.18222
-0.178577
-0.173073
-0.165791
-0.156877
-0.146499
-0.134986
-0.122537
-0.109693
-0.0965865
-0.0839034
-0.0716091
-0.0603655
-0.0499609
-0.0408271
-0.0327172
-0.0256929
-0.019619
-0.0143172
-0.0096369
-0.00558809
-0.00175857
-0.140693
-0.151805
-0.160054
-0.167064
-0.172957
-0.177318
-0.179784
-0.180311
-0.178941
-0.17572
-0.170653
-0.163807
-0.155325
-0.145364
-0.134243
-0.122159
-0.109621
-0.0967852
-0.0842821
-0.0721388
-0.0609437
-0.0505754
-0.0413963
-0.0332411
-0.0261357
-0.0199831
-0.0145998
-0.00984953
-0.00570935
-0.00181349
-0.135437
-0.146521
-0.155025
-0.162248
-0.168343
-0.172976
-0.175796
-0.176709
-0.175739
-0.172926
-0.168281
-0.161859
-0.153796
-0.144243
-0.133503
-0.121775
-0.109535
-0.0969649
-0.0846406
-0.0726454
-0.0615022
-0.0511698
-0.0419507
-0.0337517
-0.0265694
-0.0203401
-0.0148771
-0.0100579
-0.0058285
-0.00186612
-0.13052
-0.141519
-0.15023
-0.157648
-0.163928
-0.168804
-0.171946
-0.173226
-0.172637
-0.170215
-0.165975
-0.159961
-0.152303
-0.143143
-0.132771
-0.121388
-0.109438
-0.0971254
-0.084977
-0.073126
-0.0620373
-0.0517401
-0.0424864
-0.0342453
-0.0269905
-0.0206873
-0.0151471
-0.0102603
-0.00594463
-0.00191615
-0.125963
-0.136831
-0.145704
-0.153296
-0.159745
-0.164835
-0.168269
-0.169889
-0.169662
-0.167612
-0.163756
-0.158132
-0.150859
-0.142077
-0.132055
-0.121004
-0.109332
-0.0972667
-0.0852895
-0.0735774
-0.0625451
-0.052282
-0.0429988
-0.0347177
-0.0273953
-0.0210215
-0.0154072
-0.010455
-0.0060567
-0.00196326
-0.121787
-0.132491
-0.141481
-0.149227
-0.155828
-0.161108
-0.164801
-0.166733
-0.166843
-0.165143
-0.161646
-0.15639
-0.14948
-0.141055
-0.131365
-0.120627
-0.109219
-0.097389
-0.0855763
-0.0739967
-0.0630214
-0.0527907
-0.0434831
-0.0351644
-0.0277798
-0.0213393
-0.0156548
-0.01064
-0.00616352
-0.0020071
-0.118012
-0.128531
-0.1376
-0.145478
-0.152215
-0.157662
-0.16158
-0.163793
-0.164214
-0.162837
-0.159673
-0.154757
-0.148184
-0.140091
-0.130711
-0.120265
-0.109103
-0.0974929
-0.0858357
-0.0743804
-0.0634615
-0.0532613
-0.0439339
-0.0355804
-0.0281393
-0.0216367
-0.0158868
-0.0108131
-0.00626377
-0.00204732
-0.114662
-0.124987