/*--------------------------------*- C++ -*----------------------------------*\
  =========                 |
  \\      /  F ield         | OpenFOAM: The Open Source CFD Toolbox
   \\    /   O peration     | Website:  https://openfoam.org
    \\  /    A nd           | Version:  9
     \\/     M anipulation  |
\*---------------------------------------------------------------------------*/
FoamFile
{
    format      ascii;
    class       volVectorField;
    location    "55";
    object      U;
}
// * * * * * * * * * * * * * * * * * * * * * * * * * * * * * * * * * * * * * //

dimensions      [0 1 -1 0 0 0 0];

internalField   nonuniform List<vector> 
8500
(
(-0.00648202 0.00258554 0)
(-0.0291118 0.0044591 -6.16588e-23)
(-0.0611388 0.00491987 -3.3904e-24)
(-0.088933 0.00475538 6.42626e-37)
(-0.116326 0.00443868 -9.45708e-24)
(-0.136734 0.00383711 7.87446e-24)
(-0.160621 0.00378513 -5.33413e-23)
(-0.17147 0.00248029 -8.25534e-23)
(-0.191726 0.00351135 -7.55782e-23)
(-0.198821 0.00124267 -3.92042e-24)
(-0.00677553 0.00771591 1.77909e-22)
(-0.0293695 0.013321 5.76137e-23)
(-0.0610185 0.0147034 2.31261e-22)
(-0.0882571 0.0142132 0)
(-0.11507 0.0132626 0)
(-0.134501 0.0114636 1.58643e-23)
(-0.157822 0.011296 4.00954e-23)
(-0.166954 0.00738061 8.81175e-23)
(-0.186699 0.0104871 5.69078e-23)
(-0.191578 0.00356459 1.56905e-23)
(-0.00735451 0.0126924 -1.58096e-22)
(-0.0298811 0.0219619 0)
(-0.0607821 0.0242634 -2.17629e-22)
(-0.0869137 0.0234616 0)
(-0.112568 0.0218803 -3.78862e-23)
(-0.130041 0.0189144 3.1546e-23)
(-0.152231 0.0186033 0)
(-0.157883 0.0121142 0)
(-0.176648 0.0173668 0)
(-0.177115 0.00550056 0)
(-0.0082031 0.0174192 3.17934e-22)
(-0.0306392 0.0302402 -2.31418e-22)
(-0.0604381 0.0334533 -5.45841e-23)
(-0.0849193 0.0323612 -3.40437e-22)
(-0.108842 0.0301485 -3.41902e-22)
(-0.123371 0.0260771 3.18277e-23)
(-0.143853 0.0255469 -2.65745e-23)
(-0.144169 0.0165956 3.07025e-22)
(-0.161545 0.0241013 1.93049e-26)
(-0.155405 0.00685217 3.09473e-22)
(-0.00929899 0.0218103 -3.17934e-22)
(-0.0316326 0.0380223 -2.99193e-22)
(-0.0599974 0.0421302 8.21308e-23)
(-0.0822975 0.0407735 4.54355e-22)
(-0.103915 0.0379166 -3.87036e-23)
(-0.114515 0.0328445 5.05837e-22)
(-0.132681 0.0319305 0)
(-0.125668 0.0207677 -3.51677e-22)
(-0.14129 0.0306551 -7.50339e-23)
(-0.126224 0.0075332 -4.2992e-22)
(-0.0106149 0.0257929 8.01916e-23)
(-0.0328469 0.0451861 4.9752e-22)
(-0.0594713 0.0501556 -3.84658e-22)
(-0.0790771 0.0485621 -2.95884e-25)
(-0.097806 0.0450263 -3.44903e-22)
(-0.103508 0.0391169 1.27884e-22)
(-0.118681 0.0375092 -5.34084e-23)
(-0.102176 0.0245994 4.39865e-22)
(-0.115663 0.0369753 -7.52069e-23)
(-0.0889124 0.00769003 2.46254e-22)
(-0.0121208 0.0293098 4.01799e-23)
(-0.0342644 0.0516231 0)
(-0.0588686 0.0573966 -1.5662e-24)
(-0.0752876 0.0555945 0)
(-0.0905151 0.051315 6.11632e-22)
(-0.0903862 0.0448032 -5.06331e-22)
(-0.10176 0.0419825 0)
(-0.073433 0.0280926 -1.1255e-24)
(-0.0843143 0.0428441 0)
(-0.0420757 0.00793234 0)
(-0.0137854 0.0323212 -6.4825e-22)
(-0.0358643 0.0572408 -6.69972e-23)
(-0.0581904 0.0637288 4.96393e-22)
(-0.0709523 0.0617419 9.20633e-23)
(-0.0820063 0.0566211 -6.15494e-22)
(-0.0751702 0.0498273 -3.7921e-22)
(-0.0816988 0.0449896 -5.36987e-23)
(-0.0391493 0.031335 4.36391e-22)
(-0.0467842 0.0475359 -7.55173e-23)
(0.0166986 0.00930817 6.2403e-23)
(-0.015579 0.0348058 7.29818e-22)
(-0.0376217 0.0619645 -5.38768e-22)
(-0.0574247 0.0690397 -1.66434e-22)
(-0.0660762 0.0668798 9.18213e-23)
(-0.0721819 0.0607922 6.15426e-22)
(-0.0578342 0.0541428 5.71678e-22)
(-0.0580284 0.0461198 -5.38307e-23)
(0.00105009 0.0345076 8.73425e-23)
(-0.00286549 0.0502454 -1.51404e-22)
(0.09139 0.0123317 6.36968e-23)
(-0.017475 0.0367604 6.56235e-22)
(-0.0395063 0.0657385 5.39088e-22)
(-0.0565394 0.073232 -7.81329e-22)
(-0.0606306 0.0708888 -9.21308e-23)
(-0.0608446 0.0636866 0)
(-0.0382652 0.0577515 0)
(-0.0299612 0.0451671 0)
(0.0482053 0.0376311 -1.38251e-21)
(0.0471724 0.0500901 -6.35603e-22)
(0.185708 0.0175623 4.83119e-22)
(-0.0194512 0.0381986 -1.31674e-21)
(-0.0414796 0.0685263 0)
(-0.0554734 0.0762283 1.78891e-21)
(-0.0545343 0.0736577 7.4e-22)
(-0.0476528 0.0651788 7.7028e-23)
(-0.0160697 0.0605893 0)
(0.00350159 0.0423392 -8.81254e-22)
(0.10366 0.0410434 6.89876e-22)
(0.10498 0.0457426 6.35594e-22)
(0.301277 0.0254836 -4.831e-22)
(-0.0214907 0.0391488 7.43457e-22)
(-0.0434908 0.0703107 -6.80878e-23)
(-0.0541249 0.0779747 -8.96196e-22)
(-0.0476302 0.075092 -8.32971e-22)
(-0.0321714 0.0652655 0)
(0.00963174 0.0624004 1.01857e-21)
(0.0440624 0.0381303 5.17262e-25)
(0.168228 0.0455489 5.94765e-22)
(0.17582 0.0374214 7.13351e-22)
(0.436518 0.0352165 -4.78825e-22)
(-0.0235814 0.0396506 4.56726e-26)
(-0.0454715 0.0710932 1.16778e-21)
(-0.052336 0.0784434 -1.12803e-22)
(-0.0395992 0.0751 6.50464e-22)
(-0.0138773 0.0640389 3.88875e-22)
(0.0400508 0.0629617 2.59021e-22)
(0.0944982 0.0333957 8.7893e-22)
(0.242329 0.0510123 -7.73903e-22)
(0.267958 0.0290467 -4.86465e-22)
(0.585354 0.0455271 3.51709e-22)
(-0.0257153 0.0397517 0)
(-0.0473289 0.0708913 -9.61831e-22)
(-0.0498914 0.07764 -1.13299e-22)
(-0.0299292 0.073618 1.63036e-24)
(0.00805433 0.061582 6.20266e-22)
(0.0767054 0.0621807 -8.90446e-22)
(0.15796 0.0297346 8.73528e-22)
(0.32654 0.0559478 -8.87992e-23)
(0.387896 0.026549 0)
(0.737472 0.0563696 0)
(-0.0278867 0.0395036 8.45823e-23)
(-0.048936 0.0697384 -1.11088e-21)
(-0.0464996 0.0756124 0)
(-0.0179259 0.0706863 -9.18029e-23)
(0.0348257 0.0580423 7.74358e-23)
(0.121711 0.0599396 0)
(0.236829 0.029178 -8.75416e-22)
(0.422345 0.0592166 -6.84647e-22)
(0.533438 0.0333202 1.49599e-22)
(0.880697 0.0684829 -1.25721e-22)
(-0.0300865 0.0389535 -8.5026e-23)
(-0.0501256 0.0676858 1.18068e-21)
(-0.0417501 0.0724311 0)
(-0.00268733 0.0664641 -8.40025e-22)
(0.0679941 0.0537468 7.74791e-23)
(0.177735 0.0565616 -1.02038e-21)
(0.33163 0.0330717 -1.05606e-22)
(0.531632 0.0621114 7.73022e-22)
(0.69168 0.0480734 0)
(1.00445 0.0816349 9.52247e-22)
(-0.0322942 0.0381389 -1.2944e-21)
(-0.0506872 0.0647978 -7.02671e-23)
(-0.0350911 0.068189 -1.13753e-22)
(0.0169528 0.0612137 9.40908e-23)
(0.109518 0.0492813 -1.23678e-21)
(0.247619 0.0532926 1.02036e-21)
(0.440575 0.0414354 8.59527e-22)
(0.653296 0.0676775 6.84589e-22)
(0.844785 0.0670459 1.18677e-21)
(1.10254 0.0944492 -8.3309e-22)
(-0.0344742 0.0370877 1.38e-21)
(-0.0503543 0.0611408 0)
(-0.0258313 0.06302 1.03396e-21)
(0.042439 0.055287 -9.43692e-23)
(0.161641 0.0454663 2.4727e-21)
(0.333377 0.0521461 0)
(0.559786 0.0535546 -8.59509e-22)
(0.780341 0.0775537 -1.83443e-24)
(0.978025 0.0869294 -1.32983e-21)
(1.1738 0.105478 1.2025e-22)
(-0.0365715 0.0358161 0)
(-0.0487983 0.0567818 1.13775e-21)
(-0.0131352 0.0570984 -9.19868e-22)
(0.075459 0.0491517 0)
(0.226521 0.0433609 -1.23592e-21)
(0.43461 0.0551534 0)
(0.683362 0.0686785 8.4445e-22)
(0.902038 0.0908121 -6.82728e-22)
(1.08391 0.105761 -1.13116e-21)
(1.2211 0.113727 -9.08007e-22)
(-0.0385057 0.0343254 -1.75279e-22)
(-0.0456295 0.0517919 -9.93876e-22)
(0.00398275 0.0506398 0)
(0.117859 0.0434627 0)
(0.30551 0.0442093 0)
(0.547476 0.0632965 -1.26106e-22)
(0.803917 0.0858285 -8.46541e-22)
(1.00908 0.10561 -8.63592e-23)
(1.16169 0.122374 1.13115e-21)
(1.24983 0.118461 1.02144e-21)
(-0.0401676 0.0326062 0)
(-0.0403953 0.0462453 -1.15523e-21)
(0.0266594 0.0439127 0)
(0.171439 0.0391622 0)
(0.398166 0.0491496 0)
(0.665185 0.0760961 1.25213e-22)
(0.914395 0.103653 -1.0321e-21)
(1.09653 0.120577 7.96034e-23)
(1.21503 0.135548 8.03422e-22)
(1.26693 0.119059 8.7483e-22)
(-0.0414339 0.0306547 0)
(-0.0325672 0.0402036 1.15523e-21)
(0.0561783 0.0372829 -9.40855e-22)
(0.237522 0.0374987 0)
(0.5015 0.0586842 -1.23359e-21)
(0.780021 0.0920663 0)
(1.01001 0.120957 8.25468e-22)
(1.16363 0.13464 -6.56e-22)
(1.24962 0.144193 -1.07548e-21)
(1.29171 0.129643 -8.69943e-22)
(-0.0421641 0.0284568 1.47513e-21)
(-0.0215482 0.0337183 0)
(0.0939224 0.031309 8.24327e-22)
(0.316284 0.0397756 9.63771e-23)
(0.610217 0.0723373 2.4671e-21)
(0.885621 0.10953 0)
(1.0888 0.137023 -8.03941e-22)
(1.21244 0.146759 -1.30039e-21)
(1.2743 0.152399 -8.97534e-22)
(1.30099 0.135725 -5.29228e-24)
(-0.0421856 0.0259855 -1.56672e-21)
(-0.00666652 0.0268559 7.51791e-23)
(0.14121 0.0268539 1.17209e-22)
(0.406103 0.0468165 -9.69457e-23)
(0.718127 0.0888982 -1.23351e-21)
(0.978133 0.127177 9.91109e-22)
(1.15108 0.151439 8.03937e-22)
(1.2471 0.157419 6.44393e-22)
(1.28859 0.158845 1.02456e-21)
(1.30424 0.141494 -8.9798e-22)
(-0.0413077 0.023213 9.29129e-23)
(0.0128541 0.0197253 1.13015e-21)
(0.19896 0.0250947 0)
(0.503471 0.0585157 -6.73732e-22)
(0.819861 0.107021 -7.83533e-23)
(1.0561 0.144177 -9.91101e-22)
(1.19868 0.164256 9.59407e-23)
(1.27027 0.166577 5.37594e-22)
(1.29635 0.164541 0)
(1.30427 0.146502 7.9934e-22)
(-0.0393232 0.0201115 -9.61015e-23)
(0.0378956 0.0125607 -1.20641e-21)
(0.267241 0.0272679 0)
(0.603713 0.0739269 8.99293e-23)
(0.911838 0.125649 -7.8578e-23)
(1.11977 0.160125 0)
(1.2338 0.1756 -7.66617e-22)
(1.28491 0.174594 -6.17899e-22)
(1.29931 0.169535 -1.16845e-22)
(1.30105 0.151026 -9.82889e-23)
(-0.0359947 0.0166529 0)
(0.0693812 0.00584797 -1.39326e-21)
(0.344909 0.0341836 1.24707e-22)
(0.702159 0.0918106 -5.21313e-24)
(0.992295 0.144113 -6.15126e-22)
(1.17036 0.174878 -1.08214e-21)
(1.25875 0.18569 8.64899e-22)
(1.29317 0.181701 0)
(1.29891 0.174104 0)
(1.29674 0.155329 0)
(-0.0310286 0.0128175 2.28907e-24)
(0.108123 0.000429482 1.16879e-21)
(0.429611 0.0458519 1.26396e-22)
(0.795085 0.111116 8.73258e-22)
(1.06083 0.162042 5.361e-22)
(1.20949 0.188452 -1.04233e-22)
(1.27562 0.194752 7.44334e-22)
(1.29682 0.188152 -4.9779e-22)
(1.29633 0.178398 -5.5492e-22)
(1.29123 0.159483 4.43126e-22)
(-0.0240481 0.0086165 7.30907e-22)
(0.154595 -0.00252526 8.1951e-23)
(0.518205 0.0615524 -1.00977e-21)
(0.880081 0.131123 -7.87816e-22)
(1.11788 0.179258 0)
(1.2389 0.200947 9.52714e-22)
(1.28622 0.203011 -1.57944e-23)
(1.29715 0.194145 6.41376e-22)
(1.2922 0.182538 3.87994e-22)
(1.28524 0.163578 -3.5077e-22)
(-0.0145883 0.00412877 -1.68319e-21)
(0.2087 -0.0017598 0)
(0.607385 0.0802631 2.03575e-21)
(0.95592 0.15139 6.92381e-22)
(1.16436 0.195698 7.92113e-23)
(1.26026 0.212505 0)
(1.292 0.21067 -7.21884e-22)
(1.29511 0.199841 5.40766e-22)
(1.28708 0.186608 4.16012e-22)
(1.27879 0.16766 -3.25054e-22)
(-0.00212333 -0.000456115 8.52444e-22)
(0.269656 0.00368866 6.62147e-22)
(0.694216 0.10107 -1.15085e-21)
(1.02223 0.171677 1.0328e-22)
(1.2014 0.211371 0)
(1.27503 0.223282 0)
(1.29414 0.217904 0)
(1.29139 0.205357 -1.06439e-21)
(1.28124 0.190664 -4.16015e-22)
(1.27206 0.171745 3.25039e-22)
(0.0138656 -0.00479521 7.92633e-22)
(0.336072 0.0141906 -6.56417e-22)
(0.776407 0.12332 6.73444e-23)
(1.07919 0.191867 0)
(1.23019 0.226325 5.95924e-22)
(1.28448 0.233434 3.91845e-22)
(1.29352 0.224857 4.48199e-23)
(1.28645 0.210775 -4.38035e-23)
(1.27488 0.194738 9.90393e-23)
(1.26509 0.175846 -3.98095e-23)
(0.033762 -0.0083634 -8.99201e-22)
(0.406172 0.0294948 8.31162e-23)
(0.852357 0.146583 5.33023e-22)
(1.12727 0.211897 -1.47313e-22)
(1.25187 0.240631 -4.47008e-22)
(1.28967 0.243101 -5.56484e-22)
(1.29083 0.231638 4.37359e-23)
(1.28061 0.21615 2.62185e-22)
(1.26811 0.198848 0)
(1.25789 0.179955 -3.4815e-23)
(0.0577353 -0.0105022 -5.84141e-23)
(0.478063 0.0489429 0)
(0.9211 0.170556 6.16997e-24)
(1.1671 0.231715 0)
(1.26748 0.25437 5.79587e-22)
(1.29146 0.252405 -4.24978e-22)
(1.28653 0.238325 0)
(1.27407 0.221512 9.68935e-24)
(1.26099 0.202997 0)
(1.25047 0.184062 0)
(0.0857266 -0.0105215 -1.16754e-22)
(0.549937 0.0717698 7.58899e-22)
(0.982177 0.195018 -6.08336e-22)
(1.19939 0.251263 9.97755e-23)
(1.27797 0.26762 -2.65999e-22)
(1.2905 0.261444 -4.45555e-23)
(1.28098 0.244967 0)
(1.26695 0.226874 1.79529e-22)
(1.25354 0.207179 4.56351e-23)
(1.24281 0.18815 1.27183e-22)
(0.11744 -0.00782042 -4.93475e-22)
(0.620176 0.0972986 -3.05872e-22)
(1.03551 0.219809 -1.00119e-22)
(1.22482 0.270483 3.9847e-22)
(1.28414 0.280456 3.21598e-23)
(1.28735 0.270296 4.13212e-22)
(1.27443 0.251592 0)
(1.25933 0.232235 -2.13204e-22)
(1.24579 0.211383 3.88374e-23)
(1.23491 0.192198 -2.79269e-22)
(0.15238 -0.00199739 -4.93474e-22)
(0.687395 0.124992 3.1897e-22)
(1.08129 0.244805 -4.10474e-24)
(1.2441 0.289318 -4.63018e-22)
(1.28666 0.292938 -2.41013e-22)
(1.2824 0.279012 -2.30389e-23)
(1.26702 0.258207 1.92365e-23)
(1.25125 0.237582 2.37743e-22)
(1.23772 0.215589 -2.32038e-24)
(1.22674 0.196183 9.04073e-23)
(0.189904 0.00709854 -2.54705e-22)
(0.750446 0.154419 0)
(1.11987 0.269899 -2.73781e-22)
(1.25789 0.307719 0)
(1.28609 0.305112 -3.02829e-22)
(1.27595 0.287625 2.59145e-23)
(1.25887 0.264804 0)
(1.24272 0.242895 0)
(1.22932 0.219775 0)
(1.21829 0.200078 0)
(0.229273 0.0193903 2.23434e-22)
(0.808416 0.185199 1.07381e-22)
(1.15168 0.294984 2.73782e-22)
(1.26678 0.325651 0)
(1.28287 0.317008 0)
(1.26822 0.296144 -1.05402e-23)
(1.25004 0.271364 4.00419e-23)
(1.23375 0.248149 4.45729e-23)
(1.22059 0.223916 4.02522e-23)
(1.20959 0.203851 -6.65108e-24)
(0.269702 0.03465 -4.04512e-24)
(0.860659 0.216967 -1.00429e-22)
(1.1772 0.319944 4.5833e-24)
(1.27133 0.343095 5.26043e-24)
(1.27737 0.328641 -7.96644e-24)
(1.25937 0.304564 2.99748e-24)
(1.24057 0.277855 -3.47583e-23)
(1.22435 0.253311 -4.16298e-23)
(1.21153 0.227976 -3.05223e-23)
(1.20063 0.207469 1.1273e-24)
(0.310393 0.052581 0)
(0.906834 0.249376 -1.01332e-22)
(1.1968 0.344658 -3.00706e-24)
(1.27203 0.360037 6.26381e-24)
(1.26988 0.340009 1.08944e-37)
(1.2495 0.312859 -7.48321e-38)
(1.23049 0.28424 -3.0592e-23)
(1.21449 0.258347 -3.53075e-23)
(1.20211 0.231915 -2.70058e-23)
(1.19145 0.210898 0)
(0.350566 0.0728675 2.93213e-22)
(0.946844 0.282136 8.30562e-23)
(1.21087 0.369013 2.71604e-22)
(1.26929 0.376451 -1.21986e-23)
(1.26063 0.351094 0)
(1.23869 0.320992 8.79657e-24)
(1.21979 0.290475 1.99751e-23)
(1.20418 0.263218 3.80469e-23)
(1.19234 0.235684 2.10773e-23)
(1.18204 0.214116 4.98293e-24)
(0.389478 0.0952091 -2.61359e-22)
(0.980685 0.314985 0)
(1.21981 0.392887 -2.56858e-22)
(1.26346 0.3923 0)
(1.24979 0.361863 -2.44318e-23)
(1.227 0.328915 2.03434e-23)
(1.2085 0.296512 0)
(1.19341 0.267885 0)
(1.18222 0.239243 0)
(1.17234 0.217101 0)
(0.426443 0.119327 5.17889e-22)
(1.00844 0.347683 -3.29991e-22)
(1.22397 0.416156 -6.23633e-23)
(1.25484 0.407542 -2.48724e-22)
(1.23751 0.372266 -2.24361e-22)
(1.21446 0.336572 1.48754e-23)
(1.1966 0.302299 -1.24203e-23)
(1.18217 0.2723 9.51968e-23)
(1.17179 0.242562 2.11669e-24)
(1.16231 0.219828 6.23069e-23)
(0.460848 0.144955 -5.1789e-22)
(1.03026 0.380004 -3.96709e-22)
(1.22371 0.438695 8.63164e-23)
(1.24371 0.422125 2.96345e-22)
(1.22389 0.382245 -1.19934e-23)
(1.20109 0.343901 2.27258e-22)
(1.1841 0.307784 0)
(1.17046 0.276406 -1.08437e-22)
(1.16108 0.245631 -1.4969e-23)
(1.15189 0.222318 -7.43813e-23)
(0.492161 0.17182 1.22919e-22)
(1.04631 0.41173 6.79134e-22)
(1.21935 0.460375 -3.86922e-22)
(1.23031 0.435992 -7.15325e-23)
(1.20903 0.391734 -1.59057e-22)
(1.18691 0.350833 2.88913e-23)
(1.171 0.312909 -1.97554e-23)
(1.15831 0.280139 9.51353e-23)
(1.1501 0.248433 -1.58123e-23)
(1.14116 0.224605 3.83946e-23)
(0.519941 0.199632 6.22904e-23)
(1.0568 0.442649 0)
(1.21118 0.481065 2.6605e-23)
(1.21482 0.449074 0)
(1.19297 0.400656 3.26309e-22)
(1.17196 0.357299 -2.00962e-22)
(1.15733 0.317614 0)
(1.14579 0.283456 -1.68317e-23)
(1.13876 0.25091 0)
(1.13025 0.226498 0)
(0.543841 0.228081 -9.54245e-22)
(1.06196 0.472543 -7.22029e-23)
(1.19948 0.500631 4.69314e-22)
(1.19741 0.461294 5.02712e-23)
(1.17579 0.408926 -3.24042e-22)
(1.15629 0.363224 -1.03033e-22)
(1.14314 0.321837 -1.41499e-23)
(1.13291 0.286333 3.55148e-23)
(1.12703 0.25302 -8.99316e-24)
(1.11915 0.228035 2.6396e-24)
(0.563604 0.256831 1.06143e-21)
(1.062 0.501192 -6.29793e-22)
(1.18451 0.518936 -1.3378e-22)
(1.17822 0.47257 6.45285e-23)
(1.15757 0.416453 2.53056e-22)
(1.13998 0.36853 1.57722e-22)
(1.12843 0.325521 -1.11693e-23)
(1.11964 0.288735 -2.91565e-23)
(1.11497 0.254716 -7.55874e-24)
(1.10788 0.229152 1.78871e-24)
(0.579065 0.28553 8.75135e-22)
(1.05717 0.528371 6.09511e-22)
(1.16649 0.535831 -5.5474e-22)
(1.15743 0.482809 -5.76792e-23)
(1.13845 0.423164 0)
(1.12299 0.37313 0)
(1.11321 0.328611 0)
(1.10603 0.290622 -6.06881e-23)
(1.10259 0.255969 1.2929e-23)
(1.09646 0.229834 -3.04009e-23)
(0.590139 0.313819 -1.69999e-21)
(1.04774 0.553862 0)
(1.14563 0.551152 1.17211e-21)
(1.13523 0.491914 2.79515e-22)
(1.11848 0.428981 0)
(1.10531 0.376954 0)
(1.09753 0.331039 -1.51109e-23)
(1.09208 0.291951 1.20684e-23)
(1.08995 0.256741 -1.29291e-23)
(1.0849 0.230043 3.03997e-23)
(0.596823 0.341334 9.1316e-22)
(1.03399 0.577463 -7.24867e-23)
(1.12216 0.564727 -5.47637e-22)
(1.11177 0.499768 -3.03541e-22)
(1.09766 0.433823 1.99409e-23)
(1.08703 0.379934 3.14208e-23)
(1.08142 0.33275 5.08728e-23)
(1.07782 0.292683 -5.66098e-23)
(1.07706 0.256999 -7.70136e-23)
(1.07325 0.229751 7.51414e-23)
(0.599188 0.367708 -1.16838e-23)
(1.01625 0.59899 8.47354e-22)
(1.09637 0.576439 -7.30168e-23)
(1.08706 0.506207 1.38164e-22)
(1.07607 0.437613 4.17361e-23)
(1.0682 0.382004 -6.81307e-23)
(1.06493 0.333686 -4.18579e-23)
(1.0633 0.292779 7.17826e-23)
(1.06398 0.256709 -9.47286e-23)
(1.06153 0.228931 -5.54025e-23)
(0.597373 0.392576 0)
(0.994804 0.618216 -7.50199e-22)
(1.06851 0.586195 -6.14e-23)
(1.06122 0.511101 -6.67197e-23)
(1.05379 0.440245 -3.55896e-23)
(1.04887 0.383099 2.55841e-23)
(1.04812 0.333796 -1.46047e-22)
(1.04856 0.292201 0)
(1.05072 0.255836 0)
(1.04979 0.227546 0)
(0.591579 0.415609 7.40876e-23)
(0.969747 0.634796 -5.7287e-22)
(1.03894 0.593952 0)
(1.0344 0.514372 -7.00275e-23)
(1.03089 0.441632 7.43415e-25)
(1.02913 0.38316 0)
(1.03105 0.333034 1.40734e-22)
(1.03363 0.290917 1.81516e-22)
(1.03732 0.254344 -3.77651e-23)
(1.03806 0.225553 3.17204e-23)
(0.58203 0.436593 -5.19186e-23)
(0.941298 0.648428 6.1549e-22)
(1.00791 0.599564 0)
(1.00673 0.515984 -1.15909e-23)
(1.00748 0.441688 -6.09028e-24)
(1.00904 0.38213 2.57823e-22)
(1.01378 0.331359 2.88262e-23)
(1.01856 0.288893 -2.05644e-22)
(1.02382 0.252199 0)
(1.02638 0.22291 -3.29565e-22)
(0.568939 0.455307 -7.09199e-22)
(0.909937 0.658998 -3.36506e-23)
(0.975596 0.602821 3.3903e-24)
(0.978376 0.515868 -2.80438e-24)
(0.983647 0.440341 3.32295e-22)
(0.988686 0.379957 -2.57825e-22)
(0.996364 0.328733 -3.03529e-22)
(1.00339 0.286099 -2.62109e-22)
(1.01024 0.249373 -4.44581e-22)
(1.01489 0.219611 2.88447e-22)
(0.552426 0.471397 7.50197e-22)
(0.876229 0.666493 0)
(0.942215 0.603594 -1.27657e-22)
(0.949473 0.513958 1.27784e-23)
(0.959498 0.437529 -7.70085e-22)
(0.96816 0.376593 0)
(0.978871 0.325127 3.03532e-22)
(0.988141 0.282498 -4.05778e-23)
(0.996708 0.245838 5.03554e-22)
(1.00386 0.215695 -4.95236e-23)
(0.532703 0.484442 0)
(0.840559 0.67076 -1.01178e-23)
(0.907969 0.601819 1.12209e-22)
(0.920177 0.510184 0)
(0.935144 0.433202 4.37791e-22)
(0.947546 0.372 0)
(0.961356 0.320514 -4.13436e-22)
(0.972876 0.278049 3.02691e-22)
(0.983385 0.241555 5.63747e-22)
(0.993598 0.211229 4.50143e-22)
(0.510258 0.494275 -1.01052e-23)
(0.803269 0.671662 1.84126e-23)
(0.873089 0.597437 0)
(0.890647 0.504487 0)
(0.910703 0.427318 0)
(0.926937 0.366149 6.56796e-23)
(0.943879 0.314873 3.03883e-22)
(0.957684 0.272726 4.57979e-23)
(0.970463 0.236464 -5.63751e-22)
(0.983991 0.206162 -5.05682e-22)
(0.485508 0.500724 0)
(0.764704 0.669083 3.2213e-22)
(0.837815 0.590405 0)
(0.861043 0.496815 0)
(0.886297 0.419847 0)
(0.906426 0.359016 -7.4543e-23)
(0.926515 0.308191 6.45872e-22)
(0.942687 0.266534 -1.50047e-22)
(0.958024 0.230579 -5.1509e-22)
(0.974373 0.198996 -5.29806e-22)
(0.458863 0.503658 0)
(0.725223 0.662945 -3.22131e-22)
(0.802388 0.580695 5.45202e-22)
(0.831531 0.487133 0)
(0.862052 0.410768 8.62852e-22)
(0.886106 0.350587 0)
(0.909352 0.300454 -5.22504e-22)
(0.927996 0.259487 4.61444e-22)
(0.945819 0.224356 6.76538e-22)
(0.963472 0.193815 5.28437e-22)
(0.430734 0.502981 -5.2871e-22)
(0.685191 0.6532 0)
(0.767052 0.568297 -4.67216e-22)
(0.80228 0.475419 -6.45113e-23)
(0.838093 0.40007 -1.82992e-21)
(0.866079 0.340854 0)
(0.892483 0.291646 6.28561e-22)
(0.91368 0.251507 3.76553e-23)
(0.933966 0.217078 6.93461e-22)
(0.953 0.187184 2.43926e-24)
(0.40153 0.498643 5.75617e-22)
(0.644972 0.639831 -3.85026e-23)
(0.732051 0.55322 -9.04174e-23)
(0.773461 0.461666 -7.47913e-23)
(0.814551 0.387757 9.67071e-22)
(0.846443 0.329819 -8.56601e-22)
(0.875989 0.281787 -6.28565e-22)
(0.899742 0.242693 -4.99104e-22)
(0.922305 0.209226 -7.84972e-22)
(0.94251 0.180331 7.30012e-22)
(0.371655 0.490628 -5.99507e-23)
(0.604927 0.622851 -8.99149e-22)
(0.697624 0.535489 0)
(0.745245 0.445885 6.3592e-22)
(0.791556 0.373839 7.05918e-23)
(0.827305 0.317493 8.56606e-22)
(0.859962 0.270875 -8.55604e-23)
(0.886252 0.232995 -4.99465e-22)
(0.910984 0.200591 0)
(0.932322 0.172785 -6.50905e-22)
(0.341508 0.478961 6.81783e-23)
(0.565414 0.602304 9.48363e-22)
(0.664007 0.515151 0)
(0.717803 0.428102 -2.34688e-23)
(0.769235 0.358342 7.73747e-23)
(0.808765 0.303898 0)
(0.844477 0.258939 7.77254e-22)
(0.873246 0.222466 5.71081e-22)
(0.900022 0.191308 1.10089e-22)
(0.922484 0.164702 -9.24719e-23)
(0.311475 0.463704 0)
(0.526781 0.578261 1.39529e-21)
(0.631429 0.492267 -1.23911e-22)
(0.691302 0.408358 6.72088e-23)
(0.747718 0.341301 6.79113e-22)
(0.790927 0.289063 1.18326e-21)
(0.829615 0.246 -8.81104e-22)
(0.860785 0.211114 0)
(0.889489 0.181354 0)
(0.913081 0.156041 0)
(0.281929 0.444956 2.41586e-24)
(0.489363 0.550822 -1.15815e-21)
(0.600114 0.466918 1.37432e-22)
(0.665906 0.386709 -9.6661e-22)
(0.72713 0.322763 -5.88902e-22)
(0.773888 0.273028 1.93401e-22)
(0.81545 0.232095 -8.74629e-22)
(0.848923 0.198976 5.83286e-22)
(0.879436 0.170768 6.36072e-22)
(0.904166 0.146836 -5.00137e-22)
(0.253228 0.422852 -8.01902e-22)
(0.45348 0.520111 -8.96205e-23)
(0.570276 0.439204 1.2521e-21)
(0.641774 0.363229 9.83017e-22)
(0.707593 0.302786 0)
(0.757745 0.255842 -1.12058e-21)
(0.802057 0.217262 -4.09541e-23)
(0.837716 0.186083 -7.50629e-22)
(0.86992 0.159572 -4.45912e-22)
(0.895785 0.137107 3.98242e-22)
(0.225713 0.397575 1.91588e-21)
(0.41943 0.486266 0)
(0.54212 0.409237 -2.58861e-21)
(0.619057 0.338002 -8.60361e-22)
(0.689226 0.281441 -1.01818e-22)
(0.74259 0.237561 0)
(0.789505 0.20155 9.07477e-22)
(0.827219 0.172478 -7.2472e-22)
(0.860989 0.147796 -5.55565e-22)
(0.887979 0.126886 4.28521e-22)
(0.199698 0.369345 -1.0048e-21)
(0.38749 0.449445 -8.80851e-22)
(0.515846 0.377145 1.50357e-21)
(0.5979 0.31113 -1.38186e-22)
(0.672139 0.258806 0)
(0.728511 0.218251 0)
(0.777862 0.185011 0)
(0.817485 0.158203 1.47445e-21)
(0.852695 0.135475 5.55567e-22)
(0.880781 0.116205 -4.28521e-22)
(0.175454 0.338383 -1.0323e-21)
(0.357927 0.40986 8.77773e-22)
(0.491647 0.343071 9.22786e-23)
(0.578441 0.282728 0)
(0.65644 0.234973 -8.73609e-22)
(0.71559 0.197985 -5.86244e-22)
(0.767189 0.167704 -6.54616e-23)
(0.808564 0.143307 1.14001e-22)
(0.845081 0.122646 -1.46453e-22)
(0.874222 0.105103 5.87313e-23)
(0.153217 0.304893 1.17249e-21)
(0.330996 0.367764 -1.17822e-22)
(0.469696 0.307178 -9.64322e-22)
(0.560807 0.252921 2.15918e-22)
(0.642225 0.210039 6.50788e-22)
(0.703901 0.176844 8.34295e-22)
(0.757547 0.149696 -6.75605e-23)
(0.800502 0.127842 -3.76045e-22)
(0.838193 0.109353 0)
(0.86833 0.0936204 5.55315e-23)
(0.133215 0.269101 7.99641e-23)
(0.306922 0.32342 0)
(0.450146 0.269647 -2.84563e-23)
(0.545113 0.221849 0)
(0.629584 0.184114 -9.29455e-22)
(0.693516 0.154915 7.03282e-22)
(0.748986 0.131056 0)
(0.793343 0.111864 8.96528e-24)
(0.832068 0.0956416 0)
(0.863126 0.081802 0)
(0.115656 0.231269 1.65495e-22)
(0.285908 0.277098 -1.12952e-21)
(0.433134 0.230672 9.02195e-22)
(0.531463 0.189661 -1.55641e-22)
(0.618596 0.157313 4.02713e-22)
(0.684494 0.13229 1.09225e-22)
(0.741555 0.111859 0)
(0.787127 0.0954348 -3.07445e-22)
(0.826745 0.0815611 -8.21813e-23)
(0.858633 0.0696937 -2.41048e-22)
(0.100729 0.191677 7.05402e-22)
(0.268125 0.229078 -1.67447e-21)
(0.418775 0.190455 1.54863e-22)
(0.519947 0.156513 -6.48726e-22)
(0.60933 0.129758 -7.24708e-23)
(0.676891 0.109068 -7.18771e-22)
(0.735296 0.0921839 0)
(0.781888 0.0786183 4.19438e-22)
(0.822255 0.0671647 -7.5995e-23)
(0.854864 0.057342 5.49214e-22)
(0.0885913 0.150623 -7.05403e-22)
(0.253721 0.179651 6.13627e-22)
(0.407169 0.149212 -1.06794e-22)
(0.510641 0.122569 7.61576e-22)
(0.601846 0.101579 4.20856e-22)
(0.670752 0.085351 4.40214e-23)
(0.730245 0.0721135 -3.67555e-23)
(0.777659 0.0614821 -4.69912e-22)
(0.818627 0.0525086 3.86268e-24)
(0.851834 0.0447936 -1.82513e-22)
(0.0793736 0.108418 3.68276e-22)
(0.242813 0.129119 0)
(0.398394 0.107161 4.38009e-22)
(0.503607 0.0879995 0)
(0.596191 0.0729101 5.91397e-23)
(0.666115 0.0612449 -4.92429e-23)
(0.72643 0.0517328 0)
(0.774464 0.0440956 0)
(0.815884 0.0376503 0)
(0.849553 0.0320964 0)
(0.0731736 0.0653839 -3.22604e-22)
(0.235492 0.0777908 -1.2457e-22)
(0.392511 0.0645295 -4.38009e-22)
(0.498892 0.0529802 0)
(0.592401 0.0438877 0)
(0.663008 0.0368591 2.24268e-23)
(0.723874 0.0311291 -8.97758e-23)
(0.772322 0.0265293 -1.07534e-22)
(0.814044 0.0226476 -1.01321e-22)
(0.848028 0.0192968 1.64111e-23)
(0.0700571 0.0218497 -5.8364e-24)
(0.231816 0.0259828 1.34336e-22)
(0.389559 0.021548 -6.07693e-24)
(0.496526 0.0176896 2.09087e-23)
(0.590499 0.0146524 -8.26328e-24)
(0.661449 0.0123046 0)
(0.722593 0.0103909 7.10506e-23)
(0.771248 0.00885476 1.07535e-22)
(0.81312 0.00755847 7.68824e-23)
(0.847264 0.00643834 1.16111e-23)
(0.0700571 -0.0218519 -5.8364e-24)
(0.231816 -0.0259855 1.34336e-22)
(0.389559 -0.0215504 -6.07693e-24)
(0.496527 -0.0176917 2.09087e-23)
(0.590499 -0.0146542 -8.26328e-24)
(0.66145 -0.0123062 0)
(0.722593 -0.0103922 6.25567e-23)
(0.771248 -0.00885595 1.14644e-22)
(0.81312 -0.00755951 8.17822e-23)
(0.847264 -0.00643925 0)
(0.0731737 -0.0653861 -4.13948e-22)
(0.235492 -0.0777934 -1.61496e-22)
(0.392511 -0.0645318 -4.64363e-22)
(0.498892 -0.0529823 2.17993e-23)
(0.592401 -0.0438895 0)
(0.663008 -0.0368607 -2.24268e-23)
(0.723875 -0.0311304 -5.23254e-23)
(0.772322 -0.0265305 -1.07534e-22)
(0.814044 -0.0226487 -6.22435e-23)
(0.848028 -0.0192977 -1.64111e-23)
(0.0793739 -0.10842 3.68276e-22)
(0.242814 -0.129121 0)
(0.398394 -0.107163 4.38009e-22)
(0.503608 -0.0880015 0)
(0.596191 -0.0729119 5.91396e-23)
(0.666115 -0.0612465 -4.92429e-23)
(0.72643 -0.0517342 0)
(0.774464 -0.0440968 0)
(0.815884 -0.0376514 0)
(0.849553 -0.0320973 0)
(0.0885916 -0.150625 -7.05401e-22)
(0.253722 -0.179654 4.79172e-22)
(0.407169 -0.149214 1.06794e-22)
(0.510641 -0.122571 5.21478e-22)
(0.601847 -0.101581 5.49563e-22)
(0.670753 -0.0853525 -4.40214e-23)
(0.730245 -0.0721149 3.67555e-23)
(0.777659 -0.0614833 -3.68964e-22)
(0.818627 -0.0525096 -3.86267e-24)
(0.851835 -0.0447945 -3.06157e-22)
(0.100729 -0.191679 7.05401e-22)
(0.268126 -0.22908 5.81665e-22)
(0.418776 -0.190458 -1.54862e-22)
(0.519947 -0.156515 -6.34325e-22)
(0.609331 -0.12976 5.3927e-23)
(0.676891 -0.10907 -7.1877e-22)
(0.735297 -0.0921852 0)
(0.781889 -0.0786194 4.19437e-22)
(0.822255 -0.0671657 7.59949e-23)
(0.854865 -0.0573429 4.21551e-22)
(0.115657 -0.231271 -1.65494e-22)
(0.285908 -0.2771 1.12951e-21)
(0.433135 -0.230674 7.05799e-22)
(0.531463 -0.189663 1.55641e-22)
(0.618596 -0.157314 5.04327e-22)
(0.684495 -0.132292 -1.6334e-22)
(0.741556 -0.11186 7.10445e-23)
(0.787127 -0.095436 -5.03389e-22)
(0.826745 -0.0815621 8.21812e-23)
(0.858633 -0.0696946 -2.41047e-22)
(0.133215 -0.269103 -7.99638e-23)
(0.306923 -0.323422 0)
(0.450147 -0.26965 -2.84566e-23)
(0.545113 -0.221851 0)
(0.629585 -0.184116 -9.29453e-22)
(0.693516 -0.154917 7.0328e-22)
(0.748987 -0.131057 0)
(0.793344 -0.111865 8.96541e-24)
(0.832069 -0.0956425 0)
(0.863127 -0.0818029 0)
(0.153218 -0.304895 1.17249e-21)
(0.330997 -0.367766 1.17822e-22)
(0.469696 -0.307181 -6.78461e-22)
(0.560808 -0.252923 -1.40058e-22)
(0.642226 -0.210041 1.09643e-21)
(0.703902 -0.176846 4.94999e-22)
(0.757547 -0.149697 6.75603e-23)
(0.800503 -0.127843 -4.69812e-22)
(0.838193 -0.109354 7.86548e-23)
(0.86833 -0.0936212 -5.55314e-23)
(0.175454 -0.338385 -1.31268e-21)
(0.357928 -0.409863 8.8393e-22)
(0.491648 -0.343073 8.3355e-23)
(0.578442 -0.28273 -1.4528e-22)
(0.656441 -0.234974 -8.73607e-22)
(0.71559 -0.197987 -7.43046e-22)
(0.76719 -0.167706 6.54614e-23)
(0.808565 -0.143308 -6.84683e-23)
(0.845082 -0.122647 1.46452e-22)
(0.874223 -0.105103 -5.87312e-23)
(0.199699 -0.369347 -1.00479e-21)
(0.387491 -0.449448 -8.80847e-22)
(0.515847 -0.377148 1.16945e-21)
(0.597901 -0.311132 1.38186e-22)
(0.67214 -0.258808 0)
(0.728512 -0.218252 0)
(0.777862 -0.185012 0)
(0.817486 -0.158204 1.47444e-21)
(0.852695 -0.135476 5.55565e-22)
(0.880781 -0.116206 -4.28519e-22)
(0.225714 -0.397577 1.91586e-21)
(0.419431 -0.486268 0)
(0.542121 -0.40924 -2.5886e-21)
(0.619058 -0.338004 -9.83016e-22)
(0.689227 -0.281443 0)
(0.742591 -0.237562 0)
(0.789506 -0.201551 9.07473e-22)
(0.82722 -0.172479 -7.24717e-22)
(0.86099 -0.147797 -5.55563e-22)
(0.887979 -0.126886 4.2852e-22)
(0.253229 -0.422855 -1.02025e-21)
(0.453481 -0.520113 8.96199e-23)
(0.570277 -0.439206 1.2521e-21)
(0.641775 -0.36323 1.09889e-21)
(0.707594 -0.302788 -9.61892e-23)
(0.757746 -0.255843 -1.12058e-21)
(0.802058 -0.217263 -4.09544e-23)
(0.837717 -0.186084 -5.86459e-22)
(0.86992 -0.159573 -5.83616e-22)
(0.895786 -0.137108 3.9824e-22)
(0.28193 -0.444958 -2.41593e-24)
(0.489364 -0.550825 -1.33164e-21)
(0.600116 -0.46692 -1.37431e-22)
(0.665907 -0.386711 -7.49242e-22)
(0.727131 -0.322764 -5.99411e-22)
(0.773889 -0.27303 -2.11506e-22)
(0.815451 -0.232096 -8.58398e-22)
(0.848924 -0.198977 7.53796e-22)
(0.879437 -0.170769 3.93453e-22)
(0.904166 -0.146837 -2.96347e-22)
(0.311476 -0.463706 0)
(0.526782 -0.578263 1.09449e-21)
(0.631431 -0.492269 1.23909e-22)
(0.691303 -0.408359 6.72092e-23)
(0.747719 -0.341302 6.79109e-22)
(0.790928 -0.289064 9.34506e-22)
(0.829616 -0.246001 -7.70079e-22)
(0.860786 -0.211115 8.09147e-23)
(0.889489 -0.181354 0)
(0.913081 -0.156042 0)
(0.34151 -0.478963 -6.81773e-23)
(0.565416 -0.602306 9.48352e-22)
(0.664008 -0.515153 0)
(0.717804 -0.428104 1.62958e-22)
(0.769237 -0.358343 -7.73741e-23)
(0.808767 -0.303899 0)
(0.844478 -0.25894 7.77249e-22)
(0.873247 -0.222467 5.71077e-22)
(0.900023 -0.191309 -1.10089e-22)
(0.922485 -0.164702 9.24713e-23)
(0.371657 -0.49063 5.99496e-23)