/*--------------------------------*- C++ -*----------------------------------*\
  =========                 |
  \\      /  F ield         | OpenFOAM: The Open Source CFD Toolbox
   \\    /   O peration     | Website:  https://openfoam.org
    \\  /    A nd           | Version:  7
     \\/     M anipulation  |
\*---------------------------------------------------------------------------*/
FoamFile
{
    version     2.0;
    format      ascii;
    class       volVectorField;
    location    "3.1";
    object      U;
}
// * * * * * * * * * * * * * * * * * * * * * * * * * * * * * * * * * * * * * //

dimensions      [0 1 -1 0 0 0 0];

internalField   nonuniform List<vector> 
64512
(
(3 -1.95573e-16 0)
(3 -1.15738e-16 0)
(3 -1.31482e-17 0)
(3 -8.00581e-17 0)
(3 -7.56941e-17 0)
(3 -3.32977e-16 0)
(3 -7.00659e-16 0)
(3 -1.41276e-15 0)
(3 -9.34925e-16 0)
(3 -2.8769e-16 0)
(3 1.06874e-15 0)
(3 1.10352e-15 0)
(3 -1.86976e-16 0)
(3 -2.75646e-16 0)
(3 1.75214e-16 0)
(3 2.47759e-16 0)
(3 2.43274e-16 0)
(3 2.29744e-16 0)
(3 -3.17281e-16 0)
(3 -4.64224e-16 0)
(3 -8.42361e-16 0)
(3 -7.82467e-16 0)
(3 -4.63036e-16 0)
(3 -1.20277e-16 0)
(3 -3.40111e-18 0)
(3 -5.1631e-16 0)
(3 -9.3259e-16 0)
(3 -9.49864e-16 0)
(3 -7.2119e-16 0)
(3 -6.55428e-16 0)
(3 -3.43848e-16 0)
(3 5.0461e-17 0)
(3 7.89316e-17 0)
(3 1.03423e-16 0)
(3 4.73452e-17 0)
(3 7.35029e-16 0)
(3 1.66618e-15 0)
(3 4.95982e-16 0)
(3 -1.16592e-16 0)
(3 -1.80975e-16 0)
(3 -8.23831e-16 0)
(3 -1.02506e-15 0)
(3 5.36217e-17 0)
(3 -8.99206e-17 0)
(3 -1.51114e-16 0)
(3 -1.73126e-16 0)
(3 -9.52183e-17 0)
(3 3.50522e-16 0)
(3 -3.42481e-17 0)
(1.22348 0.00414811 0)
(0.772765 0.00286371 0)
(0.750198 0.00760591 0)
(0.732788 0.00736338 0)
(0.715863 0.00678146 0)
(0.700421 0.00602824 0)
(0.686252 0.00562411 0)
(0.672724 0.00562734 0)
(0.659111 0.00592606 0)
(0.644778 0.00647009 0)
(0.629222 0.00712209 0)
(0.612397 0.00757821 0)
(0.595031 0.00748126 0)
(0.57837 0.00680839 0)
(0.563238 0.00613168 0)
(0.549394 0.00592358 0)
(0.535963 0.00618026 0)
(0.522119 0.00677625 0)
(0.507205 0.00755836 0)
(0.490593 0.0081108 0)
(0.473268 0.00786524 0)
(0.456757 0.00713852 0)
(0.441422 0.0069035 0)
(0.42628 0.00733329 0)
(0.410299 0.0078614 0)
(0.393718 0.00797679 0)
(0.377238 0.00782097 0)
(0.361012 0.0077916 0)
(0.344646 0.00791316 0)
(0.328013 0.00804543 0)
(0.311233 0.00814732 0)
(0.29449 0.00822457 0)
(0.277724 0.00829352 0)
(0.260877 0.0083749 0)
(0.243913 0.00847838 0)
(0.226771 0.00860501 0)
(0.209403 0.00873447 0)
(0.191755 0.00887579 0)
(0.173707 0.00904415 0)
(0.155093 0.00926041 0)
(0.135813 0.00949395 0)
(0.115918 0.00974319 0)
(0.0954724 0.0100332 0)
(0.0745873 0.0102914 0)
(0.0533492 0.0105344 0)
(0.0319766 0.0106125 0)
(0.0108118 0.0106828 0)
(3 -9.27302e-17 0)
(3 -6.04614e-17 0)
(3 -2.0524e-16 0)
(3 -6.08777e-16 0)
(3 -8.60819e-16 0)
(3 -1.4862e-15 0)
(3 -2.60165e-15 0)
(3 -3.31461e-15 0)
(3 -2.1528e-15 0)
(3 -1.19832e-16 0)
(3 1.25821e-15 0)
(3 1.88524e-15 0)
(3 1.12588e-15 0)
(3 4.66852e-16 0)
(3 9.27427e-16 0)
(3 5.55255e-16 0)
(3 3.38989e-16 0)
(3 3.46612e-17 0)
(3 -2.72444e-16 0)
(3 -3.65536e-16 0)
(3 -1.42608e-15 0)
(3 -1.45103e-15 0)
(3 -1.1289e-15 0)
(3 -1.02946e-16 0)
(3 6.84262e-16 0)
(3 2.17795e-16 0)
(3 -3.01507e-16 0)
(3 -2.09116e-16 0)
(3 -1.93593e-16 0)
(3 -4.41342e-16 0)
(3 -8.79766e-16 0)
(3 -1.323e-15 0)
(3 -6.79256e-16 0)
(3 -7.88948e-17 0)
(3 2.18117e-16 0)
(3 7.27787e-16 0)
(3 1.12596e-15 0)
(3 5.49051e-16 0)
(3 8.26606e-16 0)
(3 -7.78137e-16 0)
(3 -1.34298e-15 0)
(3 -2.31002e-15 0)
(3 -6.9229e-16 0)
(3 -3.97495e-16 0)
(3 -3.92756e-16 0)
(3 -8.13363e-16 0)
(3 -7.62631e-16 0)
(3 -4.89995e-16 0)
(3 3.48809e-16 0)
(1.23117 0.0193738 0)
(0.769466 0.0130337 0)
(0.746572 0.0212032 0)
(0.730138 0.0212235 0)
(0.713412 0.0200179 0)
(0.697691 0.0179857 0)
(0.683045 0.0164915 0)
(0.669174 0.0161857 0)
(0.655432 0.0169541 0)
(0.641184 0.0185875 0)
(0.625918 0.0206073 0)
(0.609501 0.0220901 0)
(0.592491 0.0220876 0)
(0.575904 0.020481 0)
(0.560488 0.0184977 0)
(0.546251 0.0175609 0)
(0.53257 0.0180715 0)
(0.518663 0.0197566 0)
(0.503866 0.0221038 0)
(0.487436 0.023808 0)
(0.47024 0.0232756 0)
(0.453709 0.0213076 0)
(0.438121 0.0205213 0)
(0.42285 0.0216683 0)
(0.406896 0.0231687 0)
(0.390419 0.0235207 0)
(0.374048 0.0231682 0)
(0.357864 0.0231859 0)
(0.341519 0.0235937 0)
(0.324934 0.0239995 0)
(0.308241 0.0243166 0)
(0.291603 0.0245682 0)
(0.274944 0.0247952 0)
(0.258211 0.0250563 0)
(0.241376 0.0253857 0)
(0.22439 0.0257953 0)
(0.207203 0.026221 0)
(0.189758 0.0266768 0)
(0.171941 0.0271964 0)
(0.153591 0.0278456 0)
(0.134602 0.0285493 0)
(0.115011 0.0293156 0)
(0.0948591 0.0302254 0)
(0.0742304 0.0310545 0)
(0.0532015 0.0318424 0)
(0.0319674 0.0321434 0)
(0.0108556 0.0324517 0)
(3 1.00914e-16 0)
(3 -2.25817e-17 0)
(3 9.82527e-18 0)
(3 -1.67691e-16 0)
(3 -5.50577e-16 0)
(3 -1.015e-15 0)
(3 -1.43421e-15 0)
(3 -1.8737e-15 0)
(3 -1.88098e-15 0)
(3 -1.32091e-15 0)
(3 -4.05326e-16 0)
(3 -8.94213e-17 0)
(3 5.54294e-16 0)
(3 1.29448e-15 0)
(3 1.13992e-15 0)
(3 2.76305e-16 0)
(3 1.89922e-16 0)
(3 -7.93651e-16 0)
(3 -6.66016e-16 0)
(3 -4.17917e-16 0)
(3 -7.45507e-16 0)
(3 -8.79326e-16 0)
(3 -8.37469e-16 0)
(3 -3.69339e-16 0)
(3 -5.08156e-16 0)
(3 -4.06353e-16 0)
(3 1.15126e-15 0)
(3 1.20971e-15 0)
(3 8.33309e-17 0)
(3 -9.06322e-16 0)
(3 -1.69455e-15 0)
(3 -2.48908e-15 0)
(3 -1.81439e-15 0)
(3 -1.34441e-15 0)
(3 -1.4754e-15 0)
(3 -1.0984e-15 0)
(3 -3.51233e-17 0)
(3 1.53653e-15 0)
(3 1.41726e-15 0)
(3 -4.63459e-16 0)
(3 -1.80159e-15 0)
(3 -2.04997e-15 0)
(3 -1.9952e-15 0)
(3 -1.68095e-15 0)
(3 -1.06276e-15 0)
(3 -1.26153e-15 0)
(3 -1.58262e-15 0)
(3 -2.14038e-15 0)
(3 -1.53405e-15 0)
(1.25193 0.0332262 0)
(0.769856 0.0233252 0)
(0.747027 0.0341889 0)
(0.731248 0.0350294 0)
(0.714666 0.0337739 0)
(0.69854 0.0309994 0)
(0.683062 0.0286526 0)
(0.668341 0.0279111 0)
(0.653996 0.0288343 0)
(0.639502 0.0311596 0)
(0.624366 0.0341612 0)
(0.608317 0.0364163 0)
(0.591713 0.036566 0)
(0.575303 0.034456 0)
(0.559648 0.0316059 0)
(0.544895 0.0300407 0)
(0.530738 0.0306468 0)
(0.516563 0.0331599 0)
(0.501777 0.0368279 0)
(0.485456 0.0395042 0)
(0.468337 0.0387841 0)
(0.451775 0.0358388 0)
(0.435826 0.0345948 0)
(0.420265 0.0363289 0)
(0.404167 0.0386163 0)
(0.387598 0.039099 0)
(0.371153 0.0385441 0)
(0.354842 0.0386325 0)
(0.338362 0.0393089 0)
(0.32166 0.0399356 0)
(0.304881 0.0404178 0)
(0.28817 0.0408145 0)
(0.271444 0.0411841 0)
(0.254663 0.0416041 0)
(0.237813 0.0421181 0)
(0.220853 0.0427482 0)
(0.203736 0.0434022 0)
(0.186417 0.0441178 0)
(0.168806 0.0449539 0)
(0.150762 0.0460145 0)
(0.132168 0.0471648 0)
(0.113021 0.048415 0)
(0.0933249 0.0499233 0)
(0.0731196 0.0513381 0)
(0.052486 0.0527324 0)
(0.0315933 0.0533591 0)
(0.0107765 0.054038 0)
(3 4.17551e-17 0)
(3 1.88964e-17 0)
(3 2.48193e-16 0)
(3 6.42081e-16 0)
(3 3.93191e-16 0)
(3 4.89717e-17 0)
(3 -1.12285e-15 0)
(3 -1.62004e-15 0)
(3 -2.82782e-15 0)
(3 -2.53005e-15 0)
(3 -2.3368e-15 0)
(3 -2.06074e-15 0)
(3 -8.47214e-16 0)
(3 -1.22799e-16 0)
(3 5.81506e-16 0)
(3 1.16421e-15 0)
(3 4.22368e-16 0)
(3 -4.14068e-16 0)
(3 -5.58433e-16 0)
(3 -9.12751e-16 0)
(3 -9.74231e-16 0)
(3 -2.09236e-16 0)
(3 -4.47064e-16 0)
(3 -5.49957e-16 0)
(3 -9.43553e-16 0)
(3 -1.72678e-16 0)
(3 6.2618e-16 0)
(3 3.29258e-16 0)
(3 -8.07277e-16 0)
(3 -1.47777e-15 0)
(3 -1.73135e-15 0)
(3 -1.61614e-15 0)
(3 -1.19768e-15 0)
(3 -1.64724e-15 0)
(3 -1.2565e-15 0)
(3 -4.38658e-16 0)
(3 3.03138e-16 0)
(3 1.2578e-15 0)
(3 9.9122e-16 0)
(3 -1.54008e-16 0)
(3 -7.46042e-16 0)
(3 -9.05717e-16 0)
(3 -8.60595e-16 0)
(3 -1.19168e-15 0)
(3 -1.04856e-15 0)
(3 -8.3419e-16 0)
(3 -9.08857e-16 0)
(3 -1.54556e-15 0)
(3 -1.79323e-15 0)
(1.28189 0.0463174 0)
(0.770761 0.0337184 0)
(0.747819 0.0462542 0)
(0.732805 0.0481447 0)
(0.716634 0.0472504 0)
(0.700467 0.0442819 0)
(0.684585 0.0413077 0)
(0.669379 0.0400617 0)
(0.654695 0.0409647 0)
(0.640132 0.0437315 0)
(0.625237 0.0473993 0)
(0.609618 0.0502002 0)
(0.59343 0.05058 0)
(0.577154 0.0483985 0)
(0.561254 0.04511 0)
(0.546035 0.0430144 0)
(0.531463 0.0436034 0)
(0.517098 0.0467453 0)
(0.502433 0.0515113 0)
(0.486299 0.0550201 0)
(0.469244 0.0542982 0)
(0.452556 0.0507078 0)
(0.436147 0.0491398 0)
(0.420206 0.0513742 0)
(0.403884 0.0543184 0)
(0.387115 0.0548997 0)
(0.370454 0.054207 0)
(0.353857 0.0544305 0)
(0.337085 0.0553871 0)
(0.320102 0.0562152 0)
(0.303061 0.0568439 0)
(0.28608 0.0573784 0)
(0.269073 0.0578824 0)
(0.252012 0.0584358 0)
(0.234901 0.0590797 0)
(0.217714 0.0598491 0)
(0.200416 0.0606348 0)
(0.182992 0.0615097 0)
(0.165389 0.0625616 0)
(0.147503 0.0639367 0)
(0.129206 0.0654451 0)
(0.110457 0.0671008 0)
(0.0912288 0.0691628 0)
(0.0715086 0.0711638 0)
(0.051386 0.0732116 0)
(0.0309718 0.0742549 0)
(0.0106167 0.0754267 0)
(3 6.5546e-17 0)
(3 -7.97417e-17 0)
(3 -3.11909e-16 0)
(3 -3.72239e-16 0)
(3 -4.02246e-16 0)
(3 -6.33548e-16 0)
(3 -1.01937e-15 0)
(3 -7.10619e-16 0)
(3 -3.92208e-16 0)
(3 -7.83086e-16 0)
(3 -1.77826e-15 0)
(3 -1.34147e-15 0)
(3 7.99832e-17 0)
(3 6.95253e-16 0)
(3 1.53478e-15 0)
(3 2.00057e-15 0)
(3 1.65477e-15 0)
(3 1.56429e-15 0)
(3 1.02918e-15 0)
(3 -6.07794e-16 0)
(3 -6.63994e-16 0)
(3 -4.32889e-16 0)
(3 -4.05694e-16 0)
(3 -8.19069e-16 0)
(3 -8.29866e-16 0)
(3 -6.10933e-16 0)
(3 -2.74928e-16 0)
(3 -5.50049e-16 0)
(3 -6.67175e-17 0)
(3 -4.9814e-16 0)
(3 -1.74122e-16 0)
(3 -1.28022e-16 0)
(3 6.07099e-17 0)
(3 3.08491e-16 0)
(3 1.37141e-15 0)
(3 1.14694e-15 0)
(3 1.13854e-15 0)
(3 3.48258e-16 0)
(3 -1.90053e-17 0)
(3 -5.67468e-16 0)
(3 -1.01238e-15 0)
(3 -1.07407e-15 0)
(3 -8.4659e-16 0)
(3 -1.34516e-15 0)
(3 -1.69031e-15 0)
(3 -1.42257e-15 0)
(3 -1.25304e-15 0)
(3 -1.07001e-15 0)
(3 8.42624e-16 0)
(1.32188 0.0593055 0)
(0.77251 0.0441867 0)
(0.748276 0.057822 0)
(0.733567 0.060874 0)
(0.717502 0.0605907 0)
(0.701207 0.0579083 0)
(0.685006 0.0545172 0)
(0.669445 0.0526087 0)
(0.654557 0.0532396 0)
(0.640061 0.0561778 0)
(0.625525 0.0602999 0)
(0.610378 0.0635682 0)
(0.594565 0.064373 0)
(0.578342 0.0625174 0)
(0.562164 0.0591469 0)
(0.546541 0.0565066 0)
(0.531686 0.0567888 0)
(0.517374 0.0602382 0)
(0.503192 0.0658485 0)
(0.48762 0.0701255 0)
(0.470875 0.0696772 0)
(0.454232 0.0657815 0)
(0.43756 0.0639723 0)
(0.421425 0.0665746 0)
(0.405066 0.0700398 0)
(0.388254 0.0707134 0)
(0.371487 0.0699807 0)
(0.354686 0.0704339 0)
(0.337682 0.0717214 0)
(0.32044 0.0727795 0)
(0.30312 0.0735851 0)
(0.285816 0.0742972 0)
(0.268439 0.0749729 0)
(0.250972 0.0756785 0)
(0.233439 0.0764399 0)
(0.21583 0.0773046 0)
(0.198132 0.0781544 0)
(0.180363 0.0791018 0)
(0.162514 0.0802588 0)
(0.144524 0.0818116 0)
(0.126268 0.0835251 0)
(0.107693 0.0854256 0)
(0.0887779 0.0879153 0)
(0.0694807 0.0904329 0)
(0.0499114 0.0931311 0)
(0.0300815 0.0946496 0)
(0.0103567 0.0963955 0)
(3 -6.55311e-17 0)
(3 -1.2462e-16 0)
(3 -3.69525e-16 0)
(3 -5.231e-16 0)
(3 -3.40622e-16 0)
(3 -4.99319e-16 0)
(3 3.04497e-16 0)
(3 1.08572e-15 0)
(3 1.58807e-15 0)
(3 9.27168e-16 0)
(3 5.53233e-16 0)
(3 1.44718e-16 0)
(3 -3.27415e-17 0)
(3 1.31978e-16 0)
(3 3.18608e-16 0)
(3 1.73433e-15 0)
(3 2.18097e-15 0)
(3 1.81882e-15 0)
(3 1.13931e-15 0)
(3 5.12834e-16 0)
(3 4.09685e-16 0)
(3 2.87269e-16 0)
(3 1.46333e-16 0)
(3 -2.6754e-16 0)
(3 -5.01147e-16 0)
(3 -8.3492e-16 0)
(3 -7.70186e-16 0)
(3 -4.6393e-16 0)
(3 6.21716e-16 0)
(3 7.42217e-16 0)
(3 9.93747e-16 0)
(3 8.29524e-16 0)
(3 6.9467e-16 0)
(3 8.01293e-16 0)
(3 1.42085e-15 0)
(3 1.62104e-15 0)
(3 9.51867e-16 0)
(3 -1.9683e-17 0)
(3 -1.67665e-16 0)
(3 -3.65466e-16 0)
(3 -7.24737e-16 0)
(3 -3.35795e-16 0)
(3 -6.90998e-16 0)
(3 -1.25718e-15 0)
(3 -1.68841e-15 0)
(3 -1.67827e-15 0)
(3 -1.91023e-15 0)
(3 -1.51741e-15 0)
(3 -4.02165e-15 0)
(1.3734 0.0725787 0)
(0.775425 0.0551379 0)
(0.748549 0.0692676 0)
(0.733975 0.073375 0)
(0.717947 0.0738057 0)
(0.701643 0.071582 0)
(0.685283 0.067961 0)
(0.669483 0.0653718 0)
(0.654426 0.0655653 0)
(0.639951 0.0684978 0)
(0.625667 0.0729143 0)
(0.610871 0.0766319 0)
(0.595323 0.0780355 0)
(0.57912 0.0767861 0)
(0.562698 0.0736337 0)
(0.54671 0.0704815 0)
(0.531545 0.0701257 0)
(0.517235 0.0734893 0)
(0.503576 0.079666 0)
(0.4887 0.0847328 0)
(0.472323 0.0849022 0)
(0.455752 0.0810414 0)
(0.438905 0.0790607 0)
(0.422638 0.0818783 0)
(0.406326 0.0857293 0)
(0.38957 0.0865062 0)
(0.372805 0.0858347 0)
(0.355942 0.0865957 0)
(0.338867 0.0882581 0)
(0.321523 0.0895785 0)
(0.30407 0.0905969 0)
(0.286582 0.091532 0)
(0.268963 0.0924263 0)
(0.251201 0.0933203 0)
(0.233329 0.0942172 0)
(0.21536 0.0951797 0)
(0.197298 0.0960878 0)
(0.17918 0.0970905 0)
(0.161019 0.0983068 0)
(0.142779 0.0999464 0)
(0.124343 0.101727 0)
(0.105675 0.103687 0)
(0.0868067 0.106414 0)
(0.0677125 0.109284 0)
(0.0485508 0.112531 0)
(0.0292178 0.114501 0)
(0.0100885 0.116821 0)
(3 -1.06604e-16 0)
(3 5.27056e-16 0)
(3 4.84804e-16 0)
(3 1.98443e-16 0)
(3 2.10034e-16 0)
(3 5.56505e-16 0)
(3 9.95004e-16 0)
(3 3.87197e-16 0)
(3 5.50146e-16 0)
(3 1.5937e-15 0)
(3 2.90796e-15 0)
(3 1.98249e-15 0)
(3 6.89866e-16 0)
(3 2.72663e-16 0)
(3 5.76741e-16 0)
(3 1.12642e-15 0)
(3 7.98718e-16 0)
(3 2.00278e-16 0)
(3 6.62161e-16 0)
(3 8.17233e-16 0)
(3 6.12883e-16 0)
(3 1.73403e-16 0)
(3 -2.55147e-16 0)
(3 -4.51131e-16 0)
(3 -6.09421e-16 0)
(3 -3.948e-16 0)
(3 -5.21671e-16 0)
(3 4.16446e-17 0)
(3 1.74619e-16 0)
(3 5.70994e-16 0)
(3 5.23266e-16 0)
(3 3.91726e-16 0)
(3 -8.47156e-17 0)
(3 -3.53342e-16 0)
(3 3.39633e-16 0)
(3 5.43466e-16 0)
(3 3.79497e-16 0)
(3 -1.68824e-16 0)
(3 -5.49619e-16 0)
(3 -7.112e-16 0)
(3 -7.6078e-16 0)
(3 -7.00278e-16 0)
(3 -8.2515e-16 0)
(3 -2.54986e-16 0)
(3 -9.04058e-16 0)
(3 -1.296e-15 0)
(3 -1.83152e-15 0)
(3 -1.16047e-15 0)
(3 -1.83277e-15 0)
(1.43841 0.0862181 0)
(0.779807 0.0669455 0)
(0.748854 0.0807547 0)
(0.734391 0.0857355 0)
(0.718307 0.0868842 0)
(0.701924 0.085326 0)
(0.685343 0.0817342 0)
(0.669307 0.0783889 0)
(0.65412 0.077952 0)
(0.639754 0.0807165 0)
(0.625776 0.0852998 0)
(0.611364 0.0894796 0)
(0.596096 0.091617 0)
(0.579967 0.0911741 0)
(0.563366 0.0885043 0)
(0.547033 0.0849825 0)
(0.53149 0.0836961 0)
(0.517002 0.0865131 0)
(0.503749 0.0929132 0)
(0.48965 0.0987815 0)
(0.473733 0.0998816 0)
(0.457348 0.0963473 0)
(0.440513 0.0942513 0)
(0.424248 0.0971354 0)
(0.408112 0.101246 0)
(0.39152 0.102143 0)
(0.374863 0.101625 0)
(0.358061 0.10276 0)
(0.341057 0.10484 0)
(0.323749 0.106459 0)
(0.306297 0.107725 0)
(0.288769 0.108923 0)
(0.271061 0.110076 0)
(0.253156 0.111193 0)
(0.235094 0.11225 0)
(0.216905 0.113333 0)
(0.198601 0.114329 0)
(0.180216 0.11542 0)
(0.161757 0.116714 0)
(0.143192 0.118427 0)
(0.124415 0.120225 0)
(0.105421 0.122141 0)
(0.0863218 0.124965 0)
(0.0671206 0.128025 0)
(0.048044 0.131683 0)
(0.0288665 0.134026 0)
(0.00999079 0.136863 0)
(3 1.11773e-16 0)
(3 1.14148e-16 0)
(3 1.46138e-16 0)
(3 -1.17619e-16 0)
(3 1.12237e-16 0)
(3 6.05685e-16 0)
(3 3.95355e-16 0)
(3 -6.80148e-18 0)
(3 1.4166e-16 0)
(3 9.64046e-16 0)
(3 2.33611e-15 0)
(3 2.95091e-15 0)
(3 2.72638e-15 0)
(3 2.03514e-15 0)
(3 8.7502e-16 0)
(3 -2.13089e-16 0)
(3 -8.68876e-16 0)
(3 -6.14897e-16 0)
(3 -7.40856e-16 0)
(3 -3.1734e-16 0)
(3 1.25596e-16 0)
(3 -1.32749e-16 0)
(3 -3.27559e-16 0)
(3 -2.8004e-16 0)
(3 -3.38683e-16 0)
(3 -2.02076e-16 0)
(3 -1.15199e-16 0)
(3 1.89954e-16 0)
(3 2.78087e-16 0)
(3 5.82549e-17 0)
(3 -3.84589e-16 0)
(3 -6.69694e-16 0)
(3 -1.82865e-16 0)
(3 2.2576e-16 0)
(3 1.64735e-16 0)
(3 2.11249e-16 0)
(3 7.56123e-16 0)
(3 5.00514e-16 0)
(3 -1.77723e-16 0)
(3 -5.36008e-16 0)
(3 -8.82676e-16 0)
(3 -1.10921e-15 0)
(3 -9.54609e-16 0)
(3 -6.29009e-16 0)
(3 -9.56668e-16 0)
(3 -1.16562e-15 0)
(3 -9.05026e-16 0)
(3 -4.35017e-16 0)
(3 -2.48958e-15 0)
(1.5191 0.100144 0)
(0.78578 0.0800215 0)
(0.748997 0.0922687 0)
(0.734775 0.0980012 0)
(0.718622 0.0998811 0)
(0.702234 0.0991719 0)
(0.685413 0.0958548 0)
(0.669014 0.0917845 0)
(0.653543 0.0903949 0)
(0.63921 0.0927236 0)
(0.625592 0.0973637 0)
(0.611677 0.102031 0)
(0.596848 0.105025 0)
(0.580983 0.105565 0)
(0.564378 0.103629 0)
(0.547763 0.100023 0)
(0.531787 0.0976865 0)
(0.51684 0.0995127 0)
(0.503593 0.105723 0)
(0.490108 0.112331 0)
(0.474596 0.114588 0)
(0.458366 0.111627 0)
(0.441605 0.109448 0)
(0.425397 0.11226 0)
(0.409511 0.116531 0)
(0.393168 0.117582 0)
(0.376722 0.11729 0)
(0.360131 0.118829 0)
(0.343376 0.121341 0)
(0.326293 0.123271 0)
(0.309029 0.124797 0)
(0.291637 0.126278 0)
(0.273998 0.127723 0)
(0.256074 0.129103 0)
(0.237902 0.130372 0)
(0.219534 0.131645 0)
(0.200983 0.132816 0)
(0.182279 0.134083 0)
(0.16342 0.135524 0)
(0.144383 0.13734 0)
(0.125095 0.13914 0)
(0.105623 0.140939 0)
(0.0861685 0.143755 0)
(0.0667557 0.146867 0)
(0.0476804 0.150812 0)
(0.0285972 0.153445 0)
(0.00990363 0.156729 0)
(3 -4.53227e-17 0)
(3 -3.7648e-16 0)
(3 -5.29572e-16 0)
(3 -1.90197e-16 0)
(3 6.65147e-16 0)
(3 5.9767e-16 0)
(3 3.8567e-16 0)
(3 6.16014e-16 0)
(3 6.35341e-16 0)
(3 9.47284e-16 0)
(3 1.12179e-15 0)
(3 1.42362e-15 0)
(3 1.41618e-15 0)
(3 9.09032e-16 0)
(3 7.9119e-17 0)
(3 -2.42895e-16 0)
(3 -7.28462e-16 0)
(3 -1.08968e-15 0)
(3 -1.3802e-15 0)
(3 -6.22112e-16 0)
(3 5.79973e-17 0)
(3 -1.3398e-16 0)
(3 -2.46854e-16 0)
(3 -4.02938e-16 0)
(3 -2.71107e-16 0)
(3 -2.873e-16 0)
(3 -9.93968e-17 0)
(3 -9.49599e-17 0)
(3 -2.18822e-16 0)
(3 -4.57564e-16 0)
(3 -3.732e-16 0)
(3 -2.86239e-16 0)
(3 1.86923e-16 0)
(3 3.47455e-17 0)
(3 -4.65809e-16 0)
(3 -8.87471e-16 0)
(3 -6.62727e-16 0)
(3 -5.677e-17 0)
(3 6.27531e-16 0)
(3 1.57368e-16 0)
(3 -4.08622e-16 0)
(3 -7.03401e-16 0)
(3 -1.00969e-15 0)
(3 -1.25301e-15 0)
(3 -1.15387e-15 0)
(3 2.08376e-16 0)
(3 7.92484e-16 0)
(3 9.26015e-16 0)
(3 -1.73801e-15 0)
(1.6181 0.114358 0)
(0.793789 0.0949396 0)
(0.748943 0.103698 0)
(0.735289 0.110156 0)
(0.719245 0.112697 0)
(0.703068 0.112948 0)
(0.686108 0.11038 0)
(0.669289 0.105962 0)
(0.653241 0.103213 0)
(0.638534 0.104651 0)
(0.624987 0.109082 0)
(0.611458 0.11417 0)
(0.597082 0.118081 0)
(0.581584 0.119756 0)
(0.565138 0.118789 0)
(0.548373 0.11549 0)
(0.532054 0.112241 0)
(0.516573 0.112758 0)
(0.502933 0.118322 0)
(0.489816 0.125505 0)
(0.47465 0.129034 0)
(0.458502 0.126858 0)
(0.44177 0.124617 0)
(0.425521 0.127233 0)
(0.409777 0.131598 0)
(0.393557 0.132856 0)
(0.377209 0.132848 0)
(0.360747 0.134798 0)
(0.344199 0.137748 0)
(0.327333 0.140007 0)
(0.310274 0.141816 0)
(0.293057 0.143619 0)
(0.275543 0.145409 0)
(0.257671 0.147118 0)
(0.239476 0.148679 0)
(0.22103 0.150238 0)
(0.202347 0.15169 0)
(0.183447 0.153226 0)
(0.164308 0.154866 0)
(0.144911 0.156786 0)
(0.125227 0.158548 0)
(0.105398 0.160144 0)
(0.0857045 0.162832 0)
(0.0661721 0.165838 0)
(0.0471678 0.169917 0)
(0.0282394 0.172723 0)
(0.00977883 0.176357 0)
(3 1.17397e-17 0)
(3 -1.09406e-16 0)
(3 -3.03609e-16 0)
(3 1.81158e-16 0)
(3 7.42442e-16 0)
(3 7.10931e-16 0)
(3 6.87348e-16 0)
(3 5.43117e-16 0)
(3 7.57473e-16 0)
(3 1.05841e-15 0)
(3 1.05599e-15 0)
(3 2.75469e-16 0)
(3 2.39867e-16 0)
(3 3.22018e-16 0)
(3 9.46513e-16 0)
(3 1.04257e-15 0)
(3 8.02137e-17 0)
(3 -8.75593e-16 0)
(3 -4.68609e-16 0)
(3 -6.57619e-17 0)
(3 -3.44071e-16 0)
(3 -6.78022e-17 0)
(3 6.02867e-17 0)
(3 6.97716e-17 0)
(3 -1.52702e-16 0)
(3 -3.8634e-16 0)
(3 6.85486e-16 0)
(3 -1.67276e-17 0)
(3 -6.21056e-16 0)
(3 -3.93605e-16 0)
(3 6.14844e-17 0)
(3 -1.36892e-17 0)
(3 -5.14096e-16 0)
(3 -1.57925e-15 0)
(3 -1.55925e-15 0)
(3 -1.57813e-15 0)
(3 -1.48607e-15 0)
(3 -1.21257e-15 0)
(3 -1.13526e-15 0)
(3 -6.59501e-16 0)
(3 -1.13756e-15 0)
(3 -1.51317e-15 0)
(3 -1.46831e-15 0)
(3 -1.77534e-15 0)
(3 -1.41481e-15 0)
(3 -1.01681e-15 0)
(3 -6.16343e-16 0)
(3 1.34899e-15 0)
(3 1.75001e-15 0)
(1.73836 0.127931 0)
(0.805054 0.111965 0)
(0.749376 0.114817 0)
(0.736435 0.121981 0)
(0.720573 0.125063 0)
(0.704787 0.126398 0)
(0.688082 0.124816 0)
(0.671143 0.120621 0)
(0.654589 0.116888 0)
(0.639243 0.117019 0)
(0.625372 0.120858 0)
(0.611954 0.126145 0)
(0.597937 0.130905 0)
(0.582864 0.133758 0)
(0.566756 0.133927 0)
(0.550086 0.131281 0)
(0.533656 0.127444 0)
(0.517815 0.126554 0)
(0.503623 0.131129 0)
(0.490657 0.13863 0)
(0.475839 0.143426 0)
(0.459721 0.142215 0)
(0.442926 0.139947 0)
(0.426532 0.142273 0)
(0.410806 0.146665 0)
(0.394603 0.14815 0)
(0.378257 0.148419 0)
(0.361841 0.150719 0)
(0.345427 0.154048 0)
(0.328718 0.156604 0)
(0.311809 0.158676 0)
(0.294716 0.160796 0)
(0.277292 0.162954 0)
(0.259453 0.165044 0)
(0.241236 0.166975 0)
(0.222732 0.168922 0)
(0.203951 0.170768 0)
(0.184892 0.17267 0)
(0.165506 0.174572 0)
(0.145783 0.176617 0)
(0.125739 0.178332 0)
(0.105592 0.179683 0)
(0.0856747 0.18217 0)
(0.0659907 0.184947 0)
(0.0469746 0.189032 0)
(0.028082 0.191893 0)
(0.00971814 0.195782 0)
(3 -3.84823e-17 0)
(3 -3.81677e-16 0)
(3 -4.48786e-16 0)
(3 -8.47611e-17 0)
(3 -4.54296e-17 0)
(3 1.31609e-17 0)
(3 5.78367e-16 0)
(3 -3.02191e-16 0)
(3 -3.75171e-16 0)
(3 -4.13968e-16 0)
(3 -9.38957e-16 0)
(3 -4.6838e-16 0)
(3 -2.04439e-16 0)
(3 5.02502e-17 0)
(3 2.41334e-16 0)
(3 -4.09941e-18 0)
(3 3.04277e-16 0)
(3 9.37976e-16 0)
(3 5.29364e-16 0)
(3 8.98591e-17 0)
(3 3.80691e-16 0)
(3 5.67826e-16 0)
(3 -3.08049e-16 0)
(3 -2.40203e-16 0)
(3 -4.3078e-16 0)
(3 1.87451e-17 0)
(3 2.8431e-16 0)
(3 1.54996e-17 0)
(3 1.16193e-16 0)
(3 2.52697e-16 0)
(3 1.28882e-16 0)
(3 1.38403e-16 0)
(3 -1.27545e-16 0)
(3 -4.60921e-16 0)
(3 -7.80452e-16 0)
(3 -8.41214e-16 0)
(3 -9.71137e-16 0)
(3 -1.39279e-15 0)
(3 -1.5397e-15 0)
(3 -1.38889e-15 0)
(3 -1.18919e-15 0)
(3 -1.92669e-15 0)
(3 -2.24014e-15 0)
(3 -1.94122e-15 0)
(3 -2.02942e-15 0)
(3 -1.51503e-15 0)
(3 -1.53579e-16 0)
(3 4.89972e-16 0)
(3 -4.05571e-15 0)
(1.88034 0.138631 0)
(0.820543 0.130447 0)
(0.750665 0.126625 0)
(0.737975 0.133491 0)
(0.722675 0.136896 0)
(0.707762 0.139067 0)
(0.691785 0.138594 0)
(0.675114 0.135189 0)
(0.658412 0.13094 0)
(0.642553 0.129615 0)
(0.628342 0.132518 0)
(0.615157 0.137719 0)
(0.60171 0.143048 0)
(0.587295 0.14695 0)
(0.571741 0.148301 0)
(0.555327 0.146589 0)
(0.538838 0.142617 0)
(0.522656 0.140395 0)
(0.507744 0.143783 0)
(0.494634 0.151352 0)
(0.480154 0.15738 0)
(0.463981 0.157408 0)
(0.447035 0.155264 0)
(0.430297 0.157315 0)
(0.414319 0.161743 0)
(0.397865 0.163526 0)
(0.381245 0.164099 0)
(0.364597 0.166711 0)
(0.348041 0.170385 0)
(0.331233 0.173228 0)
(0.314226 0.175558 0)
(0.297028 0.177991 0)
(0.279498 0.180526 0)
(0.261546 0.183025 0)
(0.243213 0.185377 0)
(0.224609 0.187783 0)
(0.20573 0.190099 0)
(0.186547 0.192427 0)
(0.166981 0.194619 0)
(0.147027 0.196791 0)
(0.126738 0.198454 0)
(0.106376 0.199545 0)
(0.0862781 0.201803 0)
(0.0664233 0.204284 0)
(0.0472811 0.208294 0)
(0.0282418 0.211126 0)
(0.00977237 0.21521 0)
(3 -9.92252e-17 0)
(3 -1.99832e-16 0)
(3 2.28434e-16 0)
(3 5.00136e-16 0)
(3 5.28388e-16 0)
(3 6.19515e-16 0)
(3 1.75359e-16 0)
(3 1.78115e-16 0)
(3 -1.55977e-16 0)
(3 -4.48511e-16 0)
(3 -8.16657e-16 0)
(3 -7.78343e-16 0)
(3 -5.85012e-16 0)
(3 -3.90946e-16 0)
(3 -3.99067e-16 0)
(3 -4.06874e-16 0)
(3 5.4226e-16 0)
(3 1.39548e-15 0)
(3 1.31895e-15 0)
(3 1.03672e-15 0)
(3 5.27395e-16 0)
(3 -1.14303e-16 0)
(3 -8.06803e-16 0)
(3 -1.1894e-15 0)
(3 -1.15941e-15 0)
(3 -7.95458e-16 0)
(3 -1.16628e-15 0)
(3 -1.19615e-15 0)
(3 -1.14537e-15 0)
(3 -1.31443e-15 0)
(3 -1.20297e-15 0)
(3 -2.25638e-16 0)
(3 4.22367e-16 0)
(3 6.86459e-16 0)
(3 3.27705e-16 0)
(3 -1.62991e-17 0)
(3 -4.96653e-16 0)
(3 -6.57527e-16 0)
(3 -8.41316e-16 0)
(3 -8.89631e-16 0)
(3 -5.57705e-16 0)
(3 -5.48237e-16 0)
(3 -1.26873e-15 0)
(3 -1.30626e-15 0)
(3 -8.8593e-16 0)
(3 -8.30734e-17 0)
(3 6.9117e-16 0)
(3 -3.43047e-17 0)
(3 -2.09506e-15 0)
(2.03918 0.1466 0)
(0.838509 0.150266 0)
(0.752387 0.139543 0)
(0.738485 0.144944 0)
(0.72322 0.148262 0)
(0.708835 0.1512 0)
(0.693389 0.152014 0)
(0.676941 0.149861 0)
(0.660039 0.145799 0)
(0.64359 0.143002 0)
(0.628687 0.144405 0)
(0.615405 0.149083 0)
(0.602468 0.154847 0)
(0.588764 0.159798 0)
(0.573867 0.162466 0)
(0.55786 0.161973 0)
(0.541391 0.158447 0)
(0.525006 0.155205 0)
(0.509429 0.157147 0)
(0.496047 0.164364 0)
(0.482143 0.171386 0)
(0.466338 0.172752 0)
(0.449755 0.17086 0)
(0.433174 0.172621 0)
(0.417378 0.177062 0)
(0.401038 0.179184 0)
(0.384433 0.180063 0)
(0.367775 0.182932 0)
(0.351232 0.186901 0)
(0.334435 0.190017 0)
(0.31739 0.192592 0)
(0.300103 0.195315 0)
(0.282466 0.198211 0)
(0.26439 0.201123 0)
(0.245928 0.203918 0)
(0.227207 0.206815 0)
(0.20821 0.209638 0)
(0.188885 0.212417 0)
(0.169136 0.214909 0)
(0.148975 0.217211 0)
(0.128483 0.218837 0)
(0.107932 0.219695 0)
(0.0876319 0.221755 0)
(0.0675229 0.223943 0)
(0.048103 0.227864 0)
(0.028719 0.230625 0)
(0.00994594 0.234892 0)
(3 2.02698e-16 0)
(3 4.48251e-16 0)
(3 7.56304e-16 0)
(3 9.44242e-16 0)
(3 4.77559e-16 0)
(3 2.42972e-16 0)
(3 2.66215e-16 0)
(3 9.49396e-16 0)
(3 9.41768e-16 0)
(3 4.6896e-16 0)
(3 2.82223e-16 0)
(3 -7.60588e-16 0)
(3 -1.48941e-15 0)
(3 -1.74471e-15 0)
(3 -1.67178e-15 0)
(3 -1.4683e-15 0)
(3 -6.41023e-16 0)
(3 -1.47294e-16 0)
(3 4.62387e-16 0)
(3 4.42109e-16 0)
(3 7.93087e-17 0)
(3 -6.9797e-16 0)
(3 -7.19612e-16 0)
(3 -1.07106e-15 0)
(3 -1.25227e-15 0)
(3 -1.42997e-15 0)
(3 -2.02541e-15 0)
(3 -2.07964e-15 0)
(3 -2.05688e-15 0)
(3 -2.0311e-15 0)
(3 -2.27701e-15 0)
(3 -1.82841e-15 0)
(3 -5.94533e-16 0)
(3 -3.37741e-16 0)
(3 -8.95852e-16 0)
(3 -1.15923e-15 0)
(3 -6.8906e-16 0)
(3 -4.52039e-16 0)
(3 -4.1583e-16 0)
(3 -1.66725e-16 0)
(3 3.58623e-16 0)
(3 4.72261e-16 0)
(3 -7.04527e-17 0)
(3 -1.08226e-15 0)
(3 -3.06266e-17 0)
(3 5.31033e-16 0)
(3 9.53547e-16 0)
(3 5.25041e-16 0)
(3 -2.36292e-15 0)
(2.21558 0.151183 0)
(0.861277 0.170506 0)
(0.755173 0.153973 0)
(0.740354 0.157544 0)
(0.72481 0.159749 0)
(0.710484 0.163195 0)
(0.69517 0.165337 0)
(0.678769 0.164495 0)
(0.66174 0.161064 0)
(0.644808 0.157449 0)
(0.629009 0.1569 0)
(0.61504 0.160363 0)
(0.602121 0.166062 0)
(0.588911 0.171852 0)
(0.574647 0.17583 0)
(0.559232 0.176705 0)
(0.543095 0.174066 0)
(0.526917 0.170213 0)
(0.51109 0.170599 0)
(0.497452 0.177041 0)
(0.484208 0.184727 0)
(0.468968 0.187503 0)
(0.452851 0.186051 0)
(0.436516 0.187612 0)
(0.420944 0.192133 0)
(0.404768 0.194723 0)
(0.388229 0.195984 0)
(0.371633 0.199119 0)
(0.355173 0.203389 0)
(0.338447 0.206821 0)
(0.321395 0.209687 0)
(0.304009 0.212734 0)
(0.286231 0.216022 0)
(0.267988 0.219383 0)
(0.249346 0.222656 0)
(0.230459 0.226069 0)
(0.211303 0.22941 0)
(0.191819 0.232634 0)
(0.171903 0.235415 0)
(0.151589 0.237845 0)
(0.130957 0.239462 0)
(0.110249 0.240148 0)
(0.0897258 0.24209 0)
(0.0692794 0.24405 0)
(0.0494401 0.247923 0)
(0.029529 0.250612 0)
(0.0102376 0.255074 0)
(3 -2.21872e-17 0)
(3 3.65906e-17 0)
(3 -1.73751e-16 0)
(3 -5.98653e-16 0)
(3 -7.7663e-16 0)
(3 -8.51724e-16 0)
(3 -9.18769e-17 0)
(3 2.07283e-16 0)
(3 1.50507e-16 0)
(3 1.98492e-16 0)
(3 -2.46645e-16 0)
(3 -8.48149e-16 0)
(3 -1.49506e-15 0)
(3 -1.24187e-15 0)
(3 -1.05945e-15 0)
(3 -7.35146e-16 0)
(3 -8.22298e-16 0)
(3 -1.13413e-15 0)
(3 -1.05774e-15 0)
(3 -9.32741e-16 0)
(3 -5.75216e-16 0)
(3 -8.41884e-16 0)
(3 -9.00497e-16 0)
(3 -1.11685e-15 0)
(3 -1.0732e-15 0)
(3 -1.25533e-15 0)
(3 -1.39558e-15 0)
(3 -1.37937e-15 0)
(3 -1.58534e-15 0)
(3 -1.35913e-15 0)
(3 -1.18634e-15 0)
(3 -1.12403e-15 0)
(3 -1.36355e-15 0)
(3 -1.04166e-15 0)
(3 -1.02355e-15 0)
(3 -9.45176e-16 0)
(3 -1.12318e-15 0)
(3 -7.3819e-16 0)
(3 -4.52549e-16 0)
(3 4.98589e-16 0)
(3 6.4305e-16 0)
(3 4.88029e-16 0)
(3 6.59669e-16 0)
(3 6.44367e-16 0)
(3 -5.36061e-17 0)
(3 -1.67081e-16 0)
(3 6.47912e-16 0)
(3 9.05791e-16 0)
(3 -2.47837e-15 0)
(2.41301 0.151518 0)
(0.894431 0.189579 0)
(0.762748 0.168619 0)
(0.747613 0.170777 0)
(0.730934 0.172413 0)
(0.71617 0.175783 0)
(0.700821 0.178549 0)
(0.68455 0.179221 0)
(0.667506 0.176728 0)
(0.650148 0.172872 0)
(0.63335 0.170754 0)
(0.618052 0.172671 0)
(0.604292 0.177803 0)
(0.590906 0.183963 0)
(0.576848 0.188941 0)
(0.561751 0.191083 0)
(0.545731 0.189576 0)
(0.529463 0.185606 0)
(0.513184 0.184519 0)
(0.498736 0.189848 0)
(0.485575 0.197876 0)
(0.470657 0.202027 0)
(0.454817 0.201165 0)
(0.438718 0.202555 0)
(0.423445 0.207142 0)
(0.407635 0.210247 0)
(0.39139 0.211901 0)
(0.375087 0.215277 0)
(0.358908 0.219846 0)
(0.342414 0.223649 0)
(0.32548 0.22688 0)
(0.308097 0.230307 0)
(0.290265 0.23403 0)
(0.27194 0.237876 0)
(0.253191 0.241646 0)
(0.234191 0.245567 0)
(0.214919 0.249397 0)
(0.195318 0.253029 0)
(0.175286 0.256073 0)
(0.154868 0.258637 0)
(0.134124 0.26031 0)
(0.113235 0.260935 0)
(0.0924206 0.262894 0)
(0.0715284 0.264736 0)
(0.0511382 0.268639 0)
(0.0305611 0.27129 0)
(0.0106023 0.275965 0)
(3 -9.51841e-17 0)
(3 -1.84288e-16 0)
(3 -7.12183e-16 0)
(3 -1.32632e-15 0)
(3 -1.45241e-15 0)
(3 -8.38902e-16 0)
(3 -6.63665e-16 0)
(3 -1.18657e-15 0)
(3 -2.03813e-15 0)
(3 -1.9095e-15 0)
(3 -1.31407e-15 0)
(3 -1.35273e-15 0)
(3 -1.1903e-15 0)
(3 -6.91244e-16 0)
(3 1.61987e-16 0)
(3 -1.7736e-16 0)
(3 -8.99431e-16 0)
(3 -1.65843e-15 0)
(3 -1.55313e-15 0)
(3 -7.70402e-16 0)
(3 -1.48503e-16 0)
(3 -1.09118e-16 0)
(3 -1.33774e-16 0)
(3 -7.02885e-17 0)
(3 -3.48571e-16 0)
(3 -7.59727e-16 0)
(3 -1.06042e-15 0)
(3 -9.04184e-16 0)
(3 -1.11187e-15 0)
(3 -8.89207e-16 0)
(3 -1.60538e-18 0)
(3 -3.01752e-16 0)
(3 -1.31582e-15 0)
(3 -1.33494e-15 0)
(3 -4.17484e-16 0)
(3 1.38403e-16 0)
(3 -6.82726e-17 0)
(3 -4.44825e-17 0)
(3 8.97626e-17 0)
(3 2.75204e-16 0)
(3 2.29519e-16 0)
(3 9.05001e-16 0)
(3 9.71539e-16 0)
(3 6.475e-16 0)
(3 1.89858e-16 0)
(3 6.38073e-17 0)
(3 1.51493e-16 0)
(3 -5.782e-17 0)
(3 3.39643e-17 0)
(2.61467 0.142638 0)
(0.938422 0.206469 0)
(0.774583 0.180681 0)
(0.760971 0.183699 0)
(0.743368 0.185191 0)
(0.728011 0.188665 0)
(0.7123 0.191796 0)
(0.696165 0.193045 0)
(0.679083 0.192086 0)
(0.661518 0.188654 0)
(0.643798 0.185588 0)
(0.626858 0.185955 0)
(0.611502 0.19019 0)
(0.597214 0.196365 0)
(0.582869 0.202051 0)
(0.567724 0.205352 0)
(0.551485 0.205172 0)
(0.534647 0.201652 0)
(0.517581 0.199342 0)
(0.501881 0.203295 0)
(0.488226 0.211237 0)
(0.473414 0.216489 0)
(0.457655 0.216218 0)
(0.441647 0.217354 0)
(0.426453 0.221912 0)
(0.410841 0.225545 0)
(0.394715 0.227618 0)
(0.378563 0.231233 0)
(0.362583 0.236119 0)
(0.346319 0.240361 0)
(0.329573 0.244039 0)
(0.312314 0.247914 0)
(0.294567 0.25213 0)
(0.276293 0.25651 0)
(0.257547 0.260802 0)
(0.238512 0.265225 0)
(0.21918 0.269513 0)
(0.199507 0.273522 0)
(0.179395 0.276823 0)
(0.158882 0.279564 0)
(0.137991 0.281405 0)
(0.116831 0.282133 0)