/*--------------------------------*- C++ -*----------------------------------*\
  =========                 |
  \\      /  F ield         | OpenFOAM: The Open Source CFD Toolbox
   \\    /   O peration     | Website:  https://openfoam.org
    \\  /    A nd           | Version:  9
     \\/     M anipulation  |
\*---------------------------------------------------------------------------*/
FoamFile
{
    format      ascii;
    class       surfaceScalarField;
    location    "6.3";
    object      phi;
}
// * * * * * * * * * * * * * * * * * * * * * * * * * * * * * * * * * * * * * //

dimensions      [0 3 -1 0 0 0 0];

internalField   nonuniform List<scalar> 
16735
(
-0.00155773
0.00155773
1.21636e-10
-0.00426626
0.00270853
2.78901e-10
-0.0072434
0.00297715
3.84757e-10
-0.00973432
0.00249092
4.50331e-10
-0.0111597
0.00142534
4.63122e-10
-0.0109629
-0.000196766
4.21852e-10
-0.00861996
-0.00234294
3.16463e-10
-0.00351555
-0.0051044
1.36858e-10
0.0044225
-0.00793805
-1.19937e-10
-0.0115874
-4.48899e-10
0.0160099
-0.00152469
0.00308241
-0.00415176
0.00533561
-0.00699784
0.00582323
-0.00930321
0.00479629
-0.0104798
0.0026019
-0.00996008
-0.00071647
-0.00720572
-0.00509729
-0.00160989
-0.0107002
0.00700256
-0.0165505
-0.0239808
0.0193959
-0.00145922
0.00454164
-0.0039246
0.00780099
-0.00651033
0.00840895
-0.00844704
0.006733
-0.00912946
0.00328432
-0.007968
-0.00187794
-0.00439324
-0.00867205
0.0022163
-0.0173098
0.0121246
-0.0264587
-0.0379554
0.0260991
-0.00136256
0.0059042
-0.00358835
0.0100268
-0.0057879
0.0106085
-0.0071777
0.0081228
-0.00712757
0.00323418
-0.005015
-0.0039905
-0.000185851
-0.0135012
0.00791338
-0.025409
0.019699
-0.0382444
-0.0542385
0.0359822
-0.00123645
0.00714065
-0.00314813
0.0119385
-0.00484073
0.0123011
-0.00551235
0.00879442
-0.00450101
0.00222285
-0.00115011
-0.0073414
0.00522048
-0.0198718
0.015339
-0.0355275
0.0295895
-0.0524949
-0.0734919
0.0488429
-0.00108307
0.00822371
-0.00261043
0.0134658
-0.00368167
0.0133724
-0.00347269
0.00858543
-0.00128262
3.2783e-05
0.0035904
-0.0122144
0.0118756
-0.028157
0.0243898
-0.0480417
0.0416227
-0.0697278
-0.0962901
0.0644209
-0.000904956
0.00912867
-0.00198275
0.0145436
-0.00232576
0.0137154
-0.00108417
0.00734383
0.00248411
-0.0035355
0.00913584
-0.0188661
0.019655
-0.0386762
0.0349282
-0.0633149
0.0555909
-0.0903905
-0.123103
0.0824038
-0.000704873
0.00983354
-0.00127331
0.015112
-0.000789574
0.0132316
0.00162424
0.00493002
0.0067562
-0.00866746
0.0154171
-0.027527
0.0284508
-0.0517099
0.0467949
-0.081659
0.0712551
-0.114851
-0.154281
0.102433
-0.00048579
0.0103193
-0.000490469
0.0151167
0.000909541
0.0118316
0.00462284
0.00121672
0.0114853
-0.01553
0.0223596
-0.0384013
0.0381474
-0.0674978
0.0598145
-0.103326
0.0883498
-0.143386
-0.19004
0.124109
-0.000251455
0.0105708
0.000355595
0.0145097
0.00275348
0.00943374
0.00788034
-0.00391014
0.0166203
-0.0242699
0.0298839
-0.0516649
0.0486221
-0.0862359
0.0737988
-0.128503
0.106586
-0.176173
-0.230449
0.146994
6.8363e-06
0.0105639
0.0012593
0.0132572
0.00472493
0.0059681
0.0113653
-0.0105505
0.0221091
-0.0350137
0.0379075
-0.0674633
0.0597457
-0.108074
0.0885491
-0.157306
0.125654
-0.213278
-0.275414
0.17062
0.000263701
0.0103002
0.002211
0.0113099
0.00680705
0.00137204
0.0150469
-0.0187904
0.0278996
-0.0478664
0.0463456
-0.0859093
0.0713841
-0.133113
0.103858
-0.18978
0.14523
-0.254649
-0.324681
0.194497
0.000534759
0.00976549
0.00320418
0.0086405
0.00898397
-0.00440775
0.0188953
-0.0287017
0.0339396
-0.0629107
0.0551117
-0.107081
0.0833975
-0.161398
0.119512
-0.225895
0.164978
-0.300115
-0.377827
0.218124
0.000814229
0.00895126
0.00423271
0.00522201
0.0112412
-0.0114162
0.0228817
-0.0403423
0.0401771
-0.0802061
0.064117
-0.131021
0.0956403
-0.192922
0.135289
-0.265544
0.18455
-0.349377
-0.434271
0.240994
0.00110071
0.00785055
0.00529128
0.00103145
0.0135652
-0.0196901
0.0269783
-0.0537554
0.0465599
-0.0997876
0.0732702
-0.157732
0.10796
-0.227612
0.150961
-0.308544
0.203597
-0.402013
-0.49329
0.262616
0.00139335
0.0064572
0.0063754
-0.0039506
0.0159437
-0.0292584
0.0311577
-0.0689694
0.0530345
-0.121664
0.0824759
-0.187173
0.120199
-0.265335
0.166292
-0.354637
0.221765
-0.457486
-0.554061
0.282536
0.00169164
0.00476556
0.00748126
-0.00974022
0.0183648
-0.040142
0.0353924
-0.085997
0.0595456
-0.145818
0.0916341
-0.219261
0.132189
-0.305889
0.181045
-0.403494
0.238706
-0.515147
-0.615745
0.300391
0.00199533
0.00277023
0.00860545
-0.0163503
0.0208169
-0.0523534
0.0396539
-0.104834
0.0660348
-0.172198
0.100638
-0.253865
0.143759
-0.34901
0.194987
-0.454721
0.254086
-0.574246
-0.677599
0.31594
0.00230432
0.000465914
0.00974466
-0.0237907
0.0232877
-0.0658965
0.0439117
-0.125458
0.0724392
-0.200726
0.109376
-0.290802
0.154737
-0.394371
0.207899
-0.507884
0.267632
-0.633979
-0.739145
0.329178
0.00261854
-0.00215262
0.0108954
-0.0320675
0.0257642
-0.0807653
0.0481329
-0.147827
0.0786912
-0.231284
0.117727
-0.329838
0.164939
-0.441583
0.219534
-0.562478
0.279214
-0.693659
-0.80098
0.341049
0.00293785
-0.00509047
0.0120536
-0.0411833
0.0282317
-0.0969435
0.0522811
-0.171876
0.0847183
-0.263721
0.125566
-0.370685
0.174171
-0.490188
0.229498
-0.617805
0.288941
-0.753102
-0.8752
0.36316
0.0032619
-0.00835237
0.0132144
-0.0511358
0.0306734
-0.114402
0.0563167
-0.197519
0.0904445
-0.297849
0.132768
-0.413008
0.182253
-0.539674
0.237542
-0.673094
0.295696
-0.811256
-0.942036
0.362532
0.00359004
-0.0119424
0.014372
-0.0619178
0.0330704
-0.133101
0.0601965
-0.224645
0.0957916
-0.333444
0.139215
-0.456432
0.189042
-0.5895
0.243542
-0.727594
0.299624
-0.867338
-1.00243
0.360022
0.00392125
-0.0158637
0.0155192
-0.0735157
0.0354012
-0.152983
0.0638747
-0.253119
0.100681
-0.370251
0.144801
-0.500552
0.194428
-0.639128
0.247493
-0.780658
0.300999
-0.920845
-1.05712
0.355682
0.00425404
-0.0201177
0.0166474
-0.0859091
0.0376421
-0.173978
0.0673032
-0.28278
0.105037
-0.407985
0.149431
-0.544946
0.198334
-0.68803
0.249413
-0.831737
0.299899
-0.971331
-1.10661
0.349389
0.00458647
-0.0247042
0.017747
-0.0990696
0.0397673
-0.195998
0.0704331
-0.313446
0.108787
-0.446339
0.153028
-0.589186
0.20071
-0.735713
0.249343
-0.88037
0.29646
-1.01845
-1.15129
0.341141
0.00491608
-0.0296203
0.0188067
-0.11296
0.0417496
-0.218941
0.0732156
-0.344912
0.111866
-0.48499
0.15553
-0.63285
0.201539
-0.781722
0.247355
-0.926186
0.290861
-1.06195
-1.19146
0.331031
0.00523997
-0.0348602
0.0198144
-0.127535
0.0435605
-0.242687
0.0756038
-0.376955
0.114218
-0.523604
0.156898
-0.67553
0.200833
-0.825657
0.243545
-0.968898
0.2833
-1.10171
-1.22737
0.319213
0.00555479
-0.040415
0.020757
-0.142737
0.0451718
-0.267102
0.0775545
-0.409338
0.115796
-0.561845
0.157113
-0.716847
0.198633
-0.867177
0.238036
-1.0083
0.273986
-1.13766
-1.25926
0.305871
0.00585683
-0.0462718
0.021621
-0.158501
0.0465555
-0.292036
0.079029
-0.441811
0.11657
-0.599386
0.156176
-0.756453
0.195003
-0.906004
0.230965
-1.04426
0.263125
-1.16982
-1.28733
0.291202
0.00614212
-0.052414
0.0223926
-0.174752
0.0476855
-0.317329
0.0799952
-0.474121
0.116519
-0.63591
0.15411
-0.794044
0.190027
-0.941921
0.222481
-1.07672
0.250922
-1.19826
-1.31181
0.275397
0.00640647
-0.0588204
0.0230582
-0.191403
0.0485379
-0.342809
0.0804281
-0.506011
0.115639
-0.671121
0.150952
-0.829357
0.183804
-0.974773
0.212739
-1.10565
0.237567
-1.22309
-1.33288
0.258638
0.0066456
-0.065466
0.0236047
-0.208362
0.0490919
-0.368296
0.0803109
-0.53723
0.113937
-0.704747
0.146757
-0.862177
0.176443
-1.00446
0.201891
-1.1311
0.22324
-1.24444
-1.35073
0.241092
0.00685524
-0.0723213
0.02402
-0.225527
0.0493304
-0.393606
0.0796348
-0.567535
0.111434
-0.736546
0.14159
-0.892333
0.168057
-1.03093
0.190086
-1.15313
0.208104
-1.26246
-1.36553
0.222906
0.00703123
-0.0793525
0.0242931
-0.242789
0.0492405
-0.418554
0.0783995
-0.596694
0.10816
-0.766307
0.135525
-0.919698
0.158762
-1.05416
0.177466
-1.17183
0.192304
-1.27729
-1.37744
0.204212
0.0071696
-0.0865221
0.0244146
-0.260034
0.0488137
-0.442953
0.0766125
-0.624493
0.104156
-0.79385
0.128644
-0.944186
0.148674
-1.07419
0.164162
-1.18732
0.175971
-1.2891
-1.38659
0.185123
0.00726669
-0.0937888
0.0243769
-0.277144
0.0480461
-0.466622
0.0742887
-0.650735
0.0994685
-0.81903
0.121028
-0.965746
0.137902
-1.09107
0.150295
-1.19971
0.159219
-1.29803
-1.39311
0.165739
0.00731921
-0.101108
0.024174
-0.293999
0.0469384
-0.489386
0.0714495
-0.675246
0.0941512
-0.841731
0.112764
-0.984359
0.126552
-1.10485
0.135973
-1.20913
0.142149
-1.3042
-1.39711
0.146144
0.0073243
-0.108432
0.0238023
-0.310477
0.0454955
-0.51108
0.0681218
-0.697872
0.0882605
-0.86187
0.103933
-1.00003
0.114721
-1.11564
0.121296
-1.21571
0.124846
-1.30775
-1.39867
0.126412
0.00727961
-0.115712
0.0232601
-0.326457
0.0437266
-0.531546
0.0643371
-0.718483
0.0818554
-0.879389
0.0946183
-1.01279
0.1025
-1.12352
0.106351
-1.21956
0.107389
-1.30879
-1.39789
0.106608
0.00718335
-0.122895
0.0225477
-0.341822
0.0416442
-0.550643
0.0601306
-0.736969
0.0749959
-0.894254
0.0848963
-1.02269
0.0899735
-1.1286
0.0912157
-1.2208
0.0898423
-1.30742
-1.39484
0.0867878
0.0070343
-0.12993
0.0216675
-0.356455
0.0392645
-0.56824
0.05554
-0.753245
0.0677415
-0.906455
0.0748406
-1.02979
0.0772164
-1.13098
0.0759587
-1.21955
0.0722639
-1.30372
-1.38957
0.0669975
0.00683185
-0.136761
0.0206237
-0.370247
0.0366061
-0.584222
0.0506048
-0.767243
0.0601505
-0.916001
0.0645201
-1.03416
0.0642977
-1.13075
0.0606409
-1.21589
0.0547053
-1.29779
-1.38214
0.0472785
0.006576
-0.143337
0.0194225
-0.383093
0.0336899
-0.59849
0.0453652
-0.778919
0.0522794
-0.922915
0.0539985
-1.03588
0.0512794
-1.12804
0.0453169
-1.20993
0.0372118
-1.28968
-1.3726
0.0276639
0.00626733
-0.149605
0.0180715
-0.394898
0.0305387
-0.610957
0.039862
-0.788242
0.0441823
-0.927235
0.0433346
-1.03504
0.038217
-1.12292
0.0300364
-1.20175
0.019828
-1.27947
-1.36092
0.00815466
0.00590704
-0.155512
0.0165796
-0.40557
0.0271764
-0.621553
0.0341351
-0.795201
0.0359103
-0.929011
0.0325826
-1.03171
0.0251589
-1.11549
0.0148402
-1.19143
0.00264034
-1.26727
-1.34716
-0.0111193
0.00549687
-0.161009
0.0149571
-0.41503
0.0236277
-0.630224
0.028224
-0.799797
0.0275118
-0.928298
0.0217926
-1.02599
0.0121504
-1.10585
-0.000303278
-1.17897
-0.0144673
-1.25311
-1.33148
-0.0301492
0.00503908
-0.166048
0.0132152
-0.423207
0.0199179
-0.636927
0.0221668
-0.802046
0.0190316
-0.925163
0.0110096
-1.01797
-0.000767779
-1.09407
-0.0151426
-1.1646
-0.0313394
-1.23691
-1.31386
-0.0489625
0.00453643
-0.170584
0.0113659
-0.430036
0.0160724
-0.641633
0.016
-0.801974
0.0105113
-0.919674
0.000258609
-1.00771
-0.0135398
-1.08028
-0.0298547
-1.14828
-0.0479661
-1.2188
-1.29431
-0.0675153
0.00399209
-0.174576
0.00942144
-0.435465
0.0121164
-0.644328
0.00975866
-0.799616
0.00199163
-0.911907
-0.0103731
-0.995349
-0.0261558
-1.06449
-0.0443485
-1.13009
-0.0643276
-1.19882
-1.27286
-0.0857787
0.00340966
-0.177986
0.00739471
-0.43945
0.00807472
-0.645008
0.0034767
-0.795018
-0.00649343
-0.901937
-0.020902
-0.98094
-0.0385783
-1.04682
-0.0585921
-1.11008
-0.0803992
-1.17702
-1.24953
-0.103727
0.0027931
-0.180779
0.00529985
-0.441957
0.00397261
-0.643681
-0.00281653
-0.788229
-0.0149113
-0.889842
-0.0312811
-0.964571
-0.0507787
-1.02732
-0.0725578
-1.0883
-0.0961555
-1.15342
-1.22435
-0.121337
0.00214672
-0.182926
0.00315334
-0.442964
-0.000136054
-0.640392
-0.00909323
-0.779271
-0.0232325
-0.875703
-0.0414817
-0.946321
-0.0627306
-1.00607
-0.0862198
-1.06481
-0.111571
-1.12807
-1.19734
-0.138584
0.00147606
-0.184402
0.000976271
-0.442464
-0.00433894
-0.635076
-0.0153274
-0.768283
-0.0314289
-0.859602
-0.0514783
-0.926272
-0.0744101
-0.983138
-0.0995533
-1.03967
-0.12662
-1.101
-1.16851
-0.155446
0.000784037
-0.185186
-0.00123787
-0.440442
-0.00850001
-0.627814
-0.0214913
-0.755292
-0.0394757
-0.841617
-0.0612477
-0.9045
-0.085795
-0.958591
-0.112535
-1.01293
-0.141276
-1.07226
-1.13789
-0.171899
4.50701e-05
-0.185231
-0.00348436
-0.436913
-0.0126358
-0.618663
-0.0275623
-0.740365
-0.0473499
-0.82183
-0.0707689
-0.881081
-0.0968653
-0.932495
-0.125142
-0.98465
-0.155512
-1.04189
-1.10548
-0.187916
-0.000668168
-0.184563
-0.00572707
-0.431854
-0.016729
-0.607661
-0.0335194
-0.723575
-0.0550309
-0.800318
-0.0800232
-0.856089
-0.107603
-0.904915
-0.137353
-0.9549
-0.169303
-1.00994
-1.07131
-0.203475
-0.00139971
-0.183163
-0.00796004
-0.425293
-0.0207623
-0.594859
-0.0393432
-0.704994
-0.0625002
-0.777161
-0.0889936
-0.829595
-0.117991
-0.875918
-0.149152
-0.923739
-0.182623
-0.976467
-1.03539
-0.218545
-0.00213651
-0.181027
-0.0101728
-0.417257
-0.0247199
-0.580311
-0.0450159
-0.684698
-0.0697408
-0.752436
-0.0976646
-0.801671
-0.128015
-0.845568
-0.160521
-0.891232
-0.195431
-0.941557
-0.997794
-0.233027
-0.00287293
-0.178154
-0.0123548
-0.407775
-0.0285865
-0.56408
-0.0505213
-0.662763
-0.0767375
-0.72622
-0.106023
-0.772386
-0.137663
-0.813928
-0.171447
-0.857448
-0.20768
-0.905324
-0.95853
-0.246943
-0.00360435
-0.174549
-0.0144958
-0.396884
-0.0323484
-0.546227
-0.0558445
-0.639267
-0.0834765
-0.698588
-0.114056
-0.741807
-0.146928
-0.781055
-0.18192
-0.822457
-0.218984
-0.86826
-0.919305
-0.258209
-0.00432644
-0.170223
-0.0165861
-0.384624
-0.0359925
-0.526821
-0.0609721
-0.614287
-0.0899454
-0.669615
-0.121753
-0.709999
-0.155801
-0.747008
-0.191955
-0.786303
-0.230242
-0.829974
-0.878818
-0.270729
-0.00503508
-0.165188
-0.0186166
-0.371043
-0.0395066
-0.505931
-0.0658916
-0.587902
-0.0961326
-0.639374
-0.129104
-0.677028
-0.164269
-0.711842
-0.201533
-0.74904
-0.240968
-0.790538
-0.837064
-0.282722
-0.00572636
-0.159461
-0.0205789
-0.35619
-0.0428797
-0.48363
-0.070592
-0.56019
-0.102028
-0.607938
-0.136099
-0.642957
-0.172324
-0.675617
-0.210644
-0.71072
-0.251163
-0.750018
-0.794134
-0.294094
-0.00639654
-0.153065
-0.0224648
-0.340122
-0.0461017
-0.459993
-0.0750631
-0.531229
-0.107622
-0.575379
-0.142728
-0.607851
-0.179956
-0.638389
-0.219279
-0.671397
-0.260833
-0.708465
-0.750105
-0.304861
-0.00704211
-0.146023
-0.024267
-0.322897
-0.0491634
-0.435097
-0.0792956
-0.501096
-0.112906
-0.541768
-0.148985
-0.571772
-0.187158
-0.600216
-0.227433
-0.631122
-0.269969
-0.665929
-0.705042
-0.315032
-0.00765973
-0.138363
-0.0259787
-0.304578
-0.0520562
-0.409019
-0.0832812
-0.469871
-0.117873
-0.507176
-0.154862
-0.534782
-0.193923
-0.561155
-0.235095
-0.58995
-0.278562
-0.622463
-0.659001
-0.324603
-0.00824631
-0.130117
-0.0275935
-0.285231
-0.0547726
-0.38184
-0.0870121
-0.437632
-0.122515
-0.471674
-0.160352
-0.496946
-0.200243
-0.521263
-0.242259
-0.547935
-0.286603
-0.578118
-0.61204
-0.333564
-0.00879895
-0.121318
-0.0291055
-0.264924
-0.0573054
-0.35364
-0.0904815
-0.404456
-0.126825
-0.43533
-0.165447
-0.458324
-0.206111
-0.480599
-0.248914
-0.505132
-0.29408
-0.532952
-0.564216
-0.341905
-0.00931496
-0.112003
-0.0305096
-0.24373
-0.0596483
-0.324501
-0.0936832
-0.370421
-0.130798
-0.398215
-0.170142
-0.41898
-0.211519
-0.439222
-0.255051
-0.461599
-0.300982
-0.487021
-0.515587
-0.349611
-0.00979189
-0.102211
-0.0318009
-0.221721
-0.0617957
-0.294507
-0.0966113
-0.335605
-0.134428
-0.360398
-0.174431
-0.378978
-0.21646
-0.397193
-0.260663
-0.417396
-0.307299
-0.440385
-0.466216
-0.35667
-0.0102275
-0.0919833
-0.0329751
-0.198973
-0.0637424
-0.263739
-0.0992608
-0.300087
-0.13771
-0.321949
-0.178307
-0.33838
-0.220929
-0.354571
-0.265741
-0.372584
-0.313017
-0.393109
-0.416167
-0.363066
-0.0106198
-0.0813635
-0.0340284
-0.175564
-0.065484
-0.232284
-0.101627
-0.263944
-0.140638
-0.282938
-0.181767
-0.297251
-0.224917
-0.311421
-0.270276
-0.327226
-0.318129
-0.345255
-0.365509
-0.368787
-0.010967
-0.0703966
-0.0349573
-0.151574
-0.0670164
-0.200225
-0.103706
-0.227254
-0.14321
-0.243435
-0.184804
-0.255657
-0.22842
-0.267805
-0.274261
-0.281385
-0.322623
-0.296893
-0.314311
-0.373821
-0.0112675
-0.0591291
-0.0357589
-0.127083
-0.0683362
-0.167647
-0.105495
-0.190095
-0.145421
-0.203509
-0.187416
-0.213662
-0.231433
-0.223788
-0.277689
-0.235129
-0.326492
-0.248091
-0.262647
-0.378156
-0.0115199
-0.0476092
-0.0364307
-0.102172
-0.0694404
-0.134638
-0.10699
-0.152545
-0.147269
-0.16323
-0.189598
-0.171332
-0.233951
-0.179435
-0.280556
-0.188525
-0.329727
-0.198919
-0.210592
-0.381783
-0.0117232
-0.035886
-0.0369707
-0.0769245
-0.0703267
-0.101282
-0.108189
-0.114682
-0.14875
-0.12267
-0.191348
-0.128735
-0.23597
-0.134813
-0.282855
-0.14164
-0.332323
-0.14945
-0.158221
-0.384694
-0.0118765
-0.0240095
-0.0373771
-0.0514239
-0.0709931
-0.0676656
-0.10909
-0.0765853
-0.149862
-0.0818976
-0.192662
-0.0859351
-0.237487
-0.0899884
-0.284582
-0.094544
-0.334275
-0.0997582
-0.105613
-0.386883
-0.011979
-0.0120304
-0.0376487
-0.0257543
-0.0714381
-0.0338762
-0.109692
-0.0383317
-0.150605
-0.0409841
-0.193539
-0.0430012
-0.238499
-0.0450281
-0.285736
-0.0473073
-0.335578
-0.0499166
-0.0528463
-0.388344
-0.0120304
9.40464e-11
-0.0377847
2.1086e-10
-0.0716609
2.82269e-10
-0.109993
3.12612e-10
-0.150977
3.1974e-10
-0.193978
3.12659e-10
-0.239006
3.02841e-10
-0.286313
2.90426e-10
-0.33623
2.77058e-10
2.61233e-10
-0.389076
-0.0120304
0.0120304
-0.0377847
0.0257543
-0.0716609
0.0338762
-0.109993
0.0383317
-0.150977
0.0409841
-0.193978
0.0430012
-0.239006
0.0450281
-0.286313
0.0473073
-0.33623
0.0499166
0.0528463
-0.389076
-0.011979
0.0240095
-0.0376487
0.0514239
-0.0714381
0.0676656
-0.109692
0.0765853
-0.150605
0.0818976
-0.193539
0.0859351
-0.238499
0.0899884
-0.285736
0.094544
-0.335578
0.0997582
0.105613
-0.388344
-0.0118765
0.035886
-0.0373771
0.0769245
-0.0709931
0.101282
-0.10909
0.114682
-0.149862
0.12267
-0.192662
0.128735
-0.237487
0.134813
-0.284582
0.14164
-0.334275
0.14945
0.158221
-0.386883
-0.0117232
0.0476092
-0.0369707
0.102172
-0.0703267
0.134638
-0.108189
0.152545
-0.14875
0.16323
-0.191348
0.171332
-0.23597
0.179435
-0.282855
0.188525
-0.332323
0.198919
0.210592
-0.384694
-0.0115199
0.0591291
-0.0364307
0.127083
-0.0694404
0.167647
-0.10699
0.190095
-0.147269
0.203509
-0.189598
0.213662
-0.233951
0.223788
-0.280556
0.235129
-0.329727
0.248091
0.262647
-0.381783
-0.0112675
0.0703966
-0.0357589
0.151574
-0.0683362
0.200225
-0.105495
0.227254
-0.145421
0.243435
-0.187416
0.255657
-0.231433
0.267805
-0.277689
0.281385
-0.326492
0.296893
0.314311
-0.378156
-0.010967
0.0813635
-0.0349573
0.175564
-0.0670164
0.232284
-0.103706
0.263944
-0.14321
0.282938
-0.184804
0.297251
-0.22842
0.311421
-0.274261
0.327226
-0.322623
0.345255
0.365509
-0.373821
-0.0106198
0.0919833
-0.0340284
0.198973
-0.065484
0.263739
-0.101627
0.300087
-0.140638
0.321949
-0.181767
0.33838
-0.224917
0.354571
-0.270276
0.372584
-0.318129
0.393109
0.416167
-0.368787
-0.0102275
0.102211
-0.0329751
0.221721
-0.0637424
0.294507
-0.0992608
0.335605
-0.13771
0.360398
-0.178307
0.378978
-0.220929
0.397193
-0.265741
0.417396
-0.313017
0.440385
0.466216
-0.363066
-0.00979189
0.112003
-0.0318009
0.24373
-0.0617957
0.324501
-0.0966113
0.370421
-0.134428
0.398215
-0.174431
0.41898
-0.21646
0.439222
-0.260663
0.461599
-0.307299
0.487021
0.515587
-0.35667
-0.00931496
0.121318
-0.0305096
0.264924
-0.0596483
0.35364
-0.0936832
0.404456
-0.130798
0.43533
-0.170142
0.458324
-0.211519
0.480599
-0.255051
0.505132
-0.300982
0.532952
0.564216
-0.349611
-0.00879895
0.130117
-0.0291055
0.285231
-0.0573054
0.38184
-0.0904815
0.437632
-0.126825
0.471674
-0.165447
0.496946
-0.206111
0.521263
-0.248914
0.547935
-0.29408
0.578118
0.61204
-0.341905
-0.00824631
0.138363
-0.0275935
0.304578
-0.0547726
0.409019
-0.0870121
0.469871
-0.122515
0.507176
-0.160352
0.534782
-0.200243
0.561155
-0.242259
0.58995
-0.286603
0.622463
0.659001
-0.333564
-0.00765973
0.146023
-0.0259787
0.322897
-0.0520562
0.435097
-0.0832812
0.501096
-0.117873
0.541768
-0.154862
0.571772
-0.193923
0.600216
-0.235095
0.631122
-0.278562
0.665929
0.705042
-0.324603
-0.00704211
0.153065
-0.024267
0.340122
-0.0491634
0.459993
-0.0792956
0.531229
-0.112906
0.575379
-0.148985
0.607851
-0.187158
0.638389
-0.227433
0.671397
-0.269969
0.708465
0.750105
-0.315032
-0.00639654
0.159461
-0.0224648
0.35619
-0.0461017
0.48363
-0.0750631
0.56019
-0.107622
0.607938
-0.142728
0.642957
-0.179956
0.675617
-0.219279
0.71072
-0.260833
0.750018
0.794134
-0.304861
-0.00572636
0.165188
-0.0205789
0.371043
-0.0428797
0.505931
-0.070592
0.587902
-0.102028
0.639374
-0.136099
0.677028
-0.172324
0.711842
-0.210644
0.74904
-0.251163
0.790538
0.837064
-0.294094
-0.00503508
0.170223
-0.0186166
0.384624
-0.0395066
0.526821
-0.0658916
0.614287
-0.0961326
0.669615
-0.129104
0.709999
-0.164269
0.747008
-0.201533
0.786303
-0.240968
0.829974
0.878818
-0.282722
-0.00432644
0.174549
-0.0165861
0.396884
-0.0359925
0.546227
-0.0609721
0.639267
-0.0899454
0.698588
-0.121753
0.741807
-0.155801
0.781055
-0.191955
0.822457
-0.230242
0.86826
0.919305
-0.270729
-0.00360435
0.178154
-0.0144958
0.407775
-0.0323484
0.56408
-0.0558445
0.662763
-0.0834765
0.72622
-0.114056
0.772386
-0.146928
0.813928
-0.18192
0.857448
-0.218984
0.905324
0.95853
-0.258209
-0.00287293
0.181027
-0.0123548
0.417257
-0.0285865
0.580311
-0.0505213
0.684698
-0.0767375
0.752436
-0.106023
0.801671
-0.137663
0.845568
-0.171447
0.891232
-0.20768
0.941557
0.997794
-0.246943
-0.00213651
0.183163
-0.0101728
0.425293
-0.0247199
0.594859
-0.0450159
0.704994
-0.0697408
0.777161
-0.0976646
0.829595
-0.128015
0.875918
-0.160521
0.923739
-0.195431
0.976467
1.03539
-0.233027
-0.00139971
0.184563
-0.00796004
0.431854
-0.0207623
0.607661
-0.0393432
0.723575
-0.0625002
0.800318
-0.0889936
0.856089
-0.117991
0.904915
-0.149152
0.9549
-0.182623
1.00994
1.07131
-0.218545
-0.000668168
0.185231
-0.00572707
0.436913
-0.016729
0.618663
-0.0335194
0.740365
-0.0550309
0.82183
-0.0800232
0.881081
-0.107603
0.932495
-0.137353
0.98465
-0.169303
1.04189
1.10548
-0.203475
4.50701e-05
0.185186
-0.00348436
0.440442
-0.0126358
0.627814
-0.0275623
0.755292
-0.0473499
0.841617
-0.0707689
0.9045
-0.0968653
0.958591
-0.125142
1.01293
-0.155512
1.07226
1.13789
-0.187916
0.000784037
0.184402
-0.00123787
0.442464
-0.00850001
0.635076
-0.0214913
0.768283
-0.0394757
0.859602
-0.0612477
0.926272
-0.085795
0.983138
-0.112535
1.03967
-0.141276
1.101
1.16851
-0.171899
0.00147606
0.182926
0.000976271
0.442964
-0.00433894
0.640392
-0.0153274
0.779271
-0.0314289
0.875703
-0.0514783
0.946321
-0.0744101
1.00607
-0.0995533
1.06481
-0.12662
1.12807
1.19734
-0.155446
0.00214672
0.180779
0.00315334
0.441957
-0.000136054
0.643681
-0.00909323
0.788229
-0.0232325
0.889842
-0.0414817
0.964571
-0.0627306
1.02732
-0.0862198
1.0883
-0.111571
1.15342
1.22435
-0.138584
0.0027931
0.177986
0.00529985
0.43945
0.00397261
0.645008
-0.00281653
0.795018
-0.0149113
0.901937
-0.0312811
0.98094
-0.0507787
1.04682
-0.0725578
1.11008
-0.0961555
1.17702
1.24953
-0.121337
0.00340966
0.174576
0.00739471
0.435465
0.00807473
0.644328
0.00347671
0.799616
-0.00649343
0.911907
-0.020902
0.995349
-0.0385783
1.06449
-0.0585921
1.13009
-0.0803992
1.19882
1.27286
-0.103727
0.00399209
0.170584
0.00942144
0.430036
0.0121164
0.641633
0.00975866
0.801974
0.00199163
0.919674
-0.0103731
1.00771
-0.0261558
1.08028
-0.0443485
1.14828
-0.0643276
1.2188
1.29431
-0.0857787
0.00453643
0.166048
0.0113659
0.423207
0.0160724
0.636927
0.016
0.802046
0.0105113
0.925163
0.000258609
1.01797
-0.0135398
1.09407
-0.0298547
1.1646
-0.0479661
1.23691
1.31386
-0.0675153
0.00503908
0.161009
0.0132152
0.41503
0.0199179
0.630224
0.0221668
0.799797
0.0190316
0.928298
0.0110096
1.02599
-0.000767779
1.10585
-0.0151426
1.17897
-0.0313394
1.25311
1.33148
-0.0489625
0.00549687
0.155512
0.0149571
0.40557
0.0236277
0.621553
0.028224
0.795201
0.0275118
0.929011
0.0217926
1.03171
0.0121504
1.11549
-0.000303278
1.19143
-0.0144673
1.26727
1.34716
-0.0301492
0.00590704
0.149605
0.0165796
0.394898
0.0271764
0.610957
0.0341351
0.788242
0.0359103
0.927235
0.0325826
1.03504
0.0251589
1.12292
0.0148402
1.20175
0.00264034
1.27947
1.36092
-0.0111193
0.00626733
0.143337
0.0180715
0.383093
0.0305387
0.59849
0.039862
0.778919
0.0441823
0.922915
0.0433346
1.03588
0.038217
1.12804
0.0300364
1.20993
0.019828
1.28968
1.3726
0.00815466
0.006576
0.136761
0.0194225
0.370247
0.0336899
0.584222
0.0453652
0.767243
0.0522794
0.916001
0.0539985
1.03416
0.0512794
1.13075
0.0453169
1.21589
0.0372118
1.29779
1.38214
0.0276639
0.00683185
0.12993
0.0206237
0.356455
0.0366061
0.56824
0.0506048
0.753245
0.0601505
0.906455
0.0645201
1.02979
0.0642977
1.13098
0.0606409
1.21955
0.0547053
1.30372
1.38957
0.0472785
0.0070343
0.122895
0.0216675
0.341822
0.0392645
0.550643
0.05554
0.736969
0.0677415
0.894254
0.0748406
1.02269
0.0772164
1.1286
0.0759587
1.2208
0.0722639
1.30742
1.39484
0.0669975
0.00718335
0.115712
0.0225477
0.326457
0.0416442
0.531546
0.0601306
0.718483
0.0749959
0.879389
0.0848963
1.01279
0.0899735
1.12352
0.0912157
1.21956
0.0898423
1.30879
1.39789
0.0867878
0.00727961
0.108432
0.0232601
0.310477
0.0437266
0.51108
0.0643371
0.697872
0.0818554
0.86187
0.0946183
1.00003
0.1025
1.11564
0.106351
1.21571
0.107389
1.30775
1.39867
0.106608
0.0073243
0.101108
0.0238023
0.293999
0.0454955
0.489386
0.0681218
0.675246
0.0882605
0.841731
0.103933
0.984359
0.114721
1.10485
0.121296
1.20913
0.124846
1.3042
1.39711
0.126412
0.00731921
0.0937888
0.024174
0.277144
0.0469384
0.466622
0.0714495
0.650735
0.0941512
0.81903
0.112764
0.965746
0.126552
1.09107
0.135973
1.19971
0.142149
1.29803
1.39311
0.146144
0.00726669
0.0865221
0.0243769
0.260034
0.0480461
0.442953
0.0742887
0.624493
0.0994685
0.79385
0.121028
0.944186
0.137902
1.07419
0.150295
1.18732
0.159219
1.2891
1.38659
0.165739
0.0071696
0.0793525
0.0244146
0.242789
0.0488137
0.418554
0.0766125
0.596694
0.104156
0.766307
0.128644
0.919698
0.148674
1.05416
0.164162
1.17183
0.175971
1.27729
1.37744
0.185123
0.00703123
0.0723213
0.0242931
0.225527
0.0492405
0.393606
0.0783995
0.567535
0.10816
0.736546
0.135525
0.892333
0.158762
1.03093
0.177466
1.15313
0.192304
1.26246
1.36553
0.204212
0.00685524
0.065466
0.02402
0.208362
0.0493304
0.368296
0.0796348
0.53723
0.111434
0.704747
0.14159
0.862177
0.168057
1.00446
0.190086
1.1311
0.208104
1.24444
1.35073
0.222906
0.0066456
0.0588204
0.0236047
0.191403
0.0490919
0.342809
0.0803109
0.506011
0.113937
0.671121
0.146757
0.829357
0.176443
0.974773
0.201891
1.10565
0.22324
1.22309
1.33288
0.241092
0.00640647
0.052414
0.0230582
0.174752
0.0485379
0.317329
0.0804281
0.474121
0.115639
0.63591
0.150952
0.794044
0.183804
0.941921
0.212739
1.07672
0.237567
1.19826
1.31181
0.258638
0.00614212
0.0462718
0.0223926
0.158501
0.0476855
0.292036
0.0799952
0.441811
0.116519
0.599386
0.15411
0.756453
0.190027
0.906004
0.222481
1.04426
0.250922
1.16982
1.28733
0.275397
0.00585683
0.040415
0.021621
0.142737
0.0465555
0.267102
0.079029
0.409338
0.11657
0.561845
0.156176
0.716847
0.195003
0.867177
0.230965
1.0083
0.263125
1.13766
1.25926
0.291202
0.00555479
0.0348602
0.020757
0.127535
0.0451718
0.242687
0.0775545
0.376955
0.115796
0.523604
0.157113
0.67553
0.198633
0.825657
0.238036
0.968898
0.273986
1.10171
1.22737
0.305871
0.00523997
0.0296203
0.0198144
0.11296
0.0435605
0.218941
0.0756038
0.344912
0.114218
0.48499
0.156898
0.63285
0.200833
0.781722
0.243545
0.926186
0.2833
1.06195
1.19146
0.319213
0.00491608
0.0247042
0.0188067
0.0990696
0.0417496
0.195998
0.0732156
0.313446
0.111866
0.446339
0.15553
0.589186
0.201539
0.735713
0.247355
0.88037
0.290861
1.01845
1.15129
0.331031
0.00458647
0.0201177
0.017747
0.0859091
0.0397673
0.173978
0.0704331
0.28278
0.108787
0.407985
0.153028
0.544946
0.20071
0.68803
0.249343
0.831737
0.29646
0.971331
1.10661
0.341141
0.00425404
0.0158637
0.0166474
0.0735157
0.0376421
0.152983
0.0673032
0.253119
0.105037
0.370251
0.149431
0.500552
0.198334
0.639128
0.249413
0.780658
0.299899
0.920845
1.05712
0.34939
0.00392125
0.0119424
0.0155192
0.0619178
0.0354012
0.133101
0.0638747
0.224645
0.100681
0.333444
0.144801
0.456432
0.194428
0.5895
0.247493
0.727594
0.300999
0.867338
1.00243
0.355682
0.00359004
0.00835237
0.014372
0.0511358
0.0330704
0.114402
0.0601965
0.197519
0.0957916
0.297849
0.139215
0.413008
0.189042
0.539674
0.243542
0.673094
0.299624
0.811256
0.942036
0.360022
0.0032619
0.00509047
0.0132144
0.0411833
0.0306734
0.0969435
0.0563167
0.171876
0.0904445
0.263721
0.132768
0.370685
0.182253
0.490188
0.237542
0.617805
0.295696
0.753102
0.8752
0.362532
0.00293785
0.00215262
0.0120536
0.0320675
0.0282317
0.0807653
0.0522811
0.147827
0.0847183
0.231284
0.125566
0.329838
0.174171
0.441583
0.229498
0.562478
0.288941
0.693659
0.80098
0.36316
0.00261854
-0.000465914
0.0108954
0.0237907
0.0257642
0.0658965
0.0481329
0.125458
0.0786912
0.200726
0.117727
0.290802
0.164939
0.394371
0.219534
0.507884
0.279214
0.633979
0.739145
0.341049
0.00230432
-0.00277023
0.00974466
0.0163503
0.0232877
0.0523534
0.0439117
0.104834
0.0724392
0.172198
0.109376
0.253865
0.154737
0.34901
0.207899
0.454721
0.267632
0.574246
0.677599
0.329178
0.00199533
-0.00476556
0.00860545
0.00974022
0.0208169
0.040142
0.0396539
0.085997
0.0660348
0.145818
0.100638
0.219261
0.143759
0.305889
0.194987
0.403494
0.254086
0.515147
0.615745
0.31594
0.00169164
-0.0064572
0.00748126
0.0039506
0.0183648
0.0292584
0.0353924
0.0689694
0.0595456
0.121664
0.0916341
0.187173
0.132189
0.265335
0.181045
0.354637
0.238706
0.457486
0.554061
0.300391
0.00139335
-0.00785055
0.0063754
-0.00103145
0.0159437
0.0196901
0.0311577
0.0537554
0.0530345
0.0997876
0.0824759
0.157732
0.120199
0.227612
0.166292
0.308544
0.221765
0.402013
0.49329
0.282536
0.00110071
-0.00895126
0.00529128
-0.00522201
0.0135652
0.0114162
0.0269783
0.0403423
0.0465599
0.0802061
0.0732702
0.131021
0.10796
0.192922
0.150961
0.265544
0.203597
0.349377
0.434271
0.262616
0.000814229
-0.00976549
0.00423271
-0.0086405
0.0112412
0.00440775
0.0228817
0.0287017
0.0401771
0.0629107
0.064117
0.107081
0.0956403
0.161398
0.135289
0.225895
0.18455
0.300115
0.377827
0.240994
0.000534759
-0.0103002
0.00320418
-0.0113099
0.00898397
-0.00137205
0.0188953
0.0187904
0.0339396
0.0478664
0.0551117
0.0859093
0.0833975
0.133113
0.119512
0.18978
0.164978
0.254649
0.324681
0.218124
0.000263701
-0.0105639
0.002211
-0.0132572
0.00680705
-0.0059681
0.0150469
0.0105505
0.0278996
0.0350137
0.0463456
0.0674633
0.0713841
0.108074
0.103858
0.157306
0.14523
0.213278
0.275414
0.194497