/*--------------------------------*- C++ -*----------------------------------*\
  =========                 |
  \\      /  F ield         | OpenFOAM: The Open Source CFD Toolbox
   \\    /   O peration     | Website:  https://openfoam.org
    \\  /    A nd           | Version:  9
     \\/     M anipulation  |
\*---------------------------------------------------------------------------*/
FoamFile
{
    format      ascii;
    class       volScalarField;
    location    "46.6";
    object      p;
}
// * * * * * * * * * * * * * * * * * * * * * * * * * * * * * * * * * * * * * //

dimensions      [0 2 -2 0 0 0 0];

internalField   nonuniform List<scalar> 
8500
(
-0.280114
-0.284327
-0.285163
-0.28691
-0.288995
-0.289241
-0.292994
-0.28937
-0.295541
-0.288227
-0.280378
-0.28453
-0.28536
-0.287076
-0.289193
-0.289336
-0.293291
-0.289306
-0.295954
-0.288114
-0.280901
-0.284932
-0.285748
-0.2874
-0.289582
-0.289513
-0.293877
-0.28916
-0.296775
-0.287886
-0.281668
-0.285521
-0.286313
-0.287867
-0.290144
-0.289754
-0.29473
-0.288904
-0.297993
-0.28754
-0.282662
-0.286282
-0.287037
-0.288454
-0.290854
-0.290031
-0.295818
-0.288501
-0.299583
-0.287072
-0.283858
-0.287196
-0.287899
-0.289135
-0.291676
-0.29032
-0.297085
-0.287915
-0.301507
-0.286462
-0.285233
-0.288243
-0.288871
-0.289881
-0.292568
-0.290596
-0.298457
-0.287116
-0.303706
-0.285653
-0.286758
-0.2894
-0.289925
-0.290664
-0.293478
-0.290846
-0.299838
-0.286093
-0.30609
-0.284635
-0.288408
-0.290647
-0.291034
-0.291457
-0.294348
-0.291067
-0.301112
-0.28492
-0.308221
-0.283616
-0.29016
-0.291964
-0.292169
-0.29224
-0.295122
-0.291273
-0.302063
-0.283824
-0.310021
-0.282222
-0.291994
-0.293336
-0.293306
-0.292997
-0.295741
-0.291551
-0.302555
-0.282702
-0.311449
-0.280606
-0.293898
-0.294752
-0.294426
-0.29372
-0.296102
-0.291946
-0.302602
-0.281625
-0.312098
-0.279245
-0.295865
-0.296204
-0.295516
-0.294425
-0.296227
-0.29233
-0.302203
-0.280912
-0.311422
-0.278697
-0.297899
-0.297695
-0.296571
-0.295092
-0.296172
-0.292649
-0.301293
-0.280727
-0.309026
-0.27899
-0.300011
-0.29923
-0.297601
-0.2957
-0.295983
-0.292883
-0.299934
-0.280992
-0.304892
-0.279321
-0.302228
-0.300816
-0.298643
-0.296254
-0.295712
-0.29284
-0.298251
-0.281339
-0.299516
-0.278597
-0.304582
-0.302475
-0.299727
-0.296787
-0.295434
-0.292481
-0.296332
-0.281381
-0.293545
-0.276292
-0.307114
-0.304238
-0.300887
-0.297337
-0.295209
-0.291826
-0.294147
-0.280923
-0.287234
-0.272424
-0.309874
-0.306141
-0.302166
-0.297941
-0.295043
-0.290986
-0.291603
-0.279893
-0.280516
-0.267411
-0.312917
-0.308223
-0.303616
-0.298626
-0.294896
-0.290081
-0.288679
-0.27815
-0.273433
-0.262033
-0.316298
-0.310535
-0.305288
-0.299391
-0.294742
-0.28915
-0.285448
-0.275467
-0.266604
-0.25678
-0.320062
-0.313146
-0.30722
-0.300221
-0.294614
-0.288133
-0.281994
-0.271791
-0.260474
-0.250258
-0.324283
-0.316107
-0.309418
-0.301127
-0.294568
-0.286909
-0.278346
-0.267386
-0.254321
-0.243517
-0.329024
-0.319482
-0.311844
-0.302188
-0.294599
-0.285371
-0.274507
-0.26239
-0.248167
-0.236731
-0.334349
-0.323324
-0.314448
-0.303537
-0.294618
-0.283459
-0.270427
-0.257001
-0.241899
-0.229855
-0.340323
-0.327646
-0.317233
-0.305248
-0.294503
-0.281147
-0.266087
-0.251313
-0.235492
-0.222955
-0.347022
-0.332397
-0.320311
-0.307244
-0.294154
-0.278429
-0.261468
-0.245388
-0.228948
-0.215963
-0.354516
-0.337482
-0.323886
-0.309325
-0.293492
-0.27531
-0.256564
-0.239249
-0.222252
-0.20888
-0.362847
-0.342797
-0.328142
-0.311273
-0.292449
-0.271793
-0.251364
-0.232898
-0.215401
-0.201664
-0.371991
-0.34828
-0.333121
-0.312935
-0.290954
-0.267873
-0.245858
-0.226325
-0.208376
-0.194296
-0.38183
-0.353945
-0.338645
-0.314214
-0.288945
-0.263531
-0.240029
-0.219512
-0.201158
-0.18675
-0.39214
-0.359868
-0.344326
-0.315033
-0.286367
-0.258737
-0.233855
-0.212437
-0.193724
-0.179003
-0.40259
-0.366147
-0.349677
-0.315302
-0.283178
-0.253456
-0.227306
-0.205077
-0.186051
-0.171035
-0.412861
-0.372844
-0.354239
-0.314907
-0.279337
-0.247649
-0.22035
-0.197403
-0.178117
-0.162827
-0.422649
-0.379925
-0.357658
-0.313717
-0.274804
-0.241282
-0.212956
-0.189387
-0.1699
-0.154362
-0.431697
-0.387217
-0.359715
-0.311595
-0.269531
-0.234323
-0.205091
-0.181001
-0.16138
-0.145622
-0.439803
-0.394396
-0.360305
-0.308415
-0.263469
-0.226737
-0.196725
-0.172221
-0.152535
-0.136595
-0.446806
-0.401006
-0.359415
-0.304078
-0.256563
-0.218492
-0.187828
-0.163023
-0.143348
-0.127275
-0.452577
-0.406522
-0.357071
-0.298513
-0.248761
-0.209553
-0.178376
-0.153388
-0.133804
-0.11767
-0.45701
-0.410467
-0.353255
-0.291673
-0.240013
-0.199888
-0.168346
-0.143296
-0.12389
-0.107806
-0.460003
-0.412505
-0.347847
-0.283514
-0.230277
-0.189468
-0.157719
-0.132732
-0.113595
-0.0977009
-0.461448
-0.412358
-0.340753
-0.27399
-0.219518
-0.178268
-0.14648
-0.12168
-0.102912
-0.0873309
-0.461217
-0.409824
-0.331913
-0.263064
-0.207708
-0.166268
-0.134615
-0.110129
-0.0918484
-0.076636
-0.45915
-0.404767
-0.321281
-0.250712
-0.194828
-0.153455
-0.12211
-0.0980697
-0.0804482
-0.0655357
-0.455062
-0.397098
-0.308806
-0.236932
-0.180865
-0.139814
-0.108955
-0.0855034
-0.0687573
-0.0540072
-0.448746
-0.386756
-0.294452
-0.221729
-0.165805
-0.12534
-0.095156
-0.0724696
-0.0567511
-0.042183
-0.439985
-0.373708
-0.278196
-0.205102
-0.149634
-0.110057
-0.0807527
-0.0590491
-0.0443172
-0.030155
-0.428568
-0.357936
-0.260031
-0.187049
-0.132359
-0.0940269
-0.0658088
-0.0452203
-0.0314639
-0.0179294
-0.414303
-0.339439
-0.239952
-0.167591
-0.114065
-0.0773085
-0.050282
-0.0309928
-0.0182375
-0.00551273
-0.397028
-0.318236
-0.217947
-0.146814
-0.0949039
-0.0598032
-0.0342136
-0.01638
-0.0046859
0.00708153
-0.376626
-0.294384
-0.194015
-0.12487
-0.0748164
-0.0415662
-0.0176436
-0.00140645
0.00914805
0.0198267
-0.353031
-0.268012
-0.168241
-0.101733
-0.0538465
-0.0226571
-0.000615733
0.0138953
0.023223
0.0326862
-0.326231
-0.239288
-0.140812
-0.077318
-0.0320526
-0.00314209
0.0168223
0.0294856
0.0374991
0.0456157
-0.296273
-0.208242
-0.111866
-0.0517413
-0.00950192
0.0169087
0.0346161
0.0453205
0.0519398
0.0585707
-0.263278
-0.174611
-0.0817953
-0.0251468
0.0137312
0.0374202
0.0527052
0.0613547
0.0665139
0.0715076
-0.22742
-0.138702
-0.0505495
0.00231555
0.0375601
0.0583125
0.0710248
0.0775465
0.0811892
0.0843558
-0.1888
-0.100923
-0.0181805
0.0304994
0.0618849
0.0795005
0.0895096
0.0938622
0.0959102
0.0969419
-0.147384
-0.061907
0.015182
0.0592621
0.0865945
0.100895
0.108097
0.110268
0.110564
0.108929
-0.103658
-0.0218124
0.0493586
0.088461
0.111569
0.122402
0.126728
0.126705
0.124977
0.120029
-0.0579795
0.0191692
0.0841449
0.117947
0.136684
0.143927
0.145332
0.143063
0.138986
0.13056
-0.0107287
0.0608007
0.119321
0.147563
0.161807
0.165372
0.163827
0.1592
0.152537
0.141838
0.0376924
0.102818
0.154659
0.177146
0.186806
0.186637
0.182114
0.175007
0.165834
0.153646
0.0868649
0.144941
0.189923
0.206525
0.211544
0.207616
0.200098
0.19045
0.178925
0.165496
0.136358
0.186875
0.224876
0.235527
0.235884
0.228201
0.217685
0.205483
0.191755
0.177212
0.185733
0.228324
0.259281
0.263976
0.259687
0.248281
0.234786
0.22006
0.204251
0.188612
0.234552
0.268984
0.292901
0.291694
0.282816
0.267747
0.251315
0.234123
0.216348
0.199601
0.282376
0.308559
0.325503
0.318506
0.305132
0.286488
0.267188
0.247609
0.227976
0.210099
0.328777
0.346754
0.356862
0.344241
0.326504
0.3044
0.282323
0.260456
0.239073
0.220046
0.373334
0.383291
0.386759
0.368731
0.346799
0.321378
0.296641
0.2726
0.249578
0.229393
0.415638
0.417909
0.414985
0.391814
0.365894
0.337325
0.310066
0.283981
0.259432
0.238098
0.455314
0.450352
0.441342
0.413335
0.383667
0.352145
0.322524
0.294538
0.268582
0.246122
0.492062
0.480331
0.465642
0.433148
0.400007
0.365752
0.333947
0.304216
0.276976
0.253432
0.525586
0.507588
0.487707
0.451118
0.414809
0.378063
0.344271
0.312963
0.284566
0.259996
0.555596
0.531909
0.507379
0.467121
0.42798
0.389004
0.353438
0.32073
0.291309
0.265788
0.581828
0.553108
0.524514
0.481047
0.439432
0.39851
0.361396
0.327474
0.297165
0.270787
0.60405
0.571022
0.538988
0.492802
0.449092
0.406522
0.3681
0.333156
0.302099
0.274976
0.622069
0.585519
0.550695
0.502304
0.456898
0.412992
0.373511
0.337741
0.306082
0.27834
0.635723
0.596487
0.559551
0.509489
0.462797
0.417879
0.377597
0.341205
0.309091
0.280869
0.644894
0.603846
0.565491
0.514306
0.466752
0.421154
0.380335
0.343525
0.311107
0.282558
0.6495
0.607539
0.568472
0.516723
0.468735
0.422797
0.381708
0.344689
0.312118
0.283403
0.6495
0.607539
0.568472
0.516723
0.468735
0.422797
0.381708
0.344689
0.312118
0.283403
0.644894
0.603846
0.565491
0.514306
0.466752
0.421154
0.380335
0.343525
0.311107
0.282558
0.635723
0.596487
0.559551
0.509489
0.462797
0.417879
0.377597
0.341205
0.309091
0.280869
0.622069
0.585519
0.550695
0.502304
0.456898
0.412992
0.373511
0.337741
0.306082
0.27834
0.60405
0.571022
0.538987
0.492802
0.449092
0.406522
0.3681
0.333155
0.302099
0.274976
0.581828
0.553108
0.524514
0.481047
0.439432
0.39851
0.361396
0.327474
0.297165
0.270787
0.555596
0.531909
0.507379
0.46712
0.427979
0.389004
0.353438
0.32073
0.291309
0.265788
0.525586
0.507588
0.487707
0.451117
0.414809
0.378063
0.344271
0.312963
0.284566
0.259996
0.492062
0.480331
0.465642
0.433148
0.400007
0.365752
0.333946
0.304216
0.276976
0.253432
0.455314
0.450352
0.441342
0.413335
0.383667
0.352145
0.322524
0.294537
0.268582
0.246122
0.415638
0.417909
0.414985
0.391814
0.365893
0.337325
0.310066
0.28398
0.259432
0.238098
0.373334
0.383291
0.386759
0.368731
0.346799
0.321378
0.296641
0.2726
0.249577
0.229393
0.328777
0.346754
0.356862
0.344241
0.326504
0.3044
0.282323
0.260456
0.239073
0.220046
0.282376
0.308559
0.325503
0.318506
0.305132
0.286488
0.267188
0.247609
0.227976
0.210098
0.234552
0.268984
0.292901
0.291694
0.282815
0.267746
0.251315
0.234123
0.216348
0.199601
0.185733
0.228323
0.259281
0.263975
0.259687
0.248281
0.234786
0.22006
0.204251
0.188612
0.136358
0.186875
0.224876
0.235527
0.235884
0.228201
0.217685
0.205483
0.191755
0.177212
0.0868647
0.144941
0.189923
0.206525
0.211544
0.207616
0.200098
0.19045
0.178925
0.165496
0.0376922
0.102818
0.154659
0.177146
0.186806
0.186637
0.182113
0.175007
0.165834
0.153645
-0.010729
0.0608004
0.119321
0.147563
0.161807
0.165372
0.163826
0.1592
0.152537
0.141838
-0.0579799
0.019169
0.0841446
0.117947
0.136684
0.143926
0.145332
0.143063
0.138985
0.13056
-0.103658
-0.0218127
0.0493583
0.0884607
0.111569
0.122401
0.126727
0.126705
0.124977
0.120029
-0.147385
-0.0619073
0.0151817
0.0592618
0.0865942
0.100894
0.108097
0.110268
0.110564
0.108929
-0.188801
-0.100924
-0.0181808
0.0304991
0.0618846
0.0795002
0.0895094
0.093862
0.0959101
0.0969417
-0.22742
-0.138703
-0.0505499
0.00231524
0.0375599
0.0583122
0.0710246
0.0775463
0.0811891
0.0843557
-0.263278
-0.174611
-0.0817957
-0.0251471
0.0137309
0.0374199
0.052705
0.0613544
0.0665137
0.0715074
-0.296274
-0.208242
-0.111866
-0.0517416
-0.00950223
0.0169084
0.0346158
0.0453203
0.0519396
0.0585706
-0.326232
-0.239288
-0.140813
-0.0773184
-0.0320529
-0.00314238
0.016822
0.0294854
0.0374989
0.0456155
-0.353032
-0.268013
-0.168241
-0.101734
-0.0538469
-0.0226574
-0.000616005
0.0138951
0.0232228
0.032686
-0.376627
-0.294385
-0.194016
-0.124871
-0.0748168
-0.0415665
-0.0176439
-0.0014067
0.00914784
0.0198265
-0.397028
-0.318236
-0.217947
-0.146814
-0.0949043
-0.0598035
-0.0342139
-0.0163803
-0.00468611
0.00708135
-0.414303
-0.33944
-0.239953
-0.167591
-0.114065
-0.0773088
-0.0502823
-0.030993
-0.0182378
-0.00551291
-0.428569
-0.357936
-0.260032
-0.187049
-0.132359
-0.0940272
-0.0658091
-0.0452205
-0.0314641
-0.0179296
-0.439986
-0.373708
-0.278197
-0.205103
-0.149634
-0.110057
-0.080753
-0.0590494
-0.0443174
-0.0301552
-0.448747
-0.386757
-0.294452
-0.22173
-0.165806
-0.125341
-0.0951564
-0.0724699
-0.0567514
-0.0421831
-0.455063
-0.397098
-0.308807
-0.236933
-0.180865
-0.139814
-0.108955
-0.0855037
-0.0687575
-0.0540074
-0.459151
-0.404768
-0.321282
-0.250712
-0.194829
-0.153455
-0.12211
-0.0980699
-0.0804484
-0.0655358
-0.461218
-0.409825
-0.331914
-0.263065
-0.207709
-0.166269
-0.134615
-0.11013
-0.0918486
-0.0766361
-0.461449
-0.412359
-0.340754
-0.273991
-0.219519
-0.178268
-0.14648
-0.12168
-0.102912
-0.0873311
-0.460004
-0.412506
-0.347848
-0.283514
-0.230277
-0.189468
-0.157719
-0.132732
-0.113596
-0.097701
-0.457011
-0.410468
-0.353256
-0.291674
-0.240013
-0.199889
-0.168346
-0.143297
-0.12389
-0.107806
-0.452578
-0.406523
-0.357072
-0.298514
-0.248761
-0.209554
-0.178376
-0.153388
-0.133804
-0.11767
-0.446807
-0.401007
-0.359416
-0.304078
-0.256564
-0.218492
-0.187828
-0.163024
-0.143348
-0.127275
-0.439804
-0.394397
-0.360306
-0.308416
-0.26347
-0.226738
-0.196725
-0.172221
-0.152535
-0.136595
-0.431698
-0.387218
-0.359716
-0.311596
-0.269532
-0.234323
-0.205092
-0.181001
-0.16138
-0.145622
-0.42265
-0.379926
-0.357659
-0.313718
-0.274804
-0.241283
-0.212957
-0.189387
-0.1699
-0.154362
-0.412862
-0.372845
-0.35424
-0.314908
-0.279338
-0.24765
-0.220351
-0.197403
-0.178117
-0.162827
-0.402591
-0.366149
-0.349678
-0.315303
-0.283178
-0.253456
-0.227306
-0.205077
-0.186051
-0.171035
-0.392141
-0.359869
-0.344327
-0.315034
-0.286368
-0.258738
-0.233855
-0.212437
-0.193724
-0.179003
-0.381831
-0.353946
-0.338646
-0.314215
-0.288946
-0.263532
-0.24003
-0.219512
-0.201158
-0.18675
-0.371992
-0.348281
-0.333122
-0.312936
-0.290955
-0.267874
-0.245859
-0.226325
-0.208376
-0.194296
-0.362848
-0.342798
-0.328143
-0.311274
-0.29245
-0.271794
-0.251365
-0.232898
-0.215401
-0.201663
-0.354518
-0.337483
-0.323887
-0.309326
-0.293493
-0.27531
-0.256564
-0.239249
-0.222253
-0.208879
-0.347024
-0.332398
-0.320312
-0.307245
-0.294155
-0.278429
-0.261469
-0.245388
-0.228948
-0.215963
-0.340325
-0.327647
-0.317234
-0.305249
-0.294504
-0.281148
-0.266088
-0.251313
-0.235492
-0.222954
-0.33435
-0.323325
-0.31445
-0.303538
-0.294619
-0.28346
-0.270428
-0.257001
-0.241899
-0.229855
-0.329026
-0.319483
-0.311846
-0.302189
-0.2946
-0.285372
-0.274508
-0.26239
-0.248168
-0.236731
-0.324284
-0.316108
-0.309419
-0.301128
-0.294569
-0.28691
-0.278348
-0.267387
-0.254321
-0.243517
-0.320063
-0.313147
-0.307221
-0.300223
-0.294615
-0.288134
-0.281995
-0.271791
-0.260474
-0.250258
-0.3163
-0.310537
-0.305289
-0.299392
-0.294744
-0.289152
-0.285449
-0.275468
-0.266604
-0.256779
-0.312918
-0.308225
-0.303618
-0.298627
-0.294898
-0.290082
-0.28868
-0.278151
-0.273433
-0.262033
-0.309875
-0.306142
-0.302167
-0.297943
-0.295044
-0.290987
-0.291604
-0.279894
-0.280516
-0.26741
-0.307115
-0.304239
-0.300888
-0.297338
-0.29521
-0.291828
-0.294148
-0.280925
-0.287235
-0.272423
-0.304583
-0.302476
-0.299728
-0.296788
-0.295435
-0.292483
-0.296334
-0.281382
-0.293545
-0.276291
-0.302228
-0.300817
-0.298644
-0.296256
-0.295714
-0.292841
-0.298253
-0.28134
-0.299517
-0.278596
-0.300012
-0.299231
-0.297602
-0.295701
-0.295985
-0.292884
-0.299936
-0.280993
-0.304892
-0.279321
-0.2979
-0.297696
-0.296572
-0.295093
-0.296173
-0.29265
-0.301295
-0.280728
-0.309027
-0.278989
-0.295866
-0.296205
-0.295517
-0.294427
-0.296228
-0.292332
-0.302205
-0.280913
-0.311422
-0.278696
-0.293898
-0.294752
-0.294426
-0.293721
-0.296103
-0.291948
-0.302604
-0.281626
-0.312099
-0.279245
-0.291995
-0.293337
-0.293307
-0.292998
-0.295742
-0.291552
-0.302556
-0.282703
-0.311449
-0.280605
-0.29016
-0.291965
-0.29217
-0.292241
-0.295123
-0.291274
-0.302064
-0.283825
-0.310022
-0.282221
-0.288409
-0.290648
-0.291035
-0.291458
-0.294349
-0.291068
-0.301113
-0.284921
-0.308221
-0.283616
-0.286758
-0.289401
-0.289926
-0.290665
-0.293479
-0.290847
-0.299839
-0.286094
-0.30609
-0.284635
-0.285233
-0.288244
-0.288871
-0.289882
-0.292569
-0.290597
-0.298457
-0.287117
-0.303706
-0.285653
-0.283859
-0.287197
-0.287899
-0.289135
-0.291677
-0.29032
-0.297085
-0.287915
-0.301507
-0.286462
-0.282662
-0.286282
-0.287038
-0.288454
-0.290854
-0.290032
-0.295818
-0.288501
-0.299583
-0.287071
-0.281668
-0.285521
-0.286313
-0.287867
-0.290144
-0.289754
-0.294731
-0.288904
-0.297993
-0.28754
-0.280901
-0.284932
-0.285748
-0.2874
-0.289582
-0.289513
-0.293877
-0.28916
-0.296775
-0.287886
-0.280378
-0.28453
-0.28536
-0.287076
-0.289194
-0.289336
-0.293291
-0.289306
-0.295954
-0.288114
-0.280114
-0.284327
-0.285163
-0.28691
-0.288995
-0.289241
-0.292994
-0.28937
-0.295541
-0.288226
-0.295564
-0.285947
-0.286872
-0.278832
-0.274535
-0.265702
-0.257668
-0.246783
-0.235365
-0.221776
-0.207024
-0.190656
-0.172926
-0.154559
-0.135172
-0.116629
-0.0980193
-0.0816392
-0.0663565
-0.0536882
-0.0429365
-0.0339561
-0.0272813
-0.0209553
-0.0171828
-0.0120888
-0.0101303
-0.00593383
-0.00471919
-0.000987931
-0.295805
-0.286084
-0.286973
-0.278955
-0.274637
-0.265818
-0.25778
-0.246902
-0.235484
-0.221898
-0.207145
-0.190779
-0.173046
-0.154677
-0.135283
-0.116733
-0.0981106
-0.0817159
-0.0664198
-0.0537369
-0.0429764
-0.0339875
-0.0273099
-0.0209795
-0.0172044
-0.0121038
-0.010142
-0.00594238
-0.00472783
-0.000996405
-0.296256
-0.28634
-0.287168
-0.279187
-0.274842
-0.266042
-0.257999
-0.247134
-0.235718
-0.22214
-0.207387
-0.191024
-0.173284
-0.154909
-0.135499
-0.116934
-0.0982861
-0.081866
-0.0665465
-0.0538377
-0.0430608
-0.0340541
-0.0273681
-0.0210267
-0.0172456
-0.0121331
-0.0101656
-0.00596054
-0.00474542
-0.00101314
-0.296873
-0.286684
-0.287441
-0.279513
-0.275117
-0.266363
-0.258312
-0.247468
-0.236056
-0.222491
-0.20774
-0.19138
-0.17363
-0.155248
-0.135814
-0.117224
-0.0985476
-0.0820885
-0.0667366
-0.0539916
-0.0431909
-0.0341572
-0.0274569
-0.021098
-0.0173069
-0.0121775
-0.0102013
-0.00598866
-0.00477153
-0.00103762
-0.297584
-0.287061
-0.287772
-0.279899
-0.275481
-0.266757
-0.258707
-0.247888
-0.236485
-0.222937
-0.208189
-0.191837
-0.174078
-0.155685
-0.136222
-0.117601
-0.0988872
-0.082382
-0.0669905
-0.0541998
-0.0433683
-0.0342991
-0.0275777
-0.0211948
-0.0173888
-0.0122382
-0.0102493
-0.0060272
-0.00480555
-0.00106913
-0.298306
-0.287453
-0.28812
-0.280336
-0.275865
-0.267216
-0.259152
-0.248381
-0.236985
-0.223464
-0.208725
-0.192379
-0.174605
-0.156204
-0.136717
-0.118059
-0.0993035
-0.0827454
-0.0673086
-0.054464
-0.043595
-0.0344819
-0.0277322
-0.021319
-0.0174921
-0.0123163
-0.01031
-0.00607666
-0.00484669
-0.00110679
-0.29901
-0.287726
-0.288486
-0.280748
-0.276295
-0.267682
-0.259655
-0.248907
-0.237543
-0.224043
-0.209315
-0.192987
-0.175212
-0.1568
-0.137285
-0.118591
-0.0997931
-0.0831775
-0.0676918
-0.054786
-0.0438731
-0.0347083
-0.0279225
-0.0214723
-0.0176176
-0.0124132
-0.0103836
-0.00613747
-0.00489402
-0.00114958
-0.299434
-0.288039
-0.288729
-0.281186
-0.276662
-0.268186
-0.260131
-0.249478
-0.238115
-0.224673
-0.209955
-0.19365
-0.175872
-0.157456
-0.13792
-0.119191
-0.100353
-0.0836771
-0.0681413
-0.0551679
-0.0442049
-0.0349808
-0.0281501
-0.0216565
-0.017766
-0.0125302
-0.0104702
-0.00620993
-0.00494654
-0.00119643
-0.299489
-0.288307
-0.288813
-0.281586
-0.276969
-0.268659
-0.260604
-0.250039
-0.238701
-0.225314
-0.210618
-0.194346
-0.176575
-0.158162
-0.138613
-0.119852
-0.100981
-0.0842439
-0.0686578
-0.0556114
-0.0445922
-0.0353015
-0.0284169
-0.0218732
-0.017938
-0.0126682
-0.0105698
-0.00629419
-0.0050032
-0.00124627
-0.299154
-0.288426
-0.288757
-0.281871
-0.277205
-0.269067
-0.261026
-0.250572
-0.239265
-0.225952
-0.211286
-0.195059
-0.177306
-0.158906
-0.139356
-0.12057
-0.101674
-0.084877
-0.0692421
-0.056118
-0.0450366
-0.035672
-0.0287241
-0.0221236
-0.0181342
-0.0128278
-0.0106825
-0.0063902
-0.00506296
-0.00129807
-0.29814
-0.288399
-0.288474
-0.282012
-0.2773
-0.269381
-0.261375
-0.251047
-0.239786
-0.226562
-0.211939
-0.195772
-0.178051
-0.159678
-0.140141
-0.12134
-0.10243
-0.0855754
-0.0698941
-0.0566882
-0.0455389
-0.0360932
-0.0290722
-0.0224082
-0.0183547
-0.0130094
-0.0108078
-0.00649768
-0.00512487
-0.00135086
-0.296261
-0.288118
-0.287922
-0.281949
-0.277256
-0.269538
-0.261608
-0.251429
-0.240237
-0.22712
-0.212559
-0.196469
-0.178798
-0.160467
-0.140962
-0.122156
-0.103245
-0.0863375
-0.0706128
-0.0573218
-0.0460987
-0.0365651
-0.0294613
-0.0227269
-0.0185993
-0.0132127
-0.0109456
-0.00661617
-0.00518806
-0.00140378
-0.29354
-0.287436
-0.28707
-0.281591
-0.276959
-0.269539
-0.261711
-0.251694
-0.240597
-0.227605
-0.213125
-0.197134
-0.179534
-0.161265
-0.141811
-0.123015
-0.104116
-0.0871611
-0.0713964
-0.0580173
-0.0467149
-0.0370866
-0.0298905
-0.0230792
-0.0188677
-0.0134373
-0.0110951
-0.00674504
-0.00525182
-0.00145612
-0.290373
-0.286156
-0.285819
-0.280923
-0.276455
-0.269243
-0.261595
-0.251801
-0.240833
-0.227996
-0.213624
-0.197753
-0.180251
-0.162063
-0.142683
-0.123912
-0.105039
-0.0880428
-0.0722418
-0.0587722
-0.0473851
-0.0376557
-0.0303583
-0.0234638
-0.0191588
-0.0136822
-0.0112559
-0.0068835
-0.0053156
-0.0015073
-0.286997
-0.284214
-0.284113
-0.279863
-0.275638
-0.268831
-0.261323
-0.25175
-0.240932
-0.228277
-0.21404
-0.198317
-0.180938
-0.162855
-0.143573
-0.124841
-0.10601
-0.0889787
-0.0731446
-0.0595826
-0.0481059
-0.0382696
-0.0308625
-0.0238787
-0.0194716
-0.0139461
-0.0114272
-0.00703069
-0.00537904
-0.00155692
-0.28333
-0.281684
-0.281881
-0.278337
-0.274395
-0.267843
-0.260692
-0.251462
-0.240862
-0.228432
-0.214365
-0.198819
-0.18159
-0.163636
-0.144474
-0.125799
-0.107022
-0.0899636
-0.0740996
-0.0604439
-0.048873
-0.0389246
-0.0314002
-0.0243218
-0.0198046
-0.0142275
-0.0116081
-0.00718567
-0.0054419
-0.0016047
-0.279506
-0.278527
-0.279137
-0.276412
-0.272952
-0.267043
-0.25999
-0.251031
-0.240644
-0.228457
-0.214592
-0.19925
-0.182201
-0.164402
-0.145384
-0.126783
-0.108073
-0.0909936
-0.0751021
-0.0613514
-0.049682
-0.0396165
-0.0319681
-0.02479
-0.0201556
-0.0145244
-0.0117976
-0.00734738
-0.00550413
-0.00165052
-0.275466
-0.274831
-0.275809
-0.273871
-0.270854
-0.265336
-0.258682
-0.250253
-0.240216
-0.228346
-0.21473
-0.199627
-0.182787
-0.16516
-0.146303
-0.127788
-0.109154
-0.0920578
-0.0761399
-0.0622939
-0.0505231
-0.0403376
-0.0325608
-0.0252794
-0.0205225
-0.014835
-0.0119951
-0.0075152
-0.00556598
-0.0016945
-0.271258
-0.270862
-0.272342
-0.271314
-0.268908
-0.264025
-0.257801
-0.249493
-0.239691
-0.228106
-0.214745
-0.199893
-0.183286
-0.165859
-0.14719
-0.128785
-0.110245
-0.0931465
-0.0772122
-0.0632745
-0.0514031
-0.0410941
-0.0331843
-0.0257943
-0.0209086
-0.0151611
-0.0122016
-0.00768939
-0.00562773
-0.0017366
-0.267301
-0.266097
-0.267624
-0.267435
-0.265716
-0.261514
-0.255569
-0.248177
-0.238923
-0.227802
-0.214812
-0.200295
-0.183971
-0.166766
-0.148288
-0.129982
-0.111518
-0.0943893
-0.0784052
-0.0643474
-0.052346
-0.0418956
-0.0338347
-0.0263279
-0.0213038
-0.0154935
-0.0124098
-0.00786364
-0.00568719
-0.00177573
-0.262134
-0.262373
-0.264115
-0.264555
-0.263328
-0.259737
-0.254619
-0.246894
-0.237786
-0.226877
-0.214095
-0.199785
-0.183676
-0.166666
-0.148392
-0.130246
-0.111938
-0.0949018
-0.0789904
-0.064944
-0.0529259
-0.0424315
-0.0342981
-0.0267301
-0.0216143
-0.0157639
-0.0125857
-0.00801286
-0.00573837
-0.00180933
-0.256487
-0.257522
-0.259465
-0.260422
-0.259556
-0.256257
-0.251003
-0.244219
-0.235559
-0.225016
-0.212564
-0.198568
-0.182774
-0.16605
-0.148075
-0.130172
-0.112103
-0.0952238
-0.0794407
-0.0654481
-0.0534417
-0.0429258
-0.0347303
-0.0271125
-0.0219054
-0.0160222
-0.0127484
-0.00815293
-0.00578205
-0.00183811
-0.250571
-0.252223
-0.254419
-0.255939
-0.255548
-0.252749
-0.248176
-0.24157
-0.233214
-0.223013
-0.210889
-0.197212
-0.181747
-0.165325
-0.147667
-0.130024
-0.112213
-0.0955081
-0.0798684
-0.0659419
-0.0539559
-0.0434255
-0.0351695
-0.0275049
-0.0222033
-0.0162891
-0.0129144
-0.00829702
-0.0058242
-0.00186576
-0.244408
-0.246702
-0.249179
-0.251237
-0.25134
-0.249051
-0.244856
-0.2387
-0.230717
-0.220885
-0.209116
-0.195782
-0.180668
-0.164567
-0.147244
-0.129875
-0.112332
-0.0958092
-0.080318
-0.0664604
-0.0544954
-0.04395
-0.0356309
-0.0279175
-0.0225168
-0.0165699
-0.0130887
-0.00844814
-0.00586752
-0.00189342
-0.237947
-0.24099
-0.243764
-0.246318
-0.246916
-0.245114
-0.241346
-0.235635
-0.228053
-0.218615
-0.207228
-0.194261
-0.179522
-0.163762
-0.146792
-0.129714
-0.112452
-0.0961212
-0.0807855
-0.0670014
-0.0550589
-0.0444988
-0.0361145
-0.0283506
-0.0228464
-0.0168651
-0.0132719
-0.00860657
-0.00591249
-0.00192124
-0.231235
-0.23511
-0.2382
-0.241208
-0.242298
-0.240986
-0.237669
-0.232408
-0.22524
-0.216214
-0.20523
-0.19265
-0.178307
-0.162906
-0.146307
-0.129534
-0.112565
-0.096437
-0.0812642
-0.0675591
-0.0556419
-0.0450685
-0.0366176
-0.0288023
-0.0231908
-0.0171735
-0.0134633
-0.00877179
-0.00595912
-0.00194915
-0.224343
-0.229092
-0.232522
-0.235948
-0.237527
-0.23671
-0.233846
-0.229039
-0.222301
-0.2137
-0.203136
-0.190959
-0.177028
-0.162004
-0.14579
-0.129334
-0.11267
-0.0967541
-0.0817512
-0.0681307
-0.0562415
-0.0456566
-0.0371382
-0.0292709
-0.0235489
-0.0174943
-0.0136623
-0.00894335
-0.00600756
-0.00197716
-0.217326
-0.222963
-0.226759
-0.230573
-0.232634
-0.232311
-0.229902
-0.225552
-0.219256
-0.21109
-0.200959
-0.189199
-0.175694
-0.161059
-0.145242
-0.129116
-0.112765
-0.0970707
-0.0822437
-0.0687135
-0.0568551
-0.0462608
-0.0376746
-0.0297552
-0.0239197
-0.0178265
-0.0138688
-0.00912084
-0.00605806
-0.00200533
-0.210233
-0.216747
-0.220935
-0.225111
-0.227641
-0.227812
-0.22586
-0.22197
-0.21612
-0.208399
-0.198712
-0.187379
-0.174311
-0.160077
-0.144665
-0.128879
-0.11285
-0.0973845
-0.0827389
-0.0693045
-0.05748
-0.0468788
-0.0382248
-0.0302533
-0.0243022
-0.018169
-0.0140822
-0.00930376
-0.00611085
-0.0020337
-0.203112
-0.210467
-0.21507
-0.219585
-0.222569
-0.223231
-0.221738
-0.218307
-0.21291
-0.205638
-0.196404
-0.185507
-0.172884
-0.15906
-0.144061
-0.128624
-0.112921
-0.0976932
-0.0832338
-0.0699009
-0.0581132
-0.0475079
-0.0387865
-0.0307634
-0.0246951
-0.0185208
-0.014302
-0.00949157
-0.00616616
-0.00206231
-0.19601
-0.204147
-0.209184
-0.214021
-0.217437
-0.218584
-0.217552
-0.214578
-0.209638
-0.202821
-0.194046
-0.183591
-0.17142
-0.158013
-0.143432
-0.128351
-0.112979
-0.0979948
-0.0837257
-0.0704996
-0.0587517
-0.0481454
-0.0393575
-0.0312837
-0.025097
-0.0188806
-0.0145276
-0.00968365
-0.00622415
-0.00209118
-0.18897
-0.197816
-0.203298
-0.208442
-0.212265
-0.213888
-0.213318
-0.210799
-0.206317
-0.199956
-0.191645
-0.181637
-0.169922
-0.156938
-0.142779
-0.128059
-0.113022
-0.0982872
-0.0842118
-0.0710978
-0.0593926
-0.0487887
-0.0399355
-0.0318121
-0.0255065
-0.019247
-0.0147584
-0.00987931
-0.00628496
-0.00212029
-0.182036
-0.191501
-0.197434
-0.202872
-0.207073
-0.209158
-0.209049
-0.206982
-0.202958
-0.197055
-0.18921
-0.179653
-0.168397
-0.155839
-0.142104
-0.12775
-0.113049
-0.0985686
-0.0846896
-0.0716928
-0.0600332
-0.049435
-0.0405182
-0.0323465
-0.0259221
-0.0196186
-0.0149937
-0.0100778
-0.00634867
-0.00214961
-0.175249
-0.185235
-0.191613
-0.197336
-0.201886
-0.204414
-0.204761
-0.203143
-0.199574
-0.194128
-0.18675
-0.177646
-0.166848
-0.15472
-0.141408
-0.127423
-0.113059
-0.0988376
-0.085157
-0.0722818
-0.0606706
-0.0500815
-0.041103
-0.0328847
-0.0263421
-0.019994
-0.0152326
-0.0102784
-0.00641528
-0.00217906
-0.168645
-0.179049
-0.185858
-0.191857
-0.196725
-0.199674
-0.200471
-0.199295
-0.196177
-0.191186
-0.184273
-0.175622
-0.165282
-0.153584
-0.140694
-0.12708
-0.113053
-0.0990927
-0.0856116
-0.0728623
-0.061302
-0.0507256
-0.0416877
-0.0334244
-0.0267649
-0.0203714
-0.0154744
-0.0104801
-0.00648472
-0.00220854
-0.162257
-0.172974
-0.180193
-0.18646
-0.191616
-0.19496
-0.196196
-0.195456
-0.192782
-0.188241
-0.181789
-0.17359
-0.163705
-0.152436
-0.139966
-0.126722
-0.113029
-0.0993325
-0.0860516
-0.0734316
-0.0619248
-0.0513643
-0.0422694
-0.0339632
-0.0271886
-0.0207493
-0.015718
-0.0106821
-0.00655683
-0.00223792
-0.156113
-0.167045
-0.174642
-0.181167
-0.186587
-0.190295
-0.191955
-0.191643
-0.189405
-0.185306
-0.17931
-0.171558
-0.162123
-0.151281
-0.139225
-0.12635
-0.112988
-0.0995562
-0.0864751
-0.0739872
-0.0625359
-0.0519945
-0.0428457
-0.0344984
-0.0276112
-0.0211257
-0.0159624
-0.0108832
-0.00663137
-0.00226704
-0.150239
-0.161295
-0.169235
-0.176004
-0.181664
-0.185706
-0.187771
-0.187876
-0.186063
-0.182397
-0.176848
-0.169538
-0.160545
-0.150124
-0.138476
-0.125967
-0.112931
-0.0997626
-0.0868801
-0.0745263
-0.0631325
-0.0526132
-0.0434133
-0.0350272
-0.0280305
-0.0214985
-0.0162063
-0.0110824
-0.00670797
-0.00229572
-0.144661
-0.15576
-0.163999
-0.170998
-0.176878
-0.181223
-0.183668
-0.184176
-0.182776
-0.179531
-0.174418
-0.16754
-0.15898
-0.148974
-0.137724
-0.125575
-0.112858
-0.0999513
-0.0872649
-0.0750462
-0.0637116
-0.0532168
-0.0439693
-0.0355466
-0.028444
-0.0218657
-0.0164483
-0.0112784
-0.00678618
-0.00232379
-0.1394
-0.150474
-0.158966
-0.166177
-0.172259
-0.176876
-0.179674
-0.180568
-0.179565
-0.176728
-0.172035
-0.165579
-0.15744
-0.147837
-0.136974
-0.125177
-0.112772
-0.100122
-0.0876279
-0.075544
-0.0642696
-0.0538016
-0.0445101
-0.036053
-0.028849
-0.0222245
-0.0166869
-0.0114698
-0.00686542
-0.00235105
-0.134479
-0.145468
-0.154168
-0.161573
-0.167838
-0.172698
-0.175819
-0.177077
-0.176456
-0.174008
-0.16972
-0.163669
-0.155935
-0.146723
-0.136234
-0.124778
-0.112673
-0.100273
-0.0879673
-0.0760169
-0.0648033
-0.0543636
-0.0450319
-0.0365427
-0.0292426
-0.0225724
-0.0169202
-0.0116551
-0.00694496
-0.00237729
-0.129919
-0.140777
-0.149638
-0.157217
-0.16365
-0.168725
-0.172136
-0.173734
-0.173474
-0.171396
-0.167491
-0.161828
-0.154481
-0.145643
-0.135511
-0.124382
-0.112565
-0.100407
-0.0882815
-0.0764617
-0.0653088
-0.0548984
-0.0455305
-0.0370115
-0.0296211
-0.0229061
-0.0171461
-0.0118327
-0.0070239
-0.00240228
-0.125739
-0.136434
-0.145411
-0.153143
-0.159728
-0.164992
-0.168662
-0.170572
-0.170649
-0.168919
-0.165373
-0.160075
-0.153093
-0.144609
-0.134813
-0.123994
-0.11245
-0.100522
-0.0885691
-0.0768751
-0.0657821
-0.0554012
-0.0460013
-0.0374549
-0.0299809
-0.0232224
-0.0173622
-0.0120007
-0.00710117
-0.0024258
-0.121961
-0.132471
-0.141526
-0.14939
-0.156111
-0.161541
-0.165437
-0.167626
-0.168013
-0.166605
-0.163392
-0.158433
-0.151788
-0.143634
-0.134151
-0.123622
-0.112332
-0.100619
-0.0888284
-0.0772539
-0.0662187
-0.0558669
-0.0464391
-0.0378677
-0.0303176
-0.0235174
-0.0175656
-0.0121574
-0.00717545
-0.00244759
-0.118608
-0.128924
-0.138023