/*--------------------------------*- C++ -*----------------------------------*\
  =========                 |
  \\      /  F ield         | OpenFOAM: The Open Source CFD Toolbox
   \\    /   O peration     | Website:  https://openfoam.org
    \\  /    A nd           | Version:  9
     \\/     M anipulation  |
\*---------------------------------------------------------------------------*/
FoamFile
{
    format      ascii;
    class       volVectorField;
    location    "46.6";
    object      U;
}
// * * * * * * * * * * * * * * * * * * * * * * * * * * * * * * * * * * * * * //

dimensions      [0 1 -1 0 0 0 0];

internalField   nonuniform List<vector> 
8500
(
(-0.00648343 0.00259179 0)
(-0.0291172 0.00446939 -6.25474e-23)
(-0.0611497 0.00493105 -3.43921e-24)
(-0.0889491 0.00476629 6.51806e-37)
(-0.116349 0.00444909 -9.5912e-24)
(-0.136762 0.00384649 7.98613e-24)
(-0.160658 0.00379304 -5.40879e-23)
(-0.171513 0.00248496 -8.3725e-23)
(-0.191781 0.00351195 -7.66276e-23)
(-0.198885 0.0012359 -3.97554e-24)
(-0.00677711 0.00772306 1.80507e-22)
(-0.0293749 0.0133327 5.84431e-23)
(-0.0610291 0.0147163 2.34581e-22)
(-0.0882725 0.0142261 0)
(-0.115091 0.0132753 0)
(-0.134527 0.0114755 1.60878e-23)
(-0.157857 0.0113072 4.06554e-23)
(-0.166994 0.00738844 8.93673e-23)
(-0.18675 0.0104925 5.76948e-23)
(-0.191637 0.00356207 1.59111e-23)
(-0.00735626 0.0127003 -1.60405e-22)
(-0.0298864 0.021975 0)
(-0.0607922 0.0242779 -2.20754e-22)
(-0.0869279 0.0234762 0)
(-0.112588 0.0218951 -3.84229e-23)
(-0.130064 0.0189286 3.19929e-23)
(-0.152262 0.0186175 0)
(-0.157917 0.012125 0)
(-0.176691 0.0173768 0)
(-0.177163 0.00550199 0)
(-0.00820503 0.0174278 3.22554e-22)
(-0.0306443 0.0302544 -2.34736e-22)
(-0.0604474 0.0334693 -5.53653e-23)
(-0.0849318 0.0323774 -3.45285e-22)
(-0.108859 0.0301652 -3.46732e-22)
(-0.12339 0.0260934 3.22749e-23)
(-0.143878 0.0255638 -2.69478e-23)
(-0.144194 0.0166091 3.11402e-22)
(-0.161577 0.0241155 1.88692e-26)
(-0.155437 0.00685699 3.13889e-22)
(-0.0093011 0.0218194 -3.22554e-22)
(-0.0316375 0.0380375 -3.03461e-22)
(-0.0600056 0.0421474 8.33028e-23)
(-0.082308 0.0407911 4.60819e-22)
(-0.103929 0.0379349 -3.92409e-23)
(-0.114528 0.0328626 5.1299e-22)
(-0.132699 0.0319496 0)
(-0.125682 0.0207834 -3.5668e-22)
(-0.141309 0.0306727 -7.6085e-23)
(-0.126236 0.0075407 -4.36104e-22)
(-0.0106172 0.0258022 8.13468e-23)
(-0.0328516 0.0452019 5.04631e-22)
(-0.0594784 0.0501737 -3.90128e-22)
(-0.0790852 0.0485809 -2.96092e-25)
(-0.097816 0.0450458 -3.49736e-22)
(-0.103515 0.0391363 1.29674e-22)
(-0.118692 0.0375296 -5.41555e-23)
(-0.102177 0.0246165 4.46121e-22)
(-0.115665 0.0369956 -7.62573e-23)
(-0.0889019 0.00769953 2.49788e-22)
(-0.0121231 0.0293192 4.07576e-23)
(-0.0342688 0.0516393 0)
(-0.0588744 0.0574153 -1.56686e-24)
(-0.0752932 0.055614 0)
(-0.0905211 0.0513353 6.20222e-22)
(-0.0903876 0.0448236 -5.13484e-22)
(-0.101762 0.0420034 0)
(-0.0734201 0.0281106 -1.12507e-24)
(-0.0843002 0.0428657 0)
(-0.04204 0.00794353 0)
(-0.0137879 0.0323305 -6.57495e-22)
(-0.0358683 0.0572571 -6.79458e-23)
(-0.0581948 0.0637478 5.03427e-22)
(-0.0709551 0.0617617 9.33568e-23)
(-0.082008 0.0566415 -6.24086e-22)
(-0.0751649 0.0498481 -3.84576e-22)
(-0.0816915 0.0450099 -5.44459e-23)
(-0.0391223 0.0313531 4.42649e-22)
(-0.046753 0.0475563 -7.65681e-23)
(0.0167618 0.00932102 6.32879e-23)
(-0.0155816 0.0348148 7.40218e-22)
(-0.0376253 0.0619806 -5.46357e-22)
(-0.0574278 0.0690586 -1.68779e-22)
(-0.0660763 0.0668996 9.31144e-23)
(-0.0721793 0.0608122 6.24018e-22)
(-0.0578223 0.0541636 5.79728e-22)
(-0.0580119 0.0461384 -5.4578e-23)
(0.00109134 0.0345249 8.85961e-23)
(-0.00281831 0.0502625 -1.53507e-22)
(0.0914845 0.0123451 6.45812e-23)
(-0.0174776 0.0367689 6.65482e-22)
(-0.0395096 0.0657541 5.46677e-22)
(-0.0565412 0.0732504 -7.92273e-22)
(-0.0606281 0.0709081 -9.3424e-23)
(-0.0608376 0.0637057 0)
(-0.038247 0.0577719 0)
(-0.0299354 0.0451829 0)
(0.0482612 0.0376466 -1.40253e-21)
(0.0472335 0.0501017 -6.44021e-22)
(0.185835 0.0175742 4.90194e-22)
(-0.0194538 0.0382065 -1.33524e-21)
(-0.0414825 0.0685411 0)
(-0.055474 0.0762459 1.81392e-21)
(-0.0545295 0.0736762 7.50346e-22)
(-0.0476414 0.0651964 7.81018e-23)
(-0.0160454 0.0606087 0)
(0.00353648 0.0423519 -8.93218e-22)
(0.10373 0.0410571 6.99886e-22)
(0.105055 0.0457458 6.44012e-22)
(0.301436 0.0254915 -4.90175e-22)
(-0.0214932 0.039156 7.53861e-22)
(-0.0434934 0.0703246 -6.90367e-23)
(-0.0541244 0.0779911 -9.08703e-22)
(-0.0476231 0.0751092 -8.44611e-22)
(-0.0321557 0.065281 0)
(0.00966236 0.0624181 1.03288e-21)
(0.0441074 0.0381396 5.18564e-25)
(0.168313 0.0455605 6.03523e-22)
(0.175916 0.0374165 7.22814e-22)
(0.436703 0.0352166 -4.85901e-22)
(-0.0235839 0.0396571 4.55919e-26)
(-0.0454737 0.0711058 1.18391e-21)
(-0.0523343 0.0784584 -1.14366e-22)
(-0.0395901 0.0751156 6.59516e-22)
(-0.0138574 0.0640522 3.94244e-22)
(0.040088 0.0629769 2.62599e-22)
(0.0945553 0.0334016 8.90893e-22)
(0.242427 0.0510199 -7.85165e-22)
(0.268081 0.0290381 -4.92774e-22)
(0.585555 0.0455167 3.57017e-22)
(-0.0257178 0.0397575 0)
(-0.0473309 0.0709027 -9.75115e-22)
(-0.0498887 0.0776533 -1.14863e-22)
(-0.029918 0.0736314 1.63009e-24)
(0.00807854 0.0615926 6.28856e-22)
(0.0767496 0.0621928 -9.02966e-22)
(0.158032 0.0297381 8.85487e-22)
(0.326652 0.0559485 -9.00505e-23)
(0.388051 0.0265411 0)
(0.737676 0.056349 0)
(-0.0278891 0.0395086 8.57385e-23)
(-0.0489377 0.0697483 -1.12607e-21)
(-0.0464959 0.0756238 0)
(-0.0179124 0.0706973 -9.30967e-23)
(0.0348549 0.0580499 7.85094e-23)
(0.121763 0.0599475 0)
(0.236917 0.02918 -8.87374e-22)
(0.422471 0.0592095 -6.94658e-22)
(0.533617 0.0333129 1.51701e-22)
(0.880891 0.0684534 -1.27487e-22)
(-0.0300888 0.0389577 -8.61822e-23)
(-0.050127 0.0676942 1.19681e-21)
(-0.0417453 0.0724406 0)
(-0.0026711 0.0664726 -8.51664e-22)
(0.0680293 0.0537514 7.85526e-23)
(0.177799 0.0565647 -1.03468e-21)
(0.331734 0.0330725 -1.07101e-22)
(0.531775 0.0620986 7.84283e-22)
(0.691865 0.0480628 0)
(1.00463 0.0815972 9.66375e-22)
(-0.0322966 0.0381424 -1.31174e-21)
(-0.0506882 0.0648046 -7.12161e-23)
(-0.0350849 0.0681964 -1.15317e-22)
(0.0169724 0.0612195 9.5384e-23)
(0.109561 0.0492831 -1.25395e-21)
(0.247695 0.0532916 1.03467e-21)
(0.440694 0.041434 8.71477e-22)
(0.653451 0.0676615 6.94595e-22)
(0.84496 0.0670284 1.20354e-21)
(1.10269 0.0944037 -8.45453e-22)
(-0.0344765 0.0370907 1.39851e-21)
(-0.0503548 0.0611461 0)
(-0.0258234 0.0630252 1.04803e-21)
(0.0424632 0.0552901 -9.56623e-23)
(0.161693 0.0454657 2.50705e-21)
(0.333468 0.0521424 0)
(0.559917 0.0535504 -8.71458e-22)
(0.780498 0.0775348 -1.83783e-24)
(0.978177 0.0869034 -1.3487e-21)
(1.17392 0.105426 1.22012e-22)
(-0.0365737 0.0358186 0)
(-0.0487982 0.0567857 1.15293e-21)
(-0.0131249 0.0571016 -9.32375e-22)
(0.0754892 0.0491524 0)
(0.226585 0.0433585 -1.25309e-21)
(0.434716 0.0551481 0)
(0.683498 0.0686708 8.56391e-22)
(0.902186 0.090789 -6.9273e-22)
(1.08404 0.105727 -1.14791e-21)
(1.2212 0.113669 -9.22086e-22)
(-0.0385078 0.0343274 -1.77592e-22)
(-0.0456285 0.0517944 -1.00716e-21)
(0.00399609 0.0506409 0)
(0.117897 0.0434611 0)
(0.305587 0.044206 0)
(0.547593 0.06329 -1.27894e-22)
(0.80405 0.0858167 -8.58482e-22)
(1.00921 0.105582 -8.76084e-23)
(1.16179 0.122333 1.1479e-21)
(1.24991 0.1184 1.03728e-21)
(-0.0401697 0.0326078 0)
(-0.0403931 0.0462466 -1.17041e-21)
(0.0266769 0.0439119 0)
(0.171486 0.039159 0)
(0.398256 0.0491459 0)
(0.665307 0.076088 1.27e-22)
(0.91452 0.103637 -1.04702e-21)
(1.09665 0.120543 8.08505e-23)
(1.21511 0.135503 8.15968e-22)
(1.26699 0.118994 8.88896e-22)
(-0.0414359 0.0306559 0)
(-0.0325633 0.0402036 1.17041e-21)
(0.0562011 0.0372803 -9.53364e-22)
(0.237581 0.0374948 0)
(0.5016 0.0586802 -1.25076e-21)
(0.780141 0.0920554 0)
(1.01012 0.120935 8.374e-22)
(1.16372 0.134603 -6.65979e-22)
(1.24969 0.144144 -1.09221e-21)
(1.29177 0.12958 -8.84005e-22)
(-0.0421658 0.0284578 1.49364e-21)
(-0.0215422 0.0337172 0)
(0.0939519 0.0313051 8.35272e-22)
(0.316354 0.0397718 9.76703e-23)
(0.610323 0.0723322 2.50144e-21)
(0.885734 0.109515 0)
(1.0889 0.136996 -8.15864e-22)
(1.21252 0.146718 -1.32034e-21)
(1.27436 0.152348 -9.12155e-22)
(1.30103 0.135662 -5.29532e-24)
(-0.042187 0.0259862 -1.58638e-21)
(-0.00665783 0.0268536 7.61286e-23)
(0.141247 0.0268494 1.18773e-22)
(0.406184 0.0468134 -9.82389e-23)
(0.718234 0.0888911 -1.25068e-21)
(0.978236 0.127159 1.0054e-21)
(1.15117 0.151408 8.1586e-22)
(1.24717 0.157376 6.54366e-22)
(1.28864 0.158793 1.04127e-21)
(1.30428 0.141432 -9.13762e-22)
(-0.0413088 0.0232134 9.40698e-23)
(0.0128662 0.0197219 1.1444e-21)
(0.199007 0.0250903 0)
(0.50356 0.0585128 -6.82784e-22)
(0.819964 0.107011 -7.94264e-23)
(1.05619 0.144156 -1.00539e-21)
(1.19876 0.164223 9.74295e-23)
(1.27032 0.166533 5.4631e-22)
(1.29639 0.16449 0)
(1.3043 0.146442 8.1337e-22)
(-0.0393237 0.0201116 -9.72588e-23)
(0.0379119 0.0125562 -1.22161e-21)
(0.267297 0.0272645 0)
(0.603806 0.0739233 9.12214e-23)
(0.911935 0.125637 -7.96511e-23)
(1.11986 0.160101 0)
(1.23386 0.175564 -7.78527e-22)
(1.28496 0.17455 -6.27861e-22)
(1.29935 0.169485 -1.18929e-22)
(1.30108 0.150968 -1.00042e-22)
(-0.0359946 0.0166526 0)
(0.0694026 0.00584267 -1.41036e-21)
(0.344974 0.0341815 1.26272e-22)
(0.702252 0.0918056 -5.2134e-24)
(0.992384 0.144097 -6.23706e-22)
(1.17043 0.174851 -1.0982e-21)
(1.25881 0.185654 8.78297e-22)
(1.29322 0.181657 0)
(1.29894 0.174055 0)
(1.29677 0.155273 0)
(-0.0310275 0.0128167 2.28935e-24)
(0.108151 0.000423966 1.18303e-21)
(0.429683 0.0458509 1.27961e-22)
(0.795176 0.111109 8.84896e-22)
(1.06091 0.162025 5.43608e-22)
(1.20955 0.188424 -1.06012e-22)
(1.27567 0.194715 7.56237e-22)
(1.29686 0.188108 -5.06494e-22)
(1.29636 0.17835 -5.65337e-22)
(1.29126 0.159429 4.51878e-22)
(-0.0240458 0.00861519 7.39014e-22)
(0.154629 -0.00253022 8.29012e-23)
(0.518282 0.0615518 -1.02228e-21)
(0.880168 0.131114 -7.9816e-22)
(1.11795 0.179239 0)
(1.23896 0.200918 9.66984e-22)
(1.28626 0.202974 -1.57985e-23)
(1.29718 0.194103 6.52568e-22)
(1.29223 0.182492 3.95285e-22)
(1.28526 0.163527 -3.5777e-22)
(-0.0145844 0.00412688 -1.70173e-21)
(0.208741 -0.00176339 0)
(0.607465 0.0802623 2.06078e-21)
(0.956002 0.15138 7.01433e-22)
(1.16443 0.195677 8.02839e-23)
(1.26031 0.212475 0)
(1.29204 0.210633 -7.33781e-22)
(1.29514 0.1998 5.50707e-22)
(1.28711 0.186563 4.2434e-22)
(1.27881 0.167611 -3.32049e-22)
(-0.00211744 -0.000458552 8.61711e-22)
(0.269703 0.00368697 6.69747e-22)
(0.694296 0.101068 -1.16493e-21)
(1.02231 0.171665 1.04574e-22)
(1.20147 0.211348 0)
(1.27508 0.223252 0)
(1.29418 0.217868 0)
(1.29142 0.205317 -1.08427e-21)
(1.28127 0.190621 -4.24344e-22)
(1.27208 0.171699 3.32034e-22)
(0.013874 -0.00479804 8.00745e-22)
(0.336123 0.0141909 -6.64017e-22)
(0.776485 0.123318 6.81271e-23)
(1.07926 0.191854 0)
(1.23025 0.226302 6.04495e-22)
(1.28453 0.233404 3.98081e-22)
(1.29356 0.224822 4.55634e-23)
(1.28648 0.210737 -4.50419e-23)
(1.27491 0.194697 1.01121e-22)
(1.26511 0.175802 -4.0684e-23)
(0.0337731 -0.00836632 -9.08471e-22)
(0.406228 0.0294968 8.40663e-23)
(0.852434 0.14658 5.39282e-22)
(1.12734 0.211883 -1.49251e-22)
(1.25192 0.240608 -4.53436e-22)
(1.28972 0.243072 -5.65393e-22)
(1.29086 0.231605 4.44791e-23)
(1.28064 0.216113 2.67154e-22)
(1.26813 0.198808 0)
(1.25791 0.179912 -3.5688e-23)
(0.0577494 -0.0105049 -5.89935e-23)
(0.478122 0.0489462 0)
(0.921173 0.170551 6.16898e-24)
(1.16717 0.2317 0)
(1.26753 0.254347 5.88153e-22)
(1.29149 0.252376 -4.32101e-22)
(1.28656 0.238292 0)
(1.2741 0.221476 9.69064e-24)
(1.26101 0.202959 0)
(1.25049 0.184022 0)
(0.0857438 -0.0105235 -1.17913e-22)
(0.549998 0.0717739 7.6698e-22)
(0.982247 0.195013 -6.15376e-22)
(1.19944 0.251248 1.01068e-22)
(1.27802 0.267597 -2.69749e-22)
(1.29054 0.261416 -4.54444e-23)
(1.28101 0.244936 0)
(1.26698 0.22684 1.83254e-22)
(1.25356 0.207143 4.66757e-23)
(1.24283 0.188112 1.30676e-22)
(0.11746 -0.00782132 -4.98111e-22)
(0.620238 0.0973032 -3.09199e-22)
(1.03558 0.219804 -1.01292e-22)
(1.22488 0.270468 4.03637e-22)
(1.28418 0.280433 3.26943e-23)
(1.28739 0.270269 4.20333e-22)
(1.27446 0.251562 0)
(1.25936 0.232202 -2.18167e-22)
(1.24581 0.211348 3.98765e-23)
(1.23492 0.192162 -2.87127e-22)
(0.152403 -0.00199701 -4.9811e-22)
(0.687457 0.124997 3.22298e-22)
(1.08135 0.244799 -4.10542e-24)
(1.24415 0.289304 -4.69152e-22)
(1.2867 0.292916 -2.44758e-22)
(1.28243 0.278986 -2.34835e-23)
(1.26705 0.258178 1.96077e-23)
(1.25127 0.237551 2.43326e-22)
(1.23773 0.215556 -2.32097e-24)
(1.22675 0.196149 9.30263e-23)
(0.189929 0.00710028 -2.57023e-22)
(0.750508 0.154425 0)
(1.11993 0.269893 -2.76907e-22)
(1.25793 0.307705 0)
(1.28612 0.305091 -3.07644e-22)
(1.27598 0.2876 2.63596e-23)
(1.2589 0.264777 0)
(1.24274 0.242866 0)
(1.22934 0.219744 0)
(1.21831 0.200046 0)
(0.229301 0.0193934 2.25462e-22)
(0.808477 0.185205 1.08451e-22)
(1.15174 0.294978 2.76908e-22)
(1.26682 0.325637 0)
(1.2829 0.316988 0)
(1.26825 0.296121 -1.07624e-23)
(1.25007 0.271338 4.0969e-23)
(1.23378 0.248121 4.5813e-23)
(1.22061 0.223886 4.15511e-23)
(1.2096 0.203821 -6.86936e-24)
(0.269732 0.0346542 -4.08133e-24)
(0.860718 0.216972 -1.01439e-22)
(1.17725 0.319938 4.63219e-24)
(1.27138 0.343082 5.34101e-24)
(1.27741 0.328622 -8.10012e-24)
(1.2594 0.304542 3.05309e-24)
(1.2406 0.277831 -3.55926e-23)
(1.22437 0.253285 -4.27923e-23)
(1.21155 0.227948 -3.14966e-23)
(1.20064 0.207441 1.18175e-24)
(0.310425 0.0525862 0)
(0.906891 0.249382 -1.02341e-22)
(1.19685 0.344652 -3.05573e-24)
(1.27207 0.360025 6.3445e-24)
(1.26992 0.339992 1.10843e-37)
(1.24953 0.312838 -7.64114e-38)
(1.23051 0.284217 -3.1426e-23)
(1.21451 0.258322 -3.64696e-23)
(1.20213 0.231888 -2.80447e-23)
(1.19146 0.210872 0)
(0.350598 0.0728738 2.95818e-22)
(0.946899 0.282142 8.38875e-23)
(1.21092 0.369008 2.74921e-22)
(1.26933 0.376439 -1.23599e-23)
(1.26066 0.351078 0)
(1.23872 0.320973 9.01864e-24)
(1.21982 0.290453 2.0531e-23)
(1.2042 0.263195 3.92866e-23)
(1.19236 0.235659 2.18567e-23)
(1.18205 0.214091 5.2011e-24)
(0.389511 0.0952162 -2.63675e-22)
(0.980738 0.314991 0)
(1.21985 0.392882 -2.59981e-22)
(1.26349 0.392289 0)
(1.24982 0.361847 -2.49657e-23)
(1.22703 0.328897 2.07879e-23)
(1.20852 0.296492 0)
(1.19343 0.267863 0)
(1.18224 0.239219 0)
(1.17236 0.217077 0)
(0.426477 0.119335 5.2252e-22)
(1.00849 0.347689 -3.33313e-22)
(1.22401 0.416151 -6.31437e-23)
(1.25487 0.407531 -2.52911e-22)
(1.23754 0.372252 -2.29168e-22)
(1.21448 0.336555 1.53194e-23)
(1.19662 0.302281 -1.2791e-23)
(1.18219 0.272279 9.95339e-23)
(1.17181 0.24254 2.11716e-24)
(1.16232 0.219806 6.66666e-23)
(0.460882 0.144963 -5.22521e-22)
(1.03031 0.38001 -4.00976e-22)
(1.22376 0.438691 8.74863e-23)
(1.24374 0.422116 3.01498e-22)
(1.22392 0.382232 -1.25265e-23)
(1.20111 0.343885 2.34363e-22)
(1.18412 0.307767 0)
(1.17048 0.276387 -1.13394e-22)
(1.1611 0.24561 -1.60071e-23)
(1.1519 0.222297 -8.04838e-23)
(0.492195 0.171829 1.24076e-22)
(1.04636 0.411737 6.86249e-22)
(1.21939 0.460373 -3.92379e-22)
(1.23034 0.435984 -7.28205e-23)
(1.20905 0.391722 -1.63859e-22)
(1.18694 0.350819 3.06658e-23)
(1.17102 0.312893 -2.04965e-23)
(1.15833 0.280121 1.01329e-22)
(1.15011 0.248414 -1.68511e-23)
(1.14118 0.224585 4.18818e-23)
(0.519974 0.199642 6.28689e-23)
(1.05685 0.442656 0)
(1.21122 0.481063 2.66074e-23)
(1.21485 0.449066 0)
(1.193 0.400645 3.34848e-22)
(1.17198 0.357286 -2.08065e-22)
(1.15735 0.317599 0)
(1.14581 0.28344 -1.68323e-23)
(1.13877 0.250892 0)
(1.13026 0.226479 0)
(0.543873 0.228092 -9.63496e-22)
(1.062 0.472551 -7.31496e-23)
(1.19952 0.50063 4.76328e-22)
(1.19744 0.461288 5.15574e-23)
(1.17581 0.408916 -3.34712e-22)
(1.15631 0.363212 -1.08358e-22)
(1.14316 0.321823 -1.48907e-23)
(1.13292 0.286317 4.17066e-23)
(1.12704 0.253003 -1.00318e-23)
(1.11916 0.228017 3.51115e-24)
(0.563635 0.256842 1.07184e-21)
(1.06204 0.5012 -6.37371e-22)
(1.18454 0.518935 -1.36116e-22)
(1.17825 0.472565 6.5816e-23)
(1.15759 0.416444 2.61591e-22)
(1.14 0.368518 1.65709e-22)
(1.12845 0.325508 -1.191e-23)
(1.11966 0.288721 -2.79196e-23)
(1.11498 0.254701 -9.63516e-24)
(1.10789 0.229136 2.66069e-24)
(0.579095 0.285542 8.84377e-22)
(1.05721 0.528379 6.17087e-22)
(1.16652 0.535831 -5.65637e-22)
(1.15745 0.482804 -5.89662e-23)
(1.13847 0.423156 0)
(1.12301 0.37312 0)
(1.11323 0.328599 0)
(1.10604 0.290608 -8.05018e-23)
(1.1026 0.255955 4.62432e-24)
(1.09647 0.229819 -2.34282e-23)
(0.590168 0.313831 -1.71847e-21)
(1.04777 0.55387 0)
(1.14565 0.551152 1.19701e-21)
(1.13526 0.49191 2.89799e-22)
(1.1185 0.428974 0)
(1.10533 0.376944 0)
(1.09754 0.331028 -2.69521e-23)
(1.09209 0.291939 2.19747e-23)
(1.08996 0.256727 -4.62436e-24)
(1.08491 0.230029 2.34273e-23)
(0.596851 0.341346 9.23552e-22)
(1.03402 0.577472 -7.34335e-23)
(1.12219 0.564728 -5.60085e-22)
(1.11179 0.499765 -3.1511e-22)
(1.09768 0.433817 2.10074e-23)
(1.08705 0.379926 4.56096e-23)
(1.08143 0.33274 5.08746e-23)
(1.07784 0.292672 -4.79434e-23)
(1.07707 0.256987 -6.76719e-23)
(1.07326 0.229738 6.81697e-23)
(0.599214 0.367721 -1.16848e-23)
(1.01628 0.598999 8.63418e-22)
(1.0964 0.576441 -7.45734e-23)
(1.08709 0.506204 1.47158e-22)
(1.07609 0.437607 4.91963e-23)
(1.06822 0.381996 -6.45863e-23)
(1.06495 0.333676 -3.00191e-23)
(1.06332 0.292768 6.06401e-23)
(1.06399 0.256698 -8.43498e-23)
(1.06154 0.228919 -5.01744e-23)
(0.597397 0.392589 0)
(0.994833 0.618226 -7.63431e-22)
(1.06854 0.586198 -6.29558e-23)
(1.06124 0.511099 -6.67228e-23)
(1.05381 0.440241 -4.41144e-23)
(1.04889 0.383092 1.31704e-23)
(1.04814 0.333788 -1.34212e-22)
(1.04857 0.292192 0)
(1.05073 0.255825 0)
(1.0498 0.227535 0)
(0.591602 0.415622 7.52402e-23)
(0.969774 0.634805 -5.87975e-22)
(1.03896 0.593955 0)
(1.03442 0.514371 -7.13143e-23)
(1.03091 0.441629 1.80902e-24)
(1.02914 0.383155 0)
(1.03107 0.333026 1.28897e-22)
(1.03364 0.290908 1.71614e-22)
(1.03734 0.254334 -3.569e-23)
(1.03807 0.225542 2.99774e-23)
(0.582051 0.436606 -5.30696e-23)
(0.941323 0.648438 6.3154e-22)
(1.00794 0.599567 0)
(1.00675 0.515983 -2.31462e-23)
(1.0075 0.441685 -5.02495e-24)
(1.00905 0.382125 2.43644e-22)
(1.01379 0.331352 2.73473e-23)
(1.01857 0.288885 -1.94505e-22)
(1.02383 0.25219 0)
(1.02639 0.2229 -3.15626e-22)
(0.568958 0.45532 -7.26464e-22)
(0.90996 0.659008 -3.45948e-23)
(0.975617 0.602825 1.83797e-24)
(0.978395 0.515868 -1.52033e-24)
(0.983665 0.440339 3.15261e-22)
(0.988702 0.379952 -2.43646e-22)
(0.996378 0.328727 -2.91698e-22)
(1.0034 0.286092 -2.5221e-22)
(1.01025 0.249364 -4.2798e-22)
(1.01489 0.219602 2.76251e-22)
(0.552444 0.471411 7.68612e-22)
(0.876252 0.666503 0)
(0.942235 0.603598 -1.13688e-22)
(0.949491 0.513958 1.14948e-23)
(0.959514 0.437527 -7.36021e-22)
(0.968175 0.376589 0)
(0.978885 0.325122 2.917e-22)
(0.988153 0.282491 -4.05788e-23)
(0.996718 0.24583 4.84877e-22)
(1.00387 0.215687 -4.77812e-23)
(0.53272 0.484456 0)
(0.840579 0.67077 4.96033e-24)
(0.907987 0.601824 9.97923e-23)
(0.920195 0.510185 0)
(0.93516 0.4332 4.20761e-22)
(0.947561 0.371997 0)
(0.961369 0.320509 -4.01607e-22)
(0.972888 0.278043 2.92792e-22)
(0.983395 0.241548 5.47148e-22)
(0.993606 0.211222 4.36208e-22)
(0.510274 0.494288 -1.24023e-23)
(0.803288 0.671672 5.22006e-24)
(0.873107 0.597442 0)
(0.890663 0.504488 0)
(0.910718 0.427317 0)
(0.926951 0.366146 6.39085e-23)
(0.943892 0.314869 2.95011e-22)
(0.957695 0.272721 4.45605e-23)
(0.970473 0.236458 -5.47151e-22)
(0.983999 0.206155 -4.90005e-22)
(0.485522 0.500737 0)
(0.764721 0.669093 3.07064e-22)
(0.837831 0.59041 0)
(0.861058 0.496817 0)
(0.886311 0.419846 0)
(0.906439 0.359014 -7.27721e-23)
(0.926527 0.308187 6.31089e-22)
(0.942697 0.266529 -1.46336e-22)
(0.958033 0.230573 -5.02642e-22)
(0.974381 0.19899 -5.15866e-22)
(0.458875 0.50367 0)
(0.725239 0.662955 -3.07066e-22)
(0.802403 0.5807 5.32802e-22)
(0.831545 0.487135 0)
(0.862065 0.410767 8.45835e-22)
(0.886119 0.350585 0)
(0.909363 0.30045 -5.10678e-22)
(0.928007 0.259482 4.51548e-22)
(0.945828 0.224351 6.5994e-22)
(0.96348 0.193809 5.14499e-22)
(0.430745 0.502993 -5.10356e-22)
(0.685206 0.65321 0)
(0.767066 0.568302 -4.56365e-22)
(0.802293 0.475421 -6.32296e-23)
(0.838106 0.40007 -1.79589e-21)
(0.866091 0.340852 0)
(0.892493 0.291643 6.16737e-22)
(0.91369 0.251503 3.76561e-23)
(0.933974 0.217074 6.78939e-22)
(0.953007 0.187179 2.43882e-24)
(0.40154 0.498654 5.56116e-22)
(0.644985 0.63984 -3.75615e-23)
(0.732064 0.553225 -8.88683e-23)
(0.773473 0.461669 -7.35099e-23)
(0.814564 0.387757 9.50057e-22)
(0.846455 0.329818 -8.42439e-22)
(0.876 0.281784 -6.16741e-22)
(0.899751 0.24269 -4.8921e-22)
(0.922313 0.209222 -7.68376e-22)
(0.942517 0.180327 7.14333e-22)
(0.371665 0.490639 -5.88047e-23)
(0.60494 0.62286 -8.85046e-22)
(0.697636 0.535495 0)
(0.745257 0.445888 6.26954e-22)
(0.791567 0.37384 6.95286e-23)
(0.827316 0.317492 8.42444e-22)
(0.859972 0.270873 -8.40828e-23)
(0.886261 0.232992 -4.90809e-22)
(0.910992 0.200588 0)
(0.932329 0.17278 -6.36967e-22)
(0.341517 0.478971 6.70325e-23)
(0.565426 0.602312 9.33321e-22)
(0.664018 0.515156 0)
(0.717814 0.428105 -2.21862e-23)
(0.769246 0.358343 7.63117e-23)
(0.808776 0.303897 0)
(0.844487 0.258937 7.65433e-22)
(0.873255 0.222464 5.61188e-22)
(0.90003 0.191305 1.08015e-22)
(0.922491 0.164698 -9.07297e-23)
(0.311482 0.463714 0)
(0.526791 0.578269 1.37838e-21)
(0.63144 0.492272 -1.22362e-22)
(0.691312 0.40836 6.72107e-23)
(0.747728 0.341302 6.70611e-22)
(0.790936 0.289063 1.16734e-21)
(0.829624 0.245999 -8.67806e-22)
(0.860793 0.211112 0)
(0.889496 0.181351 0)
(0.913087 0.156038 0)
(0.281935 0.444965 2.41607e-24)
(0.489372 0.55083 -1.14405e-21)
(0.600124 0.466923 1.35884e-22)
(0.665916 0.386712 -9.55087e-22)
(0.72714 0.322764 -5.81463e-22)
(0.773897 0.273028 1.91633e-22)
(0.815459 0.232094 -8.6281e-22)
(0.848931 0.198974 5.74631e-22)
(0.879444 0.170765 6.25701e-22)
(0.904172 0.146833 -4.91428e-22)
(0.253234 0.422861 -7.93892e-22)
(0.453488 0.520119 -8.86811e-23)
(0.570285 0.439209 1.23972e-21)
(0.641783 0.363231 9.72777e-22)
(0.707603 0.302788 0)
(0.757754 0.255842 -1.10643e-21)
(0.802065 0.217261 -4.0955e-23)
(0.837724 0.186082 -7.39501e-22)
(0.869927 0.15957 -4.38652e-22)
(0.895791 0.137105 3.91275e-22)
(0.225718 0.397583 1.89757e-21)
(0.419438 0.486273 0)
(0.542129 0.409242 -2.56386e-21)
(0.619066 0.338005 -8.51401e-22)
(0.689234 0.281442 -1.00755e-22)
(0.742599 0.237561 0)
(0.789513 0.201549 8.95659e-22)
(0.827227 0.172477 -7.1483e-22)
(0.860996 0.147794 -5.4727e-22)
(0.887985 0.126883 4.21554e-22)
(0.199702 0.369353 -9.95645e-22)
(0.387497 0.449452 -8.73342e-22)
(0.515854 0.37715 1.48964e-21)
(0.597909 0.311133 -1.36907e-22)
(0.672148 0.258808 0)
(0.728519 0.218251 0)
(0.777869 0.18501 0)
(0.817492 0.158202 1.45467e-21)
(0.852701 0.135473 5.47271e-22)
(0.880787 0.116203 -4.21554e-22)
(0.175457 0.33839 -1.02429e-21)
(0.357934 0.409866 8.70264e-22)
(0.491654 0.343075 9.15053e-23)
(0.578449 0.28273 0)
(0.656448 0.234974 -8.65112e-22)
(0.715597 0.197986 -5.80053e-22)
(0.767197 0.167704 -6.47232e-23)
(0.808571 0.143306 1.12766e-22)
(0.845088 0.122645 -1.44379e-22)
(0.874228 0.105101 5.78604e-23)
(0.153221 0.304899 1.16334e-21)
(0.331001 0.367769 -1.16884e-22)
(0.469703 0.307182 -9.5659e-22)
(0.560814 0.252924 2.13999e-22)
(0.642233 0.210041 6.44415e-22)
(0.703909 0.176845 8.25451e-22)
(0.757554 0.149696 -6.68221e-23)
(0.800509 0.127841 -3.711e-22)
(0.838199 0.109352 0)
(0.868335 0.0936191 5.46608e-23)
(0.133217 0.269107 7.93926e-23)
(0.306928 0.323425 0)
(0.450153 0.269651 -2.84571e-23)
(0.54512 0.221852 0)
(0.629591 0.184115 -9.2096e-22)
(0.693523 0.154916 6.96207e-22)
(0.748993 0.131056 0)
(0.79335 0.111864 8.96547e-24)
(0.832074 0.0956408 0)
(0.863132 0.081801 0)
(0.115659 0.231274 1.64352e-22)
(0.285912 0.277102 -1.12154e-21)
(0.43314 0.230675 8.95238e-22)
(0.531469 0.189663 -1.54362e-22)
(0.618603 0.157314 3.98996e-22)
(0.684501 0.132291 1.08341e-22)
(0.741562 0.111859 0)
(0.787133 0.0954346 -3.03737e-22)
(0.826751 0.0815605 -8.11445e-23)
(0.858638 0.0696929 -2.37565e-22)
(0.100731 0.191681 7.00833e-22)
(0.26813 0.229082 -1.66274e-21)
(0.418781 0.190458 1.53703e-22)
(0.519953 0.156515 -6.4361e-22)
(0.609337 0.129759 -7.19402e-23)
(0.676898 0.109069 -7.11697e-22)
(0.735303 0.0921842 0)
(0.781895 0.0786182 4.14494e-22)
(0.822261 0.0671643 -7.49582e-23)
(0.854869 0.0573414 5.41377e-22)
(0.0885931 0.150626 -7.00833e-22)
(0.253725 0.179654 6.09407e-22)
(0.407174 0.149214 -1.06021e-22)
(0.510647 0.12257 7.55501e-22)
(0.601853 0.101581 4.1714e-22)
(0.670759 0.0853517 4.35793e-23)
(0.730251 0.0721139 -3.63864e-23)
(0.777665 0.0614822 -4.6435e-22)
(0.818632 0.0525085 3.86266e-24)
(0.85184 0.0447933 -1.799e-22)
(0.0793752 0.108421 3.65992e-22)
(0.242817 0.129122 0)
(0.398399 0.107163 4.34918e-22)
(0.503613 0.0880011 0)
(0.596197 0.0729113 5.86088e-23)
(0.666122 0.0612457 -4.88009e-23)
(0.726436 0.0517334 0)
(0.77447 0.0440959 0)
(0.815889 0.0376504 0)
(0.849558 0.0320963 0)
(0.073175 0.0653861 -3.20605e-22)
(0.235495 0.077793 -1.2375e-22)
(0.392516 0.0645312 -4.34918e-22)
(0.498898 0.0529816 0)
(0.592407 0.0438888 0)
(0.663014 0.0368599 2.22058e-23)
(0.723881 0.0311297 -8.8853e-23)
(0.772328 0.0265297 -1.06299e-22)
(0.814049 0.0226479 -1.00025e-22)
(0.848033 0.019297 1.61934e-23)
(0.0700584 0.0218511 -5.80071e-24)
(0.231819 0.0259845 1.33457e-22)
(0.389564 0.0215494 -6.02862e-24)
(0.496532 0.0176908 2.07489e-23)
(0.590506 0.0146533 -8.19693e-24)
(0.661456 0.0123055 0)
(0.722599 0.0103916 7.03124e-23)
(0.771254 0.00885532 1.06299e-22)
(0.813126 0.00755893 7.59105e-23)
(0.847269 0.00643872 1.14479e-23)
(0.0700584 -0.0218511 -5.80071e-24)
(0.231819 -0.0259844 1.33457e-22)
(0.389564 -0.0215494 -6.02862e-24)
(0.496532 -0.0176907 2.07489e-23)
(0.590506 -0.0146533 -8.19693e-24)
(0.661456 -0.0123054 0)
(0.722599 -0.0103915 6.19108e-23)
(0.771254 -0.00885525 1.13331e-22)
(0.813126 -0.00755886 8.07455e-23)
(0.847269 -0.00643865 0)
(0.073175 -0.065386 -4.11379e-22)
(0.235495 -0.0777929 -1.60441e-22)
(0.392516 -0.0645312 -4.61079e-22)
(0.498898 -0.0529816 2.16395e-23)
(0.592407 -0.0438887 0)
(0.663014 -0.0368599 -2.22058e-23)
(0.723881 -0.0311296 -5.17717e-23)
(0.772328 -0.0265297 -1.06299e-22)
(0.814049 -0.0226478 -6.1466e-23)
(0.848033 -0.0192969 -1.61934e-23)
(0.0793752 -0.108421 3.65992e-22)
(0.242817 -0.129122 0)
(0.398399 -0.107163 4.34918e-22)
(0.503613 -0.088001 0)
(0.596197 -0.0729112 5.86088e-23)
(0.666122 -0.0612457 -4.88008e-23)
(0.726436 -0.0517333 0)
(0.77447 -0.0440958 0)
(0.815889 -0.0376503 0)
(0.849558 -0.0320962 0)
(0.0885931 -0.150626 -7.00833e-22)
(0.253725 -0.179654 4.7589e-22)
(0.407174 -0.149214 1.06021e-22)
(0.510647 -0.12257 5.17322e-22)
(0.601853 -0.101581 5.44786e-22)
(0.670759 -0.0853517 -4.35793e-23)
(0.730251 -0.0721138 3.63864e-23)
(0.777665 -0.0614822 -3.64639e-22)
(0.818632 -0.0525084 -3.86266e-24)
(0.85184 -0.0447932 -3.01804e-22)
(0.100731 -0.191681 7.00833e-22)
(0.26813 -0.229082 5.77445e-22)
(0.418781 -0.190458 -1.53703e-22)
(0.519953 -0.156515 -6.2921e-22)
(0.609337 -0.129759 5.33961e-23)
(0.676898 -0.109069 -7.11697e-22)
(0.735303 -0.0921841 0)
(0.781895 -0.0786181 4.14494e-22)
(0.822261 -0.0671643 7.49582e-23)
(0.854869 -0.0573414 4.15457e-22)
(0.115659 -0.231274 -1.64352e-22)
(0.285912 -0.277102 1.12154e-21)
(0.43314 -0.230675 7.00389e-22)
(0.531469 -0.189663 1.54362e-22)
(0.618603 -0.157314 4.99549e-22)
(0.684501 -0.132291 -1.61571e-22)
(0.741562 -0.111859 7.03063e-23)
(0.787133 -0.0954345 -4.9721e-22)
(0.826751 -0.0815604 8.11445e-23)
(0.858638 -0.0696929 -2.37565e-22)
(0.133218 -0.269107 -7.93926e-23)
(0.306928 -0.323425 0)
(0.450153 -0.269651 -2.84571e-23)
(0.54512 -0.221852 0)
(0.629591 -0.184115 -9.20959e-22)
(0.693523 -0.154916 6.96207e-22)
(0.748993 -0.131056 0)
(0.79335 -0.111864 8.96548e-24)
(0.832074 -0.0956407 0)
(0.863132 -0.0818009 0)
(0.153221 -0.304899 1.16334e-21)
(0.331001 -0.367769 1.16884e-22)
(0.469703 -0.307182 -6.73051e-22)
(0.560814 -0.252924 -1.38779e-22)
(0.642233 -0.210041 1.08581e-21)
(0.703909 -0.176845 4.89694e-22)
(0.757554 -0.149696 6.68221e-23)
(0.800509 -0.127841 -4.63632e-22)
(0.838199 -0.109352 7.76181e-23)
(0.868335 -0.093619 -5.46607e-23)
(0.175457 -0.33839 -1.30239e-21)
(0.357934 -0.409866 8.76424e-22)
(0.491654 -0.343075 8.25818e-23)
(0.578449 -0.28273 -1.44001e-22)
(0.656448 -0.234974 -8.65112e-22)
(0.715597 -0.197986 -7.35088e-22)
(0.767197 -0.167704 6.47231e-23)
(0.808571 -0.143306 -6.72321e-23)
(0.845088 -0.122645 1.44379e-22)
(0.874228 -0.105101 -5.78604e-23)
(0.199702 -0.369353 -9.95644e-22)
(0.387497 -0.449452 -8.73342e-22)
(0.515854 -0.37715 1.15862e-21)
(0.597909 -0.311133 1.36907e-22)
(0.672148 -0.258808 0)
(0.728519 -0.218251 0)
(0.777869 -0.18501 0)
(0.817492 -0.158202 1.45467e-21)
(0.852701 -0.135473 5.47271e-22)
(0.880787 -0.116203 -4.21553e-22)
(0.225718 -0.397583 1.89757e-21)
(0.419438 -0.486273 0)
(0.542129 -0.409242 -2.56386e-21)
(0.619066 -0.338005 -9.72781e-22)
(0.689234 -0.281442 0)
(0.742599 -0.237561 0)
(0.789513 -0.201549 8.95659e-22)
(0.827227 -0.172477 -7.14829e-22)
(0.860996 -0.147794 -5.4727e-22)
(0.887985 -0.126883 4.21554e-22)
(0.253234 -0.422861 -1.00996e-21)
(0.453488 -0.520119 8.86811e-23)
(0.570285 -0.439209 1.23972e-21)
(0.641783 -0.363231 1.08738e-21)
(0.707603 -0.302788 -9.51271e-23)
(0.757754 -0.255842 -1.10643e-21)
(0.802065 -0.217261 -4.0955e-23)
(0.837724 -0.186082 -5.77807e-22)
(0.869927 -0.159569 -5.74285e-22)
(0.895791 -0.137105 3.91274e-22)
(0.281935 -0.444965 -2.41607e-24)
(0.489372 -0.55083 -1.31568e-21)
(0.600124 -0.466923 -1.35884e-22)
(0.665916 -0.386712 -7.40284e-22)
(0.72714 -0.322764 -5.91975e-22)
(0.773897 -0.273028 -2.07967e-22)
(0.815459 -0.232094 -8.46584e-22)
(0.848931 -0.198974 7.42672e-22)
(0.879444 -0.170765 3.87233e-22)
(0.904172 -0.146833 -2.91123e-22)
(0.311482 -0.463714 0)
(0.526791 -0.578269 1.08135e-21)
(0.63144 -0.492271 1.22362e-22)
(0.691312 -0.40836 6.72107e-23)
(0.747728 -0.341302 6.70611e-22)
(0.790936 -0.289063 9.22124e-22)
(0.829624 -0.245999 -7.58264e-22)
(0.860793 -0.211112 7.96785e-23)
(0.889496 -0.181351 0)
(0.913087 -0.156038 0)
(0.341517 -0.478971 -6.70324e-23)
(0.565426 -0.602312 9.3332e-22)
(0.664018 -0.515156 0)
(0.717814 -0.428105 1.6168e-22)
(0.769246 -0.358343 -7.63116e-23)
(0.808776 -0.303897 0)
(0.844487 -0.258937 7.65433e-22)
(0.873255 -0.222464 5.61188e-22)
(0.90003 -0.191305 -1.08015e-22)
(0.922491 -0.164698 9.07297e-23)