/*--------------------------------*- C++ -*----------------------------------*\
  =========                 |
  \\      /  F ield         | OpenFOAM: The Open Source CFD Toolbox
   \\    /   O peration     | Website:  https://openfoam.org
    \\  /    A nd           | Version:  7
     \\/     M anipulation  |
\*---------------------------------------------------------------------------*/
FoamFile
{
    version     2.0;
    format      ascii;
    class       volScalarField;
    location    "3.6";
    object      rho;
}
// * * * * * * * * * * * * * * * * * * * * * * * * * * * * * * * * * * * * * //

dimensions      [1 -3 0 0 0 0 0];

internalField   nonuniform List<scalar> 
64512
(
1.40001
1.40001
1.40001
1.40001
1.40001
1.40001
1.40001
1.40001
1.40001
1.40001
1.40001
1.40001
1.40001
1.40001
1.40001
1.40001
1.40001
1.40001
1.40001
1.40001
1.40001
1.40001
1.40001
1.40001
1.40001
1.40001
1.40001
1.40001
1.40001
1.40001
1.40001
1.40001
1.40001
1.40001
1.40001
1.40001
1.40001
1.40001
1.40001
1.40001
1.40001
1.40001
1.40001
1.40001
1.40001
1.40001
1.40001
1.40001
1.40001
4.06538
5.41336
5.43884
5.45827
5.48091
5.50181
5.52184
5.5411
5.56046
5.58049
5.60107
5.62145
5.64091
5.65898
5.67573
5.69166
5.70746
5.72359
5.74013
5.75704
5.77414
5.79124
5.8079
5.82318
5.83684
5.84962
5.86218
5.87501
5.88819
5.90105
5.91257
5.92207
5.92953
5.93558
5.9414
5.94822
5.95666
5.96664
5.97745
5.98783
5.99626
6.00164
6.00385
6.00402
6.00333
6.00309
6.0034
1.40001
1.40001
1.40001
1.40001
1.40001
1.40001
1.40001
1.40001
1.40001
1.40001
1.40001
1.40001
1.40001
1.40001
1.40001
1.40001
1.40001
1.40001
1.40001
1.40001
1.40001
1.40001
1.40001
1.40001
1.40001
1.40001
1.40001
1.40001
1.40001
1.40001
1.40001
1.40001
1.40001
1.40001
1.40001
1.40001
1.40001
1.40001
1.40001
1.40001
1.40001
1.40001
1.40001
1.40001
1.40001
1.40001
1.40001
1.40001
1.40001
4.04623
5.40907
5.43767
5.45771
5.48031
5.50134
5.5215
5.54089
5.56028
5.58021
5.6007
5.62099
5.64035
5.65842
5.67522
5.69119
5.70692
5.72296
5.73939
5.75625
5.77342
5.79063
5.80743
5.82274
5.83633
5.84887
5.86119
5.87389
5.88714
5.90018
5.91183
5.9213
5.9286
5.93452
5.94037
5.94736
5.95597
5.96597
5.97658
5.98664
5.99482
6.00016
6.00251
6.00282
6.00217
6.0019
6.00214
1.40001
1.40001
1.40001
1.40001
1.40001
1.40001
1.40001
1.40001
1.40001
1.40001
1.40001
1.40001
1.40001
1.40001
1.40001
1.40001
1.40001
1.40001
1.40001
1.40001
1.40001
1.40001
1.40001
1.40001
1.40001
1.40001
1.40001
1.40001
1.40001
1.40001
1.40001
1.40001
1.40001
1.40001
1.40001
1.40001
1.40001
1.40001
1.40001
1.40001
1.40001
1.40001
1.40001
1.40001
1.40001
1.40001
1.40001
1.40001
1.40001
4.00877
5.40613
5.43516
5.45561
5.47819
5.49944
5.51989
5.53961
5.55925
5.57931
5.59984
5.62008
5.6393
5.65725
5.67404
5.69001
5.70568
5.72166
5.73802
5.75483
5.77211
5.78947
5.80648
5.82183
5.83533
5.84758
5.85957
5.8721
5.88543
5.89873
5.91059
5.92005
5.92715
5.93289
5.93876
5.94596
5.95483
5.96488
5.97522
5.98481
5.99259
5.9978
6.00032
6.00084
6.00028
5.99998
6.00015
1.40001
1.40001
1.40001
1.40001
1.40001
1.40001
1.40001
1.40001
1.40001
1.40001
1.40001
1.40001
1.40001
1.40001
1.40001
1.40001
1.40001
1.40001
1.40001
1.40001
1.40001
1.40001
1.40001
1.40001
1.40001
1.40001
1.40001
1.40001
1.40001
1.40001
1.40001
1.40001
1.40001
1.40001
1.40001
1.40001
1.40001
1.40001
1.40001
1.40001
1.40001
1.40001
1.40001
1.40001
1.40001
1.40001
1.40001
1.40001
1.40001
3.95435
5.40232
5.43242
5.45272
5.47508
5.49644
5.51717
5.53734
5.55746
5.57786
5.59861
5.61888
5.6379
5.65556
5.67215
5.68799
5.70355
5.71953
5.7359
5.75273
5.77018
5.78769
5.80487
5.82019
5.83351
5.84539
5.85704
5.86945
5.88294
5.89652
5.90853
5.91789
5.92477
5.93041
5.93645
5.94403
5.9532
5.96323
5.97313
5.98206
5.98931
5.99438
5.9971
5.99786
5.99737
5.99701
5.99706
1.40001
1.40001
1.40001
1.40001
1.40001
1.40001
1.40001
1.40001
1.40001
1.40001
1.40001
1.40001
1.40001
1.40001
1.40001
1.40001
1.40001
1.40001
1.40001
1.40001
1.40001
1.40001
1.40001
1.40001
1.40001
1.40001
1.40001
1.40001
1.40001
1.40001
1.40001
1.40001
1.40001
1.40001
1.40001
1.40001
1.40001
1.40001
1.40001
1.40001
1.40001
1.40001
1.40001
1.40001
1.40001
1.40001
1.40001
1.40001
1.40001
3.88218
5.39699
5.42937
5.44884
5.4709
5.49223
5.51319
5.53386
5.55462
5.57562
5.59685
5.61737
5.63625
5.65352
5.66969
5.68522
5.70059
5.71661
5.73314
5.75011
5.7678
5.7854
5.80264
5.81781
5.83088
5.84238
5.85375
5.8661
5.87974
5.8935
5.90554
5.91476
5.9215
5.92719
5.93354
5.94155
5.95099
5.96088
5.97022
5.97845
5.98519
5.99016
5.99309
5.9941
5.9937
5.99324
5.99315
1.40001
1.40001
1.40001
1.40001
1.40001
1.40001
1.40001
1.40001
1.40001
1.40001
1.40001
1.40001
1.40001
1.40001
1.40001
1.40001
1.40001
1.40001
1.40001
1.40001
1.40001
1.40001
1.40001
1.40001
1.40001
1.40001
1.40001
1.40001
1.40001
1.40001
1.40001
1.40001
1.40001
1.40001
1.40001
1.40001
1.40001
1.40001
1.40001
1.40001
1.40001
1.40001
1.40001
1.40001
1.40001
1.40001
1.40001
1.40001
1.40001
3.79219
5.39009
5.42593
5.44405
5.46582
5.48703
5.50814
5.52929
5.55077
5.57254
5.59446
5.61548
5.63439
5.65127
5.6669
5.68191
5.69689
5.71289
5.72965
5.74689
5.7649
5.78256
5.79973
5.81457
5.82733
5.83852
5.84975
5.86211
5.87582
5.88957
5.90149
5.91061
5.91741
5.92339
5.93019
5.93858
5.94811
5.95768
5.96639
5.97392
5.98021
5.98511
5.98824
5.98946
5.98915
5.98859
5.98839
1.40001
1.40001
1.40001
1.40001
1.40001
1.40001
1.40001
1.40001
1.40001
1.40001
1.40001
1.40001
1.40001
1.40001
1.40001
1.40001
1.40001
1.40001
1.40001
1.40001
1.40001
1.40001
1.40001
1.40001
1.40001
1.40001
1.40001
1.40001
1.40001
1.40001
1.40001
1.40001
1.40001
1.40001
1.40001
1.40001
1.40001
1.40001
1.40001
1.40001
1.40001
1.40001
1.40001
1.40001
1.40001
1.40001
1.40001
1.40001
1.40001
3.68453
5.38151
5.42204
5.43863
5.46011
5.48115
5.5023
5.52381
5.54594
5.56852
5.59124
5.613
5.63224
5.64889
5.66396
5.67828
5.69262
5.70841
5.72537
5.74294
5.76134
5.77908
5.79607
5.81052
5.82296
5.83392
5.84508
5.8574
5.87101
5.88454
5.89628
5.90545
5.91259
5.91909
5.9264
5.93506
5.94447
5.95357
5.96162
5.96855
5.9745
5.97935
5.98261
5.98392
5.98362
5.98295
5.98265
1.40001
1.40001
1.40001
1.40001
1.40001
1.40001
1.40001
1.40001
1.40001
1.40001
1.40001
1.40001
1.40001
1.40001
1.40001
1.40001
1.40001
1.40001
1.40001
1.40001
1.40001
1.40001
1.40001
1.40001
1.40001
1.40001
1.40001
1.40001
1.40001
1.40001
1.40001
1.40001
1.40001
1.40001
1.40001
1.40001
1.40001
1.40001
1.40001
1.40001
1.40001
1.40001
1.40001
1.40001
1.40001
1.40001
1.40001
1.40001
1.40001
3.55866
5.3704
5.41792
5.43322
5.45441
5.47508
5.4961
5.51779
5.54047
5.5638
5.58727
5.60987
5.6297
5.64634
5.66092
5.67447
5.688
5.70332
5.72033
5.7382
5.75699
5.77482
5.79168
5.80579
5.81797
5.82873
5.83974
5.85185
5.86512
5.87829
5.8899
5.89934
5.90706
5.91421
5.92194
5.93061
5.93966
5.94817
5.95563
5.96214
5.96792
5.97279
5.97619
5.97761
5.97737
5.97664
5.97632
1.40001
1.40001
1.40001
1.40001
1.40001
1.40001
1.40001
1.40001
1.40001
1.40001
1.40001
1.40001
1.40001
1.40001
1.40001
1.40001
1.40001
1.40001
1.40001
1.40001
1.40001
1.40001
1.40001
1.40001
1.40001
1.40001
1.40001
1.40001
1.40001
1.40001
1.40001
1.40001
1.40001
1.40001
1.40001
1.40001
1.40001
1.40001
1.40001
1.40001
1.40001
1.40001
1.40001
1.40001
1.40001
1.40001
1.40001
1.40001
1.40001
3.41311
5.35454
5.41453
5.42908
5.4497
5.4695
5.48996
5.51156
5.53456
5.55853
5.5827
5.60616
5.62683
5.64376
5.65799
5.67078
5.68334
5.69786
5.71462
5.73258
5.75166
5.76968
5.78659
5.80058
5.81263
5.82313
5.83377
5.84538
5.85814
5.87097
5.88264
5.89259
5.90102
5.90877
5.91672
5.92515
5.93361
5.94149
5.94847
5.95473
5.96044
5.96538
5.96888
5.97038
5.97025
5.96952
5.96927
1.40001
1.40001
1.40001
1.40001
1.40001
1.40001
1.40001
1.40001
1.40001
1.40001
1.40001
1.40001
1.40001
1.40001
1.40001
1.40001
1.40001
1.40001
1.40001
1.40001
1.40001
1.40001
1.40001
1.40001
1.40001
1.40001
1.40001
1.40001
1.40001
1.40001
1.40001
1.40001
1.40001
1.40001
1.40001
1.40001
1.40001
1.40001
1.40001
1.40001
1.40001
1.40001
1.40001
1.40001
1.40001
1.40001
1.40001
1.40001
1.40001
3.24657
5.32983
5.41311
5.42774
5.44769
5.46581
5.48471
5.50554
5.52846
5.55274
5.57739
5.60161
5.62329
5.64085
5.6551
5.66736
5.67897
5.69234
5.70844
5.72611
5.74526
5.76352
5.78065
5.79479
5.80681
5.81695
5.82699
5.83793
5.8502
5.86291
5.87495
5.88561
5.89476
5.90292
5.91079
5.91868
5.92642
5.93366
5.94026
5.94637
5.95206
5.95704
5.96057
5.96214
5.96211
5.96144
5.96131
1.40001
1.40001
1.40001
1.40001
1.40001
1.40001
1.40001
1.40001
1.40001
1.40001
1.40001
1.40001
1.40001
1.40001
1.40001
1.40001
1.40001
1.40001
1.40001
1.40001
1.40001
1.40001
1.40001
1.40001
1.40001
1.40001
1.40001
1.40001
1.40001
1.40001
1.40001
1.40001
1.40001
1.40001
1.40001
1.40001
1.40001
1.40001
1.40001
1.40001
1.40001
1.40001
1.40001
1.40001
1.40001
1.40001
1.40001
1.40001
1.40001
3.05943
5.29239
5.41469
5.42983
5.44925
5.46544
5.48208
5.50091
5.52286
5.54686
5.57164
5.59631
5.61899
5.63752
5.65222
5.66429
5.67501
5.68688
5.70181
5.71871
5.7377
5.75625
5.77376
5.78827
5.80028
5.80994
5.81915
5.82932
5.8412
5.85406
5.86669
5.87813
5.88791
5.89627
5.90383
5.91108
5.91809
5.92479
5.93109
5.9371
5.94277
5.94775
5.95128
5.95291
5.95299
5.9524
5.95242
1.40001
1.40001
1.40001
1.40001
1.40001
1.40001
1.40001
1.40001
1.40001
1.40001
1.40001
1.40001
1.40001
1.40001
1.40001
1.40001
1.40001
1.40001
1.40001
1.40001
1.40001
1.40001
1.40001
1.40001
1.40001
1.40001
1.40001
1.40001
1.40001
1.40001
1.40001
1.40001
1.40001
1.40001
1.40001
1.40001
1.40001
1.40001
1.40001
1.40001
1.40001
1.40001
1.40001
1.40001
1.40001
1.40001
1.40001
1.40001
1.40001
2.85353
5.24007
5.41864
5.43406
5.45318
5.46771
5.48227
5.49861
5.51842
5.54129
5.56577
5.59057
5.61415
5.63396
5.64968
5.66211
5.67222
5.68238
5.69563
5.71128
5.72976
5.74846
5.76622
5.78106
5.79298
5.80206
5.81037
5.81979
5.83144
5.84462
5.85791
5.87003
5.88021
5.88852
5.89562
5.90219
5.90858
5.91484
5.92094
5.92686
5.93246
5.93737
5.94087
5.94254
5.94274
5.94223
5.94238
1.40001
1.40001
1.40001
1.40001
1.40001
1.40001
1.40001
1.40001
1.40001
1.40001
1.40001
1.40001
1.40001
1.40001
1.40001
1.40001
1.40001
1.40001
1.40001
1.40001
1.40001
1.40001
1.40001
1.40001
1.40001
1.40001
1.40001
1.40001
1.40001
1.40001
1.40001
1.40001
1.40001
1.40001
1.40001
1.40001
1.40001
1.40001
1.40001
1.40001
1.40001
1.40001
1.40001
1.40001
1.40001
1.40001
1.40001
1.40001
1.40001
2.63473
5.17016
5.42103
5.43746
5.45736
5.47144
5.48445
5.49841
5.51548
5.53614
5.55949
5.58383
5.60788
5.62891
5.64594
5.65922
5.66918
5.67787
5.6893
5.70345
5.72128
5.74013
5.75803
5.77325
5.78513
5.79376
5.80129
5.81007
5.82154
5.83499
5.84873
5.86123
5.87153
5.87957
5.88611
5.89206
5.89792
5.90384
5.90975
5.91557
5.92107
5.9259
5.92937
5.93109
5.93143
5.93102
5.93129
1.40001
1.40001
1.40001
1.40001
1.40001
1.40001
1.40001
1.40001
1.40001
1.40001
1.40001
1.40001
1.40001
1.40001
1.40001
1.40001
1.40001
1.40001
1.40001
1.40001
1.40001
1.40001
1.40001
1.40001
1.40001
1.40001
1.40001
1.40001
1.40001
1.40001
1.40001
1.40001
1.40001
1.40001
1.40001
1.40001
1.40001
1.40001
1.40001
1.40001
1.40001
1.40001
1.40001
1.40001
1.40001
1.40001
1.40001
1.40001
1.40001
2.40642
5.07868
5.4224
5.43944
5.46062
5.47556
5.48807
5.50004
5.51436
5.53219
5.55338
5.5767
5.60078
5.62288
5.64135
5.65589
5.66615
5.67368
5.6831
5.69537
5.71208
5.73078
5.74865
5.76426
5.77633
5.78492
5.79204
5.80037
5.81164
5.82515
5.83899
5.85149
5.86162
5.86927
5.87529
5.88073
5.88617
5.89178
5.89748
5.90314
5.90849
5.9132
5.91664
5.9184
5.91886
5.91852
5.91891
1.40001
1.40001
1.40001
1.40001
1.40001
1.40001
1.40001
1.40001
1.40001
1.40001
1.40001
1.40001
1.40001
1.40001
1.40001
1.40001
1.40001
1.40001
1.40001
1.40001
1.40001
1.40001
1.40001
1.40001
1.40001
1.40001
1.40001
1.40001
1.40001
1.40001
1.40001
1.40001
1.40001
1.40001
1.40001
1.40001
1.40001
1.40001
1.40001
1.40001
1.40001
1.40001
1.40001
1.40001
1.40001
1.40001
1.40001
1.40001
1.40001
2.17822
4.96088
5.42602
5.44097
5.46236
5.47836
5.49203
5.504
5.5166
5.53172
5.55
5.57118
5.59424
5.6166
5.63597
5.65177
5.66284
5.66991
5.67752
5.6878
5.70289
5.721
5.73869
5.75462
5.76703
5.77588
5.78284
5.79073
5.80158
5.8148
5.82836
5.84055
5.85035
5.85762
5.86322
5.86825
5.87333
5.87858
5.88398
5.88939
5.89457
5.89918
5.90261
5.90444
5.90506
5.90481
5.90531
1.40001
1.40001
1.40001
1.40001
1.40001
1.40001
1.40001
1.40001
1.40001
1.40001
1.40001
1.40001
1.40001
1.40001
1.40001
1.40001
1.40001
1.40001
1.40001
1.40001
1.40001
1.40001
1.40001
1.40001
1.40001
1.40001
1.40001
1.40001
1.40001
1.40001
1.40001
1.40001
1.40001
1.40001
1.40001
1.40001
1.40001
1.40001
1.40001
1.40001
1.40001
1.40001
1.40001
1.40001
1.40001
1.40001
1.40001
1.40001
1.40001
1.9562
4.81212
5.4311
5.44219
5.46302
5.4796
5.4953
5.50811
5.52015
5.53308
5.54844
5.5668
5.58799
5.60996
5.62981
5.64685
5.65921
5.66664
5.67296
5.68134
5.69417
5.71102
5.72826
5.74431
5.75713
5.76653
5.77356
5.78098
5.79111
5.80366
5.81661
5.82826
5.8377
5.8447
5.85002
5.85476
5.85948
5.86431
5.86927
5.87433
5.87929
5.88377
5.88716
5.88902
5.88974
5.88954
5.89011
1.40001
1.40001
1.40001
1.40001
1.40001
1.40001
1.40001
1.40001
1.40001
1.40001
1.40001
1.40001
1.40001
1.40001
1.40001
1.40001
1.40001
1.40001
1.40001
1.40001
1.40001
1.40001
1.40001
1.40001
1.40001
1.40001
1.40001
1.40001
1.40001
1.40001
1.40001
1.40001
1.40001
1.40001
1.40001
1.40001
1.40001
1.40001
1.40001
1.40001
1.40001
1.40001
1.40001
1.40001
1.40001
1.40001
1.40001
1.40001
1.40001
1.75507
4.63891
5.44554
5.44048
5.4605
5.47686
5.4945
5.50991
5.52263
5.53439
5.54744
5.56312
5.58198
5.6029
5.62284
5.6408
5.65469
5.66322
5.66897
5.67588
5.68626
5.70145
5.71793
5.73391
5.74714
5.75715
5.76431
5.7711
5.78012
5.79156
5.80359
5.81455
5.82362
5.83044
5.83561
5.8401
5.84443
5.84872
5.85309
5.85767
5.86235
5.86674
5.87013
5.87208
5.87292
5.87279
5.87343
1.40001
1.40001
1.40001
1.40001
1.40001
1.40001
1.40001
1.40001
1.40001
1.40001
1.40001
1.40001
1.40001
1.40001
1.40001
1.40001
1.40001
1.40001
1.40001
1.40001
1.40001
1.40001
1.40001
1.40001
1.40001
1.40001
1.40001
1.40001
1.40001
1.40001
1.40001
1.40001
1.40001
1.40001
1.40001
1.40001
1.40001
1.40001
1.40001
1.40001
1.40001
1.40001
1.40001
1.40001
1.40001
1.40001
1.40001
1.40001
1.40001
1.5698
4.41603
5.44492
5.43363
5.45067
5.46683
5.48503
5.50208
5.51736
5.53141
5.54534
5.55991
5.57655
5.59574
5.61517
5.6334
5.6486
5.65868
5.66476
5.6709
5.67924
5.69261
5.70802
5.72367
5.73712
5.74763
5.75484
5.76088
5.76847
5.77844
5.78931
5.79947
5.80814
5.81486
5.81996
5.82424
5.82817
5.83186
5.83556
5.83956
5.84387
5.84808
5.8514
5.85332
5.85417
5.85403
5.85465
1.40001
1.40001
1.40001
1.40001
1.40001
1.40001
1.40001
1.40001
1.40001
1.40001
1.40001
1.40001
1.40001
1.40001
1.40001
1.40001
1.40001
1.40001
1.40001
1.40001
1.40001
1.40001
1.40001
1.40001
1.40001
1.40001
1.40001
1.40001
1.40001
1.40001
1.40001
1.40001
1.40001
1.40001
1.40001
1.40001
1.40001
1.40001
1.40001
1.40001
1.40001
1.40001
1.40001
1.40001
1.40001
1.40001
1.40001
1.40001
1.40001
1.42279
4.16353
5.40806
5.40995
5.43147
5.4523
5.47369
5.49214
5.509
5.52515
5.54045
5.55505
5.57048
5.5879
5.60626
5.62419
5.64031
5.65219
5.65953
5.66581
5.67292
5.6845
5.69853
5.71349
5.72685
5.7376
5.74479
5.75008
5.75612
5.76439
5.7739
5.78314
5.79135
5.79794
5.80296
5.807
5.81045
5.81346
5.81635
5.81962
5.82344
5.8274
5.83064
5.83259
5.83347
5.83335
5.83395
1.40001
1.40001
1.40001
1.40001
1.40001
1.40001
1.40001
1.40001
1.40001
1.40001
1.40001
1.40001
1.40001
1.40001
1.40001
1.40001
1.40001
1.40001
1.40001
1.40001
1.40001
1.40001
1.40001
1.40001
1.40001
1.40001
1.40001
1.40001
1.40001
1.40001
1.40001
1.40001
1.40001
1.40001
1.40001
1.40001
1.40001
1.40001
1.40001
1.40001
1.40001
1.40001
1.40001
1.40001
1.40001
1.40001
1.40001
1.40001
1.40001
1.40041
3.8313
5.32806
5.38135
5.40831
5.43168
5.45288
5.47289
5.49214
5.51077
5.52872
5.54494
5.56063
5.57743
5.59518
5.61285
5.62951
5.64307
5.65234
5.65964
5.66656
5.67669
5.68923
5.70308
5.71603
5.72675
5.73389
5.73855
5.74314
5.74961
5.75759
5.76577
5.77333
5.77965
5.78452
5.78826
5.7912
5.79351
5.79558
5.79802
5.80119
5.80471
5.80773
5.80954
5.8103
5.81003
5.81049
1.40001
1.40001
1.40001
1.40001
1.40001
1.40001
1.40001
1.40001
1.40001
1.40001
1.40001
1.40001
1.40001
1.40001
1.40001
1.40001
1.40001
1.40001
1.40001
1.40001
1.40001
1.40001
1.40001
1.40001
1.40001
1.40001
1.40001
1.40001
1.40001
1.40001
1.40001
1.40001
1.40001
1.40001
1.40001
1.40001
1.40001
1.40001
1.40001
1.40001
1.40001
1.40001
1.40001
1.40001
1.40001
1.40001
1.40001
1.40001
1.40001
1.40001
3.4905
5.26091
5.34911
5.38464
5.41368
5.43823
5.46026
5.47995
5.49832
5.51638
5.53335
5.54968
5.56594
5.58266
5.59954
5.6162
5.63108
5.64236
5.65138
5.65915
5.66841
5.67965
5.69211
5.70436
5.7148
5.72187
5.72608
5.72944
5.73414
5.74049
5.74744
5.75415
5.76
5.76453
5.76784
5.77016
5.77167
5.77279
5.77422
5.77651
5.77944
5.78217
5.7839
5.78456
5.78418
5.78456
1.40001
1.40001
1.40001
1.40001
1.40001
1.40001
1.40001
1.40001
1.40001
1.40001
1.40001
1.40001
1.40001
1.40001
1.40001
1.40001
1.40001
1.40001
1.40001
1.40001
1.40001
1.40001
1.40001
1.40001
1.40001
1.40001
1.40001
1.40001
1.40001
1.40001
1.40001
1.40001
1.40001
1.40001
1.40001
1.40001
1.40001
1.40001
1.40001
1.40001
1.40001
1.40001
1.40001
1.40001
1.40001
1.40001
1.40001
1.40001
1.40001
1.40001
3.11788
5.18841
5.33589
5.37078
5.39807
5.42282
5.44524
5.46558
5.48465
5.50325
5.52074
5.53703
5.55276
5.56836
5.58427
5.6004
5.61582
5.62907
5.64002
5.64934
5.65854
5.669
5.68013
5.69152
5.7015
5.70851
5.71248
5.71497
5.71809
5.72276
5.72831
5.73392
5.73896
5.74289
5.74559
5.74717
5.74788
5.74808
5.74846
5.74969
5.75174
5.75391
5.75523
5.75545
5.7547
5.75481
1.40001
1.40001
1.40001
1.40001
1.40001
1.40001
1.40001
1.40001
1.40001
1.40001
1.40001
1.40001
1.40001
1.40001
1.40001
1.40001
1.40001
1.40001
1.40001
1.40001
1.40001
1.40001
1.40001
1.40001
1.40001
1.40001
1.40001
1.40001
1.40001
1.40001
1.40001
1.40001
1.40001
1.40001
1.40001
1.40001
1.40001
1.40001
1.40001
1.40001
1.40001
1.40001
1.40001
1.40001
1.40001
1.40001
1.40001
1.40001
1.40001
1.40001
2.72941
5.09793
5.34694
5.3697
5.39719
5.41919
5.43795
5.45535
5.47218
5.48915
5.50652
5.52305
5.53856
5.55363
5.56869
5.5837
5.59928
5.61283
5.62538
5.63651
5.64622
5.65643
5.6666
5.67715
5.68661
5.69365
5.69761
5.69956
5.70135
5.70433
5.7083
5.71253
5.71644
5.71948
5.72135
5.72203
5.7218
5.72088
5.71992
5.71971
5.72061
5.72204
5.72292
5.72273
5.72171
5.72171
1.40001
1.40001
1.40001
1.40001
1.40001
1.40001
1.40001
1.40001
1.40001
1.40001
1.40001
1.40001
1.40001
1.40001
1.40001
1.40001
1.40001
1.40001
1.40001
1.40001
1.40001
1.40001
1.40001
1.40001
1.40001
1.40001
1.40001
1.40001
1.40001
1.40001
1.40001
1.40001
1.40001
1.40001
1.40001
1.40001
1.40001
1.40001
1.40001
1.40001
1.40001
1.40001
1.40001
1.40001
1.40001
1.40001
1.40001
1.40001
1.40001
1.40001
2.33644
4.95728
5.38884
5.38977
5.40465
5.41744
5.43319
5.45029
5.46641
5.48166
5.49632
5.51036
5.52409
5.53792
5.55209
5.56637
5.58099
5.59599
5.60795
5.62024
5.63076
5.64124
5.65104
5.66089
5.66993
5.67703
5.6812
5.6829
5.6837
5.68509
5.68737
5.68997
5.69243
5.69422
5.69502
5.6947
5.69333
5.69118
5.68873
5.68699
5.68649
5.68672
5.68653
5.68533
5.6835
5.68294
1.40001
1.40001
1.40001
1.40001
1.40001
1.40001
1.40001
1.40001
1.40001
1.40001
1.40001
1.40001
1.40001
1.40001
1.40001
1.40001
1.40001
1.40001
1.40001
1.40001
1.40001
1.40001
1.40001
1.40001
1.40001
1.40001
1.40001
1.40001
1.40001
1.40001
1.40001
1.40001
1.40001
1.40001
1.40001
1.40001
1.40001
1.40001
1.40001
1.40001
1.40001
1.40001
1.40001
1.40001
1.40001
1.40001
1.40001
1.40001
1.40001
1.40001
1.93462
4.78473
5.45511
5.41718
5.42715
5.43378
5.44256
5.45263
5.46387
5.47641
5.48898
5.50115
5.51274
5.52428
5.53624
5.54891
5.56204
5.57601
5.5896
5.60151
5.61239
5.62286
5.63293
5.6424
5.65116
5.65838
5.66293
5.66467
5.66483
5.66481
5.66532
5.66612
5.6668
5.66705
5.66657
5.66491
5.66218
5.65844
5.65402
5.65025
5.64759
5.64591
5.64443
5.64235
5.64003
5.63939
1.40001
1.40001
1.40001
1.40001
1.40001
1.40001
1.40001
1.40001
1.40001
1.40001
1.40001
1.40001
1.40001
1.40001
1.40001
1.40001
1.40001
1.40001
1.40001
1.40001
1.40001
1.40001
1.40001
1.40001
1.40001
1.40001
1.40001
1.40001
1.40001
1.40001
1.40001
1.40001
1.40001
1.40001
1.40001
1.40001
1.40001
1.40001
1.40001
1.40001
1.40001
1.40001
1.40001
1.40001
1.40001
1.40001
1.40001
1.40001
1.40001
1.40001
1.56072
4.49155
5.49301
5.43999
5.43614
5.43904
5.44659
5.4565
5.46714
5.47761
5.48697
5.49542
5.50393
5.51319
5.52322
5.53375
5.54516
5.5571
5.56944
5.58122
5.59173
5.60215
5.61214
5.62143
5.63007
5.63739
5.64239
5.64444
5.64438
5.64319
5.64199
5.64084
5.63961
5.63808
5.63581
5.63248
5.62807
5.62233
5.61579
5.60983
5.6049
5.60074
5.59665
5.59229
5.58827
5.58642
1.40001
1.40001
1.40001
1.40001
1.40001
1.40001
1.40001
1.40001
1.40001
1.40001
1.40001
1.40001
1.40001
1.40001
1.40001
1.40001
1.40001
1.40001
1.40001
1.40001
1.40001
1.40001
1.40001
1.40001
1.40001
1.40001
1.40001
1.40001
1.40001
1.40001
1.40001
1.40001
1.40001
1.40001
1.40001
1.40001
1.40001
1.40001
1.40001
1.40001
1.40001
1.40001
1.40001
1.40001
1.40001
1.40001
1.40001
1.40001
1.40001
1.40001
1.4064
4.0795
5.39745
5.38152
5.41159
5.43058
5.4452
5.45675
5.4687
5.47946
5.4876
5.49381
5.49942
5.50549
5.51263
5.52076
5.52992
5.54001
5.55059
5.56099
5.57061
5.57945
5.58915
5.59843
5.60668
5.61396
5.61935
5.6219
5.62197
5.61988
5.61708
5.61399
5.61069
5.60704
5.60264
5.59733
5.59074
5.58246
5.57325
5.564
5.55525
5.54712
5.5395
5.53265
5.52744
5.52565
1.40001
1.40001
1.40001
1.40001
1.40001
1.40001
1.40001
1.40001
1.40001
1.40001
1.40001
1.40001
1.40001
1.40001
1.40001
1.40001
1.40001
1.40001
1.40001
1.40001
1.40001
1.40001
1.40001
1.40001
1.40001
1.40001
1.40001
1.40001
1.40001
1.40001
1.40001
1.40001
1.40001
1.40001
1.40001
1.40001
1.40001
1.40001
1.40001
1.40001
1.40001
1.40001
1.40001
1.40001
1.40001
1.40001
1.40001
1.40001
1.40001
1.40001
1.40001
3.56761
5.2507
5.33743
5.38238
5.40849
5.43082
5.44887
5.46305
5.47396
5.48412
5.49163
5.49678
5.50099
5.50573
5.51127
5.51765
5.52491
5.53309
5.54165
5.54986
5.55746
5.56499
5.57344
5.58146
5.58834
5.59384
5.59683
5.5972
5.59448
5.59036
5.58539
5.57994
5.57394
5.56716
5.55933
5.54981
5.53852
5.52583
5.51265
5.49972
5.4873
5.47506
5.46273
5.45224
5.44599
1.40001
1.40001
1.40001
1.40001
1.40001
1.40001
1.40001
1.40001
1.40001
1.40001
1.40001
1.40001
1.40001
1.40001
1.40001
1.40001
1.40001
1.40001
1.40001
1.40001
1.40001
1.40001
1.40001
1.40001
1.40001
1.40001
1.40001
1.40001
1.40001
1.40001
1.40001
1.40001
1.40001
1.40001
1.40001
1.40001
1.40001
1.40001
1.40001
1.40001
1.40001
1.40001
1.40001
1.40001
1.40001
1.40001
1.40001
1.40001
1.40001
1.40001
1.4
3.09623
5.13317
5.29336
5.34556
5.38701
5.41288
5.43068
5.44734
5.46324
5.47593
5.48511
5.49214
5.49686
5.50063
5.50435
5.50831
5.51272
5.51793
5.52382
5.52992
5.53583
5.54149
5.54805
5.55506
5.56128
5.56637
5.56932
5.56987
5.56675
5.56161
5.55487
5.54723
5.53864
5.52903
5.51809
5.50522
5.49024
5.47329
5.45494
5.43539
5.41454
5.39302
5.3728
5.35694
5.35101
1.40001
1.40001
1.40001
1.40001
1.40001
1.40001
1.40001
1.40001
1.40001
1.40001
1.40001
1.40001
1.40001
1.40001
1.40001
1.40001
1.40001
1.40001
1.40001
1.40001
1.40001
1.40001
1.40001
1.40001
1.40001
1.40001
1.40001
1.40001
1.40001
1.40001
1.40001
1.40001
1.40001
1.40001
1.40001
1.40001
1.40001
1.40001
1.40001
1.40001
1.40001
1.40001
1.40001
1.40001
1.40001
1.40001
1.40001
1.40001
1.40001
1.40001
1.40001
2.61334
4.98262
5.29563
5.34322
5.37418
5.39669
5.41604
5.43102
5.44551
5.4593
5.47198
5.48165
5.48869
5.49383
5.49768
5.5006
5.5029
5.50533
5.5083
5.5116
5.51516
5.51849
5.52297
5.52824
5.53309
5.53738
5.53984
5.53991
5.53648
5.53064
5.52233
5.51242
5.50106
5.4883
5.47379
5.45696
5.43743
5.41489
5.38954
5.36156
5.3316
5.30039
5.26904
5.23663
5.2102
1.40001
1.40001
1.40001
1.40001
1.40001
1.40001
1.40001
1.40001
1.40001
1.40001
1.40001
1.40001
1.40001
1.40001
1.40001
1.40001
1.40001
1.40001
1.40001
1.40001
1.40001
1.40001
1.40001
1.40001
1.40001
1.40001
1.40001
1.40001
1.40001
1.40001
1.40001
1.40001
1.40001
1.40001
1.40001
1.40001
1.40001
1.40001
1.40001
1.40001
1.40001
1.40001
1.40001
1.40001
1.40001
1.40001
1.40001
1.40001
1.40001
1.40001
1.40001
2.1009
4.80983
5.37011
5.35959
5.3705
5.38378
5.39929
5.41477
5.4285
5.44168
5.45416
5.46551
5.47539
5.48297
5.48854
5.49211
5.49382
5.49448
5.49498
5.4954
5.4962
5.49677
5.49861
5.5016
5.50456
5.50712
5.50871
5.50799
5.50406
5.49727
5.48749
5.47533
5.46116
5.44495
5.42641
5.40489
5.37985
5.3506
5.31701
5.27854
5.23397
5.18022
5.11706
5.05558
5.0123
1.40001
1.40001
1.40001
1.40001
1.40001
1.40001
1.40001
1.40001
1.40001
1.40001
1.40001
1.40001
1.40001
1.40001
1.40001
1.40001
1.40001
1.40001
1.40001
1.40001
1.40001
1.40001
1.40001
1.40001
1.40001
1.40001
1.40001
1.40001
1.40001
1.40001
1.40001
1.40001
1.40001
1.40001
1.40001
1.40001
1.40001
1.40001
1.40001
1.40001
1.40001
1.40001
1.40001
1.40001
1.40001
1.40001
1.40001
1.40001
1.40001
1.40001
1.40001
1.60753
4.55262
5.46081
5.39193
5.37712
5.38103
5.39074
5.40165
5.41265
5.42454
5.43667
5.4481
5.45823
5.46728
5.4748
5.48009
5.4828
5.48332
5.48247
5.48074
5.47892
5.47679
5.47551
5.47549
5.47616
5.47639
5.47633
5.47423
5.46956
5.46164
5.45036
5.43606
5.41904
5.39919
5.37621
5.34939
5.31799
5.28082
5.23677
5.18365
5.11879
5.03999
4.94526
4.83905
4.76193
1.40001
1.40001
1.40001
1.40001
1.40001
1.40001
1.40001
1.40001
1.40001
1.40001
1.40001
1.40001
1.40001
1.40001
1.40001
1.40001
1.40001
1.40001
1.40001
1.40001
1.40001
1.40001
1.40001
1.40001
1.40001
1.40001
1.40001
1.40001
1.40001
1.40001
1.40001
1.40001
1.40001
1.40001
1.40001
1.40001
1.40001
1.40001
1.40001
1.40001
1.40001
1.40001
1.40001
1.40001
1.40001
1.40001
1.40001
1.40001
1.40001
1.40001
1.40001
1.40882
4.04441
5.3564
5.34831
5.36822
5.37862
5.3878
5.39627
5.40334
5.41138
5.42065
5.43074
5.44065
5.44966
5.45771
5.46434
5.4687
5.47026
5.46935
5.46671
5.46296
5.45854
5.45405
5.45079
5.44861
5.4461
5.4433
5.43928
5.4332
5.42395
5.41107
5.3946
5.37469
5.35111
5.32343
5.29079
5.25223
5.20592
5.14988
5.08075
4.99421
4.87913
4.70633
4.35987
3.45438
1.40001
1.40001
1.40001
1.40001
1.40001
1.40001
1.40001
1.40001
1.40001
1.40001
1.40001
1.40001
1.40001
1.40001
1.40001
1.40001
1.40001
1.40001
1.40001
1.40001
1.40001
1.40001
1.40001
1.40001
1.40001
1.40001
1.40001
1.40001
1.40001
1.40001
1.40001
1.40001
1.40001
1.40001
1.40001
1.40001
1.40001
1.40001
1.40001
1.40001
1.40001
1.40001
1.40001
1.40001
1.40001
1.40001
1.40001
1.40001
1.40001
1.40001
1.40001
1.39996
3.39973
5.17476
5.30666
5.34785
5.36915
5.38125
5.3906
5.3967
5.40197
5.40784
5.41494
5.42291
5.43097
5.43867
5.44553
5.45093
5.45384
5.45387
5.45141
5.44693
5.44114
5.43425
5.42773
5.42211
5.41667
5.41055
5.40386
5.39555
5.38449
5.36986
5.35118
5.32838
5.30107
5.2686
5.22987
5.18361
5.12748
5.05842
4.97134
4.85646
4.69593
4.43867
4.0301
3.01239
1.40001
1.40001
1.40001
1.40001
1.40001
1.40001
1.40001
1.40001
1.40001
1.40001
1.40001
1.40001
1.40001
1.40001
1.40001
1.40001
1.40001
1.40001
1.40001
1.40001
1.40001
1.40001
1.40001
1.40001
1.40001
1.40001
1.40001
1.40001
1.40001
1.40001
1.40001
1.40001
1.40001
1.40001
1.40001
1.40001
1.40001
1.40001
1.40001
1.40001
1.40001
1.40001
1.40001
1.40001
1.40001
1.40001
1.40001
1.40001
1.40001
1.40001
1.40001
1.4
2.82211
5.03216
5.28946
5.32938
5.35617
5.37271
5.38001
5.38688
5.39252
5.39724
5.40196
5.40737
5.41334
5.41955
5.42553
5.43071
5.43442
5.43544
5.43379
5.42945
5.42335
5.41517
5.40601
5.39707
5.38845
5.37887
5.36876
5.35743
5.3438
5.32695
5.30594
5.28026
5.24928
5.21209
5.16728
5.1132
5.04706
4.96508
4.8601
4.72204
4.52362
4.25649
3.71213
2.87287
1.40001
1.40001
1.40001
1.40001
1.40001
1.40001
1.40001
1.40001
1.40001
1.40001
1.40001
1.40001
1.40001
1.40001
1.40001
1.40001
1.40001
1.40001
1.40001
1.40001
1.40001
1.40001
1.40001
1.40001
1.40001
1.40001
1.40001
1.40001
1.40001
1.40001
1.40001
1.40001
1.40001
1.40001
1.40001
1.40001
1.40001
1.40001
1.40001
1.40001
1.40001
1.40001
1.40001
1.40001
1.40001
1.40001
1.40001
1.40001
1.40001
1.40001
1.40001
1.4
2.21883
4.83192
5.32969
5.33121
5.34408
5.35712
5.3678
5.37665
5.38322
5.38818
5.39182
5.39498
5.39822
5.40184
5.40578
5.40966
5.41293
5.41437
5.41344
5.40956
5.40389
5.3955
5.38498
5.37332
5.36144
5.34876
5.33473
5.31968
5.30271
5.28295
5.2593
5.23078
5.19625
5.1546
5.104
5.04252
4.96675
4.87323
4.75272
4.59729
4.37739
4.06765
3.5346
2.85074
1.40001
1.40001
1.40001
1.40001
1.40001
1.40001
1.40001
1.40001
1.40001
1.40001
1.40001
1.40001
1.40001
1.40001
1.40001
1.40001
1.40001
1.40001
1.40001
1.40001
1.40001
1.40001
1.40001
1.40001
1.40001
1.40001
1.40001
1.40001
1.40001
1.40001
1.40001
1.40001
1.40001
1.40001
1.40001
1.40001
1.40001
1.40001
1.40001
1.40001
1.40001
1.40001
1.40001
1.40001
1.40001
1.40001
1.40001
1.40001
1.40001
1.40001
1.40001
1.4
1.64465
4.5794
5.41982
5.35986
5.33936
5.34426
5.35494
5.3641
5.37147
5.37713
5.38097
5.38338
5.3849
5.38616
5.38757
5.38927
5.39099
5.39213
5.39117
5.38755
5.38207
5.37401
5.36318
5.34987
5.33536
5.3199
5.30212
5.283
5.26209
5.23869
5.21173
5.18019
5.14225
5.09654
5.04072
4.97278
4.88865
4.78514
4.65308
4.48262
4.25437
3.92689
3.45253
2.90026
1.40001
1.40001
1.40001
1.40001
1.40001
1.40001
1.40001
1.40001
1.40001
1.40001
1.40001
1.40001
1.40001
1.40001
1.40001
1.40001
1.40001
1.40001
1.40001
1.40001
1.40001
1.40001
1.40001
1.40001
1.40001
1.40001
1.40001
1.40001
1.40001
1.40001
1.40001
1.40001
1.40001
1.40001
1.40001
1.40001
1.40001
1.40001
1.40001
1.40001
1.40001
1.40001
1.40001
1.40001
1.40001
1.40001
1.40001
1.40001
1.40001
1.40001
1.40001
1.40001
1.41179
4.002
5.29327
5.30268
5.32053
5.33136
5.34249
5.35093
5.35812
5.36404
5.36837
5.37101
5.37202
5.37194
5.37129
5.37056
5.37006
5.36975
5.36776
5.36382
5.35828
5.35026
5.33952
5.32585
5.3098
5.2919
5.27106
5.24801
5.22284
5.19529
5.16438
5.12925
5.0879
5.03862
4.97826
4.90498
4.81434
4.70285
4.56296
4.38349
4.15178
3.83418
3.42924
2.97116
1.40001
1.40001
1.40001
1.40001
1.40001
1.40001
1.40001
1.40001
1.40001
1.40001
1.40001
1.40001
1.40001
1.40001
1.40001
1.40001
1.40001
1.40001
1.40001
1.40001
1.40001
1.40001
1.40001
1.40001
1.40001
1.40001
1.40001
1.40001
1.40001
1.40001
1.40001
1.40001
1.40001
1.40001
1.40001
1.40001
1.40001
1.40001
1.40001
1.40001
1.40001