/*--------------------------------*- C++ -*----------------------------------*\
  =========                 |
  \\      /  F ield         | OpenFOAM: The Open Source CFD Toolbox
   \\    /   O peration     | Website:  https://openfoam.org
    \\  /    A nd           | Version:  9
     \\/     M anipulation  |
\*---------------------------------------------------------------------------*/
FoamFile
{
    format      ascii;
    class       volVectorField;
    location    "2.6";
    object      U;
}
// * * * * * * * * * * * * * * * * * * * * * * * * * * * * * * * * * * * * * //

dimensions      [0 1 -1 0 0 0 0];

internalField   nonuniform List<vector> 
252
(
(3 1.54264e-15 0)
(3 -8.93872e-15 0)
(2.59667 0.0305467 0)
(0.809098 0.0612387 0)
(0.475306 0.0733159 0)
(0.279521 0.162152 0)
(3 4.00832e-15 0)
(3 -7.61425e-15 0)
(2.75815 0.128885 0)
(0.892568 0.283946 0)
(0.436682 0.326682 0)
(0.307713 0.573075 0)
(3 2.80014e-14 0)
(3 2.69679e-14 0)
(3.02762 0.0329796 0)
(1.20022 0.486567 0)
(0.694654 0.576901 0)
(0.766417 0.896068 0)
(3 7.68739e-15 0)
(3 -5.56196e-15 0)
(3.00516 0.00027293 0)
(1.78457 0.596085 0)
(0.970082 0.760062 0)
(1.05037 0.810223 0)
(3 -1.02556e-14 0)
(3 -7.36235e-14 0)
(3.00004 4.82524e-07 0)
(2.889 0.29917 0)
(1.38774 0.839975 0)
(1.27776 0.827089 0)
(3 1.54756e-14 0)
(3 2.22773e-14 0)
(3 -1.55878e-06 0)
(3.04691 0.0148303 0)
(2.1301 0.683625 0)
(1.4169 0.878557 0)
(3 4.36236e-15 0)
(3 4.94653e-14 0)
(3 -3.14642e-07 0)
(3.00097 0.000557225 0)
(2.98738 0.187122 0)
(1.76529 0.855822 0)
(3 -1.50153e-14 0)
(3 -8.49111e-16 0)
(3 -3.06221e-08 0)
(3 9.0539e-07 0)
(3.01316 0.0104186 0)
(2.54323 0.510531 0)
(3 -1.20722e-15 0)
(3 1.47104e-14 0)
(3 -1.15227e-09 0)
(3 -9.45357e-10 0)
(3.00008 0.000141801 0)
(2.97369 0.0860049 0)
(3 9.90062e-16 0)
(3 1.61647e-14 0)
(3 -8.08711e-12 0)
(3 -2.19226e-10 0)
(3 1.31701e-07 0)
(2.99929 0.0031961 0)
(1.65305 0.888765 0)
(2.16183 0.855297 0)
(2.39886 0.69938 0)
(2.39303 0.367425 0)
(2.42176 0.123179 0)
(2.43548 -0.019877 0)
(2.43898 -0.0895 0)
(2.41368 -0.0756213 0)
(2.29961 -0.109068 0)
(1.74759 -0.288461 0)
(1.32184 -0.232325 0)
(1.35683 -0.158949 0)
(1.49207 -0.0900077 0)
(1.65358 -0.0478928 0)
(1.7842 -0.00182454 0)
(1.8718 0.0183419 0)
(1.94333 0.0254974 0)
(2.01186 0.0268285 0)
(2.083 0.02757 0)
(2.15213 0.0303967 0)
(2.21052 0.0348506 0)
(2.25788 0.0372542 0)
(2.29229 0.0369409 0)
(2.35536 0.037567 0)
(1.68147 0.690922 0)
(2.07008 0.41241 0)
(2.29803 0.164151 0)
(2.40956 -0.0672351 0)
(2.44438 -0.212406 0)
(2.48591 -0.205576 0)
(2.50734 -0.232288 0)
(2.43938 -0.279465 0)
(2.17663 -0.48009 0)
(1.98129 -0.729594 0)
(1.7519 -0.454041 0)
(1.63779 -0.172934 0)
(1.6241 -0.0118919 0)
(1.73033 0.0297694 0)
(1.82293 0.0726791 0)
(1.89865 0.102304 0)
(1.96367 0.0977363 0)
(2.03546 0.0995085 0)
(2.10628 0.108131 0)
(2.16956 0.111807 0)
(2.22712 0.112585 0)
(2.27966 0.114212 0)
(2.31962 0.10855 0)
(2.38628 0.0992992 0)
(1.67824 0.716592 0)
(1.98028 0.5448 0)
(2.17915 0.397091 0)
(2.31745 0.228953 0)
(2.41596 0.161047 0)
(2.45247 0.043878 0)
(2.39117 -0.0913765 0)
(2.21011 -0.414015 0)
(1.94367 -0.733735 0)
(2.03887 -0.824592 0)
(2.0474 -0.756872 0)
(2.04797 -0.557532 0)
(1.97911 -0.275789 0)
(1.95499 -0.075509 0)
(1.94153 0.0391168 0)
(1.98777 0.121493 0)
(2.0448 0.154219 0)
(2.10879 0.171384 0)
(2.17398 0.172514 0)
(2.22185 0.150722 0)
(2.27288 0.134148 0)
(2.32739 0.139343 0)
(2.36821 0.142516 0)
(2.43058 0.144234 0)
(1.66215 0.81909 0)
(1.9215 0.679775 0)
(2.08354 0.577409 0)
(2.27813 0.418523 0)
(2.40451 0.342219 0)
(2.32909 0.0739478 0)
(2.15992 -0.347078 0)
(2.03312 -0.599226 0)
(2.04928 -0.7369 0)
(2.12412 -0.731841 0)
(2.21309 -0.728152 0)
(2.27534 -0.69591 0)
(2.28053 -0.546368 0)
(2.28046 -0.367664 0)
(2.2015 -0.146168 0)
(2.17526 0.022102 0)
(2.2066 0.147971 0)
(2.20393 0.193868 0)
(2.22542 0.234558 0)
(2.26655 0.247829 0)
(2.3147 0.240643 0)
(2.36795 0.2433 0)
(2.40653 0.241825 0)
(2.4623 0.239987 0)
(1.69987 0.86451 0)
(1.85849 0.791382 0)
(2.08599 0.64614 0)
(2.23846 0.613945 0)
(2.18987 0.310149 0)
(2.08671 -0.139529 0)
(2.00304 -0.462944 0)
(1.99992 -0.61929 0)
(2.09816 -0.632266 0)
(2.20415 -0.607876 0)
(2.29317 -0.597479 0)
(2.37215 -0.562665 0)
(2.40452 -0.534895 0)
(2.45641 -0.485419 0)
(2.44885 -0.364439 0)
(2.43429 -0.214324 0)
(2.39084 -0.0252996 0)
(2.36762 0.113986 0)
(2.34178 0.206301 0)
(2.36439 0.272698 0)
(2.37765 0.291473 0)
(2.4035 0.31422 0)
(2.44268 0.33753 0)
(2.50055 0.329394 0)
(1.86571 0.868941 0)
(1.86558 0.880304 0)
(2.00282 0.85302 0)
(1.98863 0.533757 0)
(1.92623 0.0749926 0)
(1.90201 -0.216393 0)
(1.92872 -0.347379 0)
(2.02318 -0.390752 0)
(2.13689 -0.407923 0)
(2.23755 -0.404192 0)
(2.3205 -0.412188 0)
(2.39762 -0.399575 0)
(2.4565 -0.412994 0)
(2.51394 -0.402647 0)
(2.54419 -0.372733 0)
(2.58463 -0.335312 0)
(2.56939 -0.224149 0)
(2.57562 -0.0957528 0)
(2.53798 0.0758565 0)
(2.53355 0.20205 0)
(2.48955 0.314306 0)
(2.46503 0.365174 0)
(2.47793 0.419704 0)
(2.52201 0.43123 0)
(2.44855 0.582619 0)
(2.0985 0.940152 0)
(1.91995 0.692584 0)
(1.56121 0.104393 0)
(1.65377 -0.223985 0)
(1.73232 -0.279192 0)
(1.87988 -0.27364 0)
(2.02347 -0.249921 0)
(2.14768 -0.234329 0)
(2.25287 -0.227061 0)
(2.34159 -0.232566 0)
(2.41593 -0.230432 0)
(2.4809 -0.236518 0)
(2.54274 -0.253004 0)
(2.58695 -0.240641 0)
(2.62349 -0.244895 0)
(2.67294 -0.214234 0)
(2.71178 -0.192558 0)
(2.71955 -0.10498 0)
(2.72163 0.0216274 0)
(2.6922 0.16484 0)
(2.64182 0.295003 0)
(2.62482 0.379094 0)
(2.61572 0.437502 0)
(2.89012 0.115308 0)
(2.349 0.520747 0)
(1.82453 0.523805 0)
(1.40315 0.282028 0)
(1.61417 0.0907638 0)
(1.8004 -0.0387454 0)
(1.97425 -0.0829841 0)
(2.11932 -0.094873 0)
(2.23592 -0.0955351 0)
(2.33151 -0.0934999 0)
(2.41085 -0.09201 0)
(2.47767 -0.0878652 0)
(2.54074 -0.089484 0)
(2.59791 -0.094087 0)
(2.65688 -0.096589 0)
(2.71076 -0.110916 0)
(2.75972 -0.0921532 0)
(2.78338 -0.115183 0)
(2.79447 -0.0874543 0)
(2.80902 -0.0545639 0)
(2.80292 -0.0210352 0)
(2.78442 0.0410888 0)
(2.73273 0.141835 0)
(2.68455 0.214827 0)
)
;

boundaryField
{
    inlet
    {
        type            fixedValue;
        value           uniform (3 0 0);
    }
    outlet
    {
        type            inletOutlet;
        inletValue      uniform (3 0 0);
        value           nonuniform List<vector> 8((2.35536 0.037567 0) (2.38628 0.0992992 0) (2.43058 0.144234 0) (2.4623 0.239987 0) (2.50055 0.329394 0) (2.52201 0.43123 0) (2.61572 0.437502 0) (2.68455 0.214827 0));
    }
    bottom
    {
        type            symmetryPlane;
    }
    top
    {
        type            symmetryPlane;
    }
    obstacle
    {
        type            slip;
    }
    defaultFaces
    {
        type            empty;
    }
}


// ************************************************************************* //
