/*--------------------------------*- C++ -*----------------------------------*\
  =========                 |
  \\      /  F ield         | OpenFOAM: The Open Source CFD Toolbox
   \\    /   O peration     | Website:  https://openfoam.org
    \\  /    A nd           | Version:  7
     \\/     M anipulation  |
\*---------------------------------------------------------------------------*/
FoamFile
{
    version     2.0;
    format      ascii;
    class       volVectorField;
    location    "5.4";
    object      U;
}
// * * * * * * * * * * * * * * * * * * * * * * * * * * * * * * * * * * * * * //

dimensions      [0 1 -1 0 0 0 0];

internalField   nonuniform List<vector> 
11050
(
(-3.26457e-11 3.01748e-11 0)
(-1.43596e-10 8.65157e-11 0)
(-3.1729e-10 1.02968e-10 0)
(-4.87645e-10 9.17365e-11 0)
(-5.98389e-10 6.69523e-11 0)
(-6.25534e-10 3.7345e-11 0)
(-5.57461e-10 8.7013e-12 0)
(-3.39969e-10 -1.80988e-11 0)
(1.54082e-11 -5.81287e-11 0)
(4.32774e-10 -9.68295e-11 0)
(9.29307e-10 -1.32085e-10 0)
(1.5343e-09 -1.63405e-10 0)
(2.23589e-09 -1.91098e-10 0)
(3.01892e-09 -2.14719e-10 0)
(3.87482e-09 -2.3224e-10 0)
(4.8509e-09 -2.4257e-10 0)
(5.91246e-09 -2.64883e-10 0)
(6.97795e-09 -2.85076e-10 0)
(8.08089e-09 -3.06155e-10 0)
(9.24423e-09 -3.23203e-10 0)
(1.04473e-08 -3.33561e-10 0)
(1.16736e-08 -3.37769e-10 0)
(1.29124e-08 -3.37196e-10 0)
(1.41589e-08 -3.31997e-10 0)
(1.54598e-08 -3.24805e-10 0)
(1.68019e-08 -3.31429e-10 0)
(1.80934e-08 -3.37748e-10 0)
(1.93425e-08 -3.3829e-10 0)
(2.05859e-08 -3.3404e-10 0)
(2.18121e-08 -3.26148e-10 0)
(2.30066e-08 -3.14398e-10 0)
(2.41623e-08 -2.97313e-10 0)
(2.53294e-08 -2.77e-10 0)
(2.64918e-08 -2.71456e-10 0)
(2.75575e-08 -2.65331e-10 0)
(2.85422e-08 -2.55008e-10 0)
(2.94836e-08 -2.40795e-10 0)
(3.03714e-08 -2.23479e-10 0)
(3.1193e-08 -2.02789e-10 0)
(3.19429e-08 -1.77331e-10 0)
(3.26716e-08 -1.49097e-10 0)
(3.33656e-08 -1.3552e-10 0)
(3.39386e-08 -1.22219e-10 0)
(3.44082e-08 -1.05665e-10 0)
(3.48124e-08 -8.58667e-11 0)
(-7.07365e-11 1.66958e-10 0)
(-2.79336e-10 3.55968e-10 0)
(-5.58726e-10 3.87434e-10 0)
(-7.80659e-10 3.09227e-10 0)
(-8.42737e-10 1.66052e-10 0)
(-6.88507e-10 -1.14867e-11 0)
(-2.81158e-10 -2.02696e-10 0)
(4.53751e-10 -3.98742e-10 0)
(1.5161e-09 -6.17253e-10 0)
(2.8074e-09 -8.32316e-10 0)
(4.33108e-09 -1.03789e-09 0)
(6.12697e-09 -1.23012e-09 0)
(8.17694e-09 -1.40772e-09 0)
(1.04562e-08 -1.56876e-09 0)
(1.29512e-08 -1.70848e-09 0)
(1.57056e-08 -1.82299e-09 0)
(1.86796e-08 -1.95098e-09 0)
(2.17525e-08 -2.06223e-09 0)
(2.49316e-08 -2.16996e-09 0)
(2.82464e-08 -2.26154e-09 0)
(3.16657e-08 -2.3292e-09 0)
(3.51622e-08 -2.37388e-09 0)
(3.87158e-08 -2.39905e-09 0)
(4.23128e-08 -2.40706e-09 0)
(4.59933e-08 -2.40475e-09 0)
(4.97333e-08 -2.4127e-09 0)
(5.34048e-08 -2.4145e-09 0)
(5.6997e-08 -2.3984e-09 0)
(6.05542e-08 -2.36493e-09 0)
(6.40576e-08 -2.3161e-09 0)
(6.74825e-08 -2.25214e-09 0)
(7.08159e-08 -2.17214e-09 0)
(7.41067e-08 -2.08192e-09 0)
(7.73344e-08 -2.00645e-09 0)
(8.03716e-08 -1.92599e-09 0)
(8.32147e-08 -1.83319e-09 0)
(8.59131e-08 -1.72757e-09 0)
(8.84533e-08 -1.61044e-09 0)
(9.0816e-08 -1.48195e-09 0)
(9.29938e-08 -1.34129e-09 0)
(9.50395e-08 -1.19407e-09 0)
(9.6939e-08 -1.06489e-09 0)
(9.85751e-08 -9.35076e-10 0)
(9.99504e-08 -7.97844e-10 0)
(1.01118e-07 -6.52129e-10 0)
(-7.59505e-11 3.80729e-10 0)
(-2.77257e-10 7.05398e-10 0)
(-4.98193e-10 7.00676e-10 0)
(-5.84298e-10 4.65924e-10 0)
(-4.13416e-10 8.00254e-11 0)
(8.85501e-11 -3.9853e-10 0)
(9.73593e-10 -9.28206e-10 0)
(2.32239e-09 -1.4826e-09 0)
(4.14468e-09 -2.05601e-09 0)
(6.34091e-09 -2.62273e-09 0)
(8.90607e-09 -3.17294e-09 0)
(1.18813e-08 -3.69696e-09 0)
(1.52447e-08 -4.18907e-09 0)
(1.89675e-08 -4.64426e-09 0)
(2.30337e-08 -5.05489e-09 0)
(2.74631e-08 -5.41044e-09 0)
(3.22181e-08 -5.76026e-09 0)
(3.71637e-08 -6.05683e-09 0)
(4.22825e-08 -6.33468e-09 0)
(4.76121e-08 -6.57456e-09 0)
(5.31061e-08 -6.76375e-09 0)
(5.87235e-08 -6.90366e-09 0)
(6.44346e-08 -6.9998e-09 0)
(7.02162e-08 -7.05708e-09 0)
(7.60997e-08 -7.0832e-09 0)
(8.20489e-08 -7.08244e-09 0)
(8.79222e-08 -7.05637e-09 0)
(9.36975e-08 -6.99333e-09 0)
(9.9409e-08 -6.89312e-09 0)
(1.05031e-07 -6.75753e-09 0)
(1.10531e-07 -6.58802e-09 0)
(1.15888e-07 -6.38689e-09 0)
(1.21144e-07 -6.1612e-09 0)
(1.26271e-07 -5.92035e-09 0)
(1.31129e-07 -5.66042e-09 0)
(1.35704e-07 -5.37533e-09 0)
(1.4004e-07 -5.06442e-09 0)
(1.4412e-07 -4.72911e-09 0)
(1.47919e-07 -4.37099e-09 0)
(1.51427e-07 -3.99253e-09 0)
(1.5469e-07 -3.60069e-09 0)
(1.57693e-07 -3.20572e-09 0)
(1.60309e-07 -2.80338e-09 0)
(1.62533e-07 -2.38896e-09 0)
(1.64419e-07 -1.96126e-09 0)
(-5.95634e-11 5.64804e-10 0)
(-1.79418e-10 9.63107e-10 0)
(-2.2486e-10 8.44581e-10 0)
(-4.37258e-11 3.6166e-10 0)
(4.91493e-10 -3.7164e-10 0)
(1.4632e-09 -1.26743e-09 0)
(2.93081e-09 -2.26017e-09 0)
(4.9766e-09 -3.30258e-09 0)
(7.61681e-09 -4.36788e-09 0)
(1.07529e-08 -5.42296e-09 0)
(1.43747e-08 -6.44984e-09 0)
(1.85238e-08 -7.43376e-09 0)
(2.3176e-08 -8.36355e-09 0)
(2.83016e-08 -9.22924e-09 0)
(3.38854e-08 -1.00181e-08 0)
(3.99082e-08 -1.07146e-08 0)
(4.63477e-08 -1.13835e-08 0)
(5.30612e-08 -1.19479e-08 0)
(5.9999e-08 -1.24646e-08 0)
(6.72227e-08 -1.29151e-08 0)
(7.46677e-08 -1.32763e-08 0)
(8.22753e-08 -1.35541e-08 0)
(9.00055e-08 -1.37543e-08 0)
(9.78267e-08 -1.38816e-08 0)
(1.05765e-07 -1.39409e-08 0)
(1.1377e-07 -1.39313e-08 0)
(1.21692e-07 -1.38654e-08 0)
(1.29503e-07 -1.37333e-08 0)
(1.37223e-07 -1.35357e-08 0)
(1.4482e-07 -1.32746e-08 0)
(1.52254e-07 -1.29525e-08 0)
(1.59495e-07 -1.25737e-08 0)
(1.66578e-07 -1.21445e-08 0)
(1.73468e-07 -1.16694e-08 0)
(1.80018e-07 -1.11513e-08 0)
(1.86206e-07 -1.05859e-08 0)
(1.92069e-07 -9.97549e-09 0)
(1.97583e-07 -9.32286e-09 0)
(2.02722e-07 -8.63115e-09 0)
(2.07467e-07 -7.90488e-09 0)
(2.11862e-07 -7.15062e-09 0)
(2.15888e-07 -6.37432e-09 0)
(2.19414e-07 -5.57787e-09 0)
(2.22429e-07 -4.75912e-09 0)
(2.24985e-07 -3.92009e-09 0)
(-3.0893e-11 6.73881e-10 0)
(-2.0468e-11 1.03638e-09 0)
(1.91568e-10 7.0696e-10 0)
(7.33539e-10 -1.21033e-10 0)
(1.72877e-09 -1.30053e-09 0)
(3.26141e-09 -2.71491e-09 0)
(5.39254e-09 -4.27458e-09 0)
(8.20263e-09 -5.91157e-09 0)
(1.17108e-08 -7.57835e-09 0)
(1.58201e-08 -9.23585e-09 0)
(2.05156e-08 -1.08467e-08 0)
(2.5838e-08 -1.23925e-08 0)
(3.17626e-08 -1.38558e-08 0)
(3.82603e-08 -1.5221e-08 0)
(4.53155e-08 -1.64744e-08 0)
(5.28619e-08 -1.76038e-08 0)
(6.09088e-08 -1.86809e-08 0)
(6.93079e-08 -1.9591e-08 0)
(7.79637e-08 -2.041e-08 0)
(8.69788e-08 -2.11138e-08 0)
(9.6269e-08 -2.16853e-08 0)
(1.0575e-07 -2.21298e-08 0)
(1.15378e-07 -2.24574e-08 0)
(1.25115e-07 -2.26693e-08 0)
(1.34982e-07 -2.27661e-08 0)
(1.44912e-07 -2.27443e-08 0)
(1.54749e-07 -2.26295e-08 0)
(1.64462e-07 -2.24084e-08 0)
(1.74061e-07 -2.20852e-08 0)
(1.83505e-07 -2.16631e-08 0)
(1.92745e-07 -2.11454e-08 0)
(2.01746e-07 -2.0537e-08 0)
(2.10534e-07 -1.98437e-08 0)
(2.19068e-07 -1.907e-08 0)
(2.27197e-07 -1.82252e-08 0)
(2.34892e-07 -1.73007e-08 0)
(2.42179e-07 -1.63061e-08 0)
(2.49034e-07 -1.52466e-08 0)
(2.55421e-07 -1.41267e-08 0)
(2.61321e-07 -1.29525e-08 0)
(2.66772e-07 -1.17305e-08 0)
(2.7175e-07 -1.04669e-08 0)
(2.76124e-07 -9.16969e-09 0)
(2.79878e-07 -7.83281e-09 0)
(2.8306e-07 -6.4661e-09 0)
(3.46818e-12 6.81893e-10 0)
(1.75535e-10 8.71509e-10 0)
(7.00564e-10 2.2131e-10 0)
(1.66654e-09 -1.05548e-09 0)
(3.18935e-09 -2.78115e-09 0)
(5.34948e-09 -4.81194e-09 0)
(8.20458e-09 -7.03627e-09 0)
(1.18323e-08 -9.36805e-09 0)
(1.62471e-08 -1.17355e-08 0)
(2.13586e-08 -1.40931e-08 0)
(2.7149e-08 -1.6375e-08 0)
(3.36491e-08 -1.85638e-08 0)
(4.08369e-08 -2.0634e-08 0)
(4.86798e-08 -2.25684e-08 0)
(5.71567e-08 -2.43612e-08 0)
(6.61571e-08 -2.6037e-08 0)
(7.57504e-08 -2.75813e-08 0)
(8.57764e-08 -2.89334e-08 0)
(9.60809e-08 -3.00886e-08 0)
(1.06805e-07 -3.10336e-08 0)
(1.17844e-07 -3.18352e-08 0)
(1.29096e-07 -3.24754e-08 0)
(1.40513e-07 -3.29485e-08 0)
(1.52059e-07 -3.32587e-08 0)
(1.63748e-07 -3.34112e-08 0)
(1.75488e-07 -3.34052e-08 0)
(1.87121e-07 -3.32427e-08 0)
(1.98622e-07 -3.29104e-08 0)
(2.09983e-07 -3.24333e-08 0)
(2.21158e-07 -3.1816e-08 0)
(2.32093e-07 -3.10617e-08 0)
(2.42743e-07 -3.01758e-08 0)
(2.5313e-07 -2.9165e-08 0)
(2.63203e-07 -2.80332e-08 0)
(2.72811e-07 -2.67956e-08 0)
(2.81919e-07 -2.5433e-08 0)
(2.90539e-07 -2.39726e-08 0)
(2.98646e-07 -2.2421e-08 0)
(3.06203e-07 -2.07837e-08 0)
(3.13183e-07 -1.90683e-08 0)
(3.19621e-07 -1.72834e-08 0)
(3.25488e-07 -1.54337e-08 0)
(3.30655e-07 -1.35343e-08 0)
(3.35103e-07 -1.15678e-08 0)
(3.38869e-07 -9.56209e-09 0)
(4.17517e-11 5.90878e-10 0)
(3.96945e-10 4.93426e-10 0)
(1.26838e-09 -5.98559e-10 0)
(2.69573e-09 -2.43843e-09 0)
(4.79116e-09 -4.81556e-09 0)
(7.62453e-09 -7.56193e-09 0)
(1.12441e-08 -1.05467e-08 0)
(1.57277e-08 -1.36719e-08 0)
(2.10829e-08 -1.68399e-08 0)
(2.72289e-08 -1.99516e-08 0)
(3.41389e-08 -2.29807e-08 0)
(4.1825e-08 -2.59026e-08 0)
(5.02698e-08 -2.86778e-08 0)
(5.94282e-08 -3.12819e-08 0)
(6.92428e-08 -3.37148e-08 0)
(7.9653e-08 -3.59829e-08 0)
(9.07467e-08 -3.78936e-08 0)
(1.02357e-07 -3.97197e-08 0)
(1.1433e-07 -4.12739e-08 0)
(1.26688e-07 -4.25591e-08 0)
(1.3934e-07 -4.36347e-08 0)
(1.52262e-07 -4.44938e-08 0)
(1.65377e-07 -4.51311e-08 0)
(1.78623e-07 -4.55485e-08 0)
(1.92012e-07 -4.57613e-08 0)
(2.05467e-07 -4.5791e-08 0)
(2.18828e-07 -4.55481e-08 0)
(2.32029e-07 -4.5081e-08 0)
(2.45047e-07 -4.44227e-08 0)
(2.5785e-07 -4.3574e-08 0)
(2.70379e-07 -4.25399e-08 0)
(2.8258e-07 -4.13299e-08 0)
(2.94472e-07 -3.99591e-08 0)
(3.05991e-07 -3.84319e-08 0)
(3.16998e-07 -3.67112e-08 0)
(3.27438e-07 -3.48355e-08 0)
(3.37306e-07 -3.28356e-08 0)
(3.46586e-07 -3.07127e-08 0)
(3.55238e-07 -2.84733e-08 0)
(3.63228e-07 -2.61296e-08 0)
(3.70592e-07 -2.36994e-08 0)
(3.77292e-07 -2.11874e-08 0)
(3.83211e-07 -1.85611e-08 0)
(3.88315e-07 -1.58591e-08 0)
(3.92622e-07 -1.31134e-08 0)
(1.08504e-10 4.72684e-10 0)
(6.57286e-10 -7.42153e-11 0)
(1.86247e-09 -1.77109e-09 0)
(3.77053e-09 -4.30407e-09 0)
(6.46825e-09 -7.44205e-09 0)
(1.00052e-08 -1.09998e-08 0)
(1.44125e-08 -1.48278e-08 0)
(1.97715e-08 -1.88089e-08 0)
(2.61282e-08 -2.2834e-08 0)
(3.3345e-08 -2.67944e-08 0)
(4.13478e-08 -3.06726e-08 0)
(5.01948e-08 -3.44058e-08 0)
(5.98733e-08 -3.79501e-08 0)
(7.03176e-08 -4.12773e-08 0)
(8.14781e-08 -4.43811e-08 0)
(9.34362e-08 -4.72636e-08 0)
(1.05992e-07 -4.9723e-08 0)
(1.18974e-07 -5.20437e-08 0)
(1.3249e-07 -5.4025e-08 0)
(1.46429e-07 -5.57237e-08 0)
(1.60684e-07 -5.7113e-08 0)
(1.75211e-07 -5.82137e-08 0)
(1.89942e-07 -5.9026e-08 0)
(2.04809e-07 -5.95469e-08 0)
(2.19796e-07 -5.97855e-08 0)
(2.34903e-07 -5.97587e-08 0)
(2.49932e-07 -5.9412e-08 0)
(2.64725e-07 -5.8812e-08 0)
(2.79308e-07 -5.79533e-08 0)
(2.93653e-07 -5.6841e-08 0)
(3.07685e-07 -5.54857e-08 0)
(3.2134e-07 -5.38992e-08 0)
(3.34633e-07 -5.20966e-08 0)
(3.47554e-07 -5.00895e-08 0)
(3.59908e-07 -4.78374e-08 0)
(3.71582e-07 -4.54136e-08 0)
(3.82617e-07 -4.28147e-08 0)
(3.93002e-07 -4.00477e-08 0)
(4.02684e-07 -3.71257e-08 0)
(4.11615e-07 -3.40637e-08 0)
(4.19834e-07 -3.08808e-08 0)
(4.27353e-07 -2.75892e-08 0)
(4.34005e-07 -2.41569e-08 0)
(4.397e-07 -2.06553e-08 0)
(4.44507e-07 -1.70839e-08 0)
(1.37073e-10 2.46557e-10 0)
(8.5e-10 -9.72618e-10 0)
(2.42209e-09 -3.42955e-09 0)
(4.85123e-09 -6.78209e-09 0)
(8.18031e-09 -1.07903e-08 0)
(1.24484e-08 -1.52551e-08 0)
(1.76796e-08 -2.00088e-08 0)
(2.3948e-08 -2.49101e-08 0)
(3.12837e-08 -2.98505e-08 0)
(3.95392e-08 -3.47666e-08 0)
(4.8662e-08 -3.95697e-08 0)
(5.87061e-08 -4.41768e-08 0)
(6.9631e-08 -4.85432e-08 0)
(8.13621e-08 -5.26365e-08 0)
(9.38162e-08 -5.64348e-08 0)
(1.0713e-07 -5.99517e-08 0)
(1.21109e-07 -6.31465e-08 0)
(1.35581e-07 -6.59772e-08 0)
(1.50616e-07 -6.84067e-08 0)
(1.66056e-07 -7.04924e-08 0)
(1.8184e-07 -7.22134e-08 0)
(1.9791e-07 -7.35732e-08 0)
(2.14203e-07 -7.45651e-08 0)
(2.3064e-07 -7.51884e-08 0)
(2.47203e-07 -7.5443e-08 0)
(2.63868e-07 -7.53233e-08 0)
(2.80416e-07 -7.48941e-08 0)
(2.96719e-07 -7.41467e-08 0)
(3.12809e-07 -7.30617e-08 0)
(3.28625e-07 -7.16542e-08 0)
(3.44092e-07 -6.99395e-08 0)
(3.59143e-07 -6.79289e-08 0)
(3.73785e-07 -6.56301e-08 0)
(3.88003e-07 -6.30591e-08 0)
(4.01585e-07 -6.02574e-08 0)
(4.14432e-07 -5.72304e-08 0)
(4.26594e-07 -5.39653e-08 0)
(4.38035e-07 -5.04825e-08 0)
(4.48696e-07 -4.68018e-08 0)
(4.58534e-07 -4.29386e-08 0)
(4.67579e-07 -3.89054e-08 0)
(4.7584e-07 -3.47223e-08 0)
(4.83135e-07 -3.04354e-08 0)
(4.89394e-07 -2.60522e-08 0)
(4.94692e-07 -2.15641e-08 0)
(1.48316e-10 -1.73048e-10 0)
(1.02114e-09 -2.24672e-09 0)
(2.975e-09 -5.59396e-09 0)
(5.92985e-09 -9.88738e-09 0)
(9.89839e-09 -1.48763e-08 0)
(1.49103e-08 -2.03479e-08 0)
(2.09822e-08 -2.61206e-08 0)
(2.81725e-08 -3.20397e-08 0)
(3.64799e-08 -3.79953e-08 0)
(4.57729e-08 -4.39044e-08 0)
(5.60177e-08 -4.96673e-08 0)
(6.72449e-08 -5.52072e-08 0)
(7.94046e-08 -6.04685e-08 0)
(9.24176e-08 -6.54044e-08 0)
(1.06195e-07 -6.99757e-08 0)
(1.2084e-07 -7.41523e-08 0)
(1.36211e-07 -7.79733e-08 0)
(1.5213e-07 -8.13254e-08 0)
(1.68606e-07 -8.42603e-08 0)
(1.85506e-07 -8.67685e-08 0)
(2.02772e-07 -8.88391e-08 0)
(2.20341e-07 -9.0465e-08 0)
(2.38142e-07 -9.16481e-08 0)
(2.56094e-07 -9.23789e-08 0)
(2.74176e-07 -9.26634e-08 0)
(2.92316e-07 -9.25014e-08 0)
(3.1031e-07 -9.19672e-08 0)
(3.28075e-07 -9.10282e-08 0)
(3.45606e-07 -8.96829e-08 0)
(3.62829e-07 -8.79467e-08 0)
(3.79666e-07 -8.58358e-08 0)
(3.96051e-07 -8.33643e-08 0)
(4.11987e-07 -8.05432e-08 0)
(4.27419e-07 -7.73906e-08 0)
(4.42158e-07 -7.39626e-08 0)
(4.56135e-07 -7.02416e-08 0)
(4.6937e-07 -6.62354e-08 0)
(4.81813e-07 -6.19666e-08 0)
(4.93408e-07 -5.74561e-08 0)
(5.0411e-07 -5.27226e-08 0)
(5.13946e-07 -4.77815e-08 0)
(5.22891e-07 -4.26599e-08 0)
(5.30784e-07 -3.74136e-08 0)
(5.37588e-07 -3.20337e-08 0)
(5.4335e-07 -2.65323e-08 0)
(1.70735e-10 -7.03134e-10 0)
(1.20824e-09 -3.80522e-09 0)
(3.53078e-09 -8.19911e-09 0)
(7.00173e-09 -1.35651e-08 0)
(1.16064e-08 -1.96473e-08 0)
(1.73623e-08 -2.62246e-08 0)
(2.4276e-08 -3.31064e-08 0)
(3.23845e-08 -4.01291e-08 0)
(4.16758e-08 -4.71751e-08 0)
(5.20181e-08 -5.41284e-08 0)
(6.33734e-08 -6.09039e-08 0)
(7.57693e-08 -6.74184e-08 0)
(8.91493e-08 -7.36085e-08 0)
(1.03433e-07 -7.9419e-08 0)
(1.18528e-07 -8.47998e-08 0)
(1.34499e-07 -8.97089e-08 0)
(1.51237e-07 -9.41851e-08 0)
(1.68559e-07 -9.81162e-08 0)
(1.86431e-07 -1.01566e-07 0)
(2.04754e-07 -1.04513e-07 0)
(2.23463e-07 -1.06941e-07 0)
(2.42482e-07 -1.08853e-07 0)
(2.61746e-07 -1.10233e-07 0)
(2.81167e-07 -1.11069e-07 0)
(3.0071e-07 -1.11371e-07 0)
(3.20276e-07 -1.11154e-07 0)
(3.3967e-07 -1.10471e-07 0)
(3.58837e-07 -1.09315e-07 0)
(3.77747e-07 -1.07684e-07 0)
(3.96319e-07 -1.05589e-07 0)
(4.1447e-07 -1.03048e-07 0)
(4.32129e-07 -1.00077e-07 0)
(4.49294e-07 -9.66929e-08 0)
(4.65897e-07 -9.29207e-08 0)
(4.81753e-07 -8.87917e-08 0)
(4.96806e-07 -8.43152e-08 0)
(5.1106e-07 -7.95046e-08 0)
(5.24458e-07 -7.43837e-08 0)
(5.36941e-07 -6.89756e-08 0)
(5.48464e-07 -6.33026e-08 0)
(5.59046e-07 -5.73857e-08 0)
(5.68649e-07 -5.12612e-08 0)
(5.77123e-07 -4.49581e-08 0)
(5.8444e-07 -3.8498e-08 0)
(5.90636e-07 -3.18985e-08 0)
(1.99174e-10 -1.32154e-09 0)
(1.4024e-09 -5.63686e-09 0)
(4.08354e-09 -1.12406e-08 0)
(8.06094e-09 -1.78136e-08 0)
(1.32937e-08 -2.5104e-08 0)
(1.97873e-08 -3.28867e-08 0)
(2.75369e-08 -4.09653e-08 0)
(3.65605e-08 -4.91702e-08 0)
(4.68376e-08 -5.73665e-08 0)
(5.82288e-08 -6.54362e-08 0)
(7.06889e-08 -7.32857e-08 0)
(8.42445e-08 -8.08175e-08 0)
(9.8832e-08 -8.79685e-08 0)
(1.14371e-07 -9.46806e-08 0)
(1.30768e-07 -1.00901e-07 0)
(1.48045e-07 -1.06585e-07 0)
(1.66133e-07 -1.11763e-07 0)
(1.84835e-07 -1.16298e-07 0)
(2.04068e-07 -1.20271e-07 0)
(2.23777e-07 -1.23665e-07 0)
(2.43882e-07 -1.26468e-07 0)
(2.64315e-07 -1.28664e-07 0)
(2.85016e-07 -1.30189e-07 0)
(3.05874e-07 -1.31113e-07 0)
(3.26838e-07 -1.31439e-07 0)
(3.47786e-07 -1.31186e-07 0)
(3.68529e-07 -1.30348e-07 0)
(3.89036e-07 -1.28959e-07 0)
(4.09275e-07 -1.27013e-07 0)
(4.29147e-07 -1.24527e-07 0)
(4.48562e-07 -1.21521e-07 0)
(4.67448e-07 -1.18011e-07 0)
(4.85794e-07 -1.14016e-07 0)
(5.03524e-07 -1.09567e-07 0)
(5.20458e-07 -1.04689e-07 0)
(5.36539e-07 -9.94079e-08 0)
(5.51768e-07 -9.37312e-08 0)
(5.66078e-07 -8.76922e-08 0)
(5.79411e-07 -8.13193e-08 0)
(5.91718e-07 -7.46379e-08 0)
(6.0301e-07 -6.76723e-08 0)
(6.13247e-07 -6.04634e-08 0)
(6.22281e-07 -5.30349e-08 0)
(6.30083e-07 -4.54244e-08 0)
(6.36691e-07 -3.76463e-08 0)
(2.28428e-10 -2.04048e-09 0)
(1.59306e-09 -7.74766e-09 0)
(4.62622e-09 -1.47177e-08 0)
(9.10341e-09 -2.26272e-08 0)
(1.49537e-08 -3.12401e-08 0)
(2.21744e-08 -4.03291e-08 0)
(3.07491e-08 -4.96941e-08 0)
(4.0683e-08 -5.91623e-08 0)
(5.19392e-08 -6.85759e-08 0)
(6.43688e-08 -7.78332e-08 0)
(7.79337e-08 -8.68097e-08 0)
(9.2649e-08 -9.5394e-08 0)
(1.08434e-07 -1.03531e-07 0)
(1.25209e-07 -1.11165e-07 0)
(1.42881e-07 -1.18247e-07 0)
(1.61437e-07 -1.24737e-07 0)
(1.80866e-07 -1.30621e-07 0)
(2.00939e-07 -1.35814e-07 0)
(2.21504e-07 -1.40328e-07 0)
(2.42558e-07 -1.4416e-07 0)
(2.64032e-07 -1.47298e-07 0)
(2.85902e-07 -1.49731e-07 0)
(3.08016e-07 -1.51442e-07 0)
(3.30212e-07 -1.52478e-07 0)
(3.52508e-07 -1.52829e-07 0)
(3.74807e-07 -1.52553e-07 0)
(3.96894e-07 -1.51566e-07 0)
(4.1871e-07 -1.49922e-07 0)
(4.40238e-07 -1.47625e-07 0)
(4.61364e-07 -1.44709e-07 0)
(4.82e-07 -1.41202e-07 0)
(5.02074e-07 -1.37118e-07 0)
(5.2156e-07 -1.32474e-07 0)
(5.4038e-07 -1.27299e-07 0)
(5.5835e-07 -1.2163e-07 0)
(5.75425e-07 -1.15488e-07 0)
(5.91596e-07 -1.08878e-07 0)
(6.06782e-07 -1.01851e-07 0)
(6.20927e-07 -9.44466e-08 0)
(6.33986e-07 -8.66924e-08 0)
(6.45958e-07 -7.86161e-08 0)
(6.56804e-07 -7.02501e-08 0)
(6.66372e-07 -6.16353e-08 0)
(6.74641e-07 -5.28008e-08 0)
(6.81646e-07 -4.37617e-08 0)
(2.55557e-10 -2.85542e-09 0)
(1.7756e-09 -1.011e-08 0)
(5.15927e-09 -1.85615e-08 0)
(1.01306e-08 -2.79342e-08 0)
(1.65829e-08 -3.799e-08 0)
(2.45155e-08 -4.84931e-08 0)
(3.38984e-08 -5.92404e-08 0)
(4.47347e-08 -7.00607e-08 0)
(5.6958e-08 -8.07805e-08 0)
(7.04185e-08 -9.12848e-08 0)
(8.51006e-08 -1.01409e-07 0)
(1.0098e-07 -1.11101e-07 0)
(1.17951e-07 -1.20291e-07 0)
(1.35941e-07 -1.28905e-07 0)
(1.54853e-07 -1.36887e-07 0)
(1.74679e-07 -1.44193e-07 0)
(1.95405e-07 -1.50729e-07 0)
(2.16812e-07 -1.56602e-07 0)
(2.38738e-07 -1.61682e-07 0)
(2.61155e-07 -1.65964e-07 0)
(2.8399e-07 -1.69449e-07 0)
(3.07183e-07 -1.72138e-07 0)
(3.30613e-07 -1.74084e-07 0)
(3.54161e-07 -1.75235e-07 0)
(3.77765e-07 -1.75607e-07 0)
(4.0137e-07 -1.75251e-07 0)
(4.24789e-07 -1.7409e-07 0)
(4.47902e-07 -1.72135e-07 0)
(4.70689e-07 -1.69457e-07 0)
(4.93025e-07 -1.6608e-07 0)
(5.14837e-07 -1.62026e-07 0)
(5.36056e-07 -1.5732e-07 0)
(5.56653e-07 -1.51994e-07 0)
(5.7653e-07 -1.46063e-07 0)
(5.95508e-07 -1.39556e-07 0)
(6.13558e-07 -1.32465e-07 0)
(6.30646e-07 -1.24864e-07 0)
(6.46669e-07 -1.16798e-07 0)
(6.61588e-07 -1.08298e-07 0)
(6.7536e-07 -9.94038e-08 0)
(6.8799e-07 -9.01585e-08 0)
(6.99421e-07 -8.0582e-08 0)
(7.09506e-07 -7.0714e-08 0)
(7.18238e-07 -6.05467e-08 0)
(7.2563e-07 -5.01684e-08 0)
(2.86211e-10 -3.70435e-09 0)
(1.98515e-09 -1.26298e-08 0)
(5.71172e-09 -2.27155e-08 0)
(1.11352e-08 -3.37099e-08 0)
(1.81667e-08 -4.53363e-08 0)
(2.67951e-08 -5.73588e-08 0)
(3.69664e-08 -6.95756e-08 0)
(4.86814e-08 -8.18138e-08 0)
(6.18713e-08 -9.39012e-08 0)
(7.63995e-08 -1.05688e-07 0)
(9.21863e-08 -1.17039e-07 0)
(1.09168e-07 -1.27908e-07 0)
(1.273e-07 -1.38194e-07 0)
(1.46504e-07 -1.47821e-07 0)
(1.66668e-07 -1.56741e-07 0)
(1.87825e-07 -1.64922e-07 0)
(2.0982e-07 -1.72204e-07 0)
(2.32468e-07 -1.78759e-07 0)
(2.55734e-07 -1.84411e-07 0)
(2.79484e-07 -1.89164e-07 0)
(3.03648e-07 -1.93028e-07 0)
(3.28151e-07 -1.96e-07 0)
(3.52891e-07 -1.98108e-07 0)
(3.77747e-07 -1.99335e-07 0)
(4.0263e-07 -1.99708e-07 0)
(4.27536e-07 -1.99173e-07 0)
(4.52286e-07 -1.97788e-07 0)
(4.76671e-07 -1.95524e-07 0)
(5.00657e-07 -1.92449e-07 0)
(5.24179e-07 -1.88579e-07 0)
(5.47142e-07 -1.83943e-07 0)
(5.69461e-07 -1.78573e-07 0)
(5.91116e-07 -1.72507e-07 0)
(6.12029e-07 -1.65751e-07 0)
(6.32037e-07 -1.5833e-07 0)
(6.51042e-07 -1.50261e-07 0)
(6.68983e-07 -1.41637e-07 0)
(6.85816e-07 -1.32478e-07 0)
(7.01488e-07 -1.22824e-07 0)
(7.1594e-07 -1.12724e-07 0)
(7.29187e-07 -1.02233e-07 0)
(7.4119e-07 -9.13577e-08 0)
(7.51824e-07 -8.01427e-08 0)
(7.61015e-07 -6.8603e-08 0)
(7.68742e-07 -5.684e-08 0)
(3.19968e-10 -4.62056e-09 0)
(2.17465e-09 -1.53878e-08 0)
(6.20602e-09 -2.73055e-08 0)
(1.20796e-08 -4.00641e-08 0)
(1.97012e-08 -5.33789e-08 0)
(2.90233e-08 -6.70227e-08 0)
(3.99791e-08 -8.07926e-08 0)
(5.25666e-08 -9.45056e-08 0)
(6.67194e-08 -1.08003e-07 0)
(8.22709e-08 -1.21135e-07 0)
(9.91219e-08 -1.33818e-07 0)
(1.17231e-07 -1.4592e-07 0)
(1.36537e-07 -1.57337e-07 0)
(1.56927e-07 -1.68006e-07 0)
(1.78273e-07 -1.77888e-07 0)
(2.00688e-07 -1.86963e-07 0)
(2.2396e-07 -1.95071e-07 0)
(2.47897e-07 -2.023e-07 0)
(2.72507e-07 -2.08524e-07 0)
(2.97582e-07 -2.13747e-07 0)
(3.23059e-07 -2.17971e-07 0)
(3.48861e-07 -2.21201e-07 0)
(3.74884e-07 -2.23452e-07 0)
(4.01009e-07 -2.24737e-07 0)
(4.2721e-07 -2.25067e-07 0)
(4.53401e-07 -2.24342e-07 0)
(4.79372e-07 -2.22726e-07 0)
(5.04987e-07 -2.20173e-07 0)
(5.30179e-07 -2.16687e-07 0)
(5.54865e-07 -2.12299e-07 0)
(5.78948e-07 -2.07048e-07 0)
(6.0235e-07 -2.00969e-07 0)
(6.25065e-07 -1.94089e-07 0)
(6.47003e-07 -1.86429e-07 0)
(6.67974e-07 -1.78044e-07 0)
(6.87878e-07 -1.68996e-07 0)
(7.06673e-07 -1.59304e-07 0)
(7.24309e-07 -1.48999e-07 0)
(7.40711e-07 -1.38132e-07 0)
(7.55825e-07 -1.26758e-07 0)
(7.69691e-07 -1.14926e-07 0)
(7.82261e-07 -1.02654e-07 0)
(7.9338e-07 -9.00182e-08 0)
(8.0298e-07 -7.70824e-08 0)
(8.1106e-07 -6.38736e-08 0)
(3.37375e-10 -5.68649e-09 0)
(2.31664e-09 -1.84943e-08 0)
(6.65308e-09 -3.23746e-08 0)
(1.29879e-08 -4.70015e-08 0)
(2.11899e-08 -6.21129e-08 0)
(3.1197e-08 -7.74817e-08 0)
(4.29375e-08 -9.28992e-08 0)
(5.63922e-08 -1.08173e-07 0)
(7.14794e-08 -1.23168e-07 0)
(8.80097e-08 -1.37727e-07 0)
(1.05903e-07 -1.51766e-07 0)
(1.25131e-07 -1.65143e-07 0)
(1.45599e-07 -1.77756e-07 0)
(1.67175e-07 -1.89526e-07 0)
(1.89715e-07 -2.00396e-07 0)
(2.13382e-07 -2.10329e-07 0)
(2.37927e-07 -2.1922e-07 0)
(2.63134e-07 -2.27088e-07 0)
(2.89056e-07 -2.33892e-07 0)
(3.15441e-07 -2.39607e-07 0)
(3.42221e-07 -2.44219e-07 0)
(3.69309e-07 -2.47729e-07 0)
(3.96598e-07 -2.50147e-07 0)
(4.23973e-07 -2.5148e-07 0)
(4.51458e-07 -2.51725e-07 0)
(4.78896e-07 -2.50839e-07 0)
(5.06056e-07 -2.48981e-07 0)
(5.32886e-07 -2.46091e-07 0)
(5.59274e-07 -2.42173e-07 0)
(5.85117e-07 -2.37248e-07 0)
(6.1032e-07 -2.31349e-07 0)
(6.34802e-07 -2.24514e-07 0)
(6.5856e-07 -2.16768e-07 0)
(6.81483e-07 -2.08187e-07 0)
(7.03365e-07 -1.98803e-07 0)
(7.24142e-07 -1.88698e-07 0)
(7.43783e-07 -1.77875e-07 0)
(7.62209e-07 -1.66373e-07 0)
(7.79342e-07 -1.54239e-07 0)
(7.95122e-07 -1.41524e-07 0)
(8.09599e-07 -1.28277e-07 0)
(8.22704e-07 -1.14567e-07 0)
(8.34267e-07 -1.00451e-07 0)
(8.44261e-07 -8.60081e-08 0)
(8.52687e-07 -7.12632e-08 0)
(3.55211e-10 -6.85797e-09 0)
(2.4618e-09 -2.18642e-08 0)
(7.09819e-09 -3.78251e-08 0)
(1.38765e-08 -5.44428e-08 0)
(2.26401e-08 -7.14617e-08 0)
(3.33176e-08 -8.8655e-08 0)
(4.58327e-08 -1.05812e-07 0)
(6.01322e-08 -1.22738e-07 0)
(7.61355e-08 -1.39315e-07 0)
(9.36438e-08 -1.55359e-07 0)
(1.12561e-07 -1.70787e-07 0)
(1.32881e-07 -1.85476e-07 0)
(1.54492e-07 -1.99311e-07 0)
(1.77252e-07 -2.12206e-07 0)
(2.01e-07 -2.24083e-07 0)
(2.25911e-07 -2.34866e-07 0)
(2.51724e-07 -2.44582e-07 0)
(2.7819e-07 -2.53075e-07 0)
(3.05371e-07 -2.60467e-07 0)
(3.33032e-07 -2.66715e-07 0)
(3.61095e-07 -2.7178e-07 0)
(3.8946e-07 -2.75635e-07 0)
(4.1802e-07 -2.78265e-07 0)
(4.46671e-07 -2.79651e-07 0)
(4.75439e-07 -2.79736e-07 0)
(5.04079e-07 -2.78638e-07 0)
(5.32393e-07 -2.76432e-07 0)
(5.60406e-07 -2.73161e-07 0)
(5.87968e-07 -2.6878e-07 0)
(6.14965e-07 -2.63291e-07 0)
(6.41285e-07 -2.56719e-07 0)
(6.66854e-07 -2.491e-07 0)
(6.91626e-07 -2.40455e-07 0)
(7.15507e-07 -2.30935e-07 0)
(7.38298e-07 -2.20492e-07 0)
(7.59924e-07 -2.09257e-07 0)
(7.80385e-07 -1.97241e-07 0)
(7.99588e-07 -1.8448e-07 0)
(8.17444e-07 -1.7102e-07 0)
(8.33894e-07 -1.5691e-07 0)
(8.4896e-07 -1.42201e-07 0)
(8.62583e-07 -1.27016e-07 0)
(8.74597e-07 -1.11334e-07 0)
(8.84967e-07 -9.52921e-08 0)
(8.93716e-07 -7.8935e-08 0)
(3.76412e-10 -8.09825e-09 0)
(2.61277e-09 -2.54501e-08 0)
(7.54035e-09 -4.36368e-08 0)
(1.47468e-08 -6.23765e-08 0)
(2.40572e-08 -8.14132e-08 0)
(3.539e-08 -1.00528e-07 0)
(4.86648e-08 -1.19515e-07 0)
(6.37912e-08 -1.3818e-07 0)
(8.0696e-08 -1.56399e-07 0)
(9.91714e-08 -1.73991e-07 0)
(1.19096e-07 -1.90869e-07 0)
(1.4049e-07 -2.06905e-07 0)
(1.63232e-07 -2.21979e-07 0)
(1.87172e-07 -2.36005e-07 0)
(2.12163e-07 -2.48889e-07 0)
(2.38277e-07 -2.60554e-07 0)
(2.65352e-07 -2.71218e-07 0)
(2.93088e-07 -2.8043e-07 0)
(3.2143e-07 -2.88402e-07 0)
(3.50295e-07 -2.95108e-07 0)
(3.79603e-07 -3.00517e-07 0)
(4.09248e-07 -3.04611e-07 0)
(4.3912e-07 -3.07377e-07 0)
(4.69147e-07 -3.0879e-07 0)
(4.99219e-07 -3.08803e-07 0)
(5.29049e-07 -3.077e-07 0)
(5.58484e-07 -3.0511e-07 0)
(5.87589e-07 -3.0139e-07 0)
(6.16298e-07 -2.96496e-07 0)
(6.44437e-07 -2.9039e-07 0)
(6.71874e-07 -2.83103e-07 0)
(6.98534e-07 -2.74671e-07 0)
(7.24299e-07 -2.65116e-07 0)
(7.49126e-07 -2.54618e-07 0)
(7.72827e-07 -2.43084e-07 0)
(7.9528e-07 -2.3068e-07 0)
(8.16547e-07 -2.17398e-07 0)
(8.36513e-07 -2.03296e-07 0)
(8.55084e-07 -1.88441e-07 0)
(8.72199e-07 -1.72881e-07 0)
(8.8783e-07 -1.56677e-07 0)
(9.01977e-07 -1.39955e-07 0)
(9.14459e-07 -1.22654e-07 0)
(9.25181e-07 -1.04935e-07 0)
(9.34231e-07 -8.68886e-08 0)
(3.99922e-10 -9.41706e-09 0)
(2.76432e-09 -2.92578e-08 0)
(7.97259e-09 -4.98088e-08 0)
(1.55993e-08 -7.07949e-08 0)
(2.54484e-08 -9.19514e-08 0)
(3.74208e-08 -1.13082e-07 0)
(5.14342e-08 -1.33988e-07 0)
(6.73743e-08 -1.54485e-07 0)
(8.51659e-08 -1.74409e-07 0)
(1.04591e-07 -1.93625e-07 0)
(1.25518e-07 -2.11994e-07 0)
(1.47985e-07 -2.2939e-07 0)
(1.71858e-07 -2.45694e-07 0)
(1.96979e-07 -2.60845e-07 0)
(2.23191e-07 -2.7478e-07 0)
(2.50367e-07 -2.87452e-07 0)
(2.78631e-07 -2.98937e-07 0)
(3.07748e-07 -3.08942e-07 0)
(3.37363e-07 -3.17526e-07 0)
(3.67491e-07 -3.24705e-07 0)
(3.98051e-07 -3.30471e-07 0)
(4.28931e-07 -3.34808e-07 0)
(4.60036e-07 -3.37698e-07 0)
(4.91299e-07 -3.3912e-07 0)
(5.2244e-07 -3.39059e-07 0)
(5.53539e-07 -3.3788e-07 0)
(5.8433e-07 -3.34991e-07 0)
(6.14511e-07 -3.30808e-07 0)
(6.4433e-07 -3.25306e-07 0)
(6.73597e-07 -3.18504e-07 0)
(7.02127e-07 -3.10429e-07 0)
(7.29855e-07 -3.01154e-07 0)
(7.56592e-07 -2.90716e-07 0)
(7.8236e-07 -2.79206e-07 0)
(8.06972e-07 -2.66623e-07 0)
(8.30269e-07 -2.52967e-07 0)
(8.52358e-07 -2.38339e-07 0)
(8.7307e-07 -2.22785e-07 0)
(8.92327e-07 -2.06442e-07 0)
(9.10074e-07 -1.89373e-07 0)
(9.26255e-07 -1.71616e-07 0)
(9.40933e-07 -1.53262e-07 0)
(9.53905e-07 -1.34377e-07 0)
(9.64985e-07 -1.14946e-07 0)
(9.7431e-07 -9.51362e-08 0)
(4.25526e-10 -1.08157e-08 0)
(2.91405e-09 -3.32768e-08 0)
(8.39395e-09 -5.63134e-08 0)
(1.64434e-08 -7.96362e-08 0)
(2.68268e-08 -1.03024e-07 0)
(3.94152e-08 -1.26282e-07 0)
(5.41337e-08 -1.49209e-07 0)
(7.0878e-08 -1.71631e-07 0)
(8.95436e-08 -1.93335e-07 0)
(1.09911e-07 -2.14242e-07 0)
(1.31868e-07 -2.34152e-07 0)
(1.55431e-07 -2.52947e-07 0)
(1.80426e-07 -2.70587e-07 0)
(2.06659e-07 -2.86973e-07 0)
(2.33985e-07 -3.02047e-07 0)
(2.62344e-07 -3.15763e-07 0)
(2.91832e-07 -3.2783e-07 0)
(3.22176e-07 -3.38657e-07 0)
(3.53017e-07 -3.47904e-07 0)
(3.84349e-07 -3.55586e-07 0)
(4.1613e-07 -3.61729e-07 0)
(4.48268e-07 -3.66321e-07 0)
(4.80666e-07 -3.69346e-07 0)
(5.13251e-07 -3.70795e-07 0)
(5.4553e-07 -3.70718e-07 0)
(5.77799e-07 -3.69206e-07 0)
(6.09855e-07 -3.66129e-07 0)
(6.41199e-07 -3.61464e-07 0)
(6.72163e-07 -3.55274e-07 0)
(7.02525e-07 -3.47782e-07 0)
(7.32097e-07 -3.38926e-07 0)
(7.60799e-07 -3.2877e-07 0)
(7.88493e-07 -3.17388e-07 0)
(8.15173e-07 -3.04729e-07 0)
(8.40747e-07 -2.91053e-07 0)
(8.64988e-07 -2.7602e-07 0)
(8.87913e-07 -2.60046e-07 0)
(9.09371e-07 -2.43076e-07 0)
(9.29252e-07 -2.25193e-07 0)
(9.47594e-07 -2.06512e-07 0)
(9.64339e-07 -1.87104e-07 0)
(9.79458e-07 -1.67038e-07 0)
(9.92878e-07 -1.46459e-07 0)
(1.0044e-06 -1.25292e-07 0)
(1.01402e-06 -1.03667e-07 0)
(4.5315e-10 -1.2242e-08 0)
(3.06736e-09 -3.74386e-08 0)
(8.83623e-09 -6.30617e-08 0)
(1.72959e-08 -8.8842e-08 0)
(2.81672e-08 -1.14596e-07 0)
(4.13481e-08 -1.40088e-07 0)
(5.67522e-08 -1.65125e-07 0)
(7.42968e-08 -1.89537e-07 0)
(9.38279e-08 -2.13089e-07 0)
(1.15131e-07 -2.35717e-07 0)
(1.38127e-07 -2.57233e-07 0)
(1.62713e-07 -2.77513e-07 0)
(1.88746e-07 -2.96519e-07 0)
(2.16099e-07 -3.14155e-07 0)
(2.44578e-07 -3.30379e-07 0)
(2.74297e-07 -3.452e-07 0)
(3.04936e-07 -3.58152e-07 0)
(3.36317e-07 -3.69828e-07 0)
(3.68488e-07 -3.79704e-07 0)
(4.01109e-07 -3.87822e-07 0)
(4.34128e-07 -3.94239e-07 0)
(4.67484e-07 -3.98984e-07 0)
(5.01084e-07 -4.02078e-07 0)
(5.348e-07 -4.03584e-07 0)
(5.68258e-07 -4.0356e-07 0)
(6.01718e-07 -4.01508e-07 0)
(6.35033e-07 -3.98148e-07 0)
(6.67714e-07 -3.93083e-07 0)
(6.99761e-07 -3.86358e-07 0)
(7.31115e-07 -3.78106e-07 0)
(7.6175e-07 -3.68417e-07 0)
(7.91467e-07 -3.57368e-07 0)
(8.20193e-07 -3.44977e-07 0)
(8.47767e-07 -3.31042e-07 0)
(8.7429e-07 -3.16053e-07 0)
(8.99448e-07 -2.99869e-07 0)
(9.23066e-07 -2.82517e-07 0)
(9.45304e-07 -2.64048e-07 0)
(9.65919e-07 -2.44565e-07 0)
(9.84868e-07 -2.24202e-07 0)
(1.00214e-06 -2.03089e-07 0)
(1.01772e-06 -1.813e-07 0)
(1.03156e-06 -1.58847e-07 0)
(1.04347e-06 -1.35866e-07 0)
(1.05341e-06 -1.12373e-07 0)
(4.72212e-10 -1.37102e-08 0)
(3.22295e-09 -4.17714e-08 0)
(9.27648e-09 -7.01279e-08 0)
(1.81074e-08 -9.85393e-08 0)
(2.94614e-08 -1.26776e-07 0)
(4.32401e-08 -1.54598e-07 0)
(5.93216e-08 -1.81818e-07 0)
(7.76612e-08 -2.08257e-07 0)
(9.80637e-08 -2.3374e-07 0)
(1.2028e-07 -2.58134e-07 0)
(1.44275e-07 -2.81327e-07 0)
(1.69926e-07 -3.03196e-07 0)
(1.97047e-07 -3.23609e-07 0)
(2.2546e-07 -3.42509e-07 0)
(2.54926e-07 -3.59881e-07 0)
(2.85823e-07 -3.75759e-07 0)
(3.17672e-07 -3.89769e-07 0)
(3.50266e-07 -4.02169e-07 0)
(3.83808e-07 -4.12655e-07 0)
(4.17719e-07 -4.21263e-07 0)
(4.51974e-07 -4.28058e-07 0)
(4.86528e-07 -4.33056e-07 0)
(5.21254e-07 -4.36272e-07 0)
(5.56049e-07 -4.37764e-07 0)
(5.90985e-07 -4.3757e-07 0)
(6.25698e-07 -4.35132e-07 0)
(6.59891e-07 -4.31383e-07 0)
(6.93743e-07 -4.25842e-07 0)
(7.27059e-07 -4.18576e-07 0)