/*--------------------------------*- C++ -*----------------------------------*\
  =========                 |
  \\      /  F ield         | OpenFOAM: The Open Source CFD Toolbox
   \\    /   O peration     | Website:  https://openfoam.org
    \\  /    A nd           | Version:  9
     \\/     M anipulation  |
\*---------------------------------------------------------------------------*/
FoamFile
{
    format      ascii;
    class       surfaceScalarField;
    location    "31.2";
    object      phi;
}
// * * * * * * * * * * * * * * * * * * * * * * * * * * * * * * * * * * * * * //

dimensions      [0 3 -1 0 0 0 0];

internalField   nonuniform List<scalar> 
16735
(
-0.00299474
0.00299477
-2.76182e-08
-0.00899299
0.00599831
-5.25302e-08
-0.0168732
0.00788023
-6.52137e-08
-0.0259108
0.00903776
-7.26191e-08
-0.0359995
0.0100887
-7.95695e-08
-0.0465608
0.0105614
-8.47557e-08
-0.0586901
0.0121294
-8.73485e-08
-0.0696958
0.0110058
-7.9401e-08
-0.0845061
0.0148104
-5.69428e-08
0.0111772
-9.10337e-09
-0.0956833
-0.00294329
0.00593806
-0.00884574
0.0119007
-0.0165888
0.0156233
-0.0254391
0.0178881
-0.0352768
0.0199263
-0.0454916
0.0207762
-0.0571729
0.0238108
-0.0675294
0.0213623
-0.081617
0.028898
0.0210893
-0.0915292
-0.00284261
0.00878067
-0.00855634
0.0176145
-0.0160283
0.0230953
-0.0245071
0.0263669
-0.033844
0.0292632
-0.0433723
0.0303045
-0.0541492
0.0345877
-0.0632192
0.0304323
-0.0758745
0.0415533
0.0285232
-0.0833083
-0.00269701
0.0114777
-0.00813482
0.0230523
-0.0152077
0.0301681
-0.0231374
0.0342966
-0.0317263
0.0378522
-0.0402403
0.0388184
-0.0496381
0.0439856
-0.0568016
0.0375958
-0.0673271
0.0520787
0.0323607
-0.0711647
-0.00251274
0.0139904
-0.00759572
0.0281353
-0.0141504
0.0367227
-0.0213626
0.0415089
-0.0289606
0.0454502
-0.0361499
0.0460077
-0.0436653
0.051501
-0.0483137
0.0422441
-0.055991
0.0597561
0.0316069
-0.0552372
-0.0022977
0.0162881
-0.00695744
0.032795
-0.0128847
0.0426499
-0.0192244
0.0478486
-0.0255938
0.0518196
-0.0311704
0.0515843
-0.0362596
0.0565902
-0.0377861
0.0437705
-0.041782
0.063752
0.025382
-0.0355571
-0.00206108
0.0183492
-0.00624148
0.0369754
-0.0114441
0.0478526
-0.0167704
0.0531749
-0.0216798
0.056729
-0.0253809
0.0552854
-0.0274491
0.0586584
-0.0252557
0.0415771
-0.0244342
0.0629305
0.0129193
-0.0119714
-0.00181295
0.0201622
-0.00547135
0.0406338
-0.00986556
0.0522468
-0.014051
0.0573604
-0.0172733
0.0599512
-0.0188601
0.0568722
-0.0172457
0.057044
-0.0108236
0.035155
-0.00332684
0.0554337
-0.00711057
0.016703
-0.00156369
0.0217258
-0.00467123
0.0437413
-0.00818672
0.0557623
-0.0111142
0.0602879
-0.0124209
0.0612579
-0.0116682
0.0561195
-0.00557487
0.0509507
0.00561948
0.0239607
0.0208419
0.0402113
-0.0378014
0.0515327
-0.00132344
0.0230493
-0.00386438
0.0462823
-0.00644311
0.058341
-0.00799914
0.0618439
-0.00714582
0.0604046
-0.00384108
0.0528148
0.00728221
0.0398274
0.0244937
0.00674916
0.0493441
0.0153609
-0.0816007
0.0931434
-0.00110139
0.0241507
-0.00307134
0.0482522
-0.00466473
0.0599344
-0.00473073
0.0619099
-0.00140157
0.0570754
0.0049623
0.0464509
0.021588
0.0232017
0.0452875
-0.0169504
0.0824036
-0.0217552
-0.141062
0.141865
-0.000905116
0.0250558
-0.00230773
0.0496548
-0.00287122
0.0604979
-0.00132362
0.0603623
0.00463659
0.0511152
0.0149478
0.0361397
0.0379587
0.000190755
0.0688832
-0.0478748
0.120273
-0.0731451
-0.217371
0.196581
-0.000739868
0.0257957
-0.00158212
0.0504971
-0.00106258
0.0599783
0.00232783
0.0569719
0.0112487
0.0421944
0.0263297
0.0210587
0.0567257
-0.0302052
0.0966397
-0.0877887
0.163282
-0.139788
-0.308516
0.254427
-0.000608118
0.0264038
-0.000894348
0.0507833
0.000764317
0.0583197
0.00624725
0.051489
0.0186292
0.0298124
0.0396668
2.1019e-05
0.0782482
-0.0687866
0.129618
-0.139158
0.211011
-0.221181
-0.408751
0.311246
-0.000510196
0.026914
-0.000231705
0.0505048
0.00264855
0.0554394
0.0105244
0.0436131
0.027014
0.0133228
0.055469
-0.028434
0.102893
-0.11621
0.16742
-0.203686
0.260977
-0.314738
-0.510329
0.362556
-0.000436903
0.0273509
0.000424539
0.0496434
0.004688
0.0511759
0.0153539
0.0329473
0.0367427
-0.008066
0.0740406
-0.0657319
0.130874
-0.173044
0.207939
-0.280751
0.308544
-0.415343
-0.606404
0.404619
-0.000377289
0.0277282
0.0011156
0.0481505
0.00698557
0.045306
0.0209951
0.0189377
0.0482675
-0.0353383
0.095363
-0.112827
0.161665
-0.239346
0.24797
-0.367056
0.348783
-0.516156
-0.692854
0.435233
-0.000318949
0.0280471
0.00189318
0.0459384
0.00967747
0.0375217
0.0277555
0.000859706
0.0620272
-0.0696101
0.119051
-0.169852
0.193535
-0.31383
0.283982
-0.457502
0.378564
-0.610738
-0.768294
0.454004
-0.00024502
0.0282921
0.00281717
0.0428762
0.012924
0.0274149
0.0359429
-0.0221592
0.0782093
-0.111876
0.144197
-0.235839
0.223916
-0.393549
0.31304
-0.546627
0.397191
-0.694889
-0.833274
0.46217
-0.000135222
0.0284274
0.00395405
0.0387869
0.0169018
0.0144671
0.0457954
-0.0510529
0.0965049
-0.162586
0.169266
-0.3086
0.250328
-0.47461
0.333613
-0.629912
0.405732
-0.767008
-0.889883
0.462341
3.17818e-05
0.0283956
0.00537427
0.0334444
0.0217912
-0.00194984
0.057383
-0.0866446
0.116027
-0.22123
0.192395
-0.384969
0.271065
-0.553281
0.345678
-0.704525
0.407203
-0.828533
-0.945777
0.463097
0.000249972
0.0281456
0.00715235
0.0265421
0.0277503
-0.0225478
0.0704973
-0.129392
0.135459
-0.286192
0.211964
-0.461474
0.28541
-0.626726
0.350378
-0.769493
0.405197
-0.883352
-0.994271
0.453691
0.00055736
0.0275882
0.00936595
0.0177335
0.0348634
-0.0480453
0.0845949
-0.179123
0.153384
-0.354981
0.227001
-0.535091
0.293545
-0.69327
0.349904
-0.825852
0.397502
-0.93095
-1.03546
0.438694
0.000964267
0.026624
0.0120923
0.00660541
0.043074
-0.079027
0.0988537
-0.234903
0.168634
-0.424761
0.237228
-0.603686
0.296338
-0.752379
0.344937
-0.874451
0.386426
-0.972438
-1.07235
0.42331
0.00148206
0.0251419
0.0153982
-0.00731069
0.0521419
-0.115771
0.112338
-0.295099
0.180512
-0.492935
0.242905
-0.66608
0.294677
-0.804151
0.33665
-0.916424
0.373122
-1.00891
-1.10523
0.406007
0.00212471
0.0230172
0.0193134
-0.0244994
0.0616614
-0.158119
0.124201
-0.357638
0.188796
-0.557529
0.244538
-0.721823
0.289511
-0.849124
0.325882
-0.952795
0.35812
-1.04115
-1.13503
0.387922
0.00291374
0.0201035
0.0237995
-0.0453851
0.0711215
-0.205441
0.133849
-0.420366
0.193604
-0.617284
0.24275
-0.770968
0.281638
-0.888012
0.313301
-0.984458
0.342041
-1.06989
-1.16215
0.369155
0.00388205
0.0162214
0.0287374
-0.0702405
0.0799752
-0.256678
0.140996
-0.481386
0.195256
-0.671544
0.238159
-0.813872
0.27172
-0.921573
0.299425
-1.01216
0.325163
-1.09563
-1.18686
0.349876
0.00506986
0.0111516
0.0339422
-0.0991128
0.0877235
-0.31046
0.145616
-0.539279
0.194159
-0.720087
0.231335
-0.851048
0.260284
-0.950522
0.284623
-1.0365
0.307733
-1.11874
-1.20936
0.330233
0.00650836
0.0046432
0.0391956
-0.1318
0.0940092
-0.365273
0.147852
-0.593121
0.190745
-0.76298
0.222764
-0.883067
0.247734
-0.975493
0.269166
-1.05793
0.289898
-1.13947
-1.22974
0.310276
0.00819717
-0.00355397
0.0442751
-0.167878
0.0986568
-0.419655
0.147931
-0.642395
0.185424
-0.800473
0.212853
-0.910497
0.23438
-0.997019
0.253244
-1.0768
0.271764
-1.15799
-1.24805
0.290078
0.0100917
-0.0136457
0.0489644
-0.206751
0.10164
-0.47233
0.146119
-0.686875
0.178566
-0.83292
0.201934
-0.933864
0.220449
-1.01553
0.236992
-1.09334
0.253406
-1.1744
-1.26432
0.269675
0.0121116
-0.0257572
0.0530603
-0.2477
0.103029
-0.522299
0.142685
-0.72653
0.170492
-0.860728
0.190266
-0.953638
0.206114
-1.03138
0.220509
-1.10774
0.234878
-1.18877
-1.27855
0.249108
0.0141613
-0.0399185
0.0563917
-0.28993
0.10295
-0.568858
0.137885
-0.761465
0.161471
-0.884314
0.178056
-0.970223
0.191498
-1.04482
0.203862
-1.1201
0.216224
-1.20113
-1.29074
0.228411
0.0161536
-0.0560721
0.0588407
-0.332617
0.101556
-0.611573
0.131958
-0.791866
0.151722
-0.904079
0.165461
-0.983962
0.176695
-1.05606
0.187102
-1.13051
0.19748
-1.21151
-1.30088
0.207618
0.0180173
-0.0740894
0.0603519
-0.374952
0.099011
-0.650232
0.125116
-0.817971
0.141428
-0.920391
0.152603
-0.995137
0.161774
-1.06523
0.170274
-1.13901
0.178678
-1.21992
-1.30896
0.186761
0.0196942
-0.0937836
0.0609259
-0.416183
0.0954762
-0.684783
0.117549
-0.840044
0.130737
-0.933578
0.139576
-1.00398
0.146789
-1.07244
0.153412
-1.14563
0.159849
-1.22635
-1.31498
0.165873
0.0211313
-0.114915
0.0606024
-0.455655
0.091104
-0.715284
0.10942
-0.85836
0.11977
-0.943929
0.126452
-1.01066
0.131782
-1.07777
0.136548
-1.1504
0.141022
-1.23083
-1.31895
0.144987
0.0222783
-0.137193
0.0594395
-0.492816
0.0860329
-0.741878
0.100867
-0.873195
0.108625
-0.951687
0.113288
-1.01532
0.116789
-1.08127
0.119709
-1.15332
0.122225
-1.23334
-1.32086
0.124138
0.0230922
-0.160285
0.0575241
-0.527248
0.0803891
-0.764743
0.0920079
-0.884814
0.0973789
-0.957058
0.10013
-1.01807
0.101837
-1.08298
0.102921
-1.1544
0.103486
-1.23391
-1.32074
0.103367
0.0235442
-0.18383
0.0550353
-0.558739
0.074291
-0.783998
0.0829371
-0.89346
0.0860946
-0.960215
0.0870126
-1.01899
0.0869535
-1.08292
0.0862054
-1.15365
0.0848348
-1.23254
-1.31863
0.0827282
0.0236227
-0.207452
0.0520387
-0.587155
0.0678429
-0.799803
0.0737337
-0.89935
0.0748213
-0.961303
0.0739674
-1.01814
0.0721613
-1.08111
0.0695867
-1.15108
0.0662919
-1.22924
-1.31453
0.0621858
0.0233329
-0.230785
0.0486059
-0.612428
0.0611352
-0.812332
0.0644643
-0.902679
0.0635989
-0.960437
0.0610196
-1.01556
0.0574823
-1.07758
0.0530906
-1.14669
0.0478752
-1.22403
-1.30841
0.0417574
0.0226961
-0.253481
0.0448108
-0.634543
0.0542476
-0.821769
0.0551832
-0.903615
0.0524594
-0.957714
0.0481916
-1.01129
0.0429365
-1.07232
0.0367426
-1.14049
0.0296291
-1.21691
-1.30025
0.0214687
0.0217457
-0.275227
0.0407237
-0.653521
0.0472311
-0.828276
0.0459342
-0.902318
0.0414297
-0.953209
0.0355036
-1.00536
0.0285427
-1.06536
0.0205565
-1.13251
0.0116173
-1.20797
-1.28989
0.00125961
0.0205224
-0.295749
0.0364102
-0.669408
0.040143
-0.832009
0.0367535
-0.898929
0.0305325
-0.946988
0.0229728
-0.997803
0.014319
-1.05671
0.00450923
-1.1227
-0.0061489
-1.19732
-1.27756
-0.0184834
0.0190698
-0.314819
0.0319308
-0.682269
0.0330366
-0.833115
0.0276722
-0.893564
0.019786
-0.939102
0.0106093
-0.988626
0.000248663
-1.04635
-0.0111974
-1.11125
-0.0237961
-1.18472
-1.2634
-0.0379578
0.0174304
-0.332249
0.0273397
-0.692179
0.0259552
-0.83173
0.0187165
-0.886326
0.00919658
-0.929582
-0.00158341
-0.977846
-0.0134867
-1.03444
-0.0266513
-1.09808
-0.0411453
-1.17022
-1.24738
-0.0571647
0.0156441
-0.347894
0.0226854
-0.69922
0.0189352
-0.82798
0.00990706
-0.877297
-0.00124684
-0.918428
-0.0134561
-0.965637
-0.0270228
-1.02088
-0.0418748
-1.08323
-0.058199
-1.1539
-1.22952
-0.0760581
0.0137476
-0.361641
0.0180102
-0.703482
0.0120042
-0.821974
0.0012353
-0.866528
-0.0113136
-0.905879
-0.0251411
-0.951809
-0.0403114
-1.00571
-0.0568335
-1.06671
-0.074938
-1.1358
-1.20984
-0.0946187
0.0117744
-0.373416
0.0133512
-0.705059
0.00517315
-0.813796
-0.00715183
-0.854204
-0.0212182
-0.891813
-0.0365923
-0.936435
-0.0533356
-0.988963
-0.0715026
-1.04854
-0.0913468
-1.11595
-1.18837
-0.112817
0.00975452
-0.38317
0.00874359
-0.704048
-0.00153095
-0.803522
-0.0153641
-0.84037
-0.0309054
-0.876271
-0.0477914
-0.919549
-0.0660792
-0.970675
-0.0858608
-1.02876
-0.107407
-1.09441
-1.16514
-0.130634
0.00771309
-0.390883
0.00422738
-0.700563
-0.00791995
-0.791374
-0.0233741
-0.824916
-0.0403577
-0.859288
-0.0587239
-0.901183
-0.078527
-0.950872
-0.0998897
-1.0074
-0.1231
-1.07119
-1.14019
-0.148046
0.00566889
-0.396552
-9.8376e-05
-0.694795
-0.0141783
-0.777294
-0.031167
-0.807928
-0.0495646
-0.84089
-0.0693775
-0.88137
-0.0906642
-0.929585
-0.113573
-0.984491
-0.138411
-1.04636
-1.11357
-0.165031
0.00364011
-0.400192
-0.00465713
-0.686498
-0.0202747
-0.761677
-0.0387285
-0.789474
-0.0585145
-0.821104
-0.0797405
-0.860144
-0.102477
-0.906849
-0.126895
-0.960073
-0.153323
-1.01993
-1.08533
-0.181564
0.0016631
-0.401855
-0.00895953
-0.675876
-0.0261907
-0.744446
-0.0460494
-0.769615
-0.0671971
-0.799956
-0.0898014
-0.83754
-0.113952
-0.882699
-0.139843
-0.934182
-0.167817
-0.991954
-1.05553
-0.197617
-0.000226906
-0.401628
-0.0130941
-0.663008
-0.0319167
-0.725623
-0.0531251
-0.748407
-0.0756026
-0.777479
-0.0995495
-0.813593
-0.125077
-0.857171
-0.152406
-0.906852
-0.181878
-0.962483
-1.02421
-0.213197
-0.00235407
-0.399274
-0.0170774
-0.648285
-0.0374399
-0.70526
-0.0599495
-0.725897
-0.0837218
-0.753707
-0.108974
-0.788341
-0.135843
-0.830302
-0.164585
-0.87811
-0.195498
-0.93157
-0.991443
-0.228269
-0.00433324
-0.394941
-0.0209079
-0.63171
-0.0427488
-0.68342
-0.066517
-0.702129
-0.0915462
-0.728677
-0.118065
-0.761822
-0.146242
-0.802124
-0.176373
-0.847979
-0.208631
-0.899312
-0.957476
-0.242597
-0.00622587
-0.388715
-0.0245827
-0.613354
-0.0478373
-0.660165
-0.0728219
-0.677144
-0.0990679
-0.702432
-0.126813
-0.734078
-0.156264
-0.772673
-0.187725
-0.816518
-0.221288
-0.86575
-0.922712
-0.256052
-0.00803827
-0.380677
-0.0280984
-0.593293
-0.0527007
-0.635563
-0.078859
-0.650986
-0.106279
-0.675011
-0.13521
-0.705147
-0.165892
-0.741991
-0.198586
-0.783824
-0.232999
-0.831337
-0.885753
-0.269958
-0.00977075
-0.370906
-0.031452
-0.571612
-0.0573356
-0.609679
-0.0846234
-0.623698
-0.113174
-0.64646
-0.143248
-0.675074
-0.175104
-0.710134
-0.208917
-0.750012
-0.24459
-0.795663
-0.847206
-0.283137
-0.0114219
-0.359484
-0.0346405
-0.548393
-0.061739
-0.582581
-0.0901104
-0.595327
-0.119746
-0.616824
-0.150918
-0.643902
-0.183901
-0.677151
-0.218857
-0.715056
-0.255907
-0.758613
-0.807323
-0.295791
-0.0129899
-0.346494
-0.0376611
-0.523722
-0.0659086
-0.554333
-0.0953158
-0.56592
-0.125989
-0.586151
-0.15821
-0.611681
-0.192259
-0.643102
-0.228301
-0.679015
-0.266573
-0.720341
-0.766174
-0.307721
-0.0144723
-0.332022
-0.0405113
-0.497683
-0.0698421
-0.525002
-0.100236
-0.535526
-0.131896
-0.554491
-0.165116
-0.578461
-0.200183
-0.608035
-0.237284
-0.641914
-0.276712
-0.680913
-0.723881
-0.319006
-0.0158671
-0.316155
-0.0431891
-0.470361
-0.0735377
-0.494654
-0.104866
-0.504197
-0.137463
-0.521894
-0.171627
-0.544297
-0.207657
-0.572004
-0.245762
-0.603809
-0.286266
-0.640408
-0.680514
-0.329633
-0.0171716
-0.298983
-0.0456927
-0.44184
-0.0769933
-0.463353
-0.109204
-0.471987
-0.142683
-0.488415
-0.177738
-0.509242
-0.214677
-0.535065
-0.253731
-0.564755
-0.295241
-0.598898
-0.636147
-0.339608
-0.018383
-0.2806
-0.0480204
-0.412203
-0.0802073
-0.431166
-0.113245
-0.438948
-0.147551
-0.454109
-0.183441
-0.473352
-0.221232
-0.497274
-0.261176
-0.524812
-0.303622
-0.556452
-0.590845
-0.348923
-0.0194972
-0.261103
-0.0501707
-0.381529
-0.0831781
-0.398159
-0.116988
-0.405139
-0.152064
-0.419033
-0.188729
-0.436687
-0.227315
-0.458688
-0.268086
-0.484041
-0.311399
-0.513139
-0.544676
-0.357568
-0.0205076
-0.240596
-0.0521417
-0.349895
-0.0859048
-0.364396
-0.120428
-0.370616
-0.156215
-0.383246
-0.193598
-0.399304
-0.232917
-0.419368
-0.274453
-0.442506
-0.318563
-0.469029
-0.497706
-0.365532
-0.0213997
-0.219196
-0.0539324
-0.317363
-0.088387
-0.329941
-0.123563
-0.33544
-0.160002
-0.346807
-0.19804
-0.361267
-0.238032
-0.379376
-0.280267
-0.400271
-0.325104
-0.424193
-0.450006
-0.372804
-0.0222184
-0.196977
-0.0555448
-0.284036
-0.0906242
-0.294862
-0.126392
-0.299671
-0.163421
-0.309778
-0.202052
-0.322636
-0.242653
-0.338775
-0.285521
-0.357403
-0.331013
-0.378701
-0.401646
-0.379373
-0.0229635
-0.174014
-0.0569799
-0.25002
-0.0926157
-0.259226
-0.128912
-0.263375
-0.166468
-0.272221
-0.205629
-0.283475
-0.246775
-0.297629
-0.290208
-0.31397
-0.336283
-0.332627
-0.3527
-0.385228
-0.0236227
-0.150391
-0.058237
-0.215405
-0.0943606
-0.223102
-0.13112
-0.226616
-0.169141
-0.234201
-0.208767
-0.243849
-0.250392
-0.256004
-0.294323
-0.270039
-0.340905
-0.286044
-0.303244
-0.390362
-0.0241914
-0.1262
-0.0593157
-0.180281
-0.0958581
-0.18656
-0.133016
-0.189458
-0.171436
-0.195781
-0.211463
-0.203822
-0.253499
-0.213968
-0.297857
-0.225682
-0.344875
-0.239025
-0.253352
-0.394767
-0.0246671
-0.101533
-0.0602154
-0.144733
-0.0971073
-0.149668
-0.134598
-0.151967
-0.173352
-0.157027
-0.213714
-0.16346
-0.256094
-0.171587
-0.300806
-0.18097
-0.348185
-0.191646
-0.203101
-0.398437
-0.0250486
-0.0764841
-0.0609357
-0.108846
-0.0981075
-0.112496
-0.135865
-0.114209
-0.174887
-0.118005
-0.215517
-0.122831
-0.258173
-0.128932
-0.303168
-0.135974
-0.350832
-0.143981
-0.152565
-0.401368
-0.0253353
-0.0511489
-0.0614762
-0.0727048
-0.0988581
-0.0751143
-0.136816
-0.076251
-0.176039
-0.078782
-0.216871
-0.0819991
-0.259733
-0.0860694
-0.30494
-0.0907671
-0.352817
-0.0961045
-0.101822
-0.403561
-0.0255266
-0.0256223
-0.0618367
-0.0363947
-0.0993587
-0.0375922
-0.137451
-0.038159
-0.176808
-0.0394246
-0.217774
-0.0410332
-0.260774
-0.0430691
-0.306123
-0.0454188
-0.35414
-0.0480872
-0.0509437
-0.405018
-0.0256223
-5.241e-09
-0.062017
-7.19153e-09
-0.0996091
-7.05338e-09
-0.137768
-6.72076e-09
-0.177193
-6.4464e-09
-0.218226
-6.18548e-09
-0.261295
-5.95232e-09
-0.306714
-5.73612e-09
-0.354801
-5.53365e-09
-5.32142e-09
-0.405745
-0.0256223
0.0256223
-0.062017
0.0363947
-0.0996091
0.0375922
-0.137768
0.038159
-0.177193
0.0394246
-0.218226
0.0410332
-0.261295
0.0430691
-0.306714
0.0454188
-0.354801
0.0480872
0.0509436
-0.405745
-0.0255266
0.0511489
-0.0618367
0.0727048
-0.0993587
0.0751142
-0.137451
0.076251
-0.176808
0.078782
-0.217774
0.0819991
-0.260774
0.0860694
-0.306123
0.0907671
-0.35414
0.0961045
0.101822
-0.405018
-0.0253353
0.0764841
-0.0614762
0.108846
-0.0988581
0.112496
-0.136816
0.114209
-0.176039
0.118005
-0.216871
0.122831
-0.259733
0.128932
-0.30494
0.135974
-0.352817
0.143981
0.152565
-0.403561
-0.0250486
0.101533
-0.0609357
0.144733
-0.0981075
0.149668
-0.135865
0.151967
-0.174887
0.157027
-0.215517
0.16346
-0.258173
0.171587
-0.303168
0.18097
-0.350832
0.191646
0.203101
-0.401368
-0.0246671
0.1262
-0.0602154
0.180281
-0.0971073
0.18656
-0.134598
0.189458
-0.173352
0.195781
-0.213714
0.203822
-0.256094
0.213968
-0.300806
0.225682
-0.348185
0.239025
0.253352
-0.398437
-0.0241914
0.150391
-0.0593157
0.215405
-0.0958581
0.223102
-0.133016
0.226616
-0.171436
0.234201
-0.211463
0.243849
-0.253499
0.256004
-0.297857
0.270039
-0.344875
0.286044
0.303244
-0.394767
-0.0236227
0.174014
-0.058237
0.25002
-0.0943606
0.259226
-0.13112
0.263375
-0.169141
0.272221
-0.208767
0.283475
-0.250392
0.297629
-0.294323
0.31397
-0.340905
0.332627
0.3527
-0.390362
-0.0229635
0.196977
-0.0569799
0.284036
-0.0926157
0.294862
-0.128912
0.299671
-0.166468
0.309778
-0.205629
0.322636
-0.246775
0.338775
-0.290208
0.357403
-0.336283
0.378701
0.401646
-0.385228
-0.0222184
0.219196
-0.0555448
0.317363
-0.0906242
0.329941
-0.126392
0.335439
-0.163421
0.346807
-0.202052
0.361267
-0.242653
0.379376
-0.285521
0.400271
-0.331013
0.424193
0.450006
-0.379373
-0.0213997
0.240596
-0.0539324
0.349895
-0.088387
0.364396
-0.123563
0.370616
-0.160002
0.383246
-0.19804
0.399304
-0.238032
0.419368
-0.280267
0.442506
-0.325104
0.469029
0.497706
-0.372804
-0.0205076
0.261103
-0.0521417
0.381529
-0.0859048
0.398159
-0.120428
0.405139
-0.156215
0.419033
-0.193598
0.436687
-0.232917
0.458688
-0.274453
0.484041
-0.318563
0.513139
0.544676
-0.365532
-0.0194972
0.2806
-0.0501707
0.412203
-0.0831781
0.431166
-0.116988
0.438948
-0.152064
0.454109
-0.188729
0.473352
-0.227315
0.497274
-0.268086
0.524812
-0.311399
0.556452
0.590845
-0.357568
-0.018383
0.298983
-0.0480204
0.44184
-0.0802073
0.463353
-0.113245
0.471987
-0.147551
0.488415
-0.183441
0.509242
-0.221232
0.535065
-0.261176
0.564755
-0.303622
0.598898
0.636147
-0.348923
-0.0171716
0.316155
-0.0456927
0.470361
-0.0769933
0.494654
-0.109204
0.504197
-0.142683
0.521894
-0.177738
0.544297
-0.214677
0.572004
-0.253731
0.603809
-0.295241
0.640408
0.680514
-0.339608
-0.0158671
0.332022
-0.0431891
0.497683
-0.0735377
0.525002
-0.104866
0.535526
-0.137463
0.554491
-0.171627
0.578461
-0.207657
0.608034
-0.245762
0.641914
-0.286266
0.680912
0.723881
-0.329633
-0.0144723
0.346494
-0.0405113
0.523722
-0.0698421
0.554333
-0.100236
0.565919
-0.131896
0.586151
-0.165116
0.611681
-0.200183
0.643102
-0.237284
0.679015
-0.276712
0.720341
0.766174
-0.319006
-0.0129899
0.359484
-0.0376611
0.548393
-0.0659086
0.582581
-0.0953158
0.595327
-0.125989
0.616824
-0.15821
0.643902
-0.192259
0.677151
-0.228301
0.715056
-0.266573
0.758613
0.807323
-0.307721
-0.0114219
0.370906
-0.0346405
0.571612
-0.061739
0.609679
-0.0901104
0.623698
-0.119746
0.64646
-0.150918
0.675074
-0.183901
0.710134
-0.218857
0.750012
-0.255907
0.795663
0.847206
-0.295791
-0.00977075
0.380677
-0.031452
0.593293
-0.0573356
0.635563
-0.0846234
0.650986
-0.113174
0.675011
-0.143248
0.705147
-0.175104
0.741991
-0.208917
0.783824
-0.24459
0.831337
0.885753
-0.283137
-0.00803827
0.388715
-0.0280984
0.613353
-0.0527007
0.660165
-0.078859
0.677144
-0.106279
0.702432
-0.13521
0.734078
-0.165892
0.772673
-0.198586
0.816518
-0.232999
0.86575
0.922712
-0.269958
-0.00622587
0.394941
-0.0245827
0.63171
-0.0478373
0.68342
-0.0728219
0.702129
-0.0990679
0.728677
-0.126813
0.761822
-0.156264
0.802124
-0.187725
0.847979
-0.221288
0.899312
0.957476
-0.256052
-0.00433324
0.399274
-0.0209079
0.648285
-0.0427488
0.70526
-0.066517
0.725897
-0.0915462
0.753707
-0.118065
0.788341
-0.146242
0.830302
-0.176373
0.87811
-0.208631
0.93157
0.991442
-0.242597
-0.00235407
0.401628
-0.0170774
0.663008
-0.0374399
0.725623
-0.0599495
0.748407
-0.0837218
0.777479
-0.108974
0.813593
-0.135843
0.857171
-0.164585
0.906852
-0.195498
0.962483
1.02421
-0.228269
-0.000226906
0.401855
-0.0130941
0.675876
-0.0319167
0.744446
-0.0531251
0.769615
-0.0756026
0.799956
-0.0995495
0.83754
-0.125077
0.882699
-0.152406
0.934181
-0.181878
0.991954
1.05553
-0.213197
0.0016631
0.400192
-0.00895953
0.686498
-0.0261907
0.761677
-0.0460494
0.789474
-0.0671971
0.821104
-0.0898014
0.860144
-0.113952
0.906849
-0.139843
0.960073
-0.167817
1.01993
1.08533
-0.197617
0.00364011
0.396552
-0.00465713
0.694795
-0.0202747
0.777294
-0.0387285
0.807928
-0.0585145
0.84089
-0.0797405
0.88137
-0.102477
0.929585
-0.126895
0.984491
-0.153323
1.04636
1.11357
-0.181564
0.00566889
0.390883
-9.83759e-05
0.700563
-0.0141783
0.791374
-0.031167
0.824916
-0.0495646
0.859288
-0.0693775
0.901183
-0.0906642
0.950872
-0.113573
1.0074
-0.138411
1.07119
1.14019
-0.165031
0.00771309
0.38317
0.00422738
0.704048
-0.00791995
0.803521
-0.0233741
0.84037
-0.0403577
0.876271
-0.0587239
0.919549
-0.078527
0.970675
-0.0998897
1.02876
-0.1231
1.09441
1.16514
-0.148046
0.00975452
0.373416
0.00874359
0.705059
-0.00153095
0.813796
-0.0153641
0.854203
-0.0309054
0.891813
-0.0477914
0.936435
-0.0660792
0.988963
-0.0858608
1.04854
-0.107407
1.11595
1.18837
-0.130634
0.0117744
0.361641
0.0133512
0.703482
0.00517315
0.821974
-0.00715183
0.866528
-0.0212182
0.905879
-0.0365923
0.951809
-0.0533356
1.00571
-0.0715026
1.06671
-0.0913468
1.1358
1.20984
-0.112817
0.0137476
0.347894
0.0180102
0.69922
0.0120042
0.82798
0.0012353
0.877297
-0.0113136
0.918428
-0.0251411
0.965637
-0.0403114
1.02088
-0.0568335
1.08323
-0.074938
1.1539
1.22952
-0.0946187
0.0156441
0.332249
0.0226854
0.692179
0.0189352
0.83173
0.00990706
0.886326
-0.00124684
0.929582
-0.0134561
0.977846
-0.0270228
1.03444
-0.0418748
1.09808
-0.058199
1.17022
1.24738
-0.0760581
0.0174304
0.314819
0.0273397
0.682269
0.0259552
0.833115
0.0187165
0.893564
0.00919658
0.939102
-0.00158341
0.988626
-0.0134867
1.04635
-0.0266513
1.11125
-0.0411453
1.18472
1.2634
-0.0571647
0.0190698
0.295749
0.0319308
0.669408
0.0330366
0.832009
0.0276722
0.898929
0.019786
0.946988
0.0106093
0.997803
0.000248665
1.05671
-0.0111974
1.1227
-0.0237961
1.19732
1.27756
-0.0379578
0.0205224
0.275227
0.0364102
0.653521
0.040143
0.828276
0.0367536
0.902318
0.0305325
0.953209
0.0229728
1.00536
0.014319
1.06536
0.00450923
1.13251
-0.0061489
1.20797
1.28989
-0.0184834
0.0217457
0.253481
0.0407237
0.634543
0.0472311
0.821769
0.0459342
0.903615
0.0414297
0.957714
0.0355036
1.01129
0.0285427
1.07232
0.0205565
1.14049
0.0116173
1.21691
1.30025
0.00125961
0.0226961
0.230785
0.0448108
0.612428
0.0542476
0.812332
0.0551832
0.902679
0.0524594
0.960437
0.0481916
1.01556
0.0429366
1.07758
0.0367426
1.14669
0.0296291
1.22403
1.30841
0.0214687
0.0233329
0.207452
0.0486059
0.587155
0.0611352
0.799803
0.0644643
0.89935
0.0635989
0.961303
0.0610196
1.01814
0.0574823
1.08111
0.0530906
1.15108
0.0478752
1.22924
1.31453
0.0417574
0.0236227
0.18383
0.0520387
0.558739
0.0678429
0.783998
0.0737337
0.89346
0.0748213
0.960215
0.0739674
1.01899
0.0721613
1.08292
0.0695867
1.15365
0.0662919
1.23254
1.31863
0.0621858
0.0235442
0.160285
0.0550353
0.527248
0.074291
0.764743
0.0829371
0.884814
0.0860946
0.957058
0.0870126
1.01807
0.0869535
1.08298
0.0862054
1.1544
0.0848348
1.23391
1.32074
0.0827282
0.0230922
0.137193
0.0575241
0.492816
0.0803891
0.741878
0.0920079
0.873195
0.0973789
0.951687
0.10013
1.01532
0.101837
1.08127
0.102921
1.15332
0.103486
1.23334
1.32086
0.103367
0.0222783
0.114915
0.0594395
0.455655
0.0860329
0.715284
0.100867
0.85836
0.108625
0.943929
0.113288
1.01066
0.116789
1.07777
0.119709
1.1504
0.122225
1.23083
1.31895
0.124138
0.0211312
0.0937836
0.0606024
0.416183
0.091104
0.684783
0.10942
0.840044
0.11977
0.933578
0.126452
1.00398
0.131782
1.07244
0.136548
1.14563
0.141022
1.22635
1.31498
0.144987
0.0196942
0.0740894
0.0609259
0.374952
0.0954762
0.650232
0.117549
0.817971
0.130737
0.920391
0.139576
0.995136
0.146789
1.06523
0.153412
1.13901
0.159849
1.21992
1.30896
0.165873
0.0180173
0.0560721
0.0603519
0.332617
0.099011
0.611573
0.125116
0.791866
0.141428
0.904079
0.152603
0.983962
0.161774
1.05606
0.170274
1.13051
0.178678
1.21151
1.30088
0.186761
0.0161536
0.0399185
0.0588407
0.28993
0.101556
0.568858
0.131958
0.761465
0.151722
0.884314
0.165461
0.970223
0.176695
1.04482
0.187102
1.1201
0.19748
1.20113
1.29074
0.207618
0.0141613
0.0257572
0.0563917
0.247699
0.10295
0.522299
0.137885
0.72653
0.161471
0.860728
0.178056
0.953638
0.191498
1.03138
0.203862
1.10774
0.216224
1.18877
1.27855
0.228411
0.0121116
0.0136457
0.0530603
0.206751
0.103029
0.47233
0.142685
0.686875
0.170492
0.83292
0.190266
0.933864
0.206114
1.01553
0.220509
1.09334
0.234878
1.1744
1.26432
0.249108
0.0100917
0.00355397
0.0489644
0.167878
0.10164
0.419655
0.146119
0.642395
0.178566
0.800473
0.201934
0.910497
0.220449
0.997019
0.236992
1.0768
0.253406
1.15799
1.24805
0.269675
0.00819717
-0.0046432
0.0442751
0.1318
0.0986568
0.365273
0.147931
0.593121
0.185424
0.76298
0.212853
0.883067
0.23438
0.975493
0.253244
1.05793
0.271764
1.13947
1.22974
0.290078
0.00650836
-0.0111516
0.0391956
0.0991128
0.0940092
0.31046
0.147852
0.539279
0.190745
0.720087
0.222764
0.851048
0.247734
0.950522
0.269166
1.0365
0.289898
1.11874
1.20936
0.310276
0.00506986
-0.0162214
0.0339422
0.0702405
0.0877235
0.256678
0.145616
0.481386
0.194159
0.671544
0.231335
0.813872
0.260284
0.921573
0.284623
1.01216
0.307733
1.09563
1.18686
0.330233
0.00388205
-0.0201035
0.0287374
0.0453851
0.0799752
0.205441
0.140996
0.420366
0.195256
0.617284
0.238159
0.770968
0.27172
0.888012
0.299425
0.984458
0.325163
1.06989
1.16215
0.349876
0.00291374
-0.0230172
0.0237995
0.0244994
0.0711214
0.158119
0.133849
0.357638
0.193604
0.557529
0.24275
0.721823
0.281638
0.849124
0.313301
0.952795
0.342041
1.04115
1.13503
0.369155
0.00212471
-0.0251419
0.0193134
0.00731069
0.0616614
0.115771
0.124201
0.295099
0.188795
0.492935
0.244538
0.66608
0.289511
0.804151
0.325882
0.916424
0.35812
1.00891
1.10523
0.387922
0.00148206
-0.026624
0.0153982
-0.00660541
0.0521419
0.079027
0.112338
0.234903
0.180512
0.424761
0.242905
0.603686
0.294677
0.752379
0.33665
0.874451
0.373122
0.972438
1.07235
0.406007
0.000964267
-0.0275882
0.0120923
-0.0177335
0.043074
0.0480453
0.0988537
0.179123
0.168634
0.354981
0.237228
0.535091
0.296338
0.69327
0.344937
0.825852
0.386426
0.93095
1.03546
0.42331
0.00055736
-0.0281456
0.00936594
-0.026542
0.0348634
0.0225478
0.0845948
0.129392
0.153384
0.286192
0.227001
0.461474
0.293545
0.626726
0.349904
0.769493
0.397502
0.883352
0.994271
0.438694
0.000249972
-0.0283956
0.00715235
-0.0334444
0.0277503
0.00194985
0.0704973
0.0866446
0.135459
0.22123
0.211964
0.384969
0.28541
0.55328
0.350378
0.704525
0.405197
0.828533
0.945776
0.453691
3.17815e-05
-0.0284274
0.00537427
-0.0387869
0.0217912
-0.0144671
0.057383
0.0510529
0.116027
0.162586
0.192395
0.3086
0.271065
0.47461
0.345678
0.629912
0.407203
0.767008
0.889883
0.463097
-0.000135223
-0.0282921
0.00395404
-0.0428762
0.0169018
-0.0274148
0.0457954
0.0221592
0.0965049
0.111876
0.169266
0.235839
0.250328
0.393549
0.333613
0.546626
0.405732
0.694888
0.833273
0.462341
-0.000245021
-0.0280471
0.00281716
-0.0459384
0.012924
-0.0375217
0.0359429
-0.000859687
0.0782092
0.0696101
0.144197
0.169852
0.223916
0.31383
0.31304
0.457502
0.397191
0.610738
0.768294
0.46217
-0.000318951
-0.0277282
0.00189317
-0.0481505
0.00967746
-0.0453059
0.0277554
-0.0189377
0.0620271
0.0353384
0.119051
0.112827
0.193535
0.239346
0.283981
0.367056
0.378564
0.516156
0.692854
0.454004
-0.000377291
-0.0273509
0.00111559
-0.0496434
0.00698556
-0.0511759
0.0209951
-0.0329472
0.0482675
0.00806603
0.0953629
0.0657319
0.161665
0.173044
0.24797
0.280751
0.348783
0.415343
0.606404
0.435233
-0.000436906
-0.026914
0.00042453
-0.0505048
0.00468799
-0.0554394
0.0153538
-0.0436131
0.0367427
-0.0133228
0.0740406
0.028434
0.130874
0.11621
0.207939
0.203686
0.308544
0.314738
0.510329
0.404619
-0.000510199
-0.0264038
-0.000231715
-0.0507833
0.00264854
-0.0583196
0.0105244
-0.0514889
0.0270139
-0.0298124
0.0554689
-2.09704e-05
0.102893
0.0687866
0.16742
0.139158
0.260977
0.221181
0.40875
0.362556
-0.000608121
-0.0257956
-0.000894359
-0.0504971
0.000764298
-0.0599783
0.00624722
-0.0569718
0.0186292
-0.0421943
0.0396668
-0.0210586
0.0782481
0.0302053
0.129618
0.0877888
0.211011
0.139788
0.308516
0.311245
-0.000739872
-0.0250558
-0.00158213
-0.0496548
-0.0010626
-0.0604978
0.0023278
-0.0603622
0.0112486
-0.0511151
0.0263297
-0.0361396
0.0567257
-0.000190684
0.0966396
0.0478749
0.163282
0.0731451
0.21737
0.254427
-0.000905121
-0.0241507
-0.00230774
-0.0482522
-0.00287124
-0.0599343
-0.00132365
-0.0619098
0.00463654
-0.0570753
0.0149477
-0.0464508
0.0379587
-0.0232016
0.0688831
0.0169505
0.120273
0.0217552
0.141062
0.196581
-0.0011014
-0.0230493