/*--------------------------------*- C++ -*----------------------------------*\
  =========                 |
  \\      /  F ield         | OpenFOAM: The Open Source CFD Toolbox
   \\    /   O peration     | Website:  https://openfoam.org
    \\  /    A nd           | Version:  7
     \\/     M anipulation  |
\*---------------------------------------------------------------------------*/
FoamFile
{
    version     2.0;
    format      ascii;
    class       volScalarField;
    location    "2.6";
    object      rho;
}
// * * * * * * * * * * * * * * * * * * * * * * * * * * * * * * * * * * * * * //

dimensions      [1 -3 0 0 0 0 0];

internalField   nonuniform List<scalar> 
1575
(
1.40001
1.40001
1.40001
1.40001
1.40001
1.40001
1.40001
2.73649
5.24745
5.52762
5.62219
5.72074
5.78574
5.83281
5.87804
1.40001
1.40001
1.40001
1.40001
1.40001
1.40001
1.40001
2.64465
5.17321
5.50381
5.59381
5.68109
5.7369
5.77148
5.8173
1.40001
1.40001
1.40001
1.40001
1.40001
1.40001
1.40001
2.44862
5.06524
5.47759
5.559
5.63865
5.69082
5.71997
5.73761
1.40001
1.40001
1.40001
1.40001
1.40001
1.40001
1.40001
2.16552
4.90103
5.46733
5.51155
5.55734
5.57105
5.55769
5.56933
1.40001
1.40001
1.40001
1.40001
1.40001
1.40001
1.40001
1.80874
4.65177
5.44724
5.44934
5.47912
5.47594
5.40878
5.39728
1.40001
1.40001
1.40001
1.40001
1.40001
1.40001
1.40001
1.4582
4.18269
5.41144
5.36148
5.3536
5.27931
4.96498
4.13758
1.40001
1.40001
1.40001
1.40001
1.40001
1.40001
1.40001
1.40053
3.47661
5.16449
5.21814
5.1887
5.0371
4.70291
3.90347
1.40001
1.40001
1.40001
1.40001
1.40001
1.40001
1.40001
1.4
2.61446
4.90996
5.13662
5.06878
4.85983
4.52335
3.75855
1.40001
1.40001
1.40001
1.40001
1.40001
1.40001
1.40001
1.4
1.77004
4.5825
5.15385
4.96006
4.72945
4.36655
3.74673
1.40001
1.40001
1.40001
1.40001
1.40001
1.40001
1.40001
1.4
1.42629
3.71752
4.94135
4.77059
4.59566
4.24488
3.76498
1.40001
1.40001
1.40001
1.40001
1.40001
1.40001
1.40001
1.40001
1.39986
2.49979
4.68553
4.74617
4.5506
4.23292
3.81769
1.40001
1.40001
1.40001
1.40001
1.40001
1.40001
1.40001
1.40001
1.39997
1.5982
3.96948
4.75831
4.52466
4.22479
3.86096
1.40001
1.40001
1.40001
1.40001
1.40001
1.40001
1.40001
1.40001
1.4
1.40442
2.68989
4.55644
4.50529
4.21511
3.89504
1.40001
1.40001
1.40001
1.40001
1.40001
1.40001
1.40001
1.40001
1.4
1.40001
1.65227
3.82675
4.57407
4.26312
3.97674
1.40001
1.40001
1.40001
1.40001
1.40001
1.40001
1.40001
1.40001
1.40001
1.40001
1.40778
2.41299
4.30644
4.31048
4.05166
1.40001
1.40001
1.40001
1.40001
1.40001
1.40001
1.40001
1.40001
1.40001
1.40001
1.40004
1.54681
3.33976
4.38179
4.16554
1.40001
1.40001
1.40001
1.40001
1.40001
1.40001
1.40001
1.40001
1.40001
1.40001
1.40001
1.40315
1.9788
3.8735
4.23772
1.40001
1.40001
1.40001
1.40001
1.40001
1.40001
1.40001
1.40001
1.40001
1.40001
1.40001
1.40002
1.44368
2.56905
4.02843
1.40001
1.40001
1.40001
1.40001
1.40001
1.40001
1.40001
1.40001
1.40001
1.40001
1.40001
1.40001
1.40062
1.58935
3.08877
1.40001
1.40001
1.40001
1.40001
1.40001
1.40001
1.40001
1.40001
1.40001
1.40001
1.40001
1.40001
1.40001
1.406
1.84406
1.40001
1.40001
1.40001
1.40001
1.40001
1.40001
1.40001
1.40001
1.40001
1.40001
1.40001
1.40001
1.40001
1.40005
1.42808
1.40001
1.40001
1.40001
1.40001
1.40001
1.40001
1.40001
1.40001
1.40001
1.40001
1.40001
1.40001
1.40001
1.40001
1.40039
1.40001
1.40001
1.40001
1.40001
1.40001
1.40001
1.40001
1.40001
1.40001
1.40001
1.40001
1.40001
1.40001
1.40001
1.40001
1.40001
1.40001
1.40001
1.40001
1.40001
1.40001
1.40001
1.40001
1.40001
1.40001
1.40001
1.40001
1.40001
1.40001
1.40001
1.40001
1.40001
1.40001
1.40001
1.40001
1.40001
1.40001
1.40001
1.40001
1.40001
1.40001
1.40001
1.40001
1.40001
1.40001
1.49544
0.649068
0.424685
0.414672
0.424568
0.479719
0.604677
0.757541
0.864146
0.929551
0.97685
1.01607
1.03575
1.05783
1.08155
1.09068
1.0871
1.0844
1.08176
1.07858
1.08452
1.16792
1.92598
3.24434
3.45618
3.32058
3.24336
3.17864
3.08257
2.99814
2.92986
2.86708
2.8132
2.76446
2.71675
2.66867
2.61939
2.56957
2.51907
2.46936
2.41942
2.36447
2.3012
2.24263
2.19726
2.1574
2.11958
2.08384
2.04904
2.01273
1.97172
1.92036
1.85951
1.80644
1.76984
1.74175
1.71795
1.69503
1.67645
1.63581
2.24154
1.44591
1.06987
0.928243
0.808116
0.761714
0.764623
0.755295
0.779492
0.826843
0.875092
0.932337
0.986534
1.03174
1.06091
1.08079
1.08468
1.08438
1.08029
1.08379
1.1702
1.4807
1.98065
2.84337
3.28099
3.26827
3.22022
3.15107
3.06807
3.01217
2.96271
2.90419
2.84509
2.78523
2.72416
2.66919
2.62019
2.57474
2.52703
2.47996
2.43243
2.38137
2.32314
2.26326
2.21276
2.16912
2.12716
2.0867
2.04961
2.01404
1.97692
1.93246
1.87898
1.82553
1.78415
1.75259
1.72573
1.69914
1.67686
1.63389
2.69655
2.05929
1.61893
1.32633
1.12717
0.982493
0.915266
0.846692
0.818569
0.847463
0.896022
0.946465
0.993045
1.03628
1.06727
1.09338
1.12051
1.12495
1.13402
1.21622
1.56614
2.01013
2.1474
2.35713
2.84557
3.24684
3.36035
3.29099
3.21386
3.14859
3.07081
2.99616
2.91687
2.843
2.77401
2.71215
2.66222
2.61605
2.56775
2.51834
2.46773
2.41553
2.36116
2.30623
2.25549
2.20874
2.16262
2.1163
2.07077
2.02569
1.98184
1.94118
1.90048
1.85633
1.81287
1.77688
1.74818
1.72135
1.69636
1.64676
3.02771
2.45621
2.04624
1.72765
1.48256
1.29593
1.17557
1.08529
0.994614
0.966004
0.941414
0.927932
0.941629
0.972128
1.01006
1.04566
1.07959
1.10855
1.18764
1.54751
2.01322
2.25912
2.27225
2.26231
2.34589
2.69951
3.10121
3.24383
3.30565
3.2598
3.16889
3.07576
2.98108
2.90466
2.83881
2.78272
2.72883
2.6761
2.62383
2.57114
2.51821
2.46439
2.40888
2.35413
2.30388
2.25768
2.21235
2.1656
2.11632
2.06502
2.01619
1.97326
1.93339
1.89172
1.84692
1.80469
1.77306
1.74782
1.72465
1.67408
3.23904
2.74973
2.36442
2.05753
1.77582
1.57626
1.42973
1.3039
1.18987
1.112
1.03755
0.972941
0.945752
0.953107
0.96254
0.980105
1.00703
1.08961
1.39393
1.93323
2.15323
2.22253
2.23446
2.22431
2.22345
2.28044
2.54741
2.93195
3.16737
3.26107
3.24009
3.15224
3.06918
2.99277
2.91295
2.85254
2.78684
2.7246
2.67154
2.62006
2.5683
2.51658
2.46245
2.40656
2.35368
2.30547
2.25871
2.21098
2.16213
2.11318
2.06655
2.02318
1.98219
1.94032
1.89476
1.84846
1.808
1.77396
1.74853
1.70146
3.38751
2.97794
2.60799
2.30994
2.04838
1.82525
1.66208
1.51013
1.38028
1.28927
1.207
1.13068
1.05972
1.02926
0.996332
0.996836
1.04262
1.29001
1.77775
2.02735
2.09157
2.09938
2.10789
2.13282
2.16539
2.17257
2.20051
2.38206
2.70592
3.0268
3.158
3.14616
3.13078
3.07102
2.99381
2.90969
2.82517
2.75573
2.70124
2.65319
2.60432
2.55354
2.50007
2.44438
2.39093
2.3426
2.2967
2.25039
2.20337
2.15672
2.11211
2.06975
2.02837
1.9847
1.93727
1.88908
1.84427
1.80535
1.77699
1.73015
3.4849
3.12711
2.81052
2.52155
2.2612
2.04329
1.86586
1.71202
1.56783
1.45308
1.36114
1.26399
1.1878
1.11935
1.05934
1.07447
1.30485
1.7842
2.00638
2.03031
2.01402
1.97758
1.97346
1.9888
2.03147
2.06174
2.05274
2.06842
2.17839
2.43367
2.77665
3.00113
3.05854
3.08883
3.05875
2.96441
2.86986
2.7934
2.73164
2.68257
2.63093
2.57554
2.5203
2.46717
2.41653
2.36843
2.32186
2.27519
2.22924
2.18568
2.14567
2.10691
2.066
2.01979
1.9684
1.91667
1.8695
1.82893
1.79998
1.75492
3.56773
3.2625
2.97724
2.6969
2.44777
2.24752
2.0564
1.87727
1.73377
1.61973
1.51144
1.41871
1.31423
1.23563
1.24045
1.44404
1.94049
2.1899
2.1262
2.0576
1.99661
1.95226
1.94816
1.94195
1.93799
1.92997
1.91134
1.90562
1.91517
1.96323
2.13618
2.46881
2.7588
2.97534
2.99859
2.96026
2.90169
2.83488
2.77118
2.70729
2.64465
2.58711
2.53367
2.48567
2.44001
2.39247
2.34175
2.28835
2.23808
2.19705
2.16353
2.13133
2.09511
2.05114
1.99916
1.94455
1.89558
1.85473
1.82285
1.77359
3.67473
3.39024
3.119
2.84864
2.6165
2.40801
2.22019
2.03478
1.89679
1.76785
1.65218
1.53796
1.44311
1.4361
1.64913
2.15414
2.40948
2.36313
2.24644
2.13749
2.07179
2.03216
1.99404
1.95529
1.92184
1.90228
1.87898
1.84853
1.82171
1.78903
1.7946
1.87842
2.09669
2.45148
2.70372
2.84062
2.86655
2.85902
2.82004
2.73166
2.64948
2.59801
2.54933
2.50688
2.46717
2.41937
2.36189
2.29802
2.24206
2.20314
2.17359
2.14491
2.11208
2.0709
2.02108
1.96766
1.9197
1.88052
1.84742
1.79118
3.7692
3.50015
3.23612
2.97868
2.76368
2.56131
2.36244
2.18665
2.04118
1.90872
1.7752
1.6564
1.63939
1.88268
2.42973
2.70281
2.63874
2.5136
2.3925
2.2969
2.21912
2.15061
2.08528
2.02689
1.97691
1.92556
1.87717
1.84088
1.80874
1.76694
1.73923
1.712
1.71757
1.79661
2.01823
2.32993
2.60231
2.74829
2.76556
2.7218
2.67179
2.61529
2.56423
2.52066
2.4806
2.43605
2.38132
2.31269
2.24759
2.20627
2.17908
2.15278
2.12139
2.08071
2.03243
1.98348
1.9395
1.90155
1.86932
1.80917
3.88651
3.62358
3.35865
3.1146
2.90259
2.70118
2.49932
2.33134
2.18626
2.03329
1.89231
1.87566
2.16671
2.74881
3.00298
2.91552
2.77805
2.65641
2.55153
2.45282
2.35526
2.26929
2.19228
2.12272
2.05652
1.99271
1.93573
1.88531
1.83295
1.77754
1.73508
1.69622
1.6645
1.63496
1.63931
1.7152
1.9467
2.25761
2.53597
2.60252
2.62804
2.61264
2.58966
2.5408
2.48113
2.43569
2.39049
2.33667
2.27987
2.23063
2.18967
2.15455
2.11923
2.08048
2.03947
1.99844
1.95841
1.91752
1.88161
1.81909
4.00588
3.7384
3.47185
3.24483
3.03199
2.82549
2.62814
2.47368
2.30462
2.14826
2.1388
2.48992
3.11292
3.36617
3.25438
3.08927
2.94516
2.82952
2.72136
2.6095
2.4987
2.39701
2.30926
2.23224
2.16051
2.09264
2.02572
1.95666
1.88467
1.82002
1.76676
1.70998
1.66289
1.62022
1.59933
1.57831
1.57982
1.65425
1.86877
2.14168
2.3908
2.51678
2.52434
2.50587
2.48111
2.43519
2.39184
2.35465
2.30974
2.25661
2.20352
2.16044
2.12218
2.08398
2.04661
2.01052
1.9736
1.93139
1.88951
1.81832
4.09744
3.88064
3.60511
3.37712
3.17022
2.96032
2.77415
2.59507
2.41653
2.44401
2.87607
3.57249
3.73774
3.58013
3.38973
3.244
3.12267
3.00415
2.8833
2.76076
2.63839
2.52229
2.41895
2.32881
2.24856
2.17508
2.10493
2.03552
1.96516
1.89844
1.83215
1.76437
1.70754
1.65443
1.61099
1.56757
1.54542
1.52376
1.52094
1.59262
1.76946
2.03671
2.24788
2.4085
2.4174
2.41492
2.40628
2.37081
2.3278
2.269
2.2048
2.16056
2.12522
2.09018
2.05736
2.02627
1.99377
1.94996
1.8902
1.80921
4.0416
4.00069
3.76439
3.52172
3.30277
3.09565
2.90523
2.69735
2.75373
3.30953
4.03396
4.2298
4.01634
3.76319
3.55925
3.41665
3.28817
3.16021
3.03069
2.89933
2.76849
2.64453
2.53322
2.43453
2.34597
2.26375
2.18474
2.10834
2.03418
1.96467
1.8953
1.82885
1.76413
1.70184
1.64378
1.59013
1.54937
1.5055
1.48053
1.45821
1.4498
1.5099
1.65433
1.90699
2.11378
2.25931
2.33903
2.35136
2.34177
2.29113
2.21226
2.15432
2.10805
2.07858
2.06257
2.045
2.01426
1.96396
1.8952
1.82024
3.40177
3.99083
3.90987
3.68755
3.44511
3.22607
3.00197
3.0986
3.82282
4.57713
4.68242
4.46102
4.19668
3.97076
3.77998
3.61028
3.45373
3.30503
3.16089
3.02003
2.8837
2.75499
2.63721
2.53082
2.43473
2.34543
2.2604
2.17876
2.09971
2.02403
1.95261
1.88756
1.82232
1.75802
1.69513
1.63787
1.58553
1.5347
1.49197
1.44752
1.42401
1.40342
1.38763
1.43112
1.57349
1.78012
1.99692
2.15041
2.2465
2.24096
2.2224
2.19096
2.14123
2.09695
2.05873
2.0178
1.97454
1.92787
1.90344
1.85107
2.11103
3.56356
3.93479
3.83502
3.60283
3.32397
3.49145
4.40813
5.15001
5.22219
4.95592
4.64874
4.37845
4.15
3.95353
3.77353
3.60194
3.4365
3.27796
3.12691
2.98419
2.85102
2.72859
2.61646
2.51317
2.41614
2.32409
2.23771
2.15722
2.07981
2.00647
1.94051
1.87603
1.80951
1.74205
1.68028
1.62431
1.58235
1.54031
1.48922
1.43813
1.38658
1.35759
1.33461
1.31803
1.34594
1.46513
1.65637
1.88604
2.0007
2.0954
2.13068
2.12693
2.11411
2.08092
2.0244
1.97449
1.92792
1.87935
1.83149
1.4702
2.33792
3.67219
3.83198
3.723
3.98012
5.11869
5.81797
5.73774
5.43145
5.13106
4.82597
4.54043
4.29138
4.07988
3.8909
3.71219
3.53966
3.37423
3.21732
3.06992
2.93247
2.80522
2.68762
2.57823
2.47561
2.37849
2.28585
2.19844
2.1145
2.03167
1.95409
1.89169
1.83688
1.77759
1.71498
1.65322
1.59661
1.54399
1.49475
1.44567
1.39814
1.36028
1.323
1.29851
1.27766
1.26079
1.28323
1.37835
1.55994
1.76363
1.90271
1.98394
2.03737
2.03139
2.01731
1.99498
1.94738
1.8902
1.83741
1.40138
1.52825
2.58307
3.42907
4.24326
5.76611
6.43746
6.30762
5.94433
5.58499
5.26673
4.95518
4.65992
4.3976
4.16998
3.96723
3.77959
3.60229
3.43462
3.27677
3.12846
2.98869
2.85723
2.73463
2.62073
2.51516
2.41662
2.32237
2.23261
2.15006
2.07192
1.99137
1.92013
1.85965
1.79888
1.73527
1.67733
1.621
1.56579
1.51588
1.46735
1.42159
1.37697
1.3324
1.29524
1.26327
1.23745
1.22066
1.20464
1.21797
1.28003
1.43657
1.62648
1.82453
1.87057
1.91459
1.91314
1.90625
1.90099
1.88075
1.40001
1.40427
1.59425
2.57236
5.70499
6.97212
6.64202
6.30665
5.99165
5.63974
5.3002
4.99795
4.72371
4.4711
4.23711
4.02113
3.82216
3.63902
3.47082
3.3156
3.17043
3.03213
2.89954
2.77353
2.65491
2.54456
2.44235
2.34657
2.25438
2.16442
2.08658
2.02981
1.96766
1.8924
1.822
1.78018
1.73911
1.6885
1.6337
1.57924
1.52523
1.47275
1.42386
1.38098
1.34411
1.31155
1.27703
1.24004
1.19786
1.14809
1.13422
1.15421
1.22342
1.36902
1.54932
1.72923
1.78731
1.83336
1.91221
2.09169
1.40001
1.40004
1.40611
2.49604
6.46023
7.31553
6.83473
6.47005
6.14394
5.72173
5.33738
5.02551
4.76072
4.51655
4.2821
4.05829
3.85014
3.66023
3.48701
3.32722
3.17884
3.04064
2.91156
2.79003
2.67409
2.56318
2.45692
2.35661
2.26414
2.18047
2.10162
2.01549
1.92983
1.86269
1.81351
1.76384
1.70974
1.65387
1.59792
1.54214
1.48605
1.43096
1.38403
1.34533
1.31165
1.2814
1.25043
1.21232
1.16835
1.12844
1.08704
1.06079
1.06106
1.08243
1.17253
1.34584
1.61637
1.93224
2.1943
2.54004
)
;

boundaryField
{
    inlet
    {
        type            calculated;
        value           uniform 1.40001;
    }
    outlet
    {
        type            calculated;
        value           nonuniform List<scalar> 
20
(
1.63527
1.63346
1.64685
1.67425
1.70109
1.72952
1.75414
1.77306
1.79116
1.80951
1.8197
1.81979
1.81037
1.82014
1.85139
1.82986
1.83729
1.88312
2.09389
2.54591
)
;
    }
    bottom
    {
        type            symmetryPlane;
    }
    top
    {
        type            symmetryPlane;
    }
    obstacle
    {
        type            calculated;
        value           nonuniform List<scalar> 
65
(
5.87804
5.8173
5.73761
5.56933
5.39728
1.49544
0.649068
0.424685
0.414672
0.424568
0.479719
0.604677
0.757541
0.864146
0.929551
0.97685
1.01607
1.03575
1.05783
1.08155
1.09068
1.0871
1.0844
1.08176
1.07858
1.08452
1.16792
1.92598
3.24434
3.45618
3.32058
3.24336
3.17864
3.08257
2.99814
2.92986
2.86708
2.8132
2.76446
2.71675
2.66867
2.61939
2.56957
2.51907
2.46936
2.41942
2.36447
2.3012
2.24263
2.19726
2.1574
2.11958
2.08384
2.04904
2.01273
1.97172
1.92036
1.85951
1.80644
1.76984
1.74175
1.71795
1.69503
1.67645
1.63581
)
;
    }
    defaultFaces
    {
        type            empty;
    }
}


// ************************************************************************* //
