/*--------------------------------*- C++ -*----------------------------------*\
  =========                 |
  \\      /  F ield         | OpenFOAM: The Open Source CFD Toolbox
   \\    /   O peration     | Website:  https://openfoam.org
    \\  /    A nd           | Version:  7
     \\/     M anipulation  |
\*---------------------------------------------------------------------------*/
FoamFile
{
    version     2.0;
    format      ascii;
    class       volScalarField;
    location    "2.6";
    object      T;
}
// * * * * * * * * * * * * * * * * * * * * * * * * * * * * * * * * * * * * * //

dimensions      [0 0 0 1 0 0 0];

internalField   nonuniform List<scalar> 
1575
(
1
1
1
1
1
1
1
1.86513
2.69294
2.73973
2.75654
2.78061
2.80737
2.83303
2.84953
1
1
1
1
1
1
1
1.82988
2.6773
2.73468
2.75067
2.7731
2.79781
2.81939
2.83453
1
1
1
1
1
1
1
1.73386
2.64231
2.72272
2.74109
2.76527
2.78947
2.80452
2.80903
1
1
1
1
1
1
1
1.56893
2.57006
2.70058
2.7234
2.74667
2.76466
2.77025
2.77481
1
1
1
1
1
1
1
1.31255
2.44928
2.6695
2.69643
2.72208
2.74225
2.75509
2.78624
1
1
1
1
1
1
1
1.03037
2.30288
2.65393
2.66225
2.68056
2.68773
2.66082
2.58614
1
1
1
1
1
1
1
1.00022
2.10031
2.59414
2.62585
2.63204
2.61841
2.57968
2.46022
1
1
1
1
1
1
1
0.999998
1.73192
2.48468
2.59407
2.58841
2.56096
2.51237
2.36634
1
1
1
1
1
1
1
0.999999
1.21618
2.30143
2.5589
2.53529
2.50734
2.45046
2.32331
1
1
1
1
1
1
1
1
1.01289
2.10024
2.48226
2.4628
2.44768
2.39462
2.3002
1
1
1
1
1
1
1
1
0.999997
1.61086
2.33471
2.43613
2.40716
2.35621
2.28084
1
1
1
1
1
1
1
1
0.999994
1.09988
2.09928
2.3975
2.36509
2.32035
2.25774
1
1
1
1
1
1
1
1
0.999998
1.00205
1.64436
2.25416
2.32088
2.28013
2.22994
1
1
1
1
1
1
1
1
1
1
1.1248
2.00698
2.28547
2.24223
2.2064
1
1
1
1
1
1
1
1
1
1
1.00336
1.48867
2.09415
2.21714
2.17844
1
1
1
1
1
1
1
1
1
1
1.00001
1.06936
1.8001
2.16905
2.1468
1
1
1
1
1
1
1
1
1
1
1
1.00123
1.27472
1.94539
2.11611
1
1
1
1
1
1
1
1
1
1
1
1
1.01878
1.51634
1.97103
1
1
1
1
1
1
1
1
1
1
1
1
1.0002
1.0875
1.67581
1
1
1
1
1
1
1
1
1
1
1
1
1
1.00224
1.20432
1
1
1
1
1
1
1
1
1
1
1
1
1
1.00001
1.01128
1
1
1
1
1
1
1
1
1
1
1
1
1
1
1.00012
1
1
1
1
1
1
1
1
1
1
1
1
1
1
1
1
1
1
1
1
1
1
1
1
1
1
1
1
1
1
1
1
1
1
1
1
1
1
1
1
1
1
1
1
1
1.81939
1.32651
1.21442
1.29212
1.35586
1.456
1.55889
1.62211
1.65656
1.69238
1.74693
1.77208
1.76657
1.75794
1.75431
1.75334
1.75147
1.74756
1.73898
1.72057
1.71631
1.7653
2.22762
2.76351
2.74299
2.69037
2.66148
2.63397
2.59241
2.55125
2.51318
2.47847
2.45178
2.43015
2.40885
2.38622
2.36315
2.34144
2.32171
2.30372
2.28517
2.26262
2.2343
2.20667
2.18539
2.16888
2.1562
2.14663
2.13815
2.12806
2.1136
2.09224
2.06566
2.04306
2.0288
2.0191
2.01158
2.00414
1.99726
1.98083
2.05805
1.7698
1.58182
1.53495
1.49869
1.48638
1.4687
1.44353
1.46105
1.50116
1.54811
1.59263
1.62711
1.64895
1.65953
1.66906
1.67726
1.67962
1.67585
1.6728
1.71981
1.89444
2.10668
2.46102
2.5897
2.60409
2.58595
2.55917
2.53082
2.5085
2.48562
2.45893
2.43353
2.40878
2.38286
2.35834
2.33686
2.31879
2.30216
2.28691
2.27071
2.25096
2.22588
2.19888
2.1764
2.15888
2.14469
2.13323
2.12394
2.11464
2.10305
2.0863
2.06407
2.04178
2.02569
2.01462
2.00585
1.99693
1.98856
1.97113
2.10986
1.93035
1.78057
1.66663
1.57653
1.49577
1.44383
1.39516
1.37847
1.4003
1.43244
1.46049
1.4905
1.51687
1.5338
1.54985
1.57089
1.58167
1.59149
1.64305
1.82302
2.02794
2.04945
2.11817
2.3046
2.44556
2.49308
2.47807
2.46322
2.44728
2.42822
2.40717
2.38167
2.35495
2.32746
2.30198
2.28276
2.26795
2.25497
2.24243
2.22835
2.21139
2.19101
2.16874
2.14819
2.13059
2.11522
2.10168
2.08958
2.07788
2.06611
2.05416
2.04039
2.024
2.00784
1.99532
1.98609
1.97747
1.96865
1.95074
2.1539
2.00427
1.88463
1.77708
1.68033
1.59513
1.53423
1.48316
1.43091
1.4154
1.39938
1.39421
1.39958
1.41383
1.43247
1.45142
1.47029
1.48876
1.53617
1.73583
1.93934
2.05327
2.04845
2.02606
2.04972
2.17167
2.29942
2.3473
2.37816
2.37168
2.35316
2.33145
2.30684
2.28293
2.25883
2.23656
2.21699
2.2017
2.18954
2.17814
2.16573
2.15115
2.13394
2.11531
2.09753
2.0815
2.06684
2.05318
2.04014
2.02751
2.01616
2.00633
1.99636
1.98408
1.96918
1.95482
1.94479
1.9374
1.93034
1.91456
2.18089
2.05695
1.95116
1.85875
1.76026
1.68283
1.62213
1.56619
1.51119
1.47
1.4283
1.39373
1.37661
1.38033
1.38536
1.39414
1.40904
1.4553
1.6291
1.88131
1.97625
2.0037
1.99815
1.9821
1.96176
1.97544
2.06319
2.18267
2.25396
2.28848
2.28717
2.27241
2.25295
2.22978
2.20431
2.18235
2.15886
2.13978
2.12676
2.11524
2.10316
2.09005
2.07516
2.05875
2.04235
2.02688
2.01195
1.99755
1.98428
1.97263
1.96302
1.9547
1.94637
1.93623
1.92293
1.90803
1.89494
1.88454
1.87719
1.86332
2.19024
2.09438
1.99841
1.91363
1.83039
1.75462
1.69659
1.63642
1.57921
1.53724
1.49729
1.45784
1.42166
1.40565
1.38841
1.38885
1.41704
1.56512
1.81364
1.9094
1.92962
1.92572
1.91789
1.91457
1.90987
1.89905
1.90301
1.96157
2.06555
2.15993
2.19553
2.20565
2.20616
2.19177
2.16841
2.14112
2.11333
2.09132
2.07619
2.06394
2.05124
2.03765
2.02315
2.00782
1.99254
1.97792
1.96342
1.949
1.93547
1.92372
1.91417
1.90609
1.89804
1.88803
1.87491
1.85996
1.84567
1.83386
1.82584
1.81234
2.18419
2.10584
2.03031
1.95381
1.87792
1.81071
1.75181
1.69596
1.64036
1.59427
1.55427
1.50844
1.47178
1.43724
1.40718
1.41935
1.56696
1.79899
1.88658
1.88209
1.86671
1.84813
1.83567
1.8302
1.83181
1.82942
1.81421
1.8139
1.84737
1.93379
2.04008
2.10547
2.12779
2.14337
2.13555
2.11013
2.08199
2.05827
2.03996
2.02601
2.0112
1.99519
1.97961
1.96512
1.9513
1.93743
1.92303
1.90817
1.89404
1.88203
1.87283
1.86509
1.85672
1.84564
1.83109
1.81489
1.79983
1.7877
1.77989
1.76731
2.17208
2.11124
2.04873
1.98034
1.914
1.85787
1.79949
1.73928
1.68821
1.64605
1.60258
1.56458
1.51914
1.48116
1.48679
1.60902
1.84452
1.92796
1.8985
1.86543
1.83636
1.81684
1.80331
1.78593
1.76818
1.75061
1.73152
1.71828
1.71612
1.72996
1.79247
1.90412
1.99515
2.05613
2.07076
2.06312
2.05011
2.03243
2.01325
1.99466
1.97636
1.95928
1.9437
1.93043
1.91814
1.90485
1.88957
1.87249
1.85628
1.84405
1.83592
1.82947
1.82212
1.81158
1.79674
1.7794
1.76362
1.75137
1.74255
1.72879
2.16028
2.10932
2.05502
1.99506
1.93937
1.88482
1.83164
1.77389
1.72922
1.68488
1.64301
1.5994
1.55696
1.56128
1.68154
1.90603
1.98452
1.96073
1.90983
1.86143
1.83009
1.80841
1.78626
1.76217
1.73764
1.71519
1.69175
1.67022
1.65386
1.63516
1.63204
1.66204
1.74281
1.86214
1.93947
1.98089
1.99851
1.99831
1.98923
1.96649
1.94386
1.92843
1.9139
1.90184
1.89092
1.87757
1.8605
1.84004
1.82175
1.81008
1.8026
1.79641
1.78964
1.77997
1.76607
1.74933
1.73392
1.722
1.71249
1.697
2.13904
2.09821
2.05131
1.99909
1.95247
1.90435
1.85213
1.80257
1.75961
1.7176
1.67283
1.62527
1.62851
1.75351
1.97487
2.04966
2.02125
1.97127
1.92178
1.88055
1.84563
1.81389
1.78292
1.75302
1.72398
1.69406
1.66668
1.6452
1.62624
1.60361
1.58474
1.56846
1.56155
1.59301
1.68007
1.78821
1.8773
1.92079
1.93469
1.92529
1.91519
1.90107
1.88591
1.87312
1.86233
1.85012
1.8339
1.81227
1.79129
1.77852
1.77119
1.76503
1.75808
1.74826
1.73513
1.72064
1.7072
1.6957
1.68613
1.66965
2.11426
2.08089
2.04104
1.99762
1.95577
1.91262
1.86496
1.82317
1.78384
1.73953
1.69162
1.69559
1.83036
2.04773
2.10529
2.07187
2.02117
1.97463
1.93284
1.89283
1.8535
1.81793
1.78417
1.75131
1.7185
1.68639
1.65789
1.63243
1.60693
1.58094
1.55932
1.538
1.518
1.50017
1.49627
1.52786
1.62286
1.73559
1.82379
1.84805
1.86436
1.86255
1.8568
1.84426
1.83081
1.81973
1.80578
1.78838
1.77063
1.75523
1.74281
1.7331
1.7239
1.71413
1.70386
1.69327
1.68236
1.67044
1.6595
1.64192
2.08617
2.05432
2.01964
1.98721
1.95132
1.91171
1.87003
1.83577
1.79382
1.75018
1.75694
1.90804
2.11803
2.16598
2.12944
2.0759
2.02502
1.98136
1.94046
1.89945
1.8592
1.82136
1.78676
1.75385
1.72134
1.68964
1.65891
1.6285
1.5981
1.57055
1.54648
1.52046
1.49733
1.4754
1.46021
1.44534
1.44321
1.47632
1.56584
1.66604
1.7528
1.79468
1.79421
1.79583
1.79526
1.7871
1.77472
1.76199
1.74784
1.73235
1.71634
1.70304
1.69172
1.6817
1.67319
1.66528
1.65648
1.64491
1.63223
1.61142
2.06791
2.03764
1.99955
1.97016
1.94149
1.90752
1.87302
1.83505
1.79923
1.81456
1.97721
2.19699
2.20991
2.1656
2.11139
2.06554
2.02399
1.98283
1.94167
1.90104
1.86084
1.82164
1.78457
1.74988
1.71716
1.68635
1.65706
1.62841
1.59954
1.57182
1.54392
1.51522
1.48948
1.46459
1.44283
1.4217
1.40844
1.39588
1.3947
1.42681
1.50427
1.60653
1.67454
1.72963
1.73934
1.74453
1.74356
1.73485
1.72261
1.70564
1.68628
1.67196
1.66106
1.65191
1.64497
1.63902
1.63216
1.62054
1.60242
1.5785
1.98785
2.01944
1.98884
1.95678
1.92795
1.89806
1.86611
1.83305
1.86068
2.0457
2.24219
2.26949
2.21569
2.1522
2.0968
2.05365
2.01353
1.97385
1.9347
1.89576
1.85669
1.81805
1.78104
1.7462
1.71353
1.68264
1.65302
1.62449
1.59665
1.5697
1.54167
1.51424
1.48707
1.46046
1.43539
1.41211
1.393
1.3734
1.36056
1.3482
1.34699
1.37579
1.44143
1.54034
1.61308
1.6628
1.68973
1.69689
1.69502
1.68156
1.65874
1.64008
1.62546
1.6186
1.617
1.61538
1.60931
1.59581
1.57574
1.55572
1.74747
1.97285
1.97018
1.94509
1.9145
1.88351
1.85537
1.89708
2.10546
2.29616
2.29281
2.24296
2.18664
2.13493
2.08846
2.04461
2.00288
1.96307
1.92459
1.88653
1.84839
1.81043
1.77362
1.73868
1.70611
1.67554
1.64652
1.61867
1.59149
1.56484
1.53833
1.51307
1.48773
1.46225
1.43682
1.41312
1.39092
1.36879
1.34988
1.33221
1.3238
1.31532
1.31212
1.33354
1.40049
1.48335
1.55929
1.60622
1.63957
1.63963
1.63533
1.62538
1.60975
1.59746
1.5886
1.57922
1.56838
1.55694
1.55269
1.54111
1.30793
1.78013
1.93684
1.92907
1.90083
1.86842
1.92914
2.16013
2.32008
2.32555
2.27571
2.21739
2.16555
2.11942
2.07719
2.03657
1.99686
1.95782
1.91904
1.88013
1.84115
1.80269
1.76562
1.7306
1.69797
1.6675
1.63885
1.61185
1.58619
1.56139
1.5377
1.51502
1.49136
1.46588
1.43979
1.4158
1.39388
1.37649
1.3594
1.33966
1.31972
1.30038
1.29035
1.2827
1.27927
1.29387
1.35019
1.4263
1.50567
1.54229
1.57318
1.58657
1.58597
1.58295
1.57434
1.55816
1.54426
1.53334
1.52144
1.50924
1.02899
1.38728
1.78916
1.89917
1.89238
1.97073
2.21924
2.3586
2.34903
2.30519
2.25827
2.20834
2.15945
2.11375
2.07225
2.03343
1.99547
1.95708
1.91777
1.8777
1.83744
1.79783
1.75993
1.72452
1.69188
1.66184
1.63388
1.60734
1.58193
1.55695
1.53212
1.50807
1.48651
1.46547
1.44257
1.41901
1.39604
1.3751
1.35481
1.33474
1.31466
1.29706
1.2843
1.27204
1.26379
1.2559
1.24796
1.2582
1.30111
1.37828
1.4543
1.50209
1.52711
1.54431
1.54308
1.54035
1.53563
1.52297
1.50376
1.48891
1.00045
1.05413
1.45772
1.73467
1.95455
2.28206
2.41645
2.40479
2.36307
2.31425
2.26702
2.21778
2.1676
2.11967
2.07579
2.03527
1.99626
1.95704
1.91692
1.87607
1.835
1.79461
1.75604
1.72033
1.68783
1.65828
1.63113
1.6055
1.58123
1.55829
1.53535
1.51059
1.48746
1.4663
1.44379
1.41956
1.39699
1.37519
1.35372
1.33394
1.3153
1.29866
1.2834
1.26863
1.25621
1.24487
1.23456
1.22639
1.21749
1.22474
1.25708
1.32915
1.4041
1.47051
1.48223
1.496
1.49779
1.4958
1.49248
1.48908
1
1.00143
1.08377
1.46323
2.28872
2.53784
2.49264
2.44246
2.39214
2.33509
2.28059
2.2304
2.18145
2.13342
2.08717
2.04334
2.00133
1.96015
1.91915
1.87798
1.83677
1.79612
1.75716
1.72101
1.68802
1.6581
1.63082
1.60546
1.5811
1.55693
1.53521
1.51854
1.49931
1.47475
1.44968
1.43245
1.41524
1.39477
1.3734
1.35285
1.33338
1.31514
1.29876
1.28493
1.27317
1.26204
1.24904
1.23358
1.21426
1.19063
1.18349
1.1935
1.22739
1.29313
1.36557
1.4304
1.4502
1.46423
1.48908
1.55094
1
1.00001
1.00233
1.6434
2.67744
2.66185
2.56957
2.49836
2.43512
2.36033
2.29465
2.24041
2.19179
2.14467
2.09802
2.05229
2.00795
1.9648
1.92207
1.87912
1.83646
1.7953
1.75694
1.72196
1.68993
1.6603
1.63238
1.60609
1.58177
1.55963
1.53842
1.51398
1.4877
1.46503
1.44662
1.42729
1.40573
1.38319
1.36096
1.33962
1.31913
1.29981
1.28402
1.27137
1.26018
1.24944
1.23734
1.22109
1.20098
1.18163
1.16224
1.14984
1.15046
1.16191
1.20793
1.28953
1.3971
1.50461
1.57542
1.67439
)
;

boundaryField
{
    inlet
    {
        type            fixedValue;
        value           uniform 1;
    }
    outlet
    {
        type            inletOutlet;
        inletValue      uniform 1;
        value           nonuniform List<scalar> 
20
(
1.98148
1.97165
1.95063
1.91436
1.86372
1.81301
1.7681
1.7293
1.69701
1.66934
1.64137
1.61012
1.57749
1.55581
1.54084
1.51059
1.48901
1.48721
1.54931
1.67054
)
;
    }
    bottom
    {
        type            symmetryPlane;
    }
    top
    {
        type            symmetryPlane;
    }
    obstacle
    {
        type            zeroGradient;
    }
    defaultFaces
    {
        type            empty;
    }
}


// ************************************************************************* //
