/*--------------------------------*- C++ -*----------------------------------*\
  =========                 |
  \\      /  F ield         | OpenFOAM: The Open Source CFD Toolbox
   \\    /   O peration     | Website:  https://openfoam.org
    \\  /    A nd           | Version:  9
     \\/     M anipulation  |
\*---------------------------------------------------------------------------*/
FoamFile
{
    format      ascii;
    class       volScalarField;
    location    "0.3";
    object      p;
}
// * * * * * * * * * * * * * * * * * * * * * * * * * * * * * * * * * * * * * //

dimensions      [0 2 -2 0 0 0 0];

internalField   nonuniform List<scalar> 
1600
(
-4.1227e-09
-0.000609151
-0.00198305
-0.00381482
-0.00576829
-0.00759938
-0.00913442
-0.0102532
-0.0108774
-0.0109617
-0.010486
-0.00945014
-0.00786986
-0.00577404
-0.0032025
-0.000204541
0.00316212
0.00683223
0.0107338
0.0147887
0.018914
0.0230227
0.0270256
0.0308326
0.0343555
0.0375099
0.0402185
0.0424138
0.0440418
0.0450652
0.0454668
0.0452538
0.0444608
0.0431549
0.04144
0.0394633
0.0374205
0.0355693
0.0342412
0.0337079
0.000607604
-2.70033e-06
-0.00111699
-0.00253659
-0.00404159
-0.00545227
-0.00663045
-0.00747426
-0.00791301
-0.00790227
-0.00741918
-0.00645864
-0.00503026
-0.00315599
-0.000868244
0.00179139
0.00477328
0.00802064
0.0114703
0.0150537
0.0186976
0.0223256
0.0258594
0.0292205
0.0323323
0.0351222
0.0375243
0.0394822
0.0409519
0.0419044
0.0423292
0.042237
0.0416625
0.0406672
0.0393425
0.0378111
0.0362284
0.034785
0.0337045
0.0331753
0.0019903
0.00110531
-2.54412e-05
-0.00129933
-0.00259841
-0.00379079
-0.00476855
-0.00545016
-0.0057768
-0.00570969
-0.00522775
-0.00432494
-0.00300804
-0.00129496
0.00078675
0.00320108
0.00590443
0.00884648
0.0119709
0.0152162
0.0185168
0.0218038
0.0250069
0.0280555
0.0308809
0.0334183
0.0356091
0.0374036
0.0387634
0.0396639
0.0400972
0.0400738
0.0396255
0.0388061
0.0376931
0.0363873
0.0350129
0.0337137
0.0326227
0.0318485
0.0038714
0.00253733
0.00120781
-0.000100192
-0.0013612
-0.00247891
-0.00337046
-0.0039745
-0.00424582
-0.00415411
-0.00368278
-0.00282756
-0.0015949
-7.58323e-07
0.00193038
0.00416638
0.0066682
0.00939044
0.0122821
0.0152871
0.0183454
0.021394
0.0243679
0.027202
0.0298327
0.0321999
0.0342492
0.0359344
0.0372194
0.0380811
0.038511
0.0385174
0.0381266
0.0373841
0.0363538
0.035117
0.0337749
0.0324387
0.0311593
0.0299685
0.00594933
0.00409473
0.00248074
0.00104899
-0.000260353
-0.00137982
-0.00224802
-0.00282265
-0.0030723
-0.00297595
-0.00252282
-0.00171162
-0.000549692
0.000947758
0.0027583
0.0048528
0.00719585
0.00974617
0.0124571
0.0152773
0.0181512
0.0210202
0.0238235
0.0265
0.0289895
0.0312349
0.0331842
0.0347924
0.0360244
0.0368561
0.0372772
0.0372921
0.0369211
0.0362008
0.0351821
0.0339297
0.0325259
0.0310575
0.0294989
0.0278147
0.0080067
0.00561141
0.00366795
0.00205509
0.000637863
-0.000538775
-0.00143107
-0.00201364
-0.00226817
-0.00218285
-0.00175314
-0.000981483
0.000123104
0.00154539
0.00326416
0.00525246
0.00747775
0.00990208
0.0124824
0.015171
0.0179157
0.0206614
0.0233504
0.0259239
0.0283239
0.0304946
0.0323845
0.0339487
0.0351508
0.0359647
0.0363767
0.0363865
0.0360078
0.0352685
0.0342083
0.0328777
0.031345
0.0296795
0.0277895
0.0255844
0.00988362
0.00695186
0.00465741
0.00282713
0.00126124
-1.23544e-05
-0.000963907
-0.00158257
-0.00186185
-0.00179863
-0.00139457
-0.000656113
0.000405576
0.00177464
0.00343046
0.0053476
0.00749569
0.00983938
0.0123384
0.0149477
0.017618
0.0202962
0.0229265
0.0254515
0.0278138
0.0299575
0.0318303
0.0333855
0.0345842
0.035397
0.0358055
0.035804
0.0353995
0.0346118
0.0334708
0.0320156
0.0303053
0.0283979
0.026146
0.0234148
0.0114576
0.00800389
0.00535172
0.00328414
0.00154475
0.000148768
-0.000885093
-0.00155842
-0.00187503
-0.00183977
-0.00146013
-0.000746573
0.000287409
0.00162501
0.00324577
0.00512527
0.00723475
0.00954084
0.0120053
0.0145853
0.0172332
0.0198973
0.0225226
0.0250521
0.0274276
0.029592
0.0314908
0.0330742
0.0342996
0.0351327
0.03555
0.0355394
0.0351012
0.0342476
0.0330003
0.0313896
0.0294689
0.02729
0.0246585
0.0214038
0.0126313
0.00867233
0.00566353
0.00334949
0.00142322
-0.000109735
-0.00123931
-0.0019777
-0.00233771
-0.0023313
-0.00197138
-0.00127219
-0.000249548
0.00107863
0.0026918
0.0045662
0.00667426
0.00898407
0.011459
0.0140576
0.0167334
0.0194354
0.0221085
0.0246949
0.0271349
0.0293688
0.0313388
0.032991
0.0342774
0.0351582
0.0356034
0.0355943
0.035124
0.0341978
0.0328301
0.0310448
0.0288921
0.0264222
0.0233991
0.019622
0.0133229
0.00887376
0.00551291
0.00294975
0.000830905
-0.000845682
-0.00207695
-0.00288416
-0.00328808
-0.00330702
-0.00295877
-0.00226106
-0.00123195
0.00010955
0.00174264
0.00364403
0.00578705
0.00814096
0.0106703
0.0133345
0.0160878
0.0188791
0.0216527
0.0243492
0.0269064
0.0292611
0.0313509
0.0331166
0.0345039
0.0354661
0.035966
0.0359772
0.0354856
0.0344894
0.0329969
0.0310267
0.0286286
0.0258534
0.0224278
0.0181239
0.0134595
0.00853215
0.0048249
0.00201392
-0.000297989
-0.00211911
-0.00345225
-0.00432666
-0.00477026
-0.00480707
-0.00445931
-0.0037479
-0.00269294
-0.00131453
0.000366309
0.00232664
0.00454056
0.00697829
0.00960527
0.0123816
0.0152617
0.018194
0.0211217
0.0239829
0.0267123
0.0292423
0.0315049
0.0334342
0.0349686
0.0360533
0.0366425
0.0367014
0.0362081
0.0351535
0.0335401
0.0313822
0.0287307
0.0256392
0.0217986
0.0169552
0.0129727
0.00757544
0.00352722
0.000471975
-0.00202989
-0.00399217
-0.00542276
-0.00635831
-0.00683328
-0.00687695
-0.00651559
-0.00577306
-0.00467134
-0.00323145
-0.00147459
0.000576681
0.00289722
0.00545811
0.00822561
0.0111604
0.0142167
0.0173424
0.0204789
0.0235618
0.0265215
0.0292853
0.0317787
0.0339281
0.035663
0.0369193
0.0376412
0.0377846
0.0373183
0.0362257
0.0345031
0.0321611
0.0292525
0.0258354
0.0215643
0.01616
0.0117951
0.00593278
0.00154824
-0.00174642
-0.00443264
-0.00652938
-0.00804928
-0.0090361
-0.00953052
-0.00956678
-0.009175
-0.00838177
-0.00721077
-0.0056838
-0.00382209
-0.00164772
0.000815027
0.00353819
0.00648891
0.00962833
0.0129108
0.0162832
0.0196851
0.023049
0.0263009
0.0293619
0.0321501
0.034583
0.0365801
0.0380661
0.038974
0.0392483
0.0388476
0.0377467
0.0359347
0.0334183
0.0302528
0.0265013
0.0217807
0.0157851
0.00985831
0.00353251
-0.00118474
-0.0047132
-0.00757625
-0.00979798
-0.0113958
-0.0124206
-0.0129191
-0.0129306
-0.0124889
-0.0116232
-0.0103587
-0.00871788
-0.00672186
-0.00439199
-0.0017515
0.00117286
0.00434932
0.00773976
0.0112986
0.0149721
0.0186979
0.0224051
0.0260149
0.0294418
0.0325955
0.0353834
0.0377134
0.0394974
0.0406553
0.0411183
0.0408328
0.039763
0.03789
0.0352155
0.0317972
0.0277035
0.0225109
0.0158845
0.00709135
0.000300538
-0.00474694
-0.00850308
-0.0115337
-0.0138685
-0.0155298
-0.0165757
-0.0170596
-0.0170256
-0.0165115
-0.015549
-0.0141651
-0.0123824
-0.0102218
-0.00770375
-0.00484999
-0.00168573
0.00175875
0.00544649
0.00933245
0.0133624
0.0174723
0.021588
0.0256257
0.0294929
0.0330899
0.036313
0.0390567
0.0412185
0.0427026
0.0434245
0.0433161
0.0423285
0.0404327
0.0376239
0.0339614
0.0295192
0.0238285
0.0165236
0.0034194
-0.00384099
-0.00921739
-0.0131945
-0.0163819
-0.0188149
-0.0205218
-0.0215683
-0.0220148
-0.021911
-0.0212987
-0.0202125
-0.0186808
-0.0167266
-0.0143704
-0.0116309
-0.00852842
-0.00508587
-0.00133147
0.00269958
0.00696337
0.0114059
0.0159618
0.020554
0.0250938
0.0294813
0.033607
0.0373547
0.0406042
0.043236
0.0451362
0.0462017
0.0463464
0.0455054
0.0436366
0.0407263
0.0368344
0.0320392
0.025822
0.0177825
-0.00123718
-0.00897496
-0.0146803
-0.0188712
-0.0222023
-0.0247156
-0.026446
-0.0274679
-0.0278496
-0.027647
-0.0269066
-0.0256661
-0.0239555
-0.0217983
-0.0192138
-0.0162194
-0.0128326
-0.00907379
-0.00496823
-0.000548497
0.00414353
0.00905482
0.0141197
0.0192588
0.0243787
0.0293721
0.0341195
0.038491
0.0423501
0.045558
0.0479796
0.0494897
0.0499801
0.049366
0.0475881
0.0446205
0.0405214
0.0353723
0.028598
0.0197601
-0.00696382
-0.0151909
-0.0212267
-0.0256232
-0.0290821
-0.0316536
-0.0333799
-0.0343461
-0.0346294
-0.0342932
-0.0333894
-0.0319596
-0.0300353
-0.0276407
-0.0247937
-0.0215097
-0.0178031
-0.0136905
-0.00919347
-0.00434077
0.00082892
0.00626479
0.0119019
0.0176596
0.0234407
0.0291309
0.0346003
0.0397048
0.0442898
0.0481948
0.0512603
0.0533345
0.0542826
0.0539943
0.0523881
0.0494214
0.0451474
0.0396489
0.0322861
0.0225781
-0.013853
-0.0225865
-0.028956
-0.0335485
-0.0371157
-0.0397172
-0.0414049
-0.0422762
-0.0424194
-0.0419068
-0.0407973
-0.0391367
-0.0369591
-0.0342889
-0.0311428
-0.0275333
-0.0234709
-0.0189678
-0.0140402
-0.00871192
-0.00301684
0.00299796
0.00926985
0.0157184
0.0222437
0.0287256
0.035024
0.0409802
0.0464202
0.0511594
0.05501
0.057789
0.059329
0.0594879
0.0581553
0.0552654
0.050862
0.045026
0.0370435
0.0263864
-0.022006
-0.0312702
-0.0379791
-0.0427558
-0.0464061
-0.0490012
-0.0506055
-0.0513318
-0.0512821
-0.05054
-0.0491728
-0.0472321
-0.0447549
-0.0417659
-0.0382806
-0.0343077
-0.0298533
-0.0249233
-0.0195277
-0.0136834
-0.00741786
-0.00077236
0.00619474
0.0134052
0.0207583
0.0281295
0.0353694
0.042305
0.0487417
0.0544687
0.0592661
0.0629143
0.0652064
0.0659607
0.0650289
0.062314
0.057844
0.051693
0.0430615
0.0313686
-0.0315357
-0.0413648
-0.0484217
-0.0533672
-0.0570671
-0.0596079
-0.0610702
-0.0615863
-0.061276
-0.0602372
-0.0585478
-0.0562668
-0.0534348
-0.0500774
-0.046208
-0.0418313
-0.0369473
-0.0315549
-0.0256557
-0.019258
-0.0123804
-0.00505634
0.00266273
0.0107033
0.0189664
0.0273251
0.0356228
0.0436727
0.0512598
0.0581452
0.0640729
0.0687811
0.0720155
0.0735448
0.0731725
0.0707591
0.0663077
0.0598787
0.0505724
0.0377491
-0.0425701
-0.0530121
-0.060429
-0.0655225
-0.0692267
-0.0716484
-0.0728906
-0.073111
-0.0724522
-0.0710307
-0.0689383
-0.0662427
-0.0629896
-0.0592055
-0.0549012
-0.0500766
-0.0447244
-0.0388344
-0.0323982
-0.0254131
-0.0178868
-0.0098416
-0.00131931
0.00761446
0.0168658
0.0263086
0.0357816
0.0450864
0.0539881
0.0622186
0.069483
0.075471
0.0798721
0.082394
0.0827781
0.0808284
0.0765101
0.0698598
0.0598593
0.0458018
-0.0552589
-0.0663806
-0.0741738
-0.0793853
-0.0830305
-0.0852448
-0.0861616
-0.0859728
-0.0848511
-0.0829367
-0.0803389
-0.077137
-0.0733824
-0.0691024
-0.0643051
-0.0589839
-0.0531228
-0.0467006
-0.0396966
-0.0320948
-0.0238887
-0.0150867
-0.00571749
0.00416517
0.0144764
0.025095
0.0358589
0.0465615
0.0569503
0.0667282
0.0755591
0.0830783
0.0889096
0.0926865
0.0940713
0.0927926
0.0887606
0.0819724
0.0712676
0.0558621
-0.0697822
-0.0816762
-0.0898659
-0.0951509
-0.0986475
-0.100532
-0.100981
-0.100232
-0.0984972
-0.0959482
-0.0927162
-0.0888943
-0.0845406
-0.0796832
-0.0743259
-0.0684543
-0.0620414
-0.0550532
-0.0474537
-0.0392108
-0.030301
-0.0207153
-0.0104649
0.000412199
0.0118451
0.0237229
0.0358879
0.0481304
0.060184
0.071725
0.0823751
0.0917108
0.0992805
0.104628
0.107316
0.106974
0.103432
0.0966264
0.0852209
0.0683409
-0.0863643
-0.0991579
-0.107767
-0.113058
-0.116276
-0.11766
-0.117446
-0.115935
-0.113393
-0.110028
-0.106
-0.101419
-0.0963486
-0.0908177
-0.084824
-0.0783428
-0.0713337
-0.0637465
-0.0555278
-0.0466258
-0.0369968
-0.0266105
-0.0154567
-0.0035523
0.00905122
0.0222594
0.035926
0.0498448
0.0637423
0.0772725
0.0900169
0.10149
0.111157
0.118454
0.122821
0.123755
0.120976
0.114324
0.102243
0.0837455
-0.105294
-0.119162
-0.128213
-0.133402
-0.136154
-0.136796
-0.135654
-0.133113
-0.129508
-0.125098
-0.120074
-0.114564
-0.108639
-0.102324
-0.0956078
-0.0884532
-0.0808024
-0.072586
-0.0637293
-0.054158
-0.0438042
-0.0326126
-0.020547
-0.00759804
0.00620864
0.0208023
0.0360566
0.051778
0.0676946
0.0834467
0.0985808
0.112551
0.124729
0.13443
0.140942
0.143592
0.141941
0.135687
0.122985
0.102707
-0.126959
-0.142136
-0.151642
-0.156559
-0.158565
-0.158124
-0.15569
-0.151765
-0.146771
-0.141028
-0.134764
-0.128124
-0.121182
-0.113959
-0.106428
-0.0985341
-0.0901978
-0.0813265
-0.0718206
-0.0615793
-0.0505071
-0.0385197
-0.0255502
-0.0115575
0.00346529
0.0194794
0.0363882
0.0540223
0.0721241
0.0903324
0.108169
0.125033
0.140202
0.152853
0.162091
0.167025
0.166996
0.16149
0.148272
0.126021
-0.151892
-0.168693
-0.178639
-0.183007
-0.18385
-0.181844
-0.177624
-0.171847
-0.165048
-0.157617
-0.149821
-0.141819
-0.133683
-0.125417
-0.116976
-0.108279
-0.099219
-0.0896757
-0.0795198
-0.0686204
-0.0568508
-0.0440934
-0.0302465
-0.0152318
0.00099702
0.0184423
0.0370481
0.0566831
0.0771201
0.0980141
0.11888
0.139073
0.157783
0.174038
0.186729
0.19469
0.196961
0.19271
0.17916
0.154706
-0.180853
-0.199694
-0.209996
-0.213362
-0.212418
-0.208159
-0.201481
-0.193244
-0.18412
-0.174575
-0.16491
-0.155288
-0.145766
-0.136324
-0.126883
-0.117329
-0.10752
-0.0973019
-0.0865108
-0.074982
-0.0625535
-0.0490715
-0.0343954
-0.0184042
-0.00100554
0.017853
0.0381687
0.0598642
0.0827629
0.106559
0.130786
0.154781
0.17766
0.198306
0.215364
0.227329
0.23284
0.230593
0.217031
0.190103
-0.214964
-0.236374
-0.246799
-0.248417
-0.24474
-0.237254
-0.227213
-0.215738
-0.203652
-0.191497
-0.179589
-0.168076
-0.156982
-0.14624
-0.135728
-0.125284
-0.114723
-0.103849
-0.0924602
-0.0803524
-0.0673262
-0.0531883
-0.0377556
-0.0208606
-0.00235851
0.0178622
0.0398649
0.0636441
0.0890972
0.115989
0.143906
0.172206
0.199967
0.22594
0.24852
0.265791
0.275861
0.276747
0.263735
0.234021
-0.255939
-0.280546
-0.29055
-0.289176
-0.281335
-0.269247
-0.254641
-0.23895
-0.22315
-0.207829
-0.193289
-0.179625
-0.166796
-0.154668
-0.143049
-0.131719
-0.120438
-0.108961
-0.0970409
-0.0844336
-0.0708987
-0.0562015
-0.0401142
-0.0224195
-0.00291518
0.0185777
0.0422012
0.0680405
0.0960946
0.126235
0.158151
0.191276
0.224711
0.257129
0.286682
0.311
0.327514
0.333271
0.321812
0.289016
-0.306503
-0.33492
-0.343323
-0.336875
-0.322708
-0.304093
-0.283359
-0.262264
-0.2419
-0.222838
-0.205299
-0.189274
-0.174609
-0.161067
-0.148367
-0.13621
-0.124291
-0.112307
-0.099964
-0.0869735
-0.0730534
-0.0579271
-0.0413217
-0.0229683
-0.00260376
0.0200246
0.045149
0.0729643
0.103601
0.13708
0.173255
0.211716
0.251682
0.291844
0.330189
0.363886
0.389558
0.402913
0.394843
0.358859
-0.371185
-0.40363
-0.40795
-0.392949
-0.369211
-0.341429
-0.312593
-0.284722
-0.258904
-0.23557
-0.214756
-0.196263
-0.179766
-0.164883
-0.151216
-0.138368
-0.125958
-0.113623
-0.101015
-0.0878022
-0.073662
-0.0582769
-0.0413303
-0.0225025
-0.00146869
0.0221015
0.0485393
0.0781667
0.111274
0.148083
0.188682
0.232925
0.280291
0.329665
0.379036
0.425222
0.463975
0.489255
0.488007
0.44946
-0.457932
-0.493052
-0.488161
-0.458829
-0.42074
-0.380284
-0.340982
-0.304877
-0.272797
-0.244823
-0.220643
-0.199756
-0.181596
-0.165587
-0.151185
-0.137881
-0.125211
-0.112747
-0.100091
-0.0868693
-0.0727215
-0.0572937
-0.0402295
-0.0211626
0.000291195
0.0245395
0.0520172
0.0831854
0.118522
0.158494
0.203511
0.253821
0.309361
0.36948
0.432509
0.495234
0.552704
0.596829
0.608963
0.570708
-0.5814
-0.613031
-0.588407
-0.535286
-0.476058
-0.418538
-0.36621
-0.320575
-0.281743
-0.24911
-0.221799
-0.198877
-0.179452
-0.162717
-0.147959
-0.134552
-0.121947
-0.109655
-0.0972336
-0.0842725
-0.0703817
-0.0551779
-0.0382726
-0.0192602
0.00229492
0.0268718
0.0550059
0.087301
0.124438
0.167171
0.216308
0.27264
0.336808
0.409021
0.488523
0.572787
0.656852
0.730835
0.769056
0.740106
-0.76878
-0.778133
-0.713009
-0.62125
-0.531797
-0.452256
-0.384646
-0.328821
-0.283425
-0.246719
-0.217009
-0.192793
-0.172795
-0.155954
-0.141385
-0.128353
-0.116235
-0.104492
-0.0926502
-0.0802746
-0.0669559
-0.0522929
-0.0358764
-0.017274
0.00398864
0.0284475
0.0567246
0.0895555
0.127821
0.172581
0.225097
0.286841
0.35943
0.444436
0.542877
0.654275
0.775356
0.896078
0.984211
0.988497
-1.07025
-1.00797
-0.864477
-0.712859
-0.58207
-0.475697
-0.391645
-0.326223
-0.275533
-0.236172
-0.205396
-0.18105
-0.161462
-0.14533
-0.131632
-0.119546
-0.108402
-0.0976352
-0.0867551
-0.0753204
-0.0629174
-0.0491411
-0.033577
-0.0157822
0.00473661
0.0285496
0.0563379
0.0889375
0.127398
0.17306
0.227649
0.293397
0.373145
0.470388
0.589108
0.733063
0.903763
1.0949
1.27468
1.36962
-1.59906
-1.32613
-1.0336
-0.796217
-0.614241
-0.47908
-0.38049
-0.30855
-0.255583
-0.216136
-0.186358
-0.163502
-0.145585
-0.131154
-0.119111
-0.108608
-0.0989665
-0.0896277
-0.0801114
-0.069989
-0.0588606
-0.0463347
-0.0320098
-0.0154534
0.00382131
0.0263856
0.0529358
0.0843504
0.121772
0.166726
0.221305
0.288425
0.372205
0.478479
0.615507
0.794248
1.02579
1.31669
1.66574
2.00253
-2.65523
-1.74399
-1.1513
-0.808595
-0.584097
-0.433274
-0.332475
-0.263816
-0.215773
-0.181396
-0.156308
-0.137618
-0.123358
-0.112133
-0.102925
-0.0949542
-0.0876074
-0.080379
-0.0728367
-0.0645944
-0.0552911
-0.0445732
-0.0320773
-0.0174111
-0.000132094
0.0202814
0.0444698
0.0732499
0.107703
0.149311
0.200185
0.26344
0.343824
0.448871
0.591055
0.790488
1.07486
1.49051
2.17143
3.19147
-4.48076
-2.15651
-1.07768
-0.65583
-0.438147
-0.309624
-0.23218
-0.183392
-0.150997
-0.128718
-0.113053
-0.101834
-0.0936216
-0.0874064
-0.0824402
-0.0781432
-0.0740476
-0.0697607
-0.0649401
-0.0592754
-0.0524733
-0.0442446
-0.0342916
-0.0222953
-0.00789855
0.00931449
0.0298474
0.0543338
0.0836024
0.118783
0.161488
0.214143
0.280632
0.36771
0.488311
0.667673
0.953167
1.46969
2.66367
5.10859
)
;

boundaryField
{
    movingWall
    {
        type            zeroGradient;
    }
    fixedWalls
    {
        type            zeroGradient;
    }
    frontAndBack
    {
        type            empty;
    }
}


// ************************************************************************* //
