/*--------------------------------*- C++ -*----------------------------------*\
  =========                 |
  \\      /  F ield         | OpenFOAM: The Open Source CFD Toolbox
   \\    /   O peration     | Website:  https://openfoam.org
    \\  /    A nd           | Version:  9
     \\/     M anipulation  |
\*---------------------------------------------------------------------------*/
FoamFile
{
    format      ascii;
    class       surfaceScalarField;
    location    "0.3";
    object      phi;
}
// * * * * * * * * * * * * * * * * * * * * * * * * * * * * * * * * * * * * * //

dimensions      [0 3 -1 0 0 0 0];

internalField   nonuniform List<scalar> 
3120
(
2.53271e-09
-2.53263e-09
3.99496e-09
-1.46229e-09
2.0004e-09
1.99466e-09
-3.96112e-09
5.96152e-09
-1.3663e-08
9.7019e-09
-2.65714e-08
1.29083e-08
-4.20351e-08
1.54637e-08
-5.93791e-08
1.73439e-08
-7.79471e-08
1.85681e-08
-9.71218e-08
1.91747e-08
-1.16332e-07
1.921e-08
-1.35055e-07
1.8723e-08
-1.52817e-07
1.77627e-08
-1.69195e-07
1.63773e-08
-1.83808e-07
1.46137e-08
-1.96327e-07
1.25185e-08
-2.06465e-07
1.01387e-08
-2.13988e-07
7.5226e-09
-2.18709e-07
4.72102e-09
-2.20497e-07
1.78816e-09
-2.19279e-07
-1.21766e-09
-2.15046e-07
-4.23353e-09
-2.07854e-07
-7.19197e-09
-1.97833e-07
-1.00212e-08
-1.85187e-07
-1.26462e-08
-1.70197e-07
-1.49896e-08
-1.53223e-07
-1.69738e-08
-1.347e-07
-1.8523e-08
-1.15135e-07
-1.95656e-08
-9.50976e-08
-2.00369e-08
-7.52156e-08
-1.9882e-08
-5.61565e-08
-1.90592e-08
-3.86133e-08
-1.75432e-08
-2.32817e-08
-1.53316e-08
-1.0828e-08
-1.24536e-08
-1.83608e-09
-8.99188e-09
3.2906e-09
-5.12666e-09
4.51427e-09
-1.22367e-09
2.57203e-09
1.94226e-09
2.57208e-09
1.52453e-09
-4.05707e-09
-1.51877e-09
1.5809e-09
-1.24013e-08
1.28772e-08
-3.20979e-08
2.56579e-08
-6.03302e-08
3.79344e-08
-9.61028e-08
4.8681e-08
-1.38041e-07
5.74023e-08
-1.84608e-07
6.39105e-08
-2.34227e-07
6.81872e-08
-2.85358e-07
7.03055e-08
-3.36536e-07
7.03881e-08
-3.86397e-07
6.85832e-08
-4.33685e-07
6.50511e-08
-4.77265e-07
5.99576e-08
-5.16123e-07
5.34714e-08
-5.49369e-07
4.57639e-08
-5.76241e-07
3.70109e-08
-5.96113e-07
2.7395e-08
-6.085e-07
1.71081e-08
-6.13067e-07
6.35458e-09
-6.09637e-07
-4.64759e-09
-5.98205e-07
-1.56653e-08
-5.78946e-07
-2.64509e-08
-5.52224e-07
-3.67434e-08
-5.18597e-07
-4.62724e-08
-4.78825e-07
-5.47624e-08
-4.33859e-07
-6.19393e-08
-3.84843e-07
-6.75385e-08
-3.33095e-07
-7.13138e-08
-2.80084e-07
-7.30481e-08
-2.27402e-07
-7.25647e-08
-1.7672e-07
-6.9741e-08
-1.29738e-07
-6.4525e-08
-8.81111e-08
-5.69584e-08
-5.3352e-08
-4.72126e-08
-2.66895e-08
-3.56543e-08
-8.85366e-09
-2.29625e-08
2.43559e-10
-1.03209e-08
1.99839e-09
1.87491e-10
4.57047e-09
-1.83736e-09
-2.21975e-09
-1.2675e-08
1.24187e-08
-3.51378e-08
3.534e-08
-6.99714e-08
6.04913e-08
-1.16665e-07
8.46275e-08
-1.73865e-07
1.05882e-07
-2.3971e-07
1.23246e-07
-3.12064e-07
1.36265e-07
-3.88692e-07
1.44816e-07
-4.67365e-07
1.48978e-07
-5.45929e-07
1.48952e-07
-6.22351e-07
1.45005e-07
-6.94748e-07
1.37448e-07
-7.61404e-07
1.26613e-07
-8.2078e-07
1.12847e-07
-8.71525e-07
9.65092e-08
-9.12486e-07
7.79722e-08
-9.42717e-07
5.7626e-08
-9.6149e-07
3.58811e-08
-9.68309e-07
1.31731e-08
-9.62922e-07
-1.00344e-08
-9.45339e-07
-3.32487e-08
-9.1584e-07
-5.5949e-08
-8.74993e-07
-7.75906e-08
-8.23654e-07
-9.76116e-08
-7.62973e-07
-1.15444e-07
-6.94387e-07
-1.30525e-07
-6.19609e-07
-1.42317e-07
-5.40598e-07
-1.50325e-07
-4.59528e-07
-1.54118e-07
-3.78735e-07
-1.53358e-07
-3.00651e-07
-1.47825e-07
-2.27721e-07
-1.37455e-07
-1.62291e-07
-1.22389e-07
-1.06468e-07
-1.03036e-07
-6.19338e-08
-8.0188e-08
-2.97032e-08
-5.5193e-08
-9.81399e-09
-3.02101e-08
-9.78374e-10
-8.64808e-09
3.59206e-09
-5.80012e-09
3.58029e-09
-2.57195e-08
3.2338e-08
-6.1048e-08
7.06688e-08
-1.11816e-07
1.11259e-07
-1.77018e-07
1.49829e-07
-2.54872e-07
1.83736e-07
-3.43076e-07
2.1145e-07
-4.39019e-07
2.32208e-07
-5.39955e-07
2.45751e-07
-6.4312e-07
2.52143e-07
-7.45824e-07
2.51656e-07
-8.45509e-07
2.44691e-07
-9.39789e-07
2.31729e-07
-1.02648e-06
2.13304e-07
-1.10362e-06
1.89985e-07
-1.16948e-06
1.62368e-07
-1.22258e-06
1.3108e-07
-1.26173e-06
9.67751e-08
-1.286e-06
6.01476e-08
-1.29476e-06
2.19312e-08
-1.2877e-06
-1.70946e-08
-1.26484e-06
-5.61044e-08
-1.22656e-06
-9.42295e-08
-1.17359e-06
-1.30565e-07
-1.10702e-06
-1.64181e-07
-1.02832e-06
-1.94142e-07
-9.39316e-07
-2.19527e-07
-8.42175e-07
-2.39458e-07
-7.39364e-07
-2.53135e-07
-6.33613e-07
-2.59869e-07
-5.27842e-07
-2.59129e-07
-4.25077e-07
-2.50589e-07
-3.28346e-07
-2.34186e-07
-2.40544e-07
-2.10191e-07
-1.6427e-07
-1.7931e-07
-1.01638e-07
-1.4282e-07
-5.40482e-08
-1.02782e-07
-2.19531e-08
-6.23053e-08
-4.63251e-09
-2.59686e-08
-1.04041e-09
-9.75631e-09
1.33366e-08
-3.90809e-08
6.16624e-08
-8.77177e-08
1.19306e-07
-1.54705e-07
1.78246e-07
-2.38344e-07
2.33468e-07
-3.36317e-07
2.8171e-07
-4.45858e-07
3.20991e-07
-5.63917e-07
3.50267e-07
-6.8731e-07
3.69145e-07
-8.1284e-07
3.77673e-07
-9.37383e-07
3.76199e-07
-1.05796e-06
3.65266e-07
-1.17178e-06
3.4555e-07
-1.27629e-06
3.1781e-07
-1.36917e-06
2.82871e-07
-1.44841e-06
2.41607e-07
-1.51227e-06
1.94938e-07
-1.55933e-06
1.43834e-07
-1.5885e-06
8.93227e-08
-1.59906e-06
3.24895e-08
-1.59064e-06
-2.55142e-08
-1.56327e-06
-8.34722e-08
-1.5174e-06
-1.40108e-07
-1.45386e-06
-1.94096e-07
-1.37397e-06
-2.44078e-07
-1.27942e-06
-2.8869e-07
-1.17235e-06
-3.26594e-07
-1.05529e-06
-3.56521e-07
-9.31111e-07
-3.77315e-07
-8.02988e-07
-3.87993e-07
-6.74316e-07
-3.87801e-07
-5.48615e-07
-3.76291e-07
-4.29405e-07
-3.53396e-07
-3.20068e-07
-3.19528e-07
-2.2368e-07
-2.75698e-07
-1.42829e-07
-2.23672e-07
-7.94285e-08
-1.66183e-07
-3.45509e-08
-1.07183e-07
-8.32737e-09
-5.21921e-08
-9.3677e-09
-1.35032e-08
2.684e-08
-5.20815e-08
1.00241e-07
-1.13971e-07
1.81195e-07
-1.97108e-07
2.61383e-07
-2.98974e-07
3.35335e-07
-4.16625e-07
3.9936e-07
-5.4678e-07
4.51145e-07
-6.85944e-07
4.89431e-07
-8.30529e-07
5.13729e-07
-9.76951e-07
5.24096e-07
-1.12172e-06
5.20971e-07
-1.26152e-06
5.05061e-07
-1.39322e-06
4.77253e-07
-1.51397e-06
4.38559e-07
-1.62118e-06
3.90085e-07
-1.71259e-06
3.33013e-07
-1.78625e-06
2.68594e-07
-1.84056e-06
1.9815e-07
-1.87432e-06
1.23078e-07
-1.88669e-06
4.48586e-08
-1.87726e-06
-3.49422e-08
-1.84606e-06
-1.14673e-07
-1.79357e-06
-1.92602e-07
-1.72073e-06
-2.66934e-07
-1.62897e-06
-3.35835e-07
-1.5202e-06
-3.97463e-07
-1.39677e-06
-4.50015e-07
-1.26152e-06
-4.91779e-07
-1.11763e-06
-5.21202e-07
-9.68659e-07
-5.36963e-07
-8.18407e-07
-5.38053e-07
-6.70826e-07
-5.23872e-07
-5.29896e-07
-4.94326e-07
-3.99474e-07
-4.49949e-07
-2.83142e-07
-3.9203e-07
-1.84033e-07
-3.22781e-07
-1.04683e-07
-2.45533e-07
-4.69207e-08
-1.64945e-07
-1.18472e-08
-8.72655e-08
-2.12149e-08
-1.69989e-08
4.38389e-08
-6.44867e-08
1.47728e-07
-1.39325e-07
2.56033e-07
-2.38337e-07
3.60395e-07
-3.58125e-07
4.55124e-07
-4.9505e-07
5.36285e-07
-6.45272e-07
6.01366e-07
-8.04828e-07
6.48988e-07
-9.69727e-07
6.78628e-07
-1.13603e-06
6.90396e-07
-1.29992e-06
6.84862e-07
-1.45778e-06
6.62918e-07
-1.60621e-06
6.2569e-07
-1.74212e-06
5.74465e-07
-1.86269e-06
5.10659e-07
-1.96546e-06
4.35784e-07
-2.04832e-06
3.51449e-07
-2.10952e-06
2.59353e-07
-2.14774e-06
1.61296e-07
-2.16206e-06
5.91795e-08
-2.15202e-06
-4.49829e-08
-2.11762e-06
-1.49071e-07
-2.05936e-06
-2.50863e-07
-1.97824e-06
-3.48058e-07
-1.87577e-06
-4.38303e-07
-1.754e-06
-5.19235e-07
-1.61547e-06
-5.88541e-07
-1.46323e-06
-6.44024e-07
-1.30075e-06
-6.83683e-07
-1.1319e-06
-7.05812e-07
-9.60847e-07
-7.09103e-07
-7.9196e-07
-6.92758e-07
-6.29672e-07
-6.56615e-07
-4.78342e-07
-6.01279e-07
-3.42103e-07
-5.2827e-07
-2.24708e-07
-4.40175e-07
-1.29405e-07
-3.40836e-07
-5.88559e-08
-2.35494e-07
-1.51524e-08
-1.30969e-07
-3.63673e-08
-2.02685e-08
6.41074e-08
-7.62854e-08
2.03745e-07
-1.63682e-07
3.4343e-07
-2.78207e-07
4.7492e-07
-4.15568e-07
5.92484e-07
-5.7139e-07
6.92108e-07
-7.41237e-07
7.71213e-07
-9.20655e-07
8.28406e-07
-1.10524e-06
8.63216e-07
-1.29071e-06
8.75866e-07
-1.47295e-06
8.67101e-07
-1.64807e-06
8.3804e-07
-1.81246e-06
7.90077e-07
-1.9628e-06
7.24803e-07
-2.0961e-06
6.43961e-07
-2.20974e-06
5.49422e-07
-2.30146e-06
4.43168e-07
-2.3694e-06
3.27296e-07
-2.41213e-06
2.04027e-07
-2.42866e-06
7.5705e-08
-2.41845e-06
-5.51891e-08
-2.38148e-06
-1.86043e-07
-2.31822e-06
-3.1412e-07
-2.22969e-06
-4.36584e-07
-2.11747e-06
-5.50529e-07
-1.98367e-06
-6.53035e-07
-1.83097e-06
-7.41235e-07
-1.6626e-06
-8.12394e-07
-1.48227e-06
-8.64016e-07
-1.29413e-06
-8.93953e-07
-1.1027e-06
-9.00536e-07
-9.12744e-07
-8.8271e-07
-7.2918e-07
-8.40178e-07
-5.56905e-07
-7.73554e-07
-4.00662e-07
-6.84513e-07
-2.64896e-07
-5.75942e-07
-1.5363e-07
-4.52101e-07
-7.04051e-08
-3.18719e-07
-1.82831e-08
-1.83091e-07
-5.46504e-08
-2.33581e-08
8.74654e-08
-8.75618e-08
2.67949e-07
-1.87135e-07
4.43004e-07
-3.16804e-07
6.04589e-07
-4.71385e-07
7.47066e-07
-6.45754e-07
8.66477e-07
-8.34852e-07
9.6031e-07
-1.03371e-06
1.02727e-06
-1.23752e-06
1.06702e-06
-1.44164e-06
1.07999e-06
-1.64168e-06
1.06714e-06
-1.83351e-06
1.02987e-06
-2.01331e-06
9.69875e-07
-2.17759e-06
8.89084e-07
-2.32322e-06
7.89593e-07
-2.44744e-06
6.73642e-07
-2.54788e-06
5.43607e-07
-2.62258e-06
4.01995e-07
-2.67e-06
2.51454e-07
-2.68908e-06
9.47852e-08
-2.67922e-06
-6.50549e-08
-2.64031e-06
-2.24948e-07
-2.57281e-06
-3.81627e-07
-2.47769e-06
-5.31696e-07
-2.35655e-06
-6.71672e-07
-2.21155e-06
-7.9804e-07
-2.04545e-06
-9.07335e-07
-1.8616e-06
-9.96237e-07
-1.66393e-06
-1.06169e-06
-1.45684e-06
-1.10104e-06
-1.2452e-06
-1.11218e-06
-1.03419e-06
-1.09372e-06
-8.29231e-07
-1.04514e-06
-6.35797e-07
-9.66988e-07
-4.59308e-07
-8.61001e-07
-3.04964e-07
-7.30286e-07
-1.77627e-07
-5.79439e-07
-8.17381e-08
-4.14608e-07
-2.13094e-08
-2.4352e-07
-7.59597e-08
-2.63162e-08
1.13782e-07
-9.84324e-08
3.40066e-07
-2.09854e-07
5.54425e-07
-3.54333e-07
7.49067e-07
-5.2581e-07
9.18543e-07
-7.18406e-07
1.05907e-06
-9.26425e-07
1.16833e-06
-1.14438e-06
1.24522e-06
-1.36703e-06
1.28967e-06
-1.58939e-06
1.30235e-06
-1.80679e-06
1.28454e-06
-2.0149e-06
1.23797e-06
-2.20971e-06
1.16468e-06
-2.38759e-06
1.06697e-06
-2.54529e-06
9.47295e-07
-2.67995e-06
8.08297e-07
-2.78909e-06
6.5275e-07
-2.87067e-06
4.83577e-07
-2.92308e-06
3.03859e-07
-2.94514e-06
1.1685e-07
-2.93618e-06
-7.40127e-08
-2.89603e-06
-2.65103e-07
-2.82504e-06
-4.52614e-07
-2.72416e-06
-6.32578e-07
-2.59492e-06
-8.00911e-07
-2.43949e-06
-9.53471e-07
-2.26067e-06
-1.08615e-06
-2.06192e-06
-1.19499e-06
-1.8473e-06
-1.27631e-06
-1.62149e-06
-1.32685e-06
-1.38967e-06
-1.344e-06
-1.15747e-06
-1.32592e-06
-9.3083e-07
-1.27178e-06
-7.15869e-07
-1.18195e-06
-5.18737e-07
-1.05813e-06
-3.45454e-07
-9.03569e-07
-2.01773e-07
-7.23119e-07
-9.30755e-08
-5.23305e-07
-2.43099e-08
-3.12285e-07
-1.0027e-07
-2.91867e-08
1.42968e-07
-1.09016e-07
4.19894e-07
-2.3203e-07
6.7744e-07
-3.91042e-07
9.0808e-07
-5.79133e-07
1.10663e-06
-7.89666e-07
1.26961e-06
-1.0163e-06
1.39496e-06
-1.25302e-06
1.48194e-06
-1.49415e-06
1.5308e-06
-1.73437e-06
1.54257e-06
-1.96876e-06
1.51893e-06
-2.19276e-06
1.46198e-06
-2.40224e-06
1.37416e-06
-2.59344e-06
1.25817e-06
-2.76301e-06
1.11687e-06
-2.90801e-06
9.53298e-07
-3.0259e-06
7.70641e-07
-3.11456e-06
5.72234e-07
-3.17228e-06
3.61585e-07
-3.19783e-06
1.42394e-07
-3.19041e-06
-8.14318e-08
-3.14975e-06
-3.05763e-07
-3.07611e-06
-5.26254e-07
-2.97033e-06
-7.3836e-07
-2.83386e-06
-9.37378e-07
-2.66882e-06
-1.11851e-06
-2.478e-06
-1.27697e-06
-2.26491e-06
-1.40808e-06
-2.03374e-06
-1.50747e-06
-1.78939e-06
-1.5712e-06
-1.53738e-06
-1.59601e-06
-1.28377e-06
-1.57953e-06
-1.03506e-06
-1.52049e-06
-7.98074e-07
-1.41894e-06
-5.79743e-07
-1.27647e-06
-3.86981e-07
-1.09633e-06
-2.26497e-07
-8.83603e-07
-1.04654e-07
-6.45148e-07
-2.7363e-08
-3.89577e-07
-1.27632e-07
-3.20067e-08
1.74975e-07
-1.1942e-07
5.07307e-07
-2.53846e-07
8.11866e-07
-4.27178e-07
1.08141e-06
-6.31642e-07
1.3111e-06
-8.59842e-07
1.49781e-06
-1.10479e-06
1.63991e-06
-1.35993e-06
1.73709e-06
-1.61917e-06
1.79003e-06
-1.87685e-06
1.80026e-06
-2.1278e-06
1.76988e-06
-2.3673e-06
1.70147e-06
-2.59107e-06
1.59793e-06
-2.79527e-06
1.46237e-06
-2.9765e-06
1.29809e-06
-3.13175e-06
1.10855e-06
-3.25843e-06
8.97326e-07
-3.35437e-06
6.6817e-07
-3.41778e-06
4.25003e-07
-3.44734e-06
1.71952e-07
-3.44215e-06
-8.66227e-08
-3.40181e-06
-3.46107e-07
-3.32643e-06
-6.01628e-07
-3.21673e-06
-8.48067e-07
-3.07401e-06
-1.08009e-06
-2.90029e-06
-1.29223e-06
-2.6983e-06
-1.47896e-06
-2.47155e-06
-1.63484e-06
-2.22431e-06
-1.7547e-06
-1.96168e-06
-1.83383e-06
-1.68947e-06
-1.86822e-06
-1.41421e-06
-1.85479e-06
-1.143e-06
-1.7917e-06
-8.83377e-07
-1.67856e-06
-6.43146e-07
-1.5167e-06
-4.30183e-07
-1.30929e-06
-2.52233e-07
-1.06155e-06
-1.16711e-07
-7.80669e-07
-3.05438e-08
-4.75744e-07
-1.58176e-07
-3.48073e-08
2.09782e-07
-1.29738e-07
6.02238e-07
-2.75467e-07
9.57594e-07
-4.62962e-07
1.26891e-06
-6.83594e-07
1.53173e-06
-9.29201e-07
1.74341e-06
-1.19214e-06
1.90285e-06
-1.46532e-06
2.01027e-06
-1.74222e-06
2.06693e-06
-2.01688e-06
2.07491e-06
-2.28388e-06
2.03688e-06
-2.53836e-06
1.95595e-06
-2.77594e-06
1.83551e-06
-2.99274e-06
1.67916e-06
-3.18531e-06
1.49066e-06
-3.35063e-06
1.27387e-06
-3.48609e-06
1.03279e-06
-3.58947e-06
7.7155e-07
-3.65894e-06
4.94471e-07
-3.69306e-06
2.06078e-07
-3.69084e-06
-8.88464e-08
-3.65171e-06
-3.85233e-07
-3.57564e-06
-6.77705e-07
-3.46312e-06
-9.60582e-07
-3.31531e-06
-1.22791e-06
-3.13403e-06
-1.47351e-06
-2.9219e-06
-1.69109e-06
-2.68235e-06
-1.87439e-06
-2.4197e-06
-2.01736e-06
-2.13917e-06
-2.11436e-06
-1.84688e-06
-2.16051e-06
-1.54979e-06
-2.15187e-06
-1.25563e-06
-2.08586e-06
-9.72699e-07
-1.96149e-06
-7.09743e-07
-1.77965e-06
-4.75688e-07
-1.54335e-06
-2.79409e-07
-1.25783e-06
-1.29476e-07
-9.30603e-07
-3.39232e-08
-5.71297e-07
-1.92099e-07
-3.76139e-08
2.47396e-07
-1.40053e-07
7.04677e-07
-2.97034e-07
1.11458e-06
-4.98588e-07
1.47046e-06
-7.35206e-07
1.76835e-06
-9.97948e-07
2.00615e-06
-1.27851e-06
2.18341e-06
-1.56926e-06
2.30102e-06
-1.86327e-06
2.36093e-06
-2.15426e-06
2.36591e-06
-2.43664e-06
2.31926e-06
-2.70541e-06
2.22472e-06
-2.95614e-06
2.08625e-06
-3.18494e-06
1.90796e-06
-3.38837e-06
1.69409e-06
-3.56344e-06
1.44893e-06
-3.70754e-06
1.17688e-06
-3.81843e-06
8.82445e-07
-3.89425e-06
5.70292e-07
-3.93349e-06
2.45312e-07
-3.935e-06
-8.73315e-08
-3.89808e-06
-4.22156e-07
-3.82246e-06
-7.53319e-07
-3.70844e-06
-1.07461e-06
-3.55689e-06
-1.37945e-06
-3.36943e-06
-1.66097e-06
-3.14845e-06
-1.91207e-06
-2.89725e-06
-2.12559e-06
-2.62011e-06
-2.2945e-06
-2.32232e-06
-2.41215e-06
-2.01026e-06
-2.47257e-06
-1.69131e-06
-2.47083e-06
-1.3738e-06
-2.40337e-06
-1.06687e-06
-2.26841e-06
-7.80279e-07
-2.06625e-06
-5.24092e-07
-1.79954e-06
-3.08436e-07
-1.47349e-06
-1.43169e-07
-1.09587e-06
-3.75688e-08
-6.76897e-07
-2.29668e-07
-4.04488e-08
2.87845e-07
-1.50434e-07
8.14663e-07
-3.18675e-07
1.28282e-06
-5.3422e-07
1.68601e-06
-7.86653e-07
2.02078e-06
-1.06623e-06
2.28573e-06
-1.36397e-06
2.48115e-06
-1.6717e-06
2.60875e-06
-1.98208e-06
2.67132e-06
-2.28857e-06
2.6724e-06
-2.58542e-06
2.6161e-06
-2.86753e-06
2.50684e-06
-3.1305e-06
2.34921e-06
-3.37044e-06
2.14791e-06
-3.58401e-06
1.90766e-06
-3.76826e-06
1.63319e-06
-3.92066e-06
1.32928e-06
-4.03898e-06
1.00077e-06
-4.12135e-06
6.52658e-07
-4.16617e-06
2.9014e-07
-4.17221e-06
-8.12987e-08
-4.13854e-06
-4.55819e-07
-4.06469e-06
-8.27169e-07
-3.95066e-06
-1.18865e-06
-3.79702e-06
-1.53309e-06
-3.60505e-06
-1.85293e-06
-3.37688e-06
-2.14024e-06
-3.11556e-06
-2.38692e-06
-2.82521e-06
-2.58484e-06
-2.51115e-06
-2.72621e-06
-2.17991e-06
-2.80381e-06
-1.83927e-06
-2.81147e-06
-1.49817e-06
-2.74447e-06
-1.16662e-06
-2.59997e-06
-8.55429e-07
-2.37744e-06
-5.7595e-07
-2.07901e-06
-3.39705e-07
-1.70973e-06
-1.58002e-07
-1.27757e-06
-4.15456e-08
-7.93353e-07
-2.71214e-07
-4.33327e-08
3.31178e-07
-1.60951e-07
9.32281e-07
-3.40508e-07
1.46237e-06
-5.70013e-07
1.91551e-06
-8.38086e-07
2.28886e-06
-1.13414e-06
2.58178e-06
-1.44849e-06
2.7955e-06
-1.77243e-06
2.9327e-06
-2.09824e-06
2.99712e-06
-2.41912e-06
2.99329e-06
-2.72921e-06
2.92618e-06
-3.02339e-06
2.80102e-06
-3.29732e-06
2.62313e-06
-3.54721e-06
2.39781e-06
-3.76985e-06
2.13029e-06
-3.96242e-06
1.82576e-06
-4.1225e-06
1.48935e-06
-4.24793e-06
1.12621e-06
-4.33687e-06
7.41592e-07
-4.38767e-06
3.40946e-07
-4.39898e-06
-6.99959e-08
-4.36968e-06
-4.85112e-07
-4.29904e-06
-8.97812e-07
-4.18672e-06
-1.30097e-06
-4.03292e-06
-1.68689e-06
-3.83852e-06
-2.04733e-06
-3.60523e-06
-2.37353e-06
-3.33577e-06
-2.65638e-06
-3.03399e-06
-2.88662e-06
-2.7051e-06
-3.0551e-06
-2.35569e-06
-3.15321e-06
-1.99388e-06
-3.17329e-06
-1.62918e-06
-3.10916e-06
-1.27249e-06
-2.95666e-06
-9.35773e-07
-2.71416e-06
-6.31773e-07
-2.38302e-06
-3.73584e-07
-1.96792e-06
-1.74179e-07
-1.47698e-06
-4.59176e-08
-9.21615e-07
-3.17131e-07
-4.62883e-08
3.77466e-07
-1.71675e-07
1.05767e-06
-3.62661e-07
1.65336e-06
-6.06123e-07
2.15897e-06
-8.89644e-07
2.57238e-06
-1.20174e-06
2.89387e-06
-1.53199e-06
3.12576e-06
-1.87116e-06
3.27186e-06
-2.21114e-06
3.33711e-06
-2.54497e-06
3.32711e-06
-2.86667e-06
3.24789e-06
-3.17123e-06
3.10558e-06
-3.45439e-06
2.9063e-06
-3.7126e-06
2.65601e-06
-3.94281e-06
2.3605e-06
-4.14243e-06
2.02539e-06
-4.30922e-06
1.65613e-06
-4.44115e-06
1.25814e-06
-4.53644e-06
8.36881e-07
-4.59345e-06
3.97952e-07
-4.6107e-06
-5.27433e-08
-4.58692e-06
-5.08899e-07
-4.52105e-06
-9.6368e-07
-4.41239e-06
-1.40963e-06
-4.2607e-06
-1.83858e-06
-4.06635e-06
-2.24168e-06
-3.83054e-06
-2.60934e-06
-3.55547e-06
-2.93144e-06
-3.24463e-06
-3.19746e-06
-2.90293e-06
-3.39681e-06
-2.53692e-06
-3.51922e-06
-2.15491e-06
-3.5553e-06
-1.76697e-06
-3.4971e-06
-1.38487e-06
-3.33877e-06
-1.02179e-06
-3.07724e-06
-6.92018e-07
-2.71279e-06
-4.10425e-07
-2.24951e-06
-1.91902e-07
-1.6955e-06
-5.07491e-08
-1.06277e-06
-3.67881e-07
-4.93426e-08
4.26809e-07
-1.82696e-07
1.19102e-06
-3.85286e-07
1.85595e-06
-6.42737e-07
2.41643e-06
-9.41488e-07
2.87113e-06
-1.26908e-06
3.22147e-06
-1.61434e-06
3.47102e-06
-1.96746e-06
3.62499e-06
-2.32002e-06
3.68966e-06
-2.66488e-06
3.67197e-06
-2.9961e-06
3.57912e-06
-3.3088e-06
3.41828e-06
-3.59895e-06
3.19645e-06
-3.86328e-06
2.92033e-06
-4.09905e-06
2.59627e-06
-4.30396e-06
2.23031e-06
-4.47603e-06
1.8282e-06
-4.61346e-06
1.39557e-06
-4.71457e-06
9.37994e-07
-4.77778e-06
4.61156e-07
-4.80153e-06
-2.899e-08
-4.78437e-06
-5.26064e-07
-4.72494e-06
-1.02311e-06
-4.62213e-06
-1.51244e-06
-4.47517e-06
-1.98555e-06
-4.28383e-06
-2.43302e-06
-4.04865e-06
-2.84452e-06
-3.77121e-06
-3.20889e-06
-3.45437e-06
-3.5143e-06
-3.10261e-06
-3.74857e-06
-2.72225e-06
-3.89958e-06
-2.32166e-06
-3.95589e-06
-1.91134e-06
-3.90741e-06
-1.5039e-06
-3.7462e-06
-1.11383e-06
-3.46731e-06
-7.57089e-07
-3.06953e-06
-4.50564e-07
-2.55604e-06
-2.11372e-07
-1.93469e-06
-5.61063e-08
-1.21803e-06
-4.23987e-07
-5.25319e-08
4.79341e-07
-1.94131e-07
1.33262e-06
-4.08583e-07
2.0704e-06
-6.80098e-07
2.68794e-06
-9.93831e-07
3.18486e-06
-1.33625e-06
3.56389e-06
-1.69537e-06
3.83014e-06
-2.06083e-06
3.99044e-06
-2.4239e-06
4.05273e-06
-2.77737e-06
4.02545e-06
-3.11542e-06
3.91716e-06
-3.43339e-06
3.73625e-06
-3.72763e-06
3.49069e-06
-3.99523e-06
3.18794e-06
-4.23391e-06
2.83495e-06
-4.44175e-06
2.43815e-06
-4.61714e-06
2.00359e-06
-4.75857e-06
1.537e-06
-4.86458e-06
1.044e-06
-4.93367e-06
5.30246e-07
-4.96428e-06
1.61918e-09
-4.95478e-06
-5.35563e-07
-4.90353e-06
-1.07436e-06
-4.80895e-06
-1.60702e-06
-4.66969e-06
-2.1248e-06
-4.48483e-06
-2.61788e-06
-4.2541e-06
-3.07525e-06
-3.97824e-06
-3.48475e-06
-3.65933e-06
-3.83321e-06
-3.30116e-06
-4.10674e-06
-2.90958e-06
-4.29116e-06
-2.49281e-06
-4.37266e-06
-2.06165e-06
-4.33857e-06
-1.62948e-06
-4.17837e-06
-1.2121e-06
-3.88469e-06
-8.27328e-07
-3.45431e-06
-4.94323e-07
-2.88904e-06
-2.32795e-07
-2.19622e-06
-6.20601e-08
-1.38877e-06
-4.86047e-07
-5.59072e-08
5.35248e-07
-2.06142e-07
1.48286e-06
-4.32832e-07
2.29709e-06
-7.18545e-07
2.97365e-06
-1.04697e-06
3.51329e-06
-1.40339e-06
3.9203e-06
-1.77492e-06
4.20167e-06
-2.15066e-06
4.36618e-06
-2.52163e-06
4.4237e-06
-2.88064e-06
4.38446e-06
-3.2221e-06
4.25862e-06
-3.54174e-06
4.05589e-06
-3.83638e-06
3.78532e-06
-4.10366e-06
3.45522e-06
-4.34185e-06
3.07313e-06
-4.54956e-06
2.64587e-06
-4.72566e-06
2.17969e-06
-4.86904e-06
1.68038e-06
-4.97852e-06
1.15349e-06
-5.05281e-06
6.04527e-07
-5.09035e-06
3.91663e-08
-5.08942e-06
-5.36496e-07
-5.04807e-06
-1.11571e-06
-4.96428e-06
-1.69081e-06
-4.83605e-06
-2.25304e-06
-4.66164e-06
-2.79229e-06
-4.43986e-06
-3.29703e-06
-4.17041e-06
-3.75419e-06
-3.85433e-06
-4.14929e-06
-3.49444e-06
-4.46663e-06
-3.09585e-06
-4.68976e-06
-2.66634e-06
-4.80216e-06
-2.21677e-06
-4.78814e-06
-1.76117e-06
-4.63397e-06
-1.31665e-06
-4.3292e-06
-9.03017e-07
-3.86794e-06
-5.42019e-07
-3.25004e-06
-2.5639e-07
-2.48185e-06
-6.86883e-08
-1.57647e-06
-5.54735e-07
-5.95407e-08
5.94789e-07
-2.18958e-07
1.64227e-06
-4.5842e-07
2.53655e-06
-7.58557e-07
3.27379e-06
-1.10135e-06
3.85608e-06
-1.47071e-06
4.28966e-06
-1.85282e-06
4.58378e-06
-2.23624e-06
4.7496e-06
-2.61183e-06
4.79928e-06
-2.97253e-06
4.74517e-06
-3.31314e-06
4.59923e-06
-3.62995e-06
4.37269e-06
-3.92041e-06
4.07579e-06
-4.18289e-06
3.71771e-06
-4.41635e-06
3.30658e-06
-4.62008e-06
2.8496e-06
-4.79354e-06
2.35315e-06
-4.93614e-06
1.82298e-06
-5.04712e-06
1.26447e-06
-5.12542e-06
6.82828e-07
-5.16963e-06
8.33773e-08
-5.17794e-06
-5.2818e-07
-5.14818e-06
-1.14547e-06
-5.07784e-06
-1.76115e-06
-4.96425e-06
-2.36663e-06
-4.80479e-06
-2.95175e-06
-4.59719e-06
-3.50464e-06
-4.3399e-06
-4.01147e-06
-4.03266e-06
-4.45653e-06
-3.67699e-06
-4.82229e-06
-3.27687e-06
-5.08988e-06
-2.83932e-06
-5.23971e-06
-2.37492e-06
-5.25254e-06
-1.89813e-06
-5.11077e-06
-1.42731e-06
-4.80003e-06
-9.84363e-07
-4.31088e-06
-5.9397e-07
-3.64043e-06
-2.82395e-07
-2.79343e-06
-7.60808e-08
-1.78278e-06
-6.30816e-07
-6.35358e-08
6.58324e-07
-2.32904e-07
1.81164e-06
-4.85895e-07
2.78954e-06
-8.00797e-07
3.58869e-06
-1.15756e-06
4.21285e-06
-1.53856e-06
4.67066e-06
-1.92894e-06
4.97416e-06
-2.31677e-06
5.13743e-06
-2.69285e-06
5.17536e-06
-3.05046e-06
5.10278e-06
-3.38496e-06
4.93373e-06
-3.69339e-06
4.68112e-06
-3.97408e-06
4.35649e-06
-4.22629e-06
3.96991e-06
-4.44983e-06
3.53012e-06
-4.64483e-06
3.04461e-06
-4.81149e-06
2.51981e-06
-4.94986e-06
1.96135e-06
-5.05969e-06
1.37429e-06
-5.14029e-06
7.63425e-07
-5.19045e-06
1.33538e-07
-5.20838e-06
-5.10245e-07
-5.19171e-06
-1.16214e-06
-5.13751e-06
-1.81535e-06
-5.04243e-06
-2.46171e-06
-4.90289e-06
-3.09129e-06
-4.71542e-06
-3.69211e-06
-4.47703e-06
-4.24986e-06
-4.18584e-06
-4.74772e-06
-3.84173e-06
-5.1664e-06
-3.44711e-06
-5.4845e-06
-3.00776e-06
-5.67906e-06
-2.53355e-06
-5.72675e-06
-2.03903e-06
-5.60529e-06
-1.54365e-06
-5.29541e-06
-1.0715e-06
-4.78304e-06
-6.50507e-07
-4.06143e-06
-3.11084e-07
-3.13285e-06
-8.43444e-08
-2.00953e-06
-7.1516e-07
-6.80392e-08
7.26364e-07
-2.48431e-07
1.99203e-06
-5.16013e-07
3.05713e-06
-8.46178e-07
3.91886e-06
-1.21645e-06
4.58312e-06
-1.6074e-06
5.06161e-06
-2.00311e-06
5.36987e-06
-2.39121e-06
5.52553e-06
-2.76264e-06
5.5468e-06
-3.11123e-06
5.45136e-06
-3.43317e-06
5.25567e-06
-3.72652e-06
4.97447e-06
-3.9907e-06
4.62067e-06
-4.22606e-06
4.20526e-06
-4.43347e-06
3.73754e-06
-4.61406e-06
3.2252e-06
-4.76889e-06
2.67464e-06
-4.89878e-06
2.09124e-06
-5.00411e-06
1.47962e-06
-5.08466e-06
8.43977e-07
-5.13954e-06
1.88416e-07
-5.16707e-06
-4.82719e-07
-5.16475e-06
-1.16446e-06
-5.12931e-06
-1.8508e-06
-5.05673e-06
-2.53428e-06
-4.94247e-06
-3.20554e-06
-4.78175e-06
-3.85284e-06
-4.56997e-06
-4.46164e-06
-4.30335e-06
-5.01434e-06
-3.9797e-06
-5.49005e-06
-3.59937e-06
-5.86482e-06
-3.16632e-06
-6.11212e-06
-2.68913e-06
-6.20394e-06
-2.18193e-06
-6.11248e-06
-1.66496e-06
-5.81239e-06
-1.16446e-06
-5.28353e-06
-7.11992e-07
-4.5139e-06
-3.42789e-07
-3.50205e-06
-9.36127e-08
-2.2587e-06
-8.08773e-07
-7.32595e-08
7.99623e-07
-2.66173e-07
2.18495e-06
-5.49805e-07
3.34076e-06
-8.95918e-07
4.26497e-06
-1.27907e-06
4.96627e-06
-1.67779e-06
5.46032e-06
-2.07504e-06
5.76712e-06
-2.45819e-06
5.90868e-06
-2.81856e-06
5.90717e-06
-3.15084e-06
5.78365e-06
-3.45241e-06
5.55724e-06
-3.72263e-06
5.24469e-06
-3.96228e-06
4.86032e-06
-4.17304e-06
4.41603e-06
-4.35705e-06
3.92155e-06
-4.51656e-06
3.3847e-06
-4.65365e-06
2.81173e-06
-4.77002e-06
2.2076e-06
-4.86677e-06
1.57637e-06
-4.94428e-06
9.21488e-07
-5.00206e-06
2.462e-07
-5.03867e-06
-4.46114e-07
-5.0516e-06
-1.15152e-06
-5.03732e-06
-1.86508e-06
-4.99123e-06
-2.58037e-06
-4.90786e-06
-3.28891e-06
-4.78109e-06
-3.97961e-06
-4.60455e-06
-4.63818e-06
-4.37232e-06
-5.24657e-06
-4.07973e-06
-5.78265e-06
-3.72448e-06
-6.22006e-06
-3.30801e-06
-6.52859e-06
-2.83687e-06
-6.67509e-06
-2.32407e-06
-6.62528e-06
-1.79008e-06
-6.34637e-06
-1.26319e-06
-5.81042e-06
-7.78839e-07
-4.99825e-06
-3.77923e-07
-3.90297e-06
-1.04059e-07
-2.53256e-06
-9.12832e-07
-7.94914e-08
8.79114e-07
-2.87002e-07
2.39246e-06
-5.88666e-07
3.64242e-06
-9.51602e-07
4.62791e-06
-1.34675e-06
5.36142e-06
-1.75031e-06
5.86388e-06
-2.14417e-06
6.16099e-06
-2.51571e-06
6.28021e-06
-2.85702e-06
6.24848e-06
-3.16409e-06
6.09072e-06
-3.43587e-06
5.82902e-06
-3.67342e-06
5.48224e-06
-3.87918e-06
5.06609e-06
-4.05641e-06
4.59326e-06
-4.20867e-06
4.07381e-06
-4.3395e-06
3.51553e-06
-4.4521e-06
2.92433e-06
-4.54913e-06
2.30464e-06
-4.63253e-06
1.65977e-06
-4.70335e-06
9.9231e-07
-4.76163e-06
3.04474e-07
-4.80625e-06
-4.01497e-07
-4.83485e-06
-1.12292e-06
-4.84377e-06
-1.85617e-06
-4.82797e-06
-2.59616e-06
-4.78116e-06
-3.33573e-06
-4.6959e-06
-4.06487e-06
-4.56404e-06
-4.77004e-06
-4.37726e-06
-5.43334e-06
-4.12804e-06
-6.03187e-06
-3.81085e-06
-6.53725e-06
-3.42379e-06
-6.91565e-06
-2.9704e-06
-7.12847e-06
-2.46161e-06
-7.13408e-06
-1.91734e-06
-6.89064e-06
-1.36747e-06
-6.36029e-06
-8.51546e-07
-5.51417e-06
-4.1703e-07
-4.33748e-06
-1.15919e-07
-2.83368e-06
-1.02875e-06
-8.71538e-08
9.66268e-07
-3.12124e-07
2.61743e-06
-6.34448e-07
3.96475e-06
-1.01523e-06
5.00869e-06
-1.421e-06
5.76718e-06
-1.82536e-06
6.26824e-06
-2.20933e-06
6.54497e-06
-2.56072e-06
6.6316e-06
-2.87298e-06
6.56074e-06
-3.14398e-06
6.36172e-06
-3.37477e-06
6.0598e-06
-3.5685e-06
5.67598e-06
-3.72964e-06
5.22722e-06
-3.86322e-06
4.72684e-06
-3.97441e-06
4.185e-06
-4.06813e-06
3.60925e-06
-4.14879e-06
3.00498e-06
-4.22006e-06
2.37591e-06
-4.28475e-06
1.72446e-06
-4.34466e-06
1.05222e-06
-4.40042e-06
3.60238e-07
-4.45139e-06
-3.50526e-07
-4.4955e-06
-1.0788e-06
-4.52913e-06
-1.82253e-06
-4.54702e-06
-2.57828e-06
-4.54221e-06
-3.34054e-06
-4.50614e-06
-4.10094e-06
-4.42888e-06
-4.84729e-06
-4.29969e-06
-5.56254e-06
-4.10783e-06
-6.22373e-06
-3.84398e-06
-6.80111e-06
-3.50198e-06
-7.25764e-06
-3.08125e-06
-7.54921e-06
-2.58928e-06
-7.62604e-06
-2.04426e-06
-7.43566e-06
-1.47686e-06
-6.92769e-06
-9.30733e-07
-6.0603e-06
-4.60852e-07
-4.80736e-06
-1.29521e-07
-3.16501e-06
-1.15827e-06
-9.68471e-08
1.06312e-06
-3.43202e-07
2.86378e-06
-6.89586e-07
4.31113e-06
-1.08925e-06
5.40836e-06
-1.50335e-06
6.18128e-06
-1.9028e-06
6.66769e-06
-2.26816e-06
6.91033e-06
-2.58841e-06
6.95184e-06
-2.85917e-06
6.8315e-06
-3.08095e-06
6.5835e-06
-3.25752e-06
6.23637e-06
-3.39464e-06
5.8131e-06
-3.49907e-06
5.33165e-06
-3.57787e-06
4.80564e-06
-3.63791e-06
4.24504e-06
-3.68553e-06
3.65687e-06
-3.72633e-06
3.04578e-06
-3.765e-06
2.41458e-06
-3.80524e-06
1.7647e-06
-3.84958e-06
1.09656e-06
-3.89934e-06
4.09998e-07
-3.95444e-06
-2.95431e-07
-4.01324e-06
-1.02e-06
-4.0724e-06
-1.76337e-06
-4.12668e-06
-2.524e-06
-4.16877e-06
-3.29845e-06
-4.18924e-06
-4.08047e-06
-4.17664e-06
-4.85989e-06
-4.11784e-06
-5.62134e-06
-3.99877e-06
-6.34279e-06
-3.80579e-06
-6.9941e-06
-3.52761e-06
-7.53582e-06
-3.15813e-06
-7.91869e-06
-2.69977e-06
-8.0844e-06
-2.16722e-06
-7.96822e-06
-1.59059e-06
-7.50431e-06
-1.01718e-06
-6.63371e-06
-5.10423e-07
-5.31412e-06
-1.45345e-07
-3.53008e-06
-1.30362e-06
-1.09445e-07
1.17256e-06
-3.82532e-07
3.13687e-06
-7.57221e-07
4.68582e-06
-1.17646e-06
5.8276e-06
-1.59501e-06
6.59983e-06
-1.98125e-06
7.05393e-06
-2.31616e-06
7.24524e-06
-2.59103e-06
7.22671e-06
-2.80481e-06
7.04528e-06
-2.96158e-06
6.74028e-06
-3.0686e-06
6.34339e-06
-3.1347e-06
5.87919e-06
-3.16924e-06
5.36619e-06
-3.18142e-06
4.81782e-06
-3.17982e-06
4.24344e-06
-3.17215e-06
3.64921e-06
-3.16513e-06
3.03876e-06
-3.16437e-06
2.41382e-06
-3.17435e-06
1.77467e-06
-3.19832e-06
1.12054e-06
-3.23827e-06
4.4995e-07
-3.29476e-06
-2.38942e-07
-3.36676e-06
-9.48006e-07
-3.45142e-06
-1.67871e-06
-3.54383e-06
-2.43159e-06
-3.63673e-06
-3.20555e-06
-3.72027e-06
-3.99693e-06
-3.78188e-06
-4.79828e-06
-3.80638e-06
-5.59685e-06
-3.77647e-06
-6.3727e-06
-3.67389e-06
-7.09668e-06
-3.48142e-06
-7.72828e-06
-3.18599e-06
-8.21412e-06
-2.78288e-06
-8.48751e-06
-2.28084e-06
-8.47026e-06
-1.70724e-06
-8.07791e-06
-1.11184e-06
-7.22912e-06
-5.67215e-07
-5.85874e-06
-1.64108e-07
-3.93319e-06
-1.46773e-06
-1.26246e-07
1.29881e-06
-4.33301e-07
3.44392e-06
-8.41309e-07
5.09383e-06
-1.27972e-06
6.26601e-06
-1.69606e-06
7.01617e-06
-2.05689e-06
7.41476e-06
-2.34516e-06
7.53351e-06
-2.55622e-06
7.43778e-06
-2.69387e-06
7.18293e-06
-2.76699e-06
6.8134e-06
-2.78704e-06
6.36344e-06
-2.76639e-06
5.85854e-06
-2.71718e-06
5.31698e-06
-2.65073e-06
4.75137e-06
-2.57721e-06
4.16993e-06
-2.50552e-06
3.57751e-06
-2.44324e-06
2.97649e-06
-2.39671e-06
2.3673e-06
-2.37103e-06
1.74899e-06
-2.37005e-06
1.11956e-06
-2.39636e-06
4.76263e-07
-2.45119e-06
-1.8411e-07
-2.53423e-06
-8.64969e-07
-2.64337e-06
-1.56957e-06
-2.77439e-06
-2.30057e-06
-2.92056e-06
-3.05938e-06
-3.0722e-06
-3.84529e-06
-3.21628e-06
-4.6542e-06
-3.33621e-06
-5.47692e-06
-3.41191e-06
-6.297e-06
-3.42063e-06
-7.08796e-06
-3.33866e-06
-7.81025e-06
-3.14458e-06
-8.40821e-06
-2.82413e-06
-8.80795e-06
-2.37695e-06
-8.91744e-06
-1.82424e-06
-8.63062e-06
-1.21578e-06
-7.83758e-06
-6.33347e-07
-6.44117e-06
-1.86922e-07
-4.37962e-06
-1.65465e-06
-1.49232e-07
1.44804e-06
-4.99939e-07
3.79463e-06
-9.46629e-07
5.54052e-06
-1.40132e-06
6.7207e-06
-1.80401e-06
7.41885e-06
-2.12131e-06
7.73207e-06
-2.34078e-06
7.75298e-06
-2.46433e-06
7.56133e-06
-2.50257e-06
7.22116e-06
-2.47045e-06
6.78128e-06
-2.38442e-06
6.27741e-06
-2.26062e-06
5.73474e-06
-2.11394e-06
5.1703e-06
-1.95759e-06
4.59501e-06
-1.80296e-06
4.0153e-06
-1.65977e-06