/*--------------------------------*- C++ -*----------------------------------*\
  =========                 |
  \\      /  F ield         | OpenFOAM: The Open Source CFD Toolbox
   \\    /   O peration     | Website:  https://openfoam.org
    \\  /    A nd           | Version:  9
     \\/     M anipulation  |
\*---------------------------------------------------------------------------*/
FoamFile
{
    format      ascii;
    class       surfaceScalarField;
    location    "28.2";
    object      phi;
}
// * * * * * * * * * * * * * * * * * * * * * * * * * * * * * * * * * * * * * //

dimensions      [0 3 -1 0 0 0 0];

internalField   nonuniform List<scalar> 
16735
(
-0.00299791
0.0029979
1.34877e-08
-0.00900216
0.00600422
2.79583e-08
-0.0168907
0.00788849
3.73293e-08
-0.0259392
0.00904847
4.44896e-08
-0.0360421
0.0101029
5.25939e-08
-0.0466218
0.0105796
6.12273e-08
-0.0587765
0.0121547
7.14638e-08
-0.0698136
0.011037
7.83415e-08
-0.08467
0.0148563
8.13273e-08
0.0112329
7.40082e-08
-0.095903
-0.00294633
0.00594422
-0.00885451
0.0119124
-0.0166056
0.0156395
-0.0254661
0.017909
-0.035317
0.0199538
-0.0455486
0.0208111
-0.0572528
0.0238588
-0.0676365
0.0214208
-0.081764
0.0289838
0.0211914
-0.0917225
-0.00284537
0.0087896
-0.00856435
0.0176314
-0.0160435
0.0231187
-0.0245314
0.0263968
-0.0338797
0.0293021
-0.0434217
0.0303531
-0.0542165
0.0346537
-0.0633064
0.0305107
-0.0759901
0.0416674
0.0286547
-0.0834533
-0.00269939
0.011489
-0.00814176
0.0230738
-0.0152207
0.0301977
-0.0231578
0.0343339
-0.0317556
0.0378999
-0.0402792
0.0388767
-0.0496884
0.044063
-0.0568619
0.0376842
-0.067401
0.0522065
0.0325007
-0.071247
-0.00251465
0.0140036
-0.00760133
0.0281604
-0.0141608
0.0367571
-0.0213784
0.0415515
-0.0289821
0.0455036
-0.0361763
0.046071
-0.0436956
0.0515822
-0.0483432
0.0423318
-0.0560181
0.0598814
0.0317338
-0.0552512
-0.00229909
0.0163027
-0.00696157
0.0328229
-0.0128921
0.0426877
-0.019235
0.0478944
-0.0256067
0.0518753
-0.0311833
0.0516476
-0.0362686
0.0566675
-0.0377837
0.0438469
-0.0417617
0.0638594
0.0254768
-0.0355047
-0.00206193
0.0183647
-0.00624406
0.037005
-0.0114485
0.0478921
-0.0167756
0.0532215
-0.0216838
0.0567834
-0.0253804
0.0553443
-0.027437
0.0587241
-0.0252232
0.0416331
-0.0243688
0.063005
0.0129678
-0.0118598
-0.00181327
0.0201779
-0.00547239
0.0406642
-0.00986685
0.0522866
-0.014051
0.0574057
-0.0172687
0.0600011
-0.018847
0.0569226
-0.017214
0.0570911
-0.010765
0.035184
-0.00321722
0.0554572
-0.00712343
0.016874
-0.00156354
0.0217415
-0.00467085
0.0437715
-0.00818513
0.0558008
-0.0111093
0.0603298
-0.0124083
0.0613002
-0.0116438
0.056158
-0.00552493
0.0509723
0.00570516
0.0239539
0.0209797
0.0401827
-0.0378969
0.0517531
-0.00132289
0.0230644
-0.00386276
0.0463113
-0.00643896
0.058377
-0.00798985
0.0618807
-0.00712615
0.0604365
-0.00380727
0.0528392
0.00734422
0.0398208
0.0245966
0.0067016
0.0495133
0.015266
-0.0817932
0.0934096
-0.00110054
0.0241649
-0.00306871
0.0482795
-0.00465845
0.0599668
-0.00471778
0.06194
-0.00137521
0.0570939
0.00500708
0.0464569
0.0216643
0.0231635
0.0454068
-0.0170409
0.0826004
-0.0219276
-0.141364
0.142171
-0.00090406
0.025069
-0.00230434
0.0496798
-0.00286327
0.0605257
-0.00130787
0.0603846
0.00466676
0.0511193
0.0150006
0.0361231
0.0380482
0.000115897
0.0690214
-0.048014
0.120497
-0.0734031
-0.217783
0.196916
-0.000738718
0.0258077
-0.00157825
0.0505193
-0.00105337
0.0600008
0.00234652
0.0569847
0.0112835
0.0421822
0.0263913
0.0210153
0.056828
-0.0303208
0.096802
-0.087988
0.163533
-0.140134
-0.309023
0.254772
-0.000606974
0.0264146
-0.000890223
0.0508026
0.00077415
0.0583364
0.00626776
0.0514911
0.0186683
0.0297817
0.0397382
-5.46542e-05
0.078364
-0.0689467
0.129806
-0.13943
0.211283
-0.22161
-0.409318
0.311579
-0.000509152
0.0269238
-0.000227487
0.0505209
0.00265905
0.0554499
0.0105467
0.0436035
0.0270573
0.0132711
0.0555514
-0.0285488
0.103024
-0.116419
0.16763
-0.204036
0.261254
-0.315235
-0.510919
0.362855
-0.000435967
0.0273598
0.000428666
0.0496563
0.00469906
0.0511795
0.0153783
0.0329242
0.0367916
-0.00814214
0.0741346
-0.0658918
0.131021
-0.173306
0.208157
-0.281172
0.308799
-0.415877
-0.606988
0.404868
-0.000376503
0.0277363
0.00111969
0.0481601
0.00699735
0.0453019
0.0210226
0.0188989
0.0483238
-0.0354433
0.0954684
-0.113036
0.161825
-0.239662
0.248179
-0.367525
0.348996
-0.516694
-0.693415
0.435424
-0.000318307
0.0280546
0.0018973
0.0459445
0.00969036
0.0375088
0.0277872
0.000802088
0.0620928
-0.069749
0.119167
-0.17011
0.193697
-0.314193
0.284166
-0.457994
0.378725
-0.611254
-0.768828
0.454138
-0.000244484
0.0282991
0.00282148
0.0428785
0.0129386
0.0273917
0.0359802
-0.0222396
0.078285
-0.112054
0.144318
-0.236143
0.224068
-0.393944
0.313188
-0.547113
0.397303
-0.695369
-0.833782
0.462256
-0.000134721
0.0284338
0.00395879
0.038785
0.0169188
0.0144317
0.0458394
-0.0511602
0.0965892
-0.162804
0.169385
-0.308939
0.250459
-0.475018
0.33372
-0.630374
0.405801
-0.76745
-0.890369
0.462388
3.22471e-05
0.0284015
0.00537975
0.0334375
0.0218115
-0.00200009
0.057434
-0.0867826
0.116116
-0.221485
0.192505
-0.385329
0.271171
-0.553684
0.345749
-0.704953
0.407242
-0.828942
-0.946214
0.463087
0.000250581
0.028151
0.00715892
0.0265292
0.0277748
-0.0226159
0.0705545
-0.129562
0.135547
-0.286478
0.212059
-0.46184
0.285488
-0.627113
0.35042
-0.769884
0.405205
-0.883728
-0.994664
0.453656
0.000558169
0.0275928
0.009374
0.0177133
0.0348925
-0.0481344
0.084656
-0.179326
0.153465
-0.355288
0.227077
-0.535451
0.293597
-0.693633
0.349922
-0.826209
0.397488
-0.931294
-1.03582
0.438646
0.000965347
0.0266274
0.0121023
0.0065764
0.0431075
-0.0791396
0.0989155
-0.235134
0.168705
-0.425077
0.237284
-0.604031
0.296368
-0.752717
0.344936
-0.874777
0.386396
-0.972755
-1.07268
0.423251
0.00148348
0.025144
0.0154104
-0.00735051
0.052179
-0.115908
0.112397
-0.295352
0.18057
-0.49325
0.242944
-0.666405
0.294689
-0.804462
0.336634
-0.916723
0.373082
-1.0092
-1.10553
0.40594
0.00212654
0.0230174
0.019328
-0.024552
0.0617005
-0.158281
0.124254
-0.357905
0.18884
-0.557836
0.244561
-0.722126
0.289509
-0.84941
0.325856
-0.953069
0.358071
-1.04142
-1.13531
0.38785
0.00291609
0.0201013
0.0238165
-0.0454525
0.0711608
-0.205625
0.133894
-0.420639
0.193636
-0.617577
0.242759
-0.771249
0.281625
-0.888275
0.313266
-0.98471
0.341987
-1.07014
-1.16241
0.36908
0.00388509
0.0162162
0.0287564
-0.0703237
0.0800127
-0.256881
0.141032
-0.481658
0.195276
-0.671821
0.238158
-0.814132
0.271699
-0.921816
0.299385
-1.0124
0.325104
-1.09586
-1.1871
0.349798
0.00507374
0.0111425
0.0339624
-0.0992124
0.0877575
-0.310676
0.145643
-0.539544
0.194169
-0.720347
0.231325
-0.851288
0.260256
-0.950746
0.284578
-1.03672
0.307672
-1.11895
-1.20958
0.330153
0.00651323
0.00462927
0.0392165
-0.131916
0.0940385
-0.365499
0.147871
-0.593376
0.190747
-0.763223
0.222748
-0.883289
0.247702
-0.975701
0.269119
-1.05814
0.289835
-1.13967
-1.22994
0.310196
0.00820302
-0.00357375
0.0442958
-0.168008
0.0986808
-0.419884
0.147943
-0.642639
0.185419
-0.800698
0.212832
-0.910702
0.234344
-0.997212
0.253194
-1.07699
0.2717
-1.15818
-1.24824
0.289997
0.0100984
-0.0136722
0.0489841
-0.206894
0.101659
-0.472558
0.146125
-0.687105
0.178556
-0.83313
0.201909
-0.934054
0.220411
-1.01571
0.236941
-1.09352
0.253341
-1.17458
-1.26449
0.269594
0.0121188
-0.025791
0.0530785
-0.247854
0.103043
-0.522522
0.142685
-0.726747
0.170478
-0.860923
0.190238
-0.953815
0.206074
-1.03155
0.220457
-1.1079
0.234813
-1.18893
-1.27871
0.249028
0.0141688
-0.0399598
0.0564077
-0.290093
0.102959
-0.569074
0.137881
-0.761669
0.161453
-0.884495
0.178026
-0.970388
0.191457
-1.04498
0.203809
-1.12025
0.216159
-1.20128
-1.29088
0.228332
0.0161611
-0.0561209
0.0588541
-0.332786
0.101561
-0.611781
0.131949
-0.792057
0.151701
-0.904247
0.165429
-0.984115
0.176653
-1.0562
0.18705
-1.13065
0.197416
-1.21165
-1.301
0.207541
0.0180246
-0.0741455
0.0603626
-0.375124
0.0990121
-0.65043
0.125105
-0.81815
0.141405
-0.920547
0.15257
-0.99528
0.161732
-1.06537
0.170222
-1.13914
0.178615
-1.22004
-1.30907
0.186686
0.0197012
-0.0938467
0.0609338
-0.416356
0.0954741
-0.68497
0.117536
-0.840211
0.130713
-0.933725
0.139543
-1.00411
0.146747
-1.07257
0.15336
-1.14575
0.159788
-1.22647
-1.31509
0.1658
0.0211377
-0.114984
0.0606076
-0.455826
0.0910992
-0.715462
0.109404
-0.858516
0.119745
-0.944066
0.126419
-1.01078
0.13174
-1.07789
0.136497
-1.15051
0.140961
-1.23093
-1.31904
0.144916
0.0222841
-0.137269
0.0594422
-0.492984
0.0860258
-0.742046
0.10085
-0.87334
0.108599
-0.951815
0.113255
-1.01544
0.116747
-1.08138
0.119659
-1.15342
0.122166
-1.23344
-1.32094
0.124069
0.0230972
-0.160366
0.0575246
-0.527412
0.0803802
-0.764901
0.0919896
-0.88495
0.0973526
-0.957178
0.100096
-1.01818
0.101796
-1.08308
0.102872
-1.1545
0.103429
-1.234
-1.32082
0.103301
0.0235483
-0.183914
0.0550341
-0.558897
0.0742806
-0.784148
0.082918
-0.893587
0.0860681
-0.960328
0.0869794
-1.01909
0.0869133
-1.08302
0.0861577
-1.15374
0.0847794
-1.23262
-1.3187
0.0826645
0.0236257
-0.20754
0.0520359
-0.587308
0.0678313
-0.799943
0.0737141
-0.89947
0.0747949
-0.961409
0.0739346
-1.01823
0.0721219
-1.08121
0.0695403
-1.15116
0.0662383
-1.22932
-1.31459
0.0621246
0.0233349
-0.230875
0.0486018
-0.612575
0.0611228
-0.812464
0.0644444
-0.902792
0.0635726
-0.960537
0.0609873
-1.01565
0.0574438
-1.07766
0.0530455
-1.14676
0.0478235
-1.22409
-1.30846
0.0416985
0.0226972
-0.253572
0.0448056
-0.634683
0.0542344
-0.821893
0.0551632
-0.90372
0.0524335
-0.957807
0.0481599
-1.01137
0.042899
-1.0724
0.036699
-1.14056
0.0295794
-1.21697
-1.3003
0.0214122
0.0217459
-0.275318
0.0407175
-0.653655
0.0472174
-0.828393
0.0459142
-0.902417
0.0414041
-0.953297
0.0354726
-1.00544
0.0285063
-1.06543
0.0205144
-1.13257
0.0115698
-1.20803
-1.28993
0.00120426
0.0205219
-0.29584
0.0364033
-0.669536
0.0401291
-0.832119
0.0367337
-0.899022
0.0305073
-0.947071
0.0229426
-0.997878
0.0142836
-1.05678
0.0044682
-1.12275
-0.00619514
-1.19737
-1.27759
-0.0185332
0.0190686
-0.314908
0.0319233
-0.682391
0.0330224
-0.833218
0.0276525
-0.893652
0.0197613
-0.93918
0.0105797
-0.988697
0.000213603
-1.04641
-0.0112363
-1.1113
-0.0238402
-1.18476
-1.26343
-0.0380056
0.0174286
-0.332337
0.0273318
-0.692294
0.025941
-0.831827
0.0186971
-0.886408
0.00917248
-0.929655
-0.00161161
-0.977913
-0.0135195
-1.0345
-0.0266888
-1.09814
-0.0411874
-1.17026
-1.2474
-0.0572103
0.0156419
-0.347979
0.0226771
-0.699329
0.0189211
-0.828071
0.00988811
-0.877375
-0.00126968
-0.918497
-0.0134837
-0.965699
-0.0270545
-1.02093
-0.0419108
-1.08328
-0.0582391
-1.15394
-1.22954
-0.0761016
0.0137451
-0.361724
0.0180018
-0.703586
0.0119902
-0.82206
0.00121652
-0.866601
-0.0113362
-0.905945
-0.0251678
-0.951867
-0.040342
-1.00576
-0.056868
-1.06675
-0.0749763
-1.13583
-1.20986
-0.09466
0.0117716
-0.373495
0.0133428
-0.705157
0.00515924
-0.813876
-0.00716976
-0.854272
-0.0212402
-0.891874
-0.0366181
-0.936489
-0.0533651
-0.989009
-0.0715357
-1.04858
-0.0913833
-1.11598
-1.18838
-0.112857
0.00975149
-0.383247
0.00873518
-0.704141
-0.0015441
-0.803597
-0.0153815
-0.840435
-0.0309266
-0.876329
-0.0478162
-0.9196
-0.0661076
-0.970718
-0.0858925
-1.0288
-0.107441
-1.09443
-1.16515
-0.130671
0.00770991
-0.390957
0.00421915
-0.70065
-0.00793299
-0.791445
-0.023391
-0.824977
-0.0403783
-0.859342
-0.0587479
-0.90123
-0.0785542
-0.950912
-0.09992
-1.00743
-0.123133
-1.07122
-1.14021
-0.148081
0.00566561
-0.396622
-0.000108401
-0.694876
-0.0141911
-0.777362
-0.0311834
-0.807984
-0.0495845
-0.840941
-0.0694006
-0.881414
-0.0906903
-0.929622
-0.113602
-0.98452
-0.138443
-1.04638
-1.11358
-0.165065
0.00363684
-0.400259
-0.00466541
-0.686574
-0.0202871
-0.76174
-0.0387444
-0.789527
-0.0585336
-0.821152
-0.0797626
-0.860185
-0.102502
-0.906883
-0.126923
-0.960099
-0.153353
-1.01995
-1.08534
-0.181595
0.00165994
-0.401919
-0.00896757
-0.675946
-0.0262028
-0.744505
-0.0460648
-0.769665
-0.0672155
-0.800001
-0.0898227
-0.837578
-0.113976
-0.88273
-0.139869
-0.934205
-0.167845
-0.99197
-1.05554
-0.197647
-0.000230867
-0.401688
-0.013102
-0.663075
-0.0319284
-0.725679
-0.0531399
-0.748454
-0.0756203
-0.77752
-0.0995699
-0.813628
-0.1251
-0.8572
-0.152431
-0.906874
-0.181905
-0.962497
-1.02422
-0.213225
-0.0023575
-0.399331
-0.0170851
-0.648347
-0.0374512
-0.705312
-0.0599638
-0.725941
-0.0837388
-0.753745
-0.108994
-0.788373
-0.135865
-0.830328
-0.164609
-0.87813
-0.195523
-0.931583
-0.991447
-0.228296
-0.00433659
-0.394994
-0.0209153
-0.631769
-0.0427597
-0.683468
-0.0665307
-0.70217
-0.0915626
-0.728713
-0.118083
-0.761852
-0.146263
-0.802149
-0.176396
-0.847997
-0.208655
-0.899323
-0.95748
-0.242623
-0.00622915
-0.388765
-0.0245898
-0.613408
-0.0478478
-0.66021
-0.0728351
-0.677183
-0.0990836
-0.702465
-0.126831
-0.734105
-0.156284
-0.772695
-0.187747
-0.816534
-0.221311
-0.865759
-0.922715
-0.256076
-0.00804147
-0.380724
-0.0281054
-0.593344
-0.0527108
-0.635605
-0.0788717
-0.651022
-0.106294
-0.675042
-0.135227
-0.705173
-0.165911
-0.742011
-0.198607
-0.783838
-0.233021
-0.831345
-0.885755
-0.269981
-0.00977387
-0.37095
-0.0314587
-0.571659
-0.0573453
-0.609718
-0.0846356
-0.623731
-0.113189
-0.646489
-0.143264
-0.675098
-0.175123
-0.710153
-0.208937
-0.750025
-0.244611
-0.795671
-0.847207
-0.283159
-0.011425
-0.359525
-0.034647
-0.548437
-0.0617483
-0.582617
-0.0901221
-0.595358
-0.11976
-0.616851
-0.150934
-0.643924
-0.183919
-0.677168
-0.218875
-0.715068
-0.255927
-0.758619
-0.807323
-0.295811
-0.0129928
-0.346532
-0.0376673
-0.523763
-0.0659176
-0.554367
-0.0953271
-0.565948
-0.126002
-0.586176
-0.158225
-0.611701
-0.192276
-0.643117
-0.228319
-0.679025
-0.266591
-0.720346
-0.766175
-0.30774
-0.0144752
-0.332057
-0.0405173
-0.497721
-0.0698508
-0.525033
-0.100247
-0.535552
-0.131909
-0.554513
-0.16513
-0.57848
-0.200199
-0.608048
-0.237301
-0.641923
-0.27673
-0.680917
-0.723881
-0.319024
-0.0158699
-0.316187
-0.0431949
-0.470396
-0.073546
-0.494682
-0.104877
-0.504222
-0.137475
-0.521915
-0.171641
-0.544313
-0.207673
-0.572017
-0.245778
-0.603818
-0.286283
-0.640412
-0.680514
-0.32965
-0.0171743
-0.299012
-0.0456983
-0.441872
-0.0770013
-0.463379
-0.109214
-0.472009
-0.142695
-0.488434
-0.177751
-0.509257
-0.214692
-0.535077
-0.253747
-0.564763
-0.295257
-0.598902
-0.636146
-0.339625
-0.0183856
-0.280627
-0.0480258
-0.412231
-0.080215
-0.43119
-0.113255
-0.438969
-0.147563
-0.454126
-0.183454
-0.473366
-0.221246
-0.497284
-0.261191
-0.524819
-0.303637
-0.556455
-0.590844
-0.348939
-0.0194997
-0.261127
-0.0501759
-0.381555
-0.0831856
-0.39818
-0.116997
-0.405157
-0.152075
-0.419049
-0.188742
-0.436699
-0.227329
-0.458697
-0.2681
-0.484047
-0.311414
-0.513142
-0.544675
-0.357583
-0.02051
-0.240617
-0.0521468
-0.349918
-0.0859121
-0.364415
-0.120437
-0.370632
-0.156226
-0.383259
-0.19361
-0.399315
-0.23293
-0.419376
-0.274466
-0.442511
-0.318577
-0.469031
-0.497705
-0.365546
-0.0214021
-0.219215
-0.0539373
-0.317383
-0.088394
-0.329958
-0.123572
-0.335454
-0.160013
-0.346819
-0.198052
-0.361277
-0.238045
-0.379383
-0.28028
-0.400276
-0.325117
-0.424194
-0.450005
-0.372817
-0.0222207
-0.196994
-0.0555496
-0.284054
-0.090631
-0.294877
-0.126401
-0.299684
-0.163431
-0.309788
-0.202063
-0.322645
-0.242666
-0.338781
-0.285534
-0.357407
-0.331026
-0.378702
-0.401645
-0.379386
-0.0229657
-0.174029
-0.0569845
-0.250036
-0.0926224
-0.259239
-0.12892
-0.263387
-0.166478
-0.27223
-0.20564
-0.283483
-0.246787
-0.297634
-0.290221
-0.313973
-0.336295
-0.332628
-0.3527
-0.385241
-0.0236249
-0.150404
-0.0582416
-0.215419
-0.0943672
-0.223113
-0.131128
-0.226625
-0.16915
-0.234208
-0.208778
-0.243855
-0.250403
-0.256008
-0.294335
-0.270042
-0.340918
-0.286045
-0.303243
-0.390375
-0.0241935
-0.12621
-0.0593202
-0.180292
-0.0958645
-0.186569
-0.133024
-0.189466
-0.171445
-0.195787
-0.211473
-0.203827
-0.253511
-0.213971
-0.297868
-0.225684
-0.344887
-0.239026
-0.253351
-0.394779
-0.0246692
-0.101541
-0.0602198
-0.144742
-0.0971136
-0.149675
-0.134606
-0.151973
-0.173361
-0.157032
-0.213724
-0.163465
-0.256105
-0.17159
-0.300817
-0.180971
-0.348197
-0.191646
-0.2031
-0.398448
-0.0250507
-0.0764903
-0.06094
-0.108852
-0.0981137
-0.112502
-0.135873
-0.114214
-0.174896
-0.118009
-0.215527
-0.122834
-0.258183
-0.128934
-0.303179
-0.135976
-0.350844
-0.143982
-0.152565
-0.401379
-0.0253373
-0.0511529
-0.0614805
-0.0727092
-0.0988642
-0.0751179
-0.136824
-0.0762541
-0.176048
-0.0787846
-0.216881
-0.0820011
-0.259744
-0.0860708
-0.304952
-0.0907679
-0.352829
-0.0961047
-0.101821
-0.403572
-0.0255286
-0.0256243
-0.0618409
-0.0363969
-0.0993648
-0.037594
-0.137458
-0.0381605
-0.176817
-0.0394259
-0.217784
-0.0410342
-0.260785
-0.0430699
-0.306134
-0.0454192
-0.354151
-0.0480873
-0.0509435
-0.405029
-0.0256243
2.36537e-09
-0.0620212
3.34084e-09
-0.0996152
3.31912e-09
-0.137776
3.19866e-09
-0.177202
3.10935e-09
-0.218236
3.02485e-09
-0.261306
2.95145e-09
-0.306725
2.88125e-09
-0.354812
2.81201e-09
2.73162e-09
-0.405756
-0.0256243
0.0256243
-0.0620212
0.0363969
-0.0996152
0.037594
-0.137776
0.0381605
-0.177202
0.0394259
-0.218236
0.0410342
-0.261306
0.0430699
-0.306725
0.0454192
-0.354812
0.0480873
0.0509435
-0.405756
-0.0255286
0.0511529
-0.0618409
0.0727092
-0.0993648
0.0751179
-0.137458
0.0762541
-0.176817
0.0787846
-0.217784
0.0820011
-0.260785
0.0860708
-0.306134
0.0907679
-0.354151
0.0961048
0.101821
-0.405029
-0.0253373
0.0764903
-0.0614805
0.108852
-0.0988642
0.112502
-0.136824
0.114214
-0.176048
0.118009
-0.216881
0.122834
-0.259744
0.128934
-0.304952
0.135976
-0.352829
0.143982
0.152565
-0.403572
-0.0250507
0.101541
-0.06094
0.144742
-0.0981137
0.149675
-0.135873
0.151973
-0.174896
0.157032
-0.215527
0.163465
-0.258183
0.17159
-0.303179
0.180971
-0.350844
0.191646
0.2031
-0.401379
-0.0246692
0.12621
-0.0602198
0.180292
-0.0971136
0.186569
-0.134606
0.189466
-0.173361
0.195787
-0.213724
0.203827
-0.256105
0.213971
-0.300817
0.225684
-0.348197
0.239026
0.253351
-0.398448
-0.0241935
0.150404
-0.0593202
0.215419
-0.0958645
0.223113
-0.133024
0.226625
-0.171445
0.234208
-0.211473
0.243855
-0.253511
0.256008
-0.297868
0.270042
-0.344887
0.286045
0.303243
-0.394779
-0.0236249
0.174029
-0.0582416
0.250036
-0.0943672
0.259239
-0.131128
0.263387
-0.16915
0.27223
-0.208778
0.283483
-0.250403
0.297634
-0.294335
0.313973
-0.340918
0.332628
0.3527
-0.390375
-0.0229657
0.196994
-0.0569845
0.284054
-0.0926224
0.294877
-0.12892
0.299684
-0.166478
0.309788
-0.20564
0.322645
-0.246787
0.338781
-0.290221
0.357407
-0.336295
0.378702
0.401645
-0.385241
-0.0222207
0.219215
-0.0555496
0.317383
-0.090631
0.329958
-0.126401
0.335454
-0.163431
0.346819
-0.202063
0.361277
-0.242666
0.379383
-0.285534
0.400276
-0.331026
0.424194
0.450005
-0.379386
-0.0214021
0.240617
-0.0539373
0.349918
-0.088394
0.364415
-0.123572
0.370632
-0.160013
0.383259
-0.198052
0.399315
-0.238045
0.419376
-0.28028
0.442511
-0.325117
0.469031
0.497705
-0.372817
-0.02051
0.261127
-0.0521468
0.381555
-0.0859121
0.39818
-0.120437
0.405157
-0.156226
0.419049
-0.19361
0.436699
-0.23293
0.458697
-0.274466
0.484047
-0.318577
0.513142
0.544675
-0.365546
-0.0194997
0.280627
-0.0501759
0.412231
-0.0831856
0.43119
-0.116997
0.438969
-0.152075
0.454126
-0.188742
0.473366
-0.227329
0.497284
-0.2681
0.524819
-0.311414
0.556455
0.590844
-0.357583
-0.0183856
0.299012
-0.0480258
0.441872
-0.080215
0.463379
-0.113255
0.472009
-0.147563
0.488434
-0.183454
0.509257
-0.221246
0.535077
-0.261191
0.564763
-0.303637
0.598902
0.636146
-0.348939
-0.0171743
0.316187
-0.0456983
0.470396
-0.0770013
0.494682
-0.109214
0.504222
-0.142695
0.521915
-0.177751
0.544313
-0.214692
0.572017
-0.253747
0.603818
-0.295257
0.640412
0.680514
-0.339625
-0.0158699
0.332057
-0.0431949
0.497721
-0.073546
0.525033
-0.104877
0.535552
-0.137475
0.554513
-0.171641
0.57848
-0.207673
0.608048
-0.245778
0.641923
-0.286283
0.680917
0.723881
-0.32965
-0.0144752
0.346532
-0.0405173
0.523763
-0.0698508
0.554367
-0.100247
0.565948
-0.131909
0.586176
-0.16513
0.611701
-0.200199
0.643117
-0.237301
0.679025
-0.27673
0.720346
0.766175
-0.319024
-0.0129928
0.359525
-0.0376673
0.548437
-0.0659176
0.582617
-0.0953271
0.595358
-0.126002
0.616851
-0.158225
0.643924
-0.192276
0.677168
-0.228319
0.715068
-0.266591
0.758619
0.807323
-0.30774
-0.011425
0.37095
-0.034647
0.571659
-0.0617483
0.609718
-0.0901221
0.623731
-0.11976
0.646489
-0.150934
0.675098
-0.183919
0.710153
-0.218875
0.750025
-0.255927
0.795671
0.847207
-0.295811
-0.00977387
0.380724
-0.0314587
0.593344
-0.0573453
0.635605
-0.0846356
0.651022
-0.113189
0.675042
-0.143264
0.705173
-0.175123
0.742011
-0.208937
0.783838
-0.244611
0.831345
0.885755
-0.283159
-0.00804147
0.388765
-0.0281054
0.613408
-0.0527108
0.66021
-0.0788717
0.677183
-0.106294
0.702465
-0.135227
0.734105
-0.165911
0.772695
-0.198607
0.816534
-0.233021
0.865759
0.922715
-0.269981
-0.00622915
0.394994
-0.0245898
0.631769
-0.0478478
0.683468
-0.0728351
0.70217
-0.0990836
0.728713
-0.126831
0.761852
-0.156284
0.802149
-0.187747
0.847997
-0.221311
0.899323
0.95748
-0.256076
-0.00433659
0.399331
-0.0209153
0.648347
-0.0427597
0.705312
-0.0665307
0.725941
-0.0915626
0.753745
-0.118083
0.788373
-0.146263
0.830328
-0.176396
0.87813
-0.208655
0.931583
0.991447
-0.242623
-0.0023575
0.401688
-0.0170851
0.663075
-0.0374512
0.725679
-0.0599638
0.748454
-0.0837388
0.77752
-0.108994
0.813628
-0.135865
0.8572
-0.164609
0.906874
-0.195523
0.962497
1.02422
-0.228296
-0.000230867
0.401919
-0.013102
0.675946
-0.0319284
0.744505
-0.0531399
0.769665
-0.0756203
0.800001
-0.0995699
0.837578
-0.1251
0.88273
-0.152431
0.934205
-0.181905
0.99197
1.05554
-0.213225
0.00165994
0.400259
-0.00896757
0.686574
-0.0262028
0.76174
-0.0460648
0.789527
-0.0672155
0.821152
-0.0898227
0.860185
-0.113976
0.906883
-0.139869
0.960099
-0.167845
1.01995
1.08534
-0.197647
0.00363684
0.396622
-0.00466541
0.694876
-0.0202871
0.777362
-0.0387444
0.807984
-0.0585336
0.840941
-0.0797626
0.881414
-0.102502
0.929622
-0.126923
0.98452
-0.153353
1.04638
1.11358
-0.181595
0.00566561
0.390957
-0.000108401
0.70065
-0.0141911
0.791445
-0.0311834
0.824977
-0.0495845
0.859342
-0.0694006
0.90123
-0.0906903
0.950912
-0.113602
1.00743
-0.138443
1.07122
1.14021
-0.165065
0.00770991
0.383247
0.00421915
0.704141
-0.00793299
0.803597
-0.023391
0.840435
-0.0403783
0.876329
-0.0587479
0.9196
-0.0785542
0.970718
-0.09992
1.0288
-0.123133
1.09443
1.16515
-0.148081
0.00975149
0.373495
0.00873518
0.705157
-0.0015441
0.813876
-0.0153815
0.854272
-0.0309266
0.891874
-0.0478162
0.936489
-0.0661076
0.989009
-0.0858925
1.04858
-0.107441
1.11598
1.18838
-0.130671
0.0117716
0.361724
0.0133428
0.703586
0.00515924
0.82206
-0.00716976
0.866601
-0.0212402
0.905945
-0.0366181
0.951867
-0.0533651
1.00576
-0.0715357
1.06675
-0.0913833
1.13583
1.20986
-0.112857
0.0137451
0.347979
0.0180018
0.699329
0.0119902
0.828071
0.00121652
0.877375
-0.0113362
0.918497
-0.0251678
0.965699
-0.040342
1.02093
-0.056868
1.08328
-0.0749763
1.15394
1.22954
-0.09466
0.0156419
0.332337
0.0226771
0.692294
0.0189211
0.831827
0.00988811
0.886408
-0.00126968
0.929655
-0.0134837
0.977913
-0.0270545
1.0345
-0.0419108
1.09814
-0.0582391
1.17026
1.2474
-0.0761016
0.0174286
0.314908
0.0273318
0.682391
0.0259411
0.833218
0.0186971
0.893652
0.00917248
0.93918
-0.00161161
0.988697
-0.0135195
1.04641
-0.0266888
1.1113
-0.0411874
1.18476
1.26343
-0.0572103
0.0190686
0.29584
0.0319233
0.669536
0.0330224
0.832119
0.0276525
0.899022
0.0197613
0.947071
0.0105797
0.997878
0.000213603
1.05678
-0.0112363
1.12275
-0.0238402
1.19737
1.27759
-0.0380056
0.0205219
0.275318
0.0364033
0.653655
0.0401291
0.828393
0.0367337
0.902417
0.0305073
0.953297
0.0229426
1.00544
0.0142836
1.06543
0.0044682
1.13257
-0.00619514
1.20803
1.28993
-0.0185332
0.0217459
0.253572
0.0407175
0.634683
0.0472174
0.821893
0.0459142
0.90372
0.0414041
0.957807
0.0354726
1.01137
0.0285063
1.0724
0.0205144
1.14056
0.0115698
1.21697
1.3003
0.00120426
0.0226972
0.230875
0.0448056
0.612575
0.0542344
0.812464
0.0551632
0.902792
0.0524335
0.960537
0.0481599
1.01565
0.042899
1.07766
0.036699
1.14676
0.0295794
1.22409
1.30846
0.0214122
0.0233349
0.20754
0.0486018
0.587308
0.0611228
0.799943
0.0644444
0.89947
0.0635727
0.961409
0.0609873
1.01823
0.0574438
1.08121
0.0530455
1.15116
0.0478235
1.22932
1.31459
0.0416985
0.0236257
0.183914
0.0520359
0.558897
0.0678313
0.784148
0.0737141
0.893587
0.0747949
0.960328
0.0739346
1.01909
0.0721219
1.08302
0.0695403
1.15374
0.0662383
1.23262
1.3187
0.0621246
0.0235483
0.160366
0.0550341
0.527412
0.0742806
0.764901
0.082918
0.88495
0.0860681
0.957178
0.0869794
1.01818
0.0869133
1.08308
0.0861577
1.1545
0.0847794
1.234
1.32082
0.0826645
0.0230972
0.137269
0.0575246
0.492984
0.0803802
0.742046
0.0919896
0.87334
0.0973526
0.951815
0.100096
1.01544
0.101796
1.08138
0.102872
1.15342
0.103429
1.23344
1.32094
0.103301
0.0222841
0.114984
0.0594422
0.455826
0.0860258
0.715462
0.10085
0.858516
0.108599
0.944066
0.113255
1.01078
0.116747
1.07789
0.119659
1.15051
0.122166
1.23093
1.31904
0.124069
0.0211377
0.0938467
0.0606076
0.416356
0.0910992
0.68497
0.109404
0.840211
0.119745
0.933725
0.126419
1.00411
0.13174
1.07257
0.136497
1.14575
0.140961
1.22647
1.31509
0.144916
0.0197012
0.0741455
0.0609338
0.375124
0.0954741
0.65043
0.117536
0.81815
0.130713
0.920547
0.139543
0.99528
0.146747
1.06537
0.15336
1.13914
0.159788
1.22004
1.30907
0.1658
0.0180246
0.0561209
0.0603626
0.332786
0.0990121
0.611781
0.125105
0.792057
0.141405
0.904247
0.15257
0.984115
0.161732
1.0562
0.170222
1.13065
0.178615
1.21165
1.301
0.186686
0.0161611
0.0399598
0.0588541
0.290093
0.101561
0.569074
0.131949
0.761669
0.151701
0.884495
0.165429
0.970388
0.176653
1.04498
0.18705
1.12025
0.197416
1.20128
1.29088
0.207541
0.0141688
0.025791
0.0564077
0.247854
0.102959
0.522522
0.137881
0.726747
0.161453
0.860923
0.178026
0.953815
0.191457
1.03155
0.203809
1.1079
0.216159
1.18893
1.27871
0.228332
0.0121188
0.0136722
0.0530785
0.206894
0.103043
0.472558
0.142685
0.687105
0.170478
0.83313
0.190238
0.934054
0.206074
1.01571
0.220457
1.09352
0.234813
1.17458
1.26449
0.249028
0.0100984
0.00357375
0.0489841
0.168008
0.101659
0.419884
0.146125
0.642639
0.178556
0.800698
0.201909
0.910702
0.220411
0.997212
0.236941
1.07699
0.253341
1.15818
1.24824
0.269594
0.00820302
-0.00462927
0.0442958
0.131916
0.0986808
0.365499
0.147943
0.593376
0.185419
0.763223
0.212832
0.883289
0.234344
0.975701
0.253194
1.05814
0.2717
1.13967
1.22994
0.289997
0.00651323
-0.0111425
0.0392165
0.0992124
0.0940385
0.310676
0.147871
0.539544
0.190747
0.720347
0.222748
0.851288
0.247702
0.950746
0.269119
1.03672
0.289835
1.11895
1.20958
0.310196
0.00507374
-0.0162162
0.0339624
0.0703237
0.0877575
0.256881
0.145643
0.481658
0.194169
0.671821
0.231325
0.814132
0.260256
0.921816
0.284578
1.0124
0.307672
1.09586
1.1871
0.330153
0.00388508
-0.0201013
0.0287564
0.0454524
0.0800127
0.205625
0.141032
0.420639
0.195276
0.617577
0.238158
0.771249
0.271699
0.888275
0.299385
0.98471
0.325104
1.07014
1.16241
0.349798
0.00291609
-0.0230174
0.0238165
0.024552
0.0711608
0.158281
0.133894
0.357905
0.193636
0.557836
0.242759
0.722126
0.281625
0.84941
0.313266
0.953069
0.341987
1.04142
1.13531
0.36908
0.00212654
-0.025144
0.019328
0.0073505
0.0617006
0.115908
0.124254
0.295352
0.18884
0.49325
0.244561
0.666405
0.289509
0.804462
0.325856
0.916723
0.358071
1.0092
1.10553
0.38785
0.00148348
-0.0266274
0.0154104
-0.0065764
0.052179
0.0791396
0.112397
0.235134
0.18057
0.425077
0.242944
0.604031
0.294689
0.752717
0.336635
0.874777
0.373082
0.972755
1.07268
0.40594
0.000965347
-0.0275928
0.0121023
-0.0177133
0.0431075
0.0481344
0.0989155
0.179326
0.168705
0.355288
0.237284
0.535451
0.296368
0.693633
0.344936
0.826209
0.386396
0.931295
1.03582
0.423251
0.000558169
-0.028151
0.009374
-0.0265292
0.0348925
0.0226159
0.084656
0.129562
0.153466
0.286478
0.227077
0.46184
0.293597
0.627113
0.349922
0.769884
0.397488
0.883728
0.994664
0.438646
0.00025058
-0.0284015
0.00715892
-0.0334375
0.0277748
0.00200008
0.0705545
0.0867826
0.135547
0.221485
0.212059
0.385329
0.285488
0.553684
0.35042
0.704953
0.405205
0.828942
0.946214
0.453656
3.22469e-05
-0.0284338
0.00537975
-0.038785
0.0218115
-0.0144317
0.057434
0.0511602
0.116116
0.162804
0.192505
0.308939
0.271171
0.475018
0.345749
0.630374
0.407242
0.76745
0.890369
0.463087
-0.000134721
-0.0282991
0.00395879
-0.0428785
0.0169188
-0.0273917
0.0458394
0.0222395
0.0965892
0.112054
0.169385
0.236143
0.25046
0.393944
0.33372
0.547113
0.405801
0.695369
0.833782
0.462388
-0.000244484
-0.0280546
0.00282148
-0.0459445
0.0129386
-0.0375088
0.0359802
-0.000802102
0.078285
0.0697489
0.144318
0.17011
0.224068
0.314193
0.313188
0.457994
0.397303
0.611254
0.768828
0.462256
-0.000318307
-0.0277363
0.0018973
-0.0481601
0.00969036
-0.0453019
0.0277872
-0.0188989
0.0620929
0.0354433
0.119167
0.113036
0.193697
0.239662
0.284166
0.367525
0.378725
0.516694
0.693416
0.454138
-0.000376502
-0.0273598
0.0011197
-0.0496563
0.00699736
-0.0511795
0.0210226
-0.0329242
0.0483238
0.00814212
0.0954684
0.0658918
0.161825
0.173306
0.248179
0.281172
0.348996
0.415877
0.606988
0.435424
-0.000435966
-0.0269238
0.00042867
-0.0505209
0.00469907
-0.0554499
0.0153783
-0.0436035
0.0367916
-0.0132711
0.0741346
0.0285487
0.131021
0.116419
0.208157
0.204036
0.308799
0.315234
0.510919
0.404868
-0.00050915
-0.0264147
-0.000227483
-0.0508026
0.00265906
-0.0583365
0.0105467
-0.0514911
0.0270573
-0.0297818
0.0555514
5.46194e-05
0.103024
0.0689466
0.16763
0.13943
0.261254
0.22161
0.409318
0.362855
-0.000606972
-0.0258077
-0.000890218
-0.0505193
0.00077416
-0.0600008
0.00626778
-0.0569848
0.0186683
-0.0421823
0.0397382
-0.0210153
0.0783641
0.0303208
0.129806
0.087988
0.211283
0.140134
0.309023
0.311579
-0.000738716
-0.025069
-0.00157824
-0.0496798
-0.00105335
-0.0605257
0.00234654
-0.0603847
0.0112836
-0.0511193
0.0263913
-0.0361231
0.0568281
-0.000115954
0.0968021
0.048014
0.163533
0.073403
0.217783
0.254772
-0.000904058
-0.0241649
-0.00230434
-0.0482795
-0.00286326
-0.0599668
-0.00130785
-0.0619401
0.00466678
-0.0570939
0.0150006
-0.0464569
0.0380483
-0.0231636
0.0690214
0.0170408
0.120497
0.0219276
0.141364
0.196916
-0.00110054
-0.0230644
-0.0030687
-0.0463114
-0.00465844
-0.0583771
-0.00471776