/*--------------------------------*- C++ -*----------------------------------*\
  =========                 |
  \\      /  F ield         | OpenFOAM: The Open Source CFD Toolbox
   \\    /   O peration     | Website:  https://openfoam.org
    \\  /    A nd           | Version:  9
     \\/     M anipulation  |
\*---------------------------------------------------------------------------*/
FoamFile
{
    format      ascii;
    class       surfaceScalarField;
    location    "9";
    object      phi;
}
// * * * * * * * * * * * * * * * * * * * * * * * * * * * * * * * * * * * * * //

dimensions      [0 3 -1 0 0 0 0];

internalField   nonuniform List<scalar> 
16735
(
-0.00150519
0.00150519
-3.22133e-11
-0.00411963
0.00261444
-4.7655e-11
-0.00698113
0.0028615
-4.22542e-11
-0.00935193
0.00237079
-1.49738e-11
-0.0106667
0.00131476
4.26447e-11
-0.0103877
-0.00027899
1.25588e-10
-0.00801867
-0.00236903
2.39649e-10
-0.00298758
-0.00503109
3.88682e-10
0.00473261
-0.00772019
5.64475e-10
-0.0111468
7.69245e-10
0.0158795
-0.00147398
0.00297916
-0.00401105
0.00515152
-0.00674815
0.0055986
-0.00894333
0.00456598
-0.0100237
0.00239518
-0.00944226
-0.000860478
-0.0066903
-0.00512099
-0.0012084
-0.010513
0.00713603
-0.0160646
-0.0230301
0.0190193
-0.0014121
0.00439126
-0.00379548
0.0075349
-0.00628526
0.00808838
-0.00813124
0.00641196
-0.00874565
0.00300959
-0.00756215
-0.00204398
-0.00404497
-0.00863817
0.00238469
-0.0169426
0.0119147
-0.0255947
-0.0363637
0.0252483
-0.00132062
0.00571188
-0.00347601
0.0096903
-0.00559851
0.0102109
-0.0069257
0.00773916
-0.00684809
0.00293197
-0.00477032
-0.00412175
-7.29361e-05
-0.0133356
0.00773234
-0.0247479
0.0190011
-0.0368634
-0.051826
0.0344634
-0.00120107
0.00691294
-0.00305713
0.0115464
-0.00469666
0.0118504
-0.00534124
0.00838374
-0.00435343
0.00194416
-0.00110848
-0.0073667
0.00502819
-0.0194722
0.014728
-0.0344477
0.0282903
-0.0504257
-0.0700462
0.0465105
-0.00105537
0.00796831
-0.00254447
0.0130355
-0.00359083
0.0128968
-0.00339636
0.00818928
-0.00128902
-0.00016318
0.00339633
-0.0120521
0.0113388
-0.0274147
0.0232903
-0.0463992
0.0396473
-0.0667827
-0.0915853
0.0611864
-0.000885754
0.00885406
-0.00194464
0.0140943
-0.00229407
0.0132462
-0.00111291
0.00700812
0.00230824
-0.00358433
0.00868417
-0.018428
0.0187448
-0.0374753
0.0333073
-0.0609617
0.0529053
-0.0863807
-0.11692
0.0782401
-0.000694674
0.00954874
-0.00126487
0.0146645
-0.000820888
0.0128022
0.00148407
0.00470316
0.00640152
-0.00850177
0.0146965
-0.026723
0.0271555
-0.0499343
0.0446463
-0.0784525
0.0678671
-0.109601
-0.146427
0.0973745
-0.000484778
0.0100335
-0.000512589
0.0146924
0.000813453
0.0114762
0.00436861
0.001148
0.0109492
-0.0150823
0.0213693
-0.0371431
0.0364722
-0.0650372
0.0571572
-0.0991375
0.0843058
-0.13675
-0.180368
0.118246
-0.000259502
0.010293
0.000303153
0.0141297
0.00259278
0.00918655
0.00751304
-0.00377226
0.0159061
-0.0234754
0.028633
-0.04987
0.0465872
-0.0829914
0.0706743
-0.123225
0.101966
-0.168042
-0.218868
0.140466
-1.13495e-05
0.0103044
0.00117709
0.0129413
0.00450155
0.00586208
0.0108891
-0.0101598
0.0212258
-0.033812
0.0364136
-0.0650579
0.0573849
-0.103963
0.0850183
-0.150858
0.120568
-0.203592
-0.261903
0.163603
0.000238559
0.0100658
0.00210078
0.011079
0.00652442
0.00143844
0.0144688
-0.0181042
0.0268605
-0.0462037
0.0446338
-0.0828312
0.0687419
-0.128071
0.0999971
-0.182113
0.139807
-0.243402
-0.30929
0.187195
0.000501905
0.00956391
0.00306799
0.00851295
0.00864671
-0.00414028
0.0182244
-0.027682
0.0327619
-0.0607412
0.0532128
-0.103282
0.080527
-0.155385
0.115407
-0.216994
0.15936
-0.287354
-0.36068
0.210749
0.000774497
0.00878941
0.00407298
0.00521447
0.0108547
-0.010922
0.0221288
-0.038956
0.0388808
-0.0774932
0.0620661
-0.126467
0.092601
-0.18592
0.131035
-0.255427
0.178885
-0.335204
-0.415558
0.233762
0.00105494
0.00773447
0.0051107
0.00115871
0.0131357
-0.018947
0.0261552
-0.0519756
0.0451666
-0.0965045
0.0711052
-0.152406
0.104815
-0.21963
0.146655
-0.297267
0.198032
-0.386581
-0.473256
0.25573
0.00134237
0.00639209
0.00617674
-0.00367566
0.0154774
-0.0282476
0.0302769
-0.0667752
0.0515671
-0.117795
0.0802364
-0.181075
0.117013
-0.256406
0.162034
-0.342288
0.216442
-0.440989
-0.532991
0.276177
0.00163625
0.00475585
0.0072673
-0.00930671
0.0178681
-0.0388485
0.0344667
-0.0833737
0.0580274
-0.141355
0.08936
-0.212408
0.129027
-0.296073
0.176932
-0.390194
0.233755
-0.497811
-0.593946
0.29471
0.00193625
0.00281959
0.00837885
-0.0157493
0.0202962
-0.0507658
0.038696
-0.101774
0.064489
-0.167148
0.0983695
-0.246289
0.140684
-0.338388
0.191111
-0.440621
0.249619
-0.556319
-0.655398
0.31107
0.00224222
0.000577371
0.00950796
-0.023015
0.0227492
-0.0640071
0.0429342
-0.121958
0.0708888
-0.195103
0.107151
-0.282551
0.151807
-0.383044
0.204345
-0.493159
0.263749
-0.615723
-0.716806
0.325157
0.00255401
-0.00197664
0.010651
-0.031112
0.0252139
-0.07857
0.0471479
-0.143893
0.0771583
-0.225113
0.115582
-0.320974
0.162209
-0.429671
0.216376
-0.547326
0.275987
-0.675334
-0.778946
0.338127
0.00287139
-0.00484803
0.0118037
-0.0400443
0.0276753
-0.0944415
0.0513005
-0.167518
0.0832243
-0.257037
0.123534
-0.361283
0.171686
-0.477823
0.226787
-0.602427
0.286414
-0.734961
-0.854229
0.361697
0.00319398
-0.00804201
0.0129612
-0.0498116
0.0301165
-0.111597
0.055352
-0.192753
0.0890095
-0.290695
0.13088
-0.403153
0.18005
-0.526994
0.23531
-0.657687
0.293865
-0.793516
-0.922258
0.361894
0.00352108
-0.0115631
0.0141175
-0.060408
0.0325183
-0.129998
0.0592588
-0.219494
0.0944343
-0.32587
0.137497
-0.446216
0.187149
-0.576646
0.241802
-0.71234
0.298475
-0.850189
-0.983929
0.360146
0.00385163
-0.0154147
0.0152654
-0.0718218
0.0348593
-0.149591
0.0629746
-0.247609
0.099419
-0.362315
0.143275
-0.490073
0.192865
-0.626236
0.246246
-0.765721
0.3005
-0.904443
-1.03993
0.356498
0.00418416
-0.0195989
0.0163963
-0.0840339
0.0371156
-0.170311
0.0664508
-0.276944
0.103885
-0.399749
0.148115
-0.534302
0.19711
-0.675231
0.248645
-0.817256
0.299999
-0.955796
-1.09075
0.350819
0.00451673
-0.0241156
0.0175005
-0.0970177
0.0392612
-0.192071
0.0696377
-0.307321
0.107759
-0.43787
0.151933
-0.578477
0.199827
-0.723125
0.249031
-0.86646
0.297098
-1.00386
-1.13675
0.343096
0.00484691
-0.0289625
0.0185668
-0.110738
0.0412688
-0.214773
0.0724857
-0.338538
0.110972
-0.476356
0.154663
-0.622169
0.200989
-0.769451
0.247465
-0.912936
0.29197
-1.04837
-1.1782
0.333422
0.0051718
-0.0341343
0.0195831
-0.125149
0.0431097
-0.2383
0.074947
-0.370375
0.113464
-0.514874
0.156261
-0.664965
0.200602
-0.813792
0.244039
-0.956372
0.28481
-1.08914
-1.21534
0.321954
0.0054881
-0.0396224
0.0205363
-0.140197
0.0447551
-0.262519
0.0769768
-0.402597
0.11519
-0.553086
0.156702
-0.706478
0.1987
-0.855791
0.238868
-0.99654
0.275828
-1.1261
-1.24839
0.308881
0.00579213
-0.0454146
0.0214128
-0.155818
0.046177
-0.287283
0.0785353
-0.434955
0.116111
-0.590662
0.155983
-0.74635
0.195343
-0.89515
0.232091
-1.03329
0.265235
-1.15924
-1.27757
0.294406
0.00607991
-0.0514945
0.0221987
-0.171937
0.0473486
-0.312433
0.0795889
-0.467195
0.116207
-0.627281
0.154123
-0.784265
0.190612
-0.93164
0.223854
-1.06653
0.253238
-1.18863
-1.30306
0.278731
0.00634726
-0.0578417
0.0228803
-0.18847
0.0482453
-0.337798
0.080111
-0.499061
0.11547
-0.66264
0.151156
-0.819951
0.184604
-0.965088
0.214314
-1.09624
0.240036
-1.21435
-1.32507
0.262045
0.00658989
-0.0644316
0.0234444
-0.205324
0.0488457
-0.363199
0.0800831
-0.530298
0.113906
-0.696463
0.147134
-0.853179
0.177426
-0.99538
0.203627
-1.12244
0.225813
-1.23653
-1.34378
0.244523
0.00680352
-0.0712351
0.0238785
-0.222399
0.049132
-0.388453
0.079495
-0.560661
0.111531
-0.728499
0.142122
-0.883771
0.169195
-1.02245
0.191944
-1.14519
0.210738
-1.25533
-1.35936
0.226323
0.00698393
-0.0782191
0.0241715
-0.239587
0.0490904
-0.413371
0.078345
-0.589916
0.108376
-0.758531
0.136193
-0.911587
0.160026
-1.04628
0.179411
-1.16457
0.194965
-1.27088
-1.37198
0.207582
0.00712713
-0.0853462
0.0243137
-0.256773
0.0487119
-0.43777
0.0766394
-0.617843
0.10448
-0.786372
0.129428
-0.936535
0.150036
-1.06689
0.166164
-1.1807
0.178629
-1.28335
-1.38177
0.188422
0.0072294
-0.0925756
0.0242972
-0.273841
0.0479918
-0.461464
0.0743921
-0.644244
0.0998897
-0.811869
0.121909
-0.958555
0.139338
-1.08432
0.152327
-1.19369
0.161849
-1.29287
-1.38887
0.168946
0.00728735
-0.0998629
0.0241157
-0.290669
0.04693
-0.484279
0.0716237
-0.668937
0.094657
-0.834902
0.113724
-0.977621
0.128039
-1.09864
0.138013
-1.20366
0.144732
-1.29959
-1.39338
0.149246
0.00729809
-0.107161
0.0237653
-0.307137
0.045531
-0.506044
0.0683605
-0.691767
0.088839
-0.855381
0.104955
-0.993738
0.116241
-1.10992
0.123325
-1.21075
0.127367
-1.30363
-1.39541
0.129398
0.00725919
-0.11442
0.023244
-0.323121
0.0438034
-0.526604
0.0646337
-0.712597
0.082495
-0.873242
0.0956869
-1.00693
0.104036
-1.11827
0.108353
-1.21507
0.109836
-1.30511
-1.39505
0.10947
0.00716876
-0.121589
0.0225519
-0.338505
0.0417595
-0.545811
0.0604781
-0.731316
0.0756855
-0.88845
0.0859974
-1.01724
0.0915102
-1.12378
0.0931783
-1.21673
0.0922059
-1.30414
-1.39236
0.0895207
0.00702554
-0.128615
0.0216912
-0.35317
0.0394149
-0.563535
0.0559316
-0.747833
0.0684705
-0.900988
0.0759617
-1.02473
0.078742
-1.12656
0.0778722
-1.21586
0.0745384
-1.30081
-1.38742
0.0696001
0.00682882
-0.135443
0.0206659
-0.367007
0.0367882
-0.579657
0.0510338
-0.762078
0.0609094
-0.910864
0.0656502
-1.02947
0.065802
-1.12672
0.0624978
-1.21256
0.0568866
-1.2952
-1.38029
0.0497509
0.00657854
-0.142022
0.0194819
-0.379911
0.0339002
-0.594076
0.0458251
-0.774003
0.0530595
-0.918098
0.0551282
-1.03154
0.0527541
-1.12434
0.0471113
-1.20692
0.0392978
-1.28738
-1.371
0.0300085
0.00627523
-0.148297
0.0181467
-0.391782
0.0307736
-0.606703
0.0403466
-0.783576
0.0449755
-0.922727
0.044456
-1.03102
0.0396555
-1.11954
0.031764
-1.19903
0.0218169
-1.27744
-1.35957
0.0103833
0.00592003
-0.154217
0.0166692
-0.402531
0.0274324
-0.617466
0.0346387
-0.790782
0.0367098
-0.924799
0.0336889
-1.028
0.0265568
-1.11241
0.0164984
-1.18897
0.00451699
-1.26546
-1.34601
-0.00903561
0.00551463
-0.159732
0.0150596
-0.412076
0.0239013
-0.626307
0.0287413
-0.795622
0.0283114
-0.924369
0.022878
-1.02257
0.0135046
-1.10304
0.00130856
-1.17677
-0.0126649
-1.25148
-1.3305
-0.0281769
0.00506125
-0.164793
0.0133291
-0.420344
0.0202059
-0.633184
0.022693
-0.798109
0.0198261
-0.921502
0.0120693
-1.01481
0.000535309
-1.0915
-0.013628
-1.16261
-0.0296331
-1.23548
-1.31303
-0.0471035
0.00456262
-0.169356
0.0114896
-0.427271
0.0163716
-0.638066
0.0165309
-0.798269
0.0112966
-0.916268
0.00129854
-1.00481
-0.0122841
-1.07792
-0.0284085
-1.14648
-0.0463513
-1.21753
-1.29362
-0.0657656
0.0040219
-0.173378
0.00955357
-0.432803
0.0124239
-0.640937
0.0102902
-0.796135
0.00276315
-0.90874
-0.0093744
-0.992676
-0.0249514
-1.06234
-0.042971
-1.12846
-0.0628009
-1.1977
-1.27228
-0.0841337
0.00344266
-0.17682
0.00753385
-0.436894
0.00838777
-0.64179
0.00400532
-0.791753
-0.00573863
-0.898996
-0.0199364
-0.978478
-0.0374254
-1.04485
-0.0572823
-1.10861
-0.0789572
-1.17603
-1.24906
-0.102182
0.00282884
-0.179649
0.00544432
-0.439509
0.00428852
-0.640635
-0.00229259
-0.785172
-0.0141755
-0.887114
-0.0303501
-0.962304
-0.049677
-1.02553
-0.0713142
-1.08697
-0.0947946
-1.15255
-1.22397
-0.119886
0.00218472
-0.181834
0.00330151
-0.440626
0.000178939
-0.637512
-0.00857769
-0.776415
-0.0225177
-0.873174
-0.0405863
-0.944235
-0.0616794
-1.00443
-0.0850403
-1.06361
-0.110288
-1.1273
-1.19703
-0.137222
0.00151572
-0.183349
0.00112523
-0.440236
-0.00402148
-0.632365
-0.0148216
-0.765615
-0.0307365
-0.857259
-0.0506189
-0.924353
-0.0734084
-0.981643
-0.0984357
-1.03858
-0.12541
-1.10033
-1.16828
-0.154169
0.000825772
-0.184175
-0.00108332
-0.438327
-0.00818538
-0.625263
-0.0209969
-0.752803
-0.0388066
-0.839449
-0.0604243
-0.902735
-0.0848416
-0.957226
-0.111477
-1.01195
-0.140137
-1.07167
-1.13771
-0.170702
9.38563e-05
-0.184269
-0.00332966
-0.434903
-0.0123252
-0.616268
-0.0270807
-0.738048
-0.0467049
-0.819825
-0.0699812
-0.879459
-0.0959587
-0.931248
-0.12414
-0.983765
-0.15444
-1.04137
-1.10536
-0.186794
-0.000624451
-0.183645
-0.00557255
-0.429955
-0.0164236
-0.605417
-0.0330516
-0.72142
-0.0544104
-0.798466
-0.0792706
-0.854599
-0.106741
-0.903778
-0.136406
-0.9541
-0.168293
-1.00948
-1.07123
-0.202424
-0.00135494
-0.18229
-0.00780631
-0.423504
-0.0204631
-0.59276
-0.03889
-0.702993
-0.0619042
-0.775452
-0.0882753
-0.828228
-0.117173
-0.87488
-0.148256
-0.923016
-0.181673
-0.976063
-1.03534
-0.21756
-0.00209118
-0.180199
-0.0100205
-0.415574
-0.0244275
-0.578353
-0.0445778
-0.682843
-0.0691691
-0.75086
-0.0969797
-0.800417
-0.127238
-0.844622
-0.159675
-0.89058
-0.194536
-0.941202
-0.997771
-0.232104
-0.00282737
-0.177371
-0.0122045
-0.406197
-0.0283017
-0.562256
-0.0500985
-0.661046
-0.0761898
-0.724769
-0.10537
-0.771237
-0.136926
-0.813066
-0.170646
-0.85686
-0.206836
-0.905012
-0.958525
-0.246082
-0.00355882
-0.173812
-0.014348
-0.395408
-0.0320716
-0.544532
-0.0554372
-0.63768
-0.0829523
-0.697254
-0.113434
-0.740755
-0.146229
-0.780271
-0.181163
-0.821926
-0.218194
-0.867981
-0.919291
-0.257428
-0.00428116
-0.169531
-0.0164413
-0.383248
-0.0357239
-0.52525
-0.0605801
-0.612824
-0.089444
-0.66839
-0.121161
-0.709037
-0.155138
-0.746295
-0.191239
-0.785825
-0.229494
-0.829726
-0.878803
-0.269982
-0.00499023
-0.164541
-0.018475
-0.369763
-0.0392465
-0.504478
-0.0655148
-0.586556
-0.0956532
-0.638252
-0.12854
-0.67615
-0.16364
-0.711195
-0.200855
-0.74861
-0.240261
-0.79032
-0.837055
-0.28201
-0.00568209
-0.158859
-0.0204407
-0.355004
-0.0426282
-0.482291
-0.07023
-0.558954
-0.10157
-0.606912
-0.135562
-0.642158
-0.171726
-0.675031
-0.210001
-0.710335
-0.250493
-0.749827
-0.794132
-0.293416
-0.00635298
-0.152506
-0.0223303
-0.339027
-0.0458587
-0.458762
-0.0747154
-0.530097
-0.107184
-0.574443
-0.142217
-0.607125
-0.179388
-0.63786
-0.21867
-0.671053
-0.260198
-0.708299
-0.750112
-0.304218
-0.00699934
-0.145507
-0.0241362
-0.32189
-0.0489287
-0.43397
-0.0789617
-0.500064
-0.112487
-0.540918
-0.148498
-0.571114
-0.186618
-0.59974
-0.226855
-0.630816
-0.269368
-0.665787
-0.705057
-0.314423
-0.00761783
-0.137889
-0.0258515
-0.303657
-0.0518296
-0.407991
-0.0829604
-0.468934
-0.117472
-0.506406
-0.154397
-0.534189
-0.19341
-0.560727
-0.234547
-0.589678
-0.277993
-0.622341
-0.659023
-0.324027
-0.00820531
-0.129683
-0.0274699
-0.284392
-0.0545537
-0.380908
-0.0867037
-0.436784
-0.122131
-0.470979
-0.159908
-0.496412
-0.199754
-0.520881
-0.241737
-0.547695
-0.286063
-0.578015
-0.612068
-0.333019
-0.00875886
-0.120925
-0.0289855
-0.264165
-0.0570939
-0.352799
-0.0901848
-0.403693
-0.126457
-0.434707
-0.165022
-0.457847
-0.205644
-0.48026
-0.248417
-0.504921
-0.293567
-0.532865
-0.564248
-0.341388
-0.00927578
-0.111649
-0.030393
-0.243048
-0.0594438
-0.323748
-0.0933972
-0.369739
-0.130444
-0.397659
-0.169735
-0.418556
-0.211072
-0.438922
-0.254578
-0.461415
-0.300495
-0.486948
-0.515621
-0.349121
-0.00975361
-0.101895
-0.0316875
-0.221114
-0.0615976
-0.293838
-0.0963353
-0.335002
-0.134087
-0.359907
-0.17404
-0.378604
-0.216032
-0.396929
-0.260211
-0.417237
-0.306833
-0.440326
-0.466252
-0.356203
-0.0101901
-0.0917051
-0.0328647
-0.19844
-0.0635503
-0.263153
-0.0989938
-0.299558
-0.137381
-0.32152
-0.177931
-0.338054
-0.220517
-0.354343
-0.265307
-0.372448
-0.312573
-0.39306
-0.416203
-0.362622
-0.0105832
-0.0811219
-0.0339207
-0.175102
-0.0652972
-0.231776
-0.101368
-0.263487
-0.14032
-0.282568
-0.181403
-0.296971
-0.224521
-0.311225
-0.269858
-0.32711
-0.317702
-0.345216
-0.365543
-0.368362
-0.010931
-0.0701909
-0.034852
-0.151181
-0.0668343
-0.199794
-0.103455
-0.226867
-0.142901
-0.243122
-0.184452
-0.25542
-0.228037
-0.267641
-0.273858
-0.281289
-0.322212
-0.296862
-0.314342
-0.373413
-0.0112322
-0.0589587
-0.0356558
-0.126758
-0.0681582
-0.167291
-0.10525
-0.189775
-0.145121
-0.203251
-0.187074
-0.213467
-0.231061
-0.223653
-0.277299
-0.235051
-0.326095
-0.248066
-0.262675
-0.377762
-0.0114852
-0.0474736
-0.0363294
-0.101913
-0.0692659
-0.134355
-0.10675
-0.152291
-0.146975
-0.163026
-0.189264
-0.171178
-0.233588
-0.179329
-0.280176
-0.188463
-0.329341
-0.198901
-0.210615
-0.381401
-0.0116889
-0.0357846
-0.0368708
-0.0767315
-0.070155
-0.101071
-0.107953
-0.114493
-0.148461
-0.122517
-0.19102
-0.12862
-0.235614
-0.134734
-0.282483
-0.141594
-0.331946
-0.149437
-0.158239
-0.384322
-0.0118425
-0.0239421
-0.0372783
-0.0512957
-0.0708235
-0.0675256
-0.108857
-0.0764598
-0.149578
-0.0817965
-0.192339
-0.0858592
-0.237137
-0.0899361
-0.284217
-0.0945141
-0.333905
-0.0997498
-0.105625
-0.386518
-0.0119453
-0.0119968
-0.0375507
-0.0256903
-0.0712699
-0.0338063
-0.109461
-0.0382692
-0.150323
-0.0409337
-0.193219
-0.0429634
-0.238153
-0.0450021
-0.285375
-0.0472924
-0.335212
-0.0499124
-0.0528525
-0.387985
-0.0119968
7.13961e-12
-0.0376871
2.34609e-11
-0.0714934
3.0292e-11
-0.109763
2.61103e-11
-0.150696
2.0365e-11
-0.19366
1.46745e-11
-0.238662
9.58286e-12
-0.285954
5.98922e-12
-0.335867
3.32684e-12
1.10083e-12
-0.388719
-0.0119968
0.0119968
-0.0376871
0.0256903
-0.0714934
0.0338063
-0.109763
0.0382692
-0.150696
0.0409337
-0.19366
0.0429634
-0.238662
0.0450021
-0.285954
0.0472924
-0.335867
0.0499124
0.0528525
-0.388719
-0.0119453
0.0239421
-0.0375507
0.0512957
-0.0712699
0.0675256
-0.109461
0.0764598
-0.150323
0.0817965
-0.193219
0.0858592
-0.238153
0.0899361
-0.285375
0.0945141
-0.335212
0.0997498
0.105625
-0.387985
-0.0118425
0.0357846
-0.0372783
0.0767315
-0.0708235
0.101071
-0.108857
0.114493
-0.149578
0.122517
-0.192339
0.12862
-0.237137
0.134734
-0.284217
0.141594
-0.333905
0.149437
0.158239
-0.386518
-0.0116889
0.0474736
-0.0368708
0.101913
-0.070155
0.134355
-0.107953
0.152291
-0.148461
0.163026
-0.19102
0.171178
-0.235614
0.179329
-0.282483
0.188463
-0.331946
0.198901
0.210615
-0.384322
-0.0114852
0.0589587
-0.0363294
0.126758
-0.0692659
0.167291
-0.10675
0.189775
-0.146975
0.203251
-0.189264
0.213467
-0.233588
0.223653
-0.280176
0.235051
-0.329341
0.248066
0.262675
-0.381401
-0.0112322
0.0701909
-0.0356558
0.151181
-0.0681582
0.199794
-0.10525
0.226867
-0.145121
0.243122
-0.187074
0.25542
-0.231061
0.267641
-0.277299
0.281289
-0.326095
0.296862
0.314342
-0.377762
-0.010931
0.0811219
-0.034852
0.175102
-0.0668343
0.231776
-0.103455
0.263487
-0.142901
0.282568
-0.184452
0.296971
-0.228037
0.311225
-0.273858
0.32711
-0.322212
0.345216
0.365543
-0.373413
-0.0105832
0.0917051
-0.0339207
0.19844
-0.0652972
0.263153
-0.101368
0.299558
-0.14032
0.32152
-0.181403
0.338054
-0.224521
0.354343
-0.269858
0.372448
-0.317702
0.39306
0.416203
-0.368362
-0.0101901
0.101895
-0.0328647
0.221114
-0.0635503
0.293838
-0.0989938
0.335002
-0.137381
0.359907
-0.177931
0.378604
-0.220517
0.396929
-0.265307
0.417237
-0.312573
0.440326
0.466252
-0.362622
-0.00975361
0.111649
-0.0316875
0.243048
-0.0615976
0.323748
-0.0963353
0.369739
-0.134087
0.397659
-0.17404
0.418556
-0.216032
0.438922
-0.260211
0.461415
-0.306833
0.486948
0.515621
-0.356203
-0.00927578
0.120925
-0.030393
0.264165
-0.0594438
0.352799
-0.0933972
0.403693
-0.130444
0.434707
-0.169735
0.457847
-0.211072
0.48026
-0.254578
0.504921
-0.300495
0.532865
0.564248
-0.349121
-0.00875886
0.129683
-0.0289855
0.284392
-0.0570939
0.380908
-0.0901848
0.436784
-0.126457
0.470979
-0.165022
0.496412
-0.205644
0.520881
-0.248417
0.547695
-0.293567
0.578015
0.612068
-0.341388
-0.00820531
0.137889
-0.0274699
0.303657
-0.0545537
0.407991
-0.0867037
0.468934
-0.122131
0.506406
-0.159908
0.534189
-0.199754
0.560727
-0.241737
0.589678
-0.286063
0.622341
0.659023
-0.333019
-0.00761783
0.145507
-0.0258515
0.32189
-0.0518296
0.43397
-0.0829604
0.500064
-0.117472
0.540918
-0.154397
0.571114
-0.19341
0.59974
-0.234547
0.630816
-0.277993
0.665787
0.705057
-0.324027
-0.00699934
0.152506
-0.0241362
0.339027
-0.0489287
0.458762
-0.0789617
0.530097
-0.112487
0.574443
-0.148498
0.607125
-0.186618
0.63786
-0.226855
0.671053
-0.269368
0.708299
0.750112
-0.314423
-0.00635298
0.158859
-0.0223303
0.355004
-0.0458587
0.482291
-0.0747154
0.558954
-0.107184
0.606912
-0.142217
0.642158
-0.179388
0.675031
-0.21867
0.710335
-0.260198
0.749827
0.794132
-0.304218
-0.00568209
0.164541
-0.0204407
0.369763
-0.0426282
0.504478
-0.07023
0.586556
-0.10157
0.638252
-0.135562
0.67615
-0.171726
0.711195
-0.210001
0.74861
-0.250493
0.79032
0.837055
-0.293416
-0.00499023
0.169531
-0.018475
0.383248
-0.0392465
0.52525
-0.0655148
0.612824
-0.0956532
0.66839
-0.12854
0.709037
-0.16364
0.746295
-0.200855
0.785825
-0.240261
0.829726
0.878803
-0.28201
-0.00428116
0.173812
-0.0164413
0.395408
-0.0357239
0.544532
-0.0605801
0.63768
-0.089444
0.697254
-0.121161
0.740755
-0.155138
0.780271
-0.191239
0.821926
-0.229494
0.867981
0.919291
-0.269982
-0.00355882
0.177371
-0.014348
0.406197
-0.0320716
0.562256
-0.0554372
0.661046
-0.0829523
0.724769
-0.113434
0.771237
-0.146229
0.813066
-0.181163
0.85686
-0.218194
0.905012
0.958525
-0.257428
-0.00282737
0.180199
-0.0122045
0.415574
-0.0283017
0.578353
-0.0500985
0.682843
-0.0761898
0.75086
-0.10537
0.800417
-0.136926
0.844622
-0.170646
0.89058
-0.206836
0.941202
0.997771
-0.246082
-0.00209118
0.18229
-0.0100205
0.423504
-0.0244275
0.59276
-0.0445778
0.702993
-0.0691691
0.775452
-0.0969797
0.828228
-0.127238
0.87488
-0.159675
0.923016
-0.194536
0.976063
1.03534
-0.232104
-0.00135494
0.183645
-0.00780631
0.429955
-0.0204631
0.605417
-0.03889
0.72142
-0.0619042
0.798466
-0.0882753
0.854599
-0.117173
0.903778
-0.148256
0.9541
-0.181673
1.00948
1.07123
-0.21756
-0.000624451
0.184269
-0.00557255
0.434903
-0.0164236
0.616268
-0.0330516
0.738048
-0.0544104
0.819825
-0.0792706
0.879459
-0.106741
0.931248
-0.136406
0.983765
-0.168293
1.04137
1.10536
-0.202424
9.38563e-05
0.184175
-0.00332966
0.438327
-0.0123252
0.625263
-0.0270807
0.752803
-0.0467049
0.839449
-0.0699812
0.902735
-0.0959587
0.957226
-0.12414
1.01195
-0.15444
1.07167
1.13771
-0.186794
0.000825772
0.183349
-0.00108332
0.440236
-0.00818538
0.632365
-0.0209969
0.765615
-0.0388066
0.857259
-0.0604243
0.924353
-0.0848416
0.981643
-0.111477
1.03858
-0.140137
1.10033
1.16828
-0.170702
0.00151572
0.181834
0.00112523
0.440626
-0.00402148
0.637512
-0.0148216
0.776415
-0.0307365
0.873174
-0.0506189
0.944235
-0.0734084
1.00443
-0.0984357
1.06361
-0.12541
1.1273
1.19703
-0.154169
0.00218472
0.179649
0.00330151
0.439509
0.000178939
0.640635
-0.00857769
0.785172
-0.0225177
0.887114
-0.0405863
0.962304
-0.0616794
1.02553
-0.0850403
1.08697
-0.110288
1.15255
1.22397
-0.137222
0.00282884
0.17682
0.00544432
0.436894
0.00428852
0.64179
-0.00229259
0.791753
-0.0141755
0.898996
-0.0303501
0.978478
-0.049677
1.04485
-0.0713142
1.10861
-0.0947946
1.17603
1.24906
-0.119886
0.00344266
0.173378
0.00753385
0.432803
0.00838777
0.640937
0.00400532
0.796135
-0.00573863
0.90874
-0.0199364
0.992676
-0.0374254
1.06234
-0.0572823
1.12846
-0.0789572
1.1977
1.27228
-0.102182
0.0040219
0.169356
0.00955357
0.427271
0.0124239
0.638066
0.0102902
0.798269
0.00276315
0.916268
-0.0093744
1.00481
-0.0249514
1.07792
-0.042971
1.14648
-0.0628009
1.21753
1.29362
-0.0841337
0.00456262
0.164793
0.0114896
0.420344
0.0163716
0.633184
0.0165309
0.798109
0.0112966
0.921502
0.00129854
1.01481
-0.0122841
1.0915
-0.0284085
1.16261
-0.0463513
1.23548
1.31303
-0.0657656
0.00506125
0.159732
0.0133291
0.412076
0.0202059
0.626307
0.022693
0.795622
0.0198261
0.924369
0.0120693
1.02257
0.000535309
1.10304
-0.013628
1.17677
-0.0296331
1.25148
1.3305
-0.0471035
0.00551463
0.154217
0.0150596
0.402531
0.0239013
0.617466
0.0287413
0.790782
0.0283114
0.924799
0.022878
1.028
0.0135046
1.11241
0.00130856
1.18897
-0.0126649
1.26546
1.34601
-0.0281769
0.00592003
0.148297
0.0166692
0.391782
0.0274324
0.606703
0.0346387
0.783576
0.0367098
0.922727
0.0336889
1.03102
0.0265568
1.11954
0.0164984
1.19903
0.00451699
1.27744
1.35957
-0.00903561
0.00627523
0.142022
0.0181467
0.379911
0.0307736
0.594076
0.0403466
0.774003
0.0449755
0.918098
0.044456
1.03154
0.0396555
1.12434
0.031764
1.20692
0.0218169
1.28738
1.371
0.0103833
0.00657854
0.135443
0.0194819
0.367007
0.0339002
0.579657
0.0458251
0.762078
0.0530595
0.910864
0.0551282
1.02947
0.0527541
1.12672
0.0471113
1.21256
0.0392978
1.2952
1.38029
0.0300085
0.00682882
0.128615
0.0206659
0.35317
0.0367882
0.563535
0.0510338
0.747833
0.0609094
0.900988
0.0656502
1.02473
0.065802
1.12656
0.0624978
1.21586
0.0568866
1.30081
1.38742
0.0497509
0.00702554
0.121589
0.0216912
0.338505
0.0394149
0.545811
0.0559316
0.731316
0.0684705
0.88845
0.0759617
1.01724
0.078742
1.12378
0.0778722
1.21673
0.0745384
1.30414
1.39236
0.0696001
0.00716876
0.11442
0.0225519
0.323121
0.0417595
0.526604
0.0604781
0.712597
0.0756855
0.873242
0.0859974
1.00693
0.0915102
1.11827
0.0931783
1.21507
0.0922059
1.30511
1.39505
0.0895207
0.00725919
0.107161
0.023244
0.307137
0.0438034
0.506044
0.0646337
0.691767
0.082495
0.855381
0.0956869
0.993738
0.104036
1.10992
0.108353
1.21075
0.109836
1.30363
1.39541
0.10947
0.00729809
0.0998629
0.0237653
0.290669
0.045531
0.484279
0.0683605
0.668937
0.088839
0.834902
0.104955
0.977621
0.116241
1.09864
0.123325
1.20366
0.127367
1.29959
1.39338
0.129398
0.00728735
0.0925756
0.0241157
0.273841
0.04693
0.461464
0.0716237
0.644244
0.094657
0.811869
0.113724
0.958555
0.128039
1.08432
0.138013
1.19369
0.144732
1.29287
1.38887
0.149246
0.0072294
0.0853462
0.0242972
0.256773
0.0479918
0.43777
0.0743921
0.617843
0.0998897
0.786372
0.121909
0.936535
0.139338
1.06689
0.152327
1.1807
0.161849
1.28335
1.38177
0.168946
0.00712713
0.0782191
0.0243137
0.239587
0.0487119
0.413371
0.0766394
0.589916
0.10448
0.758531
0.129428
0.911587
0.150036
1.04628
0.166164
1.16457
0.178629
1.27088
1.37198
0.188422
0.00698393
0.0712351
0.0241715
0.222399
0.0490904
0.388453
0.078345
0.560661
0.108376
0.728499
0.136193
0.883771
0.160026
1.02245
0.179411
1.14519
0.194965
1.25533
1.35936
0.207582
0.00680352
0.0644316
0.0238785
0.205324
0.049132
0.363199
0.079495
0.530298
0.111531
0.696463
0.142122
0.853179
0.169195
0.99538
0.191944
1.12244
0.210738
1.23653
1.34378
0.226323
0.00658989
0.0578417
0.0234444
0.18847
0.0488457
0.337798
0.0800831
0.499061
0.113906
0.66264
0.147134
0.819951
0.177426
0.965088
0.203627
1.09624
0.225813
1.21435
1.32507
0.244523
0.00634726
0.0514945
0.0228803
0.171937
0.0482453
0.312433
0.080111
0.467195
0.11547
0.627281
0.151156
0.784265
0.184604
0.93164
0.214314
1.06653
0.240036
1.18863
1.30306
0.262045
0.00607991
0.0454146
0.0221987
0.155818
0.0473486
0.287283
0.0795889
0.434955
0.116207
0.590662
0.154123
0.74635
0.190612
0.89515
0.223854
1.03329
0.253238
1.15924
1.27757
0.278731
0.00579213
0.0396224
0.0214128
0.140197
0.046177
0.262519
0.0785353
0.402597
0.116111
0.553086
0.155983
0.706478
0.195343
0.855791
0.232091
0.99654
0.265235
1.1261
1.24839
0.294406
0.0054881
0.0341343
0.0205363
0.125149
0.0447551
0.2383
0.0769768
0.370375
0.11519
0.514874
0.156702
0.664965
0.1987
0.813792
0.238868
0.956372
0.275828
1.08914
1.21534
0.308881
0.0051718
0.0289625
0.0195831
0.110738
0.0431097
0.214773
0.074947
0.338538
0.113464
0.476356
0.156261
0.622169
0.200602
0.769451
0.244039
0.912936
0.28481
1.04837
1.1782
0.321954
0.00484691
0.0241156
0.0185668
0.0970177
0.0412688
0.192071
0.0724857
0.307321
0.110972
0.43787
0.154663
0.578477
0.200989
0.723125
0.247465
0.86646
0.29197
1.00386
1.13675
0.333422
0.00451673
0.0195989
0.0175005
0.0840339
0.0392612
0.170311
0.0696377
0.276944
0.107759
0.399749
0.151933
0.534302
0.199827
0.675231
0.249031
0.817256
0.297098
0.955796
1.09075
0.343096
0.00418416
0.0154147
0.0163963
0.0718218
0.0371156
0.149591
0.0664508
0.247609
0.103885
0.362315
0.148115
0.490073
0.19711
0.626236
0.248645
0.765721
0.299999
0.904443
1.03993
0.350819
0.00385163
0.0115631
0.0152654
0.060408
0.0348593
0.129998
0.0629746
0.219494
0.099419
0.32587
0.143275
0.446216
0.192865
0.576646
0.246246
0.71234
0.3005
0.850189
0.983929
0.356498
0.00352108
0.00804201
0.0141175
0.0498116
0.0325183
0.111597
0.0592588
0.192753
0.0944343
0.290695
0.137497
0.403153
0.187149
0.526994
0.241802
0.657687
0.298475
0.793516
0.922258
0.360146
0.00319398
0.00484803
0.0129612
0.0400443
0.0301165
0.0944415
0.055352
0.167518
0.0890095
0.257037
0.13088
0.361283
0.18005
0.477823
0.23531
0.602427
0.293865
0.734961
0.854229
0.361894
0.00287139
0.00197664
0.0118037
0.031112
0.0276753
0.07857
0.0513005
0.143893
0.0832243
0.225113
0.123534
0.320974
0.171686
0.429671
0.226787
0.547326
0.286414
0.675334
0.778946
0.361697
0.00255401
-0.000577371
0.010651
0.023015
0.0252139
0.0640071
0.0471479
0.121958
0.0771583
0.195103
0.115582
0.282551
0.162209
0.383044
0.216376
0.493159
0.275987
0.615723
0.716806
0.338127
0.00224222
-0.00281959
0.00950796
0.0157493
0.0227492
0.0507658
0.0429342
0.101774
0.0708888
0.167148
0.107151
0.246289
0.151807
0.338388
0.204345
0.440621
0.263749
0.556319
0.655398
0.325157
0.00193625
-0.00475585
0.00837885
0.00930671
0.0202962
0.0388485
0.038696
0.0833737
0.064489
0.141355
0.0983695
0.212408
0.140684
0.296073
0.191111
0.390194
0.249619
0.497811
0.593946
0.31107
0.00163625
-0.00639209
0.0072673
0.00367566
0.0178681
0.0282476
0.0344667
0.0667752
0.0580274
0.117795
0.08936
0.181075
0.129027
0.256406
0.176932
0.342288
0.233755
0.440989
0.532991
0.29471
0.00134237
-0.00773447
0.00617674
-0.00115871
0.0154774
0.018947
0.0302769
0.0519756
0.0515671
0.0965045
0.0802364
0.152406
0.117013
0.21963
0.162034
0.297267
0.216442
0.386581
0.473256
0.276177
0.00105494
-0.00878941
0.0051107
-0.00521447
0.0131357
0.010922
0.0261552
0.038956
0.0451666
0.0774932
0.0711052
0.126467
0.104815
0.18592
0.146655
0.255427
0.198032
0.335204
0.415558
0.25573
0.000774497
-0.00956391
0.00407298
-0.00851295
0.0108547
0.00414028
0.0221288
0.027682
0.0388808
0.0607412
0.0620661
0.103282
0.092601
0.155385
0.131035
0.216994
0.178885
0.287354
0.36068
0.233762
0.000501905
-0.0100658
0.00306799
-0.011079
0.00864671
-0.00143844
0.0182244
0.0181042
0.0327619
0.0462037
0.0532128
0.0828312
0.080527
0.128071
0.115407
0.182113
0.15936
0.243402
0.30929
0.210749
0.000238559
-0.0103044
0.00210078
-0.0129413
0.00652442
-0.00586208
0.0144688
0.0101598
0.0268605
0.033812
0.0446338
0.0650579
0.0687419
0.103963
0.0999971
0.150858
0.139807
0.203592
0.261903
0.187195