/*--------------------------------*- C++ -*----------------------------------*\
  =========                 |
  \\      /  F ield         | OpenFOAM: The Open Source CFD Toolbox
   \\    /   O peration     | Website:  https://openfoam.org
    \\  /    A nd           | Version:  7
     \\/     M anipulation  |
\*---------------------------------------------------------------------------*/
FoamFile
{
    version     2.0;
    format      ascii;
    class       volScalarField;
    location    "0.2";
    object      p;
}
// * * * * * * * * * * * * * * * * * * * * * * * * * * * * * * * * * * * * * //

dimensions      [0 2 -2 0 0 0 0];

internalField   nonuniform List<scalar> 
306000
(
0.0724257
0.0755271
0.079151
0.0843797
0.0904952
0.0974275
0.104764
0.112191
0.119372
0.126037
0.131981
0.137073
0.141248
0.144499
0.146859
0.148389
0.149165
0.149269
0.148784
0.147788
0.146355
0.14455
0.142432
0.140054
0.13746
0.134691
0.131782
0.128764
0.125664
0.122505
0.119306
0.116086
0.112859
0.109639
0.106437
0.103262
0.100122
0.0970251
0.0939759
0.0909797
0.0880404
0.0851612
0.0823448
0.0795931
0.0769077
0.0742895
0.0717394
0.0692575
0.0668441
0.0644988
0.0622214
0.0600111
0.0578674
0.0557893
0.0537757
0.051826
0.0499378
0.048113
0.0463424
0.0446448
0.0723057
0.0754079
0.0790318
0.0842608
0.0903766
0.0973097
0.104648
0.112076
0.119259
0.125928
0.131875
0.13697
0.141149
0.144404
0.146768
0.148301
0.149081
0.149188
0.148706
0.147714
0.146284
0.144482
0.142367
0.13999
0.137399
0.134633
0.131726
0.128711
0.125613
0.122455
0.119258
0.11604
0.112815
0.109597
0.106396
0.103223
0.100085
0.0969886
0.0939408
0.0909459
0.0880079
0.08513
0.0823147
0.0795641
0.0768797
0.0742626
0.0717134
0.0692325
0.0668199
0.0644756
0.062199
0.0599895
0.0578466
0.0557692
0.0537563
0.0518073
0.0499197
0.0480956
0.0463256
0.0446287
0.0720657
0.0751693
0.0787934
0.0840229
0.0901394
0.0970741
0.104415
0.111847
0.119035
0.125709
0.131663
0.136765
0.140951
0.144213
0.146585
0.148125
0.148912
0.149026
0.148551
0.147565
0.146141
0.144345
0.142235
0.139864
0.137278
0.134516
0.131614
0.128603
0.125509
0.122356
0.119163
0.115948
0.112727
0.109512
0.106314
0.103144
0.100009
0.0969158
0.0938707
0.0908784
0.0879429
0.0850674
0.0822544
0.0795061
0.0768238
0.0742087
0.0716615
0.0691825
0.0667717
0.0644291
0.0621542
0.0599463
0.0578049
0.055729
0.0537176
0.0517699
0.0498837
0.0480609
0.046292
0.0445964
0.0717058
0.0748116
0.0784359
0.0836662
0.0897837
0.0967207
0.104065
0.111503
0.118698
0.12538
0.131344
0.136457
0.140654
0.143928
0.14631
0.147862
0.148659
0.148783
0.148318
0.147341
0.145926
0.144139
0.142037
0.139674
0.137096
0.134341
0.131446
0.128442
0.125354
0.122207
0.11902
0.11581
0.112594
0.109384
0.106192
0.103026
0.0998953
0.0968066
0.0937656
0.0907772
0.0878454
0.0849735
0.082164
0.079419
0.0767399
0.0741279
0.0715836
0.0691074
0.0666994
0.0643594
0.062087
0.0598816
0.0577424
0.0556688
0.0536595
0.0517139
0.0498296
0.0480087
0.0462417
0.044548
0.071226
0.0743348
0.0779593
0.0831906
0.0893096
0.0962496
0.103599
0.111044
0.118248
0.124943
0.130919
0.136046
0.140258
0.143547
0.145944
0.14751
0.148321
0.14846
0.148008
0.147044
0.145641
0.143864
0.141774
0.139422
0.136853
0.134108
0.131222
0.128226
0.125147
0.122008
0.118828
0.115627
0.112418
0.109215
0.106028
0.102869
0.099744
0.0966609
0.0936254
0.0906423
0.0877155
0.0848484
0.0820436
0.079303
0.0766282
0.0740202
0.0714799
0.0690074
0.066603
0.0642665
0.0619974
0.0597952
0.0576592
0.0555885
0.0535821
0.0516392
0.0497576
0.0479393
0.0461746
0.0444834
0.0706264
0.0737389
0.0773638
0.0825963
0.0887171
0.0956609
0.103016
0.110471
0.117687
0.124396
0.130389
0.135533
0.139763
0.143071
0.145487
0.147071
0.1479
0.148055
0.14762
0.146671
0.145283
0.143522
0.141445
0.139106
0.13655
0.133817
0.130942
0.127958
0.124889
0.121759
0.11859
0.115397
0.112197
0.109002
0.105824
0.102672
0.0995549
0.096479
0.0934503
0.0904737
0.0875532
0.0846921
0.081893
0.079158
0.0764885
0.0738856
0.0713502
0.0688825
0.0664826
0.0641504
0.0618855
0.0596873
0.0575552
0.0554882
0.0534853
0.0515459
0.0496676
0.0478524
0.0460907
0.0444028
0.0699072
0.0730241
0.0766494
0.0818834
0.0880064
0.0949547
0.102318
0.109783
0.117014
0.12374
0.129752
0.134918
0.13917
0.1425
0.144938
0.146544
0.147394
0.14757
0.147154
0.146225
0.144855
0.143111
0.14105
0.138727
0.136186
0.133467
0.130607
0.127635
0.124579
0.121462
0.118303
0.115122
0.111932
0.108748
0.105579
0.102437
0.0993281
0.0962607
0.0932402
0.0902714
0.0873585
0.0845046
0.0817124
0.078984
0.0763209
0.0737242
0.0711946
0.0687326
0.0663381
0.0640111
0.0617512
0.0595579
0.0574304
0.0553679
0.0533692
0.051434
0.0495596
0.0477483
0.0459901
0.044306
0.0690684
0.0721905
0.0758162
0.0810521
0.0871776
0.0941312
0.101503
0.108981
0.116229
0.122975
0.12901
0.1342
0.138478
0.141834
0.144298
0.14593
0.146805
0.147005
0.146612
0.145704
0.144355
0.142631
0.14059
0.138285
0.135761
0.13306
0.130215
0.127259
0.124218
0.121114
0.117969
0.114801
0.111623
0.108451
0.105294
0.102162
0.0990637
0.0960062
0.0929952
0.0900356
0.0871314
0.0842859
0.0815018
0.0787812
0.0761255
0.0735359
0.0710132
0.0685577
0.0661696
0.0638487
0.0615947
0.059407
0.0572848
0.0552275
0.0532339
0.0513034
0.0494336
0.0476269
0.0458728
0.0441932
0.0681103
0.0712383
0.0748646
0.0801024
0.0862308
0.0931905
0.100572
0.108065
0.115332
0.122101
0.128162
0.13338
0.137688
0.141073
0.143567
0.145228
0.146132
0.146359
0.145992
0.14511
0.143785
0.142083
0.140065
0.13778
0.135277
0.132594
0.129768
0.126829
0.123805
0.120717
0.117588
0.114434
0.111271
0.108111
0.104967
0.101848
0.0987616
0.0957155
0.0927153
0.0897662
0.086872
0.0840361
0.0812613
0.0785495
0.0759023
0.0733209
0.070806
0.0683581
0.0659772
0.0636632
0.0614159
0.0592346
0.0571186
0.0550672
0.0530793
0.0511543
0.0492898
0.0474882
0.0457388
0.0440643
0.0670329
0.0701676
0.0737945
0.0790346
0.0851663
0.0921328
0.0995261
0.107035
0.114323
0.121118
0.127209
0.132459
0.136799
0.140219
0.142746
0.14444
0.145375
0.145632
0.145295
0.144441
0.143143
0.141468
0.139473
0.137213
0.134732
0.132071
0.129266
0.126346
0.123341
0.120271
0.117159
0.114022
0.110874
0.10773
0.1046
0.101495
0.0984219
0.0953886
0.0924007
0.0894633
0.0865804
0.0837553
0.0809908
0.078289
0.0756513
0.0730791
0.070573
0.0681336
0.0657608
0.0634547
0.0612148
0.0590407
0.0569317
0.054887
0.0529055
0.0509867
0.049128
0.0473322
0.0455881
0.0439195
0.0658366
0.0689787
0.0726062
0.0778489
0.0839842
0.0909584
0.0983643
0.105892
0.113204
0.120027
0.12615
0.131436
0.135813
0.139269
0.141834
0.143564
0.144534
0.144826
0.144521
0.143699
0.142431
0.140784
0.138817
0.136583
0.134127
0.13149
0.128707
0.12581
0.122825
0.119776
0.116683
0.113564
0.110434
0.107307
0.104193
0.101103
0.0980448
0.0950256
0.0920513
0.0891269
0.0862565
0.0834435
0.0806905
0.0779997
0.0753727
0.0728107
0.0703144
0.0678843
0.0655206
0.0632231
0.0609916
0.0588255
0.0567242
0.0546869
0.0527125
0.0508006
0.0489485
0.0471591
0.0454208
0.0437586
0.0645215
0.0676717
0.0713
0.0765455
0.0826847
0.0896673
0.0970871
0.104635
0.111973
0.118828
0.124987
0.130311
0.134729
0.138226
0.140831
0.142601
0.14361
0.143939
0.143671
0.142883
0.141648
0.140033
0.138096
0.13589
0.133462
0.130851
0.128094
0.125221
0.122259
0.119232
0.11616
0.113061
0.10995
0.106841
0.103745
0.100672
0.0976303
0.0946267
0.0916673
0.0887573
0.0859006
0.0831008
0.0803604
0.0776818
0.0750664
0.0725156
0.0700301
0.0676103
0.0652565
0.0629686
0.0607462
0.058589
0.0564961
0.054467
0.0525004
0.050596
0.0487511
0.0469687
0.045237
0.0435818
0.063088
0.0662469
0.0698761
0.0751247
0.0812683
0.08826
0.095695
0.103265
0.110631
0.117521
0.123719
0.129085
0.133547
0.137089
0.139738
0.141552
0.142603
0.142973
0.142744
0.141993
0.140794
0.139214
0.13731
0.135136
0.132737
0.130155
0.127425
0.124578
0.121641
0.118638
0.115589
0.112512
0.109423
0.106334
0.103257
0.100203
0.0971784
0.0941918
0.0912488
0.0883543
0.0855126
0.0827272
0.0800006
0.0773352
0.0747326
0.0721939
0.0697201
0.0673116
0.0649687
0.0626911
0.0604788
0.0583311
0.0562475
0.0542272
0.0522691
0.050373
0.0485359
0.0467613
0.0450366
0.043389
0.0615361
0.0647047
0.0683347
0.0735866
0.079735
0.0867367
0.0941881
0.101782
0.109179
0.116107
0.122347
0.127758
0.132268
0.135858
0.138555
0.140416
0.141513
0.141927
0.14174
0.141031
0.139871
0.138327
0.136459
0.134319
0.131953
0.129402
0.126701
0.123883
0.120973
0.117996
0.114972
0.111918
0.108852
0.105785
0.102729
0.0996943
0.0966894
0.0937211
0.0907957
0.0879182
0.0850927
0.0823228
0.0796112
0.0769601
0.0743712
0.0718458
0.0693847
0.0669884
0.0646571
0.0623908
0.0601893
0.058052
0.0559784
0.0539677
0.0520189
0.0501316
0.0483031
0.0465367
0.0448197
0.0431804
0.0598664
0.0630452
0.0666762
0.0719317
0.0780852
0.0850976
0.0925667
0.100186
0.107617
0.114585
0.12087
0.126331
0.130891
0.134533
0.137283
0.139194
0.140341
0.140802
0.140661
0.139995
0.138877
0.137373
0.135543
0.13344
0.131109
0.128591
0.125923
0.123135
0.120254
0.117305
0.114307
0.11128
0.108237
0.105194
0.102161
0.0991475
0.0961632
0.0932147
0.0903083
0.0874489
0.0846409
0.0818877
0.0791922
0.0765565
0.0739825
0.0714712
0.0690238
0.0666406
0.0643219
0.0620678
0.0598778
0.0577517
0.0556889
0.0536885
0.0517496
0.0498719
0.0480525
0.0462952
0.0445863
0.042956
0.058079
0.0612688
0.0649008
0.0701602
0.0763192
0.0833431
0.0908313
0.0984781
0.105945
0.112955
0.11929
0.124803
0.129418
0.133116
0.135921
0.137886
0.139086
0.139598
0.139506
0.138887
0.137813
0.136353
0.134563
0.132499
0.130205
0.127723
0.125089
0.122334
0.119484
0.116565
0.113596
0.110596
0.10758
0.104561
0.101552
0.0985623
0.0956
0.0926727
0.0897866
0.0869467
0.0841573
0.0814221
0.0787437
0.0761246
0.0735663
0.0710704
0.0686375
0.0662684
0.0639632
0.061722
0.0595445
0.0574304
0.055379
0.0533897
0.0514615
0.049594
0.0477844
0.0460366
0.0443365
0.0427158
0.0561743
0.0593758
0.0630089
0.0682725
0.0744374
0.0814736
0.0889821
0.0966583
0.104163
0.11122
0.117606
0.123176
0.127849
0.131606
0.13447
0.136493
0.137749
0.138315
0.138275
0.137706
0.13668
0.135265
0.133519
0.131497
0.129243
0.126799
0.124201
0.121481
0.118664
0.115777
0.112839
0.109868
0.106879
0.103888
0.100904
0.0979387
0.0949999
0.0920952
0.0892307
0.0864115
0.0836421
0.0809259
0.0782659
0.0756643
0.073123
0.0706432
0.0682259
0.0658717
0.0635809
0.0613535
0.0591893
0.0570879
0.0550488
0.0530713
0.0511544
0.0492979
0.0474987
0.0457611
0.0440704
0.0424599
0.0541526
0.0573666
0.0610009
0.0662689
0.0724401
0.0794894
0.0870195
0.0947269
0.102273
0.109378
0.115819
0.121448
0.126184
0.130004
0.13293
0.135015
0.13633
0.136954
0.136969
0.136452
0.135478
0.134111
0.132412
0.130433
0.128221
0.125818
0.123259
0.120575
0.117794
0.114941
0.112035
0.109094
0.106136
0.103173
0.100216
0.0972769
0.0943631
0.0914823
0.0886407
0.0858436
0.0830953
0.0803994
0.0777588
0.0751759
0.0726525
0.0701899
0.0677892
0.0654508
0.0631753
0.0609625
0.0588124
0.0567246
0.0546984
0.0527335
0.0508286
0.0489836
0.0471955
0.0454688
0.043788
0.0421883
0.0520145
0.0552416
0.0588772
0.0641498
0.0703277
0.077391
0.0849439
0.0926845
0.100273
0.10743
0.11393
0.119622
0.124423
0.128309
0.131302
0.133451
0.134829
0.135515
0.135588
0.135127
0.134206
0.13289
0.13124
0.129308
0.127141
0.124781
0.122262
0.119617
0.116874
0.114056
0.111184
0.108277
0.10535
0.102416
0.0994888
0.096577
0.0936896
0.0908342
0.0880169
0.085243
0.082517
0.0798426
0.0772225
0.0746594
0.0721549
0.0697105
0.0673273
0.0650057
0.0627463
0.060549
0.0584138
0.0563403
0.0543279
0.0523762
0.050484
0.0486513
0.0468749
0.0451596
0.0434893
0.0419012
0.0497601
0.0530011
0.056638
0.0619156
0.0681006
0.0751787
0.0827557
0.0905313
0.0981654
0.105377
0.111938
0.117696
0.122567
0.126523
0.129585
0.131803
0.133248
0.133997
0.134132
0.13373
0.132865
0.131604
0.130005
0.128122
0.126003
0.123687
0.121212
0.118608
0.115904
0.113124
0.110288
0.107415
0.104521
0.101619
0.098722
0.0958392
0.0929797
0.0901509
0.0873592
0.0846099
0.0819075
0.0792556
0.0766572
0.0741149
0.0716304
0.0692052
0.0668403
0.0645365
0.0622941
0.0601131
0.0579936
0.0559352
0.0539373
0.0519996
0.0501208
0.048301
0.0465369
0.0448338
0.0431745
0.0415984
0.0473901
0.0506456
0.0542839
0.0595668
0.0657593
0.0728529
0.0804553
0.0882679
0.0959497
0.103218
0.109844
0.115673
0.120616
0.124646
0.127781
0.130071
0.131585
0.132402
0.132602
0.132262
0.131456
0.130251
0.128707
0.126876
0.124806
0.122537
0.120107
0.117547
0.114884
0.112144
0.109346
0.106509
0.10365
0.100781
0.097916
0.0950637
0.0922335
0.0894327
0.0866679
0.0839444
0.0812667
0.0786386
0.076063
0.0735425
0.071079
0.068674
0.0663285
0.0640433
0.0618187
0.059655
0.057552
0.0555094
0.0535268
0.0516037
0.049739
0.0479328
0.0461817
0.0444912
0.0428436
0.0412803
0.0449048
0.0481755
0.0518153
0.0571037
0.0633041
0.0704142
0.0780432
0.0858947
0.0936266
0.100955
0.107649
0.113551
0.11857
0.122678
0.12589
0.128255
0.129843
0.13073
0.130997
0.130723
0.129979
0.128834
0.127346
0.125569
0.123551
0.121332
0.11895
0.116435
0.113815
0.111116
0.108358
0.105559
0.102736
0.0999029
0.0970709
0.0942506
0.0914511
0.0886797
0.0859431
0.0832467
0.0805949
0.0779916
0.07544
0.0729424
0.070501
0.0681171
0.0657919
0.0635262
0.0613203
0.0591746
0.0570889
0.055063
0.0530963
0.0511886
0.0493387
0.0475467
0.0458092
0.0441321
0.0424966
0.0409467
0.0423046
0.0455913
0.0492327
0.0545269
0.0607357
0.067863
0.07552
0.0834121
0.0911966
0.0985883
0.105353
0.111332
0.116431
0.120619
0.123912
0.126356
0.12802
0.128981
0.129319
0.129112
0.128434
0.127351
0.125922
0.124203
0.122239
0.120072
0.117739
0.115271
0.112697
0.110041
0.107325
0.104566
0.101781
0.098984
0.0961869
0.0934001
0.0906326
0.0878921
0.085185
0.0825168
0.0798922
0.077315
0.0747883
0.0723147
0.0698963
0.0675345
0.0652306
0.0629853
0.060799
0.0586721
0.0566045
0.054596
0.0526461
0.0507545
0.04892
0.0471429
0.0454196
0.0437565
0.0421337
0.0405978
0.0395902
0.0428935
0.0465366
0.0518368
0.0580544
0.0651998
0.0728862
0.0808207
0.0886602
0.0961177
0.102957
0.109015
0.114198
0.11847
0.121847
0.124374
0.126117
0.127155
0.127568
0.127432
0.126821
0.125803
0.124437
0.122776
0.120869
0.118756
0.116475
0.114057
0.11153
0.10892
0.106246
0.103529
0.100784
0.0980249
0.0952642
0.0925124
0.0897784
0.0870699
0.0843936
0.081755
0.0791587
0.0766087
0.0741081
0.0716596
0.0692652
0.0669265
0.0646447
0.0624207
0.0602549
0.0581477
0.056099
0.0541086
0.0521762
0.0503013
0.0484829
0.0467215
0.045013
0.0433644
0.041755
0.0402336
0.0367619
0.0400825
0.0437274
0.049034
0.0552607
0.0624251
0.0701422
0.0781211
0.0860179
0.093544
0.100461
0.106603
0.111872
0.116232
0.119696
0.122309
0.124136
0.125254
0.125743
0.125681
0.125141
0.124191
0.122889
0.12129
0.119442
0.117385
0.115158
0.112791
0.110314
0.107751
0.105123
0.102449
0.099745
0.0970257
0.094303
0.0915876
0.0888885
0.0862135
0.0835693
0.0809614
0.0783946
0.0758729
0.0733995
0.070977
0.0686077
0.0662931
0.0640344
0.0618326
0.0596881
0.0576014
0.0555723
0.0536009
0.0516866
0.0498293
0.0480277
0.0462824
0.0445895
0.042956
0.0413605
0.0398543
0.0338204
0.037159
0.0408057
0.046119
0.0523553
0.0595395
0.0672887
0.0753137
0.0832703
0.0908679
0.0978654
0.104094
0.109453
0.113905
0.11746
0.120162
0.122075
0.123277
0.123846
0.123861
0.123395
0.122514
0.12128
0.119745
0.117958
0.11596
0.113789
0.111476
0.10905
0.106536
0.103955
0.101325
0.0986648
0.0959867
0.0933036
0.090626
0.0879632
0.0853229
0.082712
0.0801361
0.0776001
0.0751078
0.0726627
0.0702673
0.067924
0.0656344
0.0633998
0.061221
0.0590987
0.0570333
0.0550247
0.0530729
0.0511776
0.0493384
0.0475543
0.0458259
0.044149
0.0425314
0.0409502
0.0394598
0.0307662
0.0341234
0.037772
0.0430923
0.0493387
0.0565435
0.0643261
0.0723992
0.0804179
0.0880899
0.0951711
0.10149
0.106943
0.11149
0.115139
0.117933
0.119936
0.121225
0.121877
0.121972
0.121582
0.120774
0.119609
0.118141
0.116417
0.114481
0.112367
0.11011
0.107738
0.105274
0.102742
0.100159
0.0975434
0.0949081
0.092266
0.0896277
0.0870026
0.0843984
0.0818222
0.0792795
0.0767752
0.0743135
0.0718977
0.0695306
0.0672143
0.0649507
0.062741
0.0605861
0.0584869
0.0564435
0.0544562
0.0525249
0.0506492
0.0488289
0.047063
0.045352
0.0436919
0.0420906
0.0405244
0.0390504
0.0275998
0.0309763
0.034627
0.0399545
0.0462115
0.0534377
0.0612551
0.0693782
0.0774614
0.0852105
0.0923786
0.0987908
0.104341
0.108987
0.112734
0.115624
0.11772
0.119098
0.119837
0.120014
0.119702
0.11897
0.117878
0.116479
0.114821
0.112947
0.110894
0.108695
0.106377
0.103967
0.101485
0.0989509
0.0963812
0.0937902
0.0911906
0.088593
0.0860069
0.0834402
0.0808998
0.0783915
0.0759203
0.0734903
0.0711049
0.068767
0.0664787
0.064242
0.0620581
0.0599281
0.0578527
0.0558323
0.053867
0.0519569
0.0501015
0.0483008
0.0465537
0.0448609
0.043218
0.0416337
0.040083
0.0386261
0.0243219
0.0277184
0.0313711
0.0367063
0.0429742
0.0502228
0.0580763
0.0662513
0.0744014
0.0822304
0.0894886
0.0959976
0.101649
0.106396
0.110244
0.113233
0.115426
0.116897
0.117725
0.117987
0.117758
0.117104
0.116086
0.114758
0.113169
0.11136
0.10937
0.10723
0.104969
0.102614
0.100184
0.0977
0.0951782
0.0926332
0.0900775
0.0875221
0.0849764
0.0824484
0.0799452
0.0774725
0.0750355
0.0726383
0.0702844
0.0679766
0.0657174
0.0635085
0.0613514
0.0592471
0.0571964
0.0551997
0.0532572
0.051369
0.0495347
0.0477543
0.0460266
0.0443526
0.0427276
0.0411609
0.0396262
0.038187
0.020933
0.0243501
0.0280051
0.0333481
0.0396275
0.0468993
0.0547904
0.0630191
0.0712385
0.0791503
0.0865016
0.0931108
0.0988659
0.103719
0.107672
0.110763
0.113055
0.114622
0.115542
0.115893
0.115748
0.115174
0.114234
0.11298
0.111461
0.10972
0.107794
0.105716
0.103514
0.101215
0.0988393
0.0964071
0.0939348
0.0914373
0.0889271
0.0864152
0.0839113
0.0814233
0.0789585
0.0765226
0.0741209
0.0717576
0.0694362
0.0671597
0.0649305
0.0627504
0.0606209
0.0585432
0.056518
0.0545459
0.052627
0.0507614
0.0489489
0.0471894
0.0454818
0.0438272
0.0422208
0.0406722
0.0391541
0.0377331
0.0174338
0.0208723
0.0245295
0.0298808
0.036172
0.043468
0.0513979
0.0596823
0.0679734
0.0759708
0.0834183
0.0901309
0.0959936
0.100955
0.105016
0.108213
0.110608
0.112274
0.113289
0.113731
0.113673
0.113183
0.112322
0.111144
0.109698
0.108027
0.106167
0.104153
0.102012
0.099771
0.0974513
0.0950724
0.0926513
0.0902027
0.0877395
0.0852726
0.0828117
0.0803651
0.0779399
0.0755421
0.0731768
0.0708485
0.0685607
0.0663164
0.0641181
0.0619678
0.0598669
0.0578166
0.0558178
0.0538709
0.0519764
0.0501342
0.0483441
0.0466063
0.0449195
0.0432849
0.0416976
0.0401678
0.0386668
0.0372647
0.013825
0.0172854
0.020945
0.0263048
0.0326085
0.0399295
0.0478996
0.0562416
0.0646068
0.0726925
0.0802394
0.0870588
0.0930322
0.0981059
0.102278
0.105585
0.108085
0.109853
0.110966
0.111502
0.111534
0.11113
0.110351
0.109252
0.107881
0.106281
0.10449
0.102541
0.100463
0.0982824
0.0960201
0.0936963
0.091328
0.0889299
0.086515
0.0840945
0.081678
0.079274
0.0768897
0.074531
0.0722034
0.0699112
0.067658
0.065447
0.0632806
0.0611609
0.0590894
0.0570674
0.0550957
0.053175
0.0513055
0.0494875
0.0477206
0.0460051
0.0443397
0.0427257
0.0411582
0.0396477
0.0381643
0.0367817
0.0101072
0.0135902
0.0172523
0.022621
0.0289375
0.0362844
0.0442962
0.0526976
0.0611394
0.0693162
0.0769655
0.0838949
0.0899826
0.0951718
0.0994587
0.102877
0.105487
0.10736
0.108574
0.109206
0.109331
0.109015
0.108321
0.107302
0.106009
0.104483
0.102763
0.100882
0.0988684
0.0967492
0.0945462
0.092279
0.089965
0.0876189
0.0852538
0.0828811
0.0805104
0.0781503
0.075808
0.0734898
0.0712008
0.0689458
0.0667283
0.0645515
0.062418
0.0603298
0.0582887
0.0562958
0.0543521
0.0524583
0.0506147
0.0488215
0.0470785
0.0453859
0.0437426
0.0421499
0.0406027
0.0391121
0.0376469
0.0362843
0.00628121
0.0097874
0.013452
0.0188299
0.0251598
0.0325336
0.0405884
0.0490512
0.0575718
0.0658425
0.0735974
0.0806401
0.0868453
0.0921534
0.0965583
0.100093
0.102814
0.104795
0.106113
0.106845
0.107064
0.10684
0.106233
0.105297
0.104083
0.102633
0.100986
0.099174
0.0972274
0.0951718
0.0930297
0.0908209
0.0885627
0.0862701
0.0839563
0.0816327
0.0793091
0.0769941
0.0746951
0.0724184
0.0701694
0.0679525
0.0657717
0.0636301
0.0615305
0.0594748
0.0574649
0.055502
0.0535871
0.0517209
0.0499039
0.0481363
0.0464179
0.0447489
0.0431283
0.0415575
0.0400312
0.0385611
0.0371146
0.0357726
0.00234764
0.00587766
0.00954497
0.0149323
0.0212761
0.0286777
0.0367769
0.045303
0.053905
0.0622723
0.0701357
0.077295
0.0836211
0.0890514
0.0935775
0.0972305
0.100067
0.102159
0.103583
0.104418
0.104735
0.104604
0.104086
0.103236
0.102104
0.100732
0.0991593
0.097419
0.0955408
0.0935506
0.0914711
0.0893222
0.0871214
0.0848838
0.0826227
0.0803495
0.0780744
0.0758058
0.0735513
0.0713173
0.0691092
0.0669316
0.0647886
0.0626832
0.0606183
0.058596
0.0566182
0.0546861
0.0528008
0.0509631
0.0491734
0.047432
0.0457389
0.0440942
0.042497
0.0409487
0.0394438
0.0379948
0.0365675
0.0352468
-0.00169276
0.00186172
0.00553181
0.010929
0.0172872
0.0247175
0.0328626
0.0414538
0.0501395
0.0586063
0.0665813
0.0738603
0.0803106
0.0858664
0.090517
0.0942919
0.0972467
0.0994527
0.100987
0.101926
0.102344
0.102309
0.101882
0.10112
0.100072
0.0987801
0.0972839
0.0956169
0.0938089
0.0918858
0.0898706
0.0877833
0.0856414
0.0834603
0.0812532
0.079032
0.0768065
0.0745856
0.0723768
0.0701866
0.0680205
0.0658833
0.063779
0.0617108
0.0596816
0.0576937
0.0557487
0.0538483
0.0519934
0.0501849
0.0484233
0.0467089
0.0450417
0.043422
0.0418487
0.0403235
0.0388407
0.0374134
0.0360058
0.0347069
-0.0058392
-0.00225966
0.00141332
0.0068207
0.0131938
0.0206537
0.0288461
0.0375044
0.0462763
0.0548453
0.062935
0.0703369
0.0769146
0.0825992
0.0873776
0.0912775
0.0943536
0.0966764
0.0983227
0.0993694
0.0998903
0.0999536
0.0996215
0.0989494
0.0979868
0.0967774
0.0953599
0.0937681
0.092032
0.0901779
0.0882286
0.0862044
0.084123
0.0819998
0.0798483
0.0776802
0.0755057
0.0733337
0.0711718
0.0690265
0.0669036
0.0648079
0.0627433
0.0607132
0.0587207
0.0567679
0.0548568
0.0529888
0.0511651
0.0493866
0.0476538
0.0459671
0.0443265
0.0427324
0.0411837
0.0396822
0.038222
0.0368169
0.0354295
0.0341531
-0.0100909
-0.00648572
-0.00280975
0.00260816
0.00899672
0.0164872
0.0247284
0.0334555
0.0423161
0.05099
0.0591974
0.0667254
0.0734339
0.0792505
0.0841598
0.0881878
0.0913883
0.0938309
0.0955922
0.0967492
0.0973755
0.0975398
0.0973041
0.0967242
0.0958497
0.0947246
0.0933877
0.091873
0.0902107
0.0884272
0.0865455
0.084586
0.0825666
0.0805027
0.0784081
0.0762945
0.0741723
0.0720504
0.0699365
0.0678374
0.0657587
0.0637054
0.0616815
0.0596907
0.0577356
0.0558189
0.0539424
0.0521077
0.050316
0.0485682
0.046865
0.0452066
0.0435934
0.0420255
0.040502
0.0390248
0.0375879
0.0362055
0.0348388
0.0335854
-0.0144471
-0.0108157
-0.00713659
-0.00170781
0.00469674
0.0122188
0.0205101
0.0293081
0.0382596
0.0470414
0.0553694
0.0630268
0.0698691
0.075821
0.0808644
0.0850237
0.0883514
0.0909167
0.0927958
0.0940657
0.0948
0.0950676
0.0949306
0.0944451
0.0936609
0.0926221
0.0913677
0.089932
0.0883453
0.086634
0.0848216
0.0829284
0.0809724
0.0789694
0.076933
0.0748752
0.0728066
0.070736
0.0686714
0.0666195
0.0645861
0.0625762
0.0605941
0.0586433
0.0567267
0.0548469
0.0530059
0.0512053
0.0494464
0.0477301
0.0460571
0.0444278
0.0428425
0.0413015
0.0398038
0.0383516
0.0369384
0.0355793
0.0342339
0.0330041
-0.018907
-0.0152487
-0.0115664
-0.00612639
0.000294689
0.00784923
0.0161922
0.0250631
0.0341079
0.0430001
0.0514518
0.0592416
0.0662211
0.0723115
0.0774921
0.0817857
0.0852436
0.0879344
0.0899341
0.0913194
0.0921643
0.0925375
0.0925016
0.0921127
0.0914208
0.0904703
0.0893004
0.0879455
0.0864361
0.0847988
0.0830572
0.0812318
0.0793408
0.0774
0.0754233
0.0734227
0.0714088
0.0693907
0.0673765
0.0653729
0.0633859
0.0614206
0.0594811
0.0575713
0.0556942
0.0538522
0.0520475
0.0502818
0.0485564
0.0468723
0.0452302
0.0436308
0.0420741
0.0405606
0.0390894
0.0376626
0.0362737
0.0349386
0.0336148
0.0324092
-0.0234697
-0.019784
-0.0160984
-0.0106468
-0.00420859
0.00337946
0.0117756
0.0207213
0.0298617
0.0388672
0.0474455
0.0553709
0.0624907
0.0687228
0.0740437
0.0784746
0.0820657
0.0848848
0.0870077
0.0885111
0.089469
0.0899502
0.0900176
0.0897274
0.08913
0.0882698
0.0871862
0.085914
0.0844836
0.082922
0.0812528
0.0794968
0.0776722
0.0757951
0.0738793
0.0719371
0.0699792
0.0680149
0.0660522
0.0640981
0.0621585
0.0602386
0.0583429
0.056475
0.0546381
0.0528349
0.0510673
0.0493373
0.0476462
0.0459951
0.0443847
0.0428157
0.0412882
0.0398029
0.0383587
0.036958
0.035594
0.0342833
0.0329818
0.0318008
-0.0281344
-0.0244206
-0.0207316
-0.0152681
-0.00881223
-0.0011897
0.00726094
0.0162835
0.0255218
0.0346434
0.0433513
0.0514154
0.0586787
0.0650555
0.0705199
0.0750911
0.0788183
0.0817685
0.0840172
0.0856412
0.0867146
0.0873062
0.0874791
0.0872899
0.0867889
0.086021
0.0850256
0.0838378
0.0824882
0.0810039
0.0794087
0.0777236
0.0759669
0.0741548
0.0723013
0.0704189
0.0685183
0.0666088
0.0646988
0.0627952
0.0609041
0.0590307
0.0571797
0.0553546
0.0535589
0.0517952
0.0500656
0.0483721
0.046716
0.0450986
0.0435206
0.0419827
0.0404852
0.0390286
0.037612
0.036238
0.0348994
0.0336137
0.0323349
0.0311792
-0.0329002
-0.0291579
-0.0254653
-0.0199895
-0.0135154
-0.00585734
0.00264931
0.0117507
0.0210894
0.0303297
0.0391702
0.047376
0.0547859
0.0613106
0.0669216
0.071636
0.075502
0.0785861
0.0809634
0.0827105
0.0839017
0.084606
0.0848867
0.0848005
0.084398
0.0837243
0.082819
0.0817174
0.0804503
0.0790449
0.0775254
0.0759126
0.0742252
0.0724795
0.0706897
0.0688683
0.0670261
0.0651728
0.0633165
0.0614645
0.0596229
0.0577971
0.0559916
0.0542104
0.0524567
0.0507333
0.0490426
0.0473863
0.045766
0.044183
0.0426381
0.041132
0.039665
0.0382378
0.0368495
0.0355027
0.0341901
0.0329299
0.0316742
0.0305444
-0.0377662
-0.0339948
-0.0302986
-0.02481
-0.0183171
-0.0106226
-0.00205842
0.00712375
0.0165651
0.0259269
0.0349029
0.0432536
0.0508132
0.0574889
0.0632493
0.06811
0.0721177
0.0753384
0.0778468
0.0797196
0.081031
0.0818503
0.0822409
0.0822598
0.0819578
0.0813802
0.080567
0.0795533
0.0783703
0.0770456
0.0756031
0.0740642
0.0724476
0.0707697
0.0690448
0.0672856
0.0655032
0.0637071
0.0619057
0.0601063
0.0583153
0.0565379
0.054779
0.0530425
0.0513317
0.0496496
0.0479984
0.0463802
0.0447965
0.0432486
0.0417374
0.0402638
0.038828
0.0374308
0.0360713
0.0347523
0.0334662
0.032232
0.031
0.0298966
-0.0427316
-0.0389304
-0.0352305
-0.0297289
-0.0232165
-0.0154844
-0.00686131
0.0024036
0.0119501
0.021436
0.0305504
0.039049
0.0467614
0.0535912
0.0595041
0.0645138
0.0686661
0.072026
0.0746681
0.076669
0.078103
0.0790396
0.0795423
0.0796684
0.0794689
0.0789894
0.0782698
0.0773459
0.0762488
0.0750062
0.0736424
0.0721789
0.0706344
0.0690256
0.067367
0.0656713
0.0639497
0.062212
0.0604666
0.058721
0.0569815
0.0552536
0.0535422
0.0518512
0.0501843
0.0485442
0.0469334
0.045354
0.0438075
0.0422955
0.0408187
0.0393782
0.0379743
0.0366077
0.0352776
0.0339869
0.0327279
0.0315203
0.0303124
0.029236
-0.0477953
-0.043964
-0.0402601
-0.034745
-0.0282127
-0.020442
-0.0117584
-0.00240878
0.0072452
0.016858
0.0261137
0.0347632
0.0426314
0.0496183
0.0556867
0.0608484
0.0651479
0.0686497
0.0714281
0.0735595
0.0751185
0.0761745
0.0767915
0.0770268
0.0769318
0.0765521
0.0759282
0.0750957
0.0740861
0.0729272
0.0716436
0.0702569
0.068786
0.0672477
0.0656566
0.0640256
0.0623661
0.0606879
0.0589996
0.0573087
0.0556218
0.0539443
0.0522813
0.0506369
0.0490145
0.0474173
0.0458477
0.0443078
0.0427994
0.0413239
0.0398823
0.0384755
0.037104
0.0357686
0.0344685
0.0332067
0.0319753
0.0307948
0.0296115
0.0285626
-0.0529566
-0.0490945
-0.0453866
-0.0398577
-0.0333046
-0.0254943
-0.0167487
-0.0073124
0.00245136
0.0121938
0.0215937
0.030397
0.0384241
0.0455711
0.0517979
0.0571144
0.061564
0.0652103
0.0681274
0.0703918
0.072078
0.0732557
0.073989
0.0743356
0.074347
0.0740691
0.0735425
0.0728031
0.0718827
0.0708091
0.0696072
0.0682987
0.0669027
0.0654362
0.0639139
0.0623489
0.0607527
0.0591351
0.0575049
0.0558699
0.0542364
0.0526104
0.0509967
0.0493996
0.0478228
0.0462692
0.0447416
0.043242
0.0417724
0.0403341
0.0389282
0.0375559
0.0362174
0.0349139
0.0336443
0.032412
0.0312087
0.0300557
0.0288974
0.0278767
-0.0582143
-0.0543209
-0.0506089
-0.0450657
-0.0384914
-0.0306404
-0.0218313
-0.0123063
-0.00243039
0.00744435
0.0169913
0.0259515
0.0341405
0.0414504
0.0478386
0.0533127
0.0579149
0.0617084
0.0647668
0.0671665
0.0689821
0.0702837
0.0711355
0.0715954
0.0717151
0.0715408
0.0711133
0.0704687
0.069639
0.0686524
0.0675336
0.0663048
0.0649851
0.0635916
0.0621394
0.0606416
0.0591097
0.0575539
0.055983
0.0544047
0.0528258
0.0512521
0.0496886
0.0481398
0.0466092
0.0451002
0.0436153
0.0421568
0.0407266
0.0393262
0.0379568
0.0366195
0.0353147
0.0340435
0.0328051
0.0316027
0.0304281
0.0293033
0.0281704
0.0271784
-0.0635676
-0.0596424
-0.0559261
-0.0503683
-0.043772
-0.0358793
-0.0270051
-0.0173894
-0.00739907
0.0026107
0.0123076
0.0214276
0.0297814
0.0372573
0.0438096
0.0494441
0.0542017
0.0581448
0.0613469
0.0638843
0.0658317
0.0672593
0.0682316
0.0688067
0.0690366
0.0689677
0.0686411
0.068093
0.0673556
0.0664573
0.0654232
0.0642754
0.0630334
0.0617144
0.0603334
0.058904
0.0574376
0.0559446
0.054434
0.0529135
0.0513901
0.0498697
0.0483574
0.0468576
0.0453742
0.0439104
0.042469
0.0410524
0.0396623
0.0383005
0.0369682
0.0356665
0.0343961
0.0331579
0.0319511
0.0307793
0.0296338
0.0285376
0.0274307
0.0264678
-0.0690154
-0.0650579
-0.0613372
-0.0557643
-0.0491455
-0.0412099
-0.0322692
-0.0225607
-0.0124537
-0.00230615
0.00754351
0.0168262
0.0253478
0.0329926
0.0397119
0.0455094
0.050425
0.0545204
0.0578685
0.0605459
0.0626273
0.0641831
0.0652779
0.0659701
0.0663122
0.0663504
0.0661263
0.0656764
0.0650329
0.0642246
0.0632765
0.0622112
0.0610481
0.0598048
0.0584964
0.0571364
0.0557367
0.0543076
0.0528583
0.0513967
0.0499297
0.0484635
0.0470032
0.0455534
0.0441179
0.0427002
0.0413031
0.0399289
0.0385797
0.0372572
0.0359627
0.0346973
0.0334617
0.032257
0.0310824
0.0299417
0.0288258
0.0277588
0.0266783
0.0257451
-0.0745567
-0.0705665
-0.0668411
-0.0612529
-0.0546108
-0.0466312
-0.0376224
-0.0278192
-0.0175929
-0.00730521
0.00270009
0.0121484
0.0208407
0.0286572
0.0355462
0.0415096
0.0465857
0.0508358
0.0543324
0.0571521
0.0593696
0.0610556
0.062275
0.0630864
0.0635423
0.0636895
0.0635696
0.0632194
0.0626714
0.0619545
0.061094
0.0601124
0.0590297
0.0578632
0.0566286
0.0553393
0.0540073