/*--------------------------------*- C++ -*----------------------------------*\
  =========                 |
  \\      /  F ield         | OpenFOAM: The Open Source CFD Toolbox
   \\    /   O peration     | Website:  https://openfoam.org
    \\  /    A nd           | Version:  7
     \\/     M anipulation  |
\*---------------------------------------------------------------------------*/
FoamFile
{
    version     2.0;
    format      ascii;
    class       volScalarField;
    location    "1.7";
    object      T;
}
// * * * * * * * * * * * * * * * * * * * * * * * * * * * * * * * * * * * * * //

dimensions      [0 0 0 1 0 0 0];

internalField   nonuniform List<scalar> 
1575
(
1
1
1
1
1
1
1
1.61829
2.64275
2.78163
2.78027
2.78843
2.81131
2.85046
2.87742
1
1
1
1
1
1
1
1.58506
2.62511
2.77777
2.77547
2.78169
2.80275
2.83859
2.86269
1
1
1
1
1
1
1
1.46442
2.5661
2.7654
2.76388
2.77185
2.79456
2.82703
2.84112
1
1
1
1
1
1
1
1.26052
2.45941
2.74163
2.74355
2.75372
2.77178
2.79387
2.81022
1
1
1
1
1
1
1
1.02243
2.31952
2.70931
2.71669
2.72734
2.74428
2.77028
2.81797
1
1
1
1
1
1
1
1.00017
2.14186
2.65525
2.67917
2.68765
2.6876
2.66566
2.60301
1
1
1
1
1
1
1
0.999999
1.857
2.57451
2.64622
2.64074
2.6248
2.58649
2.46723
1
1
1
1
1
1
1
1
1.42551
2.41979
2.60314
2.58913
2.56351
2.51708
2.37401
1
1
1
1
1
1
1
1
1.04802
2.20276
2.5403
2.52414
2.50563
2.4525
2.32785
1
1
1
1
1
1
1
1
1.00043
1.80358
2.4226
2.48874
2.46278
2.40551
2.3077
1
1
1
1
1
1
1
1
0.999999
1.1831
2.20044
2.45361
2.4151
2.36268
2.28374
1
1
1
1
1
1
1
1
1
1.00755
1.88942
2.36574
2.35477
2.31436
2.25624
1
1
1
1
1
1
1
1
1
1.00001
1.26694
2.13839
2.33086
2.28236
2.23415
1
1
1
1
1
1
1
1
1
1
1.01603
1.76082
2.25115
2.23582
2.198
1
1
1
1
1
1
1
1
1
1
1.00009
1.19581
2.00313
2.21576
2.17066
1
1
1
1
1
1
1
1
1
1
1
1.00821
1.49824
2.04884
2.14964
1
1
1
1
1
1
1
1
1
1
1
1.00005
1.07093
1.72628
2.08537
1
1
1
1
1
1
1
1
1
1
1
1
1.00135
1.21605
1.83267
1
1
1
1
1
1
1
1
1
1
1
1
1.00001
1.01129
1.35613
1
1
1
1
1
1
1
1
1
1
1
1
1
1.0001
1.03583
1
1
1
1
1
1
1
1
1
1
1
1
1
1
1.00057
1
1
1
1
1
1
1
1
1
1
1
1
1
1
1
1
1
1
1
1
1
1
1
1
1
1
1
1
1
1
1
1
1
1
1
1
1
1
1
1
1
1
1
1
1
1
1
1
1
1
1
1
1
1
1
1
1
1
1
1
1.83833
1.32108
1.20605
1.30784
1.37556
1.45962
1.57791
1.6395
1.67791
1.72898
1.78488
1.80115
1.80841
1.81712
1.81747
1.81314
1.79214
1.76715
1.75537
1.75432
1.76116
1.76285
1.75551
1.73715
1.71487
1.70397
1.70048
1.72038
1.82647
2.02197
2.26288
2.43345
2.52332
2.5936
2.5857
2.555
2.50774
2.44356
2.38483
2.34602
2.32169
2.3052
2.28981
2.27254
2.25239
2.23194
2.21796
2.20884
2.19934
2.187
2.16989
2.14913
2.13077
2.1164
2.10312
2.09062
2.07744
2.0627
2.05283
2.03591
2.06375
1.76088
1.56803
1.54891
1.51264
1.49307
1.48109
1.4632
1.47187
1.51404
1.57681
1.62397
1.65332
1.67952
1.70375
1.71169
1.70697
1.70188
1.70117
1.70367
1.71102
1.71087
1.70791
1.69872
1.68201
1.68471
1.7142
1.83607
1.97532
2.05018
2.08642
2.159
2.22838
2.28459
2.32892
2.3642
2.37988
2.36386
2.33833
2.31579
2.29613
2.28012
2.26427
2.24723
2.23001
2.2132
2.19873
2.18654
2.17497
2.16159
2.14419
2.12327
2.10311
2.08637
2.07209
2.06026
2.04902
2.03635
2.02577
2.00958
2.12676
1.94596
1.78654
1.67413
1.58354
1.50587
1.46647
1.42995
1.39591
1.41228
1.45465
1.48305
1.49899
1.52446
1.55109
1.57143
1.59115
1.60888
1.62237
1.63454
1.6394
1.63807
1.63229
1.62067
1.63002
1.67991
1.81632
1.95719
2.02641
2.01733
1.97815
1.9449
1.94283
1.97683
2.05539
2.13768
2.1994
2.22553
2.23792
2.24322
2.23984
2.22679
2.20946
2.18816
2.1664
2.14733
2.12901
2.11284
2.09898
2.08581
2.07022
2.0527
2.03491
2.01829
2.00433
1.99508
1.98766
1.97859
1.96922
1.95257
2.16282
2.01579
1.89536
1.79254
1.69251
1.59107
1.54165
1.50258
1.44968
1.42929
1.42098
1.40423
1.39882
1.40894
1.43526
1.4572
1.48045
1.50279
1.52211
1.53721
1.54801
1.55185
1.55053
1.56362
1.65774
1.80022
1.94382
2.00048
1.99021
1.96184
1.92534
1.8921
1.87274
1.85877
1.85792
1.88869
1.95442
2.02165
2.07741
2.10788
2.12677
2.12459
2.11608
2.10796
2.09897
2.08678
2.07205
2.05305
2.03294
2.01491
1.99768
1.98127
1.96488
1.94782
1.93052
1.91511
1.90402
1.89325
1.88365
1.86611
2.19043
2.07013
1.95771
1.86899
1.77908
1.68871
1.62951
1.57577
1.51471
1.47077
1.4414
1.40778
1.37939
1.38249
1.39052
1.39805
1.41286
1.43184
1.45059
1.46667
1.478
1.48257
1.50222
1.6187
1.82791
1.93598
1.99003
1.98185
1.95815
1.93461
1.9136
1.88839
1.86013
1.82989
1.80509
1.78261
1.77056
1.78954
1.83895
1.90349
1.96961
2.00146
2.00529
2.00792
2.00195
2.00332
2.00071
1.99003
1.97478
1.95821
1.94124
1.92473
1.90505
1.88333
1.86137
1.83882
1.82013
1.80676
1.79642
1.7779
2.19152
2.09552
2.00142
1.91732
1.83572
1.76025
1.70363
1.64504
1.5794
1.53149
1.50133
1.46585
1.41945
1.40674
1.40064
1.39054
1.38308
1.38165
1.38461
1.39355
1.40803
1.43984
1.57285
1.82674
1.92379
1.96105
1.95809
1.94262
1.92237
1.90012
1.88197
1.86189
1.83777
1.80696
1.776
1.74862
1.72986
1.71555
1.70241
1.71073
1.7403
1.79181
1.83439
1.86856
1.88514
1.89907
1.90607
1.90127
1.8955
1.89173
1.88649
1.8755
1.86242
1.84503
1.82199
1.79586
1.77074
1.75245
1.73981
1.71815
2.18653
2.1094
2.03479
1.9611
1.87998
1.81232
1.75817
1.70267
1.63742
1.59202
1.55725
1.51706
1.46983
1.44132
1.42149
1.39592
1.37469
1.36608
1.36195
1.3648
1.40634
1.55127
1.77419
1.92376
1.91405
1.90159
1.87707
1.85923
1.85233
1.83894
1.82792
1.81734
1.79965
1.77233
1.74875
1.7282
1.70557
1.68236
1.66094
1.64123
1.62446
1.61601
1.6264
1.64961
1.69119
1.72889
1.76234
1.78606
1.79667
1.80672
1.80275
1.79804
1.79283
1.78527
1.77495
1.7592
1.73956
1.71859
1.69996
1.67347
2.17667
2.11174
2.04818
1.98335
1.91242
1.84988
1.79841
1.74549
1.68084
1.63873
1.60374
1.56496
1.51748
1.48983
1.46433
1.43337
1.40078
1.37731
1.37743
1.42062
1.59015
1.76348
1.87326
1.87215
1.85211
1.81317
1.7756
1.76321
1.76494
1.76275
1.75544
1.75158
1.7429
1.72405
1.70947
1.69572
1.67305
1.6442
1.62179
1.59955
1.58022
1.56696
1.55193
1.53809
1.52895
1.53822
1.55598
1.58975
1.62581
1.65895
1.68462
1.69424
1.69881
1.70151
1.69855
1.69388
1.6894
1.68052
1.66432
1.6381
2.15276
2.10123
2.04816
1.99208
1.93104
1.87521
1.82626
1.77539
1.71995
1.67784
1.64106
1.60038
1.55451
1.52926
1.50435
1.47246
1.43439
1.41015
1.45149
1.65159
1.81656
1.86898
1.86368
1.83379
1.78854
1.75313
1.72116
1.69795
1.68655
1.67595
1.6643
1.65652
1.65761
1.65408
1.64689
1.64062
1.62305
1.59726
1.57992
1.56328
1.5455
1.52839
1.51379
1.49874
1.48274
1.46726
1.44912
1.43337
1.43925
1.45632
1.49003
1.52376
1.55277
1.5775
1.58868
1.60147
1.61049
1.60816
1.6008
1.58686
2.12921
2.08504
2.04112
1.99225
1.93897
1.8908
1.84495
1.7968
1.74731
1.71093
1.67245
1.63164
1.58947
1.56334
1.53272
1.50523
1.48494
1.5362
1.72149
1.91437
1.90396
1.88067
1.84146
1.79316
1.75408
1.72538
1.70181
1.67786
1.65555
1.62934
1.60455
1.5871
1.5781
1.56903
1.55855
1.55739
1.55195
1.53513
1.52221
1.50641
1.49264
1.48412
1.47795
1.46643
1.44963
1.42902
1.40868
1.39006
1.3744
1.36297
1.35709
1.3591
1.36984
1.39286
1.42184
1.44828
1.47123
1.49148
1.505
1.51206
2.10535
2.06117
2.02265
1.98176
1.93736
1.89563
1.85488
1.80908
1.76713
1.73264
1.69741
1.65523
1.61904
1.589
1.56106
1.55287
1.63223
1.81916
1.98433
1.97101
1.91932
1.86552
1.82053
1.77889
1.74447
1.7158
1.6898
1.66352
1.63456
1.60273
1.57186
1.54557
1.52646
1.50891
1.49237
1.4822
1.47302
1.45823
1.44522
1.43644
1.42427
1.41927
1.41806
1.41047
1.3951
1.38495
1.37684
1.36277
1.34534
1.32841
1.31303
1.30097
1.29312
1.28656
1.28203
1.28571
1.29643
1.31724
1.33921
1.37982
2.08
2.04287
2.00565
1.97133
1.93413
1.89691
1.85911
1.8175
1.78096
1.74995
1.71679
1.67785
1.63922
1.60788
1.61704
1.73612
1.93725
2.0387
2.02631
1.97592
1.91587
1.86145
1.81874
1.77997
1.74323
1.70991
1.67747
1.64614
1.61559
1.58442
1.55258
1.52574
1.50206
1.47758
1.45446
1.43935
1.42389
1.40768
1.38911
1.36928
1.35328
1.34545
1.34321
1.33785
1.33041
1.32825
1.32638
1.31677
1.3018
1.29084
1.27888
1.26451
1.25368
1.24707
1.23735
1.22895
1.22263
1.22021
1.21608
1.22504
2.04188
2.02789
1.992
1.95585
1.92279
1.89317
1.86031
1.82085
1.78765
1.75536
1.72615
1.69234
1.6555
1.68178
1.83431
2.04283
2.10388
2.06912
2.01623
1.95944
1.90773
1.8581
1.81181
1.77067
1.73338
1.70034
1.66917
1.63718
1.60493
1.57409
1.54467
1.5174
1.4904
1.46327
1.43869
1.41535
1.39279
1.37153
1.35173
1.33304
1.31691
1.30121
1.28599
1.27538
1.26953
1.2689
1.26622
1.25679
1.25073
1.24762
1.24057
1.22619
1.21872
1.21363
1.20367
1.1951
1.19042
1.18624
1.17803
1.15957
1.85355
1.99624
1.97913
1.9446
1.909
1.8803
1.85108
1.81935
1.79132
1.76177
1.73184
1.70473
1.75285
1.94472
2.1291
2.15818
2.12172
2.0551
1.99285
1.93912
1.89351
1.84959
1.80428
1.76082
1.72187
1.68739
1.65539
1.62346
1.59068
1.55763
1.52586
1.49672
1.47026
1.4464
1.42434
1.40158
1.37704
1.35108
1.32704
1.30838
1.29333
1.27811
1.25892
1.24358
1.23619
1.22934
1.21982
1.21116
1.20557
1.19906
1.18799
1.17794
1.17711
1.17538
1.16899
1.16342
1.16257
1.16096
1.15311
1.13355
1.45278
1.84852
1.95399
1.9349
1.89827
1.86861
1.84242
1.81557
1.78229
1.7603
1.75121
1.83356
2.05524
2.20067
2.18482
2.13559
2.07404
2.01648
1.96567
1.91851
1.87382
1.83112
1.78988
1.75003
1.71159
1.67449
1.63837
1.6036
1.5714
1.54163
1.51288
1.48467
1.45765
1.43291
1.4103
1.38891
1.36669
1.34094
1.31492
1.29577
1.28166
1.2672
1.24818
1.23403
1.22491
1.21543
1.20508
1.19621
1.18592
1.17009
1.15407
1.14232
1.13614
1.13079
1.12488
1.12282
1.12626
1.1266
1.12179
1.10677
1.07128
1.50941
1.82881
1.91298
1.89375
1.85856
1.82891
1.80267
1.7744
1.78315
1.93086
2.14777
2.25936
2.23773
2.17757
2.10752
2.03973
1.98319
1.93582
1.89194
1.84895
1.80744
1.76822
1.73091
1.69479
1.6594
1.62417
1.58888
1.55504
1.52498
1.49831
1.47366
1.45014
1.42713
1.40411
1.38117
1.35971
1.34149
1.32463
1.30472
1.28314
1.26155
1.24544
1.23714
1.22875
1.21709
1.20647
1.1931
1.17465
1.15403
1.13692
1.12458
1.1151
1.10576
1.09567
1.09224
1.09298
1.08965
1.08137
1.07124
1.00176
1.10735
1.53459
1.80074
1.87448
1.85595
1.82126
1.7844
1.80188
2.0139
2.27708
2.2656
2.22837
2.1717
2.11728
2.06101
2.00485
1.95218
1.90424
1.86009
1.81849
1.77905
1.7418
1.70638
1.67208
1.6386
1.60643
1.57515
1.54308
1.5119
1.48483
1.46162
1.441
1.42096
1.39979
1.37757
1.35544
1.33372
1.31184
1.29041
1.26886
1.25099
1.2407
1.2308
1.21722
1.20308
1.18983
1.17596
1.15922
1.14134
1.12639
1.11359
1.10216
1.09023
1.08083
1.07711
1.07265
1.06439
1.05356
1.03989
1.00001
1.00367
1.13527
1.53521
1.77072
1.833
1.81924
1.85007
2.06833
2.33739
2.34441
2.29364
2.20317
2.12017
2.06069
2.01222
1.96584
1.91997
1.87562
1.83356
1.79382
1.75621
1.72067
1.68699
1.65497
1.62426
1.59411
1.56507
1.53737
1.50815
1.48103
1.45788
1.437
1.41761
1.39811
1.37654
1.35276
1.32868
1.30652
1.28668
1.26914
1.25471
1.24136
1.22666
1.21174
1.19813
1.18488
1.17033
1.15343
1.13652
1.12171
1.1078
1.09551
1.08329
1.07622
1.07299
1.06702
1.05731
1.04518
1.02876
1
1.00003
1.00567
1.15025
1.5264
1.71727
1.83489
2.14764
2.32881
2.32326
2.27725
2.22549
2.16361
2.10036
2.04304
1.99241
1.94572
1.90143
1.86002
1.82209
1.78686
1.75233
1.71721
1.68239
1.6492
1.61826
1.58956
1.56157
1.53475
1.51528
1.49756
1.4772
1.45669
1.43674
1.41634
1.39393
1.37018
1.3478
1.32773
1.3088
1.29057
1.27309
1.25662
1.24176
1.22795
1.21407
1.19926
1.1832
1.16613
1.14927
1.13245
1.11563
1.10058
1.08956
1.08424
1.0791
1.07083
1.05921
1.04714
1.02887
1
1
1.00005
1.00791
1.17137
1.58176
2.06031
2.46316
2.57094
2.403
2.2744
2.1851
2.13079
2.08273
2.03298
1.98342
1.93651
1.89283
1.85288
1.81664
1.78224
1.74747
1.71265
1.67958
1.64844
1.61823
1.58866
1.56086
1.53558
1.51036
1.48425
1.46082
1.44006
1.42
1.39871
1.37568
1.35219
1.33103
1.31205
1.29317
1.27377
1.2549
1.23761
1.22339
1.2106
1.19735
1.18243
1.16557
1.14842
1.13243
1.11569
1.0981
1.08137
1.07186
1.06761
1.06248
1.0545
1.04355
1.03129
1.01213
)
;

boundaryField
{
    inlet
    {
        type            fixedValue;
        value           uniform 1;
    }
    outlet
    {
        type            inletOutlet;
        inletValue      uniform 1;
        value           nonuniform List<scalar> 
20
(
2.03742
2.01063
1.95239
1.86565
1.77735
1.71812
1.674
1.63779
1.58418
1.5084
1.37466
1.22112
1.15717
1.13129
1.10477
1.07005
1.03875
1.0277
1.02776
1.01084
)
;
    }
    bottom
    {
        type            symmetryPlane;
    }
    top
    {
        type            symmetryPlane;
    }
    obstacle
    {
        type            zeroGradient;
    }
    defaultFaces
    {
        type            empty;
    }
}


// ************************************************************************* //
