/*--------------------------------*- C++ -*----------------------------------*\
  =========                 |
  \\      /  F ield         | OpenFOAM: The Open Source CFD Toolbox
   \\    /   O peration     | Website:  https://openfoam.org
    \\  /    A nd           | Version:  9
     \\/     M anipulation  |
\*---------------------------------------------------------------------------*/
FoamFile
{
    format      ascii;
    class       volVectorField;
    location    "41.2";
    object      U;
}
// * * * * * * * * * * * * * * * * * * * * * * * * * * * * * * * * * * * * * //

dimensions      [0 1 -1 0 0 0 0];

internalField   nonuniform List<vector> 
8500
(
(-0.00648545 0.00259204 0)
(-0.0291253 0.00446941 -6.46374e-23)
(-0.0611663 0.00493078 -3.55401e-24)
(-0.0889738 0.00476579 6.734e-37)
(-0.116383 0.00444839 -9.90659e-24)
(-0.136805 0.00384551 8.24874e-24)
(-0.160713 0.00379193 -5.58427e-23)
(-0.171579 0.00248335 -8.64789e-23)
(-0.191864 0.00351079 -7.90929e-23)
(-0.198982 0.00123405 -4.10506e-24)
(-0.00677916 0.00772477 1.86617e-22)
(-0.0293829 0.0133351 6.03938e-23)
(-0.0610453 0.0147188 2.42387e-22)
(-0.0882965 0.0142286 0)
(-0.115124 0.013278 0)
(-0.134568 0.0114782 1.66131e-23)
(-0.15791 0.0113108 4.19715e-23)
(-0.167056 0.00739157 9.23048e-23)
(-0.186827 0.010498 5.95438e-23)
(-0.191725 0.00356613 1.64291e-23)
(-0.00735837 0.0127034 -1.65837e-22)
(-0.0298942 0.0219796 0)
(-0.0608077 0.024283 -2.28101e-22)
(-0.0869504 0.0234816 0)
(-0.112618 0.021901 -3.96844e-23)
(-0.130102 0.018935 3.30433e-23)
(-0.152309 0.0186254 0)
(-0.15797 0.0121325 0)
(-0.176756 0.0173884 0)
(-0.177234 0.00551121 0)
(-0.00820722 0.0174321 3.33418e-22)
(-0.0306518 0.0302611 -2.42539e-22)
(-0.0604617 0.0334768 -5.72022e-23)
(-0.0849522 0.0323854 -3.56681e-22)
(-0.108886 0.0301741 -3.58086e-22)
(-0.123422 0.0261028 3.33256e-23)
(-0.143918 0.0255754 -2.78251e-23)
(-0.144234 0.0166202 3.21683e-22)
(-0.161627 0.0241321 1.85404e-26)
(-0.155485 0.00687018 3.2425e-22)
(-0.00930338 0.0218248 -3.33417e-22)
(-0.0316446 0.0380461 -3.13494e-22)
(-0.0600186 0.0421571 8.60583e-23)
(-0.0823257 0.0408014 4.76014e-22)
(-0.103952 0.0379462 -4.05027e-23)
(-0.114553 0.0328747 5.29798e-22)
(-0.132729 0.031964 0)
(-0.125707 0.0207972 -3.6843e-22)
(-0.141338 0.0306932 -7.85505e-23)
(-0.126256 0.0075564 -4.50608e-22)
(-0.0106196 0.0258086 8.40628e-23)
(-0.0328581 0.0452121 5.21353e-22)
(-0.0594898 0.0501852 -4.02987e-22)
(-0.0790998 0.0485931 -2.96292e-25)
(-0.0978339 0.0450591 -3.61091e-22)
(-0.103532 0.0391504 1.33876e-22)
(-0.118711 0.0375458 -5.59101e-23)
(-0.102184 0.0246321 4.60808e-22)
(-0.115673 0.0370184 -7.8722e-23)
(-0.0888897 0.00771636 2.58076e-22)
(-0.0121256 0.0293262 4.21157e-23)
(-0.0342748 0.0516506 0)
(-0.0588841 0.0574283 -1.5673e-24)
(-0.0753043 0.0556276 0)
(-0.0905335 0.0513498 6.40408e-22)
(-0.0903956 0.044839 -5.30293e-22)
(-0.101769 0.0420201 0)
(-0.0734088 0.0281267 -1.12563e-24)
(-0.0842846 0.0428889 0)
(-0.041993 0.00796063 0)
(-0.0137905 0.0323379 -6.79226e-22)
(-0.0358738 0.0572693 -7.01755e-23)
(-0.0582027 0.0637618 5.1996e-22)
(-0.0709627 0.0617763 9.63964e-23)
(-0.0820146 0.0566568 -6.44273e-22)
(-0.0751639 0.0498641 -3.97182e-22)
(-0.0816861 0.0450256 -5.62005e-23)
(-0.0390917 0.0313689 4.57334e-22)
(-0.0467137 0.0475766 -7.90328e-23)
(0.0168467 0.00933795 6.536e-23)
(-0.0155843 0.0348223 7.64665e-22)
(-0.0376303 0.0619934 -5.64195e-22)
(-0.0574338 0.0690731 -1.7429e-22)
(-0.0660803 0.0669147 9.61536e-23)
(-0.0721799 0.0608274 6.44205e-22)
(-0.0578124 0.0541797 5.98637e-22)
(-0.0579937 0.0461515 -5.63326e-23)
(0.00114118 0.034539 9.15337e-23)
(-0.00275688 0.0502769 -1.58437e-22)
(0.0916123 0.0123603 6.66532e-23)
(-0.0174804 0.0367764 6.87215e-22)
(-0.0395141 0.065767 5.64515e-22)
(-0.0565454 0.0732651 -8.17993e-22)
(-0.0606285 0.0709232 -9.64633e-23)
(-0.0608323 0.0637202 0)
(-0.0382283 0.0577874 0)
(-0.029904 0.0451924 0)
(0.0483311 0.0376579 -1.44951e-21)
(0.0473149 0.0501072 -6.63743e-22)
(0.186009 0.0175854 5.06765e-22)
(-0.0194566 0.0382138 -1.3787e-21)
(-0.0414865 0.0685537 0)
(-0.0554765 0.0762602 1.87271e-21)
(-0.0545265 0.0736907 7.74661e-22)
(-0.0476299 0.0652094 8.06249e-23)
(-0.0160179 0.060623 0)
(0.00358164 0.0423575 -9.21294e-22)
(0.103821 0.0410657 7.23379e-22)
(0.105159 0.0457391 6.63734e-22)
(0.301654 0.0254956 -5.06746e-22)
(-0.0214961 0.0391629 7.78311e-22)
(-0.043497 0.0703367 -7.12666e-23)
(-0.0541252 0.0780047 -9.38098e-22)
(-0.0476169 0.0751226 -8.71965e-22)
(-0.0321379 0.0652919 0)
(0.00969926 0.0624301 1.06649e-21)
(0.0441681 0.0381412 5.20668e-25)
(0.168423 0.045566 6.24079e-22)
(0.176052 0.0373988 7.44991e-22)
(0.436959 0.0352089 -5.02474e-22)
(-0.0235868 0.0396635 4.55347e-26)
(-0.0454769 0.0711171 1.22182e-21)
(-0.0523336 0.0784709 -1.18041e-22)
(-0.0395807 0.0751273 6.80791e-22)
(-0.0138333 0.0640605 4.06859e-22)
(0.0401352 0.0629857 2.71001e-22)
(0.0946352 0.0333996 9.18967e-22)
(0.242557 0.0510195 -8.11595e-22)
(0.268262 0.0290168 -5.07558e-22)
(0.585833 0.0454943 3.69447e-22)
(-0.0257208 0.0397633 0)
(-0.0473338 0.0709129 -1.00633e-21)
(-0.0498864 0.0776643 -1.18537e-22)
(-0.0299051 0.073641 1.62983e-24)
(0.0081095 0.061598 6.4904e-22)
(0.0768082 0.0621978 -9.32377e-22)
(0.158134 0.0297339 9.13555e-22)
(0.326803 0.0559383 -9.29872e-23)
(0.388283 0.0265228 0)
(0.737959 0.0563129 0)
(-0.0278921 0.0395139 8.84555e-23)
(-0.0489402 0.0697573 -1.16175e-21)
(-0.0464919 0.0756331 0)
(-0.0178956 0.0707044 -9.61363e-23)
(0.034894 0.0580522 8.10321e-23)
(0.121836 0.0599472 0)
(0.237044 0.0291752 -9.15441e-22)
(0.422647 0.0591883 -7.18152e-22)
(0.533886 0.0332973 1.56628e-22)
(0.881157 0.0684053 -1.31627e-22)
(-0.0300919 0.0389624 -8.88992e-23)
(-0.050129 0.0677019 1.23472e-21)
(-0.0417394 0.0724479 0)
(-0.00264961 0.0664769 -8.79017e-22)
(0.0680783 0.0537503 8.10753e-23)
(0.17789 0.0565582 -1.06829e-21)
(0.331887 0.0330669 -1.10609e-22)
(0.531978 0.06207 8.10713e-22)
(0.692145 0.0480438 0)
(1.00486 0.081538 9.99491e-22)
(-0.0322997 0.0381466 -1.3525e-21)
(-0.0506897 0.0648109 -7.34464e-23)
(-0.0350768 0.0682017 -1.18991e-22)
(0.0169999 0.061221 9.84232e-23)
(0.109623 0.0492789 -1.29431e-21)
(0.247808 0.0532806 1.06827e-21)
(0.44087 0.0414261 8.99534e-22)
(0.653676 0.0676298 7.18083e-22)
(0.845221 0.0669998 1.24291e-21)
(1.10289 0.0943338 -8.74433e-22)
(-0.0344797 0.0370944 1.44198e-21)
(-0.0503555 0.0611509 0)
(-0.0258122 0.0630283 1.0811e-21)
(0.0424983 0.0552888 -9.87015e-23)
(0.16177 0.045459 2.58777e-21)
(0.333605 0.052129 0)
(0.560111 0.0535387 -8.99515e-22)
(0.78073 0.0775005 -1.84238e-24)
(0.978403 0.0868627 -1.39298e-21)
(1.17409 0.105346 1.26148e-22)
(-0.036577 0.0358218 0)
(-0.0487978 0.056789 1.18862e-21)
(-0.0131098 0.0571024 -9.61771e-22)
(0.0755342 0.0491483 0)
(0.226681 0.0433501 -1.29345e-21)
(0.434876 0.0551339 0)
(0.6837 0.0686545 8.84438e-22)
(0.902405 0.0907497 -7.16212e-22)
(1.08422 0.105674 -1.18725e-21)
(1.22134 0.113582 -9.55145e-22)
(-0.038511 0.0343301 -1.83027e-22)
(-0.0456266 0.0517964 -1.03838e-21)
(0.00401634 0.0506394 0)
(0.117954 0.0434546 0)
(0.305704 0.0441969 0)
(0.54777 0.0632753 -1.32093e-22)
(0.80425 0.0857947 -8.86529e-22)
(1.0094 0.105536 -9.05424e-23)
(1.16194 0.122271 1.18724e-21)
(1.25003 0.118308 1.07447e-21)
(-0.0401728 0.0326101 0)
(-0.0403892 0.0462471 -1.2061e-21)
(0.0267038 0.0439082 0)
(0.171559 0.0391509 0)
(0.398393 0.049137 0)
(0.665491 0.0760715 1.31199e-22)
(0.914707 0.103608 -1.08207e-21)
(1.09681 0.120491 8.37803e-23)
(1.21524 0.135433 8.45453e-22)
(1.26709 0.1189 9.21956e-22)
(-0.0414387 0.0306579 0)
(-0.0325568 0.0402026 1.2061e-21)
(0.0562364 0.0372746 -9.82763e-22)
(0.237672 0.0374862 0)
(0.501753 0.0586712 -1.29111e-21)
(0.780322 0.0920355 0)
(1.01029 0.120899 8.65436e-22)
(1.16386 0.134544 -6.8943e-22)
(1.24979 0.144069 -1.13153e-21)
(1.29185 0.129486 -9.17059e-22)
(-0.0421684 0.0284594 1.53713e-21)
(-0.0215324 0.0337147 0)
(0.0939977 0.0312979 8.60996e-22)
(0.316462 0.0397641 1.0071e-22)
(0.610484 0.072322 2.58214e-21)
(0.885905 0.109491 0)
(1.08905 0.136954 -8.43889e-22)
(1.21264 0.146655 -1.36724e-21)
(1.27444 0.152272 -9.46536e-22)
(1.3011 0.135568 -5.29974e-24)
(-0.0421891 0.0259873 -1.63259e-21)
(-0.00664387 0.0268496 7.83596e-23)
(0.141305 0.0268414 1.22447e-22)
(0.406308 0.0468069 -1.01278e-22)
(0.718396 0.0888783 -1.29103e-21)
(0.978392 0.12713 1.03898e-21)
(1.15129 0.15136 8.43884e-22)
(1.24726 0.15731 6.77808e-22)
(1.28871 0.158715 1.08056e-21)
(1.30433 0.14134 -9.50903e-22)
(-0.0413101 0.0232141 9.6788e-23)
(0.0128854 0.0197163 1.17786e-21)
(0.199079 0.0250828 0)
(0.503695 0.0585068 -7.04059e-22)
(0.820121 0.106995 -8.19486e-23)
(1.05633 0.144121 -1.03897e-21)
(1.19887 0.164171 1.0093e-22)
(1.27041 0.166465 5.66808e-22)
(1.29645 0.164412 0)
(1.30434 0.146352 8.46384e-22)
(-0.0393242 0.0201118 -9.99776e-23)
(0.0379374 0.0125491 -1.2573e-21)
(0.267384 0.0272586 0)
(0.603947 0.0739166 9.42592e-23)
(0.912082 0.125616 -8.21733e-23)
(1.11998 0.160062 0)
(1.23396 0.17551 -8.06533e-22)
(1.28503 0.174482 -6.51289e-22)
(1.2994 0.169408 -1.23835e-22)
(1.30112 0.150881 -1.04169e-22)
(-0.0359939 0.0166522 0)
(0.0694359 0.00583441 -1.45052e-21)
(0.345074 0.0341778 1.29948e-22)
(0.702394 0.091797 -5.21356e-24)
(0.99252 0.144073 -6.43876e-22)
(1.17054 0.174809 -1.13595e-21)
(1.25889 0.185597 9.09805e-22)
(1.29328 0.181589 0)
(1.29899 0.17398 0)
(1.29681 0.15519 0)
(-0.0310254 0.0128155 2.28976e-24)
(0.108193 0.000415385 1.2165e-21)
(0.429793 0.0458488 1.31637e-22)
(0.795314 0.111098 9.12248e-22)
(1.06103 0.161996 5.61255e-22)
(1.20965 0.188379 -1.10199e-22)
(1.27575 0.194658 7.84234e-22)
(1.29691 0.188042 -5.26977e-22)
(1.2964 0.178277 -5.8986e-22)
(1.29129 0.159349 4.72491e-22)
(-0.0240419 0.00861314 7.58055e-22)
(0.154681 -0.00253793 8.51333e-23)
(0.5184 0.0615504 -1.05169e-21)
(0.8803 0.1311 -8.22472e-22)
(1.11806 0.179208 0)
(1.23905 0.200872 1.00054e-21)
(1.28633 0.202916 -1.58043e-23)
(1.29723 0.194038 6.78904e-22)
(1.29227 0.182421 4.12452e-22)
(1.28529 0.16345 -3.74257e-22)
(-0.0145781 0.00412393 -1.74525e-21)
(0.208802 -0.00176904 0)
(0.607586 0.0802606 2.11961e-21)
(0.956126 0.151363 7.22707e-22)
(1.16453 0.195644 8.28053e-23)
(1.26039 0.212428 0)
(1.2921 0.210577 -7.6177e-22)
(1.29519 0.199737 5.74109e-22)
(1.28715 0.186495 4.43953e-22)
(1.27884 0.167538 -3.4853e-22)
(-0.00210804 -0.00046234 8.83474e-22)
(0.269774 0.0036842 6.87602e-22)
(0.694418 0.101065 -1.19802e-21)
(1.02243 0.171646 1.07614e-22)
(1.20156 0.211314 0)
(1.27515 0.223206 0)
(1.29423 0.217813 0)
(1.29147 0.205256 -1.13107e-21)
(1.2813 0.190555 -4.43957e-22)
(1.27211 0.171628 3.48514e-22)
(0.0138871 -0.00480241 8.19793e-22)
(0.336202 0.0141912 -6.8187e-22)
(0.776605 0.123314 6.99656e-23)
(1.07937 0.191833 0)
(1.23033 0.226266 6.24649e-22)
(1.28459 0.233358 4.12752e-22)
(1.29361 0.224769 4.73127e-23)
(1.28652 0.210678 -4.79611e-23)
(1.27494 0.194634 1.06023e-22)
(1.26513 0.175735 -4.27443e-23)
(0.0337905 -0.00837085 -9.3024e-22)
(0.406313 0.0294997 8.62981e-23)
(0.85255 0.146574 5.53987e-22)
(1.12744 0.211861 -1.53807e-22)
(1.252 0.240572 -4.68552e-22)
(1.28978 0.243026 -5.8635e-22)
(1.29091 0.231552 4.62282e-23)
(1.28068 0.216057 2.78853e-22)
(1.26817 0.198748 0)
(1.25794 0.179849 -3.77461e-23)
(0.0577712 -0.010509 -6.03542e-23)
(0.478213 0.0489509 0)
(0.921285 0.170544 6.16736e-24)
(1.16726 0.231678 0)
(1.2676 0.254311 6.08301e-22)
(1.29155 0.252332 -4.48862e-22)
(1.28661 0.238242 0)
(1.27413 0.221422 9.69238e-24)
(1.26104 0.202901 0)
(1.25051 0.183961 0)
(0.0857703 -0.0105265 -1.20634e-22)
(0.550091 0.0717799 7.85957e-22)
(0.982353 0.195005 -6.31918e-22)
(1.19953 0.251225 1.04105e-22)
(1.27809 0.267562 -2.78567e-22)
(1.29059 0.261373 -4.75376e-23)
(1.28106 0.244888 0)
(1.26701 0.226788 1.92025e-22)
(1.2536 0.207088 4.91269e-23)
(1.24285 0.188054 1.38909e-22)
(0.117492 -0.00782272 -5.08995e-22)
(0.620333 0.09731 -3.17013e-22)
(1.03568 0.219795 -1.04048e-22)
(1.22496 0.270445 4.15784e-22)
(1.28425 0.280399 3.39523e-23)
(1.28744 0.270227 4.37091e-22)
(1.2745 0.251516 0)
(1.25939 0.232153 -2.29857e-22)
(1.24584 0.211296 4.23256e-23)
(1.23494 0.192108 -3.05652e-22)
(0.152439 -0.00199646 -5.08994e-22)
(0.687552 0.125004 3.30113e-22)
(1.08145 0.24479 -4.10645e-24)
(1.24423 0.289281 -4.83575e-22)
(1.28676 0.292883 -2.53569e-22)
(1.28248 0.278947 -2.45302e-23)
(1.26709 0.258135 2.04817e-23)
(1.25131 0.237504 2.56478e-22)
(1.23776 0.215506 -2.32187e-24)
(1.22677 0.196097 9.92004e-23)
(0.189969 0.00710288 -2.62464e-22)
(0.750602 0.154432 0)
(1.12001 0.269883 -2.84254e-22)
(1.25801 0.307682 0)
(1.28618 0.305059 -3.18971e-22)
(1.27603 0.287562 2.74071e-23)
(1.25894 0.264735 0)
(1.24278 0.242822 0)
(1.22937 0.219697 0)
(1.21833 0.199997 0)
(0.229344 0.019398 2.30224e-22)
(0.808569 0.185213 1.10962e-22)
(1.15182 0.294968 2.84256e-22)
(1.26689 0.325615 0)
(1.28296 0.316958 0)
(1.2683 0.296085 -1.12856e-23)
(1.2501 0.271298 4.31525e-23)
(1.23381 0.248079 4.87347e-23)
(1.22064 0.223841 4.46124e-23)
(1.20962 0.203775 -7.38392e-24)
(0.269778 0.0346606 -4.16634e-24)
(0.860807 0.21698 -1.03811e-22)
(1.17733 0.319929 4.74705e-24)
(1.27144 0.34306 5.53057e-24)
(1.27746 0.328593 -8.41467e-24)
(1.25944 0.304508 3.18399e-24)
(1.24063 0.277793 -3.75575e-23)
(1.2244 0.253245 -4.55314e-23)
(1.21157 0.227905 -3.37928e-23)
(1.20066 0.207397 1.3102e-24)
(0.310473 0.0525942 0)
(0.906977 0.24939 -1.04712e-22)
(1.19693 0.344643 -3.17026e-24)
(1.27213 0.360004 6.53423e-24)
(1.26997 0.339964 1.15312e-37)
(1.24957 0.312806 -8.01297e-38)
(1.23055 0.284182 -3.33904e-23)
(1.21454 0.258285 -3.92082e-23)
(1.20215 0.231848 -3.04937e-23)
(1.19148 0.210831 0)
(0.350648 0.0728831 3.01938e-22)
(0.946981 0.28215 8.58402e-23)
(1.21099 0.369 2.82722e-22)
(1.26938 0.37642 -1.27393e-23)
(1.26071 0.351052 0)
(1.23876 0.320942 9.54166e-24)
(1.21985 0.29042 2.18406e-23)
(1.20423 0.26316 4.22078e-23)
(1.19238 0.235621 2.36936e-23)
(1.18207 0.214052 5.71551e-24)
(0.389562 0.0952268 -2.69115e-22)
(0.980817 0.315 0)
(1.21992 0.392874 -2.67323e-22)
(1.26355 0.392271 0)
(1.24987 0.361823 -2.62227e-23)
(1.22707 0.328869 2.18346e-23)
(1.20856 0.29646 0)
(1.19346 0.26783 0)
(1.18226 0.239183 0)
(1.17237 0.217041 0)
(0.426528 0.119347 5.33397e-22)
(1.00857 0.347698 -3.4112e-22)
(1.22408 0.416145 -6.49788e-23)
(1.25493 0.407515 -2.62764e-22)
(1.23758 0.372229 -2.40483e-22)
(1.21452 0.336529 1.63652e-23)
(1.19666 0.302251 -1.36642e-23)
(1.18222 0.272248 1.09756e-22)
(1.17183 0.242506 2.11788e-24)
(1.16234 0.219773 7.69488e-23)
(0.460933 0.144976 -5.33397e-22)
(1.03038 0.380019 -4.11007e-22)
(1.22382 0.438685 9.02377e-23)
(1.24379 0.422101 3.13623e-22)
(1.22396 0.382211 -1.37824e-23)
(1.20115 0.34386 2.51097e-22)
(1.18415 0.307739 0)
(1.17051 0.276357 -1.25076e-22)
(1.16112 0.245578 -1.84549e-23)
(1.15192 0.222266 -9.4877e-23)
(0.492245 0.171843 1.26794e-22)
(1.04642 0.411747 7.02971e-22)
(1.21945 0.460368 -4.05216e-22)
(1.23039 0.43597 -7.58516e-23)
(1.2091 0.391703 -1.75166e-22)
(1.18697 0.350796 3.48471e-23)
(1.17105 0.312867 -2.22425e-23)
(1.15836 0.280093 1.15929e-22)
(1.15013 0.248384 -1.93002e-23)
(1.14119 0.224555 5.01064e-23)
(0.520023 0.199657 6.42278e-23)
(1.05691 0.442666 0)
(1.21127 0.481059 2.66111e-23)
(1.21489 0.449054 0)
(1.19304 0.400628 3.54956e-22)
(1.17202 0.357265 -2.24798e-22)
(1.15738 0.317575 0)
(1.14583 0.283414 -1.68331e-23)
(1.13879 0.250864 0)
(1.13027 0.226451 0)
(0.543921 0.228108 -9.85231e-22)
(1.06206 0.472561 -7.53762e-23)
(1.19957 0.500627 4.92829e-22)
(1.19748 0.461277 5.4586e-23)
(1.17585 0.4089 -3.5984e-22)
(1.15635 0.363193 -1.20903e-22)
(1.14319 0.321801 -1.66363e-23)
(1.13295 0.286293 5.63041e-23)
(1.12707 0.252977 -1.24806e-23)
(1.11917 0.22799 5.56692e-24)
(0.563682 0.256859 1.09629e-21)
(1.0621 0.501211 -6.5519e-22)
(1.18459 0.518933 -1.41614e-22)
(1.17829 0.472555 6.88465e-23)
(1.15763 0.41643 2.81693e-22)
(1.14003 0.3685 1.84528e-22)
(1.12848 0.325488 -1.36554e-23)
(1.11968 0.288698 -2.50022e-23)
(1.115 0.254676 -1.45314e-23)
(1.1079 0.229111 4.71709e-24)
(0.57914 0.285559 9.06101e-22)
(1.05727 0.528391 6.34904e-22)
(1.16656 0.53583 -5.91285e-22)
(1.15749 0.482796 -6.19961e-23)
(1.13851 0.423143 0)
(1.12304 0.373104 0)
(1.11326 0.32858 0)
(1.10607 0.290587 -1.27214e-22)
(1.10262 0.255932 -1.49592e-23)
(1.09648 0.229796 -6.98184e-24)
(0.590211 0.313849 -1.76191e-21)
(1.04783 0.553882 0)
(1.1457 0.551152 1.25562e-21)
(1.1353 0.491903 3.1402e-22)
(1.11854 0.428963 0)
(1.10536 0.376929 0)
(1.09757 0.331011 -5.48645e-23)
(1.09211 0.291919 4.53301e-23)
(1.08998 0.256706 1.49593e-23)
(1.08493 0.230007 6.98156e-24)
(0.596891 0.341365 9.47981e-22)
(1.03407 0.577485 -7.56602e-23)
(1.12223 0.564729 -5.89389e-22)
(1.11183 0.499759 -3.42357e-22)
(1.09772 0.433807 2.35197e-23)
(1.08708 0.379912 7.90501e-23)
(1.08146 0.332724 5.08772e-23)
(1.07786 0.292654 -2.75096e-23)
(1.07709 0.256967 -4.56415e-23)
(1.07328 0.229718 5.17252e-23)
(0.599252 0.36774 -1.16862e-23)
(1.01633 0.599013 9.01224e-22)
(1.09644 0.576443 -7.82372e-23)
(1.08712 0.506199 1.68343e-22)
(1.07612 0.437599 6.67744e-23)
(1.06824 0.381984 -5.62304e-23)
(1.06497 0.333662 -2.11002e-24)
(1.06334 0.292752 3.4368e-23)
(1.06401 0.256679 -5.98728e-23)
(1.06156 0.2289 -3.78422e-23)
(0.597434 0.392608 0)
(0.994876 0.618239 -7.94572e-22)
(1.06857 0.586201 -6.66185e-23)
(1.06127 0.511095 -6.67275e-23)
(1.05384 0.440233 -6.42019e-23)
(1.04891 0.383082 -1.60879e-23)
(1.04816 0.333774 -1.06307e-22)
(1.04859 0.292176 0)
(1.05075 0.255808 0)
(1.04982 0.227517 0)
(0.591636 0.415641 7.79516e-23)
(0.969814 0.634818 -6.23536e-22)
(1.039 0.593959 0)
(1.03445 0.514368 -7.43437e-23)
(1.03094 0.441622 4.31998e-24)
(1.02917 0.383145 0)
(1.03109 0.333014 1.00991e-22)
(1.03366 0.290893 1.48266e-22)
(1.03735 0.254318 -3.07955e-23)
(1.03808 0.225526 2.58664e-23)
(0.582083 0.436626 -5.57785e-23)
(0.94136 0.648451 6.69325e-22)
(1.00797 0.599572 0)
(1.00678 0.515981 -5.03733e-23)
(1.00753 0.44168 -2.5144e-24)
(1.00908 0.382116 2.10218e-22)
(1.01381 0.331341 2.38599e-23)
(1.01859 0.288872 -1.68238e-22)
(1.02384 0.252175 0)
(1.0264 0.222885 -2.82745e-22)
(0.568988 0.45534 -7.67097e-22)
(0.909995 0.659021 -3.68177e-23)
(0.975649 0.60283 -1.81954e-24)
(0.978423 0.515867 1.50508e-24)
(0.98369 0.440334 2.75109e-22)
(0.988725 0.379944 -2.1022e-22)
(0.996399 0.328717 -2.63798e-22)
(1.00342 0.28608 -2.28864e-22)
(1.01027 0.249351 -3.88822e-22)
(1.01491 0.219588 2.47481e-22)
(0.552471 0.47143 8.11953e-22)
(0.876284 0.666517 0)
(0.942264 0.603603 -8.07737e-23)
(0.949517 0.513958 8.46998e-24)
(0.959539 0.437523 -6.55722e-22)
(0.968197 0.376582 0)
(0.978904 0.325112 2.638e-22)
(0.98817 0.28248 -4.05801e-23)
(0.996733 0.245818 4.40825e-22)
(1.00388 0.215674 -4.36709e-23)
(0.532745 0.484475 0)
(0.84061 0.670784 4.04815e-23)
(0.908015 0.601829 7.05346e-23)
(0.92022 0.510185 0)
(0.935183 0.433197 3.80614e-22)
(0.947582 0.371991 0)
(0.961388 0.3205 -3.73712e-22)
(0.972904 0.278033 2.69447e-22)
(0.983409 0.241536 5.07992e-22)
(0.993618 0.21121 4.03332e-22)
(0.510296 0.494306 -1.78131e-23)
(0.803316 0.671686 -2.58599e-23)
(0.873133 0.597448 0)
(0.890687 0.504489 0)
(0.91074 0.427315 0)
(0.926971 0.366141 5.9732e-23)
(0.94391 0.314862 2.74089e-22)
(0.957711 0.272712 4.16423e-23)
(0.970487 0.236447 -5.07996e-22)
(0.984011 0.206144 -4.53022e-22)
(0.485542 0.500755 0)
(0.764747 0.669107 2.71562e-22)
(0.837855 0.590416 0)
(0.861081 0.496818 0)
(0.886333 0.419845 0)
(0.906458 0.359009 -6.85959e-23)
(0.926544 0.308181 5.96224e-22)
(0.942713 0.266521 -1.37583e-22)
(0.958047 0.230564 -4.73277e-22)
(0.974392 0.198979 -4.82981e-22)
(0.458894 0.503687 0)
(0.725263 0.662968 -2.71563e-22)
(0.802425 0.580706 5.03569e-22)
(0.831566 0.487137 0)
(0.862085 0.410766 8.05707e-22)
(0.886137 0.350581 0)
(0.90938 0.300444 -4.82786e-22)
(0.928022 0.259475 4.28208e-22)
(0.945841 0.224342 6.20786e-22)
(0.963491 0.1938 4.81615e-22)
(0.430762 0.50301 -4.67104e-22)
(0.685228 0.653223 0)
(0.767087 0.568308 -4.30785e-22)
(0.802313 0.475423 -6.02075e-23)
(0.838125 0.40007 -1.71564e-21)
(0.866108 0.340849 0)
(0.892509 0.291638 5.88848e-22)
(0.913704 0.251496 3.76571e-23)
(0.933987 0.217066 6.44681e-22)
(0.953018 0.187171 2.43818e-24)
(0.401555 0.49867 5.10161e-22)
(0.645005 0.639853 -3.53434e-23)
(0.732084 0.553231 -8.52154e-23)
(0.773492 0.461671 -7.04883e-23)
(0.814582 0.387757 9.09933e-22)
(0.846472 0.329815 -8.09036e-22)
(0.876015 0.28178 -5.88852e-22)
(0.899765 0.242684 -4.6587e-22)
(0.922325 0.209214 -7.29224e-22)
(0.942528 0.180319 6.77341e-22)
(0.371678 0.490654 -5.61032e-23)
(0.604958 0.622872 -8.51794e-22)
(0.697654 0.535501 0)
(0.745274 0.445891 6.05809e-22)
(0.791584 0.37384 6.70211e-23)
(0.827332 0.31749 8.09041e-22)
(0.859987 0.270869 -8.05971e-23)
(0.886274 0.232987 -4.70388e-22)
(0.911004 0.200581 0)
(0.932339 0.172773 -6.04086e-22)
(0.341528 0.478986 6.43312e-23)
(0.565442 0.602324 8.97851e-22)
(0.664035 0.515162 0)
(0.71783 0.428107 -1.91628e-23)
(0.769262 0.358343 7.38044e-23)
(0.808791 0.303895 0)
(0.844501 0.258934 7.37549e-22)
(0.873267 0.222459 5.3785e-22)
(0.900041 0.191299 1.03122e-22)
(0.922501 0.164691 -8.66194e-23)
(0.311493 0.463728 0)
(0.526806 0.57828 1.33849e-21)
(0.631456 0.492278 -1.18711e-22)
(0.691328 0.408363 6.72134e-23)
(0.747744 0.341302 6.50557e-22)
(0.790951 0.289061 1.12976e-21)
(0.829638 0.245996 -8.36436e-22)
(0.860806 0.211107 0)
(0.889507 0.181345 0)
(0.913097 0.156032 0)
(0.281944 0.444978 2.41634e-24)
(0.489386 0.550841 -1.11081e-21)
(0.600139 0.466929 1.32233e-22)
(0.665931 0.386715 -9.27906e-22)
(0.727154 0.322764 -5.63915e-22)
(0.773911 0.273027 1.8746e-22)
(0.815472 0.232091 -8.34928e-22)
(0.848943 0.19897 5.54212e-22)
(0.879454 0.170761 6.01234e-22)
(0.904181 0.146828 -4.70878e-22)
(0.253242 0.422873 -7.74999e-22)
(0.453501 0.520128 -8.64655e-23)
(0.570299 0.439214 1.21052e-21)
(0.641797 0.363234 9.48621e-22)
(0.707616 0.302788 0)
(0.757767 0.255841 -1.07303e-21)
(0.802078 0.217259 -4.09562e-23)
(0.837735 0.186078 -7.13248e-22)
(0.869937 0.159565 -4.21525e-22)
(0.8958 0.1371 3.74835e-22)
(0.225725 0.397594 1.85439e-21)
(0.419449 0.486282 0)
(0.542141 0.409247 -2.50546e-21)
(0.619078 0.338008 -8.30265e-22)
(0.689248 0.281443 -9.82489e-23)
(0.742611 0.23756 0)
(0.789525 0.201547 8.67778e-22)
(0.827238 0.172474 -6.91495e-22)
(0.861006 0.147791 -5.27697e-22)
(0.887993 0.126879 4.05115e-22)
(0.199709 0.369363 -9.74056e-22)
(0.387507 0.44946 -8.55625e-22)
(0.515866 0.377154 1.4568e-21)
(0.597921 0.311136 -1.33888e-22)
(0.67216 0.258809 0)
(0.728531 0.21825 0)
(0.777881 0.185008 0)
(0.817503 0.158199 1.408e-21)
(0.852711 0.13547 5.27698e-22)
(0.880795 0.116199 -4.05114e-22)
(0.175463 0.338399 -1.00541e-21)
(0.357943 0.409874 8.52547e-22)
(0.491665 0.34308 8.96807e-23)
(0.578461 0.282733 0)
(0.65646 0.234975 -8.45064e-22)
(0.715609 0.197985 -5.65445e-22)
(0.767208 0.167703 -6.29808e-23)
(0.808581 0.143304 1.09849e-22)
(0.845097 0.122642 -1.39486e-22)
(0.874236 0.105098 5.58055e-23)
(0.153225 0.304907 1.14176e-21)
(0.33101 0.367776 -1.14669e-22)
(0.469713 0.307186 -9.38346e-22)
(0.560825 0.252926 2.09471e-22)
(0.642244 0.210042 6.29379e-22)
(0.70392 0.176845 8.04583e-22)
(0.757565 0.149695 -6.50797e-23)
(0.800519 0.127839 -3.59433e-22)
(0.838208 0.10935 0)
(0.868343 0.0936162 5.2606e-23)
(0.133221 0.269114 7.80441e-23)
(0.306935 0.323431 0)
(0.450162 0.269654 -2.84581e-23)
(0.54513 0.221854 0)
(0.629602 0.184116 -9.00913e-22)
(0.693534 0.154916 6.79514e-22)
(0.749004 0.131055 0)
(0.793359 0.111862 8.96568e-24)
(0.832083 0.0956387 0)
(0.86314 0.0817985 0)
(0.115662 0.231279 1.61655e-22)
(0.285919 0.277107 -1.10273e-21)
(0.433149 0.230678 8.78819e-22)
(0.531479 0.189665 -1.51344e-22)
(0.618614 0.157315 3.90226e-22)
(0.684512 0.132291 1.06255e-22)
(0.741572 0.111858 0)
(0.787143 0.0954332 -2.94987e-22)
(0.82676 0.0815587 -7.8698e-23)
(0.858646 0.0696909 -2.29346e-22)
(0.100734 0.191686 6.90047e-22)
(0.268136 0.229086 -1.63507e-21)
(0.41879 0.190461 1.50967e-22)
(0.519963 0.156516 -6.31538e-22)
(0.609348 0.12976 -7.06877e-23)
(0.676908 0.109069 -6.95004e-22)
(0.735313 0.0921835 0)
(0.781904 0.0786171 4.02828e-22)
(0.82227 0.0671629 -7.25118e-23)
(0.854877 0.0573397 5.22884e-22)
(0.0885956 0.15063 -6.90047e-22)
(0.253731 0.179658 5.99445e-22)
(0.407183 0.149216 -1.04197e-22)
(0.510657 0.122572 7.41164e-22)
(0.601863 0.101581 4.0837e-22)
(0.670769 0.0853516 4.2536e-23)
(0.730261 0.0721134 -3.55153e-23)
(0.777674 0.0614814 -4.51226e-22)
(0.818641 0.0525074 3.86264e-24)
(0.851847 0.044792 -1.73736e-22)
(0.0793775 0.108423 3.606e-22)
(0.242823 0.129124 0)
(0.398407 0.107164 4.27622e-22)
(0.503622 0.0880018 0)
(0.596207 0.0729116 5.73559e-23)
(0.666132 0.0612456 -4.77577e-23)
(0.726446 0.0517329 0)
(0.774479 0.0440953 0)
(0.815898 0.0376496 0)
(0.849566 0.0320954 0)
(0.0731771 0.0653876 -3.15887e-22)
(0.235501 0.0777943 -1.21813e-22)
(0.392524 0.064532 -4.27622e-22)
(0.498907 0.052982 0)
(0.592417 0.0438889 0)
(0.663024 0.0368598 2.16841e-23)
(0.72389 0.0311294 -8.66752e-23)
(0.772337 0.0265293 -1.03382e-22)
(0.814058 0.0226474 -9.69669e-23)
(0.848041 0.0192964 1.56797e-23)
(0.0700604 0.0218516 -5.71646e-24)
(0.231825 0.0259848 1.31382e-22)
(0.389572 0.0215496 -5.91459e-24)
(0.496541 0.0176909 2.03717e-23)
(0.590515 0.0146533 -8.04034e-24)
(0.661466 0.0123054 0)
(0.722609 0.0103914 6.85702e-23)
(0.771263 0.00885513 1.03382e-22)
(0.813134 0.00755871 7.3617e-23)
(0.847277 0.00643848 1.10626e-23)
(0.0700604 -0.0218517 -5.71646e-24)
(0.231825 -0.025985 1.31382e-22)
(0.389572 -0.0215497 -5.91459e-24)
(0.496541 -0.017691 2.03717e-23)
(0.590515 -0.0146534 -8.04034e-24)
(0.661466 -0.0123055 0)
(0.722609 -0.0103915 6.03863e-23)
(0.771263 -0.00885521 1.10232e-22)
(0.813134 -0.00755878 7.82991e-23)
(0.847277 -0.00643854 0)
(0.0731771 -0.0653877 -4.05313e-22)
(0.235501 -0.0777945 -1.57951e-22)
(0.392524 -0.0645321 -4.53326e-22)
(0.498907 -0.0529822 2.12623e-23)
(0.592417 -0.043889 0)
(0.663024 -0.0368599 -2.16841e-23)
(0.72389 -0.0311295 -5.0465e-23)
(0.772337 -0.0265294 -1.03382e-22)
(0.814058 -0.0226475 -5.96311e-23)
(0.848041 -0.0192964 -1.56797e-23)
(0.0793775 -0.108423 3.606e-22)
(0.242823 -0.129124 0)
(0.398407 -0.107164 4.27622e-22)
(0.503622 -0.0880019 0)
(0.596207 -0.0729117 5.73559e-23)
(0.666132 -0.0612457 -4.77577e-23)
(0.726446 -0.051733 0)
(0.774479 -0.0440953 0)
(0.815898 -0.0376496 0)
(0.849566 -0.0320954 0)
(0.0885957 -0.15063 -6.90047e-22)
(0.253731 -0.179658 4.68142e-22)
(0.407183 -0.149216 1.04197e-22)
(0.510657 -0.122572 5.07512e-22)
(0.601863 -0.101581 5.3351e-22)
(0.670769 -0.0853517 -4.2536e-23)
(0.730261 -0.0721135 3.55153e-23)
(0.777674 -0.0614814 -3.54431e-22)
(0.818641 -0.0525074 -3.86264e-24)
(0.851847 -0.0447921 -2.9153e-22)
(0.100734 -0.191686 6.90047e-22)
(0.268136 -0.229086 5.67482e-22)
(0.41879 -0.190461 -1.50967e-22)
(0.519963 -0.156516 -6.17137e-22)
(0.609348 -0.12976 5.2143e-23)
(0.676908 -0.109069 -6.95004e-22)
(0.735313 -0.0921836 0)
(0.781904 -0.0786172 4.02828e-22)
(0.82227 -0.067163 7.25118e-23)
(0.854877 -0.0573398 4.01073e-22)
(0.115662 -0.23128 -1.61655e-22)
(0.28592 -0.277107 1.10273e-21)
(0.433149 -0.230678 6.87619e-22)
(0.53148 -0.189665 1.51344e-22)
(0.618614 -0.157315 4.88272e-22)
(0.684512 -0.132291 -1.57398e-22)
(0.741572 -0.111858 6.8564e-23)
(0.787143 -0.0954333 -4.82626e-22)
(0.82676 -0.0815588 7.8698e-23)
(0.858646 -0.0696909 -2.29345e-22)
(0.133221 -0.269114 -7.80441e-23)
(0.306935 -0.323431 0)
(0.450162 -0.269655 -2.84581e-23)
(0.54513 -0.221854 0)
(0.629602 -0.184116 -9.00913e-22)
(0.693534 -0.154916 6.79514e-22)
(0.749004 -0.131055 0)
(0.79336 -0.111862 8.96569e-24)
(0.832083 -0.0956387 0)
(0.86314 -0.0817986 0)
(0.153225 -0.304907 1.14176e-21)
(0.33101 -0.367776 1.14669e-22)
(0.469713 -0.307186 -6.6028e-22)
(0.560825 -0.252926 -1.3576e-22)
(0.642244 -0.210042 1.06075e-21)
(0.70392 -0.176845 4.77173e-22)
(0.757565 -0.149695 6.50797e-23)
(0.800519 -0.127839 -4.49048e-22)
(0.838208 -0.10935 7.51716e-23)
(0.868343 -0.0936162 -5.2606e-23)
(0.175463 -0.338399 -1.27812e-21)
(0.357943 -0.409874 8.58707e-22)
(0.491665 -0.34308 8.07569e-23)
(0.578461 -0.282733 -1.40983e-22)
(0.65646 -0.234975 -8.45064e-22)
(0.715609 -0.197985 -7.16307e-22)
(0.767208 -0.167703 6.29807e-23)
(0.808581 -0.143304 -6.43149e-23)
(0.845097 -0.122642 1.39486e-22)
(0.874236 -0.105098 -5.58055e-23)
(0.199709 -0.369363 -9.74056e-22)
(0.387507 -0.44946 -8.55624e-22)
(0.515866 -0.377155 1.13307e-21)
(0.597921 -0.311136 1.33888e-22)
(0.67216 -0.258809 0)
(0.728531 -0.218251 0)
(0.777881 -0.185009 0)
(0.817503 -0.158199 1.408e-21)
(0.852711 -0.13547 5.27698e-22)
(0.880795 -0.116199 -4.05114e-22)
(0.225726 -0.397594 1.85439e-21)
(0.419449 -0.486282 0)
(0.542141 -0.409247 -2.50546e-21)
(0.619079 -0.338008 -9.48625e-22)
(0.689248 -0.281443 0)
(0.742611 -0.23756 0)
(0.789525 -0.201547 8.67778e-22)
(0.827238 -0.172474 -6.91495e-22)
(0.861006 -0.147791 -5.27697e-22)
(0.887993 -0.126879 4.05115e-22)
(0.253242 -0.422873 -9.85668e-22)
(0.453501 -0.520128 8.64655e-23)
(0.570299 -0.439214 1.21052e-21)
(0.641797 -0.363234 1.0602e-21)
(0.707616 -0.302788 -9.26206e-23)
(0.757767 -0.255841 -1.07303e-21)
(0.802078 -0.217259 -4.09562e-23)
(0.837735 -0.186078 -5.57387e-22)
(0.869937 -0.159565 -5.52265e-22)
(0.8958 -0.1371 3.74835e-22)
(0.281944 -0.444978 -2.41635e-24)
(0.489386 -0.550841 -1.27801e-21)
(0.600139 -0.466929 -1.32233e-22)
(0.665931 -0.386715 -7.19144e-22)
(0.727154 -0.322764 -5.74427e-22)
(0.773911 -0.273027 -1.99616e-22)
(0.815472 -0.232091 -8.18702e-22)
(0.848943 -0.19897 7.16418e-22)
(0.879454 -0.170761 3.72552e-22)
(0.904181 -0.146828 -2.78794e-22)
(0.311493 -0.463728 0)
(0.526806 -0.57828 1.05032e-21)
(0.631456 -0.492278 1.1871e-22)
(0.691328 -0.408363 6.72134e-23)
(0.747744 -0.341302 6.50556e-22)
(0.790951 -0.289061 8.92902e-22)
(0.829638 -0.245996 -7.30379e-22)
(0.860806 -0.211107 7.67613e-23)
(0.889507 -0.181345 0)
(0.913097 -0.156032 0)
(0.341529 -0.478986 -6.43311e-23)
(0.565442 -0.602324 8.9785e-22)
(0.664035 -0.515162 0)
(0.717831 -0.428108 1.58662e-22)
(0.769262 -0.358343 -7.38044e-23)
(0.808791 -0.303896 0)
(0.844501 -0.258934 7.37549e-22)
(0.873267 -0.222459 5.3785e-22)
(0.900041 -0.191299 -1.03122e-22)
(0.922501 -0.164691 8.66194e-23)
(0.371678 -0.490654 5.61031e-23)