/*--------------------------------*- C++ -*----------------------------------*\
  =========                 |
  \\      /  F ield         | OpenFOAM: The Open Source CFD Toolbox
   \\    /   O peration     | Website:  https://openfoam.org
    \\  /    A nd           | Version:  9
     \\/     M anipulation  |
\*---------------------------------------------------------------------------*/
FoamFile
{
    format      ascii;
    class       volScalarField;
    location    "31";
    object      p;
}
// * * * * * * * * * * * * * * * * * * * * * * * * * * * * * * * * * * * * * //

dimensions      [0 2 -2 0 0 0 0];

internalField   nonuniform List<scalar> 
8500
(
-0.302379
-0.306598
-0.307438
-0.309191
-0.311285
-0.311539
-0.315311
-0.311691
-0.317892
-0.310584
-0.302644
-0.306802
-0.307635
-0.309358
-0.311484
-0.311634
-0.315609
-0.311626
-0.318307
-0.310471
-0.303168
-0.307205
-0.308024
-0.309682
-0.311874
-0.311812
-0.316196
-0.31148
-0.31913
-0.310242
-0.303937
-0.307795
-0.308591
-0.31015
-0.312437
-0.312053
-0.317052
-0.311223
-0.320351
-0.309895
-0.304933
-0.308558
-0.309316
-0.310738
-0.313149
-0.312331
-0.318142
-0.310818
-0.321945
-0.309426
-0.306132
-0.309474
-0.310179
-0.311421
-0.313973
-0.31262
-0.319411
-0.31023
-0.323871
-0.308815
-0.307509
-0.310522
-0.311153
-0.312168
-0.314866
-0.312896
-0.320784
-0.309428
-0.326072
-0.308005
-0.309037
-0.311681
-0.312209
-0.312952
-0.315777
-0.313145
-0.322166
-0.308403
-0.328456
-0.306985
-0.31069
-0.31293
-0.313319
-0.313746
-0.316647
-0.313365
-0.323439
-0.307228
-0.33058
-0.305966
-0.312444
-0.314249
-0.314456
-0.314529
-0.31742
-0.31357
-0.324385
-0.306131
-0.332374
-0.304568
-0.314281
-0.315622
-0.315593
-0.315286
-0.318038
-0.313849
-0.324873
-0.305007
-0.333794
-0.30295
-0.316187
-0.317039
-0.316713
-0.316008
-0.318396
-0.314244
-0.324915
-0.30393
-0.33443
-0.301594
-0.318156
-0.318492
-0.317804
-0.316713
-0.318519
-0.314625
-0.324512
-0.30322
-0.333735
-0.301053
-0.320192
-0.319984
-0.318859
-0.317379
-0.318461
-0.31494
-0.323595
-0.303038
-0.331317
-0.301348
-0.322306
-0.32152
-0.319888
-0.317986
-0.31827
-0.315176
-0.32223
-0.303304
-0.327161
-0.301668
-0.324524
-0.323107
-0.320931
-0.318539
-0.317997
-0.315127
-0.320541
-0.303647
-0.32177
-0.300919
-0.32688
-0.324767
-0.322014
-0.319071
-0.317717
-0.314764
-0.318617
-0.303682
-0.315786
-0.298583
-0.329414
-0.326531
-0.323175
-0.319621
-0.317492
-0.314105
-0.316424
-0.303215
-0.309464
-0.294682
-0.332176
-0.328436
-0.324455
-0.320225
-0.317325
-0.313262
-0.31387
-0.302171
-0.302731
-0.289634
-0.335222
-0.33052
-0.325907
-0.32091
-0.317177
-0.312355
-0.310936
-0.300411
-0.295631
-0.28422
-0.338606
-0.332834
-0.32758
-0.321676
-0.317021
-0.311422
-0.307695
-0.297707
-0.288786
-0.278926
-0.342373
-0.335447
-0.329515
-0.322506
-0.316892
-0.3104
-0.30423
-0.294009
-0.282638
-0.27238
-0.346598
-0.338411
-0.331715
-0.323412
-0.316845
-0.30917
-0.300572
-0.289584
-0.276466
-0.265616
-0.351344
-0.341791
-0.334144
-0.324475
-0.316874
-0.307624
-0.296721
-0.284568
-0.270294
-0.25881
-0.356674
-0.345638
-0.33675
-0.325826
-0.31689
-0.305703
-0.292629
-0.279161
-0.264008
-0.251915
-0.362655
-0.349964
-0.339536
-0.327539
-0.316771
-0.30338
-0.288276
-0.273457
-0.257584
-0.244998
-0.369361
-0.35472
-0.342618
-0.329537
-0.316416
-0.300651
-0.283644
-0.267517
-0.251025
-0.237991
-0.376863
-0.359809
-0.346198
-0.331617
-0.315748
-0.297521
-0.278727
-0.261364
-0.244316
-0.230894
-0.385202
-0.365127
-0.35046
-0.333563
-0.314697
-0.293994
-0.273515
-0.255
-0.237452
-0.223666
-0.394354
-0.370614
-0.355446
-0.335221
-0.313194
-0.290063
-0.267998
-0.248415
-0.230415
-0.216287
-0.404201
-0.376282
-0.360974
-0.336495
-0.311175
-0.28571
-0.262158
-0.24159
-0.223187
-0.208731
-0.414518
-0.382209
-0.366657
-0.337309
-0.308588
-0.280905
-0.255972
-0.234505
-0.215743
-0.200975
-0.424972
-0.388494
-0.372007
-0.337571
-0.305389
-0.275613
-0.249413
-0.227135
-0.208062
-0.192999
-0.435246
-0.395196
-0.376564
-0.337169
-0.301538
-0.269796
-0.242448
-0.219452
-0.200119
-0.184784
-0.445035
-0.402283
-0.379976
-0.335971
-0.296995
-0.26342
-0.235045
-0.211427
-0.191895
-0.176313
-0.454082
-0.409579
-0.382023
-0.333839
-0.291713
-0.25645
-0.22717
-0.203034
-0.183368
-0.167568
-0.462186
-0.416761
-0.382603
-0.330649
-0.285641
-0.248855
-0.218795
-0.194246
-0.174518
-0.158536
-0.469185
-0.42337
-0.381702
-0.326301
-0.278725
-0.2406
-0.20989
-0.185041
-0.165325
-0.149211
-0.474953
-0.428882
-0.379348
-0.320725
-0.270912
-0.231653
-0.20043
-0.175399
-0.155776
-0.139603
-0.479381
-0.43282
-0.375521
-0.313874
-0.262154
-0.221979
-0.190392
-0.165301
-0.145858
-0.129736
-0.482369
-0.434848
-0.370101
-0.305702
-0.252407
-0.21155
-0.179758
-0.154731
-0.135559
-0.119627
-0.483808
-0.43469
-0.362995
-0.296167
-0.241638
-0.200341
-0.168512
-0.143673
-0.124871
-0.109254
-0.48357
-0.432143
-0.354142
-0.285229
-0.229818
-0.188333
-0.15664
-0.132117
-0.113804
-0.0985546
-0.481495
-0.427072
-0.343496
-0.272864
-0.216928
-0.175511
-0.144128
-0.120052
-0.102401
-0.0874497
-0.477398
-0.419387
-0.331008
-0.259072
-0.202954
-0.161861
-0.130967
-0.10748
-0.0907072
-0.0759178
-0.471071
-0.409029
-0.316639
-0.243857
-0.187884
-0.14738
-0.117161
-0.094442
-0.0786975
-0.0640935
-0.462299
-0.395964
-0.300369
-0.227218
-0.171703
-0.132088
-0.10275
-0.081018
-0.0662598
-0.0520658
-0.450868
-0.380174
-0.28219
-0.209153
-0.154418
-0.116051
-0.0878
-0.0671849
-0.053403
-0.03984
-0.436588
-0.36166
-0.262096
-0.189682
-0.136115
-0.0993241
-0.0722676
-0.052953
-0.0401734
-0.0274228
-0.419297
-0.340439
-0.240075
-0.168893
-0.116945
-0.081811
-0.0561936
-0.038336
-0.0266189
-0.0148277
-0.398878
-0.316569
-0.216128
-0.146937
-0.0968484
-0.0635665
-0.0396181
-0.0233582
-0.0127822
-0.0020815
-0.375264
-0.290179
-0.190339
-0.123788
-0.0758691
-0.0446501
-0.0225848
-0.00805247
0.00129543
0.0107791
-0.348445
-0.261434
-0.162897
-0.0993607
-0.0540658
-0.0251281
-0.00514151
0.00754177
0.0155741
0.0237098
-0.318466
-0.230364
-0.13394
-0.0737725
-0.0315059
-0.0050704
0.0126575
0.0233804
0.0300172
0.036666
-0.28545
-0.196713
-0.103856
-0.047167
-0.00826386
0.0154478
0.0307518
0.0394182
0.0445938
0.0496041
-0.249571
-0.160787
-0.072595
-0.0196939
0.0155739
0.0363467
0.0490763
0.0556137
0.0592714
0.0624535
-0.210928
-0.122992
-0.0402114
0.00850047
0.0399071
0.0575411
0.0675659
0.0719328
0.0739947
0.0750408
-0.169491
-0.0839582
-0.00683473
0.0372735
0.0646249
0.0789414
0.0861584
0.0883422
0.0886513
0.0870295
-0.125743
-0.0438469
0.0273554
0.0664824
0.0896078
0.100454
0.104793
0.104782
0.103066
0.0981304
-0.0800439
-0.00284896
0.0621548
0.095978
0.11473
0.121985
0.123402
0.121143
0.117077
0.108662
-0.0327727
0.0387983
0.0973438
0.125604
0.139861
0.143436
0.141901
0.137284
0.13063
0.119941
0.0156682
0.0808311
0.132693
0.155195
0.164866
0.164706
0.160192
0.153093
0.143929
0.131749
0.0648597
0.122968
0.167969
0.184583
0.189611
0.185691
0.17818
0.168539
0.157022
0.1436
0.114371
0.164916
0.202933
0.213593
0.213957
0.206281
0.195771
0.183575
0.169853
0.155317
0.163763
0.206378
0.237348
0.24205
0.237766
0.226365
0.212875
0.198154
0.182352
0.166719
0.212598
0.247051
0.270977
0.269775
0.2609
0.245835
0.229407
0.212219
0.19445
0.177709
0.260438
0.286636
0.303588
0.296594
0.283223
0.26458
0.245283
0.225708
0.20608
0.188207
0.306853
0.324842
0.334955
0.322336
0.304599
0.282496
0.260421
0.238557
0.217178
0.198155
0.351423
0.361389
0.36486
0.346831
0.324899
0.299478
0.274742
0.250703
0.227684
0.207504
0.393739
0.396017
0.393093
0.369919
0.343997
0.315427
0.288169
0.262085
0.237539
0.21621
0.433426
0.428467
0.419456
0.391445
0.361774
0.330251
0.300629
0.272644
0.24669
0.224234
0.470184
0.458453
0.443762
0.411263
0.378118
0.34386
0.312054
0.282323
0.255085
0.231544
0.503717
0.485718
0.465832
0.429236
0.392923
0.356173
0.322379
0.291072
0.262676
0.238109
0.533734
0.510044
0.485508
0.445243
0.406096
0.367117
0.331548
0.29884
0.26942
0.243902
0.559972
0.531247
0.502647
0.459172
0.417551
0.376624
0.339508
0.305585
0.275277
0.248901
0.5822
0.549166
0.517124
0.470929
0.427213
0.384638
0.346213
0.311267
0.280211
0.25309
0.600222
0.563666
0.528833
0.480434
0.43502
0.391108
0.351625
0.315854
0.284195
0.256454
0.61388
0.574637
0.537691
0.487619
0.44092
0.395997
0.355712
0.319318
0.287204
0.258984
0.623053
0.581997
0.543632
0.492438
0.444876
0.399272
0.35845
0.321639
0.28922
0.260673
0.62766
0.585691
0.546614
0.494855
0.44686
0.400915
0.359823
0.322803
0.290232
0.261518
0.62766
0.585691
0.546614
0.494855
0.44686
0.400915
0.359823
0.322803
0.290232
0.261518
0.623053
0.581997
0.543632
0.492438
0.444876
0.399272
0.35845
0.321639
0.28922
0.260673
0.61388
0.574637
0.537691
0.487619
0.44092
0.395997
0.355712
0.319318
0.287204
0.258984
0.600222
0.563666
0.528833
0.480434
0.43502
0.391108
0.351625
0.315854
0.284195
0.256454
0.5822
0.549166
0.517124
0.470929
0.427213
0.384638
0.346213
0.311267
0.280211
0.25309
0.559972
0.531247
0.502647
0.459172
0.417551
0.376624
0.339508
0.305585
0.275277
0.248901
0.533734
0.510044
0.485508
0.445243
0.406096
0.367117
0.331548
0.29884
0.26942
0.243902
0.503717
0.485718
0.465832
0.429236
0.392923
0.356173
0.322379
0.291072
0.262676
0.238109
0.470184
0.458453
0.443762
0.411263
0.378118
0.34386
0.312054
0.282323
0.255085
0.231544
0.433426
0.428467
0.419456
0.391445
0.361774
0.330251
0.300629
0.272644
0.24669
0.224234
0.393739
0.396017
0.393093
0.369919
0.343997
0.315428
0.288169
0.262085
0.237539
0.21621
0.351423
0.361389
0.36486
0.346831
0.324899
0.299478
0.274742
0.250703
0.227684
0.207504
0.306853
0.324842
0.334955
0.322336
0.304599
0.282496
0.260421
0.238557
0.217178
0.198155
0.260438
0.286636
0.303588
0.296595
0.283223
0.26458
0.245283
0.225708
0.20608
0.188207
0.212598
0.247051
0.270977
0.269775
0.2609
0.245835
0.229407
0.212219
0.19445
0.177709
0.163764
0.206378
0.237348
0.24205
0.237766
0.226365
0.212875
0.198154
0.182352
0.166719
0.114371
0.164916
0.202933
0.213593
0.213957
0.206281
0.195771
0.183575
0.169853
0.155317
0.0648597
0.122968
0.167969
0.184583
0.189611
0.185691
0.17818
0.168539
0.157022
0.1436
0.0156682
0.0808311
0.132693
0.155195
0.164866
0.164706
0.160192
0.153093
0.143929
0.131749
-0.0327726
0.0387983
0.0973439
0.125604
0.139861
0.143436
0.141901
0.137284
0.13063
0.119941
-0.0800438
-0.00284892
0.0621548
0.095978
0.11473
0.121985
0.123402
0.121143
0.117077
0.108662
-0.125743
-0.0438468
0.0273555
0.0664824
0.0896078
0.100454
0.104793
0.104782
0.103066
0.0981304
-0.169491
-0.0839582
-0.00683471
0.0372736
0.0646249
0.0789414
0.0861584
0.0883423
0.0886513
0.0870295
-0.210928
-0.122991
-0.0402113
0.00850049
0.0399071
0.0575411
0.0675659
0.0719328
0.0739948
0.0750408
-0.249571
-0.160787
-0.0725949
-0.0196938
0.0155739
0.0363467
0.0490763
0.0556137
0.0592714
0.0624535
-0.28545
-0.196713
-0.103855
-0.0471669
-0.00826383
0.0154478
0.0307518
0.0394183
0.0445938
0.0496041
-0.318466
-0.230364
-0.13394
-0.0737725
-0.0315059
-0.00507038
0.0126575
0.0233805
0.0300173
0.036666
-0.348445
-0.261434
-0.162897
-0.0993607
-0.0540658
-0.025128
-0.00514149
0.00754179
0.0155741
0.0237098
-0.375264
-0.290179
-0.190339
-0.123788
-0.075869
-0.0446501
-0.0225848
-0.00805244
0.00129545
0.0107791
-0.398878
-0.316569
-0.216128
-0.146937
-0.0968484
-0.0635665
-0.0396181
-0.0233582
-0.0127821
-0.00208148
-0.419297
-0.340439
-0.240075
-0.168893
-0.116945
-0.0818109
-0.0561936
-0.0383359
-0.0266188
-0.0148277
-0.436588
-0.36166
-0.262096
-0.189682
-0.136115
-0.0993241
-0.0722676
-0.052953
-0.0401734
-0.0274228
-0.450868
-0.380174
-0.28219
-0.209153
-0.154418
-0.116051
-0.0878
-0.0671849
-0.053403
-0.03984
-0.462299
-0.395964
-0.300369
-0.227218
-0.171703
-0.132088
-0.10275
-0.081018
-0.0662598
-0.0520658
-0.471071
-0.409029
-0.316639
-0.243857
-0.187884
-0.14738
-0.117161
-0.094442
-0.0786975
-0.0640935
-0.477398
-0.419387
-0.331008
-0.259072
-0.202954
-0.161861
-0.130967
-0.10748
-0.0907072
-0.0759178
-0.481495
-0.427072
-0.343496
-0.272864
-0.216928
-0.175511
-0.144128
-0.120052
-0.102401
-0.0874497
-0.48357
-0.432143
-0.354142
-0.285229
-0.229818
-0.188333
-0.15664
-0.132117
-0.113804
-0.0985546
-0.483808
-0.43469
-0.362995
-0.296167
-0.241638
-0.200341
-0.168511
-0.143673
-0.124871
-0.109254
-0.482369
-0.434848
-0.370101
-0.305702
-0.252407
-0.21155
-0.179758
-0.154731
-0.135559
-0.119627
-0.479381
-0.43282
-0.375521
-0.313873
-0.262154
-0.221979
-0.190392
-0.165301
-0.145858
-0.129736
-0.474953
-0.428882
-0.379348
-0.320725
-0.270912
-0.231653
-0.20043
-0.175399
-0.155776
-0.139603
-0.469185
-0.42337
-0.381702
-0.326301
-0.278725
-0.2406
-0.20989
-0.185041
-0.165325
-0.149211
-0.462186
-0.416761
-0.382603
-0.330649
-0.28564
-0.248855
-0.218795
-0.194246
-0.174518
-0.158536
-0.454082
-0.409579
-0.382023
-0.333839
-0.291713
-0.25645
-0.22717
-0.203034
-0.183368
-0.167568
-0.445035
-0.402283
-0.379976
-0.335971
-0.296995
-0.26342
-0.235045
-0.211427
-0.191895
-0.176313
-0.435246
-0.395196
-0.376564
-0.337169
-0.301538
-0.269796
-0.242448
-0.219452
-0.200119
-0.184784
-0.424972
-0.388494
-0.372007
-0.337571
-0.305389
-0.275613
-0.249413
-0.227135
-0.208062
-0.192999
-0.414518
-0.382209
-0.366657
-0.337309
-0.308588
-0.280905
-0.255972
-0.234505
-0.215743
-0.200975
-0.404201
-0.376282
-0.360974
-0.336495
-0.311175
-0.28571
-0.262158
-0.24159
-0.223187
-0.208731
-0.394354
-0.370614
-0.355446
-0.335221
-0.313194
-0.290063
-0.267998
-0.248415
-0.230415
-0.216287
-0.385202
-0.365127
-0.35046
-0.333563
-0.314697
-0.293993
-0.273515
-0.255
-0.237452
-0.223666
-0.376863
-0.359809
-0.346198
-0.331617
-0.315748
-0.297521
-0.278727
-0.261364
-0.244316
-0.230894
-0.369361
-0.35472
-0.342618
-0.329537
-0.316416
-0.300651
-0.283644
-0.267517
-0.251025
-0.237991
-0.362655
-0.349964
-0.339536
-0.327539
-0.316771
-0.30338
-0.288276
-0.273457
-0.257584
-0.244998
-0.356674
-0.345638
-0.33675
-0.325826
-0.31689
-0.305703
-0.292629
-0.279161
-0.264007
-0.251915
-0.351344
-0.341791
-0.334144
-0.324475
-0.316874
-0.307624
-0.296721
-0.284568
-0.270294
-0.258809
-0.346598
-0.338411
-0.331715
-0.323412
-0.316845
-0.30917
-0.300572
-0.289584
-0.276466
-0.265616
-0.342373
-0.335447
-0.329515
-0.322506
-0.316892
-0.3104
-0.30423
-0.294009
-0.282637
-0.27238
-0.338606
-0.332834
-0.32758
-0.321676
-0.317021
-0.311422
-0.307695
-0.297707
-0.288786
-0.278926
-0.335222
-0.33052
-0.325907
-0.32091
-0.317177
-0.312355
-0.310936
-0.300411
-0.295631
-0.28422
-0.332176
-0.328436
-0.324455
-0.320225
-0.317325
-0.313262
-0.31387
-0.302171
-0.30273
-0.289634
-0.329414
-0.326531
-0.323175
-0.319621
-0.317492
-0.314105
-0.316423
-0.303214
-0.309464
-0.294682
-0.32688
-0.324767
-0.322014
-0.319071
-0.317717
-0.314764
-0.318617
-0.303682
-0.315786
-0.298583
-0.324524
-0.323107
-0.320931
-0.318539
-0.317997
-0.315127
-0.320541
-0.303647
-0.32177
-0.300919
-0.322306
-0.32152
-0.319888
-0.317986
-0.31827
-0.315176
-0.32223
-0.303304
-0.327161
-0.301668
-0.320192
-0.319984
-0.318859
-0.317379
-0.318461
-0.314939
-0.323595
-0.303038
-0.331317
-0.301348
-0.318156
-0.318492
-0.317804
-0.316713
-0.318518
-0.314625
-0.324512
-0.30322
-0.333735
-0.301053
-0.316187
-0.317038
-0.316713
-0.316008
-0.318396
-0.314244
-0.324915
-0.30393
-0.33443
-0.301594
-0.314281
-0.315622
-0.315593
-0.315286
-0.318038
-0.313849
-0.324873
-0.305007
-0.333794
-0.30295
-0.312444
-0.314249
-0.314456
-0.314529
-0.31742
-0.31357
-0.324385
-0.306131
-0.332374
-0.304567
-0.31069
-0.31293
-0.313319
-0.313746
-0.316647
-0.313365
-0.323439
-0.307228
-0.330579
-0.305966
-0.309037
-0.311681
-0.312209
-0.312952
-0.315777
-0.313145
-0.322166
-0.308402
-0.328456
-0.306985
-0.307509
-0.310522
-0.311153
-0.312168
-0.314866
-0.312896
-0.320784
-0.309428
-0.326072
-0.308005
-0.306132
-0.309474
-0.310179
-0.311421
-0.313973
-0.312619
-0.319411
-0.31023
-0.323871
-0.308815
-0.304933
-0.308558
-0.309316
-0.310738
-0.313149
-0.312331
-0.318141
-0.310818
-0.321945
-0.309426
-0.303937
-0.307795
-0.30859
-0.31015
-0.312437
-0.312053
-0.317052
-0.311223
-0.320351
-0.309895
-0.303168
-0.307205
-0.308024
-0.309682
-0.311874
-0.311812
-0.316196
-0.31148
-0.31913
-0.310242
-0.302644
-0.306802
-0.307635
-0.309358
-0.311484
-0.311634
-0.315609
-0.311626
-0.318306
-0.310471
-0.302379
-0.306598
-0.307438
-0.309191
-0.311285
-0.311539
-0.315311
-0.311691
-0.317892
-0.310584
-0.31796
-0.308376
-0.309338
-0.301345
-0.297094
-0.288315
-0.280346
-0.269541
-0.258248
-0.244829
-0.230376
-0.214351
-0.197125
-0.17902
-0.159668
-0.139586
-0.118634
-0.0961688
-0.0730285
-0.0502528
-0.0314388
-0.017343
-0.00858309
-0.00324679
-0.00083631
0.000518626
0.000825899
0.00125754
0.000798936
0.00100274
-0.318201
-0.308513
-0.309439
-0.301467
-0.2972
-0.288431
-0.280457
-0.269658
-0.258364
-0.244947
-0.230494
-0.21447
-0.197242
-0.179142
-0.159796
-0.139724
-0.118792
-0.0963423
-0.0732035
-0.0504093
-0.0315663
-0.0174405
-0.00865672
-0.00329958
-0.000874865
0.000491491
0.000806444
0.00124475
0.000790662
0.000998685
-0.318654
-0.308769
-0.309633
-0.301697
-0.29739
-0.28865
-0.280672
-0.269884
-0.258591
-0.245179
-0.230724
-0.214702
-0.197473
-0.179381
-0.160047
-0.139995
-0.1191
-0.0966801
-0.0735458
-0.0507174
-0.031819
-0.0176352
-0.0088045
-0.00340603
-0.000952557
0.000436775
0.000767329
0.00121898
0.000774113
0.000990489
-0.319271
-0.309113
-0.309904
-0.302023
-0.297688
-0.28897
-0.28098
-0.270212
-0.258919
-0.245515
-0.23106
-0.215041
-0.197808
-0.179731
-0.160414
-0.140384
-0.119543
-0.0971665
-0.0740409
-0.0511678
-0.0321932
-0.0179271
-0.00902741
-0.00356774
-0.00107045
0.000353662
0.000708193
0.00117988
0.000749294
0.000978003
-0.319981
-0.309489
-0.310234
-0.302406
-0.298006
-0.289356
-0.281369
-0.270623
-0.259335
-0.245943
-0.231486
-0.215475
-0.198241
-0.180177
-0.160878
-0.140883
-0.120104
-0.0977808
-0.0746705
-0.0517487
-0.032684
-0.0183158
-0.00932666
-0.00378674
-0.00122992
0.000241115
0.000628577
0.00112702
0.000716222
0.000961041
-0.320701
-0.309879
-0.31058
-0.302841
-0.298433
-0.289813
-0.281807
-0.271105
-0.259821
-0.246449
-0.231996
-0.215987
-0.19875
-0.180705
-0.161436
-0.141471
-0.120762
-0.0985008
-0.0754146
-0.0524472
-0.0332856
-0.0188008
-0.00970336
-0.00406503
-0.00143236
9.80621e-05
0.000528007
0.00105993
0.000674929
0.000939427
-0.321404
-0.310148
-0.310944
-0.303245
-0.298828
-0.290271
-0.282305
-0.27162
-0.260363
-0.247007
-0.232558
-0.216568
-0.199334
-0.181306
-0.162066
-0.142134
-0.121497
-0.0993048
-0.076254
-0.0532505
-0.0339921
-0.0193809
-0.0101582
-0.00440421
-0.00167893
-7.64002e-05
0.000406099
0.00097822
0.00062548
0.000913028
-0.321819
-0.310461
-0.31118
-0.303684
-0.299204
-0.290772
-0.282771
-0.272181
-0.260921
-0.247614
-0.233171
-0.217198
-0.199969
-0.18196
-0.162755
-0.142856
-0.122292
-0.100174
-0.077171
-0.0541467
-0.0347972
-0.0200541
-0.0106908
-0.00480505
-0.00197027
-0.000282824
0.000262655
0.000881663
0.000567983
0.000881795
-0.321868
-0.310723
-0.311261
-0.304076
-0.2995
-0.291237
-0.283237
-0.27273
-0.261491
-0.248234
-0.233805
-0.217861
-0.200642
-0.182656
-0.16349
-0.143622
-0.12313
-0.10109
-0.0781507
-0.0551248
-0.0356942
-0.0208173
-0.0112998
-0.00526722
-0.00230632
-0.000521262
9.77434e-05
0.000770228
0.000502602
0.000845783
-0.321523
-0.310838
-0.311198
-0.304355
-0.29973
-0.291637
-0.283649
-0.273251
-0.26204
-0.248849
-0.234444
-0.218539
-0.201338
-0.183377
-0.164257
-0.14442
-0.123998
-0.102042
-0.07918
-0.0561747
-0.0366759
-0.0216659
-0.0119821
-0.00578914
-0.0026861
-0.000791187
-8.8245e-05
0.000644131
0.000429572
0.000805159
-0.320496
-0.310804
-0.310907
-0.304487
-0.299821
-0.291941
-0.283987
-0.273712
-0.262544
-0.249435
-0.235067
-0.219213
-0.20204
-0.18411
-0.165043
-0.145239
-0.124884
-0.103017
-0.0802483
-0.057287
-0.0377342
-0.0225938
-0.0127335
-0.00636791
-0.00310779
-0.00109146
-0.000294571
0.000503852
0.000349207
0.000760201
-0.3186
-0.310513
-0.310346
-0.304412
-0.299752
-0.292086
-0.284207
-0.274076
-0.262976
-0.249967
-0.235652
-0.219865
-0.202735
-0.184842
-0.165836
-0.146067
-0.12578
-0.104007
-0.0813468
-0.0584526
-0.0388607
-0.0235938
-0.0135483
-0.00699946
-0.00356873
-0.00142038
-0.000520155
0.000350111
0.000261898
0.00071128
-0.31586
-0.309816
-0.30948
-0.304038
-0.299466
-0.292065
-0.284289
-0.27432
-0.263312
-0.25042
-0.236178
-0.220477
-0.203407
-0.185562
-0.166625
-0.146899
-0.126679
-0.105006
-0.0824682
-0.0596632
-0.0400462
-0.0246575
-0.0144201
-0.0076788
-0.00406558
-0.00177575
-0.000763627
0.000183845
0.000168112
0.000658838
-0.31268
-0.308515
-0.308211
-0.303348
-0.298896
-0.291763
-0.284155
-0.2744
-0.263518
-0.250774
-0.236631
-0.221034
-0.204045
-0.186258
-0.167404
-0.147727
-0.127576
-0.10601
-0.0836069
-0.0609108
-0.0412815
-0.0257759
-0.0153414
-0.00840024
-0.00459453
-0.00215501
-0.00102338
6.15173e-06
6.83818e-05
0.000603363
-0.309283
-0.30655
-0.306482
-0.302267
-0.298094
-0.291286
-0.283846
-0.274315
-0.263582
-0.25101
-0.236993
-0.221524
-0.204638
-0.186926
-0.168165
-0.148547
-0.128469
-0.107015
-0.0847581
-0.0621878
-0.0425573
-0.0269396
-0.0163047
-0.00915782
-0.00515149
-0.00255539
-0.00129766
-0.000181747
-3.67051e-05
0.000545365
-0.305595
-0.303992
-0.30422
-0.300708
-0.296796
-0.290331
-0.283192
-0.273989
-0.263469
-0.251111
-0.237254
-0.22194
-0.20518
-0.187559
-0.168905
-0.149358
-0.129356
-0.108023
-0.0859187
-0.0634875
-0.043865
-0.0281399
-0.0173024
-0.00994551
-0.00573217
-0.0029739
-0.00158455
-0.000378539
-0.000146516
0.000485353
-0.301748
-0.300802
-0.301445
-0.298752
-0.29532
-0.289388
-0.28244
-0.273509
-0.263201
-0.251077
-0.237409
-0.222275
-0.20567
-0.188158
-0.169625
-0.150162
-0.130242
-0.109033
-0.0870877
-0.0648048
-0.0451966
-0.0293674
-0.0183263
-0.0107566
-0.00633194
-0.00340744
-0.00188213
-0.000582925
-0.000260427
0.000423806
-0.297684
-0.297073
-0.29808
-0.29617
-0.293182
-0.28772
-0.281098
-0.272683
-0.262717
-0.250897
-0.237464
-0.222541
-0.206116
-0.188731
-0.170326
-0.150957
-0.131121
-0.11004
-0.0882546
-0.0661254
-0.0465376
-0.0306101
-0.0193682
-0.0115859
-0.00694775
-0.00385407
-0.00218918
-0.00079401
-0.000377951
0.000361126
-0.293452
-0.293071
-0.294578
-0.293579
-0.291201
-0.286326
-0.28014
-0.271865
-0.262134
-0.25059
-0.237397
-0.222701
-0.206479
-0.189245
-0.170991
-0.151737
-0.132
-0.111057
-0.0894386
-0.0674696
-0.0479081
-0.0318842
-0.0204394
-0.0124393
-0.00758193
-0.00431409
-0.00250517
-0.00101103
-0.000498565
0.000297754
-0.289476
-0.288271
-0.289818
-0.289652
-0.287956
-0.283771
-0.277882
-0.27049
-0.261295
-0.250198
-0.237359
-0.222962
-0.206988
-0.189924
-0.171818
-0.152669
-0.13301
-0.112189
-0.0907139
-0.0688853
-0.0493229
-0.0331813
-0.0215184
-0.0132943
-0.00821581
-0.00477447
-0.00282199
-0.00122913
-0.000620351
0.00023464
-0.284293
-0.284527
-0.286285
-0.286746
-0.285547
-0.281963
-0.276872
-0.269152
-0.260103
-0.249214
-0.23657
-0.222365
-0.206577
-0.189671
-0.171721
-0.152712
-0.133176
-0.112504
-0.0912052
-0.069581
-0.0501474
-0.0340447
-0.0223092
-0.0139695
-0.00874423
-0.00517304
-0.00310371
-0.0014264
-0.000732278
0.000177078
-0.278623
-0.279644
-0.281598
-0.28257
-0.281723
-0.278413
-0.273167
-0.266442
-0.257817
-0.24728
-0.234954
-0.221038
-0.20553
-0.188859
-0.171131
-0.152322
-0.132959
-0.112487
-0.0914244
-0.0700788
-0.0508462
-0.0348375
-0.0230645
-0.0146279
-0.00926354
-0.005566
-0.00337963
-0.00161907
-0.000839694
0.000121965
-0.272678
-0.274311
-0.276515
-0.278045
-0.277669
-0.274865
-0.270343
-0.263716
-0.255398
-0.245192
-0.233178
-0.219555
-0.204337
-0.187914
-0.170422
-0.151829
-0.132653
-0.112397
-0.0915869
-0.0705395
-0.0515273
-0.0356303
-0.0238321
-0.0153051
-0.009802
-0.00597634
-0.0036686
-0.00182149
-0.000952242
6.44221e-05
-0.266485
-0.268757
-0.271237
-0.2733
-0.273416
-0.271116
-0.266934
-0.260775
-0.252822
-0.242973
-0.231295
-0.217987
-0.203078
-0.18692
-0.169678
-0.151314
-0.132337
-0.112311
-0.0917613
-0.0710189
-0.0522308
-0.0364478
-0.0246247
-0.0160061
-0.0103612
-0.00640395
-0.00397044
-0.00203323
-0.00106992
4.72011e-06
-0.259993
-0.263011
-0.265784
-0.268337
-0.268941
-0.267122
-0.263362
-0.257639
-0.250074
-0.240605
-0.229289
-0.216318
-0.201737
-0.185864
-0.168886
-0.150768
-0.132004
-0.112221
-0.0919418
-0.0715125
-0.0529538
-0.0372887
-0.0254421
-0.016731
-0.0109414
-0.00684903
-0.00428527
-0.00225432
-0.00119274
-5.70408e-05
-0.253248
-0.257095
-0.26018
-0.263181
-0.264272
-0.262935
-0.259621
-0.254333
-0.247172
-0.238099
-0.227163
-0.214547
-0.200312
-0.184741
-0.168044
-0.150187
-0.131649
-0.112121
-0.092123
-0.0720144
-0.0536909
-0.0381483
-0.0262809
-0.0174778
-0.0115413
-0.0073109
-0.00461272
-0.00248457
-0.00132055
-0.000120704
-0.246323
-0.251041
-0.254461
-0.257873
-0.259448
-0.258599
-0.255729
-0.250882
-0.244139
-0.235475
-0.224934
-0.212687
-0.198813
-0.183559
-0.167155
-0.149572
-0.131273
-0.112014
-0.0923048
-0.0725229
-0.0544396
-0.0390235
-0.0271385
-0.0182442
-0.0121595
-0.00778863
-0.00495222
-0.00272358
-0.00145314
-0.000186064
-0.239272
-0.244875
-0.248656
-0.25245
-0.2545
-0.254139
-0.251713
-0.247312
-0.240994
-0.232748
-0.222614
-0.210749
-0.197246
-0.182323
-0.166224
-0.148928
-0.13088
-0.111901
-0.0924881
-0.073037
-0.0551975
-0.0399116
-0.0280122
-0.0190282
-0.0127945
-0.00828114
-0.00530312
-0.00297093
-0.00159029
-0.000252899
-0.232144
-0.238621
-0.242789
-0.246938
-0.249451
-0.249576
-0.247596
-0.243641
-0.237756
-0.229935
-0.220216
-0.208743
-0.195621
-0.181041
-0.165255
-0.148258
-0.130473
-0.111783
-0.0926728
-0.0735551
-0.0559622
-0.0408096
-0.0288992
-0.0198273
-0.0134444
-0.00878728
-0.00566467
-0.0032261
-0.00173172
-0.000320966
-0.224987
-0.232301
-0.23688
-0.241362
-0.244321
-0.244928
-0.243397
-0.239887
-0.234439
-0.227049
-0.217752
-0.206679
-0.193945
-0.179717
-0.164255
-0.147566
-0.130054
-0.11166
-0.0928588
-0.0740754
-0.056731
-0.0417143
-0.0297966
-0.0206391
-0.0141077
-0.00930573
-0.00603603
-0.00348849
-0.00187714
-0.000390009
-0.217848
-0.225942
-0.23095
-0.235746
-0.239129
-0.240214
-0.239132
-0.236066
-0.231057
-0.224101
-0.215232
-0.204564
-0.192224
-0.178357
-0.163225
-0.146854
-0.129624
-0.111535
-0.0930454
-0.0745963
-0.0575013
-0.0426226
-0.0307014
-0.021461
-0.0147821
-0.00983503
-0.00641625
-0.00375745
-0.0020262
-0.000459756
-0.210771
-0.219571
-0.225018
-0.230114
-0.233896
-0.235448
-0.234816
-0.232191
-0.227622
-0.221102
-0.212664
-0.202407
-0.190464
-0.176965
-0.162171
-0.146125
-0.129186
-0.111407
-0.0932322
-0.0751157
-0.0582703
-0.0435313
-0.0316105
-0.0222902
-0.0154657
-0.0103736
-0.00680425
-0.0040322
-0.00217851
-0.000529924
-0.2038
-0.213216
-0.219107
-0.224491
-0.228643
-0.230648
-0.230464
-0.228277
-0.224147
-0.218064
-0.210058
-0.200216
-0.188673
-0.175548
-0.161095
-0.14538
-0.12874
-0.111276
-0.0934183
-0.0756319
-0.0590353
-0.0444372
-0.0325206
-0.0231239
-0.0161561
-0.0109197
-0.00719884
-0.00431191
-0.00233363
-0.000600215
-0.196976
-0.206909
-0.213239
-0.218901
-0.223392
-0.225831
-0.226091
-0.224339
-0.220643
-0.214996
-0.207423
-0.197997
-0.186855
-0.174109
-0.160003
-0.144624
-0.128289
-0.111143
-0.0936029
-0.0761428
-0.0597936
-0.0453371
-0.0334284
-0.023959
-0.0168509
-0.0114714
-0.0075987
-0.0045956
-0.00249108
-0.000670324
-0.190334
-0.200681
-0.207437
-0.213367
-0.218168
-0.221018
-0.221714
-0.220391
-0.217125
-0.21191
-0.204768
-0.195759
-0.185019
-0.172654
-0.158898
-0.143858
-0.127834
-0.111008
-0.0937849
-0.0766463
-0.0605423
-0.0462275
-0.0343305
-0.0247923
-0.0175475
-0.0120266
-0.00800232
-0.00488221
-0.0026503
-0.000739935
-0.183908
-0.194565
-0.201724
-0.207915
-0.212995
-0.21623
-0.217352
-0.21645
-0.213607
-0.20882
-0.202105
-0.193512
-0.183172
-0.171188
-0.157784
-0.143086
-0.127376
-0.110871
-0.0939633
-0.0771405
-0.0612785
-0.047105
-0.0352231
-0.0256204
-0.0182428
-0.0125829
-0.00840805
-0.0051705
-0.00281067
-0.000808724
-0.177726
-0.188594
-0.196126
-0.202567
-0.207901
-0.211491
-0.213024
-0.212535
-0.210106
-0.205739
-0.199446
-0.191265
-0.181322
-0.169719
-0.156667
-0.142311
-0.126917
-0.110731
-0.094137
-0.0776231
-0.061999
-0.0479659
-0.0361025
-0.0264395
-0.0189338
-0.0131378
-0.00881398
-0.00545911
-0.00297147
-0.000876358
-0.171815
-0.182804
-0.19067
-0.197349
-0.202914
-0.206829
-0.208752
-0.208665
-0.20664
-0.202684
-0.196804
-0.189031
-0.17948
-0.168254
-0.155553
-0.141537
-0.126459
-0.110591
-0.094305
-0.0780919
-0.0627007
-0.0488063
-0.0369643
-0.0272455
-0.0196168
-0.0136883
-0.00921798
-0.00574646
-0.00313187
-0.000942493
-0.166199
-0.177228
-0.185387
-0.192288
-0.198063
-0.202272
-0.204562
-0.204863
-0.20323
-0.199672
-0.194195
-0.186822
-0.177656
-0.166803
-0.154448
-0.140769
-0.126005
-0.11045
-0.0944662
-0.0785445
-0.0633801
-0.049622
-0.037804
-0.028034
-0.0202879
-0.014231
-0.00961763
-0.00603081
-0.00329094
-0.00100677
-0.160902
-0.171901
-0.180308
-0.187414
-0.193381
-0.197852
-0.200482
-0.201154
-0.199898
-0.196725
-0.191638
-0.184653
-0.175862
-0.165374
-0.15336
-0.140011
-0.125558
-0.110308
-0.0946194
-0.0789785
-0.0640335
-0.0504084
-0.0386167
-0.0288
-0.0209428
-0.0147625
-0.0100102
-0.00631016
-0.00344759
-0.0010688
-0.155945
-0.166857
-0.175464
-0.182757
-0.188899
-0.193603
-0.196542
-0.197565
-0.19667
-0.193865
-0.189152
-0.182542
-0.174115
-0.163979
-0.152299
-0.13927
-0.125121
-0.110168
-0.0947637
-0.0793914
-0.064657
-0.0511609
-0.0393971
-0.0295382
-0.0215768
-0.0152785
-0.0103926
-0.00658229
-0.00360058
-0.0011282
-0.15135
-0.162128
-0.17089
-0.17835
-0.184651
-0.189561
-0.192778
-0.194127
-0.193574
-0.191118
-0.18676
-0.180507
-0.172428
-0.162632
-0.151272
-0.138554
-0.124698
-0.11003
-0.094898
-0.0797803
-0.0652465
-0.0518741
-0.0401392
-0.0302427
-0.0221843
-0.0157746
-0.0107614
-0.0068447
-0.00374849
-0.00118452
-0.147138
-0.157748
-0.166622
-0.174229
-0.180673
-0.185763
-0.189226
-0.190873
-0.190639
-0.188511
-0.184486
-0.17857
-0.170821
-0.161347
-0.150293
-0.137869
-0.124293
-0.109896
-0.0950216
-0.0801426
-0.0657974
-0.0525422
-0.0408368
-0.0309071
-0.0227596
-0.0162457
-0.0111127
-0.00709459
-0.00388974
-0.0012373
-0.143329
-0.153751
-0.162698
-0.170431
-0.177003
-0.182249
-0.185927
-0.187841
-0.187901
-0.186076
-0.182359
-0.176755
-0.169314
-0.16014
-0.149373
-0.137225
-0.123912
-0.109769
-0.0951333
-0.080475
-0.0663047
-0.0531591
-0.0414827
-0.0315242
-0.0232959
-0.016686
-0.0114421