/*--------------------------------*- C++ -*----------------------------------*\
  =========                 |
  \\      /  F ield         | OpenFOAM: The Open Source CFD Toolbox
   \\    /   O peration     | Website:  https://openfoam.org
    \\  /    A nd           | Version:  9
     \\/     M anipulation  |
\*---------------------------------------------------------------------------*/
FoamFile
{
    format      ascii;
    class       surfaceScalarField;
    location    "31";
    object      phi;
}
// * * * * * * * * * * * * * * * * * * * * * * * * * * * * * * * * * * * * * //

dimensions      [0 3 -1 0 0 0 0];

internalField   nonuniform List<scalar> 
16735
(
-0.0029949
0.00299493
-2.66054e-08
-0.00899346
0.00599861
-4.90792e-08
-0.0168741
0.00788065
-5.90637e-08
-0.0259123
0.0090383
-6.36361e-08
-0.0360016
0.0100894
-6.69252e-08
-0.0465638
0.0105623
-6.74665e-08
-0.0586944
0.0121307
-6.348e-08
-0.0697017
0.0110073
-4.79512e-08
-0.0845142
0.0148126
-1.61608e-08
0.0111797
4.168e-08
-0.0956939
-0.00294345
0.00593838
-0.00884619
0.0119013
-0.0165897
0.0156241
-0.0254405
0.0178891
-0.0352788
0.0199277
-0.0454944
0.0207779
-0.057177
0.0238132
-0.0675347
0.021365
-0.0816243
0.0289021
0.0210939
-0.0915386
-0.00284275
0.00878113
-0.00855675
0.0176153
-0.0160291
0.0230965
-0.0245084
0.0263684
-0.0338458
0.0292652
-0.0433748
0.0303069
-0.0541526
0.034591
-0.0632236
0.030436
-0.0758803
0.0415589
0.0285291
-0.0833155
-0.00269714
0.0114783
-0.00813518
0.0230534
-0.0152083
0.0301696
-0.0231384
0.0342985
-0.0317278
0.0378546
-0.0402423
0.0388213
-0.0496407
0.0439894
-0.0568047
0.0376
-0.0673308
0.052085
0.0323671
-0.0711688
-0.00251284
0.0139911
-0.00759601
0.0281366
-0.0141509
0.0367245
-0.0213634
0.041511
-0.0289617
0.0454529
-0.0361513
0.0460108
-0.0436669
0.051505
-0.0483152
0.0422483
-0.0559925
0.0597623
0.0316126
-0.055238
-0.00229777
0.0162889
-0.00695766
0.0327964
-0.012885
0.0426519
-0.0192249
0.0478509
-0.0255945
0.0518225
-0.0311711
0.0515874
-0.0362601
0.0565941
-0.037786
0.0437741
-0.041781
0.0637574
0.0253861
-0.0355545
-0.00206113
0.01835
-0.00624162
0.0369769
-0.0114443
0.0478546
-0.0167707
0.0531773
-0.02168
0.0567317
-0.0253809
0.0552883
-0.0274485
0.0586617
-0.025254
0.0415796
-0.0244308
0.0629343
0.012921
-0.0119658
-0.00181297
0.020163
-0.00547141
0.0406354
-0.00986564
0.0522488
-0.014051
0.0573627
-0.017273
0.0599537
-0.0188594
0.0568746
-0.017244
0.0570463
-0.0108205
0.0351561
-0.00332111
0.0554348
-0.00711207
0.016712
-0.00156369
0.0217267
-0.00467121
0.0437429
-0.00818665
0.0557642
-0.011114
0.06029
-0.0124202
0.06126
-0.0116669
0.0561213
-0.00557224
0.0509516
0.00562405
0.0239598
0.0208492
0.0402096
-0.0378073
0.0515445
-0.00132341
0.0230501
-0.00386431
0.0462838
-0.00644291
0.0583428
-0.00799868
0.0618458
-0.00714481
0.0604062
-0.00383933
0.0528159
0.00728552
0.0398268
0.0244993
0.00674608
0.0493533
0.0153556
-0.0816119
0.0931579
-0.00110135
0.0241514
-0.00307121
0.0482537
-0.00466442
0.0599361
-0.00473008
0.0619114
-0.00140021
0.0570763
0.00496465
0.046451
0.0215921
0.0231993
0.045294
-0.0169558
0.0824144
-0.0217648
-0.14108
0.141882
-0.000905065
0.0250565
-0.00230756
0.0496562
-0.00287082
0.0604993
-0.00132281
0.0603634
0.00463817
0.0511153
0.0149506
0.0361386
0.0379636
0.000186317
0.0688907
-0.0478829
0.120285
-0.0731595
-0.217394
0.1966
-0.000739812
0.0257963
-0.00158193
0.0504983
-0.0010621
0.0599795
0.0023288
0.0569725
0.0112505
0.0421936
0.026333
0.0210561
0.0567313
-0.030212
0.0966486
-0.0878002
0.163296
-0.139807
-0.308545
0.254446
-0.000608061
0.0264044
-0.000894138
0.0507844
0.000764829
0.0583205
0.00624833
0.051489
0.0186313
0.0298106
0.0396707
1.66679e-05
0.0782545
-0.0687958
0.129628
-0.139174
0.211026
-0.221205
-0.408783
0.311264
-0.000510143
0.0269145
-0.000231487
0.0505057
0.00264911
0.0554399
0.0105256
0.0436125
0.0270163
0.0133199
0.0554735
-0.0284404
0.1029
-0.116222
0.167432
-0.203706
0.260993
-0.314766
-0.510363
0.362572
-0.000436855
0.0273514
0.000424756
0.0496441
0.0046886
0.0511761
0.0153552
0.0329459
0.0367454
-0.00807032
0.0740458
-0.0657409
0.130882
-0.173058
0.207951
-0.280775
0.308558
-0.415372
-0.606437
0.404633
-0.000377248
0.0277286
0.00111582
0.048151
0.00698621
0.0453057
0.0209966
0.0189355
0.0482706
-0.0353443
0.0953688
-0.112839
0.161674
-0.239364
0.247981
-0.367082
0.348795
-0.516186
-0.692886
0.435243
-0.000318914
0.0280475
0.0018934
0.0459387
0.00967818
0.0375209
0.0277572
0.000856467
0.0620308
-0.0696179
0.119058
-0.169866
0.193544
-0.31385
0.283992
-0.45753
0.378573
-0.610767
-0.768324
0.454011
-0.00024499
0.0282925
0.0028174
0.0428763
0.0129248
0.0274135
0.035945
-0.0221637
0.0782134
-0.111886
0.144203
-0.235856
0.223924
-0.393571
0.313049
-0.546654
0.397197
-0.694915
-0.833302
0.462175
-0.000135193
0.0284277
0.00395431
0.0387868
0.0169027
0.0144651
0.0457979
-0.0510589
0.0965095
-0.162598
0.169273
-0.308619
0.250335
-0.474633
0.333619
-0.629938
0.405736
-0.767032
-0.88991
0.462344
3.18095e-05
0.0283959
0.00537458
0.033444
0.0217924
-0.00195266
0.0573858
-0.0866523
0.116032
-0.221244
0.192401
-0.384989
0.271071
-0.553303
0.345682
-0.704549
0.407205
-0.828555
-0.945801
0.463096
0.000250008
0.0281459
0.00715272
0.0265413
0.0277517
-0.0225516
0.0705004
-0.129401
0.135464
-0.286208
0.21197
-0.461494
0.285414
-0.626748
0.35038
-0.769514
0.405197
-0.883372
-0.994292
0.453689
0.000557407
0.0275885
0.0093664
0.0177323
0.034865
-0.0480503
0.0845982
-0.179134
0.153388
-0.354998
0.227006
-0.535111
0.293548
-0.69329
0.349905
-0.825871
0.397501
-0.930969
-1.03548
0.438691
0.000964329
0.0266242
0.0120929
0.00660378
0.0430758
-0.0790332
0.0988571
-0.234916
0.168638
-0.424778
0.237231
-0.603705
0.296339
-0.752398
0.344937
-0.874469
0.386424
-0.972456
-1.07236
0.423306
0.00148214
0.025142
0.0153988
-0.00731292
0.052144
-0.115778
0.112341
-0.295113
0.180515
-0.492952
0.242907
-0.666098
0.294678
-0.804168
0.336649
-0.916441
0.37312
-1.00893
-1.10525
0.406003
0.00212481
0.0230172
0.0193142
-0.0245023
0.0616635
-0.158128
0.124204
-0.357653
0.188798
-0.557546
0.24454
-0.721839
0.289511
-0.84914
0.325881
-0.95281
0.358117
-1.04116
-1.13505
0.387918
0.00291387
0.0201033
0.0238005
-0.0453889
0.0711236
-0.205451
0.133852
-0.420381
0.193606
-0.6173
0.24275
-0.770984
0.281637
-0.888027
0.313299
-0.984472
0.342038
-1.0699
-1.16216
0.369151
0.00388222
0.0162211
0.0287385
-0.0702451
0.0799772
-0.25669
0.140998
-0.481401
0.195257
-0.671559
0.238159
-0.813886
0.271719
-0.921586
0.299423
-1.01218
0.325159
-1.09564
-1.18687
0.349871
0.00507007
0.011151
0.0339433
-0.0991183
0.0877253
-0.310472
0.145617
-0.539293
0.194159
-0.720101
0.231334
-0.851061
0.260282
-0.950535
0.284621
-1.03651
0.30773
-1.11875
-1.20937
0.330229
0.00650863
0.00464241
0.0391968
-0.131807
0.0940108
-0.365286
0.147853
-0.593135
0.190745
-0.762993
0.222763
-0.883079
0.247733
-0.975504
0.269164
-1.05795
0.289895
-1.13948
-1.22975
0.310272
0.00819749
-0.00355507
0.0442763
-0.167885
0.0986581
-0.419668
0.147932
-0.642409
0.185424
-0.800485
0.212852
-0.910508
0.234378
-0.99703
0.253241
-1.07681
0.271761
-1.158
-1.24806
0.290074
0.0100921
-0.0136472
0.0489654
-0.206759
0.101641
-0.472343
0.146119
-0.686887
0.178566
-0.832932
0.201932
-0.933874
0.220447
-1.01554
0.236989
-1.09335
0.253402
-1.17441
-1.26433
0.26967
0.012112
-0.0257591
0.0530613
-0.247708
0.10303
-0.522311
0.142685
-0.726542
0.170492
-0.860739
0.190265
-0.953648
0.206111
-1.03139
0.220506
-1.10774
0.234874
-1.18878
-1.27856
0.249104
0.0141617
-0.0399208
0.0563926
-0.289939
0.102951
-0.56887
0.137885
-0.761476
0.16147
-0.884324
0.178054
-0.970232
0.191495
-1.04483
0.203859
-1.12011
0.21622
-1.20114
-1.29075
0.228407
0.016154
-0.0560748
0.0588414
-0.332626
0.101557
-0.611585
0.131957
-0.791876
0.151721
-0.904088
0.165459
-0.98397
0.176692
-1.05607
0.187099
-1.13052
0.197476
-1.21152
-1.30088
0.207613
0.0180177
-0.0740925
0.0603525
-0.374961
0.0990111
-0.650243
0.125116
-0.817981
0.141427
-0.920399
0.152601
-0.995144
0.161771
-1.06524
0.170271
-1.13901
0.178675
-1.21992
-1.30896
0.186757
0.0196945
-0.093787
0.0609263
-0.416193
0.095476
-0.684793
0.117549
-0.840054
0.130736
-0.933586
0.139574
-1.00398
0.146787
-1.07245
0.153409
-1.14564
0.159846
-1.22636
-1.31499
0.165869
0.0211316
-0.114919
0.0606026
-0.455664
0.0911037
-0.715294
0.109419
-0.858369
0.119769
-0.943936
0.12645
-1.01066
0.13178
-1.07778
0.136545
-1.1504
0.141019
-1.23083
-1.31895
0.144983
0.0222787
-0.137197
0.0594397
-0.492825
0.0860325
-0.741887
0.100866
-0.873203
0.108623
-0.951694
0.113287
-1.01533
0.116786
-1.08128
0.119706
-1.15332
0.122221
-1.23335
-1.32086
0.124134
0.0230925
-0.16029
0.0575241
-0.527257
0.0803886
-0.764751
0.0920069
-0.884821
0.0973775
-0.957064
0.100128
-1.01808
0.101835
-1.08298
0.102918
-1.15441
0.103483
-1.23391
-1.32075
0.103364
0.0235445
-0.183834
0.0550352
-0.558747
0.0742904
-0.784007
0.082936
-0.893467
0.0860931
-0.960221
0.0870108
-1.019
0.0869513
-1.08293
0.0862028
-1.15366
0.0848318
-1.23254
-1.31864
0.0827247
0.0236228
-0.207457
0.0520385
-0.587163
0.0678423
-0.79981
0.0737326
-0.899357
0.0748199
-0.961309
0.0739656
-1.01814
0.0721591
-1.08112
0.0695842
-1.15108
0.066289
-1.22925
-1.31453
0.0621824
0.023333
-0.23079
0.0486057
-0.612436
0.0611345
-0.812339
0.0644632
-0.902686
0.0635975
-0.960443
0.0610178
-1.01556
0.0574802
-1.07758
0.0530881
-1.14669
0.0478724
-1.22403
-1.30841
0.0417542
0.0226961
-0.253486
0.0448105
-0.63455
0.0542468
-0.821775
0.0551821
-0.903621
0.052458
-0.957719
0.0481898
-1.01129
0.0429345
-1.07233
0.0367402
-1.1405
0.0296263
-1.21692
-1.30025
0.0214656
0.0217457
-0.275232
0.0407233
-0.653528
0.0472303
-0.828282
0.0459331
-0.902324
0.0414283
-0.953214
0.0355019
-1.00537
0.0285407
-1.06536
0.0205542
-1.13251
0.0116147
-1.20798
-1.28989
0.00125659
0.0205224
-0.295754
0.0364099
-0.669415
0.0401423
-0.832015
0.0367525
-0.898934
0.0305311
-0.946993
0.0229712
-0.997807
0.014317
-1.05671
0.00450698
-1.1227
-0.00615143
-1.19732
-1.27756
-0.0184861
0.0190697
-0.314824
0.0319304
-0.682276
0.0330358
-0.83312
0.0276711
-0.893569
0.0197846
-0.939106
0.0106076
-0.98863
0.000246743
-1.04635
-0.0111995
-1.11125
-0.0237986
-1.18472
-1.2634
-0.0379604
0.0174303
-0.332254
0.0273393
-0.692185
0.0259545
-0.831735
0.0187154
-0.88633
0.00919526
-0.929586
-0.00158495
-0.977849
-0.0134885
-1.03445
-0.0266534
-1.09809
-0.0411476
-1.17023
-1.24738
-0.0571672
0.015644
-0.347898
0.0226849
-0.699226
0.0189344
-0.827985
0.00990602
-0.877302
-0.00124809
-0.918432
-0.0134576
-0.96564
-0.0270246
-1.02088
-0.0418768
-1.08324
-0.0582012
-1.1539
-1.22952
-0.0760605
0.0137475
-0.361646
0.0180097
-0.703488
0.0120035
-0.821979
0.00123427
-0.866532
-0.0113148
-0.905883
-0.0251425
-0.951812
-0.0403131
-1.00571
-0.0568354
-1.06671
-0.0749401
-1.1358
-1.20984
-0.0946209
0.0117742
-0.37342
0.0133508
-0.705065
0.00517239
-0.8138
-0.00715282
-0.854207
-0.0212194
-0.891816
-0.0365938
-0.936438
-0.0533373
-0.988965
-0.0715044
-1.04855
-0.0913488
-1.11595
-1.18837
-0.11282
0.00975435
-0.383174
0.00874313
-0.704053
-0.00153167
-0.803526
-0.015365
-0.840374
-0.0309065
-0.876275
-0.0477927
-0.919552
-0.0660808
-0.970677
-0.0858626
-1.02876
-0.107409
-1.09441
-1.16514
-0.130636
0.00771291
-0.390887
0.00422693
-0.700567
-0.00792067
-0.791378
-0.023375
-0.82492
-0.0403589
-0.859291
-0.0587252
-0.901185
-0.0785285
-0.950874
-0.0998913
-1.0074
-0.123102
-1.0712
-1.14019
-0.148048
0.00566871
-0.396556
-9.89294e-05
-0.6948
-0.014179
-0.777298
-0.0311679
-0.807931
-0.0495657
-0.840893
-0.0693788
-0.881372
-0.0906656
-0.929587
-0.113574
-0.984493
-0.138413
-1.04636
-1.11357
-0.165033
0.00363993
-0.400196
-0.00465759
-0.686502
-0.0202754
-0.76168
-0.0387294
-0.789477
-0.0585156
-0.821107
-0.0797417
-0.860146
-0.102478
-0.906851
-0.126897
-0.960074
-0.153325
-1.01993
-1.08533
-0.181565
0.00166292
-0.401859
-0.00895997
-0.675879
-0.0261914
-0.744449
-0.0460503
-0.769618
-0.0671981
-0.799959
-0.0898026
-0.837542
-0.113953
-0.8827
-0.139844
-0.934183
-0.167818
-0.991955
-1.05553
-0.197619
-0.000227124
-0.401632
-0.0130946
-0.663012
-0.0319174
-0.725626
-0.0531259
-0.748409
-0.0756035
-0.777481
-0.0995506
-0.813595
-0.125078
-0.857173
-0.152407
-0.906853
-0.181879
-0.962484
-1.02421
-0.213198
-0.00235425
-0.399277
-0.0170778
-0.648288
-0.0374405
-0.705263
-0.0599503
-0.725899
-0.0837227
-0.753709
-0.108975
-0.788342
-0.135844
-0.830303
-0.164586
-0.878111
-0.195499
-0.931571
-0.991443
-0.228271
-0.00433342
-0.394944
-0.0209083
-0.631714
-0.0427494
-0.683422
-0.0665178
-0.702131
-0.0915471
-0.728679
-0.118066
-0.761824
-0.146243
-0.802126
-0.176374
-0.84798
-0.208632
-0.899313
-0.957476
-0.242599
-0.00622605
-0.388718
-0.0245831
-0.613356
-0.0478379
-0.660167
-0.0728226
-0.677146
-0.0990687
-0.702433
-0.126814
-0.734079
-0.156265
-0.772674
-0.187726
-0.816519
-0.221289
-0.86575
-0.922712
-0.256053
-0.00803844
-0.380679
-0.0280988
-0.593296
-0.0527013
-0.635565
-0.0788597
-0.650988
-0.10628
-0.675013
-0.135211
-0.705149
-0.165893
-0.741992
-0.198587
-0.783825
-0.233001
-0.831337
-0.885753
-0.269959
-0.00977093
-0.370909
-0.0314524
-0.571615
-0.0573361
-0.609681
-0.084624
-0.6237
-0.113175
-0.646462
-0.143249
-0.675075
-0.175105
-0.710135
-0.208918
-0.750012
-0.244591
-0.795664
-0.847206
-0.283138
-0.0114221
-0.359486
-0.0346408
-0.548396
-0.0617395
-0.582583
-0.090111
-0.595328
-0.119747
-0.616826
-0.150919
-0.643903
-0.183902
-0.677152
-0.218858
-0.715057
-0.255908
-0.758613
-0.807323
-0.295792
-0.01299
-0.346496
-0.0376614
-0.523724
-0.0659091
-0.554335
-0.0953164
-0.565921
-0.12599
-0.586153
-0.158211
-0.611682
-0.19226
-0.643102
-0.228302
-0.679015
-0.266574
-0.720341
-0.766174
-0.307722
-0.0144725
-0.332024
-0.0405116
-0.497685
-0.0698426
-0.525004
-0.100236
-0.535527
-0.131897
-0.554492
-0.165117
-0.578462
-0.200184
-0.608035
-0.237285
-0.641914
-0.276713
-0.680913
-0.723881
-0.319007
-0.0158673
-0.316157
-0.0431894
-0.470363
-0.0735381
-0.494655
-0.104867
-0.504199
-0.137463
-0.521895
-0.171628
-0.544298
-0.207658
-0.572005
-0.245763
-0.60381
-0.286267
-0.640408
-0.680514
-0.329634
-0.0171718
-0.298985
-0.045693
-0.441842
-0.0769937
-0.463355
-0.109204
-0.471988
-0.142684
-0.488416
-0.177739
-0.509242
-0.214678
-0.535066
-0.253732
-0.564756
-0.295242
-0.598898
-0.636147
-0.339609
-0.0183831
-0.280602
-0.0480207
-0.412204
-0.0802077
-0.431168
-0.113246
-0.43895
-0.147552
-0.45411
-0.183441
-0.473353
-0.221233
-0.497274
-0.261177
-0.524812
-0.303623
-0.556452
-0.590845
-0.348924
-0.0194973
-0.261104
-0.050171
-0.381531
-0.0831785
-0.39816
-0.116988
-0.40514
-0.152064
-0.419034
-0.18873
-0.436687
-0.227316
-0.458688
-0.268087
-0.484041
-0.3114
-0.51314
-0.544676
-0.357569
-0.0205077
-0.240597
-0.052142
-0.349897
-0.0859052
-0.364397
-0.120428
-0.370617
-0.156216
-0.383246
-0.193598
-0.399305
-0.232918
-0.419369
-0.274453
-0.442506
-0.318563
-0.469029
-0.497706
-0.365533
-0.0213998
-0.219197
-0.0539326
-0.317364
-0.0883874
-0.329942
-0.123564
-0.33544
-0.160003
-0.346807
-0.198041
-0.361267
-0.238033
-0.379376
-0.280268
-0.400271
-0.325104
-0.424193
-0.450006
-0.372805
-0.0222185
-0.196978
-0.0555451
-0.284037
-0.0906245
-0.294863
-0.126393
-0.299672
-0.163422
-0.309778
-0.202053
-0.322637
-0.242654
-0.338775
-0.285522
-0.357404
-0.331014
-0.378701
-0.401646
-0.379373
-0.0229636
-0.174015
-0.0569801
-0.250021
-0.0926161
-0.259227
-0.128912
-0.263376
-0.166469
-0.272222
-0.20563
-0.283476
-0.246776
-0.297629
-0.290209
-0.31397
-0.336283
-0.332627
-0.3527
-0.385229
-0.0236228
-0.150392
-0.0582373
-0.215406
-0.094361
-0.223103
-0.131121
-0.226616
-0.169141
-0.234201
-0.208768
-0.243849
-0.250392
-0.256004
-0.294323
-0.270039
-0.340906
-0.286044
-0.303244
-0.390363
-0.0241915
-0.1262
-0.059316
-0.180282
-0.0958585
-0.18656
-0.133017
-0.189458
-0.171437
-0.195781
-0.211464
-0.203822
-0.2535
-0.213968
-0.297857
-0.225682
-0.344876
-0.239025
-0.253352
-0.394768
-0.0246672
-0.101533
-0.0602157
-0.144733
-0.0971076
-0.149668
-0.134599
-0.151967
-0.173353
-0.157027
-0.213714
-0.163461
-0.256094
-0.171588
-0.300807
-0.18097
-0.348186
-0.191646
-0.2031
-0.398437
-0.0250487
-0.0764845
-0.0609359
-0.108846
-0.0981078
-0.112496
-0.135866
-0.11421
-0.174887
-0.118005
-0.215517
-0.122831
-0.258173
-0.128932
-0.303168
-0.135974
-0.350833
-0.143981
-0.152565
-0.401368
-0.0253354
-0.0511491
-0.0614764
-0.072705
-0.0988584
-0.0751145
-0.136817
-0.0762512
-0.17604
-0.0787822
-0.216871
-0.0819992
-0.259734
-0.0860694
-0.304941
-0.0907671
-0.352818
-0.0961045
-0.101822
-0.403561
-0.0255267
-0.0256224
-0.0618369
-0.0363948
-0.0993591
-0.0375923
-0.137451
-0.0381591
-0.176809
-0.0394247
-0.217775
-0.0410333
-0.260775
-0.0430692
-0.306123
-0.0454188
-0.354141
-0.0480872
-0.0509436
-0.405019
-0.0256224
-5.0992e-09
-0.0620172
-6.95133e-09
-0.0996095
-6.78649e-09
-0.137769
-6.43646e-09
-0.177193
-6.13968e-09
-0.218226
-5.85664e-09
-0.261296
-5.60173e-09
-0.306714
-5.3669e-09
-0.354802
-5.14875e-09
-4.92593e-09
-0.405745
-0.0256224
0.0256224
-0.0620172
0.0363948
-0.0996095
0.0375923
-0.137769
0.0381591
-0.177193
0.0394247
-0.218226
0.0410332
-0.261296
0.0430692
-0.306714
0.0454188
-0.354802
0.0480872
0.0509436
-0.405745
-0.0255267
0.0511491
-0.0618369
0.072705
-0.0993591
0.0751144
-0.137451
0.0762512
-0.176809
0.0787822
-0.217775
0.0819992
-0.260775
0.0860694
-0.306123
0.0907671
-0.354141
0.0961045
0.101822
-0.405019
-0.0253354
0.0764845
-0.0614764
0.108846
-0.0988584
0.112496
-0.136817
0.11421
-0.17604
0.118005
-0.216871
0.122831
-0.259734
0.128932
-0.304941
0.135974
-0.352818
0.143981
0.152565
-0.403561
-0.0250487
0.101533
-0.0609359
0.144733
-0.0981078
0.149668
-0.135866
0.151967
-0.174887
0.157027
-0.215517
0.163461
-0.258173
0.171588
-0.303168
0.18097
-0.350833
0.191646
0.2031
-0.401368
-0.0246672
0.1262
-0.0602157
0.180282
-0.0971076
0.18656
-0.134599
0.189458
-0.173353
0.195781
-0.213714
0.203822
-0.256094
0.213968
-0.300807
0.225682
-0.348186
0.239025
0.253352
-0.398437
-0.0241915
0.150392
-0.059316
0.215406
-0.0958585
0.223103
-0.133017
0.226616
-0.171437
0.234201
-0.211464
0.243849
-0.2535
0.256004
-0.297857
0.270039
-0.344876
0.286044
0.303244
-0.394768
-0.0236228
0.174015
-0.0582373
0.250021
-0.094361
0.259227
-0.131121
0.263376
-0.169141
0.272222
-0.208768
0.283476
-0.250392
0.297629
-0.294323
0.31397
-0.340906
0.332627
0.3527
-0.390363
-0.0229636
0.196978
-0.0569801
0.284037
-0.0926161
0.294863
-0.128912
0.299672
-0.166469
0.309778
-0.20563
0.322637
-0.246776
0.338775
-0.290209
0.357404
-0.336283
0.378701
0.401646
-0.385229
-0.0222185
0.219197
-0.0555451
0.317364
-0.0906245
0.329942
-0.126393
0.33544
-0.163422
0.346807
-0.202053
0.361267
-0.242654
0.379376
-0.285522
0.400271
-0.331014
0.424193
0.450006
-0.379373
-0.0213998
0.240597
-0.0539326
0.349896
-0.0883874
0.364397
-0.123564
0.370617
-0.160003
0.383246
-0.198041
0.399305
-0.238033
0.419369
-0.280268
0.442506
-0.325104
0.469029
0.497706
-0.372805
-0.0205077
0.261104
-0.052142
0.381531
-0.0859052
0.39816
-0.120428
0.40514
-0.156216
0.419034
-0.193598
0.436687
-0.232918
0.458688
-0.274453
0.484041
-0.318563
0.51314
0.544676
-0.365533
-0.0194973
0.280602
-0.050171
0.412204
-0.0831785
0.431168
-0.116988
0.43895
-0.152064
0.45411
-0.18873
0.473353
-0.227316
0.497274
-0.268087
0.524812
-0.3114
0.556452
0.590845
-0.357569
-0.0183831
0.298985
-0.0480207
0.441842
-0.0802077
0.463354
-0.113246
0.471988
-0.147552
0.488416
-0.183441
0.509242
-0.221233
0.535066
-0.261177
0.564756
-0.303623
0.598898
0.636147
-0.348924
-0.0171718
0.316157
-0.045693
0.470363
-0.0769937
0.494655
-0.109204
0.504199
-0.142684
0.521895
-0.177739
0.544298
-0.214678
0.572005
-0.253732
0.60381
-0.295242
0.640408
0.680514
-0.339609
-0.0158673
0.332024
-0.0431894
0.497685
-0.0735381
0.525004
-0.104867
0.535527
-0.137463
0.554492
-0.171628
0.578462
-0.207658
0.608035
-0.245763
0.641914
-0.286267
0.680913
0.723881
-0.329634
-0.0144725
0.346496
-0.0405116
0.523724
-0.0698426
0.554335
-0.100236
0.565921
-0.131897
0.586153
-0.165117
0.611682
-0.200184
0.643102
-0.237285
0.679015
-0.276713
0.720341
0.766174
-0.319007
-0.01299
0.359486
-0.0376614
0.548396
-0.0659091
0.582583
-0.0953164
0.595328
-0.12599
0.616826
-0.158211
0.643903
-0.19226
0.677152
-0.228302
0.715057
-0.266574
0.758613
0.807323
-0.307722
-0.0114221
0.370909
-0.0346408
0.571615
-0.0617395
0.609681
-0.090111
0.6237
-0.119747
0.646462
-0.150919
0.675075
-0.183902
0.710135
-0.218858
0.750012
-0.255908
0.795664
0.847206
-0.295792
-0.00977092
0.380679
-0.0314524
0.593296
-0.0573361
0.635565
-0.084624
0.650988
-0.113175
0.675013
-0.143249
0.705149
-0.175105
0.741992
-0.208918
0.783825
-0.244591
0.831337
0.885753
-0.283138
-0.00803844
0.388718
-0.0280988
0.613356
-0.0527013
0.660167
-0.0788597
0.677146
-0.10628
0.702433
-0.135211
0.734079
-0.165893
0.772674
-0.198587
0.816519
-0.233001
0.86575
0.922712
-0.269959
-0.00622605
0.394944
-0.0245831
0.631713
-0.0478379
0.683422
-0.0728226
0.702131
-0.0990687
0.728679
-0.126814
0.761824
-0.156265
0.802126
-0.187726
0.84798
-0.221289
0.899313
0.957476
-0.256053
-0.00433342
0.399277
-0.0209083
0.648288
-0.0427494
0.705263
-0.0665178
0.725899
-0.0915471
0.753709
-0.118066
0.788342
-0.146243
0.830303
-0.176374
0.878111
-0.208632
0.931571
0.991443
-0.242599
-0.00235425
0.401632
-0.0170778
0.663012
-0.0374405
0.725626
-0.0599503
0.748409
-0.0837227
0.777481
-0.108975
0.813595
-0.135844
0.857173
-0.164586
0.906853
-0.195499
0.962484
1.02421
-0.228271
-0.000227123
0.401859
-0.0130946
0.675879
-0.0319174
0.744449
-0.0531259
0.769618
-0.0756035
0.799959
-0.0995506
0.837542
-0.125078
0.8827
-0.152407
0.934183
-0.181879
0.991955
1.05553
-0.213198
0.00166292
0.400196
-0.00895997
0.686502
-0.0261914
0.76168
-0.0460503
0.789477
-0.0671981
0.821107
-0.0898026
0.860146
-0.113953
0.906851
-0.139844
0.960074
-0.167818
1.01993
1.08533
-0.197619
0.00363993
0.396556
-0.00465759
0.6948
-0.0202754
0.777298
-0.0387294
0.807931
-0.0585156
0.840893
-0.0797417
0.881372
-0.102478
0.929587
-0.126897
0.984493
-0.153325
1.04636
1.11357
-0.181565
0.00566871
0.390887
-9.89291e-05
0.700567
-0.014179
0.791378
-0.0311679
0.82492
-0.0495657
0.859291
-0.0693788
0.901185
-0.0906656
0.950874
-0.113574
1.0074
-0.138413
1.0712
1.14019
-0.165033
0.00771291
0.383174
0.00422693
0.704053
-0.00792067
0.803526
-0.023375
0.840374
-0.0403589
0.876275
-0.0587252
0.919552
-0.0785285
0.970677
-0.0998913
1.02876
-0.123102
1.09441
1.16514
-0.148048
0.00975435
0.37342
0.00874313
0.705065
-0.00153167
0.8138
-0.015365
0.854207
-0.0309065
0.891816
-0.0477927
0.936438
-0.0660808
0.988965
-0.0858626
1.04855
-0.107409
1.11595
1.18837
-0.130636
0.0117742
0.361646
0.0133508
0.703488
0.00517239
0.821979
-0.00715282
0.866532
-0.0212194
0.905883
-0.0365938
0.951812
-0.0533373
1.00571
-0.0715044
1.06671
-0.0913488
1.1358
1.20984
-0.11282
0.0137475
0.347898
0.0180097
0.699226
0.0120035
0.827985
0.00123427
0.877302
-0.0113148
0.918432
-0.0251425
0.96564
-0.0403131
1.02088
-0.0568354
1.08324
-0.0749401
1.1539
1.22952
-0.0946209
0.015644
0.332254
0.0226849
0.692185
0.0189344
0.831735
0.00990602
0.88633
-0.00124809
0.929586
-0.0134576
0.977849
-0.0270246
1.03445
-0.0418768
1.09809
-0.0582012
1.17023
1.24738
-0.0760605
0.0174303
0.314824
0.0273393
0.682276
0.0259545
0.83312
0.0187154
0.893569
0.00919526
0.939106
-0.00158495
0.98863
-0.0134885
1.04635
-0.0266534
1.11125
-0.0411476
1.18472
1.2634
-0.0571672
0.0190697
0.295754
0.0319304
0.669415
0.0330358
0.832015
0.0276711
0.898934
0.0197846
0.946993
0.0106076
0.997807
0.000246746
1.05671
-0.0111995
1.1227
-0.0237985
1.19732
1.27756
-0.0379604
0.0205224
0.275232
0.0364099
0.653528
0.0401423
0.828282
0.0367525
0.902324
0.0305311
0.953214
0.0229712
1.00537
0.014317
1.06536
0.00450699
1.13251
-0.00615142
1.20798
1.28989
-0.0184861
0.0217457
0.253486
0.0407233
0.63455
0.0472303
0.821775
0.0459331
0.903621
0.0414283
0.957719
0.0355019
1.01129
0.0285407
1.07233
0.0205542
1.1405
0.0116147
1.21692
1.30025
0.0012566
0.0226961
0.23079
0.0448105
0.612436
0.0542468
0.812339
0.0551821
0.902686
0.052458
0.960443
0.0481898
1.01556
0.0429345
1.07758
0.0367402
1.14669
0.0296263
1.22403
1.30841
0.0214656
0.023333
0.207457
0.0486057
0.587163
0.0611345
0.79981
0.0644632
0.899357
0.0635975
0.961308
0.0610178
1.01814
0.0574802
1.08112
0.0530881
1.15108
0.0478724
1.22925
1.31453
0.0417542
0.0236228
0.183834
0.0520385
0.558747
0.0678423
0.784007
0.0737326
0.893467
0.0748199
0.960221
0.0739656
1.019
0.0721591
1.08293
0.0695842
1.15366
0.066289
1.23254
1.31864
0.0621825
0.0235445
0.16029
0.0550352
0.527257
0.0742904
0.764751
0.082936
0.884821
0.0860931
0.957064
0.0870108
1.01808
0.0869513
1.08298
0.0862028
1.15441
0.0848318
1.23391
1.32075
0.0827247
0.0230925
0.137197
0.0575241
0.492825
0.0803886
0.741887
0.0920069
0.873203
0.0973775
0.951694
0.100128
1.01533
0.101835
1.08128
0.102918
1.15332
0.103483
1.23335
1.32086
0.103364
0.0222787
0.114919
0.0594397
0.455664
0.0860325
0.715294
0.100866
0.858369
0.108623
0.943936
0.113287
1.01066
0.116786
1.07778
0.119706
1.1504
0.122221
1.23083
1.31895
0.124134
0.0211316
0.093787
0.0606026
0.416193
0.0911037
0.684793
0.109419
0.840054
0.119769
0.933586
0.12645
1.00398
0.13178
1.07245
0.136545
1.14564
0.141019
1.22636
1.31499
0.144983
0.0196945
0.0740925
0.0609263
0.374961
0.095476
0.650243
0.117549
0.817981
0.130736
0.920399
0.139574
0.995144
0.146787
1.06524
0.153409
1.13901
0.159846
1.21992
1.30896
0.165869
0.0180177
0.0560748
0.0603525
0.332626
0.0990111
0.611585
0.125116
0.791876
0.141427
0.904088
0.152601
0.98397
0.161771
1.05607
0.170271
1.13052
0.178675
1.21152
1.30088
0.186757
0.016154
0.0399208
0.0588414
0.289939
0.101557
0.56887
0.131957
0.761476
0.151721
0.884324
0.165459
0.970232
0.176692
1.04483
0.187099
1.12011
0.197476
1.20114
1.29075
0.207613
0.0141617
0.0257591
0.0563926
0.247708
0.102951
0.522311
0.137885
0.726542
0.16147
0.860739
0.178054
0.953648
0.191495
1.03139
0.203859
1.10774
0.21622
1.18878
1.27856
0.228407
0.012112
0.0136472
0.0530613
0.206759
0.10303
0.472343
0.142685
0.686887
0.170492
0.832932
0.190265
0.933874
0.206111
1.01554
0.220506
1.09335
0.234874
1.17441
1.26433
0.249104
0.0100921
0.00355508
0.0489654
0.167885
0.101641
0.419667
0.146119
0.642409
0.178566
0.800485
0.201932
0.910508
0.220447
0.99703
0.236989
1.07681
0.253402
1.158
1.24806
0.26967
0.00819749
-0.00464241
0.0442763
0.131806
0.0986581
0.365286
0.147932
0.593135
0.185424
0.762993
0.212852
0.883079
0.234378
0.975504
0.253241
1.05795
0.271761
1.13948
1.22975
0.290074
0.00650863
-0.011151
0.0391968
0.0991183
0.0940108
0.310472
0.147853
0.539293
0.190745
0.720101
0.222763
0.851061
0.247733
0.950535
0.269164
1.03651
0.289895
1.11875
1.20937
0.310272
0.00507007
-0.0162211
0.0339433
0.0702451
0.0877253
0.25669
0.145617
0.481401
0.194159
0.671559
0.231334
0.813886
0.260282
0.921586
0.284621
1.01218
0.30773
1.09564
1.18687
0.330229
0.00388222
-0.0201033
0.0287385
0.0453889
0.0799772
0.205451
0.140998
0.420381
0.195257
0.6173
0.238159
0.770984
0.271719
0.888027
0.299423
0.984471
0.325159
1.0699
1.16216
0.349871
0.00291387
-0.0230172
0.0238005
0.0245023
0.0711236
0.158128
0.133852
0.357653
0.193606
0.557546
0.24275
0.721839
0.281637
0.84914
0.313299
0.95281
0.342038
1.04116
1.13505
0.369151
0.00212481
-0.025142
0.0193142
0.00731292
0.0616635
0.115778
0.124204
0.295113
0.188798
0.492952
0.24454
0.666098
0.289511
0.804168
0.325881
0.916441
0.358117
1.00893
1.10525
0.387918
0.00148214
-0.0266242
0.0153988
-0.00660378
0.052144
0.0790332
0.112341
0.234916
0.180515
0.424778
0.242907
0.603705
0.294678
0.752398
0.336649
0.874469
0.37312
0.972456
1.07236
0.406003
0.000964329
-0.0275885
0.0120929
-0.0177323
0.0430758
0.0480503
0.0988571
0.179134
0.168638
0.354998
0.237231
0.535111
0.296339
0.69329
0.344937
0.825871
0.386424
0.930969
1.03548
0.423306
0.000557407
-0.0281459
0.00936639
-0.0265413
0.034865
0.0225516
0.0845982
0.129401
0.153388
0.286207
0.227006
0.461494
0.293548
0.626748
0.349905
0.769514
0.397501
0.883372
0.994292
0.438691
0.000250007
-0.0283959
0.00715272
-0.033444
0.0277517
0.00195267
0.0705004
0.0866523
0.135464
0.221244
0.21197
0.384989
0.285414
0.553303
0.35038
0.704549
0.405197
0.828555
0.945801
0.453689
3.1809e-05
-0.0284277
0.00537458
-0.0387868
0.0217924
-0.0144651
0.0573858
0.0510589
0.116032
0.162598
0.192401
0.308619
0.271071
0.474633
0.345682
0.629937
0.407205
0.767032
0.88991
0.463096
-0.000135194
-0.0282925
0.00395431
-0.0428763
0.0169027
-0.0274135
0.0457979
0.0221637
0.0965095
0.111886
0.169273
0.235856
0.250335
0.393571
0.333619
0.546654
0.405736
0.694915
0.833302
0.462344
-0.000244991
-0.0280475
0.0028174
-0.0459387
0.0129248
-0.0375209
0.0359449
-0.000856452
0.0782134
0.0696179
0.144203
0.169866
0.223924
0.31385
0.313048
0.457529
0.397197
0.610767
0.768324
0.462175
-0.000318916
-0.0277286
0.0018934
-0.048151
0.00967817
-0.0453057
0.0277572
-0.0189355
0.0620308
0.0353443
0.119058
0.112839
0.193544
0.239364
0.283992
0.367082
0.378573
0.516186
0.692886
0.454011
-0.00037725
-0.0273514
0.00111581
-0.0496441
0.0069862
-0.0511761
0.0209966
-0.0329459
0.0482706
0.00807035
0.0953688
0.0657409
0.161674
0.173058
0.247981
0.280775
0.348795
0.415372
0.606437
0.435243
-0.000436858
-0.0269145
0.000424748
-0.0505057
0.00468858
-0.0554399
0.0153552
-0.0436125
0.0367454
-0.0133198
0.0740458
0.0284405
0.130882
0.116222
0.207951
0.203705
0.308558
0.314765
0.510362
0.404633
-0.000510147
-0.0264044
-0.000231496
-0.0507843
0.00264909
-0.0583205
0.0105256
-0.051489
0.0270163
-0.0298106
0.0554734
-1.66299e-05
0.1029
0.0687958
0.167432
0.139174
0.260993
0.221205
0.408783
0.362572
-0.000608064
-0.0257963
-0.000894148
-0.0504982
0.000764811
-0.0599794
0.0062483
-0.0569725
0.0186313
-0.0421935
0.0396707
-0.021056
0.0782545
0.030212
0.129628
0.0878002
0.211026
0.139807
0.308544
0.311264
-0.000739815
-0.0250565
-0.00158194
-0.0496561
-0.00106212
-0.0604992
0.00232877
-0.0603634
0.0112505
-0.0511152
0.026333
-0.0361385
0.0567313
-0.000186266
0.0966485
0.047883
0.163296
0.0731595
0.217394
0.254446
-0.000905069
-0.0241514
-0.00230757
-0.0482536
-0.00287084
-0.059936
-0.00132284
-0.0619114
0.00463813
-0.0570762
0.0149505
-0.0464509
0.0379635
-0.0231993
0.0688906
0.0169559
0.120285
0.0217648
0.14108
0.1966
-0.00110136
-0.0230501
-0.00307122
-0.0462837