/*--------------------------------*- C++ -*----------------------------------*\
  =========                 |
  \\      /  F ield         | OpenFOAM: The Open Source CFD Toolbox
   \\    /   O peration     | Website:  https://openfoam.org
    \\  /    A nd           | Version:  9
     \\/     M anipulation  |
\*---------------------------------------------------------------------------*/
FoamFile
{
    format      ascii;
    class       volVectorField;
    location    "0.5";
    object      U;
}
// * * * * * * * * * * * * * * * * * * * * * * * * * * * * * * * * * * * * * //

dimensions      [0 1 -1 0 0 0 0];

internalField   nonuniform List<vector> 
1600
(
(6.04746e-05 -6.08198e-05 0)
(0.000154117 -5.59708e-05 0)
(0.000150238 -4.89886e-06 0)
(-6.49138e-06 5.47222e-05 0)
(-0.00032247 0.000109749 0)
(-0.000779916 0.000155694 0)
(-0.0013536 0.000191423 0)
(-0.00201631 0.000217189 0)
(-0.00274107 0.000233729 0)
(-0.00350219 0.000241904 0)
(-0.0042758 0.000242561 0)
(-0.00503994 0.000236493 0)
(-0.00577466 0.000224424 0)
(-0.00646198 0.000207018 0)
(-0.00708579 0.000184888 0)
(-0.00763189 0.000158615 0)
(-0.00808793 0.000128772 0)
(-0.00844344 9.59365e-05 0)
(-0.00868997 6.07172e-05 0)
(-0.00882114 2.37657e-05 0)
(-0.00883282 -1.42074e-05 0)
(-0.00872332 -5.24252e-05 0)
(-0.00849355 -9.00403e-05 0)
(-0.00814722 -0.000126138 0)
(-0.007691 -0.000159746 0)
(-0.00713461 -0.00018985 0)
(-0.00649089 -0.000215416 0)
(-0.00577579 -0.000235416 0)
(-0.00500821 -0.000248858 0)
(-0.00420983 -0.000254816 0)
(-0.00340474 -0.000252464 0)
(-0.002619 -0.000241102 0)
(-0.00188008 -0.000220191 0)
(-0.00121605 -0.000189408 0)
(-0.000654583 -0.000148766 0)
(-0.000221367 -9.89465e-05 0)
(6.23021e-05 -4.21311e-05 0)
(0.000185236 1.6167e-05 0)
(0.000163011 6.20745e-05 0)
(6.00029e-05 5.9757e-05 0)
(5.73573e-05 -0.000155787 0)
(6.47467e-05 -6.22065e-05 0)
(-0.000198824 0.000193494 0)
(-0.000808053 0.000488687 0)
(-0.00177375 0.000770545 0)
(-0.00306672 0.00101479 0)
(-0.00463679 0.0012111 0)
(-0.00642401 0.00135652 0)
(-0.00836511 0.00145175 0)
(-0.0103971 0.00149924 0)
(-0.0124595 0.00150228 0)
(-0.0144955 0.00146448 0)
(-0.0164524 0.00138957 0)
(-0.0182824 0.00128126 0)
(-0.0199423 0.00114323 0)
(-0.021394 0.000979128 0)
(-0.0226044 0.000792687 0)
(-0.0235456 0.000587739 0)
(-0.0241953 0.000368314 0)
(-0.024537 0.000138707 0)
(-0.0245604 -9.64761e-05 0)
(-0.0242616 -0.000332283 0)
(-0.0236442 -0.000563415 0)
(-0.0227187 -0.000784263 0)
(-0.0215036 -0.000988966 0)
(-0.0200254 -0.00117152 0)
(-0.0183182 -0.00132591 0)
(-0.0164244 -0.00144629 0)
(-0.0143932 -0.00152715 0)
(-0.0122807 -0.00156357 0)
(-0.0101487 -0.00155141 0)
(-0.00806291 -0.00148763 0)
(-0.00609143 -0.00137057 0)
(-0.00430225 -0.00120047 0)
(-0.00275988 -0.000980258 0)
(-0.00152089 -0.000717205 0)
(-0.000627152 -0.000426131 0)
(-9.49469e-05 -0.000135312 0)
(0.000103953 0.00010021 0)
(6.35654e-05 0.000163247 0)
(8.95882e-06 -0.000156329 0)
(-0.000185222 0.000198815 0)
(-0.000836655 0.000842452 0)
(-0.00198549 0.0015658 0)
(-0.0036278 0.0022628 0)
(-0.00572433 0.00287582 0)
(-0.00820823 0.00337551 0)
(-0.0109974 0.00374965 0)
(-0.0140029 0.00399593 0)
(-0.0171346 0.00411763 0)
(-0.0203039 0.00412121 0)
(-0.0234269 0.00401483 0)
(-0.0264247 0.00380757 0)
(-0.0292253 0.00350895 0)
(-0.0317632 0.00312876 0)
(-0.0339805 0.00267706 0)
(-0.035827 0.00216416 0)
(-0.0372605 0.00160084 0)
(-0.0382474 0.000998411 0)
(-0.0387631 0.000368909 0)
(-0.0387925 -0.000274842 0)
(-0.0383307 -0.000919168 0)
(-0.0373832 -0.00154957 0)
(-0.0359671 -0.00215082 0)
(-0.0341108 -0.00270718 0)
(-0.0318545 -0.00320264 0)
(-0.0292502 -0.00362134 0)
(-0.0263612 -0.00394801 0)
(-0.0232612 -0.00416851 0)
(-0.0200335 -0.00427046 0)
(-0.0167689 -0.0042439 0)
(-0.0135637 -0.00408216 0)
(-0.0105164 -0.00378279 0)
(-0.00772421 -0.00334899 0)
(-0.00527778 -0.00279164 0)
(-0.00325514 -0.0021329 0)
(-0.00171271 -0.00141222 0)
(-0.000673594 -0.000695802 0)
(-0.000118684 -9.41566e-05 0)
(2.14465e-05 0.00019099 0)
(-4.89114e-05 -7.20217e-06 0)
(-0.000482603 0.000807388 0)
(-0.00157909 0.00199394 0)
(-0.00331341 0.00327987 0)
(-0.00565059 0.00451138 0)
(-0.00853591 0.00559682 0)
(-0.0118862 0.00648495 0)
(-0.0156008 0.00715134 0)
(-0.0195711 0.00758848 0)
(-0.0236856 0.00779935 0)
(-0.0278344 0.00779338 0)
(-0.031912 0.00758388 0)
(-0.0358189 0.0071865 0)
(-0.0394635 0.00661827 0)
(-0.0427623 0.00589716 0)
(-0.0456414 0.00504188 0)
(-0.0480367 0.00407193 0)
(-0.0498943 0.00300772 0)
(-0.0511713 0.0018708 0)
(-0.0518367 0.000683976 0)
(-0.0518715 -0.000528479 0)
(-0.0512698 -0.00174083 0)
(-0.0500394 -0.00292591 0)
(-0.0482023 -0.00405538 0)
(-0.0457951 -0.00510007 0)
(-0.0428693 -0.00603051 0)
(-0.039491 -0.00681767 0)
(-0.0357402 -0.0074338 0)
(-0.0317103 -0.00785346 0)
(-0.0275058 -0.0080547 0)
(-0.0232407 -0.00802038 0)
(-0.019035 -0.00773972 0)
(-0.015011 -0.00721015 0)
(-0.0112888 -0.00643974 0)
(-0.00798003 -0.00545053 0)
(-0.00518138 -0.00428375 0)
(-0.00296472 -0.0030077 0)
(-0.00136647 -0.00172869 0)
(-0.000393384 -0.000609125 0)
(-3.14029e-05 8.31845e-05 0)
(-0.000104934 0.000304332 0)
(-0.000783994 0.00179268 0)
(-0.00234365 0.00367419 0)
(-0.00468056 0.00563796 0)
(-0.00771831 0.00749464 0)
(-0.0113807 0.00912412 0)
(-0.0155659 0.010455 0)
(-0.0201554 0.0114507 0)
(-0.0250229 0.0120978 0)
(-0.0300396 0.0123985 0)
(-0.0350781 0.012365 0)
(-0.0400156 0.0120162 0)
(-0.0447361 0.0113749 0)
(-0.0491324 0.0104669 0)
(-0.0531066 0.00931982 0)
(-0.0565718 0.0079627 0)
(-0.0594526 0.00642615 0)
(-0.0616856 0.00474235 0)
(-0.0632206 0.00294528 0)
(-0.0640209 0.00107094 0)
(-0.0640646 -0.000842501 0)
(-0.0633447 -0.00275466 0)
(-0.0618707 -0.0046231 0)
(-0.0596683 -0.00640369 0)
(-0.0567805 -0.00805117 0)
(-0.0532675 -0.00952003 0)
(-0.0492065 -0.0107656 0)
(-0.0446911 -0.0117453 0)
(-0.0398299 -0.0124206 0)
(-0.0347448 -0.0127583 0)
(-0.0295682 -0.012733 0)
(-0.0244395 -0.0123295 0)
(-0.0195011 -0.0115454 0)
(-0.0148926 -0.0103944 0)
(-0.010745 -0.00891104 0)
(-0.00717399 -0.00715653 0)
(-0.00427006 -0.00522753 0)
(-0.00208941 -0.00326673 0)
(-0.000675389 -0.00147883 0)
(-8.31068e-05 -0.000175767 0)
(-0.0001561 0.000771722 0)
(-0.00107295 0.003155 0)
(-0.00309251 0.00588977 0)
(-0.00603062 0.00864642 0)
(-0.00976434 0.0112123 0)
(-0.0141914 0.0134463 0)
(-0.0191884 0.0152612 0)
(-0.0246177 0.0166099 0)
(-0.0303363 0.0174743 0)
(-0.0361995 0.0178561 0)
(-0.0420651 0.0177709 0)
(-0.047796 0.0172434 0)
(-0.0532627 0.0163046 0)
(-0.0583451 0.0149899 0)
(-0.062934 0.0133377 0)
(-0.0669319 0.0113889 0)
(-0.0702544 0.00918657 0)
(-0.0728303 0.00677646 0)
(-0.0746033 0.00420673 0)
(-0.0755322 0.00152843 0)
(-0.075592 -0.00120437 0)
(-0.0747749 -0.00393462 0)
(-0.0730908 -0.00660252 0)
(-0.0705683 -0.00914598 0)
(-0.0672548 -0.0115015 0)
(-0.0632172 -0.0136054 0)
(-0.0585412 -0.0153952 0)
(-0.0533308 -0.0168118 0)
(-0.0477071 -0.0178014 0)
(-0.041806 -0.0183182 0)
(-0.0357756 -0.0183276 0)
(-0.0297722 -0.0178087 0)
(-0.023956 -0.0167589 0)
(-0.0184855 -0.0151974 0)
(-0.0135111 -0.0131707 0)
(-0.00916959 -0.0107591 0)
(-0.00557367 -0.00808487 0)
(-0.00280454 -0.00532172 0)
(-0.000947682 -0.00270718 0)
(-0.000130335 -0.000580801 0)
(-0.000202297 0.00138449 0)
(-0.00134494 0.00488225 0)
(-0.00381123 0.0086318 0)
(-0.00733916 0.0122979 0)
(-0.0117578 0.0156551 0)
(-0.0169358 0.0185489 0)
(-0.0227256 0.0208814 0)
(-0.0289695 0.0225986 0)
(-0.0355069 0.0236797 0)
(-0.0421784 0.0241273 0)
(-0.0488279 0.0239614 0)
(-0.055306 0.0232136 0)
(-0.061472 0.0219239 0)
(-0.0671952 0.0201382 0)
(-0.0723571 0.0179067 0)
(-0.0768519 0.0152832 0)
(-0.0805875 0.0123247 0)
(-0.0834866 0.00909148 0)
(-0.0854877 0.00564741 0)
(-0.0865455 0.00205999 0)
(-0.0866324 -0.00159939 0)
(-0.0857389 -0.00525542 0)
(-0.0838748 -0.0088293 0)
(-0.0810701 -0.0122393 0)
(-0.0773751 -0.0154019 0)
(-0.0728611 -0.0182335 0)
(-0.0676203 -0.0206519 0)
(-0.0617649 -0.0225794 0)
(-0.0554258 -0.0239455 0)
(-0.048751 -0.02469 0)
(-0.0419023 -0.0247671 0)
(-0.0350517 -0.0241494 0)
(-0.0283767 -0.0228324 0)
(-0.0220546 -0.0208395 0)
(-0.0162573 -0.0182276 0)
(-0.0111447 -0.0150935 0)
(-0.00685547 -0.0115818 0)
(-0.00349933 -0.00789177 0)
(-0.0012061 -0.0042863 0)
(-0.000172915 -0.00112268 0)
(-0.000244403 0.00213261 0)
(-0.00160082 0.0069588 0)
(-0.00449778 0.011885 0)
(-0.00860019 0.0165784 0)
(-0.0136896 0.0208089 0)
(-0.0196042 0.0244156 0)
(-0.0261707 0.0272955 0)
(-0.0332096 0.0293919 0)
(-0.0405426 0.0306841 0)
(-0.0479951 0.031178 0)
(-0.0553985 0.0308994 0)
(-0.062592 0.0298882 0)
(-0.0694249 0.0281945 0)
(-0.0757582 0.0258758 0)
(-0.0814654 0.0229951 0)
(-0.0864338 0.0196199 0)
(-0.0905655 0.015822 0)
(-0.093778 0.0116773 0)
(-0.0960051 0.00726619 0)
(-0.097198 0.00267358 0)
(-0.0973261 -0.00201068 0)
(-0.0963778 -0.00669196 0)
(-0.0943621 -0.0112712 0)
(-0.0913088 -0.0156458 0)
(-0.0872695 -0.0197108 0)
(-0.0823183 -0.0233607 0)
(-0.0765515 -0.0264922 0)
(-0.0700877 -0.0290072 0)
(-0.0630659 -0.0308163 0)
(-0.0556444 -0.0318429 0)
(-0.0479979 -0.0320281 0)
(-0.0403132 -0.0313356 0)
(-0.0327856 -0.029757 0)
(-0.0256127 -0.0273176 0)
(-0.0189893 -0.024082 0)
(-0.0131014 -0.0201609 0)
(-0.00811644 -0.0157171 0)
(-0.00417536 -0.0109712 0)
(-0.00145274 -0.00620627 0)
(-0.000211884 -0.00179309 0)
(-0.000283471 0.00300779 0)
(-0.00184346 0.00936962 0)
(-0.00515585 0.0156332 0)
(-0.00981713 0.0214725 0)
(-0.0155628 0.0266589 0)
(-0.0222 0.0310315 0)
(-0.0295287 0.0344872 0)
(-0.0373467 0.0369711 0)
(-0.0454573 0.038466 0)
(-0.0536709 0.038984 0)
(-0.0618063 0.038559 0)
(-0.0696924 0.0372408 0)
(-0.0771699 0.0350908 0)
(-0.0840921 0.0321794 0)
(-0.0903264 0.0285831 0)
(-0.0957545 0.0243841 0)
(-0.100274 0.0196696 0)
(-0.103797 0.0145317 0)
(-0.106254 0.00906802 0)
(-0.107592 0.00338144 0)
(-0.107779 -0.00241916 0)
(-0.106799 -0.00821909 0)
(-0.10466 -0.0138982 0)
(-0.10139 -0.019332 0)
(-0.09704 -0.0243927 0)
(-0.0916855 -0.0289518 0)
(-0.0854252 -0.0328831 0)
(-0.0783817 -0.0360659 0)
(-0.070701 -0.0383897 0)
(-0.0625505 -0.0397591 0)
(-0.0541166 -0.0400995 0)
(-0.0456016 -0.0393628 0)
(-0.037219 -0.0375339 0)
(-0.0291882 -0.0346366 0)
(-0.0217291 -0.0307405 0)
(-0.0150565 -0.0259664 0)
(-0.00936913 -0.0204923 0)
(-0.00484129 -0.0145565 0)
(-0.00169232 -0.00845995 0)
(-0.000248612 -0.00258622 0)
(-0.00032045 0.00400371 0)
(-0.00207616 0.0121021 0)
(-0.00579126 0.0198616 0)
(-0.0109976 0.0269656 0)
(-0.0173861 0.0331914 0)
(-0.024733 0.0383831 0)
(-0.0328107 0.0424425 0)
(-0.0413941 0.0453209 0)
(-0.0502674 0.0470088 0)
(-0.0592259 0.0475274 0)
(-0.0680761 0.0469213 0)
(-0.0766373 0.0452523 0)
(-0.0847423 0.0425948 0)
(-0.0922383 0.039033 0)
(-0.0989872 0.0346581 0)
(-0.104866 0.0295677 0)
(-0.109769 0.0238647 0)
(-0.113605 0.0176581 0)
(-0.1163 0.0110625 0)
(-0.117799 0.00419932 0)
(-0.118064 -0.00280336 0)
(-0.117078 -0.00981047 0)
(-0.114845 -0.0166803 0)
(-0.11139 -0.0232657 0)
(-0.106763 -0.0294151 0)
(-0.101038 -0.0349758 0)
(-0.094314 -0.0397965 0)
(-0.0867166 -0.043732 0)
(-0.0783966 -0.0466484 0)
(-0.0695297 -0.0484283 0)
(-0.0603138 -0.048978 0)
(-0.0509664 -0.0482342 0)
(-0.0417202 -0.0461713 0)
(-0.0328182 -0.0428083 0)
(-0.0245076 -0.0382156 0)
(-0.0170346 -0.0325209 0)
(-0.0106319 -0.0259144 0)
(-0.00550897 -0.0186499 0)
(-0.00193048 -0.0110454 0)
(-0.000284461 -0.00349937 0)
(-0.000356124 0.00511597 0)
(-0.00230207 0.0151466 0)
(-0.00641025 0.0245584 0)
(-0.0121505 0.0330453 0)
(-0.0191704 0.040394 0)
(-0.0272153 0.0464578 0)
(-0.03603 0.0511485 0)
(-0.0453659 0.0544279 0)
(-0.054988 0.0562981 0)
(-0.0646764 0.056793 0)
(-0.0742258 0.0559707 0)
(-0.0834464 0.0539073 0)
(-0.092164 0.0506923 0)
(-0.100221 0.0464248 0)
(-0.107474 0.0412118 0)
(-0.113798 0.0351666 0)
(-0.119084 0.0284086 0)
(-0.123236 0.0210632 0)
(-0.12618 0.0132625 0)
(-0.127856 0.00514594 0)
(-0.128222 -0.00313924 0)
(-0.127258 -0.0114376 0)
(-0.124963 -0.0195858 0)
(-0.121358 -0.0274135 0)
(-0.11649 -0.0347448 0)
(-0.110428 -0.0414012 0)
(-0.103272 -0.0472049 0)
(-0.0951466 -0.0519838 0)
(-0.0862073 -0.0555773 0)
(-0.076636 -0.0578428 0)
(-0.0666416 -0.0586638 0)
(-0.0564569 -0.0579574 0)
(-0.046335 -0.055683 0)
(-0.0365436 -0.0518502 0)
(-0.0273599 -0.0465263 0)
(-0.0190641 -0.0398423 0)
(-0.0119257 -0.0319977 0)
(-0.00619144 -0.0232608 0)
(-0.00217302 -0.0139667 0)
(-0.000320694 -0.00453301 0)
(-0.000391116 0.00634179 0)
(-0.00252392 0.0184965 0)
(-0.00701869 0.0297146 0)
(-0.0132847 0.0397015 0)
(-0.0209266 0.0482559 0)
(-0.0296591 0.0552445 0)
(-0.0391992 0.0605932 0)
(-0.0492745 0.0642788 0)
(-0.0596309 0.0663195 0)
(-0.0700333 0.0667655 0)
(-0.0802651 0.0656916 0)
(-0.090128 0.0631908 0)
(-0.0994422 0.0593694 0)
(-0.108045 0.0543434 0)
(-0.115792 0.0482363 0)
(-0.122555 0.0411777 0)
(-0.128221 0.0333035 0)
(-0.132696 0.0247554 0)
(-0.1359 0.0156826 0)
(-0.137771 0.00624211 0)
(-0.138264 -0.00340028 0)
(-0.137352 -0.0130692 0)
(-0.13503 -0.02258 0)
(-0.131313 -0.031739 0)
(-0.126243 -0.0403453 0)
(-0.119884 -0.0481937 0)
(-0.112331 -0.0550781 0)
(-0.103709 -0.0607969 0)
(-0.0941739 -0.0651597 0)
(-0.0839131 -0.0679948 0)
(-0.0731455 -0.069158 0)
(-0.0621191 -0.0685419 0)
(-0.0511077 -0.0660857 0)
(-0.0404056 -0.0617845 0)
(-0.0303221 -0.0556976 0)
(-0.0211745 -0.0479556 0)
(-0.013272 -0.0387646 0)
(-0.00690191 -0.0284063 0)
(-0.0024256 -0.0172346 0)
(-0.000358461 -0.00569075 0)
(-0.000425917 0.00767976 0)
(-0.00274404 0.0221478 0)
(-0.00762172 0.0353244 0)
(-0.0144079 0.0469267 0)
(-0.0226645 0.0567682 0)
(-0.0320751 0.0647324 0)
(-0.0423288 0.070764 0)
(-0.053129 0.0748594 0)
(-0.0642027 0.0770569 0)
(-0.0753001 0.0774273 0)
(-0.0861938 0.0760656 0)
(-0.0966782 0.0730846 0)
(-0.106569 0.0686097 0)
(-0.1157 0.0627751 0)
(-0.123925 0.0557217 0)
(-0.131116 0.0475962 0)
(-0.13716 0.0385505 0)
(-0.141959 0.0287427 0)
(-0.145434 0.0183379 0)
(-0.147518 0.00750994 0)
(-0.148163 -0.00355774 0)
(-0.147337 -0.0146709 0)
(-0.145027 -0.0256239 0)
(-0.141243 -0.0362004 0)
(-0.136016 -0.0461744 0)
(-0.129406 -0.0553128 0)
(-0.1215 -0.0633795 0)
(-0.11242 -0.0701411 0)
(-0.102321 -0.0753737 0)
(-0.0913919 -0.078872 0)
(-0.0798616 -0.0804588 0)
(-0.0679922 -0.0799964 0)
(-0.0560785 -0.0773977 0)
(-0.0444429 -0.072637 0)
(-0.0334292 -0.0657603 0)
(-0.0233946 -0.0568932 0)
(-0.0146922 -0.0462456 0)
(-0.00765329 -0.0341118 0)
(-0.00269362 -0.0208664 0)
(-0.000398822 -0.0069791 0)
(-0.000460918 0.00912961 0)
(-0.00296438 0.026099 0)
(-0.00822383 0.0413845 0)
(-0.0155271 0.0547155 0)
(-0.0243926 0.0659229 0)
(-0.0344721 0.0749109 0)
(-0.0454263 0.0816471 0)
(-0.0569345 0.0861526 0)
(-0.0687047 0.0884906 0)
(-0.0804728 0.0887565 0)
(-0.0920017 0.0870696 0)
(-0.10308 0.0835655 0)
(-0.113519 0.078391 0)
(-0.123152 0.0717004 0)
(-0.131835 0.063653 0)
(-0.139437 0.0544126 0)
(-0.145848 0.0441472 0)
(-0.150971 0.0330302 0)
(-0.154723 0.021242 0)
(-0.157038 0.00897166 0)
(-0.157861 -0.00358117 0)
(-0.157156 -0.0162046 0)
(-0.154902 -0.0286737 0)
(-0.151099 -0.0407498 0)
(-0.14577 -0.052182 0)
(-0.138965 -0.0627091 0)
(-0.130761 -0.0720634 0)
(-0.121273 -0.0799769 0)
(-0.110651 -0.0861886 0)
(-0.0990862 -0.0904545 0)
(-0.0868126 -0.0925588 0)
(-0.0741057 -0.0923263 0)
(-0.0612811 -0.0896362 0)
(-0.0486901 -0.0844353 0)
(-0.0367134 -0.0767494 0)
(-0.0257519 -0.0666937 0)
(-0.0162065 -0.0544787 0)
(-0.00845799 -0.0404103 0)
(-0.00298227 -0.0248853 0)
(-0.000442773 -0.00840736 0)
(-0.000496451 0.010692 0)
(-0.00318666 0.0303505 0)
(-0.00882903 0.0478938 0)
(-0.0166484 0.0630644 0)
(-0.0261181 0.075713 0)
(-0.036857 0.0857685 0)
(-0.0484966 0.0932264 0)
(-0.0606917 0.0981374 0)
(-0.0731314 0.100595 0)
(-0.0855384 0.100724 0)
(-0.097667 0.0986723 0)
(-0.109301 0.0946014 0)
(-0.12025 0.0886824 0)
(-0.13035 0.0810912 0)
(-0.139457 0.0720067 0)
(-0.147445 0.0616099 0)
(-0.154205 0.0500845 0)
(-0.159642 0.0376183 0)
(-0.163674 0.0244054 0)
(-0.166232 0.0106482 0)
(-0.16726 -0.00343921 0)
(-0.166712 -0.0176295 0)
(-0.164562 -0.0316799 0)
(-0.160798 -0.0453313 0)
(-0.155431 -0.0583085 0)
(-0.148497 -0.0703219 0)
(-0.140063 -0.0810713 0)
(-0.130231 -0.0902516 0)
(-0.119144 -0.0975608 0)
(-0.10699 -0.102711 0)
(-0.0940053 -0.105441 0)
(-0.0804769 -0.105529 0)
(-0.0667401 -0.102815 0)
(-0.0531757 -0.0972065 0)
(-0.0402033 -0.0887027 0)
(-0.0282715 -0.0774015 0)
(-0.0178342 -0.0635095 0)
(-0.00932794 -0.0473424 0)
(-0.00329654 -0.0293209 0)
(-0.000491277 -0.00998746 0)
(-0.000532822 0.0123684 0)
(-0.00341252 0.0349047 0)
(-0.00944112 0.0548536 0)
(-0.0177775 0.0719713 0)
(-0.0278476 0.0861314 0)
(-0.0392354 0.0972919 0)
(-0.051542 0.105482 0)
(-0.0643972 0.110787 0)
(-0.0774716 0.113337 0)
(-0.0904757 0.113292 0)
(-0.103156 0.110832 0)
(-0.115295 0.106149 0)
(-0.126704 0.0994405 0)
(-0.13722 0.0909071 0)
(-0.146705 0.0807476 0)
(-0.155039 0.0691603 0)
(-0.162118 0.0563441 0)
(-0.16785 0.0424998 0)
(-0.172156 0.0278329 0)
(-0.174966 0.0125576 0)
(-0.17622 -0.00310082 0)
(-0.175868 -0.0189019 0)
(-0.173872 -0.0345876 0)
(-0.170211 -0.0498804 0)
(-0.164879 -0.0644825 0)
(-0.157898 -0.0780766 0)
(-0.149318 -0.0903291 0)
(-0.139225 -0.100896 0)
(-0.12775 -0.10943 0)
(-0.115072 -0.115594 0)
(-0.101426 -0.119073 0)
(-0.0871076 -0.119593 0)
(-0.0724691 -0.116939 0)
(-0.0579207 -0.110974 0)
(-0.043923 -0.101658 0)
(-0.0309761 -0.0890647 0)
(-0.0195935 -0.0733894 0)
(-0.0102746 -0.0549555 0)
(-0.00364132 -0.0342082 0)
(-0.000545291 -0.0117339 0)
(-0.000570358 0.0141611 0)
(-0.00364372 0.039766 0)
(-0.0100642 0.062267 0)
(-0.0189206 0.0814354 0)
(-0.0295877 0.0971708 0)
(-0.0416121 0.109466 0)
(-0.0545627 0.118388 0)
(-0.0680438 0.124067 0)
(-0.0817079 0.126673 0)
(-0.0952542 0.126409 0)
(-0.108425 0.123491 0)
(-0.121002 0.118148 0)
(-0.1328 0.110607 0)
(-0.143664 0.101092 0)
(-0.153464 0.0898254 0)
(-0.162088 0.0770222 0)
(-0.16944 0.0628952 0)
(-0.175435 0.0476566 0)
(-0.179997 0.0315216 0)
(-0.183059 0.0147125 0)
(-0.184558 -0.00253683 0)
(-0.184438 -0.0199764 0)
(-0.182652 -0.0373363 0)
(-0.179164 -0.0543236 0)
(-0.173953 -0.0706202 0)
(-0.167022 -0.0858827 0)
(-0.158398 -0.0997443 0)
(-0.148148 -0.11182 0)
(-0.136384 -0.121715 0)
(-0.123271 -0.129035 0)
(-0.109038 -0.133406 0)
(-0.0939808 -0.134488 0)
(-0.0784678 -0.132004 0)
(-0.0629368 -0.125755 0)
(-0.0478907 -0.115653 0)
(-0.0338856 -0.101733 0)
(-0.0215012 -0.0841749 0)
(-0.0113091 -0.0633033 0)
(-0.00402153 -0.039588 0)
(-0.000605808 -0.0136639 0)
(-0.000609459 0.0160736 0)
(-0.00388241 0.0449407 0)
(-0.0107033 0.0701396 0)
(-0.0200849 0.091457 0)
(-0.031346 0.108823 0)
(-0.0439923 0.12227 0)
(-0.0575582 0.131913 0)
(-0.0716215 0.137932 0)
(-0.0858172 0.140547 0)
(-0.0998349 0.140008 0)
(-0.113415 0.136578 0)
(-0.126341 0.130522 0)
(-0.138438 0.122102 0)
(-0.149561 0.111571 0)
(-0.159591 0.0991709 0)
(-0.168428 0.0851357 0)
(-0.175989 0.0696907 0)
(-0.182197 0.0530573 0)
(-0.186985 0.0354573 0)
(-0.190287 0.017118 0)
(-0.192041 -0.00172201 0)
(-0.192187 -0.0208075 0)
(-0.190666 -0.039861 0)
(-0.187429 -0.0585781 0)
(-0.182437 -0.076624 0)
(-0.175667 -0.0936316 0)
(-0.167124 -0.109202 0)
(-0.156847 -0.12291 0)
(-0.144922 -0.134307 0)
(-0.131493 -0.142941 0)
(-0.116774 -0.148365 0)
(-0.101057 -0.150165 0)
(-0.0847193 -0.147985 0)
(-0.0682246 -0.141554 0)
(-0.0521182 -0.130716 0)
(-0.0370164 -0.115457 0)
(-0.023573 -0.0959263 0)
(-0.0124426 -0.0724454 0)
(-0.0044422 -0.0455064 0)
(-0.000673883 -0.0157969 0)
(-0.000650663 0.0181103 0)
(-0.00413143 0.0504382 0)
(-0.0113649 0.0784796 0)
(-0.02128 0.102038 0)
(-0.0331327 0.121078 0)
(-0.0463832 0.135681 0)
(-0.0605281 0.146017 0)
(-0.075118 0.152325 0)
(-0.0897709 0.154886 0)
(-0.10417 0.154005 0)
(-0.118055 0.149997 0)
(-0.131219 0.143171 0)
(-0.143498 0.133825 0)
(-0.154763 0.122244 0)
(-0.164912 0.108692 0)
(-0.173861 0.0934193 0)
(-0.181543 0.0766636 0)
(-0.187895 0.0586527 0)
(-0.192859 0.0396116 0)
(-0.196377 0.0197687 0)
(-0.198387 -0.000637526 0)
(-0.198825 -0.0213514 0)
(-0.197626 -0.0420932 0)
(-0.194723 -0.0625521 0)
(-0.190057 -0.0823817 0)
(-0.183579 -0.101195 0)
(-0.175264 -0.118564 0)
(-0.165117 -0.134022 0)
(-0.153191 -0.147069 0)
(-0.139599 -0.157184 0)
(-0.124532 -0.163843 0)
(-0.108268 -0.166545 0)
(-0.0911866 -0.164838 0)
(-0.0737712 -0.15836 0)
(-0.0566094 -0.146868 0)
(-0.0403815 -0.130282 0)
(-0.0258236 -0.108705 0)
(-0.0136861 -0.0824461 0)
(-0.00490869 -0.052015 0)
(-0.000750686 -0.0181555 0)
(-0.000694731 0.0202774 0)
(-0.00439476 0.0562714 0)
(-0.0120581 0.0872994 0)
(-0.0225191 0.113182 0)
(-0.0349619 0.133926 0)
(-0.0487948 0.149669 0)
(-0.0634734 0.160648 0)
(-0.0785194 0.167173 0)
(-0.0935354 0.169597 0)
(-0.1082 0.168291 0)
(-0.12226 0.163627 0)
(-0.13552 0.155965 0)
(-0.147834 0.145645 0)
(-0.159094 0.132983 0)
(-0.16922 0.118268 0)
(-0.178151 0.101766 0)
(-0.18584 0.0837234 0)
(-0.192241 0.0643728 0)
(-0.197311 0.0439385 0)
(-0.201001 0.0226452 0)
(-0.203254 0.000726162 0)
(-0.204005 -0.0215685 0)
(-0.203179 -0.0439629 0)
(-0.200697 -0.0661465 0)
(-0.196475 -0.0877672 0)
(-0.190437 -0.108424 0)
(-0.18252 -0.127664 0)
(-0.172692 -0.144982 0)
(-0.160963 -0.159825 0)
(-0.147404 -0.1716 0)
(-0.13217 -0.179697 0)
(-0.115514 -0.183513 0)
(-0.0978076 -0.182485 0)
(-0.0795471 -0.176135 0)
(-0.0613587 -0.164114 0)
(-0.0439894 -0.146247 0)
(-0.0282667 -0.122574 0)
(-0.0150512 -0.0933744 0)
(-0.00542685 -0.0591708 0)
(-0.000837557 -0.0207649 0)
(-0.000742763 0.0225838 0)
(-0.00467802 0.0624585 0)
(-0.0127957 0.0966166 0)
(-0.0238205 0.124897 0)
(-0.0368534 0.147354 0)
(-0.0512423 0.164196 0)
(-0.0663972 0.175741 0)
(-0.0818104 0.182385 0)
(-0.0970707 0.184565 0)
(-0.111857 0.182728 0)
(-0.125928 0.177315 0)
(-0.139107 0.168743 0)
(-0.151272 0.157397 0)
(-0.162345 0.143627 0)
(-0.172272 0.127747 0)
(-0.181022 0.110037 0)
(-0.188572 0.0907518 0)
(-0.1949 0.070123 0)
(-0.199981 0.0483707 0)
(-0.203779 0.0257111 0)
(-0.206246 0.00236604 0)
(-0.207317 -0.0214264 0)
(-0.206912 -0.0454012 0)
(-0.204936 -0.0692562 0)
(-0.201285 -0.0926412 0)
(-0.195849 -0.115149 0)
(-0.188528 -0.136308 0)
(-0.179241 -0.15558 0)
(-0.167946 -0.172357 0)
(-0.154662 -0.185977 0)
(-0.139493 -0.195734 0)
(-0.122653 -0.200909 0)
(-0.10449 -0.200808 0)
(-0.0855026 -0.194813 0)
(-0.066349 -0.182436 0)
(-0.0478439 -0.163379 0)
(-0.0309151 -0.137592 0)
(-0.0165502 -0.105303 0)
(-0.00600337 -0.0670365 0)
(-0.000936093 -0.0236539 0)
(-0.000796347 0.0250413 0)
(-0.00498921 0.0690252 0)
(-0.0135954 0.106456 0)
(-0.0252102 0.137193 0)
(-0.0388347 0.161349 0)
(-0.0537468 0.179216 0)
(-0.0693057 0.191215 0)
(-0.0849735 0.197845 0)
(-0.100329 0.199642 0)
(-0.115057 0.197145 0)
(-0.128935 0.190873 0)
(-0.141815 0.181307 0)
(-0.153608 0.16888 0)
(-0.164269 0.15398 0)
(-0.173783 0.136943 0)
(-0.182152 0.118063 0)
(-0.189383 0.0975993 0)
(-0.195485 0.0757802 0)
(-0.200453 0.0528163 0)
(-0.204272 0.0289091 0)
(-0.206902 0.00426315 0)
(-0.208286 -0.020903 0)
(-0.208339 -0.0463436 0)
(-0.206954 -0.0717731 0)
(-0.204005 -0.0968532 0)
(-0.19935 -0.12118 0)
(-0.192844 -0.144272 0)
(-0.184354 -0.165564 0)
(-0.173776 -0.184404 0)
(-0.161061 -0.200053 0)
(-0.14625 -0.211707 0)
(-0.129495 -0.218518 0)
(-0.111105 -0.219639 0)
(-0.0915629 -0.214282 0)
(-0.071549 -0.201784 0)
(-0.0519429 -0.181687 0)
(-0.0337812 -0.153811 0)
(-0.0181973 -0.118306 0)
(-0.00664619 -0.0756813 0)
(-0.00104826 -0.026855 0)
(-0.000857783 0.027667 0)
(-0.00533964 0.0760075 0)
(-0.0144823 0.116854 0)
(-0.0267234 0.150087 0)
(-0.0409434 0.175892 0)
(-0.0563372 0.194671 0)
(-0.0722075 0.206967 0)
(-0.087987 0.213406 0)
(-0.10325 0.214646 0)
(-0.117696 0.211331 0)
(-0.131132 0.20407 0)
(-0.143447 0.193413 0)
(-0.154596 0.179849 0)
(-0.164578 0.1638 0)
(-0.173421 0.145627 0)
(-0.181169 0.125635 0)
(-0.187867 0.104082 0)
(-0.193555 0.0811909 0)
(-0.198258 0.0571557 0)
(-0.201981 0.0321586 0)
(-0.204704 0.00637924 0)
(-0.206374 -0.0199906 0)
(-0.206908 -0.0467333 0)
(-0.206191 -0.07359 0)
(-0.204076 -0.100245 0)
(-0.200389 -0.126309 0)
(-0.194939 -0.151303 0)
(-0.187535 -0.174647 0)
(-0.178001 -0.195649 0)
(-0.16621 -0.213503 0)
(-0.152115 -0.227301 0)
(-0.13579 -0.236055 0)
(-0.117476 -0.238744 0)
(-0.0976211 -0.234375 0)
(-0.076909 -0.222068 0)
(-0.0562774 -0.201154 0)
(-0.0368772 -0.171275 0)
(-0.0200086 -0.132462 0)
(-0.00736519 -0.0851812 0)
(-0.00117658 -0.0304055 0)
(-0.000930395 0.0304849 0)
(-0.00574528 0.0834557 0)
(-0.0154908 0.12786 0)
(-0.0284081 0.163602 0)
(-0.043229 0.190964 0)
(-0.0590497 0.210485 0)
(-0.0751114 0.222864 0)
(-0.0908203 0.228885 0)
(-0.105755 0.229348 0)
(-0.119642 0.225024 0)
(-0.13233 0.21662 0)
(-0.14376 0.204767 0)
(-0.153942 0.190008 0)
(-0.162927 0.172802 0)
(-0.170798 0.15353 0)
(-0.177645 0.132506 0)
(-0.183556 0.109982 0)
(-0.18861 0.0861689 0)
(-0.192865 0.0612407 0)
(-0.196351 0.0353528 0)
(-0.199067 0.00865392 0)
(-0.200976 -0.0186993 0)
(-0.201998 -0.0465262 0)
(-0.202014 -0.0746052 0)
(-0.20086 -0.102655 0)
(-0.198333 -0.130315 0)
(-0.194196 -0.157124 0)
(-0.188196 -0.182501 0)
(-0.18008 -0.205727 0)
(-0.169624 -0.225939 0)
(-0.156679 -0.242127 0)
(-0.141212 -0.253157 0)
(-0.12337 -0.257811 0)
(-0.10353 -0.254855 0)
(-0.082356 -0.243142 0)
(-0.060829 -0.221728 0)
(-0.0402155 -0.190012 0)
(-0.0220045 -0.147847 0)
(-0.00817315 -0.0956213 0)
(-0.0013244 -0.0343488 0)
(-0.00101901 0.0335288 0)
(-0.00622858 0.0914398 0)
(-0.016668 0.139542 0)
(-0.0303281 0.17777 0)
(-0.0457543 0.206536 0)
(-0.0619268 0.226558 0)
(-0.0780213 0.238736 0)
(-0.0934247 0.244046 0)
(-0.107734 0.243463 0)
(-0.120719 0.237902 0)
(-0.13229 0.228183 0)
(-0.142453 0.215019 0)
(-0.151286 0.199011 0)
(-0.158907 0.180652 0)
(-0.165458 0.16034 0)
(-0.171083 0.138389 0)
(-0.17592 0.115045 0)
(-0.180089 0.0904966 0)
(-0.183682 0.0648937 0)
(-0.186761 0.0383588 0)
(-0.189349 0.0110027 0)
(-0.191425 -0.01706 0)
(-0.192922 -0.0456949 0)
(-0.193718 -0.0747281 0)
(-0.193641 -0.103926 0)
(-0.192461 -0.132971 0)
(-0.189902 -0.161437 0)
(-0.185648 -0.188761 0)
(-0.179361 -0.214219 0)
(-0.170714 -0.236902 0)
(-0.159431 -0.255712 0)
(-0.145347 -0.269365 0)
(-0.128476 -0.276429 0)
(-0.109087 -0.275395 0)
(-0.0877851 -0.264784 0)
(-0.0655669 -0.243306 0)
(-0.0438093 -0.210027 0)
(-0.0242109 -0.16454 0)
(-0.00908725 -0.107097 0)
(-0.00149636 -0.0387361 0)
(-0.00113068 0.0368463 0)
(-0.0068212 0.100057 0)
(-0.0180782 0.15199 0)
(-0.0325664 0.19263 0)
(-0.0485963 0.222566 0)
(-0.0650125 0.242757 0)
(-0.0809256 0.254359 0)
(-0.0957177 0.258592 0)
(-0.109025 0.256637 0)
(-0.120687 0.249574 0)
(-0.130694 0.238348 0)
(-0.13914 0.223757 0)
(-0.146184 0.206456 0)
(-0.152022 0.186969 0)
(-0.156863 0.165701 0)
(-0.160911 0.142964 0)
(-0.164356 0.118984 0)
(-0.16736 0.0939274 0)
(-0.170055 0.0679105 0)
(-0.172535 0.0410179 0)
(-0.174849 0.0133169 0)
(-0.176999 -0.0151272 0)
(-0.178931 -0.0442334 0)
(-0.180533 -0.0738859 0)
(-0.181628 -0.103911 0)
(-0.181971 -0.134052 0)
(-0.181251 -0.163935 0)
(-0.179093 -0.193039 0)
(-0.175079 -0.220658 0)
(-0.168766 -0.245865 0)
(-0.159739 -0.267491 0)
(-0.147667 -0.284112 0)
(-0.13239 -0.294072 0)
(-0.114019 -0.295551 0)
(-0.0930469 -0.286679 0)
(-0.0704422 -0.265717 0)
(-0.0476723 -0.231289 0)
(-0.0266623 -0.182615 0)
(-0.0101315 -0.119719 0)
(-0.00169909 -0.0436299 0)
(-0.00127593 0.0405053 0)
(-0.00756808 0.10944 0)
(-0.0198086 0.165326 0)
(-0.035229 0.208226 0)
(-0.0518431 0.238986 0)
(-0.0683411 0.258892 0)
(-0.0837782 0.269436 0)
(-0.0975569 0.272138 0)
(-0.109386 0.268425 0)
(-0.119206 0.259563 0)
(-0.127117 0.246627 0)
(-0.133321 0.230501 0)
(-0.138076 0.211886 0)
(-0.141665 0.191325 0)
(-0.144371 0.169224 0)
(-0.146461 0.145878 0)
(-0.148175 0.12149 0)
(-0.14972 0.0961932 0)
(-0.151266 0.0700664 0)
(-0.152938 0.0431509 0)
(-0.154815 0.0154653 0)
(-0.156922 -0.0129788 0)
(-0.159227 -0.0421606 0)
(-0.161632 -0.0720303 0)
(-0.163967 -0.102486 0)
(-0.165982 -0.133346 0)
(-0.167342 -0.164311 0)
(-0.167629 -0.194929 0)
(-0.166343 -0.22454 0)
(-0.162933 -0.252236 0)
(-0.156827 -0.276806 0)
(-0.147503 -0.29671 0)
(-0.134583 -0.310076 0)
(-0.117955 -0.314742 0)
(-0.0979286 -0.308379 0)
(-0.0753776 -0.288695 0)
(-0.0518177 -0.253719 0)
(-0.0294057 -0.202139 0)
(-0.0113404 -0.133615 0)
(-0.00194246 -0.049108 0)
(-0.00147077 0.044602 0)
(-0.00853367 0.119772 0)
(-0.0219763 0.179702 0)
(-0.0384472 0.224597 0)
(-0.0555855 0.255682 0)
(-0.0719164 0.274695 0)
(-0.0864648 0.283567 0)
(-0.0986974 0.284189 0)
(-0.108444 0.278275 0)
(-0.115788 0.267294 0)
(-0.120975 0.252452 0)
(-0.124338 0.234707 0)
(-0.126251 0.214793 0)
(-0.12709 0.193258 0)
(-0.127215 0.170492 0)
(-0.126954 0.146763 0)
(-0.126595 0.12224 0)
(-0.126387 0.0970164 0)
(-0.126531 0.0711267 0)
(-0.127183 0.0445654 0)
(-0.12845 0.0172999 0)
(-0.130382 -0.0107152 0)
(-0.132973 -0.0395226 0)
(-0.136148 -0.0691441 0)
(-0.139753 -0.0995585 0)
(-0.143549 -0.130672 0)
(-0.147195 -0.162283 0)
(-0.150242 -0.194031 0)
(-0.152133 -0.225345 0)
(-0.15221 -0.255373 0)
(-0.149748 -0.282912 0)
(-0.144012 -0.306348 0)
(-0.134359 -0.323615 0)
(-0.120385 -0.332206 0)
(-0.102122 -0.329274 0)
(-0.0802497 -0.311843 0)
(-0.0562542 -0.277165 0)
(-0.0325056 -0.223166 0)
(-0.012765 -0.148942 0)
(-0.00224179 -0.055272 0)
(-0.00174036 0.0492752 0)
(-0.00981187 0.131301 0)
(-0.0247389 0.195306 0)
(-0.0423758 0.24176 0)
(-0.0598971 0.272457 0)
(-0.0756709 0.289772 0)
(-0.0887461 0.296205 0)
(-0.0987244 0.294102 0)
(-0.105624 0.2855 0)
(-0.109727 0.27208 0)
(-0.111462 0.255165 0)
(-0.11132 0.235767 0)
(-0.109798 0.21463 0)
(-0.107371 0.192283 0)
(-0.104471 0.169083 0)
(-0.10148 0.145254 0)
(-0.0987275 0.120921 0)
(-0.0964918 0.0961274 0)
(-0.0950012 0.070862 0)
(-0.094435 0.0450693 0)
(-0.0949229 0.0186647 0)
(-0.0965424 -0.00845396 0)
(-0.0993138 -0.0363928 0)
(-0.103192 -0.0652472 0)
(-0.108053 -0.0950808 0)
(-0.113682 -0.125899 0)
(-0.119756 -0.157611 0)
(-0.125823 -0.189981 0)
(-0.131292 -0.222561 0)
(-0.135425 -0.254608 0)
(-0.137355 -0.284991 0)
(-0.136128 -0.312086 0)
(-0.130802 -0.333689 0)
(-0.120606 -0.346972 0)
(-0.105175 -0.348529 0)
(-0.084856 -0.334577 0)
(-0.0609751 -0.301356 0)
(-0.0360495 -0.245723 0)
(-0.0144826 -0.165888 0)
(-0.00262176 -0.0622587 0)
(-0.00212567 0.0547275 0)
(-0.0115419 0.144363 0)
(-0.0283044 0.212355 0)
(-0.047181 0.259667 0)
(-0.0647901 0.288973 0)
(-0.0793924 0.303538 0)
(-0.0901634 0.306601 0)
(-0.0969482 0.301044 0)