/*--------------------------------*- C++ -*----------------------------------*\
  =========                 |
  \\      /  F ield         | OpenFOAM: The Open Source CFD Toolbox
   \\    /   O peration     | Website:  https://openfoam.org
    \\  /    A nd           | Version:  9
     \\/     M anipulation  |
\*---------------------------------------------------------------------------*/
FoamFile
{
    format      ascii;
    class       surfaceScalarField;
    location    "19";
    object      phi;
}
// * * * * * * * * * * * * * * * * * * * * * * * * * * * * * * * * * * * * * //

dimensions      [0 3 -1 0 0 0 0];

internalField   nonuniform List<scalar> 
16735
(
-0.00305502
0.00305502
2.00784e-10
-0.00917034
0.00611532
-8.05632e-10
-0.0172221
0.00805174
-2.33425e-09
-0.0264933
0.00927118
-4.05821e-09
-0.036907
0.0104138
-6.32142e-09
-0.0479115
0.0110045
-9.2411e-09
-0.0606935
0.0127821
-1.347e-08
-0.0726065
0.011913
-1.85032e-08
-0.0888278
0.0162213
-2.49626e-08
0.0132066
-3.221e-08
-0.102034
-0.00300037
0.00605539
-0.00901402
0.012129
-0.0169193
0.015957
-0.0259877
0.0183396
-0.0361248
0.0205509
-0.0467389
0.0216186
-0.0589985
0.0250417
-0.070138
0.0230525
-0.0854315
0.0315147
0.0248437
-0.0970686
-0.00289352
0.00894891
-0.00870719
0.0179426
-0.0163233
0.0235731
-0.024991
0.0270073
-0.0345792
0.0301391
-0.0444259
0.0314653
-0.0556443
0.0362601
-0.0652731
0.0326812
-0.0787638
0.0450055
0.0334604
-0.0873805
-0.0027393
0.0116882
-0.00826123
0.0234646
-0.0154532
0.0307651
-0.0235317
0.0350858
-0.0323069
0.0389143
-0.0410334
0.0401918
-0.0506961
0.0459227
-0.058136
0.0401211
-0.0690335
0.055903
0.0378164
-0.0733896
-0.00254461
0.0142328
-0.00769249
0.0286125
-0.0143362
0.0374088
-0.0216502
0.0423998
-0.0293596
0.0466237
-0.0366457
0.0474779
-0.0442365
0.0535135
-0.0488713
0.044756
-0.0564517
0.0634834
0.0369271
-0.0555624
-0.00231813
0.0165509
-0.00702157
0.0333159
-0.0130048
0.0433921
-0.0193966
0.0487915
-0.0258007
0.0530278
-0.031363
0.0530403
-0.0363521
0.0585026
-0.0376145
0.0460184
-0.0411199
0.0669887
0.0300421
-0.0342348
-0.0020699
0.0186209
-0.00627224
0.0375182
-0.0114975
0.0486173
-0.0168275
0.0541215
-0.0216992
0.0578995
-0.0252916
0.0566327
-0.0271178
0.0603288
-0.0244833
0.0433839
-0.0229002
0.0654057
0.0166164
-0.00947454
-0.0018108
0.0204317
-0.00547024
0.0411777
-0.00985538
0.0530025
-0.0140009
0.058267
-0.0171229
0.0610215
-0.0185301
0.0580399
-0.016573
0.0583717
-0.00962834
0.0364392
-0.00113825
0.0569156
-0.00453531
0.0200135
-0.00155193
0.0219836
-0.0046417
0.0442675
-0.00811999
0.0564807
-0.0109712
0.0611182
-0.0121274
0.0621778
-0.0111499
0.0570624
-0.00463938
0.0518611
0.00717062
0.0246292
0.0231514
0.0409348
-0.0365281
0.0551442
-0.00130398
0.0232876
-0.00381149
0.046775
-0.0063298
0.0589991
-0.00778184
0.0625702
-0.0067407
0.0611366
-0.00319787
0.0535196
0.00832351
0.0403397
0.0261571
0.00679562
0.051767
0.0153249
-0.0815862
0.0968251
-0.00107655
0.0243641
-0.00300115
0.0486996
-0.00451673
0.0605146
-0.00446024
0.0625137
-0.000906097
0.0575825
0.00573179
0.0468817
0.0227411
0.0233304
0.0470032
-0.0174664
0.0848589
-0.0225308
-0.142271
0.145544
-0.000877351
0.0252415
-0.00222679
0.050049
-0.00270109
0.0609889
-0.00102426
0.0608369
0.00515159
0.0514067
0.0157627
0.0362706
0.0391788
-8.57054e-05
0.0706426
-0.0489302
0.12278
-0.0746684
-0.219754
0.200263
-0.000711612
0.0259531
-0.00149681
0.0508342
-0.000881217
0.0603733
0.0026525
0.0573032
0.0117881
0.042271
0.0271778
0.0208809
0.0579954
-0.0309034
0.0984875
-0.0894223
0.165902
-0.142083
-0.311948
0.258096
-0.00058158
0.0265347
-0.000810373
0.051063
0.000941725
0.0586212
0.0065709
0.051674
0.019175
0.029667
0.0405494
-0.000493464
0.0795737
-0.0699277
0.131603
-0.141452
0.213767
-0.224247
-0.412991
0.31481
-0.00048724
0.0270219
-0.000152957
0.0507287
0.00282001
0.0556483
0.0108415
0.0436525
0.0275611
0.0129474
0.0564007
-0.029333
0.104302
-0.117829
0.169543
-0.206692
0.263788
-0.318492
-0.515082
0.365878
-0.000417944
0.0274398
0.000493947
0.0498168
0.0048495
0.0512927
0.0156664
0.0328356
0.0373036
-0.00868977
0.0750386
-0.0670681
0.132396
-0.175186
0.210131
-0.284428
0.311225
-0.419585
-0.611396
0.407538
-0.000363122
0.027803
0.00117612
0.0482776
0.00713806
0.0453308
0.0213131
0.0186606
0.0488673
-0.036244
0.0964422
-0.114643
0.163291
-0.242035
0.250109
-0.371246
0.351146
-0.520622
-0.697903
0.437654
-0.000309485
0.0281124
0.00194556
0.0460225
0.0098259
0.0374505
0.0280948
0.000391664
0.0626956
-0.0708447
0.120214
-0.172161
0.195194
-0.317015
0.285924
-0.461976
0.380499
-0.615198
-0.773322
0.455918
-0.000239533
0.028352
0.00286402
0.042919
0.0130767
0.0272378
0.0363227
-0.0228544
0.0789659
-0.113488
0.145416
-0.238611
0.225504
-0.397103
0.31467
-0.551142
0.398681
-0.699209
-0.838265
0.463624
-0.000132478
0.0284845
0.0039993
0.0387872
0.0170697
0.0141674
0.046233
-0.0520176
0.0973458
-0.164601
0.170482
-0.311747
0.251743
-0.478364
0.334881
-0.63428
0.406817
-0.771145
-0.894842
0.463395
3.30463e-05
0.0284514
0.00542291
0.0333973
0.0219868
-0.00239651
0.0578881
-0.0879189
0.116921
-0.223634
0.193535
-0.388362
0.272242
-0.557071
0.346601
-0.708639
0.407986
-0.83253
-0.950361
0.463505
0.000251575
0.0281998
0.00720984
0.0264391
0.0279853
-0.023172
0.0710666
-0.131
0.136356
-0.288923
0.212967
-0.464972
0.286326
-0.630431
0.35102
-0.773333
0.40563
-0.887141
-0.998515
0.453785
0.000560684
0.0276391
0.00943793
0.0175618
0.0351458
-0.0488799
0.0852097
-0.181064
0.154229
-0.357943
0.22783
-0.538573
0.294213
-0.696813
0.350303
-0.829423
0.397678
-0.934516
-1.03943
0.438597
0.000970534
0.0266686
0.0121843
0.00634806
0.0434048
-0.0801003
0.0994833
-0.237143
0.169384
-0.427844
0.237876
-0.607065
0.296784
-0.755721
0.345134
-0.877772
0.386411
-0.975794
-1.07607
0.42305
0.00149228
0.0251763
0.0155147
-0.0076744
0.0525135
-0.117099
0.112947
-0.297576
0.181142
-0.496039
0.24338
-0.669303
0.294938
-0.807279
0.336685
-0.919519
0.372959
-1.01207
-1.10873
0.405619
0.00213981
0.0230365
0.019457
-0.0249916
0.0620593
-0.159701
0.124758
-0.360275
0.189297
-0.560578
0.244858
-0.724864
0.289621
-0.852043
0.325788
-0.955686
0.357844
-1.04412
-1.13832
0.387433
0.00293489
0.0201016
0.0239693
-0.046026
0.0715266
-0.207259
0.134332
-0.423081
0.19398
-0.620226
0.242935
-0.773818
0.281627
-0.890735
0.313106
-0.987165
0.341677
-1.07269
-1.16523
0.368585
0.00391081
0.0161908
0.0289294
-0.0710446
0.0803669
-0.258696
0.141395
-0.484109
0.195517
-0.674348
0.238233
-0.816534
0.271613
-0.924115
0.299152
-1.0147
0.324728
-1.09827
-1.18974
0.349241
0.00510799
0.0110828
0.0341499
-0.100086
0.0880833
-0.31263
0.14593
-0.541955
0.19432
-0.722738
0.231317
-0.853531
0.260101
-0.952899
0.284288
-1.03889
0.307243
-1.12123
-1.21205
0.329547
0.00655719
0.00452564
0.0394115
-0.132941
0.0943242
-0.367542
0.148085
-0.595716
0.190819
-0.765473
0.222672
-0.885383
0.247493
-0.97772
0.268783
-1.06018
0.289365
-1.14181
-1.23223
0.309551
0.00825671
-0.00373107
0.0444915
-0.169176
0.0989205
-0.421971
0.14809
-0.644885
0.185426
-0.802808
0.212702
-0.91266
0.234092
-0.99911
0.252823
-1.07891
0.271197
-1.16018
-1.25036
0.289325
0.0101604
-0.0138915
0.0491734
-0.208189
0.101851
-0.474649
0.146212
-0.689246
0.178508
-0.835105
0.201735
-0.935887
0.220125
-1.0175
0.236542
-1.09533
0.252813
-1.17645
-1.26645
0.268902
0.0121867
-0.0260782
0.0532547
-0.249257
0.103189
-0.524583
0.14272
-0.728777
0.170385
-0.862771
0.190031
-0.955533
0.205762
-1.03323
0.220036
-1.1096
0.234267
-1.19068
-1.28051
0.248324
0.0142399
-0.0403181
0.0565651
-0.291582
0.103062
-0.57108
0.137871
-0.763585
0.161324
-0.886225
0.177792
-0.972001
0.191125
-1.04656
0.203373
-1.12185
0.215601
-1.20291
-1.29253
0.227622
0.016233
-0.0565511
0.0589887
-0.334337
0.101625
-0.613716
0.131902
-0.793862
0.151544
-0.905867
0.165175
-0.985632
0.176307
-1.0577
0.186603
-1.13215
0.196851
-1.21316
-1.30251
0.206831
0.0180955
-0.0746466
0.0604722
-0.376714
0.099041
-0.652284
0.125026
-0.819847
0.141225
-0.922066
0.152301
-0.996707
0.161375
-1.06677
0.169767
-1.14054
0.178048
-1.22144
-1.31044
0.185981
0.0197692
-0.0944158
0.0610179
-0.417963
0.0954725
-0.686739
0.117431
-0.841805
0.130515
-0.935151
0.139262
-1.00545
0.146383
-1.07389
0.152903
-1.14706
0.159221
-1.22776
-1.31633
0.165105
0.0212014
-0.115617
0.0606666
-0.457428
0.0910713
-0.717144
0.109279
-0.860013
0.119534
-0.945406
0.12613
-1.01205
0.131372
-1.07913
0.136039
-1.15173
0.1404
-1.23212
-1.32016
0.144234
0.0223418
-0.137959
0.0594768
-0.494563
0.0859755
-0.743642
0.100708
-0.874746
0.108378
-0.953075
0.112961
-1.01663
0.116377
-1.08255
0.119203
-1.15455
0.121612
-1.23453
-1.32195
0.123403
0.0231474
-0.161106
0.0575393
-0.528955
0.080311
-0.766414
0.091835
-0.88627
0.0971242
-0.958364
0.099799
-1.01931
0.101426
-1.08418
0.10242
-1.15555
0.102885
-1.23499
-1.32172
0.102653
0.0235899
-0.184696
0.0550319
-0.560397
0.0741959
-0.785578
0.0827536
-0.894827
0.0858351
-0.961446
0.0866811
-1.02015
0.0865452
-1.08404
0.0857116
-1.15471
0.0842474
-1.23353
-1.31951
0.0820365
0.0236581
-0.208354
0.0520184
-0.588757
0.0677341
-0.801294
0.0735427
-0.900636
0.0745592
-0.962462
0.0736368
-1.01923
0.0717575
-1.08216
0.069102
-1.15206
0.0657194
-1.23014
-1.31531
0.0615172
0.0233579
-0.231712
0.048571
-0.61397
0.0610157
-0.813739
0.064268
-0.903888
0.0633359
-0.96153
0.0606915
-1.01659
0.0570846
-1.07855
0.0526166
-1.14759
0.0473199
-1.22485
-1.3091
0.0411117
0.0227111
-0.254423
0.0447633
-0.636023
0.0541196
-0.823095
0.0549838
-0.904752
0.0521971
-0.958744
0.0478673
-1.01226
0.042546
-1.07323
0.0362807
-1.14132
0.0290925
-1.21766
-1.30085
0.0208471
0.0217514
-0.276175
0.0406656
-0.654937
0.0470964
-0.829526
0.0457331
-0.903389
0.0411692
-0.95418
0.0351841
-1.00627
0.0281603
-1.06621
0.020107
-1.13327
0.0111018
-1.20865
-1.2904
0.000645749
0.0205199
-0.296695
0.0363435
-0.67076
0.0400037
-0.833186
0.0365522
-0.899938
0.030275
-0.947903
0.0226588
-0.998656
0.0139458
-1.0575
0.00406951
-1.1234
-0.00665246
-1.19793
-1.27801
-0.0190369
0.01906
-0.315755
0.0318572
-0.683558
0.0328942
-0.834223
0.0274718
-0.894515
0.0195321
-0.939963
0.010301
-0.989425
-0.000117496
-1.04708
-0.0116156
-1.1119
-0.0242782
-1.18527
-1.2638
-0.03849
0.0174145
-0.333169
0.0272609
-0.693404
0.0258112
-0.832773
0.0185181
-0.887222
0.0089465
-0.930391
-0.00187976
-0.978599
-0.0138373
-1.03512
-0.027056
-1.09868
-0.0416073
-1.17072
-1.24774
-0.0576733
0.0156232
-0.348792
0.0226027
-0.700383
0.0187907
-0.828961
0.00971146
-0.878143
-0.00148539
-0.919194
-0.0137472
-0.966337
-0.0273628
-1.0215
-0.0422651
-1.08378
-0.0586405
-1.15434
-1.22983
-0.076544
0.0137227
-0.362515
0.017925
-0.704586
0.0118599
-0.822896
0.00104018
-0.867323
-0.0115502
-0.906604
-0.025424
-0.952463
-0.0406403
-1.00629
-0.0572091
-1.06721
-0.07536
-1.13619
-1.21011
-0.0950813
0.0117464
-0.374261
0.0132647
-0.706104
0.0050293
-0.814661
-0.00733879
-0.854955
-0.021449
-0.892494
-0.0368666
-0.937045
-0.0536533
-0.9895
-0.0718635
-1.049
-0.0917496
-1.11631
-1.1886
-0.113257
0.00972414
-0.383986
0.00865698
-0.705037
-0.00166765
-0.804336
-0.0155471
-0.841076
-0.0311298
-0.876911
-0.0480569
-0.920118
-0.0663855
-0.971172
-0.0862071
-1.02918
-0.107791
-1.09472
-1.16534
-0.131052
0.00768086
-0.391666
0.00414199
-0.701498
-0.00805605
-0.792138
-0.0235525
-0.825579
-0.0405756
-0.859888
-0.0589805
-0.901713
-0.0788218
-0.95133
-0.100221
-1.00778
-0.123466
-1.07148
-1.14037
-0.148442
0.00563539
-0.397302
-0.000199515
-0.695663
-0.0143121
-0.778025
-0.0313404
-0.808551
-0.0497756
-0.841453
-0.0696252
-0.881864
-0.0909476
-0.930008
-0.11389
-0.984834
-0.13876
-1.04661
-1.11372
-0.165407
0.00360646
-0.400908
-0.00474387
-0.687313
-0.0204054
-0.762364
-0.0388966
-0.79006
-0.0587186
-0.821631
-0.0799792
-0.860603
-0.102749
-0.907238
-0.127199
-0.960384
-0.153655
-1.02015
-1.08546
-0.181919
0.00163034
-0.402539
-0.00904415
-0.676638
-0.026318
-0.74509
-0.0462123
-0.770165
-0.0673942
-0.800449
-0.0900313
-0.837966
-0.114213
-0.883057
-0.140133
-0.934464
-0.168132
-0.992152
-1.05563
-0.197954
-0.000267881
-0.402271
-0.0131769
-0.663729
-0.0320403
-0.726227
-0.0532826
-0.748923
-0.0757927
-0.777939
-0.0997706
-0.813988
-0.125327
-0.8575
-0.152683
-0.907108
-0.182177
-0.962658
-1.0243
-0.213515
-0.00239009
-0.399881
-0.0171582
-0.648961
-0.0375596
-0.705825
-0.0601017
-0.726381
-0.0839051
-0.754135
-0.109186
-0.788707
-0.136083
-0.830604
-0.164849
-0.878341
-0.195783
-0.931724
-0.991509
-0.22857
-0.00436853
-0.395512
-0.0209865
-0.632343
-0.0428645
-0.683947
-0.0666639
-0.702581
-0.0917227
-0.729077
-0.118269
-0.762161
-0.146472
-0.802401
-0.176625
-0.848188
-0.208902
-0.899447
-0.95753
-0.242882
-0.00626051
-0.389252
-0.024659
-0.613945
-0.047949
-0.660657
-0.0729636
-0.677567
-0.0992377
-0.702803
-0.127008
-0.73439
-0.156483
-0.772926
-0.187965
-0.816705
-0.221546
-0.865867
-0.922755
-0.25632
-0.00807221
-0.381179
-0.0281724
-0.593844
-0.0528085
-0.636021
-0.0789956
-0.65138
-0.106443
-0.675355
-0.135397
-0.705436
-0.166102
-0.742222
-0.198815
-0.783992
-0.233242
-0.831439
-0.885788
-0.27021
-0.00980392
-0.371376
-0.0315237
-0.572125
-0.0574395
-0.610105
-0.0847549
-0.624064
-0.113331
-0.646779
-0.143428
-0.675339
-0.175305
-0.710345
-0.209135
-0.750163
-0.244821
-0.795753
-0.847232
-0.283377
-0.0114543
-0.359921
-0.0347098
-0.548869
-0.0618392
-0.582976
-0.0902371
-0.595666
-0.119897
-0.617119
-0.151091
-0.644145
-0.184093
-0.677343
-0.219064
-0.715192
-0.256126
-0.758691
-0.807341
-0.296018
-0.0130213
-0.3469
-0.0377281
-0.524162
-0.0660052
-0.554699
-0.0954379
-0.566234
-0.126134
-0.586423
-0.158376
-0.611904
-0.192443
-0.643276
-0.228499
-0.679136
-0.266781
-0.720408
-0.766186
-0.307936
-0.014503
-0.332397
-0.0405761
-0.498089
-0.0699354
-0.525339
-0.100353
-0.535816
-0.132036
-0.55474
-0.165275
-0.578665
-0.200359
-0.608192
-0.237472
-0.642022
-0.27691
-0.680971
-0.723886
-0.319209
-0.0158968
-0.3165
-0.0432517
-0.470734
-0.0736276
-0.494964
-0.10498
-0.504464
-0.137597
-0.522122
-0.17178
-0.544482
-0.207826
-0.572147
-0.245942
-0.603906
-0.286455
-0.640458
-0.680515
-0.329826
-0.0172005
-0.2993
-0.0457532
-0.442182
-0.0770801
-0.463637
-0.109313
-0.47223
-0.142813
-0.488623
-0.177885
-0.50941
-0.214838
-0.535193
-0.253903
-0.564841
-0.295421
-0.598941
-0.636144
-0.339791
-0.018411
-0.280889
-0.048079
-0.412514
-0.0802912
-0.431424
-0.113351
-0.43917
-0.147677
-0.454298
-0.183582
-0.473504
-0.221387
-0.497388
-0.26134
-0.524888
-0.303793
-0.556488
-0.59084
-0.349097
-0.0195245
-0.261364
-0.0502274
-0.381811
-0.0832594
-0.398392
-0.11709
-0.40534
-0.152185
-0.419203
-0.188866
-0.436823
-0.227464
-0.45879
-0.268244
-0.484108
-0.311562
-0.51317
-0.544668
-0.357734
-0.0205341
-0.24083
-0.0521967
-0.350148
-0.0859836
-0.364606
-0.120527
-0.370796
-0.156332
-0.383398
-0.193729
-0.399426
-0.233061
-0.419459
-0.274604
-0.442564
-0.318719
-0.469055
-0.497697
-0.36569
-0.0214255
-0.219404
-0.0539858
-0.317588
-0.0884634
-0.330128
-0.12366
-0.3356
-0.160116
-0.346942
-0.198167
-0.361374
-0.238171
-0.379456
-0.280413
-0.400322
-0.325254
-0.424214
-0.449996
-0.372955
-0.0222434
-0.197161
-0.0555968
-0.284235
-0.0906985
-0.295026
-0.126486
-0.299813
-0.163531
-0.309896
-0.202176
-0.32273
-0.242787
-0.338844
-0.285662
-0.357447
-0.331158
-0.378718
-0.401637
-0.379517
-0.0229878
-0.174173
-0.0570305
-0.250192
-0.0926881
-0.259369
-0.129003
-0.263498
-0.166575
-0.272324
-0.205749
-0.283557
-0.246905
-0.297688
-0.290345
-0.314007
-0.336422
-0.332641
-0.352691
-0.385368
-0.0236465
-0.150527
-0.0582865
-0.215552
-0.0944315
-0.223224
-0.131209
-0.22672
-0.169245
-0.234288
-0.208884
-0.243918
-0.250518
-0.256054
-0.294455
-0.27007
-0.341041
-0.286055
-0.303235
-0.390497
-0.0242146
-0.126312
-0.0593642
-0.180402
-0.0959275
-0.18666
-0.133103
-0.189544
-0.171538
-0.195853
-0.211577
-0.203879
-0.253623
-0.214009
-0.297986
-0.225707
-0.345007
-0.239034
-0.253344
-0.394898
-0.02469
-0.101622
-0.0602631
-0.144829
-0.0971755
-0.149748
-0.134684
-0.152036
-0.173453
-0.157084
-0.213826
-0.163505
-0.256215
-0.17162
-0.300932
-0.180989
-0.348314
-0.191653
-0.203094
-0.398564
-0.0250712
-0.0765509
-0.0609827
-0.108918
-0.0981748
-0.112556
-0.13595
-0.11426
-0.174986
-0.118048
-0.215628
-0.122864
-0.258292
-0.128956
-0.303292
-0.135989
-0.350958
-0.143986
-0.15256
-0.401492
-0.0253577
-0.0511933
-0.0615227
-0.0727526
-0.0989247
-0.075154
-0.1369
-0.076285
-0.176137
-0.0788104
-0.21698
-0.0820213
-0.259851
-0.0860854
-0.305063
-0.0907767
-0.352941
-0.0961076
-0.101818
-0.403683
-0.0255488
-0.0256444
-0.0618829
-0.0364185
-0.0994249
-0.037612
-0.137534
-0.0381759
-0.176906
-0.0394388
-0.217883
-0.0410443
-0.260891
-0.0430771
-0.306244
-0.0454235
-0.354263
-0.0480887
-0.0509419
-0.405139
-0.0256444
-8.44748e-11
-0.062063
-1.73578e-10
-0.099675
-2.08899e-10
-0.137851
-2.37615e-10
-0.17729
-2.71715e-10
-0.218334
-3.06213e-10
-0.261411
-3.40885e-10
-0.306835
-3.73128e-10
-0.354923
-4.02284e-10
-4.26461e-10
-0.405865
-0.0256444
0.0256444
-0.062063
0.0364185
-0.099675
0.037612
-0.137851
0.0381759
-0.17729
0.0394388
-0.218334
0.0410443
-0.261411
0.0430771
-0.306835
0.0454235
-0.354923
0.0480887
0.0509419
-0.405865
-0.0255488
0.0511933
-0.0618829
0.0727526
-0.0994249
0.075154
-0.137534
0.076285
-0.176906
0.0788104
-0.217883
0.0820213
-0.260891
0.0860854
-0.306244
0.0907767
-0.354263
0.0961076
0.101818
-0.405139
-0.0253577
0.0765509
-0.0615227
0.108918
-0.0989247
0.112556
-0.1369
0.11426
-0.176137
0.118048
-0.21698
0.122864
-0.259851
0.128956
-0.305063
0.135989
-0.352941
0.143986
0.15256
-0.403683
-0.0250712
0.101622
-0.0609827
0.144829
-0.0981748
0.149748
-0.13595
0.152036
-0.174986
0.157084
-0.215628
0.163505
-0.258292
0.17162
-0.303292
0.180989
-0.350958
0.191653
0.203094
-0.401492
-0.02469
0.126312
-0.0602631
0.180402
-0.0971755
0.18666
-0.134684
0.189544
-0.173453
0.195853
-0.213826
0.203879
-0.256215
0.214009
-0.300932
0.225707
-0.348314
0.239034
0.253344
-0.398564
-0.0242146
0.150527
-0.0593642
0.215552
-0.0959275
0.223224
-0.133103
0.22672
-0.171538
0.234288
-0.211577
0.243918
-0.253623
0.256054
-0.297986
0.27007
-0.345007
0.286055
0.303235
-0.394898
-0.0236465
0.174173
-0.0582865
0.250192
-0.0944315
0.259369
-0.131209
0.263498
-0.169245
0.272324
-0.208884
0.283557
-0.250518
0.297688
-0.294455
0.314007
-0.341041
0.332641
0.352691
-0.390497
-0.0229878
0.197161
-0.0570305
0.284235
-0.0926881
0.295026
-0.129003
0.299813
-0.166575
0.309896
-0.205749
0.32273
-0.246905
0.338844
-0.290345
0.357447
-0.336422
0.378718
0.401637
-0.385368
-0.0222434
0.219404
-0.0555968
0.317588
-0.0906985
0.330128
-0.126486
0.3356
-0.163531
0.346942
-0.202176
0.361374
-0.242787
0.379456
-0.285662
0.400322
-0.331158
0.424214
0.449996
-0.379517
-0.0214255
0.24083
-0.0539858
0.350148
-0.0884634
0.364606
-0.12366
0.370796
-0.160116
0.383398
-0.198167
0.399426
-0.238171
0.419459
-0.280413
0.442564
-0.325254
0.469055
0.497697
-0.372955
-0.0205341
0.261364
-0.0521967
0.381811
-0.0859836
0.398392
-0.120527
0.40534
-0.156332
0.419203
-0.193729
0.436823
-0.233061
0.45879
-0.274604
0.484108
-0.318719
0.51317
0.544668
-0.36569
-0.0195245
0.280889
-0.0502274
0.412514
-0.0832594
0.431424
-0.11709
0.43917
-0.152185
0.454298
-0.188866
0.473504
-0.227464
0.497388
-0.268244
0.524888
-0.311562
0.556488
0.59084
-0.357734
-0.018411
0.2993
-0.048079
0.442182
-0.0802912
0.463637
-0.113351
0.47223
-0.147677
0.488623
-0.183582
0.50941
-0.221387
0.535193
-0.26134
0.564841
-0.303793
0.598941
0.636144
-0.349097
-0.0172005
0.3165
-0.0457532
0.470734
-0.0770801
0.494964
-0.109313
0.504464
-0.142813
0.522122
-0.177885
0.544482
-0.214838
0.572147
-0.253903
0.603906
-0.295421
0.640458
0.680515
-0.339791
-0.0158968
0.332397
-0.0432517
0.498089
-0.0736276
0.525339
-0.10498
0.535816
-0.137597
0.55474
-0.17178
0.578665
-0.207826
0.608192
-0.245942
0.642022
-0.286455
0.680971
0.723886
-0.329826
-0.014503
0.3469
-0.0405761
0.524162
-0.0699354
0.554699
-0.100353
0.566234
-0.132036
0.586423
-0.165275
0.611904
-0.200359
0.643276
-0.237472
0.679136
-0.27691
0.720408
0.766186
-0.319209
-0.0130213
0.359921
-0.0377281
0.548869
-0.0660052
0.582976
-0.0954379
0.595666
-0.126134
0.617119
-0.158376
0.644145
-0.192443
0.677343
-0.228499
0.715192
-0.266781
0.758691
0.807341
-0.307936
-0.0114543
0.371376
-0.0347098
0.572125
-0.0618392
0.610105
-0.0902371
0.624064
-0.119897
0.646779
-0.151091
0.675339
-0.184093
0.710345
-0.219064
0.750163
-0.256126
0.795753
0.847232
-0.296018
-0.00980392
0.381179
-0.0315237
0.593844
-0.0574395
0.636021
-0.0847549
0.65138
-0.113331
0.675355
-0.143428
0.705436
-0.175305
0.742222
-0.209135
0.783992
-0.244821
0.831439
0.885788
-0.283377
-0.00807221
0.389252
-0.0281724
0.613945
-0.0528085
0.660657
-0.0789956
0.677567
-0.106443
0.702803
-0.135397
0.73439
-0.166102
0.772926
-0.198815
0.816705
-0.233242
0.865867
0.922755
-0.27021
-0.00626051
0.395512
-0.024659
0.632343
-0.047949
0.683947
-0.0729636
0.702581
-0.0992377
0.729077
-0.127008
0.762161
-0.156483
0.802401
-0.187965
0.848188
-0.221546
0.899447
0.95753
-0.25632
-0.00436853
0.399881
-0.0209865
0.648961
-0.0428645
0.705825
-0.0666639
0.726381
-0.0917227
0.754135
-0.118269
0.788707
-0.146472
0.830604
-0.176625
0.878341
-0.208902
0.931724
0.991509
-0.242882
-0.00239009
0.402271
-0.0171582
0.663729
-0.0375596
0.726227
-0.0601017
0.748923
-0.0839051
0.777939
-0.109186
0.813988
-0.136083
0.8575
-0.164849
0.907108
-0.195783
0.962658
1.0243
-0.22857
-0.000267881
0.402539
-0.0131769
0.676638
-0.0320403
0.74509
-0.0532826
0.770165
-0.0757927
0.800449
-0.0997706
0.837966
-0.125327
0.883057
-0.152683
0.934464
-0.182177
0.992152
1.05563
-0.213515
0.00163034
0.400908
-0.00904415
0.687313
-0.026318
0.762364
-0.0462123
0.79006
-0.0673942
0.821631
-0.0900313
0.860603
-0.114213
0.907238
-0.140133
0.960384
-0.168132
1.02015
1.08546
-0.197954
0.00360646
0.397302
-0.00474387
0.695663
-0.0204054
0.778025
-0.0388966
0.808551
-0.0587186
0.841453
-0.0799792
0.881864
-0.102749
0.930008
-0.127199
0.984834
-0.153655
1.04661
1.11372
-0.181919
0.00563539
0.391666
-0.000199515
0.701498
-0.0143121
0.792138
-0.0313404
0.825579
-0.0497756
0.859888
-0.0696252
0.901713
-0.0909476
0.95133
-0.11389
1.00778
-0.13876
1.07148
1.14037
-0.165407
0.00768086
0.383986
0.00414199
0.705037
-0.00805605
0.804336
-0.0235525
0.841076
-0.0405756
0.876911
-0.0589805
0.920118
-0.0788218
0.971172
-0.100221
1.02918
-0.123466
1.09472
1.16534
-0.148442
0.00972414
0.374261
0.00865698
0.706104
-0.00166765
0.814661
-0.0155471
0.854955
-0.0311298
0.892494
-0.0480569
0.937045
-0.0663855
0.9895
-0.0862071
1.049
-0.107791
1.11631
1.1886
-0.131052
0.0117464
0.362515
0.0132647
0.704586
0.0050293
0.822896
-0.00733879
0.867323
-0.021449
0.906604
-0.0368666
0.952463
-0.0536533
1.00629
-0.0718635
1.06721
-0.0917496
1.13619
1.21011
-0.113257
0.0137227
0.348792
0.017925
0.700383
0.0118599
0.828961
0.00104018
0.878143
-0.0115502
0.919194
-0.025424
0.966337
-0.0406403
1.0215
-0.0572091
1.08378
-0.07536
1.15434
1.22983
-0.0950813
0.0156232
0.333169
0.0226027
0.693404
0.0187907
0.832773
0.00971146
0.887222
-0.00148539
0.930391
-0.0137472
0.978599
-0.0273628
1.03512
-0.0422651
1.09868
-0.0586405
1.17072
1.24774
-0.076544
0.0174145
0.315755
0.0272609
0.683558
0.0258112
0.834223
0.0185181
0.894515
0.0089465
0.939963
-0.00187976
0.989425
-0.0138373
1.04708
-0.027056
1.1119
-0.0416073
1.18527
1.2638
-0.0576733
0.01906
0.296695
0.0318572
0.67076
0.0328942
0.833186
0.0274718
0.899938
0.0195321
0.947903
0.010301
0.998656
-0.000117497
1.0575
-0.0116156
1.1234
-0.0242782
1.19793
1.27801
-0.03849
0.0205199
0.276175
0.0363435
0.654937
0.0400037
0.829526
0.0365522
0.903389
0.030275
0.95418
0.0226588
1.00627
0.0139458
1.06621
0.0040695
1.13327
-0.00665246
1.20865
1.2904
-0.0190369
0.0217514
0.254423
0.0406656
0.636023
0.0470964
0.823095
0.0457331
0.904752
0.0411692
0.958744
0.0351841
1.01226
0.0281603
1.07323
0.020107
1.14132
0.0111018
1.21766
1.30085
0.000645749
0.0227111
0.231712
0.0447633
0.61397
0.0541196
0.813739
0.0549838
0.903888
0.0521971
0.96153
0.0478673
1.01659
0.042546
1.07855
0.0362807
1.14759
0.0290925
1.22485
1.3091
0.0208471
0.0233579
0.208354
0.048571
0.588757
0.0610157
0.801294
0.064268
0.900636
0.0633359
0.962462
0.0606915
1.01923
0.0570846
1.08216
0.0526166
1.15206
0.0473199
1.23014
1.31531
0.0411117
0.0236581
0.184696
0.0520184
0.560397
0.0677341
0.785578
0.0735427
0.894827
0.0745592
0.961446
0.0736368
1.02015
0.0717575
1.08404
0.069102
1.15471
0.0657194
1.23353
1.31951
0.0615172
0.0235899
0.161106
0.0550319
0.528955
0.0741959
0.766414
0.0827536
0.88627
0.0858351
0.958364
0.0866811
1.01931
0.0865452
1.08418
0.0857116
1.15555
0.0842474
1.23499
1.32172
0.0820365
0.0231474
0.137959
0.0575393
0.494563
0.080311
0.743642
0.091835
0.874746
0.0971242
0.953075
0.099799
1.01663
0.101426
1.08255
0.10242
1.15455
0.102885
1.23453
1.32195
0.102653
0.0223418
0.115617
0.0594768
0.457428
0.0859755
0.717144
0.100708
0.860013
0.108378
0.945406
0.112961
1.01205
0.116377
1.07913
0.119203
1.15173
0.121612
1.23212
1.32016
0.123403
0.0212014
0.0944158
0.0606666
0.417963
0.0910713
0.686739
0.109279
0.841805
0.119534
0.935151
0.12613
1.00545
0.131372
1.07389
0.136039
1.14706
0.1404
1.22776
1.31633
0.144234
0.0197692
0.0746466
0.0610179
0.376714
0.0954725
0.652284
0.117431
0.819847
0.130515
0.922066
0.139262
0.996707
0.146383
1.06677
0.152903
1.14054
0.159221
1.22144
1.31044
0.165105
0.0180955
0.0565511
0.0604722
0.334337
0.099041
0.613716
0.125026
0.793862
0.141225
0.905867
0.152301
0.985632
0.161375
1.0577
0.169767
1.13215
0.178048
1.21316
1.30251
0.185981
0.016233
0.0403181
0.0589887
0.291582
0.101625
0.57108
0.131902
0.763585
0.151544
0.886225
0.165175
0.972001
0.176307
1.04656
0.186603
1.12185
0.196851
1.20291
1.29253
0.206831
0.0142399
0.0260782
0.0565651
0.249257
0.103062
0.524583
0.137871
0.728777
0.161324
0.862771
0.177792
0.955533
0.191125
1.03323
0.203373
1.1096
0.215601
1.19068
1.28051
0.227622
0.0121867
0.0138915
0.0532547
0.208189
0.103189
0.474649
0.14272
0.689246
0.170385
0.835105
0.190031
0.935887
0.205762
1.0175
0.220036
1.09533
0.234267
1.17645
1.26645
0.248324
0.0101604
0.00373107
0.0491734
0.169176
0.101851
0.421971
0.146212
0.644885
0.178508
0.802808
0.201735
0.91266
0.220125
0.99911
0.236542
1.07891
0.252813
1.16018
1.25036
0.268902
0.00825671
-0.00452564
0.0444915
0.132941
0.0989205
0.367542
0.14809
0.595716
0.185426
0.765473
0.212702
0.885383
0.234092
0.97772
0.252823
1.06018
0.271197
1.14181
1.23223
0.289325
0.00655719
-0.0110828
0.0394115
0.100086
0.0943242
0.31263
0.148085
0.541955
0.190819
0.722738
0.222672
0.853531
0.247493
0.952899
0.268783
1.03889
0.289365
1.12123
1.21205
0.309551
0.00510799
-0.0161908
0.0341499
0.0710446
0.0880833
0.258696
0.14593
0.484109
0.19432
0.674348
0.231317
0.816534
0.260101
0.924115
0.284288
1.0147
0.307243
1.09827
1.18974
0.329547
0.00391081
-0.0201016
0.0289294
0.046026
0.0803669
0.207259
0.141395
0.423081
0.195517
0.620226
0.238233
0.773818
0.271613
0.890735
0.299152
0.987165
0.324728
1.07269
1.16523
0.349241
0.00293489
-0.0230365
0.0239693
0.0249916
0.0715266
0.159701
0.134332
0.360275
0.19398
0.560578
0.242935
0.724864
0.281627
0.852043
0.313106
0.955686
0.341677
1.04412
1.13832
0.368585
0.00213981
-0.0251763
0.019457
0.0076744
0.0620593
0.117099
0.124758
0.297576
0.189297
0.496039
0.244858
0.669303
0.289621
0.807279
0.325788
0.919519
0.357844
1.01207
1.10873
0.387433
0.00149228
-0.0266686
0.0155147
-0.00634805
0.0525135
0.0801003
0.112947
0.237143
0.181142
0.427844
0.24338
0.607065
0.294938
0.755721
0.336685
0.877772
0.372959
0.975794
1.07607
0.405619
0.000970534
-0.0276391
0.0121843
-0.0175618
0.0434048
0.0488799
0.0994833
0.181064
0.169384
0.357943
0.237876
0.538573
0.296784
0.696813
0.345134
0.829423
0.386411
0.934516
1.03943
0.42305
0.000560684
-0.0281998
0.00943793
-0.0264391
0.0351458
0.023172
0.0852097
0.131
0.154229
0.288923
0.22783
0.464972
0.294213
0.630431
0.350303
0.773333
0.397678
0.887141
0.998515
0.438597
0.000251576
-0.0284514
0.00720984
-0.0333973
0.0279853
0.00239651
0.0710666
0.0879189
0.136356
0.223634
0.212967
0.388362
0.286326
0.557071
0.35102
0.708639
0.40563
0.83253
0.950361
0.453785
3.30465e-05
-0.0284845
0.00542291
-0.0387872
0.0219868
-0.0141674
0.0578881
0.0520176
0.116921
0.164601
0.193535
0.311747
0.272242
0.478364
0.346601
0.63428
0.407986
0.771145
0.894842
0.463505
-0.000132478
-0.028352
0.0039993
-0.042919
0.0170697
-0.0272378
0.046233
0.0228544
0.0973458
0.113488
0.170482
0.238611
0.251743
0.397103
0.334881
0.551142
0.406817
0.699209
0.838265
0.463395
-0.000239533
-0.0281124
0.00286402
-0.0460225
0.0130767
-0.0374505
0.0363227
-0.000391662
0.0789659
0.0708448
0.145416
0.172161
0.225504
0.317015
0.31467
0.461976
0.398681
0.615198
0.773322
0.463624
-0.000309485
-0.027803
0.00194556
-0.0482776
0.0098259
-0.0453308
0.0280948
-0.0186606
0.0626956
0.036244
0.120214
0.114643
0.195194
0.242035
0.285924
0.371246
0.380499
0.520622
0.697903
0.455918
-0.000363122
-0.0274398
0.00117612
-0.0498168
0.00713806
-0.0512927
0.0213131
-0.0328356
0.0488673
0.00868977
0.0964423
0.0670681
0.163291
0.175186
0.250109
0.284428
0.351146
0.419585
0.611396
0.437654
-0.000417944
-0.0270219
0.000493947
-0.0507287
0.0048495
-0.0556483
0.0156664
-0.0436525
0.0373036
-0.0129474
0.0750386
0.029333
0.132396
0.117829
0.210131
0.206692
0.311225
0.318492
0.515082
0.407538
-0.00048724
-0.0265347
-0.000152957
-0.051063
0.00282001
-0.0586213
0.0108415
-0.051674
0.0275611
-0.029667
0.0564007
0.000493471
0.104302
0.0699277
0.169543
0.141452
0.263788
0.224247
0.412991
0.365878
-0.00058158
-0.0259531
-0.000810373
-0.0508342
0.000941725
-0.0603733
0.0065709
-0.0573032
0.019175
-0.042271
0.0405494
-0.0208809
0.0795737
0.0309034
0.131603
0.0894223
0.213767
0.142083
0.311948
0.31481
-0.000711612
-0.0252415
-0.00149681
-0.050049
-0.000881217
-0.0609889
0.0026525
-0.0608369
0.0117881
-0.0514066
0.0271777
-0.0362706
0.0579954
8.57172e-05
0.0984875
0.0489302
0.165902
0.0746684
0.219754
0.258096
-0.000877351
-0.0243641
-0.00222679
-0.0486996
-0.00270109
-0.0605146
-0.00102427
-0.0625137
0.00515159
-0.0575825
0.0157627
-0.0468817
0.0391788
-0.0233304
0.0706426
0.0174664
0.12278
0.0225309
0.142271
0.200263
-0.00107655
-0.0232876
-0.00300115
-0.046775
-0.00451673
-0.0589991
-0.00446024