/*--------------------------------*- C++ -*----------------------------------*\
  =========                 |
  \\      /  F ield         | OpenFOAM: The Open Source CFD Toolbox
   \\    /   O peration     | Website:  https://openfoam.org
    \\  /    A nd           | Version:  9
     \\/     M anipulation  |
\*---------------------------------------------------------------------------*/
FoamFile
{
    format      ascii;
    class       volVectorField;
    location    "19";
    object      U;
}
// * * * * * * * * * * * * * * * * * * * * * * * * * * * * * * * * * * * * * //

dimensions      [0 1 -1 0 0 0 0];

internalField   nonuniform List<vector> 
8500
(
(-0.00663615 0.00264861 0)
(-0.0297385 0.00456398 -6.89692e-23)
(-0.0624631 0.00504927 -3.79222e-24)
(-0.090998 0.00490687 7.18498e-37)
(-0.119289 0.00462398 -1.05736e-23)
(-0.140717 0.00406205 8.80413e-24)
(-0.165969 0.00408825 -5.96355e-23)
(-0.178409 0.0028624 -9.25192e-23)
(-0.201049 0.00406745 -8.46763e-23)
(-0.210967 0.00197599 -4.40353e-24)
(-0.00693026 0.00789089 1.99243e-22)
(-0.0299801 0.0136138 6.44382e-23)
(-0.0622976 0.0150684 2.58618e-22)
(-0.0902357 0.0146445 0)
(-0.11789 0.0137946 0)
(-0.138244 0.0121129 1.77387e-23)
(-0.162804 0.0121761 4.48246e-23)
(-0.17329 0.00849477 9.87548e-23)
(-0.195136 0.0121151 6.37202e-23)
(-0.202322 0.00572916 1.76214e-23)
(-0.00751009 0.0129707 -1.77059e-22)
(-0.0304607 0.022431 0)
(-0.0619742 0.0248502 -2.43375e-22)
(-0.0887259 0.0241544 0)
(-0.115114 0.022732 -4.23531e-23)
(-0.133328 0.0199475 3.52654e-23)
(-0.156525 0.0199936 0)
(-0.163097 0.0138632 0)
(-0.183449 0.0199124 0)
(-0.185302 0.00890932 0)
(-0.00835944 0.0177871 3.55907e-22)
(-0.0311747 0.0308669 -2.58736e-22)
(-0.061507 0.0342399 -6.10256e-23)
(-0.0864973 0.0332866 -3.80493e-22)
(-0.111007 0.0312777 -3.82007e-22)
(-0.12603 0.0274318 3.55764e-23)
(-0.147217 0.0273451 -2.97044e-23)
(-0.147894 0.0188321 3.44056e-22)
(-0.166208 0.0273289 -6.11536e-26)
(-0.160329 0.0112157 3.48186e-22)
(-0.00945553 0.0222504 -3.55907e-22)
(-0.0321138 0.0387823 -3.34353e-22)
(-0.0609154 0.0430875 9.18005e-23)
(-0.0835901 0.0418942 5.07792e-22)
(-0.105622 0.0392692 -4.31584e-23)
(-0.116433 0.0344451 5.65466e-22)
(-0.134976 0.0340108 0)
(-0.12773 0.0233135 -3.94067e-22)
(-0.143612 0.0342801 -8.41569e-23)
(-0.127725 0.0124912 -4.83939e-22)
(-0.0107707 0.0262848 8.9699e-23)
(-0.0332667 0.0460503 5.56092e-22)
(-0.0602205 0.0512488 -4.29781e-22)
(-0.0800524 0.0498348 -3.15613e-25)
(-0.0990117 0.0465408 -3.85064e-22)
(-0.104637 0.0408822 1.42772e-22)
(-0.119874 0.039737 -5.96634e-23)
(-0.102594 0.0272691 4.92732e-22)
(-0.115738 0.0407052 -8.4157e-23)
(-0.087343 0.0128569 2.77024e-22)
(-0.0122742 0.029832 4.49364e-23)
(-0.0346194 0.0525598 0)
(-0.0594413 0.0585872 -1.58591e-24)
(-0.0759342 0.0569723 0)
(-0.0912112 0.0529264 6.82976e-22)
(-0.0907377 0.0466546 -5.65918e-22)
(-0.101909 0.0442298 0)
(-0.0723847 0.0307212 -1.23265e-24)
(-0.0824693 0.0464056 0)
(-0.0381374 0.0129632 0)
(-0.0139348 0.0328525 -7.24449e-22)
(-0.0361547 0.0582173 -7.48211e-23)
(-0.058589 0.0649762 5.54435e-22)
(-0.0712783 0.063177 1.02778e-22)
(-0.0822142 0.0582649 -6.86836e-22)
(-0.0748072 0.051694 -4.23771e-22)
(-0.0809251 0.0471426 -5.9941e-23)
(-0.0369108 0.0338003 4.88902e-22)
(-0.0434606 0.0506614 -8.44097e-23)
(0.0221908 0.0139581 7.0125e-23)
(-0.0157227 0.0353265 8.15546e-22)
(-0.0378512 0.0629484 -6.01349e-22)
(-0.0576606 0.070303 -1.85794e-22)
(-0.0661073 0.0683255 1.02502e-22)
(-0.0719467 0.0624071 6.86737e-22)
(-0.0568569 0.0559662 6.38611e-22)
(-0.0564776 0.0480778 -6.00641e-23)
(0.00419671 0.0366899 9.77531e-23)
(0.00144392 0.0528346 -1.69228e-22)
(0.0979778 0.0163206 7.12319e-23)
(-0.0176114 0.0372535 7.3254e-22)
(-0.0396813 0.0666996 6.01674e-22)
(-0.056631 0.0744721 -8.71661e-22)
(-0.0604056 0.0723005 -1.0281e-22)
(-0.0602254 0.0652144 0)
(-0.0367982 0.0594889 0)
(-0.0277989 0.0468774 0)
(0.0520934 0.039454 -1.55003e-21)
(0.051974 0.0521525 -7.06557e-22)
(0.193121 0.0207264 5.43385e-22)
(-0.0195791 0.0386509 -1.46939e-21)
(-0.0416089 0.0694379 0)
(-0.055444 0.0774092 1.99538e-21)
(-0.0541016 0.0749948 8.25404e-22)
(-0.0467093 0.0665614 8.59075e-23)
(-0.0142214 0.0621939 0)
(0.00610978 0.0437952 -9.80948e-22)
(0.108154 0.042531 7.73553e-22)
(0.110098 0.0472137 7.06547e-22)
(0.309455 0.0278799 -5.43365e-22)
(-0.0216098 0.039551 8.29343e-22)
(-0.0435844 0.0711508 -7.59194e-23)
(-0.0539999 0.0790651 -9.99429e-22)
(-0.0470433 0.0763198 -9.29062e-22)
(-0.0309705 0.0664648 0)
(0.011793 0.0638119 1.13693e-21)
(0.0470491 0.0393177 7.20945e-25)
(0.173223 0.0467441 6.67704e-22)
(0.181431 0.0383516 7.92592e-22)
(0.445485 0.0368772 -5.38972e-22)
(-0.0236923 0.039998 4.03233e-26)
(-0.0455398 0.0718447 1.30086e-21)
(-0.0521386 0.0794179 -1.25702e-22)
(-0.0389002 0.0761853 7.25101e-22)
(-0.0124861 0.0650384 4.33191e-22)
(0.0424752 0.0641328 2.88467e-22)
(0.0979103 0.0343132 9.78473e-22)
(0.247774 0.0518802 -8.67723e-22)
(0.274498 0.0296614 -5.3919e-22)
(0.59497 0.0464982 3.96953e-22)
(-0.0258196 0.0400435 0)
(-0.0473815 0.0715428 -1.07143e-21)
(-0.0496442 0.0784818 -1.26197e-22)
(-0.0291429 0.0745315 1.57723e-24)
(0.00960556 0.0623633 6.91193e-22)
(0.079383 0.0630711 -9.93841e-22)
(0.161918 0.0304313 9.72667e-22)
(0.332474 0.0564012 -9.9194e-23)
(0.395725 0.0270919 0)
(0.747345 0.0567227 0)
(-0.0279867 0.0397427 9.41345e-23)
(-0.0489794 0.0702839 -1.23614e-21)
(-0.0462185 0.0763118 0)
(-0.0170634 0.0714136 -1.02513e-22)
(0.0365496 0.058595 8.62829e-23)
(0.124698 0.0605226 0)
(0.241464 0.0297259 -9.74494e-22)
(0.428924 0.059233 -7.67923e-22)
(0.54243 0.0338493 1.67267e-22)
(0.89031 0.0682966 -1.40568e-22)
(-0.0301853 0.0391449 -9.45719e-23)
(-0.050164 0.0681254 1.31377e-21)
(-0.0414381 0.0729822 0)
(-0.00173697 0.0670023 -9.35884e-22)
(0.0699501 0.0540819 8.63196e-23)
(0.181167 0.0568407 -1.13814e-21)
(0.337027 0.0334978 -1.17996e-22)
(0.539021 0.0618096 8.66666e-22)
(0.701179 0.0484461 0)
(1.01332 0.0809416 1.07223e-21)
(-0.0323943 0.0382894 -1.43773e-21)
(-0.0507211 0.0651362 -7.81031e-23)
(-0.0347384 0.0685919 -1.2663e-22)
(0.0180327 0.0615665 1.04742e-22)
(0.111812 0.0494264 -1.37814e-21)
(0.251682 0.0533173 1.13812e-21)
(0.446739 0.0417181 9.58094e-22)
(0.661405 0.0672076 7.6773e-22)
(0.853959 0.0670771 1.32556e-21)
(1.1104 0.0932426 -9.38046e-22)
(-0.0345777 0.0372051 1.53289e-21)
(-0.0503785 0.061385 0)
(-0.0254145 0.0632806 1.1499e-21)
(0.0437209 0.0554638 -1.05018e-22)
(0.164415 0.0454617 2.75536e-21)
(0.338228 0.0520111 0)
(0.566603 0.0536665 -9.58074e-22)
(0.78872 0.0769507 -1.94682e-24)
(0.986254 0.0865018 -1.48614e-21)
(1.18065 0.103781 1.34977e-22)
(-0.03668 0.0359081 0)
(-0.0488021 0.0569409 1.26305e-21)
(-0.012616 0.0572266 -1.02293e-21)
(0.0770425 0.0491695 0)
(0.229928 0.0432568 -1.37722e-21)
(0.440276 0.0549465 0)
(0.690567 0.0685977 9.42684e-22)
(0.910098 0.0900154 -7.65753e-22)
(1.09095 0.104838 -1.2695e-21)
(1.2271 0.111605 -1.02625e-21)
(-0.0386192 0.0343988 -1.94383e-22)
(-0.0455968 0.0518758 -1.1035e-21)
(0.00465696 0.050648 0)
(0.119865 0.0433496 0)
(0.309661 0.0440594 0)
(0.553797 0.0630507 -1.40802e-22)
(0.811133 0.0855181 -9.44732e-22)
(1.01638 0.104562 -9.66633e-23)
(1.16761 0.120977 1.26949e-21)
(1.25518 0.116013 1.15448e-21)
(-0.0402848 0.0326667 0)
(-0.0403047 0.0462631 -1.28062e-21)
(0.0275556 0.0438151 0)
(0.173994 0.0389621 0)
(0.40307 0.0489939 0)
(0.671848 0.0757836 1.39898e-22)
(0.921265 0.103072 -1.1546e-21)
(1.10289 0.119259 8.99139e-23)
(1.22006 0.133744 9.06613e-22)
(1.27175 0.116463 9.91356e-22)
(-0.0415516 0.0307059 0)
(-0.0323925 0.0401624 1.28062e-21)
(0.0573758 0.0370969 -1.04404e-21)
(0.24073 0.0372701 0)
(0.507026 0.0585261 -1.37479e-21)
(0.78667 0.0916297 0)
(1.0163 0.120089 9.23421e-22)
(1.16907 0.133058 -7.3803e-22)
(1.25398 0.142121 -1.21325e-21)
(1.29563 0.126882 -9.86522e-22)
(-0.0422772 0.0285004 1.62841e-21)
(-0.0212586 0.0336223 0)
(0.0955095 0.0310597 9.14623e-22)
(0.320182 0.0395739 1.07035e-22)
(0.61612 0.07214 2.7495e-21)
(0.891972 0.10892 0)
(1.09442 0.135882 -9.01614e-22)
(1.21711 0.144958 -1.46417e-21)
(1.27805 0.150141 -1.01721e-21)
(1.30434 0.132818 -5.283e-24)
(-0.0422877 0.026021 -1.72957e-21)
(-0.00622583 0.0267059 8.30382e-23)
(0.143273 0.0265794 1.30101e-22)
(0.410632 0.046666 -1.07609e-22)
(0.724126 0.0886083 -1.37471e-21)
(0.984016 0.126373 1.10833e-21)
(1.15604 0.150064 9.01609e-22)
(1.25113 0.155449 7.2614e-22)
(1.29187 0.156454 1.16138e-21)
(1.30719 0.138541 -1.02685e-21)
(-0.0413915 0.0232385 1.02497e-22)
(0.0134886 0.0195208 1.24807e-21)
(0.201565 0.0248447 0)
(0.508475 0.0583957 -7.48358e-22)
(0.825721 0.106597 -8.71874e-23)
(1.06145 0.143181 -1.10832e-21)
(1.20305 0.162694 1.08104e-22)
(1.27378 0.164484 6.08634e-22)
(1.29927 0.162077 0)
(1.30689 0.143522 9.13866e-22)
(-0.0393802 0.0201233 -1.05706e-22)
(0.0387728 0.0123045 -1.3322e-21)
(0.27041 0.0270884 0)
(0.608985 0.0737887 1.00523e-22)
(0.917405 0.125072 -8.74134e-23)
(1.12459 0.158958 0)
(1.23765 0.173894 -8.63729e-22)
(1.28802 0.172423 -6.9912e-22)
(1.30194 0.167032 -1.33761e-22)
(1.30345 0.148061 -1.12518e-22)
(-0.0360149 0.0166456 0)
(0.0705535 0.00555371 -1.53499e-21)
(0.348603 0.0340947 1.37658e-22)
(0.707496 0.0916075 -5.24055e-24)
(0.997489 0.143384 -6.85598e-22)
(1.17468 0.17357 -1.2134e-21)
(1.26218 0.183883 9.7417e-22)
(1.29597 0.179487 0)
(1.30132 0.171593 0)
(1.29894 0.152401 0)
(-0.0309989 0.012785 2.30496e-24)
(0.109639 0.000126926 1.28695e-21)
(0.433736 0.0458373 1.39359e-22)
(0.80033 0.11082 9.69242e-22)
(1.06562 0.161177 5.97741e-22)
(1.21338 0.187033 -1.18565e-22)
(1.27871 0.19288 8.41083e-22)
(1.29937 0.185926 -5.68185e-22)
(1.29856 0.175901 -6.38851e-22)
(1.29328 0.15661 5.13449e-22)
(-0.023951 0.00855315 7.9853e-22)
(0.156488 -0.00279233 8.98535e-23)
(0.522632 0.0615721 -1.11351e-21)
(0.885129 0.130724 -8.73128e-22)
(1.12228 0.178278 0)
(1.24242 0.199448 1.06921e-21)
(1.28902 0.201104 -1.60129e-23)
(1.29951 0.19193 7.31896e-22)
(1.2943 0.180073 4.46739e-22)
(1.28714 0.160774 -4.06976e-22)
(-0.0144015 0.00403125 -1.83782e-21)
(0.210981 -0.00194572 0)
(0.611981 0.0802753 2.24335e-21)
(0.960715 0.150892 7.67069e-22)
(1.1684 0.194625 8.803e-23)
(1.26345 0.210953 0)
(1.29458 0.208754 -8.18351e-22)
(1.29732 0.197654 6.20821e-22)
(1.28906 0.184189 4.82736e-22)
(1.28057 0.164935 -3.80838e-22)
(-0.00182044 -0.000586651 9.29821e-22)
(0.272305 0.00361499 7.25322e-22)
(0.69886 0.101045 -1.26765e-21)
(1.02675 0.171092 1.13982e-22)
(1.20511 0.210227 0)
(1.27796 0.221702 0)
(1.29654 0.216 0)
(1.29348 0.203213 -1.22429e-21)
(1.28311 0.1883 -4.8274e-22)
(1.27374 0.169107 3.8082e-22)
(0.0143105 -0.00495012 8.60549e-22)
(0.339045 0.0142358 -7.19557e-22)
(0.781004 0.123246 7.38481e-23)
(1.08343 0.191212 0)
(1.2336 0.225134 6.65927e-22)
(1.2872 0.231846 4.42445e-22)
(1.29579 0.22298 5.08386e-23)
(1.28844 0.208684 -5.35391e-23)
(1.27666 0.192438 1.15653e-22)
(1.26667 0.173299 -4.67714e-23)
(0.03437 -0.00852607 -9.76778e-22)
(0.40941 0.0296433 9.10143e-23)
(0.856839 0.146455 5.84941e-22)
(1.13124 0.21119 -1.63247e-22)
(1.25502 0.239412 -4.99515e-22)
(1.29221 0.241522 -6.28739e-22)
(1.29297 0.229802 4.97421e-23)
(1.2825 0.214119 3.02104e-22)
(1.2698 0.196618 0)
(1.25939 0.177504 -4.17009e-23)
(0.0585212 -0.0106501 -6.32679e-23)
(0.481502 0.0491684 0)
(0.925421 0.170378 6.11677e-24)
(1.17081 0.23097 0)
(1.27042 0.25314 6.49347e-22)
(1.29384 0.25085 -4.82558e-22)
(1.28857 0.236538 0)
(1.27588 0.219547 9.78032e-24)
(1.2626 0.200841 0)
(1.25188 0.181709 0)
(0.0866968 -0.0106298 -1.26452e-22)
(0.553512 0.0720469 8.26317e-22)
(0.986312 0.194797 -6.66692e-22)
(1.20286 0.250494 1.10388e-22)
(1.28072 0.266396 -2.96648e-22)
(1.29276 0.259925 -5.16646e-23)
(1.28294 0.243237 0)
(1.26869 0.22498 2.09302e-22)
(1.25509 0.205101 5.39102e-23)
(1.24415 0.185897 1.54679e-22)
(0.118593 -0.00786763 -5.32309e-22)
(0.623827 0.0976086 -3.33619e-22)
(1.03945 0.219555 -1.09812e-22)
(1.22807 0.269703 4.4085e-22)
(1.28672 0.279249 3.64672e-23)
(1.2895 0.268822 4.70678e-22)
(1.27631 0.249924 0)
(1.26101 0.230414 -2.52674e-22)
(1.24726 0.209384 4.70357e-23)
(1.23617 0.190047 -3.41093e-22)
(0.153707 -0.00196944 -5.32308e-22)
(0.69107 0.125324 3.4677e-22)
(1.08503 0.244528 -4.14255e-24)
(1.24716 0.288537 -5.13257e-22)
(1.2891 0.291759 -2.71399e-22)
(1.28446 0.27759 -2.66066e-23)
(1.26883 0.256605 2.22154e-23)
(1.25286 0.235836 2.82125e-22)
(1.23913 0.213671 -2.34993e-24)
(1.22794 0.194133 1.10992e-22)
(0.19139 0.00720684 -2.74104e-22)
(0.754097 0.154766 0)
(1.12341 0.26961 -2.99559e-22)
(1.26076 0.306946 0)
(1.2884 0.303971 -3.41827e-22)
(1.27793 0.28626 2.95057e-23)
(1.26062 0.263271 0)
(1.24427 0.241225 0)
(1.23068 0.21794 0)
(1.21944 0.198128 0)
(0.2309 0.0195768 2.40411e-22)
(0.812004 0.185557 1.16305e-22)
(1.15505 0.294692 2.99561e-22)
(1.26949 0.324895 0)
(1.28508 0.315912 0)
(1.27013 0.294841 -1.23172e-23)
(1.25173 0.2699 4.74305e-23)
(1.23525 0.246555 5.43852e-23)
(1.2219 0.222163 5.04663e-23)
(1.21068 0.202001 -8.36464e-24)
(0.271449 0.0349082 -4.3479e-24)
(0.864155 0.217331 -1.08851e-22)
(1.18039 0.319657 4.98835e-24)
(1.2739 0.342363 5.91375e-24)
(1.27949 0.327595 -9.04573e-24)
(1.26121 0.303324 3.44461e-24)
(1.24221 0.276463 -4.13983e-23)
(1.22579 0.251794 -5.08271e-23)
(1.21278 0.226305 -3.81891e-23)
(1.20168 0.205718 1.54873e-24)
(0.312238 0.0529033 0)
(0.910222 0.249748 -1.09727e-22)
(1.19983 0.344383 -3.39982e-24)
(1.27447 0.359337 6.92311e-24)
(1.27191 0.339018 1.24254e-37)
(1.25128 0.311684 -8.74684e-38)
(1.23207 0.282919 -3.72097e-23)
(1.21588 0.256905 -4.44734e-23)
(1.20332 0.230325 -3.51582e-23)
(1.19245 0.209243 0)
(0.352484 0.0732466 3.14957e-22)
(0.950113 0.282514 8.99712e-23)
(1.21375 0.368757 2.98753e-22)
(1.27161 0.375788 -1.35142e-23)
(1.26258 0.35016 0)
(1.24041 0.319883 1.05637e-23)
(1.22132 0.289225 2.43837e-23)
(1.20553 0.261852 4.7827e-23)
(1.1935 0.234174 2.71997e-23)
(1.18299 0.212555 6.68913e-24)
(0.391446 0.0956394 -2.80689e-22)
(0.983829 0.315372 0)
(1.22253 0.392654 -2.82418e-22)
(1.26566 0.391678 0)
(1.25167 0.360987 -2.87021e-23)
(1.22866 0.327872 2.38991e-23)
(1.20998 0.295332 0)
(1.19471 0.266592 0)
(1.18335 0.237812 0)
(1.17325 0.215635 0)
(0.428439 0.119805 5.56443e-22)
(1.01146 0.34808 -3.5748e-22)
(1.22656 0.415951 -6.87405e-23)
(1.25695 0.406964 -2.82511e-22)
(1.23932 0.371451 -2.6285e-22)
(1.21607 0.335594 1.83974e-23)
(1.19804 0.301189 -1.5361e-23)
(1.18342 0.271079 1.29285e-22)
(1.17287 0.24121 2.14307e-24)
(1.16317 0.218458 9.61933e-23)
(0.462851 0.145477 -5.56444e-22)
(1.03314 0.380413 -4.31801e-22)
(1.22617 0.438522 9.58348e-23)
(1.24573 0.421595 3.37877e-22)
(1.22563 0.38149 -1.62104e-23)
(1.20264 0.342987 2.83639e-22)
(1.18548 0.306742 0)
(1.17167 0.275254 -1.47385e-22)
(1.16213 0.244359 -2.30598e-23)
(1.1527 0.221029 -1.21758e-22)
(0.494151 0.172385 1.32509e-22)
(1.04906 0.412155 7.37799e-22)
(1.22169 0.460236 -4.31214e-22)
(1.23223 0.43551 -8.19001e-23)
(1.2107 0.391038 -1.97234e-22)
(1.18841 0.349982 4.28801e-23)
(1.17233 0.311934 -2.56167e-23)
(1.15948 0.279055 1.43682e-22)
(1.15111 0.247241 -2.39454e-23)
(1.14195 0.22336 6.54701e-23)
(0.5219 0.200238 6.70867e-23)
(1.05943 0.443091 0)
(1.2134 0.480962 2.67467e-23)
(1.21666 0.448642 0)
(1.19459 0.400019 3.94392e-22)
(1.17341 0.356509 -2.57245e-22)
(1.15862 0.316703 0)
(1.14692 0.282438 -1.68742e-23)
(1.13973 0.249791 0)
(1.13102 0.225328 0)
(0.545755 0.228725 -1.03069e-21)
(1.06445 0.473003 -7.99092e-23)
(1.20158 0.500565 5.26114e-22)
(1.19918 0.460913 6.05383e-23)
(1.17734 0.408346 -4.08833e-22)
(1.15769 0.362493 -1.45081e-22)
(1.14438 0.320988 -1.99921e-23)
(1.134 0.285379 8.39125e-23)
(1.12797 0.251971 -1.71088e-23)
(1.11989 0.226931 9.39243e-24)
(0.565462 0.257509 1.14736e-21)
(1.06437 0.501671 -6.91675e-22)
(1.1865 0.518906 -1.52607e-22)
(1.17991 0.472238 7.48668e-23)
(1.15907 0.41593 3.20867e-22)
(1.14133 0.367855 2.20796e-22)
(1.12963 0.324733 -1.70021e-23)
(1.12069 0.287843 -1.95761e-23)
(1.11587 0.253735 -2.37333e-23)
(1.10861 0.22812 8.56661e-24)
(0.580856 0.286239 9.5112e-22)
(1.05942 0.52887 6.71288e-22)
(1.16837 0.535837 -6.42279e-22)
(1.15904 0.482523 -6.79886e-23)
(1.1399 0.422697 0)
(1.12429 0.372511 0)
(1.11437 0.32788 0)
(1.10704 0.289789 -2.15504e-22)
(1.10346 0.255052 -5.16892e-23)
(1.09716 0.228868 2.36328e-23)
(0.591856 0.314554 -1.85169e-21)
(1.04986 0.554381 0)
(1.14741 0.551193 1.37181e-21)
(1.13678 0.491672 3.61271e-22)
(1.11987 0.428566 0)
(1.10657 0.376389 0)
(1.09864 0.330364 -1.07852e-22)
(1.09306 0.291176 8.94364e-23)
(1.09078 0.255885 5.16896e-23)
(1.08559 0.22914 -2.36319e-23)
(0.59846 0.34209 9.98276e-22)
(1.03599 0.578003 -8.01947e-23)
(1.12385 0.564803 -6.4734e-22)
(1.11325 0.499567 -3.95474e-22)
(1.099 0.433457 2.83881e-23)
(1.08824 0.379421 1.42855e-22)
(1.08249 0.332127 5.09894e-23)
(1.07877 0.291964 1.09662e-23)
(1.07787 0.256202 -4.40675e-24)
(1.07391 0.228909 2.11596e-23)
(0.600741 0.36848 -1.17427e-23)
(1.01813 0.599547 9.76541e-22)
(1.09797 0.576552 -8.55081e-23)
(1.08848 0.506043 2.09366e-22)
(1.07735 0.437293 1.00555e-22)
(1.06935 0.38154 -4.04545e-23)
(1.06596 0.333113 5.07202e-23)
(1.06421 0.292112 -1.50996e-23)
(1.06476 0.255968 -1.41112e-23)
(1.06217 0.228146 -1.49429e-23)
(0.59884 0.393359 0)
(0.996561 0.618779 -8.56795e-22)
(1.07003 0.586346 -7.38477e-23)
(1.06257 0.510975 -6.69102e-23)
(1.05501 0.439968 -1.02744e-22)
(1.04998 0.382681 -7.18091e-23)
(1.04912 0.333271 -5.36878e-23)
(1.04944 0.291585 0)
(1.05148 0.255147 0)
(1.05041 0.226816 0)
(0.592957 0.416405 8.34262e-23)
(0.97138 0.635361 -6.93596e-22)
(1.04038 0.594133 0)
(1.03568 0.514284 -8.0323e-23)
(1.03207 0.441395 9.13571e-24)
(1.03019 0.382786 0)
(1.03201 0.332554 4.83292e-23)
(1.03447 0.290348 1.04509e-22)
(1.03805 0.253706 -2.16874e-23)
(1.03866 0.224874 1.82161e-23)
(0.583316 0.437397 -6.11594e-23)
(0.942822 0.649 7.43802e-22)
(1.00927 0.599767 0)
(1.00795 0.515932 -1.02662e-22)
(1.0086 0.441488 2.2847e-24)
(1.01006 0.381797 1.47044e-22)
(1.0147 0.330922 1.7312e-23)
(1.01937 0.28837 -1.19e-22)
(1.02452 0.251609 0)
(1.02696 0.22228 -2.21793e-22)
(0.570129 0.456112 -8.47783e-22)
(0.911362 0.659578 -4.12057e-23)
(0.976877 0.603043 -8.84773e-24)
(0.979534 0.515849 7.31863e-24)
(0.984717 0.440174 1.98979e-22)
(0.989661 0.379661 -1.47045e-22)
(0.997244 0.328337 -2.11431e-22)
(1.00417 0.285619 -1.85229e-22)
(1.01092 0.248827 -3.15946e-22)
(1.01545 0.219028 1.94139e-22)
(0.55352 0.472193 8.97985e-22)
(0.877558 0.667075 0)
(0.943418 0.603832 -1.76724e-23)
(0.950571 0.513967 2.6811e-24)
(0.960517 0.437394 -5.03682e-22)
(0.969092 0.376332 0)
(0.979715 0.324768 2.11432e-22)
(0.988892 0.282058 -4.06385e-23)
(0.997362 0.245335 3.58863e-22)
(1.0044 0.215155 -3.6041e-23)
(0.533709 0.485228 0)
(0.841793 0.671342 1.08961e-22)
(0.909097 0.602071 1.44313e-23)
(0.921217 0.510219 0)
(0.936114 0.433095 3.04703e-22)
(0.948437 0.371772 0)
(0.962164 0.32019 -3.21523e-22)
(0.973597 0.277647 2.25871e-22)
(0.984015 0.241092 4.35256e-22)
(0.994124 0.21073 3.42487e-22)
(0.511179 0.495045 -2.83002e-23)
(0.804412 0.672239 -8.5732e-23)
(0.874146 0.597699 0)
(0.89163 0.504544 0)
(0.911625 0.427237 0)
(0.927787 0.365951 5.191e-23)
(0.944654 0.314582 2.34938e-22)
(0.958376 0.272361 3.61956e-23)
(0.971071 0.236039 -4.35259e-22)
(0.984503 0.205701 -3.8458e-22)
(0.486347 0.501476 0)
(0.765759 0.669653 2.03826e-22)
(0.838803 0.590674 0)
(0.861971 0.496891 0)
(0.887173 0.419789 0)
(0.907236 0.358846 -6.07881e-23)
(0.927256 0.307931 5.31182e-22)
(0.943351 0.266202 -1.213e-22)
(0.95861 0.23019 -4.18821e-22)
(0.974873 0.198572 -4.22141e-22)
(0.459624 0.504386 0)
(0.726195 0.663504 -2.03827e-22)
(0.803311 0.580969 4.48436e-22)
(0.832406 0.487225 0)
(0.862883 0.41073 7.30592e-22)
(0.886879 0.350442 0)
(0.910061 0.300222 -4.3076e-22)
(0.928634 0.259186 3.84839e-22)
(0.946384 0.224001 5.48167e-22)
(0.963959 0.193424 4.20801e-22)
(0.431421 0.503684 -3.84542e-22)
(0.686084 0.653745 0)
(0.767913 0.568573 -3.82517e-22)
(0.803104 0.475523 -5.45296e-23)
(0.838882 0.40005 -1.56558e-21)
(0.866815 0.34073 0)
(0.893161 0.29144 5.36972e-22)
(0.914292 0.251236 3.77021e-23)
(0.93451 0.216756 5.81222e-22)
(0.953471 0.186826 2.41418e-24)
(0.402147 0.499317 4.2248e-22)
(0.64579 0.64036 -3.11408e-23)
(0.732853 0.553495 -7.83745e-23)
(0.774237 0.46178 -6.48296e-23)
(0.815299 0.387751 8.34993e-22)
(0.847145 0.329716 -7.4688e-22)
(0.876638 0.281605 -5.36976e-22)
(0.900329 0.242449 -4.22546e-22)
(0.922829 0.208933 -6.56708e-22)
(0.942966 0.180004 6.09029e-22)
(0.372208 0.49127 -5.1011e-23)
(0.605675 0.623361 -7.89542e-22)
(0.69837 0.535762 0)
(0.745975 0.446006 5.66432e-22)
(0.792265 0.373847 6.23488e-23)
(0.827973 0.317408 7.46884e-22)
(0.860583 0.270715 -7.41305e-23)
(0.886816 0.232776 -4.32558e-22)
(0.91149 0.200327 0)
(0.932763 0.172487 -5.43354e-22)
(0.342 0.47957 5.9248e-23)
(0.566096 0.602792 8.31418e-22)
(0.664701 0.515417 0)
(0.718489 0.428228 -1.34328e-23)
(0.769907 0.35836 6.91431e-23)
(0.809402 0.303828 0)
(0.845072 0.258799 6.85865e-22)
(0.873788 0.222271 4.94607e-22)
(0.90051 0.191069 9.40806e-23)
(0.922911 0.164432 -7.9025e-23)
(0.31191 0.464278 0)
(0.527401 0.578725 1.26436e-21)
(0.632074 0.492525 -1.1192e-22)
(0.691947 0.408485 6.73201e-23)
(0.748355 0.341327 6.13391e-22)
(0.791534 0.289007 1.06015e-21)
(0.830185 0.245878 -7.78293e-22)
(0.861307 0.21094 0)
(0.88996 0.181139 0)
(0.913494 0.155797 0)
(0.282311 0.445492 2.42703e-24)
(0.489926 0.551261 -1.04902e-21)
(0.600714 0.467166 1.25465e-22)
(0.666513 0.386836 -8.77529e-22)
(0.727735 0.322795 -5.31391e-22)
(0.774467 0.272984 1.79815e-22)
(0.815997 0.231989 -7.83348e-22)
(0.849425 0.198821 5.1647e-22)
(0.879892 0.170576 5.56055e-22)
(0.904566 0.146617 -4.32974e-22)
(0.253563 0.423349 -7.40036e-22)
(0.453991 0.520522 -8.23628e-23)
(0.570833 0.43944 1.15664e-21)
(0.642345 0.363353 9.04025e-22)
(0.708167 0.302823 0)
(0.758299 0.255808 -1.01124e-21)
(0.802582 0.217171 -4.10042e-23)
(0.8382 0.185947 -6.64722e-22)
(0.87036 0.159401 -3.89897e-22)
(0.896174 0.136911 3.44519e-22)
(0.226005 0.398032 1.77464e-21)
(0.419893 0.486647 0)
(0.542639 0.409459 -2.39783e-21)
(0.619595 0.338122 -7.9124e-22)
(0.689772 0.281481 -9.36241e-23)
(0.74312 0.237535 0)
(0.79001 0.201472 8.1625e-22)
(0.827687 0.172359 -6.48413e-22)
(0.861416 0.147645 -4.91584e-22)
(0.888356 0.126711 3.74818e-22)
(0.199951 0.369761 -9.34263e-22)
(0.38791 0.449795 -8.23109e-22)
(0.51633 0.377351 1.39633e-21)
(0.598409 0.311245 -1.28333e-22)
(0.67266 0.258847 0)
(0.729019 0.218232 0)
(0.778348 0.184944 0)
(0.817938 0.158099 1.32186e-21)
(0.853108 0.135342 4.91586e-22)
(0.881148 0.116051 -3.74818e-22)
(0.175672 0.338756 -9.70846e-22)
(0.358308 0.410177 8.2003e-22)
(0.492098 0.343259 8.63346e-23)
(0.578923 0.282834 0)
(0.656937 0.235013 -8.08165e-22)
(0.716078 0.197972 -5.38529e-22)
(0.767659 0.167649 -5.97676e-23)
(0.809002 0.143217 1.04492e-22)
(0.845484 0.122531 -1.30464e-22)
(0.87458 0.104968 5.2018e-23)
(0.153405 0.305223 1.10225e-21)
(0.331342 0.368046 -1.10617e-22)
(0.470119 0.307348 -9.04945e-22)
(0.561264 0.253019 2.01156e-22)
(0.642702 0.210078 6.01698e-22)
(0.704372 0.176836 7.66131e-22)
(0.758002 0.14965 -6.1869e-23)
(0.800928 0.127766 -3.37906e-22)
(0.838584 0.109254 0)
(0.868679 0.0935038 4.88238e-23)
(0.133376 0.269389 7.55855e-23)
(0.307239 0.323667 0)
(0.450544 0.269797 -2.84982e-23)
(0.545549 0.221937 0)
(0.630042 0.18415 -8.64085e-22)
(0.693971 0.15491 6.48795e-22)
(0.749428 0.131018 0)
(0.793758 0.1118 8.97426e-24)
(0.832451 0.0955572 0)
(0.863469 0.0817029 0)
(0.115795 0.231513 1.56748e-22)
(0.286198 0.277309 -1.06847e-21)
(0.433511 0.2308 8.48806e-22)
(0.531881 0.189737 -1.45816e-22)
(0.619039 0.157345 3.74106e-22)
(0.684936 0.132288 1.02438e-22)
(0.741986 0.111828 0)
(0.787532 0.0953821 -2.78861e-22)
(0.82712 0.0814911 -7.41907e-23)
(0.858969 0.0696112 -2.14214e-22)
(0.100849 0.191877 6.7048e-22)
(0.268394 0.229251 -1.58471e-21)
(0.419134 0.190562 1.45972e-22)
(0.520349 0.156576 -6.09455e-22)
(0.60976 0.129786 -6.84033e-23)
(0.677322 0.109067 -6.64303e-22)
(0.735718 0.0921599 0)
(0.782286 0.0785762 3.81342e-22)
(0.822623 0.0671085 -6.8007e-23)
(0.855195 0.0572754 4.88839e-22)
(0.0886966 0.150779 -6.7048e-22)
(0.253973 0.179787 5.81332e-22)
(0.407514 0.149295 -1.00872e-22)
(0.511031 0.122619 7.14932e-22)
(0.602265 0.101602 3.92276e-22)
(0.671174 0.0853512 4.06173e-23)
(0.730659 0.0720957 -3.39133e-23)
(0.77805 0.0614501 -4.27054e-22)
(0.81899 0.0524656 3.86211e-24)
(0.852161 0.0447425 -1.62388e-22)
(0.0794678 0.10853 3.5084e-22)
(0.243053 0.129217 0)
(0.398728 0.107221 4.14333e-22)
(0.503988 0.088036 0)
(0.596602 0.0729269 5.50565e-23)
(0.66653 0.0612457 -4.5843e-23)
(0.726838 0.0517206 0)
(0.77485 0.0440733 0)
(0.816243 0.03762 0)
(0.849877 0.0320603 0)
(0.0732604 0.0654517 -3.07347e-22)
(0.235722 0.0778501 -1.18299e-22)
(0.392838 0.0645665 -4.14333e-22)
(0.499267 0.0530028 0)
(0.592807 0.0438983 0)
(0.663418 0.03686 2.07252e-23)
(0.724279 0.0311222 -8.26697e-23)
(0.772706 0.0265163 -9.80131e-23)
(0.8144 0.0226298 -9.1337e-23)
(0.84835 0.0192755 1.47341e-23)
(0.0701401 0.021873 -5.56408e-24)
(0.232042 0.0260035 1.27618e-22)
(0.389882 0.0215612 -5.70588e-24)
(0.496898 0.0176978 1.96825e-23)
(0.590903 0.0146565 -7.75381e-24)
(0.661858 0.0123055 0)
(0.722995 0.010389 6.53653e-23)
(0.77163 0.00885083 9.80131e-23)
(0.813475 0.00755289 6.93944e-23)
(0.847585 0.00643155 1.03537e-23)
(0.0701401 -0.021873 -5.56408e-24)
(0.232042 -0.0260035 1.27618e-22)
(0.389882 -0.0215612 -5.70588e-24)
(0.496898 -0.0176978 1.96825e-23)
(0.590903 -0.0146565 -7.75381e-24)
(0.661858 -0.0123055 0)
(0.722995 -0.010389 5.75822e-23)
(0.77163 -0.00885083 1.04527e-22)
(0.813475 -0.00755289 7.3795e-23)
(0.847585 -0.00643155 0)
(0.0732604 -0.0654517 -3.94332e-22)
(0.235722 -0.0778501 -1.53434e-22)
(0.392838 -0.0645665 -4.39206e-22)
(0.499267 -0.0530028 2.05742e-23)
(0.592807 -0.0438983 0)
(0.663418 -0.03686 -2.07252e-23)
(0.724279 -0.0311222 -4.80608e-23)
(0.772706 -0.0265163 -9.80131e-23)
(0.8144 -0.0226298 -5.62529e-23)
(0.84835 -0.0192755 -1.47341e-23)
(0.0794678 -0.10853 3.5084e-22)
(0.243053 -0.129217 0)
(0.398728 -0.107221 4.14333e-22)
(0.503988 -0.088036 0)
(0.596602 -0.0729269 5.50565e-23)
(0.66653 -0.0612457 -4.5843e-23)
(0.726838 -0.0517206 0)
(0.77485 -0.0440733 0)
(0.816243 -0.03762 0)
(0.849877 -0.0320603 0)
(0.0886966 -0.150779 -6.7048e-22)
(0.253973 -0.179787 4.54057e-22)
(0.407514 -0.149295 1.00872e-22)
(0.511031 -0.122619 4.89563e-22)
(0.602265 -0.101602 5.12828e-22)
(0.671174 -0.0853512 -4.06173e-23)
(0.730659 -0.0720957 3.39133e-23)
(0.77805 -0.0614501 -3.3563e-22)
(0.81899 -0.0524656 -3.86211e-24)
(0.852161 -0.0447425 -2.72619e-22)
(0.100849 -0.191877 6.7048e-22)
(0.268394 -0.229251 5.49323e-22)
(0.419134 -0.190562 -1.45972e-22)
(0.520349 -0.156576 -5.95038e-22)
(0.60976 -0.129786 4.98357e-23)
(0.677322 -0.109067 -6.64303e-22)
(0.735718 -0.0921599 0)
(0.782286 -0.0785762 3.81342e-22)
(0.822623 -0.0671085 6.8007e-23)
(0.855195 -0.0572754 3.74596e-22)
(0.115795 -0.231513 -1.56748e-22)
(0.286198 -0.277309 1.06847e-21)
(0.433511 -0.2308 6.6428e-22)
(0.531881 -0.189737 1.45816e-22)
(0.619039 -0.157345 4.67537e-22)
(0.684936 -0.132288 -1.49704e-22)
(0.741986 -0.111828 6.53573e-23)
(0.787532 -0.0953821 -4.55754e-22)
(0.82712 -0.0814911 7.41907e-23)
(0.858969 -0.0696112 -2.14214e-22)
(0.133376 -0.269389 -7.55855e-23)
(0.307239 -0.323667 0)
(0.450544 -0.269797 -2.84982e-23)
(0.545549 -0.221937 0)
(0.630042 -0.18415 -8.64085e-22)
(0.693971 -0.15491 6.48795e-22)
(0.749428 -0.131018 0)
(0.793758 -0.1118 8.97426e-24)
(0.832451 -0.0955572 0)
(0.863469 -0.0817029 0)
(0.153405 -0.305223 1.10225e-21)
(0.331342 -0.368046 1.10617e-22)
(0.470119 -0.307348 -6.36903e-22)
(0.561264 -0.253019 -1.30212e-22)
(0.642702 -0.210078 1.01464e-21)
(0.704372 -0.176836 4.54095e-22)
(0.758002 -0.14965 6.1869e-23)
(0.800928 -0.127766 -4.22144e-22)
(0.838584 -0.109254 7.06611e-23)
(0.868679 -0.0935038 -4.88238e-23)
(0.175672 -0.338756 -1.23366e-21)
(0.358308 -0.410177 8.26193e-22)
(0.492098 -0.343259 7.74002e-23)
(0.578923 -0.282834 -1.35438e-22)
(0.656937 -0.235013 -8.08165e-22)
(0.716078 -0.197972 -6.81694e-22)
(0.767659 -0.167649 5.97676e-23)
(0.809002 -0.143217 -5.89131e-23)
(0.845484 -0.122531 1.30464e-22)
(0.87458 -0.104968 -5.2018e-23)
(0.199951 -0.369761 -9.34263e-22)
(0.38791 -0.449795 -8.23109e-22)
(0.51633 -0.377351 1.08604e-21)
(0.598409 -0.311245 1.28333e-22)
(0.67266 -0.258847 0)
(0.729019 -0.218232 0)
(0.778348 -0.184944 0)
(0.817938 -0.158099 1.32186e-21)
(0.853108 -0.135342 4.91586e-22)
(0.881148 -0.116051 -3.74818e-22)
(0.226005 -0.398032 1.77464e-21)
(0.419893 -0.486647 0)
(0.542639 -0.409459 -2.39783e-21)
(0.619595 -0.338122 -9.04029e-22)
(0.689772 -0.281481 0)
(0.74312 -0.237535 0)
(0.79001 -0.201472 8.1625e-22)
(0.827687 -0.172359 -6.48413e-22)
(0.861416 -0.147645 -4.91584e-22)
(0.888356 -0.126711 3.74818e-22)
(0.253563 -0.423349 -9.4071e-22)
(0.453991 -0.520522 8.23628e-23)
(0.570833 -0.43944 1.15664e-21)
(0.642345 -0.363353 1.01002e-21)
(0.708167 -0.302823 -8.79878e-23)
(0.758299 -0.255808 -1.01124e-21)
(0.802582 -0.217171 -4.10042e-23)
(0.8382 -0.185947 -5.19637e-22)
(0.87036 -0.159401 -5.11598e-22)
(0.896174 -0.136911 3.44519e-22)
(0.282311 -0.445492 -2.42703e-24)
(0.489926 -0.551261 -1.20802e-21)
(0.600714 -0.467166 -1.25465e-22)
(0.666513 -0.386836 -6.7995e-22)
(0.727735 -0.322795 -5.41903e-22)
(0.774467 -0.272984 -1.84078e-22)
(0.815997 -0.231989 -7.67131e-22)
(0.849425 -0.198821 6.67884e-22)
(0.879892 -0.170576 3.45437e-22)
(0.904566 -0.146617 -2.56064e-22)
(0.31191 -0.464278 0)
(0.527401 -0.578725 9.92676e-22)
(0.632074 -0.492525 1.1192e-22)
(0.691947 -0.408485 6.73201e-23)
(0.748355 -0.341327 6.13391e-22)
(0.791534 -0.289007 8.38766e-22)
(0.830185 -0.245878 -6.78702e-22)
(0.861307 -0.21094 7.13598e-23)
(0.88996 -0.181139 0)
(0.913494 -0.155797 0)
(0.342 -0.47957 -5.9248e-23)
(0.566096 -0.602792 8.31418e-22)
(0.664701 -0.515417 0)
(0.718489 -0.428228 1.53161e-22)
(0.769907 -0.35836 -6.91431e-23)
(0.809402 -0.303828 0)
(0.845072 -0.258799 6.85865e-22)
(0.873788 -0.222271 4.94608e-22)
(0.90051 -0.191069 -9.40806e-23)
(0.922911 -0.164432 7.9025e-23)
(0.372208 -0.49127 5.1011e-23)
(0.605675 -0.623361 -8.73287e-22)
(0.69837 -0.535762 0)