/*--------------------------------*- C++ -*----------------------------------*\
  =========                 |
  \\      /  F ield         | OpenFOAM: The Open Source CFD Toolbox
   \\    /   O peration     | Website:  https://openfoam.org
    \\  /    A nd           | Version:  7
     \\/     M anipulation  |
\*---------------------------------------------------------------------------*/
FoamFile
{
    version     2.0;
    format      ascii;
    class       volScalarField;
    location    "0.9";
    object      T;
}
// * * * * * * * * * * * * * * * * * * * * * * * * * * * * * * * * * * * * * //

dimensions      [0 0 0 1 0 0 0];

internalField   nonuniform List<scalar> 
25200
(
1
1
1
1
1
1
1
1
1
1
1
1
1
1
1
1
1
1
1
1
1
1
1
1
1
1
1
1
1
1
1
1
1
1
2.04184
2.79136
2.79284
2.78394
2.78091
2.78396
2.79864
2.82236
2.84209
2.84986
2.84724
2.84265
2.8418
2.84648
2.85687
2.86824
2.87653
2.88191
2.88695
2.89499
2.9109
2.94298
3.00625
3.10089
3.18653
3.22084
1
1
1
1
1
1
1
1
1
1
1
1
1
1
1
1
1
1
1
1
1
1
1
1
1
1
1
1
1
1
1
1
1
1
2.03314
2.78966
2.79168
2.78271
2.78049
2.78375
2.79865
2.8223
2.84183
2.84932
2.84666
2.84228
2.84174
2.84652
2.85695
2.86821
2.87634
2.88154
2.88643
2.89448
2.91053
2.94292
3.00666
3.10137
3.18665
3.22074
1
1
1
1
1
1
1
1
1
1
1
1
1
1
1
1
1
1
1
1
1
1
1
1
1
1
1
1
1
1
1
1
1
1
2.01475
2.78899
2.78856
2.77938
2.77861
2.78284
2.79859
2.82231
2.84152
2.84846
2.84563
2.84148
2.84134
2.84639
2.85702
2.86822
2.87612
2.88098
2.88562
2.89383
2.91035
2.94356
3.00848
3.10346
3.18788
3.22127
1
1
1
1
1
1
1
1
1
1
1
1
1
1
1
1
1
1
1
1
1
1
1
1
1
1
1
1
1
1
1
1
1
1
1.98077
2.78457
2.78344
2.77508
2.77571
2.7816
2.79846
2.82209
2.84083
2.84709
2.84408
2.84013
2.84034
2.84589
2.85677
2.86796
2.8756
2.88006
2.88438
2.89282
2.90997
2.94435
3.01097
3.10665
3.19008
3.22247
1
1
1
1
1
1
1
1
1
1
1
1
1
1
1
1
1
1
1
1
1
1
1
1
1
1
1
1
1
1
1
1
1
1
1.92949
2.77524
2.77667
2.77037
2.77178
2.77933
2.79755
2.82123
2.83975
2.84531
2.84215
2.83836
2.83883
2.84479
2.85593
2.86717
2.87465
2.87874
2.88274
2.89139
2.9092
2.94468
3.0129
3.10946
3.1922
3.22373
1
1
1
1
1
1
1
1
1
1
1
1
1
1
1
1
1
1
1
1
1
1
1
1
1
1
1
1
1
1
1
1
1
1
1.86452
2.75775
2.77094
2.76511
2.7671
2.77638
2.79641
2.82033
2.83849
2.84307
2.8397
2.83608
2.83676
2.843
2.85433
2.86564
2.87303
2.87691
2.88069
2.88949
2.90785
2.9442
3.01357
3.11081
3.1932
3.22422
1
1
1
1
1
1
1
1
1
1
1
1
1
1
1
1
1
1
1
1
1
1
1
1
1
1
1
1
1
1
1
1
1
1
1.7849
2.73214
2.76561
2.75933
2.76186
2.77358
2.79578
2.81976
2.83684
2.84006
2.83651
2.83321
2.83419
2.84074
2.85216
2.86338
2.87058
2.87434
2.87811
2.88709
2.90576
2.94259
3.01276
3.11068
3.19305
3.22386
1
1
1
1
1
1
1
1
1
1
1
1
1
1
1
1
1
1
1
1
1
1
1
1
1
1
1
1
1
1
1
1
1
1
1.69617
2.69978
2.75665
2.75081
2.75643
2.77248
2.79645
2.8197
2.83455
2.83599
2.83232
2.82955
2.83111
2.83811
2.8496
2.86056
2.86737
2.871
2.87498
2.88422
2.90293
2.93964
3.01013
3.10885
3.19173
3.22267
1
1
1
1
1
1
1
1
1
1
1
1
1
1
1
1
1
1
1
1
1
1
1
1
1
1
1
1
1
1
1
1
1
1
1.592
2.6538
2.74165
2.74122
2.75338
2.77417
2.79868
2.81982
2.83122
2.83065
2.82668
2.82473
2.8273
2.83503
2.84667
2.85733
2.86356
2.86695
2.87124
2.88073
2.89921
2.93521
3.00532
3.1047
3.18876
3.22044
1
1
1
1
1
1
1
1
1
1
1
1
1
1
1
1
1
1
1
1
1
1
1
1
1
1
1
1
1
1
1
1
1
1
1.458
2.58035
2.72169
2.73578
2.75523
2.77852
2.80155
2.81881
2.82635
2.82432
2.81988
2.81874
2.82252
2.83127
2.84322
2.85359
2.85924
2.8624
2.86701
2.87664
2.89456
2.9294
2.99851
3.09824
3.18379
3.21657
1
1
1
1
1
1
1
1
1
1
1
1
1
1
1
1
1
1
1
1
1
1
1
1
1
1
1
1
1
1
1
1
1
1
1.28061
2.47964
2.70863
2.73691
2.76064
2.7841
2.80374
2.81595
2.8195
2.81638
2.812
2.81162
2.81672
2.82675
2.83904
2.8491
2.85436
2.85738
2.86219
2.87169
2.88876
2.92218
2.9899
3.08965
3.17678
3.21082
1
1
1
1
1
1
1
1
1
1
1
1
1
1
1
1
1
1
1
1
1
1
1
1
1
1
1
1
1
1
1
1
1
1
1.07386
2.36063
2.70815
2.74507
2.76668
2.78699
2.80117
2.80847
2.81004
2.80699
2.80406
2.80483
2.81098
2.82183
2.8338
2.84356
2.84873
2.85181
2.8567
2.86582
2.88176
2.91364
2.97961
3.079
3.16751
3.20271
1
1
1
1
1
1
1
1
1
1
1
1
1
1
1
1
1
1
1
1
1
1
1
1
1
1
1
1
1
1
1
1
1
1
1.0014
2.23792
2.70707
2.75465
2.77074
2.78498
2.793
2.79689
2.79843
2.79681
2.7966
2.79947
2.80616
2.81689
2.8277
2.83698
2.84216
2.84538
2.85015
2.85848
2.87299
2.90321
2.96724
3.06612
3.15609
3.19248
1
1
1
1
1
1
1
1
1
1
1
1
1
1
1
1
1
1
1
1
1
1
1
1
1
1
1
1
1
1
1
1
1
1
1
2.08501
2.70931
2.75984
2.76793
2.77604
2.77911
2.78193
2.78481
2.78642
2.78969
2.79525
2.80291
2.81236
2.82122
2.82944
2.83455
2.83801
2.84264
2.84997
2.86279
2.89114
2.95274
3.05067
3.14192
3.17929
1
1
1
1
1
1
1
1
1
1
1
1
1
1
1
1
1
1
1
1
1
1
1
1
1
1
1
1
1
1
1
1
1
1
1
1.90921
2.69099
2.75534
2.75651
2.7611
2.7627
2.76535
2.76961
2.77539
2.78337
2.79171
2.80035
2.80802
2.81431
2.82079
2.82573
2.82971
2.83431
2.84023
2.85087
2.87643
2.93482
3.03157
3.12468
3.16373
1
1
1
1
1
1
1
1
1
1
1
1
1
1
1
1
1
1
1
1
1
1
1
1
1
1
1
1
1
1
1
1
1
1
1
1.68574
2.62201
2.73756
2.73796
2.74401
2.74653
2.74995
2.75644
2.76659
2.77878
2.78888
2.79711
2.80229
2.80601
2.81076
2.8155
2.82035
2.82518
2.8295
2.83801
2.86022
2.91443
3.0087
3.1029
3.14296
1
1
1
1
1
1
1
1
1
1
1
1
1
1
1
1
1
1
1
1
1
1
1
1
1
1
1
1
1
1
1
1
1
1
1
1.39704
2.50957
2.71409
2.71979
2.73037
2.73557
2.74083
2.74906
2.76095
2.77401
2.78516
2.79241
2.79524
2.79647
2.79929
2.80354
2.80916
2.81437
2.81803
2.82407
2.84135
2.88896
2.97905
3.07427
3.11743
1
1
1
1
1
1
1
1
1
1
1
1
1
1
1
1
1
1
1
1
1
1
1
1
1
1
1
1
1
1
1
1
1
1
1
1.10333
2.37997
2.70848
2.70993
2.7167
2.72285
2.7307
2.74193
2.75597
2.76945
2.78034
2.78591
2.78652
2.78585
2.78646
2.78982
2.79572
2.80129
2.80463
2.80825
2.82055
2.86117
2.94553
3.03851
3.07729
1
1
1
1
1
1
1
1
1
1
1
1
1
1
1
1
1
1
1
1
1
1
1
1
1
1
1
1
1
1
1
1
1
1
1
1.00267
2.24363
2.68969
2.70318
2.71399
2.7226
2.73117
2.74132
2.75275
2.76425
2.77303
2.77657
2.77601
2.77398
2.773
2.7751
2.78051
2.78596
2.78877
2.79001
2.79676
2.82646
2.89724
2.98426
3.02345
1
1
1
1
1
1
1
1
1
1
1
1
1
1
1
1
1
1
1
1
1
1
1
1
1
1
1
1
1
1
1
1
1
1
1
1.00001
2.05918
2.67428
2.70116
2.71085
2.72086
2.72998
2.73952
2.74882
2.75738
2.76308
2.76414
2.76262
2.75964
2.75795
2.75958
2.76426
2.76874
2.76957
2.76778
2.7686
2.78635
2.84327
2.92757
2.98517
1
1
1
1
1
1
1
1
1
1
1
1
1
1
1
1
1
1
1
1
1
1
1
1
1
1
1
1
1
1
1
1
1
1
1
1
1.76877
2.59938
2.6912
2.70144
2.71379
2.72367
2.73284
2.74063
2.74647
2.74908
2.74801
2.74561
2.74285
2.74188
2.74376
2.74764
2.75018
2.7484
2.74249
2.73738
2.74286
2.76733
2.78118
2.71673
1
1
1
1
1
1
1
1
1
1
1
1
1
1
1
1
1
1
1
1
1
1
1
1
1
1
1
1
1
1
1
1
1
1
1
1
1.36261
2.46755
2.68487
2.68875
2.69837
2.70806
2.71757
2.72551
2.73097
2.73282
2.73156
2.72887
2.72607
2.72523
2.72709
2.73031
2.73107
2.72694
2.71662
2.70291
2.69172
2.67998
2.66264
2.53298
1
1
1
1
1
1
1
1
1
1
1
1
1
1
1
1
1
1
1
1
1
1
1
1
1
1
1
1
1
1
1
1
1
1
1
1
1.03087
2.32778
2.67591
2.67174
2.67914
2.68785
2.69707
2.70544
2.71194
2.71449
2.71393
2.71224
2.71071
2.71051
2.71185
2.71351
2.71205
2.70494
2.69043
2.66972
2.64424
2.61513
2.55176
2.3988
1
1
1
1
1
1
1
1
1
1
1
1
1
1
1
1
1
1
1
1
1
1
1
1
1
1
1
1
1
1
1
1
1
1
1
1
1.00022
2.12223
2.65151
2.66389
2.67046
2.67671
2.68381
2.69106
2.6974
2.70045
2.70007
2.69827
2.69673
2.69644
2.69686
2.69678
2.69325
2.68338
2.66542
2.63969
2.6037
2.55896
2.46965
2.33659
1
1
1
1
1
1
1
1
1
1
1
1
1
1
1
1
1
1
1
1
1
1
1
1
1
1
1
1
1
1
1
1
1
1
1
1
1
1.78113
2.58307
2.65264
2.66043
2.66673
2.67285
2.6793
2.68482
2.68813
2.68819
2.68648
2.68438
2.68335
2.6821
2.67983
2.67366
2.66158
2.64153
2.61234
2.57104
2.51485
2.42107
2.3027
1
1
1
1
1
1
1
1
1
1
1
1
1
1
1
1
1
1
1
1
1
1
1
1
1
1
1
1
1
1
1
1
1
1
1
1
1
1.30291
2.43688
2.65547
2.65146
2.6547
2.6612
2.66797
2.67299
2.67647
2.67733
2.67569
2.6729
2.67072
2.66769
2.66301
2.6539
2.63948
2.61811
2.58713
2.54388
2.48294
2.39452
2.29487
1
1
1
1
1
1
1
1
1
1
1
1
1
1
1
1
1
1
1
1
1
1
1
1
1
1
1
1
1
1
1
1
1
1
1
1
1
1.02018
2.27132
2.63007
2.63482
2.64068
2.64741
2.65396
2.65874
2.66303
2.66572
2.66487
2.66177
2.65802
2.65334
2.64637
2.63457
2.61753
2.59454
2.56286
2.52045
2.4599
2.38087
2.29395
1
1
1
1
1
1
1
1
1
1
1
1
1
1
1
1
1
1
1
1
1
1
1
1
1
1
1
1
1
1
1
1
1
1
1
1
1
1.00008
1.95753
2.58565
2.62264
2.63027
2.63575
2.64037
2.6435
2.64729
2.65085
2.65129
2.64884
2.64423
2.63816
2.62936
2.61561
2.59626
2.57148
2.53928
2.49915
2.44179
2.37346
2.29671
1
1
1
1
1
1
1
1
1
1
1
1
1
1
1
1
1
1
1
1
1
1
1
1
1
1
1
1
1
1
1
1
1
1
1
1
1
1
1.46916
2.47482
2.61824
2.61835
2.62081
2.62344
2.62527
2.62868
2.63268
2.63492
2.63337
2.62893
2.62188
2.61208
2.59721
2.5765
2.55035
2.51752
2.47944
2.42704
2.36803
2.29919
1
1
1
1
1
1
1
1
1
1
1
1
1
1
1
1
1
1
1
1
1
1
1
1
1
1
1
1
1
1
1
1
1
1
1
1
1
1
1.04919
2.30466
2.60448
2.60203
2.60387
2.60612
2.60684
2.60936
2.61299
2.61646
2.61585
2.61206
2.60428
2.59363
2.5782
2.55747
2.53128
2.49863
2.46144
2.41488
2.36263
2.30125
1
1
1
1
1
1
1
1
1
1
1
1
1
1
1
1
1
1
1
1
1
1
1
1
1
1
1
1
1
1
1
1
1
1
1
1
1
1
1.00046
1.97473
2.55463
2.5853
2.59007
2.59274
2.59239
2.59337
2.59549
2.59804
2.59727
2.59359
2.58522
2.57451
2.55925
2.53952
2.51449
2.48331
2.44724
2.40569
2.35804
2.30352
1
1
1
1
1
1
1
1
1
1
1
1
1
1
1
1
1
1
1
1
1
1
1
1
1
1
1
1
1
1
1
1
1
1
1
1
1
1
0.999999
1.41865
2.43604
2.57975
2.57594
2.5763
2.57615
2.57679
2.57885
2.58063
2.57963
2.57541
2.56646
2.55508
2.5403
2.52158
2.49854
2.46953
2.43579
2.39806
2.35391
2.30637
1
1
1
1
1
1
1
1
1
1
1
1
1
1
1
1
1
1
1
1
1
1
1
1
1
1
1
1
1
1
1
1
1
1
1
1
1
1
1
1.03645
2.24631
2.56376
2.56019
2.55914
2.55951
2.56063
2.563
2.56446
2.56353
2.55926
2.54994
2.53765
2.52283
2.50469
2.48354
2.45723
2.427
2.39277
2.35313
2.31023
1
1
1
1
1
1
1
1
1
1
1
1
1
1
1
1
1
1
1
1
1
1
1
1
1
1
1
1
1
1
1
1
1
1
1
1
1
1
1
1.00023
1.81545
2.50004
2.54704
2.54488
2.54537
2.5458
2.54709
2.54706
2.54623
2.5428
2.53434
2.52206
2.50696
2.48898
2.46862
2.44469
2.41779
2.38669
2.3516
2.31313
1
1
1
1
1
1
1
1
1
1
1
1
1
1
1
1
1
1
1
1
1
1
1
1
1
1
1
1
1
1
1
1
1
1
1
1
1
1
1
1
1.17273
2.33356
2.54034
2.53261
2.53189
2.53075
2.53044
2.52966
2.52927
2.52721
2.52051
2.50896
2.49371
2.47551
2.455
2.43273
2.40843
2.38061
2.34965
2.31504
1
1
1
1
1
1
1
1
1
1
1
1
1
1
1
1
1
1
1
1
1
1
1
1
1
1
1
1
1
1
1
1
1
1
1
1
1
1
1
1
1.00573
2.03918
2.4948
2.51348
2.51339
2.51436
2.51455
2.51343
2.51332
2.51206
2.50698
2.49678
2.4819
2.46354
2.44257
2.42084
2.39789
2.37267
2.34536
2.31432
1
1
1
1
1
1
1
1
1
1
1
1
1
1
1
1
1
1
1
1
1
1
1
1
1
1
1
1
1
1
1
1
1
1
1
1
1
1
1
1
1
1.4191
2.37624
2.50855
2.49776
2.49634
2.49656
2.49577
2.4963
2.49584
2.49244
2.48405
2.47021
2.45222
2.43133
2.40941
2.38705
2.36426
2.3398
2.31218
1
1
1
1
1
1
1
1
1
1
1
1
1
1
1
1
1
1
1
1
1
1
1
1
1
1
1
1
1
1
1
1
1
1
1
1
1
1
1
1
1
1.03461
2.1563
2.47741
2.47694
2.47636
2.47752
2.47862
2.48058
2.48031
2.47791
2.47073
2.45786
2.44036
2.41998
2.39849
2.37674
2.355
2.33228
2.30753
1
1
1
1
1
1
1
1
1
1
1
1
1
1
1
1
1
1
1
1
1
1
1
1
1
1
1
1
1
1
1
1
1
1
1
1
1
1
1
1
1
1.00021
1.58579
2.3798
2.47206
2.46294
2.46264
2.4632
2.46442
2.46318
2.46073
2.45514
2.44409
2.42767
2.40807
2.38749
2.36677
2.34607
2.32474
2.30184
1
1
1
1
1
1
1
1
1
1
1
1
1
1
1
1
1
1
1
1
1
1
1
1
1
1
1
1
1
1
1
1
1
1
1
1
1
1
1
1
1
1
1.07427
2.1816
2.45086
2.44739
2.44618
2.44565
2.44645
2.446
2.44401
2.4392
2.42969
2.41512
2.39728
2.37795
2.35785
2.33745
2.31664
2.29496
1
1
1
1
1
1
1
1
1
1
1
1
1
1
1
1
1
1
1
1
1
1
1
1
1
1
1
1
1
1
1
1
1
1
1
1
1
1
1
1
1
1
1.00092
1.65086
2.35696
2.44172
2.43331
2.43029
2.42975
2.42871
2.42595
2.4213
2.41359
2.40191
2.38646
2.36866
2.34936
2.32915
2.30854
2.28776
1
1
1
1
1
1
1
1
1
1
1
1
1
1
1
1
1
1
1
1
1
1
1
1
1
1
1
1
1
1
1
1
1
1
1
1
1
1
1
1
1
1
1
1.09871
2.16551
2.42263
2.41744
2.41386
2.41171
2.40949
2.4066
2.40295
2.39765
2.38861
2.37534
2.35905
2.34068
2.32068
2.30001
2.27958
1
1
1
1
1
1
1
1
1
1
1
1
1
1
1
1
1
1
1
1
1
1
1
1
1
1
1
1
1
1
1
1
1
1
1
1
1
1
1
1
1
1
1
1.00163
1.6334
2.32372
2.40899
2.40144
2.39762
2.39415
2.39056
2.38634
2.38109
2.37359
2.36267
2.34836
2.3313
2.31188
2.29131
2.27114
1
1
1
1
1
1
1
1
1
1
1
1
1
1
1
1
1
1
1
1
1
1
1
1
1
1
1
1
1
1
1
1
1
1
1
1
1
1
1
1
1
1
1
1
1.09451
2.12308
2.38906
2.38568
2.38203
2.37832
2.37385
2.36896
2.36366
2.35718
2.34811
2.33587
2.32061
2.30253
2.28281
2.26331
1
1
1
1
1
1
1
1
1
1
1
1
1
1
1
1
1
1
1
1
1
1
1
1
1
1
1
1
1
1
1
1
1
1
1
1
1
1
1
1
1
1
1
1
1.00152
1.54561
2.27221
2.37654
2.37007
2.36602
2.36077
2.35492
2.34852
2.34132
2.33264
2.32181
2.3084
2.29218
2.27392
2.25537
1
1
1
1
1
1
1
1
1
1
1
1
1
1
1
1
1
1
1
1
1
1
1
1
1
1
1
1
1
1
1
1
1
1
1
1
1
1
1
1
1
1
1
1
1
1.06703
2.04481
2.34686
2.35644
2.35249
2.34673
2.33915
2.3313
2.32367
2.31555
2.30613
2.29478
2.28107
2.26528
2.24843
1
1
1
1
1
1
1
1
1
1
1
1
1
1
1
1
1
1
1
1
1
1
1
1
1
1
1
1
1
1
1
1
1
1
1
1
1
1
1
1
1
1
1
1
1
1.00081
1.43189
2.20784
2.34686
2.3401
2.33451
2.32668
2.31832
2.30988
2.30102
2.29127
2.28054
2.26863
2.25521
2.24044
1
1
1
1
1
1
1
1
1
1
1
1
1
1
1
1
1
1
1
1
1
1
1
1
1
1
1
1
1
1
1
1
1
1
1
1
1
1
1
1
1
1
1
1
1
1
1.03924
1.89903
2.29248
2.32518
2.31737
2.3106
2.30294
2.29465
2.28625
2.27752
2.2678
2.25684
2.24477
2.2318
1
1
1
1
1
1
1
1
1
1
1
1
1
1
1
1
1
1
1
1
1
1
1
1
1
1
1
1
1
1
1
1
1
1
1
1
1
1
1
1
1
1
1
1
1
1
1.00036
1.28092
2.1213
2.31556
2.3048
2.2985
2.29056
2.28196
2.27344
2.26519
2.25632
2.2459
2.23387
2.22118
1
1
1
1
1
1
1
1
1
1
1
1
1
1
1
1
1
1
1
1
1
1
1
1
1
1
1
1
1
1
1
1
1
1
1
1
1
1
1
1
1
1
1
1
1
1
1
1.01455
1.65629
2.21475
2.29188
2.28018
2.27307
2.2659
2.25912
2.2525
2.24515
2.23605
2.22494
2.21254
1
1
1
1
1
1
1
1
1
1
1
1
1
1
1
1
1
1
1
1
1
1
1
1
1
1
1
1
1
1
1
1
1
1
1
1
1
1
1
1
1
1
1
1
1
1
1
1.00009
1.11985
1.97686
2.26614
2.26823
2.26219
2.25454
2.24731
2.24066
2.23354
2.22507
2.21485
2.20293
1
1
1
1
1
1
1
1
1
1
1
1
1
1
1
1
1
1
1
1
1
1
1
1
1
1
1
1
1
1
1
1
1
1
1
1
1
1
1
1
1
1
1
1
1
1
1
1
1.00266
1.40394
2.11797
2.25982
2.24967
2.2451
2.23852
2.23186
2.22432
2.21573
2.20594
2.19468
1
1
1
1
1
1
1
1
1
1
1
1
1
1
1
1
1
1
1
1
1
1
1
1
1
1
1
1
1
1
1
1
1
1
1
1
1
1
1
1
1
1
1
1
1
1
1
1
1.00001
1.03456
1.72028
2.18096
2.24155
2.23028
2.22452
2.21796
2.21073
2.20273
2.1938
2.18351
1
1
1
1
1
1
1
1
1
1
1
1
1
1
1
1
1
1
1
1
1
1
1
1
1
1
1
1
1
1
1
1
1
1
1
1
1
1
1
1
1
1
1
1
1
1
1
1
1
1.00035
1.16402
1.95242
2.21551
2.21967
2.21407
2.206
2.19752
2.18928
2.1809
2.17165
1
1
1
1
1
1
1
1
1
1
1
1
1
1
1
1
1
1
1
1
1
1
1
1
1
1
1
1
1
1
1
1
1
1
1
1
1
1
1
1
1
1
1
1
1
1
1
1
1
1
1.0051
1.40826
2.06571
2.2097
2.20124
2.19384
2.18577
2.17783
2.17007
2.1619
1
1
1
1
1
1
1
1
1
1
1
1
1
1
1
1
1
1
1
1
1
1
1
1
1
1
1
1
1
1
1
1
1
1
1
1
1
1
1
1
1
1
1
1
1
1
1
1
1
1
1.00002
1.0366
1.65042
2.12691
2.19025
2.1783
2.17071
2.16404
2.15741
2.15047
1
1
1
1
1
1
1
1
1
1
1
1
1
1
1
1
1
1
1
1
1
1
1
1
1
1
1
1
1
1
1
1
1
1
1
1
1
1
1
1
1
1
1
1
1
1
1
1
1
1
1
1.00041
1.12905
1.85131
2.13984
2.17163
2.15989
2.15208
2.14552
2.13885
1
1
1
1
1
1
1
1
1
1
1
1
1
1
1
1
1
1
1
1
1
1
1
1
1
1
1
1
1
1
1
1
1
1
1
1
1
1
1
1
1
1
1
1
1
1
1
1
1
1
1
1
1.00331
1.29659
1.96185
2.14794
2.15159
2.14467
2.13676
2.1289
1
1
1
1
1
1
1
1
1
1
1
1
1
1
1
1
1
1
1
1
1
1
1
1
1
1
1
1
1
1
1
1
1
1
1
1
1
1
1
1
1
1
1
1
1
1
1
1
1
1
1
1
1.00001
1.01755
1.48554
2.02361
2.13921
2.13513
2.12708
2.11937
1
1
1
1
1
1
1
1
1
1
1
1
1
1
1
1
1
1
1
1
1
1
1
1
1
1
1
1
1
1
1
1
1
1
1
1
1
1
1
1
1
1
1
1
1
1
1
1
1
1
1
1
1
1.00014
1.06038
1.64952
2.06036
2.12458
2.11617
2.10681
1
1
1
1
1
1
1
1
1
1
1
1
1
1
1
1
1
1
1
1
1
1
1
1
1
1
1
1
1
1
1
1
1
1
1
1
1
1
1
1
1
1
1
1
1
1
1
1
1
1
1
1
1
1
1.00096
1.14147
1.77548
2.07179
2.10936
2.09878
1
1
1
1
1
1
1
1
1
1
1
1
1
1
1
1
1
1
1
1
1
1
1
1
1
1
1
1
1
1
1
1
1
1
1
1
1
1
1
1
1
1
1
1
1
1
1
1
1
1
1
1
1
1
1
1.00416
1.25104
1.86587
2.06269
2.09192
1
1
1
1
1
1
1
1
1
1
1
1
1
1
1
1
1
1
1
1
1
1
1
1
1
1
1
1
1
1
1
1
1
1
1
1
1
1
1
1
1
1
1
1
1
1
1
1
1
1
1
1
1
1
1
1.00002
1.01309
1.37613
1.91753
2.06133
1
1
1
1
1
1
1
1
1
1
1
1
1
1
1
1
1
1
1
1
1
1
1
1
1
1
1
1
1
1
1
1
1
1
1
1
1
1
1
1
1
1
1
1
1
1
1
1
1
1
1
1
1
1
1
1
1.0001
1.0333
1.49115
1.94716
1
1
1
1
1
1
1
1
1
1
1
1
1
1
1
1
1
1
1
1
1
1
1
1
1
1
1
1
1
1
1
1
1
1
1
1
1
1
1
1
1
1
1
1
1
1
1
1
1
1
1
1
1
1
1
1
1
1.0004
1.06907
1.58535
1
1
1
1
1
1
1
1
1
1
1
1
1
1
1
1
1
1
1
1
1
1
1
1
1
1
1
1
1
1
1
1
1
1
1
1
1
1
1
1
1
1
1
1
1
1
1
1
1
1
1
1
1
1
1
1
1
1
1.00128
1.11843
1
1
1
1
1
1
1
1
1
1
1
1
1
1
1
1
1
1
1
1
1
1
1
1
1
1
1
1
1
1
1
1
1
1
1
1
1
1
1
1
1
1
1
1
1
1
1
1
1
1
1
1
1
1
1
1
1
1
1
1.00327
1
1
1
1
1
1
1
1
1
1
1
1
1
1
1
1
1
1
1
1
1
1
1
1
1
1
1
1
1
1
1
1
1
1
1
1
1
1
1
1
1
1
1
1
1
1
1
1
1
1
1
1
1
1
1
1
1
1
1
1.00002
1
1
1
1
1
1
1
1
1
1
1
1
1
1
1
1
1
1
1
1
1
1
1
1
1
1
1
1
1
1
1
1
1
1
1
1
1
1
1
1
1
1
1
1
1
1
1
1
1
1
1
1
1
1
1
1
1
1
1
1
1
1
1
1
1
1
1
1
1
1
1
1
1
1
1
1
1
1
1
1
1
1
1
1
1
1
1
1
1
1
1
1
1
1
1
1
1
1
1
1
1
1
1
1
1
1
1
1
1
1
1
1
1
1
1
1
1
1
1
1
1
1
1
1
1
1
1
1
1
1
1
1
1
1
1
1
1
1
1
1
1
1
1
1
1
1
1
1
1
1
1
1
1
1
1
1
1
1
1
1
1
1
1
1
1
1
1
1
1
1
1
1
1
1
1
1
1
1
1
1
1
1
1
1
1
1
1
1
1
1
1
1
1
1
1
1
1
1
1
1
1
1
1
1
1
1
1
1
1
1
1
1
1
1
1
1
1
1
1
1
1
1
1
1
1
1
1
1
1
1
1
1
1
1
1
1
1
1
1
1
1
1
1
1
1
1
1
1
1
1
1
1
1
1
1
1
1
1
1
1
1
1
1
1
1
1
1
1
1
1
1
1
1
1
1
1
1
1
1
1
1
1
1
1
1
1
1
1
1
1
1
1
1
1
1
1
1
1
1
1
1
1
1
1
1
1
1
1
1
1
1
1
1
1
1
1
1
1
1
1
1
1
1
1
1
1
1
1
1
1
1
1
1
1
1
1
1
1
1
1
1
1
1
1
1
1
1
1
1
1
1
1
1
1
1
1
1
1
1
1
1
1
1
1
1
1
1
1
1
1
1
1
1
1
1
1
1
1
1
1
1
1
1
1
1
1
1
1
1
1
1
1
1
1
1
1
1
1
1
1
1
1
1
1
1
1
1
1
1
1
1
1
1
1
1
1
1
1
1
1
1
1
1
1
1
1
1
1
1
1
1
1
1
1
1
1
1
1
1
1
1
1
1
1
1
1
1
1
1
1
1
1
1
1
1
1
1
1
1
1
1
1
1
1
1
1
1
1
1
1
1
1
1
1
1
1
1
1
1
1
1
1
1
1
1
1
1
1
1
1
1
1
1
1
1
1
1
1
1
1
1
1
1
1
1
1
1
1
1
1
1
1
1
1
1
1
1
1
1
1
1
1
1
1
1
1
1
1
1
1
1
1
1
1
1
1
1
1
1
1
1
1
1
1
1
1
1
1
1
1
1
1
1
1
1
1
1
1
1
1
1
1
1
1
1
1
1
1
1
1
1
1
1
1
1
1
1
1
1
1
1
1
1
1
1
1
1
1
1
1
1
1
1
1
1
1
1
1
1
1
1
1
1
1
1
1
1
1
1
1
1
1
1
1
1
1
1
1
1
1
1
1
1
1
1
1
1
1
1
1
1
1
1
1
1
1
1
1
1
1
1
1
1
1
1
1
1
1
1
1
1
1
1
1
1
1
1
1
1
1
1
1
1
1
1
1
1
1
1
1
1
1
1
1
1
1
1
1
1
1
1
1
1
1
1
1
1
1
1
1
1
1
1
1
1
1
1
1
1
1
1
1
1
1
1
1
1
1
1
1
1
1
1
1
1
1
1
1
1
1
1
1
1
1
1
1
1
1
1
1
1
1
1
1
1
1
1
1
1
1
1
1
1
1
1
1
1
1
1
1
1
1
1
1
1
1
1
1
1
1
1
1
1
1
1
1
1
1
1
1
1
1
1
1
1
1
1
1
1
1
1
1
1
1
1
1
1
1
1
1
1
1
1
1
1
1
1
1
1
1
1
1
1
1
1
1
1
1
1
1
1
1
1
1
1
1
1
1
1
1
1
1
1
1
1
1
1
1
1
1
1
1
1
1
1
1
1
1
1
1
1
1
1
1
1
1
1
1
1
1
1
1
1
1
1
1
1
1
1
1
1
1
1
1
1
1
1
1
1
1
1
1
1
1
1
1
1
1
1
1
1
1
1
1
1
1
1
1
1
1
1
1
1
1
1
1
1
1
1
1
1
1
1
1
1
1
1
1
1
1
1
1
1
1
1
1
1
1
1
1
1
1
1
1
1
1
1
1
1
1
1
1
1
1
1
1
1
1
1
1
1
1
1
1
1
1
1
1
1
1
1
1
1
1
1
1
1
1
1
1
1
1
1
1
1
1
1
1
1
1
1
1
1
1
1
1
1
1
1
1
1
1
1
1
1
1
1
1
1
1
1
1
1
1
1
1
1
1
1
1
1
1
1
1
1
1
1
1
1
1
1
1
1
1
1
1
1
1
1
1
1
1
1
1
1
1
1
1
1
1
1
1
1
1
1
1
1
1
1
1
1
1
1
1
1
1
1
1
1
1
1
1
1
1
1
1
1
1
1
1
1
1
1
1
1
1
1
1
1
1
1
1
1
1
1
1
1
1
1
1
1
1
1
1
1
1
1
1
1
1
1
1
1
1
1
1
1
1
1
1
1
1
1
1
1
1
1
1
1
1
1
1
1
1
1
1
1
1
1
1
1
1
1
1
1
1
1
1
1
1
1
1
1
1
1
1
1
1
1
1
1
1
1
1
1
1
1
1
1
1
1
1
1
1
1
1
1
1
1
1
1
1
1
1
1
1
1
1
1
1
1
1
1
1
1
1
1
1
1
1
1
1
1
1
1
1
1
1
1
1
1
1
1
1
1
1
1
1
1
1
1
1
1
1
1
1
1
1
1
1
1
1
1
1
1
1
1
1
1
1
1
1
1
1
1
1
1
1
1
1
1
1
1
1
1
1
1
1
1
1
1
1
1
1
1
1
1
1
1
1
1
1
1
1
1
1
1
1
1
1
1
1
1
1
1
1
1
1
1
1
1
1
1
1
1
1
1
1
1
1
1
1
1
1
1
1
1
1
1
1
1
1
1
1
1
1
1
1
1
1
1
1
1
1
1
1
1
1
1
1
1
1
1
1
1
1
1
1
1
1
1
1
1
1
1
1
1
1
1
1
1
1
1
1
1
1
1
1
1
1
1
1
1
1
1
1
1
1
1
1
1
1
1
1
1
1
1
1
1
1
1
1
1
1
1
1
1
1
1
1
1
1
1
1
1
1
1
1
1
1
1
1
1
1
1
1
1
1
1
1
1
1
1
1
1
1
1
1
1
1
1
1
1
1
1
1
1
1
1
1
1
1
1
1
1
1
1
1
1
1
1
1
1
1
1
1
1
1
1
1
1
1
1
1
1
1
1
1
1
1
1
1
1
1
1
1
1
1
1
1
1
1
1
1
1
1
1
1
1
1
1
1
1
1
1
1
1
1
1
1
1
1
1
1
1
1
1
1
1
1
1
1
1
1
1
1
1
1
1
1
1
1
1
1
1
1
1
1
1
1
1
1
1
1
1
1
1
1
1
1
1
1
1
1
1
1
1
1
1
1
1
1
1
1
1
1
1
1
1
1
1
1
1
1
1
1
1
1
1
1
1
1
1
1
1
1
1
1
1
1
1
1
1
1
1
1
1
1
1
1
1
1
1
1
1
1
1
1
1
1
1
1
1
1
1
1
1
1
1
1
1
1
1
1
1
1
1
1
1
1
1
1
1
1
1
1
1
1
1
1
1
1
1
1
1
1
1
1
1
1
1
1
1
1
1
1
1
1
1
1
1
1
1
1
1
1
1
1
1
1
1
1
1
1
1
1
1
1
1
1
1
1
1
1
1
1
1
1
1
1
1
1
1
1
1
1
1
1
1
1
1
1
1
1
1
1
1
1
1
1
1
1
1
1
1
1
1
1
1
1
1
1
1
1
1
1
1
1
1
1
1
1
1
1
1
1
1
1
1
1
1
1
1
1
1
1
1
1
1
1
1
1
1
1
1
1
1
1
1
1
1
1
1
1
1
1
1
1
1
1
1
1
1
1
1
1
1
1
1
1
1
1
1
1
1
1
1
1
1
1
1
1
1
1
1
1
1
1
1
1
1
1
1
1
1
1
1
1
1
1
1
1
1
1
1
1
1
1
1
1
1
1
1
1
1
1
1
1
1
1
1
1
1
1
1
1
1
1
1
1
1
1
1
1
1
1
1
1
1
1
1
1
1
1
1
1
1
1
1
1
1
1
1
1
1
1
1
1
1
1
1
1
1
1
1
1
1
1
1
1
1
1
1
1
1
1
1
1
1
1
1
1
1
1
1
1
1
1
1
1
1
1
1
1
1
1
1
1
1
1
1
1
1
1
1
1
1
1
1
1
1
1
1
1
1
1
1
1
1
1
1
1
1
1
1
1
1
1
1
1
1
1
1
1
1
1
1
1
1
1
1
1
1
1
1
1
1
1
1
1
1.76271
1.14376
0.733866
0.415044
0.595954
0.980767
1.21431
1.2809
1.35456
1.5783
1.6867
1.66229
1.60073
1.56718
1.57769
1.64237
1.75916
1.84531
1.85455
1.84595
1.83219
1.81547
1.80656
1.80539
1.82157
1.84087
1.83896
1.83275
1.83379
1.85207
1.86673
1.86593
1.86538
1.86605
1.87166
1.87875
1.88275
1.8891
1.89544
1.9043
1.91384
1.9149
1.91189
1.90811
1.90789
1.91139
1.91996
1.92618
1.9264
1.92365
1.91798
1.91128
1.90849
1.90882
1.91407
1.92357
1.92661
1.92591
1.92239
1.91654
1.91154
1.91038
1.91024
1.90945
1.90869
1.90847
1.90524
1.89814
1.89189
1.88664
1.88427
1.88289
1.88051
1.87807
1.87811
1.88052
1.88156
1.88152
1.88278
1.88377
1.88329
1.88075
1.87799
1.877
1.87695
1.87772
1.87906
1.88014
1.88168
1.88241
1.88165
1.87991
1.87804
1.87639
1.8746
1.87245
1.86961
1.86665
1.86429
1.86248
1.86141
1.86114
1.86118
1.86141
1.8619
1.86184
1.86147
1.8607
1.85933
1.8576
1.85571
1.85378
1.8511
1.84728
1.84295
1.83726
1.83258
1.83118
1.83095
1.83109
1.83208
1.83256
1.83235
1.83183
1.83144
1.83146
1.83171
1.83283
1.8362
1.84075
1.84575
1.84936
1.84989
1.85004
1.84903
1.84178
1.82719
1.82039
1.82028
1.82116
1.82221
1.82349
1.82639
1.83071
1.83323
1.83254
1.82912
1.82507
1.81861
1.80647
1.79653
1.79352
1.79198
1.79142
1.79315
1.79831
1.80063
1.8013
1.80264
1.80394
1.80368
1.80322
1.80494
1.80828
1.8113
1.81363
1.81563
1.81779
1.81987
1.82177
1.82435
1.82792
1.83119
1.83417
1.8374
1.8404
1.84101
1.84044
1.83867
1.83618
1.83375
1.83075
1.82787
1.82662
1.82688
1.82887
1.83116
1.83237
1.83363
1.83547
1.83767
1.83929
1.84029
1.84127
1.84322
1.84674
1.85143
1.85781
1.86587
1.87322
1.87916
1.88227
1.88326
1.8817
1.88002
1.8806
1.88071
1.88074
1.88075
1.88021
1.87863
1.87568
1.87173
1.86917
1.86825
1.86809
1.8681
1.86813
1.86768
1.86589
1.86577
1.86555
1.8645
1.86243
1.85921
1.85458
1.84814
1.83991
1.83061
1.82038
1.80787
1.79031
1.76344
1.72476
1.6824
1.65299
1.63766
1.63198
1.62884
1.62078
2.03614
1.67023
1.43708
1.36568
1.21627
1.08391
1.12645
1.15022
1.15404
1.20167
1.22726
1.25752
1.27204
1.29805
1.33122
1.39396
1.47314
1.54368
1.56832
1.58815
1.60933
1.6259
1.64497
1.66954
1.70069
1.72236
1.73225
1.74623
1.75998
1.78611
1.79531
1.7927
1.79337
1.79635
1.80442
1.82053
1.82867
1.83223
1.8387
1.84768
1.85813
1.86602
1.86653
1.86608
1.86683
1.87018
1.87637
1.88224
1.88415
1.88351
1.88005
1.87528
1.87207
1.87184
1.87521
1.8834
1.88852
1.88921
1.88846
1.88553
1.882
1.87966
1.87901
1.87944
1.87913
1.8791
1.87784
1.87232
1.8677
1.86533
1.86494
1.8648
1.86374
1.86251
1.86279
1.86266
1.85941
1.85776
1.85797
1.8585
1.85882
1.85921
1.86044
1.8614
1.86141
1.86071
1.85925
1.85892
1.8591
1.85939
1.86121
1.86256
1.86207
1.86231
1.86251
1.86163
1.85791
1.85147
1.8469
1.84521
1.84479
1.84543
1.8466
1.84697
1.84785
1.84814
1.84788
1.84679
1.84425
1.8409
1.8381
1.83562
1.83354
1.83118
1.82772
1.82548
1.82548
1.82611
1.82695
1.82834
1.82946
1.82936
1.82827
1.82626
1.8247
1.82431
1.82434
1.82474
1.82707
1.83126
1.83549
1.83786
1.83811
1.83822
1.83745
1.83373
1.82695
1.81963
1.81747
1.81763
1.818
1.8183
1.81968
1.82239
1.82393
1.8229
1.81962
1.81592
1.81068
1.8023
1.79525
1.79221
1.79027
1.7891
1.7897
1.79278
1.79429
1.79478
1.796
1.79694
1.79638
1.79563
1.79782
1.80163
1.80489
1.80787
1.81066
1.81322
1.8158
1.81871
1.8219
1.82425
1.82618
1.82824
1.82994
1.83145
1.83278
1.83337
1.83339
1.83293
1.8315
1.82937
1.82671
1.82432
1.82368
1.82418
1.82523
1.82597
1.82706
1.82886
1.83135
1.83415
1.83661
1.83893
1.84169
1.84539
1.85003
1.85543
1.86176
1.86887
1.87431
1.87824
1.88035
1.88051
1.87977
1.87998
1.87982
1.87942
1.8791
1.87841
1.87684
1.87414
1.87042
1.86772
1.86613
1.86524
1.86506
1.8651
1.86513
1.86464
1.86477
1.86443
1.86324
1.86132
1.85835
1.85375
1.84708
1.83841
1.82847
1.81737
1.80422
1.78685
1.76171
1.72536
1.68432
1.65457
1.63836
1.63201
1.62857
1.62166
2.09615
1.80647
1.67301
1.60449
1.44021
1.30051
1.25674
1.24312
1.18446
1.15562
1.16659
1.178
1.17608
1.1915
1.2203
1.23952
1.2584
1.28245
1.3033
1.33194
1.37157
1.40889
1.44417
1.48077
1.5214
1.55253
1.57779
1.6099
1.63909
1.66952
1.68301
1.68239
1.68193
1.68476
1.69372
1.71279
1.72814
1.72855
1.72902
1.73382
1.74143
1.74927
1.75698
1.76443
1.77113
1.77544
1.77858
1.78155
1.78516
1.78681
1.78625
1.78462
1.78344
1.78375
1.78779
1.79583
1.80375
1.81008
1.81113
1.81037
1.80775
1.80519
1.80401
1.80512
1.80787
1.80802
1.80727
1.8041
1.80069
1.79844
1.79774
1.79863
1.80015
1.80296
1.80722
1.80777
1.80468
1.80266
1.80158
1.79885
1.79545
1.79614
1.80043
1.80467
1.80673
1.8078
1.80795
1.80663
1.8047
1.80406
1.80385
1.80436
1.80695
1.80949
1.81301
1.81589
1.81609
1.81244
1.80548
1.80204
1.8006
1.80012
1.80093
1.80247
1.80506
1.80858
1.81088
1.81108
1.8092
1.80387
1.79849
1.79434
1.7905
1.78719
1.78563
1.78582
1.78815
1.7915
1.79482
1.79867
1.80224
1.80437
1.80511
1.80489
1.80361
1.80232
1.8021
1.80233
1.80349
1.80599
1.80847
1.80898
1.80866
1.80734
1.80542
1.80455
1.80364
1.79979
1.79523
1.79489
1.79527
1.79647
1.79915
1.80087
1.80011
1.79785
1.79492
1.79111
1.78622
1.7816
1.77798
1.77606
1.77499
1.77459
1.77556
1.77757
1.77745
1.77735
1.77796
1.77805
1.77763
1.77769
1.77954
1.78282
1.78514
1.78696
1.78889
1.7912
1.79389
1.79719
1.80117
1.80541
1.80888
1.81053
1.81041
1.80879
1.8083
1.80934
1.81107
1.81314
1.81429
1.81432
1.81386
1.81307
1.8126
1.81157
1.8106
1.81063
1.81101
1.81194
1.81358
1.81584
1.81903
1.82342
1.82794
1.83316
1.83958
1.84667
1.85321
1.8583
1.86084
1.8624
1.86494
1.86729
1.86878
1.86998
1.87069
1.87063
1.8703
1.8697
1.8686
1.86687
1.86457
1.8626
1.86132
1.8599
1.85707
1.85415
1.85385
1.85446
1.85531
1.85644
1.85698
1.85652
1.85431
1.84975
1.8427
1.83358
1.8231
1.81118
1.79751
1.78081
1.7577
1.72441
1.68615
1.65713
1.63931
1.63188
1.62805
1.62113
2.12874
1.92797
1.80163
1.71236
1.616
1.48889
1.43223
1.37437
1.28402
1.25563
1.26694
1.2701
1.26053
1.25314
1.23386
1.19931
1.19526
1.19357
1.19475
1.19951
1.2119
1.2344
1.27296
1.32165
1.36287
1.39507
1.42383
1.46162
1.49755
1.52391
1.53897
1.55297
1.56896
1.58093
1.59159
1.60564
1.61899
1.62427
1.62645
1.63342
1.63863
1.64238
1.64744
1.65422
1.66017
1.66223
1.66218
1.66304
1.66533
1.66801
1.67149
1.67395
1.6758
1.67879
1.6841
1.69
1.69705
1.70538
1.70835
1.70739
1.70368
1.70197
1.70278
1.70653
1.7125
1.71553
1.71622
1.71598
1.71439
1.71216
1.70999
1.70991
1.71176
1.71425
1.71682
1.71725
1.71581
1.71527
1.71549
1.71492
1.71273
1.71229
1.71466
1.71824
1.72037
1.72168
1.72296
1.72379
1.72416
1.72465
1.72527
1.72626
1.72788
1.73043
1.73432
1.73799
1.73892
1.73684
1.73267
1.73068
1.72954
1.72936
1.73025
1.73153
1.73439
1.73848
1.74155
1.7424
1.74123
1.73783
1.73544
1.73397
1.73202
1.73043
1.7305
1.73142
1.73357
1.73655
1.74081
1.74639
1.7517
1.75567
1.75813
1.75913
1.75893
1.75722
1.75483
1.754
1.75416
1.75515
1.75784
1.76076
1.76168
1.76169
1.76174
1.76194
1.76204
1.76096
1.75603
1.75178
1.75162
1.75198
1.75354
1.7546
1.75428
1.7536
1.75271
1.75132
1.75009
1.74969
1.74874
1.74631
1.74457
1.74316
1.74251
1.74216
1.74083
1.73987
1.73957
1.73959
1.74057
1.74487
1.75004
1.75385
1.75531
1.75589
1.75632
1.75656
1.75686
1.75758
1.75953
1.76286
1.76585
1.76804
1.76993
1.771
1.77208
1.77393
1.7764
1.77942
1.78204
1.78309
1.78309
1.78277
1.78169
1.78068
1.78078
1.78112
1.7821
1.78426
1.78673
1.78936
1.79273
1.79644
1.80017
1.80479
1.81153
1.81939
1.82753
1.83391
1.83683
1.83773
1.83927
1.84042
1.84155
1.84303
1.84393
1.84439
1.84445
1.84459
1.84465
1.8442
1.84326
1.8427
1.84242
1.84183
1.84088
1.8383
1.83551
1.835
1.83515
1.83563
1.83685
1.838
1.83781
1.83571
1.83085
1.82363
1.81421
1.8021
1.78798
1.77185
1.75135
1.72225
1.68705
1.659
1.64051
1.63157
1.62727
1.62101
2.14965
2.015
1.88182
1.78068
1.71359
1.63573
1.56547
1.49263
1.39522
1.35084
1.35176
1.34645
1.33297
1.32354
1.30056
1.26002
1.23926
1.23426
1.22448
1.21207
1.20786
1.21505
1.21783
1.22076
1.22661
1.23959
1.26071
1.2955
1.34562
1.38958
1.42033
1.45095
1.47797
1.49401
1.50385
1.51011
1.52092
1.53433
1.54481
1.55887
1.57456
1.58029
1.58246
1.58547
1.58638
1.58546
1.58126
1.58058
1.58149
1.58467
1.59157
1.59755
1.6013
1.6046
1.60655
1.60792
1.61023
1.61337
1.61552
1.61574
1.61571
1.61707
1.62234
1.62797
1.63388
1.63803
1.63837
1.63751
1.63481
1.63139
1.62925
1.62885
1.62963
1.63131
1.63272
1.63435
1.63471
1.63495
1.63494
1.63443
1.63417
1.63433
1.63554
1.63725
1.63805
1.63857
1.63926
1.64028
1.64146
1.64349
1.64552
1.64697
1.64843
1.65088
1.65459
1.65687
1.65643
1.65348
1.65256
1.65253
1.65268
1.65438
1.65639
1.65767
1.66055
1.6643
1.66594
1.66552
1.66282
1.66042
1.65975
1.65958
1.6597
1.66087
1.66359
1.66711
1.67069
1.67454
1.67929
1.68532
1.69137
1.69607
1.69929
1.70135
1.70234
1.70178
1.69798
1.69308
1.69132
1.69141
1.69342
1.69639
1.69824
1.70037
1.70331
1.7041
1.70488
1.70533
1.70414
1.69965
1.69615
1.69542
1.69496
1.69439
1.69392
1.69363
1.69371
1.69526
1.69852
1.70208
1.70395
1.70384
1.70276
1.70131
1.69875
1.69564
1.69299
1.68991
1.68786
1.6877
1.69007
1.69518
1.70117
1.70611
1.70847
1.70952
1.71002
1.71003
1.70964
1.70875
1.70822
1.70824
1.7086
1.70943
1.71136
1.71441
1.71781
1.72205
1.7274
1.73276
1.73737
1.74022
1.74058
1.73989
1.73778
1.7356
1.73511
1.73562
1.73672
1.73875
1.742
1.74675
1.75254
1.75808
1.76303
1.76759
1.77217
1.77722
1.78288
1.78862
1.79427
1.7985
1.80094
1.80213
1.80294
1.80362
1.80421
1.80485
1.80581
1.80741
1.80914
1.80965
1.80937
1.80856
1.80773
1.80692
1.80599
1.80521
1.80508
1.80521
1.80521
1.80466
1.80457
1.80498
1.80476
1.80368
1.80117
1.797
1.79098
1.78308
1.77339
1.76061
1.74277
1.71812
1.68657
1.65608
1.63737
1.62798
1.62353
1.61808
2.17024
2.05948
1.95588
1.85758
1.76896
1.70956
1.64625
1.57854
1.51808
1.46755
1.4362
1.40224
1.38143
1.37451
1.35925
1.32817
1.2992
1.28784
1.27183
1.24845
1.23414
1.23179
1.22668
1.21332
1.2104
1.21075
1.20841
1.20918
1.21836
1.23744
1.26941
1.31227
1.35893
1.39746
1.42444
1.43629
1.44878
1.46866
1.48669
1.50496
1.52006
1.52761
1.53086
1.53384
1.53439
1.53489
1.53497
1.53528
1.53838
1.54408
1.54992
1.5539
1.55479
1.55338
1.55135
1.55105
1.5515
1.55338
1.5571
1.56217
1.56823
1.57514
1.58095
1.58307
1.5844
1.58452
1.58239
1.57769
1.57351
1.57084
1.57027
1.57068
1.57248
1.57449
1.57577
1.57658