/*--------------------------------*- C++ -*----------------------------------*\
  =========                 |
  \\      /  F ield         | OpenFOAM: The Open Source CFD Toolbox
   \\    /   O peration     | Website:  https://openfoam.org
    \\  /    A nd           | Version:  9
     \\/     M anipulation  |
\*---------------------------------------------------------------------------*/
FoamFile
{
    format      ascii;
    class       surfaceScalarField;
    location    "7.5";
    object      phi;
}
// * * * * * * * * * * * * * * * * * * * * * * * * * * * * * * * * * * * * * //

dimensions      [0 3 -1 0 0 0 0];

internalField   nonuniform List<scalar> 
16735
(
-0.00152531
0.00152531
5.05565e-11
-0.00417492
0.00264961
1.48754e-10
-0.00707825
0.00290333
2.49303e-10
-0.00949012
0.00241186
3.56231e-10
-0.0108389
0.0013488
4.62239e-10
-0.0105788
-0.000260089
5.70379e-10
-0.00820251
-0.00237632
6.73138e-10
-0.00312058
-0.00508193
7.49223e-10
0.00470927
-0.00782985
7.94437e-10
-0.011342
7.81845e-10
0.0160513
-0.0014934
0.00301872
-0.00406407
0.00522028
-0.00684045
0.00567971
-0.00907292
0.00464433
-0.0101819
0.0024578
-0.00961162
-0.000830382
-0.00684169
-0.00514626
-0.00129427
-0.0106293
0.00717967
-0.0163038
-0.0234469
0.0192846
-0.00143015
0.00444887
-0.00384406
0.00763418
-0.00636813
0.00820379
-0.008244
0.0065202
-0.00887631
0.00309011
-0.00768898
-0.00201772
-0.00413305
-0.00870218
0.00238878
-0.0171512
0.0120885
-0.0260035
-0.0370522
0.0256938
-0.00133669
0.00578556
-0.00351814
0.00981563
-0.0056677
0.0103534
-0.00701406
0.00786655
-0.00693898
0.00301503
-0.0048358
-0.0041209
-6.87e-05
-0.0134693
0.00786816
-0.025088
0.01936
-0.0374953
-0.0528555
0.0351633
-0.00121462
0.00700018
-0.00309104
0.011692
-0.00474844
0.0120107
-0.0053986
0.00851672
-0.00439395
0.00201038
-0.00109687
-0.00741798
0.00514501
-0.0197112
0.0150268
-0.0349698
0.0288778
-0.0513464
-0.0714988
0.0475212
-0.00106598
0.00806616
-0.00256873
0.0131948
-0.00362212
0.0130641
-0.00341732
0.00831193
-0.00127058
-0.000136366
0.00349804
-0.0121866
0.0115871
-0.0278003
0.0237751
-0.0471577
0.0404929
-0.0680642
-0.0935489
0.0625431
-0.000893099
0.00895926
-0.00195814
0.0142598
-0.00230252
0.0134085
-0.00109342
0.00710282
0.00239176
-0.00362155
0.00888456
-0.0186794
0.0191361
-0.0380518
0.0339914
-0.0620131
0.0540231
-0.0880959
-0.119481
0.0799548
-0.000698553
0.00965781
-0.00126686
0.0148282
-0.00080494
0.0129466
0.00154662
0.00475126
0.00655398
-0.00862891
0.0150003
-0.0271257
0.0276948
-0.0507462
0.0455331
-0.0798514
0.0692555
-0.111818
-0.149661
0.099436
-0.000485117
0.0101429
-0.000502701
0.0148457
0.000854584
0.0115893
0.00447542
0.00113042
0.0111719
-0.0153254
0.0217774
-0.0377313
0.0371582
-0.0661271
0.0582405
-0.100934
0.0859484
-0.139526
-0.184334
0.120622
-0.000256368
0.0103993
0.00032489
0.0142645
0.00265914
0.00925506
0.00766392
-0.00387435
0.0161981
-0.0238596
0.0291424
-0.0506755
0.0474129
-0.0843976
0.0719391
-0.12546
0.103833
-0.17142
-0.223604
0.143103
-2.79555e-06
0.0104021
0.00121058
0.0130511
0.00459249
0.00587314
0.0110826
-0.0103645
0.0215839
-0.0343609
0.0370179
-0.0661095
0.0583379
-0.105718
0.0864419
-0.153564
0.122618
-0.207597
-0.267419
0.166434
0.00024845
0.0101536
0.00214528
0.0111543
0.00663872
0.0013797
0.0147025
-0.0184282
0.0272799
-0.0469383
0.0453238
-0.0841534
0.0698056
-0.130199
0.101551
-0.185309
0.141991
-0.248037
-0.315569
0.19014
0.000514923
0.00963872
0.00312279
0.00854641
0.00878266
-0.00428017
0.0184948
-0.0281404
0.0332362
-0.0616797
0.0539768
-0.104894
0.0816811
-0.157904
0.117058
-0.220685
0.161621
-0.2926
-0.367673
0.213726
0.000790308
0.00884841
0.0041372
0.00519952
0.0110103
-0.0111532
0.0224319
-0.039562
0.0394023
-0.0786501
0.0628907
-0.128382
0.0938225
-0.188836
0.132745
-0.259608
0.181166
-0.341021
-0.42319
0.236683
0.00107322
0.00777519
0.00518331
0.00108943
0.0133085
-0.0192785
0.0264864
-0.0527399
0.0457269
-0.0978906
0.0719756
-0.154631
0.10608
-0.22294
0.148386
-0.301915
0.200274
-0.392909
-0.481431
0.258514
0.00136279
0.0064124
0.00625668
-0.00380446
0.0156651
-0.0286869
0.0306314
-0.0677062
0.0521574
-0.119417
0.081137
-0.183611
0.118294
-0.260097
0.163747
-0.347368
0.218588
-0.447749
-0.541594
0.27875
0.0016585
0.0047539
0.00735349
-0.00949945
0.0180682
-0.0394016
0.0348395
-0.0844775
0.0586385
-0.143216
0.090275
-0.215247
0.130299
-0.30012
0.178588
-0.395657
0.235751
-0.504912
-0.602853
0.29701
0.00196005
0.00279385
0.00847024
-0.0160096
0.0205061
-0.0514375
0.039082
-0.103053
0.0651116
-0.169245
0.099283
-0.249419
0.141922
-0.342759
0.192672
-0.446407
0.25142
-0.56366
-0.664473
0.31304
0.00226729
0.000526561
0.00960355
-0.0233459
0.0229665
-0.0648004
0.0433284
-0.123415
0.0715136
-0.19743
0.108047
-0.285952
0.152987
-0.387699
0.205776
-0.499197
0.265314
-0.623197
-0.725948
0.326789
0.00258011
-0.00205355
0.0107498
-0.0315156
0.0254362
-0.0794869
0.0475455
-0.145525
0.0777765
-0.227661
0.116446
-0.324622
0.163309
-0.434562
0.217647
-0.553536
0.277286
-0.682836
-0.78796
0.339297
0.00289832
-0.00495187
0.0119049
-0.0405221
0.0279002
-0.0954822
0.0516966
-0.169321
0.0838272
-0.259792
0.124353
-0.365148
0.172687
-0.482895
0.227878
-0.608727
0.28743
-0.742387
-0.862812
0.362282
0.00322154
-0.00817341
0.0130638
-0.0503644
0.0303418
-0.11276
0.0557418
-0.194721
0.0895888
-0.293639
0.131641
-0.4072
0.180937
-0.532192
0.236207
-0.663996
0.294598
-0.800778
-0.930355
0.362141
0.00354909
-0.0117225
0.0142207
-0.061036
0.0327418
-0.131281
0.0596379
-0.221617
0.0949824
-0.328984
0.13819
-0.450407
0.187911
-0.581913
0.2425
-0.718585
0.29893
-0.857209
-0.991506
0.360081
0.00387994
-0.0156024
0.0153684
-0.0725244
0.0350788
-0.150992
0.0633387
-0.249877
0.0999288
-0.365574
0.14389
-0.494369
0.193493
-0.631516
0.246743
-0.771835
0.300691
-0.911156
-1.04697
0.35615
0.0042126
-0.019815
0.0164983
-0.0848101
0.0373289
-0.171822
0.0667957
-0.279344
0.104351
-0.403129
0.148646
-0.538664
0.197601
-0.680471
0.248949
-0.823182
0.299946
-0.962154
-1.09724
0.350221
0.00454512
-0.0243602
0.0176006
-0.0978656
0.0394664
-0.193688
0.0699596
-0.309837
0.108174
-0.441343
0.152374
-0.582863
0.20018
-0.728278
0.24915
-0.872152
0.296827
-1.00983
-1.1427
0.342285
0.00487507
-0.0292352
0.0186643
-0.111655
0.0414637
-0.216488
0.0727812
-0.341154
0.111333
-0.479895
0.155012
-0.626543
0.201208
-0.774473
0.247413
-0.918358
0.291508
-1.05393
-1.18363
0.332435
0.00519956
-0.0344348
0.0196771
-0.126132
0.0432926
-0.240103
0.075213
-0.373075
0.113769
-0.518451
0.156517
-0.669291
0.200692
-0.818648
0.243832
-0.961498
0.284187
-1.09428
-1.22027
0.320827
0.00551526
-0.03995
0.020626
-0.141243
0.0449242
-0.264401
0.0772108
-0.405361
0.115435
-0.556674
0.156866
-0.710723
0.198669
-0.860451
0.238524
-1.00135
0.275071
-1.13083
-1.25284
0.307647
0.00581848
-0.0457685
0.0214975
-0.156922
0.0463307
-0.289235
0.0787353
-0.437766
0.116296
-0.594235
0.15606
-0.750486
0.195202
-0.899593
0.231629
-1.03778
0.264371
-1.16357
-1.28156
0.293095
0.00610525
-0.0518738
0.0222776
-0.173094
0.0474854
-0.314442
0.0797536
-0.470034
0.116333
-0.630815
0.154116
-0.788269
0.190372
-0.935849
0.223293
-1.0707
0.252292
-1.19257
-1.30664
0.277369
0.00637138
-0.0582452
0.0229527
-0.189676
0.0483642
-0.339854
0.0802396
-0.50191
0.115538
-0.666114
0.151072
-0.823803
0.184277
-0.969054
0.213671
-1.10009
0.239029
-1.21793
-1.32827
0.260656
0.0066126
-0.0648578
0.0235097
-0.206573
0.0489458
-0.36529
0.0801756
-0.533139
0.113918
-0.699856
0.14698
-0.856865
0.177025
-0.999099
0.20292
-1.12599
0.224765
-1.23977
-1.34663
0.243126
0.00682461
-0.0716824
0.0239362
-0.223684
0.0492127
-0.390567
0.0795519
-0.563479
0.111492
-0.731796
0.141906
-0.887279
0.168732
-1.02592
0.191188
-1.14845
0.209667
-1.25825
-1.3619
0.224934
0.00700323
-0.0786856
0.0242211
-0.240902
0.0491517
-0.415497
0.0783674
-0.592694
0.108289
-0.761717
0.135922
-0.914912
0.159512
-1.04952
0.178621
-1.16755
0.193884
-1.27352
-1.37423
0.206213
0.00714448
-0.0858301
0.024355
-0.258113
0.0487536
-0.439896
0.0766289
-0.62057
0.104349
-0.789437
0.12911
-0.939673
0.149483
-1.06989
0.165351
-1.18342
0.17755
-1.28572
-1.38376
0.187083
0.00724464
-0.0930747
0.0243298
-0.275198
0.0480143
-0.46358
0.0743506
-0.646906
0.0997191
-0.814806
0.121552
-0.961506
0.138755
-1.08709
0.151502
-1.19617
0.160782
-1.295
-1.39062
0.167645
0.0073004
-0.100375
0.0241397
-0.292037
0.0469339
-0.486375
0.0715535
-0.671526
0.0944522
-0.837705
0.113334
-0.980388
0.127436
-1.10119
0.137185
-1.20592
0.143684
-1.30149
-1.39493
0.147988
0.00730885
-0.107684
0.0237806
-0.308509
0.0455171
-0.508111
0.0682642
-0.694273
0.0886047
-0.858045
0.104541
-0.996324
0.115624
-1.11228
0.122502
-1.2128
0.126345
-1.30534
-1.39677
0.128187
0.0072676
-0.114952
0.0232508
-0.324492
0.0437727
-0.528633
0.0645139
-0.715014
0.082236
-0.875767
0.0952537
-1.00934
0.103413
-1.12044
0.107541
-1.21692
0.108843
-1.30664
-1.39623
0.10831
0.00717481
-0.122126
0.0225505
-0.339868
0.0417132
-0.547795
0.0603377
-0.733638
0.0754061
-0.890836
0.0855509
-1.01949
0.090887
-1.12577
0.0923821
-1.21842
0.0912471
-1.3055
-1.3934
0.0884123
0.00702922
-0.129156
0.0216819
-0.35452
0.0393543
-0.565468
0.0557732
-0.750057
0.0681751
-0.903238
0.075507
-1.02682
0.0781233
-1.12839
0.0770957
-1.21739
0.0736155
-1.30202
-1.38833
0.068544
0.00683017
-0.135986
0.0206491
-0.368339
0.0367147
-0.581533
0.0508601
-0.764203
0.0606017
-0.912979
0.0651917
-1.03141
0.0651918
-1.12839
0.061744
-1.21394
0.056001
-1.29628
-1.38107
0.0487469
0.00657762
-0.142563
0.0194581
-0.38122
0.0338152
-0.595891
0.0456388
-0.776026
0.052743
-0.920083
0.0546696
-1.03334
0.0521558
-1.12587
0.0463826
-1.20817
0.0384503
-1.28835
-1.37168
0.0290553
0.00627213
-0.148836
0.0181164
-0.393064
0.0306785
-0.608453
0.0401501
-0.785498
0.0446536
-0.924587
0.0440006
-1.03268
0.0390717
-1.12095
0.031062
-1.20016
0.0210083
-1.2783
-1.36015
0.00947646
0.00591486
-0.15475
0.0166331
-0.403782
0.0273286
-0.619148
0.0344344
-0.792604
0.0363851
-0.926537
0.0332394
-1.02954
0.0259893
-1.1137
0.0158244
-1.19
0.00375242
-1.26622
-1.34651
-0.00988402
0.00550751
-0.160258
0.0150182
-0.413293
0.0237902
-0.62792
0.0285313
-0.797345
0.0279863
-0.925992
0.0224364
-1.02399
0.0129552
-1.10421
0.000650261
-1.17769
-0.0133992
-1.25217
-1.33093
-0.0289809
0.00505233
-0.16531
0.013283
-0.421524
0.0200888
-0.634726
0.0224792
-0.799735
0.019503
-0.923016
0.0116371
-1.01612
-6.90653e-06
-1.09257
-0.0142452
-1.16345
-0.0303288
-1.23609
-1.3134
-0.047862
0.00455206
-0.169862
0.0114395
-0.428411
0.0162498
-0.639536
0.0163151
-0.799801
0.0109771
-0.917678
0.000876335
-1.00602
-0.0127937
-1.0789
-0.0289981
-1.14725
-0.0470103
-1.21808
-1.29393
-0.0664803
0.00400987
-0.173872
0.0095
-0.433901
0.0122986
-0.642335
0.010074
-0.797576
0.00244908
-0.910053
-0.00978159
-0.993789
-0.0254412
-1.06324
-0.043533
-1.12916
-0.0634245
-1.19819
-1.27254
-0.0848064
0.00342935
-0.177301
0.0074774
-0.437949
0.00825996
-0.643117
0.00379005
-0.793106
-0.00604606
-0.900217
-0.0203303
-0.979505
-0.037895
-1.04568
-0.0578173
-1.10923
-0.0795468
-1.17646
-1.24928
-0.102814
0.00281444
-0.180116
0.00538578
-0.440521
0.0041591
-0.641891
-0.00250606
-0.786441
-0.0144754
-0.888248
-0.03073
-0.96325
-0.0501264
-1.02628
-0.0718226
-1.08754
-0.0953517
-1.15293
-1.22415
-0.120481
0.00216939
-0.182285
0.00324165
-0.441593
5.83513e-05
-0.638707
-0.00878741
-0.777595
-0.0228093
-0.874226
-0.040952
-0.945108
-0.0621088
-1.00512
-0.085523
-1.06412
-0.110814
-1.12764
-1.19718
-0.137781
0.00149965
-0.183785
0.00106467
-0.441158
-0.00415185
-0.633491
-0.0150278
-0.766719
-0.0310192
-0.858235
-0.0509702
-0.925157
-0.0738181
-0.982275
-0.0988936
-1.03905
-0.125907
-1.10062
-1.16839
-0.154694
0.000808808
-0.184594
-0.00114628
-0.439203
-0.00831444
-0.626323
-0.0211988
-0.753835
-0.0390801
-0.840353
-0.0607613
-0.903476
-0.0852321
-0.957804
-0.111911
-1.01237
-0.140605
-1.07193
-1.1378
-0.171194
7.43269e-05
-0.184668
-0.00339273
-0.435736
-0.0124526
-0.617263
-0.0272776
-0.73901
-0.0469689
-0.820662
-0.070304
-0.880141
-0.0963305
-0.931778
-0.124552
-0.984148
-0.154881
-1.0416
-1.10543
-0.187257
-0.00064231
-0.184026
-0.00563564
-0.430742
-0.0165488
-0.60635
-0.0332431
-0.722316
-0.0546647
-0.79924
-0.0795793
-0.855226
-0.107095
-0.904262
-0.136796
-0.954447
-0.168709
-1.00969
-1.07128
-0.202858
-0.00137326
-0.182653
-0.00786917
-0.424247
-0.0205859
-0.593633
-0.0390757
-0.703826
-0.0621487
-0.776167
-0.0885703
-0.828804
-0.117509
-0.875323
-0.148625
-0.923331
-0.182065
-0.976247
-1.03538
-0.217967
-0.00210975
-0.180543
-0.0100829
-0.416273
-0.0245476
-0.579168
-0.0447576
-0.683616
-0.069404
-0.751521
-0.0972614
-0.800947
-0.127558
-0.845027
-0.160024
-0.890865
-0.194906
-0.941365
-0.997797
-0.232486
-0.00284605
-0.177697
-0.0122662
-0.406853
-0.0284188
-0.563016
-0.0502722
-0.661762
-0.0764151
-0.725378
-0.105639
-0.771723
-0.13723
-0.813435
-0.170977
-0.857118
-0.207185
-0.905157
-0.958543
-0.246439
-0.00357751
-0.174119
-0.0144087
-0.396022
-0.0321855
-0.545239
-0.0556048
-0.638343
-0.0831683
-0.697815
-0.113691
-0.741201
-0.146518
-0.780608
-0.181476
-0.822159
-0.218522
-0.868111
-0.919311
-0.257753
-0.00429978
-0.169819
-0.0165008
-0.383821
-0.0358345
-0.525905
-0.0607416
-0.613436
-0.0896508
-0.668905
-0.121406
-0.709446
-0.155412
-0.746602
-0.191536
-0.786036
-0.229805
-0.829842
-0.878823
-0.270293
-0.0050087
-0.164811
-0.0185333
-0.370296
-0.0393538
-0.505085
-0.0656703
-0.58712
-0.0958513
-0.638724
-0.128774
-0.676523
-0.163901
-0.711475
-0.201136
-0.7488
-0.240556
-0.790423
-0.837071
-0.282307
-0.00570035
-0.15911
-0.0204977
-0.355499
-0.042732
-0.48285
-0.0703796
-0.559472
-0.101759
-0.607345
-0.135784
-0.642498
-0.171974
-0.675285
-0.210268
-0.710506
-0.250773
-0.749919
-0.794144
-0.2937
-0.00637097
-0.152739
-0.0223858
-0.339484
-0.0459592
-0.459277
-0.0748593
-0.530572
-0.107366
-0.574838
-0.142429
-0.607434
-0.179624
-0.63809
-0.218924
-0.671206
-0.260463
-0.708379
-0.75012
-0.304487
-0.00701703
-0.145722
-0.0241903
-0.322311
-0.0490259
-0.434441
-0.0791001
-0.500498
-0.112661
-0.541277
-0.148701
-0.571395
-0.186843
-0.599947
-0.227096
-0.630953
-0.26962
-0.665856
-0.705061
-0.314679
-0.00763519
-0.138087
-0.0259042
-0.304042
-0.0519236
-0.408422
-0.0830935
-0.469328
-0.117639
-0.506732
-0.154591
-0.534443
-0.193624
-0.560914
-0.234777
-0.589801
-0.278232
-0.622401
-0.659023
-0.324269
-0.00822233
-0.129865
-0.0275212
-0.284743
-0.0546446
-0.381299
-0.086832
-0.437141
-0.122291
-0.471273
-0.160093
-0.496641
-0.199959
-0.521048
-0.241956
-0.547803
-0.28629
-0.578067
-0.612065
-0.333249
-0.00877552
-0.121089
-0.0290354
-0.264483
-0.0571819
-0.353152
-0.0903084
-0.404014
-0.126611
-0.434971
-0.1652
-0.458052
-0.20584
-0.480408
-0.248626
-0.505017
-0.293784
-0.532909
-0.564242
-0.341606
-0.0092921
-0.111797
-0.0304415
-0.243334
-0.059529
-0.324065
-0.0935165
-0.370027
-0.130592
-0.397895
-0.169905
-0.418739
-0.21126
-0.439054
-0.254777
-0.461499
-0.300701
-0.486986
-0.515614
-0.349329
-0.00976958
-0.102028
-0.0317348
-0.221369
-0.0616803
-0.294119
-0.0964506
-0.335256
-0.13423
-0.360116
-0.174204
-0.378765
-0.216212
-0.397045
-0.260402
-0.41731
-0.30703
-0.440357
-0.466243
-0.356402
-0.0102057
-0.091822
-0.0329108
-0.198663
-0.0636306
-0.263399
-0.0991055
-0.299781
-0.137519
-0.321703
-0.178089
-0.338194
-0.220691
-0.354443
-0.26549
-0.37251
-0.312761
-0.393086
-0.416193
-0.362811
-0.0105985
-0.0812235
-0.0339657
-0.175296
-0.0653754
-0.23199
-0.101477
-0.26368
-0.140454
-0.282726
-0.181556
-0.297092
-0.224688
-0.311312
-0.270035
-0.327163
-0.317884
-0.345238
-0.365533
-0.368544
-0.0109461
-0.0702774
-0.0348961
-0.151346
-0.0669106
-0.199975
-0.10356
-0.22703
-0.143031
-0.243255
-0.184601
-0.255522
-0.228199
-0.267713
-0.274029
-0.281333
-0.322387
-0.296879
-0.314333
-0.373587
-0.011247
-0.0590304
-0.035699
-0.126894
-0.0682329
-0.167441
-0.105353
-0.18991
-0.145247
-0.203361
-0.187218
-0.213551
-0.231219
-0.223713
-0.277465
-0.235087
-0.326264
-0.24808
-0.262667
-0.377931
-0.0114998
-0.0475306
-0.0363719
-0.102022
-0.0693392
-0.134474
-0.106851
-0.152399
-0.147099
-0.163113
-0.189405
-0.171245
-0.233742
-0.179376
-0.280337
-0.188492
-0.329506
-0.198911
-0.210608
-0.381565
-0.0117033
-0.0358273
-0.0369128
-0.0768126
-0.0702272
-0.10116
-0.108052
-0.114573
-0.148583
-0.122582
-0.191158
-0.128669
-0.235765
-0.134769
-0.282641
-0.141615
-0.332108
-0.149445
-0.158234
-0.384482
-0.0118568
-0.0239705
-0.0373198
-0.0513496
-0.0708948
-0.0675846
-0.108955
-0.0765129
-0.149698
-0.0818396
-0.192475
-0.085892
-0.237285
-0.0899592
-0.284373
-0.094528
-0.334063
-0.0997548
-0.105622
-0.386675
-0.0119595
-0.012011
-0.0375919
-0.0257172
-0.0713407
-0.0338358
-0.109558
-0.0382956
-0.150442
-0.0409552
-0.193355
-0.0429798
-0.2383
-0.0450136
-0.285529
-0.0472994
-0.335369
-0.0499149
-0.0528506
-0.38814
-0.012011
5.57354e-11
-0.0377282
1.27957e-10
-0.0715639
1.6552e-10
-0.10986
1.80862e-10
-0.150815
1.82969e-10
-0.193795
1.79593e-10
-0.238808
1.74701e-10
-0.286107
1.67976e-10
-0.336022
1.61585e-10
1.54228e-10
-0.388873
-0.012011
0.012011
-0.0377282
0.0257172
-0.0715639
0.0338358
-0.10986
0.0382956
-0.150815
0.0409552
-0.193795
0.0429798
-0.238808
0.0450136
-0.286107
0.0472994
-0.336022
0.0499149
0.0528506
-0.388873
-0.0119595
0.0239705
-0.0375919
0.0513496
-0.0713407
0.0675846
-0.109558
0.0765129
-0.150442
0.0818396
-0.193355
0.085892
-0.2383
0.0899592
-0.285529
0.094528
-0.335369
0.0997548
0.105622
-0.38814
-0.0118568
0.0358273
-0.0373198
0.0768126
-0.0708948
0.10116
-0.108955
0.114573
-0.149698
0.122582
-0.192475
0.128669
-0.237285
0.134769
-0.284373
0.141615
-0.334063
0.149445
0.158234
-0.386675
-0.0117033
0.0475306
-0.0369128
0.102022
-0.0702272
0.134474
-0.108052
0.152399
-0.148583
0.163113
-0.191158
0.171245
-0.235765
0.179376
-0.282641
0.188492
-0.332108
0.198911
0.210608
-0.384482
-0.0114998
0.0590304
-0.0363719
0.126894
-0.0693392
0.167441
-0.106851
0.18991
-0.147099
0.203361
-0.189405
0.213551
-0.233742
0.223713
-0.280337
0.235087
-0.329506
0.24808
0.262667
-0.381565
-0.011247
0.0702774
-0.035699
0.151346
-0.0682329
0.199975
-0.105353
0.22703
-0.145247
0.243255
-0.187218
0.255522
-0.231219
0.267713
-0.277465
0.281333
-0.326264
0.296879
0.314333
-0.377931
-0.0109461
0.0812235
-0.0348961
0.175296
-0.0669106
0.23199
-0.10356
0.26368
-0.143031
0.282726
-0.184601
0.297092
-0.228199
0.311312
-0.274029
0.327163
-0.322387
0.345238
0.365533
-0.373587
-0.0105985
0.091822
-0.0339657
0.198663
-0.0653754
0.263399
-0.101477
0.299781
-0.140454
0.321703
-0.181556
0.338194
-0.224688
0.354443
-0.270035
0.37251
-0.317884
0.393086
0.416193
-0.368544
-0.0102057
0.102028
-0.0329108
0.221369
-0.0636306
0.294119
-0.0991055
0.335256
-0.137519
0.360116
-0.178089
0.378765
-0.220691
0.397045
-0.26549
0.41731
-0.312761
0.440357
0.466243
-0.362811
-0.00976958
0.111797
-0.0317348
0.243334
-0.0616803
0.324065
-0.0964506
0.370027
-0.13423
0.397895
-0.174204
0.418739
-0.216212
0.439054
-0.260402
0.461499
-0.30703
0.486986
0.515614
-0.356402
-0.0092921
0.121089
-0.0304415
0.264483
-0.059529
0.353152
-0.0935165
0.404014
-0.130592
0.434971
-0.169905
0.458052
-0.21126
0.480408
-0.254777
0.505017
-0.300701
0.532909
0.564242
-0.349329
-0.00877552
0.129865
-0.0290354
0.284743
-0.0571819
0.381299
-0.0903084
0.437141
-0.126611
0.471273
-0.1652
0.496641
-0.20584
0.521048
-0.248626
0.547803
-0.293784
0.578067
0.612065
-0.341606
-0.00822233
0.138087
-0.0275212
0.304042
-0.0546446
0.408422
-0.086832
0.469328
-0.122291
0.506732
-0.160093
0.534443
-0.199959
0.560914
-0.241956
0.589801
-0.28629
0.622401
0.659023
-0.333249
-0.00763519
0.145722
-0.0259042
0.322311
-0.0519236
0.434441
-0.0830935
0.500498
-0.117639
0.541277
-0.154591
0.571395
-0.193624
0.599947
-0.234777
0.630953
-0.278232
0.665856
0.705061
-0.324269
-0.00701703
0.152739
-0.0241903
0.339484
-0.0490259
0.459277
-0.0791001
0.530572
-0.112661
0.574838
-0.148701
0.607434
-0.186843
0.63809
-0.227096
0.671206
-0.26962
0.708379
0.75012
-0.314679
-0.00637097
0.15911
-0.0223858
0.355499
-0.0459592
0.48285
-0.0748593
0.559472
-0.107366
0.607345
-0.142429
0.642498
-0.179624
0.675285
-0.218924
0.710506
-0.260463
0.749919
0.794144
-0.304487
-0.00570035
0.164811
-0.0204977
0.370296
-0.042732
0.505085
-0.0703796
0.58712
-0.101759
0.638724
-0.135784
0.676523
-0.171974
0.711475
-0.210268
0.7488
-0.250773
0.790423
0.837071
-0.2937
-0.0050087
0.169819
-0.0185333
0.383821
-0.0393538
0.525905
-0.0656703
0.613436
-0.0958513
0.668905
-0.128774
0.709446
-0.163901
0.746602
-0.201136
0.786036
-0.240556
0.829842
0.878823
-0.282307
-0.00429978
0.174119
-0.0165008
0.396022
-0.0358345
0.545239
-0.0607416
0.638343
-0.0896508
0.697815
-0.121406
0.741201
-0.155412
0.780608
-0.191536
0.822159
-0.229805
0.868111
0.919311
-0.270293
-0.00357751
0.177697
-0.0144087
0.406853
-0.0321855
0.563016
-0.0556048
0.661762
-0.0831683
0.725378
-0.113691
0.771723
-0.146518
0.813435
-0.181476
0.857118
-0.218522
0.905157
0.958543
-0.257753
-0.00284605
0.180543
-0.0122662
0.416273
-0.0284188
0.579168
-0.0502722
0.683616
-0.0764151
0.751521
-0.105639
0.800947
-0.13723
0.845027
-0.170977
0.890865
-0.207185
0.941365
0.997797
-0.246439
-0.00210975
0.182653
-0.0100829
0.424247
-0.0245476
0.593633
-0.0447576
0.703826
-0.069404
0.776167
-0.0972614
0.828804
-0.127558
0.875323
-0.160024
0.923331
-0.194906
0.976247
1.03538
-0.232486
-0.00137326
0.184026
-0.00786917
0.430742
-0.0205859
0.60635
-0.0390757
0.722316
-0.0621487
0.79924
-0.0885703
0.855226
-0.117509
0.904262
-0.148625
0.954447
-0.182065
1.00969
1.07128
-0.217967
-0.00064231
0.184668
-0.00563564
0.435736
-0.0165488
0.617263
-0.0332431
0.73901
-0.0546647
0.820662
-0.0795793
0.880141
-0.107095
0.931778
-0.136796
0.984148
-0.168709
1.0416
1.10543
-0.202858
7.43269e-05
0.184594
-0.00339273
0.439203
-0.0124526
0.626323
-0.0272776
0.753835
-0.0469689
0.840353
-0.070304
0.903476
-0.0963305
0.957804
-0.124552
1.01237
-0.154881
1.07193
1.1378
-0.187257
0.000808808
0.183785
-0.00114628
0.441158
-0.00831444
0.633491
-0.0211988
0.766719
-0.0390801
0.858235
-0.0607613
0.925157
-0.0852321
0.982275
-0.111911
1.03905
-0.140605
1.10062
1.16839
-0.171194
0.00149965
0.182285
0.00106467
0.441593
-0.00415185
0.638707
-0.0150278
0.777595
-0.0310192
0.874226
-0.0509702
0.945108
-0.0738181
1.00512
-0.0988936
1.06412
-0.125907
1.12764
1.19718
-0.154694
0.00216939
0.180116
0.00324165
0.440521
5.83514e-05
0.641891
-0.00878741
0.786441
-0.0228093
0.888248
-0.040952
0.96325
-0.0621088
1.02628
-0.085523
1.08754
-0.110814
1.15293
1.22415
-0.137781
0.00281444
0.177301
0.00538578
0.437949
0.0041591
0.643117
-0.00250606
0.793106
-0.0144754
0.900217
-0.03073
0.979505
-0.0501264
1.04568
-0.0718226
1.10923
-0.0953517
1.17646
1.24928
-0.120481
0.00342935
0.173872
0.0074774
0.433901
0.00825996
0.642335
0.00379005
0.797576
-0.00604606
0.910053
-0.0203303
0.993789
-0.037895
1.06324
-0.0578173
1.12916
-0.0795468
1.19819
1.27254
-0.102814
0.00400987
0.169862
0.0095
0.428411
0.0122986
0.639536
0.010074
0.799801
0.00244908
0.917678
-0.00978159
1.00602
-0.0254412
1.0789
-0.043533
1.14725
-0.0634245
1.21808
1.29393
-0.0848064
0.00455206
0.16531
0.0114395
0.421524
0.0162498
0.634726
0.0163151
0.799735
0.0109771
0.923016
0.000876335
1.01612
-0.0127937
1.09257
-0.0289981
1.16345
-0.0470103
1.23609
1.3134
-0.0664803
0.00505233
0.160258
0.013283
0.413293
0.0200888
0.62792
0.0224792
0.797345
0.019503
0.925992
0.0116371
1.02399
-6.90647e-06
1.10421
-0.0142452
1.17769
-0.0303288
1.25217
1.33093
-0.047862
0.00550751
0.15475
0.0150182
0.403782
0.0237902
0.619148
0.0285313
0.792604
0.0279863
0.926537
0.0224364
1.02954
0.0129552
1.1137
0.000650261
1.19
-0.0133992
1.26622
1.34651
-0.0289809
0.00591486
0.148836
0.0166331
0.393064
0.0273286
0.608453
0.0344344
0.785498
0.0363851
0.924587
0.0332394
1.03268
0.0259893
1.12095
0.0158244
1.20016
0.00375242
1.2783
1.36015
-0.00988402
0.00627213
0.142563
0.0181164
0.38122
0.0306785
0.595891
0.0401501
0.776026
0.0446536
0.920083
0.0440006
1.03334
0.0390717
1.12587
0.031062
1.20817
0.0210083
1.28835
1.37168
0.00947646
0.00657762
0.135986
0.0194581
0.368339
0.0338152
0.581533
0.0456388
0.764203
0.052743
0.912979
0.0546696
1.03141
0.0521558
1.12839
0.0463826
1.21394
0.0384503
1.29628
1.38107
0.0290553
0.00683017
0.129156
0.0206491
0.35452
0.0367147
0.565468
0.0508601
0.750057
0.0606017
0.903238
0.0651917
1.02682
0.0651918
1.12839
0.061744
1.21739
0.056001
1.30202
1.38833
0.0487469
0.00702922
0.122126
0.0216819
0.339868
0.0393543
0.547795
0.0557732
0.733638
0.0681751
0.890836
0.075507
1.01949
0.0781233
1.12577
0.0770957
1.21842
0.0736155
1.3055
1.3934
0.068544
0.00717481
0.114952
0.0225505
0.324492
0.0417132
0.528633
0.0603377
0.715014
0.0754061
0.875767
0.0855509
1.00934
0.090887
1.12044
0.0923821
1.21692
0.0912471
1.30664
1.39623
0.0884123
0.0072676
0.107684
0.0232508
0.308509
0.0437727
0.508111
0.0645139
0.694273
0.082236
0.858045
0.0952537
0.996324
0.103413
1.11228
0.107541
1.2128
0.108843
1.30534
1.39677
0.10831
0.00730885
0.100375
0.0237806
0.292037
0.0455171
0.486375
0.0682642
0.671526
0.0886047
0.837705
0.104541
0.980388
0.115624
1.10119
0.122502
1.20592
0.126345
1.30149
1.39493
0.128187
0.0073004
0.0930747
0.0241397
0.275198
0.0469339
0.46358
0.0715535
0.646906
0.0944522
0.814806
0.113334
0.961506
0.127436
1.08709
0.137185
1.19617
0.143684
1.295
1.39062
0.147988
0.00724464
0.0858301
0.0243298
0.258113
0.0480143
0.439896
0.0743506
0.62057
0.0997191
0.789437
0.121552
0.939673
0.138755
1.06989
0.151502
1.18342
0.160782
1.28572
1.38376
0.167645
0.00714448
0.0786856
0.024355
0.240902
0.0487536
0.415497
0.0766289
0.592694
0.104349
0.761717
0.12911
0.914912
0.149483
1.04952
0.165351
1.16755
0.17755
1.27352
1.37423
0.187083
0.00700323
0.0716824
0.0242211
0.223684
0.0491517
0.390567
0.0783674
0.563479
0.108289
0.731796
0.135922
0.887279
0.159512
1.02592
0.178621
1.14845
0.193884
1.25825
1.3619
0.206213
0.00682461
0.0648578
0.0239362
0.206573
0.0492127
0.36529
0.0795519
0.533139
0.111492
0.699856
0.141906
0.856865
0.168732
0.999099
0.191188
1.12599
0.209667
1.23977
1.34663
0.224934
0.0066126
0.0582452
0.0235097
0.189676
0.0489458
0.339854
0.0801756
0.50191
0.113918
0.666114
0.14698
0.823803
0.177025
0.969054
0.20292
1.10009
0.224765
1.21793
1.32827
0.243126
0.00637138
0.0518738
0.0229527
0.173094
0.0483642
0.314442
0.0802396
0.470034
0.115538
0.630815
0.151072
0.788269
0.184277
0.935849
0.213671
1.0707
0.239029
1.19257
1.30664
0.260656
0.00610525
0.0457685
0.0222776
0.156922
0.0474854
0.289235
0.0797536
0.437766
0.116333
0.594235
0.154116
0.750486
0.190372
0.899593
0.223293
1.03778
0.252292
1.16357
1.28156
0.277369
0.00581848
0.03995
0.0214975
0.141243
0.0463307
0.264401
0.0787353
0.405361
0.116296
0.556674
0.15606
0.710723
0.195202
0.860451
0.231629
1.00135
0.264371
1.13083
1.25284
0.293095
0.00551526
0.0344348
0.020626
0.126132
0.0449242
0.240103
0.0772108
0.373075
0.115435
0.518451
0.156866
0.669291
0.198669
0.818648
0.238524
0.961498
0.275071
1.09428
1.22027
0.307647
0.00519956
0.0292352
0.0196771
0.111655
0.0432926
0.216488
0.075213
0.341154
0.113769
0.479895
0.156517
0.626543
0.200692
0.774473
0.243832
0.918358
0.284187
1.05393
1.18363
0.320827
0.00487507
0.0243602
0.0186643
0.0978656
0.0414637
0.193688
0.0727812
0.309837
0.111333
0.441343
0.155012
0.582863
0.201208
0.728278
0.247413
0.872152
0.291508
1.00983
1.1427
0.332435
0.00454512
0.019815
0.0176006
0.0848101
0.0394664
0.171822
0.0699596
0.279344
0.108174
0.403129
0.152374
0.538664
0.20018
0.680471
0.24915
0.823182
0.296827
0.962154
1.09724
0.342285
0.0042126
0.0156024
0.0164983
0.0725244
0.0373289
0.150992
0.0667957
0.249877
0.104351
0.365574
0.148646
0.494369
0.197601
0.631516
0.248949
0.771835
0.299946
0.911156
1.04697
0.350221
0.00387994
0.0117225
0.0153684
0.061036
0.0350788
0.131281
0.0633387
0.221617
0.0999288
0.328984
0.14389
0.450407
0.193493
0.581913
0.246743
0.718585
0.300691
0.857209
0.991506
0.35615
0.00354909
0.00817341
0.0142207
0.0503644
0.0327418
0.11276
0.0596379
0.194721
0.0949824
0.293639
0.13819
0.4072
0.187911
0.532192
0.2425
0.663996
0.29893
0.800778
0.930355
0.360081
0.00322154
0.00495187
0.0130638
0.0405221
0.0303418
0.0954822
0.0557418
0.169321
0.0895888
0.259792
0.131641
0.365148
0.180937
0.482895
0.236207
0.608727
0.294598
0.742387
0.862812
0.362141
0.00289832
0.00205355
0.0119049
0.0315156
0.0279002
0.0794869
0.0516966
0.145525
0.0838272
0.227661
0.124353
0.324622
0.172687
0.434562
0.227878
0.553536
0.28743
0.682836
0.78796
0.362282
0.00258011
-0.000526561
0.0107498
0.0233459
0.0254362
0.0648004
0.0475455
0.123415
0.0777765
0.19743
0.116446
0.285952
0.163309
0.387699
0.217647
0.499197
0.277286
0.623197
0.725948
0.339297
0.00226729
-0.00279385
0.00960355
0.0160096
0.0229665
0.0514375
0.0433284
0.103053
0.0715136
0.169245
0.108047
0.249419
0.152987
0.342759
0.205776
0.446407
0.265314
0.56366
0.664473
0.326789
0.00196005
-0.0047539
0.00847024
0.00949945
0.0205061
0.0394016
0.039082
0.0844775
0.0651116
0.143216
0.099283
0.215247
0.141922
0.30012
0.192672
0.395657
0.25142
0.504912
0.602853
0.31304
0.0016585
-0.0064124
0.00735349
0.00380446
0.0180682
0.0286869
0.0348395
0.0677062
0.0586385
0.119417
0.090275
0.183611
0.130299
0.260097
0.178588
0.347368
0.235751
0.447749
0.541594
0.29701
0.00136279
-0.00777519
0.00625668
-0.00108943
0.0156651
0.0192785
0.0306314
0.0527399
0.0521574
0.0978906
0.081137
0.154631
0.118294
0.22294
0.163747
0.301915
0.218588
0.392909
0.481431
0.27875
0.00107322
-0.00884841
0.00518331
-0.00519952
0.0133085
0.0111532
0.0264864
0.039562
0.0457269
0.0786501
0.0719756
0.128382
0.10608
0.188836
0.148386
0.259608
0.200274
0.341021
0.42319
0.258514
0.000790308
-0.00963872
0.0041372
-0.00854641
0.0110103
0.00428017
0.0224319
0.0281404
0.0394023
0.0616797
0.0628907
0.104894
0.0938225
0.157904
0.132745
0.220685
0.181166
0.2926
0.367673
0.236683
0.000514923
-0.0101536
0.00312279
-0.0111543
0.00878266
-0.0013797
0.0184948
0.0184282
0.0332362
0.0469383
0.0539768
0.0841534
0.0816811
0.130199
0.117058
0.185309
0.161621
0.248037
0.315569
0.213726
0.00024845
-0.0104021
0.00214528
-0.0130511
0.00663872
-0.00587314
0.0147025
0.0103645
0.0272799
0.0343609
0.0453238
0.0661095
0.0698056
0.105718
0.101551
0.153564
0.141991
0.207597
0.267419
0.19014