/*--------------------------------*- C++ -*----------------------------------*\
  =========                 |
  \\      /  F ield         | OpenFOAM: The Open Source CFD Toolbox
   \\    /   O peration     | Website:  https://openfoam.org
    \\  /    A nd           | Version:  9
     \\/     M anipulation  |
\*---------------------------------------------------------------------------*/
FoamFile
{
    format      ascii;
    class       surfaceScalarField;
    location    "1.7";
    object      phi;
}
// * * * * * * * * * * * * * * * * * * * * * * * * * * * * * * * * * * * * * //

dimensions      [0 3 -1 0 0 0 0];

internalField   nonuniform List<scalar> 
16735
(
-0.00240559
0.00240559
-3.06064e-10
-0.00608316
0.00367757
-5.9931e-10
-0.00916061
0.00307745
-5.48057e-10
-0.00976527
0.000604662
-3.01156e-10
-0.00606356
-0.00370172
6.60732e-11
0.00395484
-0.0100184
4.52216e-10
0.0223928
-0.018438
8.42281e-10
0.0513524
-0.0289596
1.14111e-09
0.0922425
-0.0408901
1.29732e-09
-0.053939
1.30296e-09
0.146182
-0.00234324
0.00474883
-0.00588168
0.00721601
-0.00874864
0.00594441
-0.00907365
0.000929676
-0.00502514
-0.00775023
0.00539692
-0.0204405
0.0242734
-0.0373145
0.0536631
-0.0583493
0.0949303
-0.0821574
-0.108125
0.149116
-0.00222028
0.00696911
-0.00548378
0.0104795
-0.00793467
0.00839529
-0.00770711
0.000702113
-0.00297416
-0.0124832
0.00824297
-0.0316576
0.0279797
-0.0570512
0.0582093
-0.0885789
0.100209
-0.124157
-0.162779
0.154863
-0.00204014
0.00900925
-0.00489938
0.0133388
-0.00673818
0.0102341
-0.00569834
-0.000337725
4.6968e-05
-0.0182285
0.0124179
-0.0440285
0.033405
-0.0780382
0.0648454
-0.120019
0.107889
-0.1672
-0.218073
0.163183
-0.00180769
0.0108169
-0.00414264
0.0156737
-0.00518706
0.0112785
-0.00309523
-0.00242956
0.00393771
-0.0252614
0.0178123
-0.0579032
0.040396
-0.100622
0.0733626
-0.152986
0.117699
-0.211537
-0.274114
0.17374
-0.001529
0.0123459
-0.00323129
0.017376
-0.00331631
0.0113635
4.8992e-05
-0.00579486
0.00863454
-0.033847
0.0242918
-0.0735604
0.0487611
-0.125091
0.0835007
-0.187726
0.129302
-0.257338
-0.330928
0.186116
-0.001211
0.0135569
-0.0021857
0.0183507
-0.0011667
0.0103445
0.00365112
-0.0106127
0.0140214
-0.0442173
0.0316995
-0.0912384
0.0582791
-0.151671
0.0949609
-0.224407
0.14231
-0.304687
-0.388456
0.199839
-0.000861196
0.0144181
-0.00102766
0.0185172
0.00121851
0.00809838
0.00765237
-0.0170465
0.0199834
-0.0565483
0.0398649
-0.11112
0.0687099
-0.180516
0.10742
-0.263117
0.156308
-0.353575
-0.446555
0.214408
-0.00048764
0.0149058
0.000219785
0.0178097
0.00379368
0.00452449
0.0119702
-0.0252231
0.0263999
-0.070978
0.0486108
-0.133331
0.0798039
-0.211709
0.120545
-0.303858
0.170872
-0.403902
-0.505002
0.229319
-9.45235e-05
0.0150003
0.00153291
0.0161823
0.00651371
-0.000456317
0.0165278
-0.0352372
0.0331508
-0.087601
0.0577596
-0.15794
0.091312
-0.245261
0.134005
-0.346551
0.185585
-0.455482
-0.563503
0.244087
0.000308974
0.0146913
0.00289414
0.0135971
0.00933562
-0.00689779
0.0212507
-0.0471522
0.0401193
-0.10647
0.0671393
-0.18496
0.102993
-0.281115
0.147485
-0.391043
0.200058
-0.508056
-0.621711
0.258265
0.000714907
0.0139764
0.00428216
0.0100299
0.0122195
-0.0148352
0.0260698
-0.0610025
0.0471958
-0.127596
0.0765875
-0.214351
0.114621
-0.319149
0.16069
-0.437112
0.213936
-0.561301
-0.679236
0.271461
0.00112104
0.0128554
0.00568065
0.00547027
0.0151299
-0.0242845
0.0309222
-0.0767947
0.0542796
-0.150953
0.0859545
-0.246026
0.125987
-0.359181
0.173358
-0.484483
0.226909
-0.614853
-0.73567
0.283343
0.00152312
0.0113322
0.00707578
-8.23946e-05
0.0180361
-0.0352448
0.0357521
-0.0945108
0.0612799
-0.176481
0.0951046
-0.279851
0.136904
-0.40098
0.185256
-0.532834
0.238717
-0.668314
-0.790596
0.293643
0.00191832
0.00941393
0.00845648
-0.00662055
0.0209123
-0.0477006
0.0405111
-0.11411
0.0681161
-0.204086
0.103917
-0.315652
0.147208
-0.444272
0.196189
-0.581815
0.249149
-0.721274
-0.843612
0.302164
0.00230486
0.00710907
0.00981435
-0.01413
0.0237371
-0.0616233
0.0451571
-0.13553
0.0747167
-0.233645
0.112283
-0.353218
0.156756
-0.488745
0.205996
-0.631055
0.25804
-0.773318
-0.894348
0.308777
0.00268188
0.00442719
0.0111433
-0.0225914
0.0264934
-0.0769734
0.0496539
-0.15869
0.0810182
-0.26501
0.120108
-0.392308
0.165425
-0.534061
0.214552
-0.680183
0.265268
-0.824034
-0.94251
0.313429
0.00304924
0.00137796
0.0124389
-0.0319811
0.0291667
-0.0937012
0.0539696
-0.183493
0.0869637
-0.298004
0.127308
-0.432653
0.173115
-0.579867
0.221769
-0.728837
0.270742
-0.873007
-0.987906
0.316139
0.00340727
-0.00202931
0.0136983
-0.0422722
0.0317448
-0.111748
0.0580751
-0.209823
0.0925009
-0.33243
0.133808
-0.473959
0.179747
-0.625807
0.227597
-0.776687
0.274421
-0.919832
-1.03053
0.317047
0.00375657
-0.00578588
0.014919
-0.0534346
0.0342165
-0.131045
0.0619429
-0.23755
0.0975807
-0.368067
0.139538
-0.515917
0.185255
-0.671523
0.23199
-0.823422
0.276426
-0.964267
-1.07084
0.316732
0.00409779
-0.00988367
0.0160987
-0.0654356
0.0365705
-0.151517
0.0655459
-0.266525
0.102157
-0.404678
0.144439
-0.558199
0.189572
-0.716656
0.234832
-0.868682
0.277342
-1.00678
-1.1177
0.324207
0.0044314
-0.0143151
0.0172347
-0.0782388
0.038795
-0.173077
0.0688571
-0.296587
0.106186
-0.442007
0.148459
-0.600473
0.192653
-0.76085
0.236093
-0.912122
0.276244
-1.04693
-1.15896
0.317496
0.00475756
-0.0190726
0.0183234
-0.0918046
0.0408768
-0.195631
0.0718489
-0.327559
0.109627
-0.479786
0.151557
-0.642402
0.194473
-0.803766
0.235779
-0.953428
0.273348
-1.0845
-1.1955
0.309893
0.00507599
-0.0241486
0.0193601
-0.106089
0.0428015
-0.219072
0.0744936
-0.359251
0.112445
-0.517737
0.153703
-0.68366
0.195032
-0.845095
0.233968
-0.992364
0.268869
-1.1194
-1.22809
0.301456
0.00538587
-0.0295345
0.0203392
-0.121042
0.0445533
-0.243286
0.0767638
-0.391462
0.114607
-0.55558
0.154881
-0.723934
0.194351
-0.884565
0.230744
-1.02876
0.262912
-1.15157
-1.25724
0.292067
0.00568587
-0.0352204
0.0212534
-0.13661
0.046115
-0.268148
0.0786331
-0.42398
0.116089
-0.593036
0.155086
-0.762931
0.19246
-0.921939
0.226192
-1.06249
0.255598
-1.18097
-1.28333
0.281687
0.00597407
-0.0411944
0.0220947
-0.15273
0.0474691
-0.293522
0.0800771
-0.456588
0.116872
-0.62983
0.154324
-0.800383
0.189409
-0.957024
0.220401
-1.09348
0.247051
-1.20762
-1.30662
0.270336
0.00624811
-0.0474425
0.0228541
-0.169336
0.0485976
-0.319266
0.0810742
-0.489065
0.116944
-0.665701
0.152613
-0.836053
0.185253
-0.989663
0.213466
-1.12169
0.237394
-1.23155
-1.32729
0.258072
0.00650518
-0.0539477
0.0235219
-0.186353
0.0494834
-0.345227
0.0816065
-0.521188
0.116304
-0.700398
0.149982
-0.86973
0.180059
-1.01974
0.205486
-1.14712
0.226745
-1.25281
-1.34552
0.244966
0.00674216
-0.0606899
0.0240883
-0.203699
0.0501103
-0.371249
0.0816607
-0.552738
0.114955
-0.733692
0.146466
-0.901241
0.1739
-1.04717
0.196558
-1.16978
0.215215
-1.27147
-1.3614
0.231102
0.0069557
-0.0676456
0.0245435
-0.221287
0.0504641
-0.39717
0.0812284
-0.583502
0.112911
-0.765375
0.142112
-0.930441
0.166854
-1.07192
0.186781
-1.18971
0.202913
-1.2876
-1.37505
0.216564
0.00714232
-0.0747879
0.024878
-0.239022
0.0505329
-0.422825
0.0803067
-0.613276
0.110193
-0.795261
0.13697
-0.957219
0.158999
-1.09395
0.176249
-1.20696
0.189937
-1.30129
-1.38655
0.201433
0.00729856
-0.0820865
0.0250833
-0.256807
0.0503077
-0.448049
0.0788981
-0.641867
0.106826
-0.823189
0.131098
-0.981491
0.150417
-1.11327
0.165054
-1.22159
0.176378
-1.31261
-1.39596
0.185787
0.00742102
-0.0895075
0.0251517
-0.274538
0.0497824
-0.47268
0.0770106
-0.669095
0.102844
-0.849022
0.124554
-1.0032
0.141188
-1.1299
0.153283
-1.23369
0.162322
-1.32165
-1.40333
0.169699
0.00750651
-0.097014
0.0250768
-0.292108
0.0489545
-0.496558
0.0746572
-0.694797
0.098284
-0.872649
0.117401
-1.02232
0.131388
-1.14389
0.141018
-1.24332
0.147845
-1.32848
-1.40872
0.153236
0.00755208
-0.104566
0.0248536
-0.30941
0.0478247
-0.519529
0.0718554
-0.718828
0.0931875
-0.893981
0.109701
-1.03883
0.121092
-1.15528
0.128334
-1.25056
0.133018
-1.33316
-1.41216
0.136459
0.00755513
-0.112121
0.0244786
-0.326333
0.0463969
-0.541447
0.0686268
-0.741058
0.0875981
-0.912952
0.101516
-1.05275
0.110372
-1.16413
0.115302
-1.25549
0.117904
-1.33576
-1.41369
0.119426
0.00751346
-0.119635
0.02395
-0.34277
0.0446783
-0.562175
0.0649965
-0.761376
0.0815616
-0.929517
0.0929066
-1.06409
0.0992935
-1.17052
0.101986
-1.25818
0.10256
-1.33634
-1.41331
0.102187
0.00742527
-0.12706
0.0232677
-0.358612
0.0426788
-0.581586
0.0609924
-0.77969
0.0751242
-0.943649
0.0839323
-1.0729
0.0879194
-1.17451
0.088444
-1.25871
0.0870399
-1.33493
-1.41107
0.0847917
0.00728928
-0.134349
0.0224331
-0.373756
0.0404111
-0.599564
0.0566444
-0.795923
0.0683327
-0.955337
0.0746493
-1.07922
0.0763076
-1.17617
0.0747301
-1.25713
0.071391
-1.33159
-1.40696
0.0672841
0.00710468
-0.141454
0.0214492
-0.388101
0.0378899
-0.616005
0.0519841
-0.810017
0.0612332
-0.964586
0.0651113
-1.0831
0.0645121
-1.17557
0.0608931
-1.25351
0.0556571
-1.32636
-1.40101
0.0497059
0.00687117
-0.148325
0.0203204
-0.40155
0.0351321
-0.630817
0.0470439
-0.821929
0.0538706
-0.971413
0.055369
-1.0846
0.0525824
-1.17278
0.0469778
-1.24791
0.0398766
-1.31926
-1.39322
0.0320915
0.00658895
-0.154914
0.0190528
-0.414014
0.0321561
-0.64392
0.0418567
-0.83163
0.0462888
-0.975845
0.0454701
-1.08378
0.0405642
-1.16788
0.0330258
-1.24037
0.0240904
-1.31032
-1.3836
0.0144678
0.00625874
-0.161173
0.0176532
-0.425408
0.0289813
-0.655248
0.0364555
-0.839104
0.0385296
-0.977919
0.035459
-1.08071
0.028499
-1.16092
0.019074
-1.23094
0.00835172
-1.2996
-1.37208
-0.00316982
0.00588174
-0.167055
0.01613
-0.435656
0.0256282
-0.664746
0.0308729
-0.844349
0.0306333
-0.97768
0.0253775
-1.07545
0.0164253
-1.15196
0.00513593
-1.21965
-0.00732754
-1.28714
-1.35879
-0.0206193
0.00545959
-0.172514
0.0144921
-0.444689
0.0221178
-0.672372
0.0251409
-0.847372
0.0226376
-0.975176
0.015264
-1.06808
0.00437943
-1.14108
-0.00869467
-1.20658
-0.0229529
-1.27288
-1.34373
-0.0380115
0.00499439
-0.177508
0.0127495
-0.452444
0.0184714
-0.678094
0.0192906
-0.848191
0.0145785
-0.970464
0.00515249
-1.05865
-0.00759826
-1.12833
-0.0224184
-1.19176
-0.0384391
-1.25686
-1.32689
-0.0552773
0.00448864
-0.181997
0.0109123
-0.458868
0.0147106
-0.681892
0.013352
-0.846832
0.00648991
-0.963602
-0.00491924
-1.04724
-0.0194827
-1.11376
-0.0360245
-1.17522
-0.0537718
-1.23911
-1.30828
-0.0723835
0.00394519
-0.185942
0.00899142
-0.463914
0.0108568
-0.683758
0.00735406
-0.84333
-0.00159656
-0.954651
-0.0149196
-1.03392
-0.0312465
-1.09744
-0.049476
-1.15699
-0.0689262
-1.21966
-1.2879
-0.0893011
0.00336727
-0.18931
0.00699814
-0.467545
0.00693135
-0.683691
0.00133005
-0.837728
-0.00965152
-0.94367
-0.0248261
-1.01874
-0.0428618
-1.0794
-0.0627444
-1.13711
-0.0838765
-1.19853
-1.26578
-0.106003
0.00275848
-0.192068
0.00494651
-0.469733
0.00295834
-0.681703
-0.00471305
-0.830057
-0.0176489
-0.930734
-0.0346102
-1.00178
-0.0543032
-1.05971
-0.0758036
-1.11561
-0.0985968
-1.17573
-1.24191
-0.122463
0.00212292
-0.194191
0.00285026
-0.47046
-0.00104413
-0.677808
-0.0107341
-0.820367
-0.0255626
-0.915906
-0.0442471
-0.983097
-0.0655465
-1.03841
-0.0886284
-1.09252
-0.113061
-1.1513
-1.21631
-0.138656
0.00146636
-0.195657
0.000735658
-0.469729
-0.00509298
-0.67198
-0.0167155
-0.808745
-0.0333688
-0.899252
-0.053714
-0.962752
-0.0765691
-1.01555
-0.101195
-1.0679
-0.127243
-1.12525
-1.189
-0.154557
0.000786141
-0.196443
-0.00142992
-0.467513
-0.00912003
-0.664289
-0.0226346
-0.79523
-0.0410459
-0.880841
-0.0629898
-0.940808
-0.0873499
-0.991194
-0.113478
-1.04177
-0.141116
-1.09762
-1.15998
-0.170141
6.10904e-05
-0.196505
-0.00361995
-0.463832
-0.0131237
-0.654786
-0.0284717
-0.779882
-0.0485736
-0.860739
-0.0720551
-0.917327
-0.097869
-0.96538
-0.125456
-1.01418
-0.154654
-1.06842
-1.12925
-0.185383
-0.000636676
-0.195868
-0.005806
-0.458663
-0.0170889
-0.643503
-0.0342082
-0.762763
-0.0559333
-0.839014
-0.0808922
-0.892368
-0.108108
-0.938165
-0.137107
-0.985183
-0.167829
-1.0377
-1.09682
-0.200254
-0.00135158
-0.194516
-0.00798338
-0.452031
-0.0210008
-0.630485
-0.0398268
-0.743937
-0.0631081
-0.815733
-0.0894848
-0.865991
-0.11805
-0.9096
-0.148409
-0.954824
-0.180614
-1.00549
-1.0627
-0.21473
-0.00207257
-0.192444
-0.0101431
-0.443961
-0.0248451
-0.615783
-0.0453115
-0.72347
-0.0700824
-0.790962
-0.0978178
-0.838256
-0.127679
-0.879739
-0.159345
-0.923157
-0.192985
-0.971851
-1.02691
-0.228779
-0.00279417
-0.18965
-0.0122758
-0.434479
-0.0286084
-0.599451
-0.0506475
-0.701431
-0.0768419
-0.764767
-0.105878
-0.80922
-0.136981
-0.848635
-0.169899
-0.890239
-0.204904
-0.936847
-0.989514
-0.242301
-0.00351208
-0.186137
-0.0143722
-0.423619
-0.032278
-0.581545
-0.0558213
-0.677888
-0.0833734
-0.737215
-0.113652
-0.778942
-0.145945
-0.816343
-0.180055
-0.856129
-0.216311
-0.900591
-0.950544
-0.25528
-0.00422234
-0.181915
-0.0164238
-0.411417
-0.0358423
-0.562127
-0.0608204
-0.65291
-0.0896649
-0.708371
-0.121129
-0.747477
-0.154564
-0.782908
-0.189806
-0.820886
-0.226771
-0.863626
-0.911973
-0.265342
-0.00492117
-0.176994
-0.0184222
-0.397916
-0.03929
-0.541259
-0.0656331
-0.626567
-0.0957053
-0.678299
-0.1283
-0.714883
-0.16283
-0.748377
-0.199175
-0.784541
-0.237339
-0.825462
-0.872007
-0.277305
-0.00560497
-0.171389
-0.0203595
-0.383162
-0.042611
-0.519007
-0.0702488
-0.598929
-0.101484
-0.647063
-0.135153
-0.681214
-0.17073
-0.7128
-0.208136
-0.747136
-0.247437
-0.786162
-0.830698
-0.288745
-0.00627028
-0.165119
-0.0222284
-0.367204
-0.0457956
-0.49544
-0.0746577
-0.570067
-0.106992
-0.614728
-0.14168
-0.646526
-0.178253
-0.676227
-0.21667
-0.708719
-0.257042
-0.74579
-0.788167
-0.299573
-0.00691384
-0.158205
-0.024022
-0.350096
-0.0488352
-0.470627
-0.0788508
-0.540051
-0.112221
-0.581358
-0.14787
-0.610877
-0.185388
-0.638709
-0.224769
-0.669338
-0.266158
-0.704401
-0.744515
-0.309811
-0.00753254
-0.150672
-0.0257337
-0.331894
-0.0517216
-0.444639
-0.0828198
-0.508953
-0.117162
-0.547016
-0.153717
-0.574322
-0.192128
-0.600298
-0.232423
-0.629043
-0.274777
-0.662046
-0.699816
-0.319476
-0.00812344
-0.142549
-0.0273576
-0.31266
-0.0544475
-0.417549
-0.0865572
-0.476843
-0.121807
-0.511766
-0.159212
-0.536917
-0.198463
-0.561047
-0.239622
-0.587884
-0.282889
-0.618778
-0.654137
-0.328569
-0.00868379
-0.133865
-0.0288882
-0.292456
-0.0570059
-0.389431
-0.0900559
-0.443793
-0.126151
-0.475672
-0.164348
-0.49872
-0.204387
-0.521008
-0.246357
-0.545914
-0.290485
-0.574651
-0.607538
-0.337084
-0.00921104
-0.124654
-0.0303202
-0.271347
-0.0593907
-0.360361
-0.0933096
-0.409874
-0.130186
-0.438796
-0.169119
-0.459786
-0.209891
-0.480236
-0.25262
-0.503185
-0.297553
-0.529718
-0.560078
-0.345012
-0.00970279
-0.114951
-0.0316492
-0.2494
-0.0615962
-0.330414
-0.0963125
-0.375158
-0.133906
-0.401202
-0.173517
-0.420176
-0.214967
-0.438786
-0.2584
-0.459752
-0.304082
-0.484036
-0.511818
-0.352342
-0.0101569
-0.104794
-0.0328706
-0.226687
-0.0636171
-0.299667
-0.0990591
-0.339716
-0.137306
-0.362955
-0.177536
-0.379945
-0.219608
-0.396715
-0.263688
-0.415672
-0.310061
-0.437663
-0.462819
-0.35906
-0.0105712
-0.0942232
-0.0339808
-0.203277
-0.065449
-0.268199
-0.101545
-0.30362
-0.140381
-0.324118
-0.181172
-0.339155
-0.223807
-0.35408
-0.268476
-0.371002
-0.315478
-0.390661
-0.413145
-0.365152
-0.0109442
-0.083279
-0.0349762
-0.179245
-0.0670876
-0.236088
-0.103765
-0.266943
-0.143127
-0.284757
-0.184417
-0.297865
-0.227557
-0.310939
-0.272755
-0.325804
-0.320323
-0.343093
-0.362863
-0.370605
-0.011274
-0.0720051
-0.0358539
-0.154665
-0.0685294
-0.203412
-0.105716
-0.229756
-0.145538
-0.244935
-0.187268
-0.256135
-0.230853
-0.267355
-0.276518
-0.28014
-0.324586
-0.295025
-0.312044
-0.375406
-0.0115593
-0.0604458
-0.0366111
-0.129613
-0.069771
-0.170252
-0.107395
-0.192132
-0.147612
-0.204718
-0.18972
-0.214027
-0.233689
-0.223386
-0.279756
-0.234072
-0.328257
-0.246524
-0.260758
-0.379543
-0.0117989
-0.0486468
-0.0372455
-0.104167
-0.0708098
-0.136688
-0.108798
-0.154143
-0.149345
-0.164171
-0.19177
-0.171602
-0.236059
-0.179097
-0.282465
-0.187667
-0.331329
-0.197659
-0.209081
-0.383006
-0.0119918
-0.036655
-0.0377553
-0.0784032
-0.0716435
-0.1028
-0.109924
-0.115863
-0.150735
-0.12336
-0.193413
-0.128924
-0.237961
-0.134549
-0.284638
-0.140989
-0.333795
-0.148502
-0.157089
-0.385788
-0.0121372
-0.0245177
-0.038139
-0.0524015
-0.0722704
-0.0686685
-0.11077
-0.0773636
-0.151779
-0.0823501
-0.194648
-0.0860557
-0.23939
-0.0898077
-0.286272
-0.094107
-0.335649
-0.0991239
-0.104858
-0.38788
-0.0122345
-0.0122832
-0.0383954
-0.0262406
-0.0726891
-0.0343748
-0.111334
-0.0387183
-0.152476
-0.0412081
-0.195472
-0.0430597
-0.240344
-0.0449363
-0.287363
-0.0470878
-0.336888
-0.0495989
-0.0524691
-0.389277
-0.0122832
-1.20166e-10
-0.0385238
-1.30804e-10
-0.0728986
-4.30488e-11
-0.111617
2.49199e-12
-0.152825
1.72307e-11
-0.195885
-1.61234e-12
-0.240821
-2.53254e-11
-0.287909
-4.88559e-11
-0.337508
-6.78216e-11
-8.86135e-11
-0.389977
-0.0122832
0.0122832
-0.0385238
0.0262406
-0.0728986
0.0343748
-0.111617
0.0387183
-0.152825
0.0412081
-0.195885
0.0430597
-0.240821
0.0449363
-0.287909
0.0470878
-0.337508
0.0495989
0.0524691
-0.389977
-0.0122345
0.0245177
-0.0383954
0.0524015
-0.0726891
0.0686685
-0.111334
0.0773636
-0.152476
0.0823501
-0.195472
0.0860557
-0.240344
0.0898077
-0.287363
0.094107
-0.336888
0.0991239
0.104858
-0.389277
-0.0121372
0.036655
-0.038139
0.0784032
-0.0722704
0.1028
-0.11077
0.115863
-0.151779
0.12336
-0.194648
0.128924
-0.23939
0.134549
-0.286272
0.140989
-0.335649
0.148502
0.157089
-0.38788
-0.0119918
0.0486468
-0.0377553
0.104167
-0.0716435
0.136688
-0.109924
0.154143
-0.150735
0.164171
-0.193413
0.171602
-0.237961
0.179097
-0.284638
0.187667
-0.333795
0.197659
0.209081
-0.385788
-0.0117989
0.0604458
-0.0372455
0.129613
-0.0708098
0.170252
-0.108798
0.192132
-0.149345
0.204718
-0.19177
0.214027
-0.236059
0.223386
-0.282465
0.234072
-0.331329
0.246524
0.260758
-0.383006
-0.0115593
0.0720051
-0.0366111
0.154665
-0.069771
0.203412
-0.107395
0.229756
-0.147612
0.244935
-0.18972
0.256135
-0.233689
0.267355
-0.279756
0.28014
-0.328257
0.295025
0.312044
-0.379543
-0.011274
0.083279
-0.0358539
0.179245
-0.0685294
0.236088
-0.105716
0.266943
-0.145538
0.284757
-0.187268
0.297865
-0.230853
0.310939
-0.276518
0.325804
-0.324586
0.343093
0.362863
-0.375406
-0.0109442
0.0942232
-0.0349762
0.203277
-0.0670876
0.268199
-0.103765
0.30362
-0.143127
0.324118
-0.184417
0.339155
-0.227557
0.35408
-0.272755
0.371002
-0.320323
0.390661
0.413145
-0.370605
-0.0105712
0.104794
-0.0339808
0.226687
-0.065449
0.299667
-0.101545
0.339716
-0.140381
0.362955
-0.181172
0.379945
-0.223807
0.396715
-0.268476
0.415672
-0.315478
0.437663
0.462819
-0.365152
-0.0101569
0.114951
-0.0328706
0.2494
-0.0636171
0.330414
-0.0990591
0.375158
-0.137306
0.401202
-0.177536
0.420176
-0.219608
0.438786
-0.263688
0.459752
-0.310061
0.484036
0.511818
-0.35906
-0.00970279
0.124654
-0.0316492
0.271347
-0.0615962
0.360361
-0.0963125
0.409874
-0.133906
0.438796
-0.173517
0.459786
-0.214967
0.480236
-0.2584
0.503185
-0.304082
0.529718
0.560078
-0.352342
-0.00921104
0.133865
-0.0303202
0.292456
-0.0593907
0.389431
-0.0933096
0.443793
-0.130186
0.475672
-0.169119
0.49872
-0.209891
0.521008
-0.25262
0.545914
-0.297553
0.574651
0.607538
-0.345012
-0.00868379
0.142549
-0.0288882
0.31266
-0.0570059
0.417549
-0.0900559
0.476843
-0.126151
0.511766
-0.164348
0.536917
-0.204387
0.561047
-0.246357
0.587884
-0.290485
0.618778
0.654137
-0.337084
-0.00812344
0.150672
-0.0273576
0.331894
-0.0544475
0.444639
-0.0865572
0.508953
-0.121807
0.547016
-0.159212
0.574322
-0.198463
0.600298
-0.239622
0.629043
-0.282889
0.662046
0.699816
-0.328569
-0.00753254
0.158205
-0.0257337
0.350096
-0.0517216
0.470627
-0.0828198
0.540051
-0.117162
0.581358
-0.153717
0.610877
-0.192128
0.638709
-0.232423
0.669338
-0.274777
0.704401
0.744515
-0.319476
-0.00691384
0.165119
-0.024022
0.367204
-0.0488352
0.49544
-0.0788508
0.570067
-0.112221
0.614728
-0.14787
0.646526
-0.185388
0.676227
-0.224769
0.708719
-0.266158
0.74579
0.788167
-0.309811
-0.00627028
0.171389
-0.0222284
0.383162
-0.0457956
0.519007
-0.0746577
0.598929
-0.106992
0.647063
-0.14168
0.681214
-0.178253
0.7128
-0.21667
0.747136
-0.257042
0.786162
0.830698
-0.299573
-0.00560497
0.176994
-0.0203595
0.397916
-0.042611
0.541259
-0.0702488
0.626567
-0.101484
0.678299
-0.135153
0.714883
-0.17073
0.748377
-0.208136
0.784541
-0.247437
0.825462
0.872007
-0.288745
-0.00492117
0.181915
-0.0184222
0.411417
-0.03929
0.562127
-0.0656331
0.65291
-0.0957053
0.708371
-0.1283
0.747477
-0.16283
0.782908
-0.199175
0.820886
-0.237339
0.863626
0.911973
-0.277305
-0.00422234
0.186137
-0.0164238
0.423619
-0.0358423
0.581545
-0.0608204
0.677888
-0.0896649
0.737215
-0.121129
0.778942
-0.154564
0.816343
-0.189806
0.856129
-0.226771
0.900591
0.950544
-0.265342
-0.00351208
0.18965
-0.0143722
0.434479
-0.032278
0.599451
-0.0558213
0.701431
-0.0833734
0.764767
-0.113652
0.80922
-0.145945
0.848635
-0.180055
0.890239
-0.216311
0.936847
0.989514
-0.25528
-0.00279417
0.192444
-0.0122758
0.443961
-0.0286084
0.615783
-0.0506475
0.72347
-0.0768419
0.790962
-0.105878
0.838256
-0.136981
0.879739
-0.169899
0.923157
-0.204904
0.971851
1.02691
-0.242301
-0.00207257
0.194516
-0.0101431
0.452031
-0.0248451
0.630485
-0.0453115
0.743937
-0.0700824
0.815733
-0.0978178
0.865991
-0.127679
0.9096
-0.159345
0.954824
-0.192985
1.00549
1.0627
-0.228779
-0.00135158
0.195868
-0.00798338
0.458663
-0.0210008
0.643503
-0.0398268
0.762763
-0.0631081
0.839014
-0.0894848
0.892368
-0.11805
0.938165
-0.148409
0.985183
-0.180614
1.0377
1.09682
-0.21473
-0.000636676
0.196505
-0.005806
0.463832
-0.0170889
0.654786
-0.0342082
0.779882
-0.0559333
0.860739
-0.0808922
0.917327
-0.108108
0.96538
-0.137107
1.01418
-0.167829
1.06842
1.12925
-0.200254
6.10904e-05
0.196443
-0.00361995
0.467513
-0.0131237
0.664289
-0.0284717
0.79523
-0.0485736
0.880841
-0.0720551
0.940808
-0.097869
0.991194
-0.125456
1.04177
-0.154654
1.09762
1.15998
-0.185383
0.000786141
0.195657
-0.00142992
0.469729
-0.00912003
0.67198
-0.0226346
0.808745
-0.0410459
0.899252
-0.0629898
0.962752
-0.0873499
1.01555
-0.113478
1.0679
-0.141116
1.12525
1.189
-0.170141
0.00146636
0.194191
0.000735658
0.47046
-0.00509298
0.677808
-0.0167155
0.820367
-0.0333688
0.915906
-0.053714
0.983097
-0.0765691
1.03841
-0.101195
1.09252
-0.127243
1.1513
1.21631
-0.154557
0.00212292
0.192068
0.00285026
0.469733
-0.00104413
0.681703
-0.0107341
0.830057
-0.0255626
0.930734
-0.0442471
1.00178
-0.0655465
1.05971
-0.0886284
1.11561
-0.113061
1.17573
1.24191
-0.138656
0.00275848
0.18931
0.00494651
0.467545
0.00295834
0.683691
-0.00471305
0.837728
-0.0176489
0.94367
-0.0346102
1.01874
-0.0543032
1.0794
-0.0758036
1.13711
-0.0985968
1.19853
1.26578
-0.122463
0.00336727
0.185942
0.00699814
0.463914
0.00693135
0.683758
0.00133005
0.84333
-0.00965152
0.954651
-0.0248261
1.03392
-0.0428618
1.09744
-0.0627444
1.15699
-0.0838765
1.21966
1.2879
-0.106003
0.00394519
0.181997
0.00899142
0.458868
0.0108568
0.681892
0.00735406
0.846832
-0.00159656
0.963602
-0.0149196
1.04724
-0.0312465
1.11376
-0.049476
1.17522
-0.0689262
1.23911
1.30828
-0.0893011
0.00448864
0.177508
0.0109123
0.452444
0.0147106
0.678094
0.013352
0.848191
0.00648991
0.970464
-0.00491924
1.05865
-0.0194827
1.12833
-0.0360245
1.19176
-0.0537718
1.25686
1.32689
-0.0723835
0.00499439
0.172514
0.0127495
0.444689
0.0184714
0.672372
0.0192906
0.847372
0.0145785
0.975176
0.00515249
1.06808
-0.00759826
1.14108
-0.0224184
1.20658
-0.0384391
1.27288
1.34373
-0.0552773
0.00545959
0.167055
0.0144921
0.435656
0.0221178
0.664746
0.0251409
0.844349
0.0226376
0.97768
0.015264
1.07545
0.00437943
1.15196
-0.00869467
1.21965
-0.0229529
1.28714
1.35879
-0.0380115
0.00588174
0.161173
0.01613
0.425408
0.0256282
0.655248
0.0308729
0.839104
0.0306333
0.977919
0.0253775
1.08071
0.0164253
1.16092
0.00513593
1.23094
-0.00732754
1.2996
1.37208
-0.0206193
0.00625874
0.154914
0.0176532
0.414014
0.0289813
0.64392
0.0364555
0.83163
0.0385296
0.975845
0.035459
1.08378
0.028499
1.16788
0.019074
1.24037
0.00835172
1.31032
1.3836
-0.00316982
0.00658895
0.148325
0.0190528
0.40155
0.0321561
0.630817
0.0418567
0.821929
0.0462888
0.971413
0.0454701
1.0846
0.0405642
1.17278
0.0330258
1.24791
0.0240904
1.31926
1.39322
0.0144678
0.00687117
0.141454
0.0203204
0.388101
0.0351321
0.616005
0.0470439
0.810017
0.0538706
0.964586
0.055369
1.0831
0.0525824
1.17557
0.0469778
1.25351
0.0398766
1.32636
1.40101
0.0320915
0.00710468
0.134349
0.0214492
0.373756
0.0378899
0.599564
0.0519841
0.795923
0.0612332
0.955337
0.0651113
1.07922
0.0645121
1.17617
0.0608931
1.25713
0.0556571
1.33159
1.40696
0.0497059
0.00728928
0.12706
0.0224331
0.358612
0.0404111
0.581586
0.0566444
0.77969
0.0683327
0.943649
0.0746493
1.0729
0.0763076
1.17451
0.0747301
1.25871
0.071391
1.33493
1.41107
0.0672841
0.00742527
0.119635
0.0232677
0.34277
0.0426788
0.562175
0.0609924
0.761376
0.0751242
0.929517
0.0839323
1.06409
0.0879194
1.17052
0.088444
1.25818
0.0870399
1.33634
1.41331
0.0847917
0.00751346
0.112121
0.02395
0.326333
0.0446783
0.541447
0.0649965
0.741058
0.0815616
0.912952
0.0929066
1.05275
0.0992935
1.16413
0.101986
1.25549
0.10256
1.33576
1.41369
0.102187
0.00755513
0.104566
0.0244786
0.30941
0.0463969
0.519529
0.0686268
0.718828
0.0875981
0.893981
0.101516
1.03883
0.110372
1.15528
0.115302
1.25056
0.117904
1.33316
1.41216
0.119426
0.00755208
0.097014
0.0248536
0.292108
0.0478247
0.496558
0.0718554
0.694797
0.0931875
0.872649
0.109701
1.02232
0.121092
1.14389
0.128334
1.24332
0.133018
1.32848
1.40872
0.136459
0.00750651
0.0895075
0.0250768
0.274538
0.0489545
0.47268
0.0746572
0.669095
0.098284
0.849022
0.117401
1.0032
0.131388
1.1299
0.141018
1.23369
0.147845
1.32165
1.40333
0.153236
0.00742102
0.0820865
0.0251517
0.256807
0.0497824
0.448049
0.0770106
0.641867
0.102844
0.823189
0.124554
0.981491
0.141188
1.11327
0.153283
1.22159
0.162322
1.31261
1.39596
0.169699
0.00729856
0.0747879
0.0250833
0.239022
0.0503077
0.422825
0.0788981
0.613276
0.106826
0.795261
0.131098
0.957219
0.150417
1.09395
0.165054
1.20696
0.176378
1.30129
1.38655
0.185787
0.00714232
0.0676456
0.024878
0.221287
0.0505329
0.39717
0.0803067
0.583502
0.110193
0.765375
0.13697
0.930441
0.158999
1.07192
0.176249
1.18971
0.189937
1.2876
1.37505
0.201433
0.0069557
0.0606899
0.0245435
0.203699
0.0504641
0.371249
0.0812284
0.552738
0.112911
0.733692
0.142112
0.901241
0.166854
1.04717
0.186781
1.16978
0.202913
1.27147
1.3614
0.216564
0.00674216
0.0539477
0.0240883
0.186353
0.0501103
0.345227
0.0816607
0.521188
0.114955
0.700398
0.146466
0.86973
0.1739
1.01974
0.196558
1.14712
0.215215
1.25281
1.34552
0.231102
0.00650518
0.0474426
0.0235219
0.169336
0.0494834
0.319266
0.0816065
0.489065
0.116304
0.665701
0.149982
0.836052
0.180059
0.989663
0.205486
1.12169
0.226745
1.23155
1.32729
0.244966
0.00624811
0.0411944
0.0228541
0.15273
0.0485976
0.293522
0.0810742
0.456588
0.116944
0.62983
0.152613
0.800383
0.185253
0.957024
0.213466
1.09348
0.237394
1.20762
1.30662
0.258072
0.00597407
0.0352204
0.0220947
0.13661
0.0474691
0.268148
0.0800771
0.42398
0.116872
0.593036
0.154324
0.762931
0.189409
0.921939
0.220401
1.06249
0.247051
1.18097
1.28333
0.270336
0.00568587
0.0295345
0.0212534
0.121042
0.046115
0.243286
0.0786331
0.391462
0.116089
0.55558
0.155086
0.723934
0.19246
0.884565
0.226192
1.02876
0.255598
1.15157
1.25724
0.281687
0.00538587
0.0241486
0.0203392
0.106089
0.0445533
0.219072
0.0767638
0.359251
0.114607
0.517737
0.154881
0.68366
0.194351
0.845095
0.230744
0.992364
0.262912
1.1194
1.22809
0.292067
0.00507599
0.0190726
0.0193601
0.0918046
0.0428015
0.195631
0.0744936
0.327559
0.112445
0.479786
0.153703
0.642402
0.195032
0.803766
0.233968
0.953428
0.268869
1.0845
1.1955
0.301456
0.00475756
0.0143151
0.0183234
0.0782388
0.0408768
0.173077
0.0718489
0.296587
0.109627
0.442007
0.151557
0.600473
0.194473
0.76085
0.235779
0.912122
0.273348
1.04693
1.15896
0.309893
0.0044314
0.00988367
0.0172347
0.0654356
0.038795
0.151517
0.0688571
0.266525
0.106186
0.404678
0.148459
0.558199
0.192653
0.716656
0.236093
0.868682
0.276244
1.00678
1.1177
0.317496
0.00409779
0.00578588
0.0160987
0.0534346
0.0365705
0.131045
0.0655459
0.23755
0.102157
0.368067
0.144439
0.515917
0.189572
0.671523
0.234832
0.823422
0.277342
0.964267
1.07084
0.324207
0.00375657
0.00202931
0.014919
0.0422722
0.0342165
0.111748
0.0619429
0.209823
0.0975807
0.33243
0.139538
0.473959
0.185255
0.625807
0.23199
0.776687
0.276426
0.919832
1.03053
0.316732
0.00340727
-0.00137796
0.0136983
0.0319811
0.0317448
0.0937012
0.0580751
0.183493
0.0925009
0.298004
0.133808
0.432653
0.179747
0.579867
0.227597
0.728837
0.274421
0.873007
0.987906
0.317047
0.00304924
-0.00442719
0.0124389
0.0225914
0.0291667
0.0769734
0.0539696
0.15869
0.0869637
0.26501
0.127308
0.392308
0.173115
0.534061
0.221769
0.680183
0.270742
0.824034
0.94251
0.316139
0.00268188
-0.00710907
0.0111433
0.01413
0.0264934
0.0616233
0.0496539
0.13553
0.0810182
0.233645
0.120108
0.353218
0.165425
0.488745
0.214552
0.631055
0.265268
0.773318
0.894348
0.313429
0.00230486
-0.00941393
0.00981435
0.00662056
0.0237371
0.0477006
0.0451571
0.11411
0.0747167
0.204086
0.112283
0.315652
0.156756
0.444272
0.205996
0.581815
0.25804
0.721274
0.843612
0.308777
0.00191832
-0.0113322
0.00845648
8.23959e-05
0.0209123
0.0352448
0.0405111
0.0945108
0.0681161
0.176481
0.103917
0.279851
0.147208
0.40098
0.196189
0.532834
0.249149
0.668314
0.790596
0.302164
0.00152312
-0.0128554
0.00707578
-0.00547026
0.0180361
0.0242845
0.0357521
0.0767947
0.0612799
0.150953
0.0951046
0.246026
0.136904
0.359181
0.185256
0.484483
0.238717
0.614853
0.73567
0.293643
0.00112104
-0.0139764
0.00568065
-0.0100299
0.0151299
0.0148352
0.0309222
0.0610025
0.0542796
0.127596
0.0859545
0.214351
0.125987
0.319149
0.173358
0.437112
0.226909
0.561301
0.679236
0.283343
0.000714907
-0.0146913
0.00428216
-0.0135971
0.0122195
0.00689779
0.0260698
0.0471522
0.0471958
0.10647
0.0765875
0.18496
0.114621
0.281115
0.16069
0.391043
0.213936
0.508056
0.621711
0.271461
0.000308974
-0.0150003
0.00289414
-0.0161823
0.00933562
0.000456318
0.0212507
0.0352372
0.0401193
0.087601
0.0671393
0.15794
0.102993
0.245261
0.147485