/*--------------------------------*- C++ -*----------------------------------*\
  =========                 |
  \\      /  F ield         | OpenFOAM: The Open Source CFD Toolbox
   \\    /   O peration     | Website:  https://openfoam.org
    \\  /    A nd           | Version:  9
     \\/     M anipulation  |
\*---------------------------------------------------------------------------*/
FoamFile
{
    format      ascii;
    class       volScalarField;
    location    "33.6";
    object      p;
}
// * * * * * * * * * * * * * * * * * * * * * * * * * * * * * * * * * * * * * //

dimensions      [0 2 -2 0 0 0 0];

internalField   nonuniform List<scalar> 
8500
(
-0.300218
-0.304435
-0.305273
-0.307025
-0.309116
-0.309367
-0.313132
-0.30951
-0.3157
-0.308388
-0.300483
-0.304639
-0.305471
-0.307191
-0.309314
-0.309461
-0.313429
-0.309445
-0.316114
-0.308276
-0.301006
-0.305041
-0.305859
-0.307515
-0.309704
-0.309639
-0.314016
-0.309299
-0.316937
-0.308047
-0.301775
-0.305631
-0.306425
-0.307983
-0.310266
-0.30988
-0.314871
-0.309042
-0.318157
-0.307701
-0.30277
-0.306393
-0.307151
-0.308571
-0.310977
-0.310158
-0.31596
-0.308638
-0.31975
-0.307232
-0.303968
-0.307309
-0.308013
-0.309253
-0.311801
-0.310447
-0.317229
-0.308051
-0.321675
-0.306622
-0.305344
-0.308357
-0.308986
-0.31
-0.312694
-0.310723
-0.318602
-0.307251
-0.323876
-0.305813
-0.306871
-0.309515
-0.310042
-0.310783
-0.313604
-0.310973
-0.319984
-0.306226
-0.326261
-0.304794
-0.308523
-0.310763
-0.311152
-0.311577
-0.314474
-0.311193
-0.321257
-0.305052
-0.328387
-0.303775
-0.310277
-0.312081
-0.312287
-0.31236
-0.315248
-0.311399
-0.322205
-0.303956
-0.330183
-0.302378
-0.312113
-0.313454
-0.313425
-0.313117
-0.315866
-0.311677
-0.322694
-0.302833
-0.331606
-0.300761
-0.314018
-0.31487
-0.314545
-0.31384
-0.316225
-0.312072
-0.322738
-0.301755
-0.332246
-0.299404
-0.315987
-0.316324
-0.315636
-0.314545
-0.316349
-0.312455
-0.322336
-0.301045
-0.331557
-0.298861
-0.318022
-0.317815
-0.31669
-0.315211
-0.316292
-0.312771
-0.321421
-0.300862
-0.329146
-0.299155
-0.320135
-0.319351
-0.31772
-0.315818
-0.316102
-0.313006
-0.320058
-0.301127
-0.324997
-0.299479
-0.322353
-0.320938
-0.318762
-0.316372
-0.31583
-0.312959
-0.318372
-0.301472
-0.319611
-0.298737
-0.324708
-0.322597
-0.319846
-0.316904
-0.31555
-0.312597
-0.316449
-0.301509
-0.313631
-0.296411
-0.327242
-0.324361
-0.321006
-0.317454
-0.315325
-0.31194
-0.314258
-0.301045
-0.307313
-0.29252
-0.330003
-0.326265
-0.322287
-0.318058
-0.315158
-0.311098
-0.311708
-0.300005
-0.300584
-0.287483
-0.333048
-0.328349
-0.323738
-0.318743
-0.315011
-0.310191
-0.308777
-0.29825
-0.29349
-0.28208
-0.336431
-0.330662
-0.325411
-0.319509
-0.314856
-0.309259
-0.305539
-0.295553
-0.286649
-0.276799
-0.340198
-0.333275
-0.327344
-0.320339
-0.314727
-0.308239
-0.302078
-0.291862
-0.280506
-0.27026
-0.344421
-0.336238
-0.329544
-0.321245
-0.31468
-0.30701
-0.298423
-0.287443
-0.274341
-0.263504
-0.349166
-0.339616
-0.331972
-0.322307
-0.31471
-0.305466
-0.294575
-0.282433
-0.268174
-0.256704
-0.354494
-0.343462
-0.334577
-0.323658
-0.314727
-0.303548
-0.290487
-0.277032
-0.261894
-0.249815
-0.360473
-0.347786
-0.337363
-0.32537
-0.314609
-0.301228
-0.286138
-0.271333
-0.255476
-0.242904
-0.367177
-0.352541
-0.340444
-0.327368
-0.314256
-0.298503
-0.281511
-0.265397
-0.248922
-0.235902
-0.374676
-0.357629
-0.344022
-0.329448
-0.31359
-0.295376
-0.276597
-0.259249
-0.242217
-0.228809
-0.383012
-0.362946
-0.348282
-0.331394
-0.312541
-0.291852
-0.271389
-0.252889
-0.235357
-0.221585
-0.392162
-0.368431
-0.353266
-0.333053
-0.311041
-0.287925
-0.265875
-0.246308
-0.228323
-0.21421
-0.402006
-0.374098
-0.358793
-0.334329
-0.309025
-0.283575
-0.260039
-0.239487
-0.221098
-0.206657
-0.412321
-0.380024
-0.364475
-0.335144
-0.306441
-0.278774
-0.253857
-0.232405
-0.213658
-0.198905
-0.422774
-0.386307
-0.369826
-0.335409
-0.303244
-0.273486
-0.247301
-0.225038
-0.205979
-0.190931
-0.433047
-0.393008
-0.374384
-0.335009
-0.299397
-0.267672
-0.240339
-0.217358
-0.19804
-0.182719
-0.442836
-0.400092
-0.377798
-0.333813
-0.294857
-0.261298
-0.232939
-0.209336
-0.189818
-0.174249
-0.451883
-0.407388
-0.379848
-0.331685
-0.289578
-0.254332
-0.225067
-0.200945
-0.181293
-0.165506
-0.459987
-0.414568
-0.380431
-0.328498
-0.283509
-0.24674
-0.216695
-0.19216
-0.172445
-0.156476
-0.466988
-0.421178
-0.379534
-0.324153
-0.276596
-0.238488
-0.207793
-0.182958
-0.163254
-0.147153
-0.472757
-0.426691
-0.377183
-0.31858
-0.268787
-0.229543
-0.198335
-0.173318
-0.153707
-0.137546
-0.477186
-0.430631
-0.37336
-0.311733
-0.260031
-0.219872
-0.1883
-0.163222
-0.14379
-0.12768
-0.480176
-0.432663
-0.367944
-0.303565
-0.250289
-0.209446
-0.177668
-0.152653
-0.133492
-0.117572
-0.481617
-0.432507
-0.360841
-0.294034
-0.239523
-0.19824
-0.166424
-0.141598
-0.122806
-0.1072
-0.481381
-0.429965
-0.351992
-0.2831
-0.227706
-0.186235
-0.154554
-0.130043
-0.11174
-0.0965025
-0.479309
-0.424898
-0.341351
-0.270739
-0.214819
-0.173416
-0.142045
-0.11798
-0.100338
-0.0853991
-0.475214
-0.417218
-0.328867
-0.256951
-0.200849
-0.159769
-0.128885
-0.10541
-0.0886454
-0.0738683
-0.468891
-0.406865
-0.314503
-0.24174
-0.185782
-0.14529
-0.115082
-0.0923731
-0.0766369
-0.0620442
-0.460122
-0.393806
-0.298237
-0.225104
-0.169604
-0.130001
-0.100674
-0.0789503
-0.0642003
-0.0500164
-0.448696
-0.378022
-0.280063
-0.207042
-0.152322
-0.113966
-0.0857253
-0.0651186
-0.0513447
-0.0377907
-0.43442
-0.359513
-0.259973
-0.187576
-0.134022
-0.0972417
-0.0701947
-0.0508881
-0.0381162
-0.0253737
-0.417134
-0.338297
-0.237957
-0.16679
-0.114855
-0.0797311
-0.0541225
-0.0362724
-0.0245626
-0.012779
-0.396721
-0.314433
-0.214015
-0.144839
-0.094761
-0.061489
-0.0375488
-0.0212961
-0.0107268
-3.31257e-05
-0.373113
-0.288049
-0.18823
-0.121693
-0.0737846
-0.042575
-0.0205172
-0.00599161
0.00334991
0.0128271
-0.3463
-0.25931
-0.160793
-0.0972699
-0.0519843
-0.0230552
-0.00307564
0.00960137
0.0176277
0.0257574
-0.316328
-0.228248
-0.131839
-0.0716853
-0.0294274
-0.00299972
0.0147217
0.0254388
0.0320701
0.0387132
-0.283318
-0.194604
-0.101759
-0.0450833
-0.00618816
0.0175163
0.0328143
0.0414754
0.0466458
0.0516508
-0.247446
-0.158683
-0.0705034
-0.0176136
0.0176468
0.0384131
0.0511373
0.0576697
0.0613227
0.0644999
-0.20881
-0.120893
-0.0381244
0.0105774
0.0419773
0.0596055
0.0696253
0.0739877
0.0760453
0.0770868
-0.16738
-0.0818648
-0.00475222
0.0393471
0.0666925
0.0810038
0.0882164
0.0903961
0.0907011
0.0890751
-0.123639
-0.0417587
0.0294336
0.0685528
0.0916728
0.102515
0.10685
0.106835
0.105115
0.100176
-0.0779462
-0.00076597
0.0642289
0.0980453
0.116792
0.124044
0.125457
0.123195
0.119125
0.110707
-0.0306815
0.0408763
0.0994139
0.127668
0.141921
0.145493
0.143954
0.139334
0.132678
0.121985
0.0177531
0.0829043
0.13476
0.157257
0.166924
0.166761
0.162244
0.155143
0.145976
0.133794
0.0669385
0.125037
0.170032
0.186642
0.191667
0.187744
0.180232
0.170588
0.159068
0.145645
0.116444
0.166981
0.204992
0.21565
0.216011
0.208333
0.197821
0.185623
0.171899
0.157361
0.165831
0.208438
0.239404
0.244103
0.239819
0.228416
0.214924
0.200201
0.184397
0.168762
0.214661
0.249107
0.27303
0.271826
0.262951
0.247884
0.231455
0.214266
0.196495
0.179752
0.262495
0.288689
0.305638
0.298644
0.285271
0.266628
0.24733
0.227754
0.208124
0.19025
0.308906
0.326892
0.337003
0.324383
0.306646
0.284543
0.262467
0.240602
0.219222
0.200198
0.353472
0.363435
0.366905
0.348877
0.326944
0.301524
0.276787
0.252748
0.229727
0.209546
0.395785
0.39806
0.395136
0.371963
0.346041
0.317472
0.290213
0.264129
0.239583
0.218252
0.435468
0.430508
0.421497
0.393487
0.363817
0.332295
0.302673
0.274687
0.248733
0.226276
0.472222
0.460492
0.445801
0.413303
0.38016
0.345903
0.314097
0.284366
0.257128
0.233586
0.505752
0.487754
0.46787
0.431276
0.394964
0.358215
0.324422
0.293114
0.264719
0.24015
0.535767
0.512079
0.487544
0.447281
0.408136
0.369158
0.33359
0.300883
0.271462
0.245943
0.562003
0.53328
0.504682
0.46121
0.41959
0.378665
0.34155
0.307627
0.277318
0.250942
0.58423
0.551198
0.519158
0.472966
0.429252
0.386678
0.348255
0.313309
0.282253
0.255131
0.602251
0.565696
0.530867
0.48247
0.437058
0.393149
0.353666
0.317895
0.286236
0.258495
0.615908
0.576666
0.539724
0.489655
0.442958
0.398037
0.357753
0.321359
0.289245
0.261025
0.62508
0.584026
0.545665
0.494473
0.446913
0.401312
0.36049
0.32368
0.291261
0.262714
0.629686
0.58772
0.548646
0.49689
0.448897
0.402955
0.361863
0.324844
0.292273
0.263559
0.629686
0.58772
0.548646
0.49689
0.448897
0.402955
0.361863
0.324844
0.292273
0.263559
0.62508
0.584026
0.545665
0.494473
0.446913
0.401312
0.36049
0.32368
0.291261
0.262714
0.615908
0.576666
0.539724
0.489655
0.442958
0.398037
0.357753
0.321359
0.289245
0.261025
0.602251
0.565696
0.530867
0.48247
0.437058
0.393149
0.353666
0.317895
0.286236
0.258495
0.58423
0.551198
0.519158
0.472966
0.429252
0.386678
0.348255
0.313309
0.282253
0.255131
0.562003
0.53328
0.504682
0.46121
0.41959
0.378665
0.34155
0.307627
0.277318
0.250942
0.535767
0.512079
0.487544
0.447281
0.408136
0.369158
0.33359
0.300883
0.271462
0.245943
0.505752
0.487754
0.46787
0.431276
0.394964
0.358215
0.324422
0.293114
0.264719
0.24015
0.472222
0.460492
0.445801
0.413303
0.38016
0.345903
0.314097
0.284366
0.257128
0.233586
0.435468
0.430508
0.421497
0.393487
0.363817
0.332295
0.302673
0.274687
0.248733
0.226276
0.395784
0.39806
0.395136
0.371963
0.346041
0.317472
0.290213
0.264129
0.239583
0.218252
0.353472
0.363435
0.366905
0.348877
0.326944
0.301524
0.276787
0.252748
0.229727
0.209546
0.308906
0.326892
0.337003
0.324383
0.306646
0.284543
0.262467
0.240602
0.219222
0.200198
0.262495
0.288689
0.305638
0.298644
0.285271
0.266628
0.24733
0.227754
0.208124
0.19025
0.214661
0.249107
0.27303
0.271826
0.262951
0.247884
0.231455
0.214266
0.196495
0.179752
0.165831
0.208438
0.239404
0.244103
0.239818
0.228416
0.214924
0.200201
0.184397
0.168762
0.116444
0.166981
0.204992
0.21565
0.216011
0.208333
0.197821
0.185623
0.171899
0.157361
0.0669385
0.125037
0.170032
0.186642
0.191667
0.187744
0.180232
0.170588
0.159068
0.145645
0.0177531
0.0829042
0.13476
0.157257
0.166924
0.166761
0.162244
0.155143
0.145976
0.133794
-0.0306815
0.0408762
0.0994139
0.127668
0.141921
0.145493
0.143954
0.139334
0.132678
0.121985
-0.0779463
-0.000766023
0.0642288
0.0980453
0.116792
0.124044
0.125457
0.123195
0.119125
0.110707
-0.123639
-0.0417588
0.0294336
0.0685528
0.0916728
0.102515
0.10685
0.106835
0.105115
0.100176
-0.16738
-0.0818648
-0.00475227
0.0393471
0.0666924
0.0810037
0.0882163
0.090396
0.0907011
0.0890751
-0.20881
-0.120893
-0.0381244
0.0105773
0.0419773
0.0596055
0.0696253
0.0739877
0.0760453
0.0770868
-0.247446
-0.158683
-0.0705034
-0.0176137
0.0176467
0.0384131
0.0511372
0.0576697
0.0613227
0.0644999
-0.283318
-0.194604
-0.101759
-0.0450834
-0.0061882
0.0175163
0.0328143
0.0414754
0.0466458
0.0516508
-0.316328
-0.228248
-0.131839
-0.0716854
-0.0294274
-0.00299976
0.0147217
0.0254388
0.0320701
0.0387132
-0.3463
-0.25931
-0.160793
-0.09727
-0.0519844
-0.0230552
-0.00307568
0.00960133
0.0176277
0.0257573
-0.373113
-0.288049
-0.18823
-0.121693
-0.0737846
-0.042575
-0.0205173
-0.00599164
0.00334988
0.012827
-0.396721
-0.314433
-0.214015
-0.144839
-0.094761
-0.0614891
-0.0375488
-0.0212961
-0.0107268
-3.31547e-05
-0.417134
-0.338297
-0.237957
-0.16679
-0.114855
-0.0797311
-0.0541226
-0.0362725
-0.0245626
-0.012779
-0.43442
-0.359513
-0.259973
-0.187576
-0.134022
-0.0972418
-0.0701948
-0.0508881
-0.0381162
-0.0253738
-0.448696
-0.378022
-0.280063
-0.207043
-0.152322
-0.113966
-0.0857254
-0.0651186
-0.0513448
-0.0377908
-0.460122
-0.393806
-0.298237
-0.225104
-0.169604
-0.130001
-0.100674
-0.0789503
-0.0642004
-0.0500165
-0.468891
-0.406866
-0.314503
-0.24174
-0.185782
-0.14529
-0.115082
-0.0923732
-0.0766369
-0.0620442
-0.475215
-0.417218
-0.328867
-0.256951
-0.200849
-0.159769
-0.128885
-0.10541
-0.0886454
-0.0738684
-0.479309
-0.424898
-0.341351
-0.270739
-0.214819
-0.173416
-0.142045
-0.11798
-0.100338
-0.0853991
-0.481381
-0.429965
-0.351992
-0.2831
-0.227706
-0.186235
-0.154554
-0.130043
-0.111741
-0.0965025
-0.481617
-0.432508
-0.360841
-0.294034
-0.239523
-0.19824
-0.166424
-0.141598
-0.122806
-0.1072
-0.480176
-0.432663
-0.367944
-0.303565
-0.250289
-0.209446
-0.177668
-0.152653
-0.133492
-0.117572
-0.477186
-0.430631
-0.37336
-0.311733
-0.260032
-0.219873
-0.1883
-0.163222
-0.14379
-0.12768
-0.472757
-0.426691
-0.377183
-0.31858
-0.268787
-0.229544
-0.198335
-0.173318
-0.153707
-0.137546
-0.466988
-0.421178
-0.379534
-0.324153
-0.276596
-0.238488
-0.207793
-0.182958
-0.163254
-0.147153
-0.459987
-0.414568
-0.380432
-0.328498
-0.283509
-0.24674
-0.216695
-0.19216
-0.172445
-0.156476
-0.451883
-0.407388
-0.379848
-0.331685
-0.289578
-0.254332
-0.225067
-0.200945
-0.181293
-0.165506
-0.442836
-0.400093
-0.377798
-0.333813
-0.294857
-0.261299
-0.232939
-0.209336
-0.189818
-0.174249
-0.433047
-0.393008
-0.374384
-0.335009
-0.299397
-0.267672
-0.240339
-0.217358
-0.19804
-0.182719
-0.422774
-0.386307
-0.369826
-0.335409
-0.303245
-0.273486
-0.247301
-0.225038
-0.20598
-0.190932
-0.412321
-0.380024
-0.364475
-0.335144
-0.306441
-0.278775
-0.253857
-0.232405
-0.213658
-0.198905
-0.402006
-0.374099
-0.358793
-0.334329
-0.309025
-0.283576
-0.260039
-0.239487
-0.221098
-0.206657
-0.392162
-0.368431
-0.353266
-0.333053
-0.311041
-0.287925
-0.265875
-0.246308
-0.228323
-0.21421
-0.383013
-0.362946
-0.348282
-0.331394
-0.312541
-0.291853
-0.271389
-0.252889
-0.235357
-0.221585
-0.374676
-0.357629
-0.344022
-0.329448
-0.31359
-0.295376
-0.276597
-0.259249
-0.242217
-0.228809
-0.367177
-0.352541
-0.340444
-0.327368
-0.314256
-0.298503
-0.281511
-0.265397
-0.248922
-0.235902
-0.360473
-0.347786
-0.337363
-0.32537
-0.314609
-0.301228
-0.286138
-0.271333
-0.255476
-0.242904
-0.354494
-0.343462
-0.334577
-0.323658
-0.314727
-0.303548
-0.290487
-0.277032
-0.261894
-0.249815
-0.349166
-0.339616
-0.331972
-0.322307
-0.31471
-0.305466
-0.294575
-0.282433
-0.268174
-0.256704
-0.344421
-0.336238
-0.329544
-0.321245
-0.31468
-0.30701
-0.298423
-0.287443
-0.274341
-0.263504
-0.340198
-0.333275
-0.327344
-0.320339
-0.314727
-0.308239
-0.302078
-0.291862
-0.280507
-0.270261
-0.336432
-0.330662
-0.325411
-0.319509
-0.314856
-0.309259
-0.305539
-0.295553
-0.286649
-0.276799
-0.333048
-0.328349
-0.323738
-0.318743
-0.315011
-0.310191
-0.308777
-0.298251
-0.29349
-0.28208
-0.330004
-0.326265
-0.322287
-0.318059
-0.315159
-0.311098
-0.311708
-0.300005
-0.300584
-0.287483
-0.327242
-0.324362
-0.321006
-0.317454
-0.315325
-0.31194
-0.314259
-0.301045
-0.307313
-0.29252
-0.324708
-0.322598
-0.319846
-0.316904
-0.315551
-0.312597
-0.316449
-0.301509
-0.313632
-0.296411
-0.322353
-0.320938
-0.318763
-0.316372
-0.31583
-0.312959
-0.318372
-0.301472
-0.319611
-0.298737
-0.320135
-0.319351
-0.31772
-0.315819
-0.316102
-0.313006
-0.320059
-0.301128
-0.324997
-0.299479
-0.318022
-0.317815
-0.31669
-0.315211
-0.316292
-0.312771
-0.321422
-0.300862
-0.329146
-0.299156
-0.315987
-0.316324
-0.315636
-0.314545
-0.316349
-0.312455
-0.322336
-0.301045
-0.331557
-0.298861
-0.314018
-0.31487
-0.314545
-0.31384
-0.316225
-0.312072
-0.322738
-0.301756
-0.332246
-0.299404
-0.312113
-0.313454
-0.313425
-0.313117
-0.315866
-0.311677
-0.322694
-0.302833
-0.331606
-0.300762
-0.310277
-0.312081
-0.312288
-0.31236
-0.315248
-0.311399
-0.322205
-0.303956
-0.330183
-0.302378
-0.308523
-0.310763
-0.311152
-0.311577
-0.314474
-0.311193
-0.321257
-0.305052
-0.328387
-0.303775
-0.306871
-0.309515
-0.310042
-0.310783
-0.313604
-0.310973
-0.319984
-0.306226
-0.326261
-0.304794
-0.305344
-0.308357
-0.308986
-0.31
-0.312694
-0.310723
-0.318602
-0.307251
-0.323876
-0.305813
-0.303968
-0.307309
-0.308013
-0.309253
-0.311801
-0.310447
-0.317229
-0.308051
-0.321675
-0.306622
-0.30277
-0.306393
-0.307151
-0.308571
-0.310977
-0.310158
-0.31596
-0.308638
-0.31975
-0.307232
-0.301775
-0.305631
-0.306425
-0.307983
-0.310266
-0.30988
-0.314871
-0.309043
-0.318157
-0.307701
-0.301006
-0.305041
-0.305859
-0.307515
-0.309704
-0.309639
-0.314016
-0.309299
-0.316937
-0.308048
-0.300483
-0.304639
-0.305471
-0.307191
-0.309314
-0.309461
-0.313429
-0.309445
-0.316114
-0.308276
-0.300218
-0.304435
-0.305273
-0.307025
-0.309116
-0.309367
-0.313132
-0.30951
-0.3157
-0.308388
-0.315749
-0.30615
-0.307093
-0.299075
-0.29479
-0.285967
-0.277924
-0.267015
-0.255539
-0.241865
-0.227012
-0.210476
-0.192718
-0.174081
-0.1549
-0.135849
-0.117205
-0.0994108
-0.0824943
-0.0658383
-0.0497799
-0.0345749
-0.0224589
-0.013061
-0.00708297
-0.00299546
-0.00108985
0.00054094
0.000577359
0.00121594
-0.31599
-0.306287
-0.307194
-0.299197
-0.294894
-0.286083
-0.278036
-0.267135
-0.255661
-0.241991
-0.227137
-0.210601
-0.192838
-0.174197
-0.155009
-0.135953
-0.117305
-0.0995111
-0.0826006
-0.0659497
-0.0498885
-0.0346691
-0.0225358
-0.01312
-0.00712778
-0.00302727
-0.00111348
0.000525042
0.000566932
0.00121112
-0.316442
-0.306543
-0.307388
-0.299428
-0.295093
-0.286307
-0.278257
-0.26737
-0.255898
-0.242236
-0.227383
-0.210847
-0.193076
-0.174424
-0.155225
-0.136159
-0.117502
-0.0997093
-0.08281
-0.0661689
-0.0501024
-0.0348555
-0.0226888
-0.0132381
-0.0072176
-0.0030913
-0.0011609
0.000493023
0.000546059
0.00120135
-0.317059
-0.306888
-0.307661
-0.299755
-0.295379
-0.28663
-0.278571
-0.267707
-0.25624
-0.242591
-0.227741
-0.211204
-0.193423
-0.174759
-0.155543
-0.136458
-0.117794
-0.1
-0.0831166
-0.0664885
-0.0504149
-0.0351303
-0.0229161
-0.0134151
-0.00735284
-0.00318832
-0.00123246
0.000444468
0.000514718
0.00118638
-0.31777
-0.307265
-0.307991
-0.30014
-0.295725
-0.287023
-0.278968
-0.268131
-0.256673
-0.243042
-0.228195
-0.211662
-0.193873
-0.175188
-0.155953
-0.136852
-0.118174
-0.100379
-0.0835125
-0.0668993
-0.0508178
-0.0354885
-0.0232156
-0.0136508
-0.00753397
-0.00331933
-0.00132861
0.000378846
0.000472885
0.00116591
-0.318491
-0.307656
-0.308339
-0.300577
-0.296128
-0.287484
-0.279414
-0.268627
-0.257179
-0.243574
-0.228736
-0.212202
-0.194401
-0.175704
-0.156452
-0.13733
-0.118638
-0.100838
-0.0839888
-0.067391
-0.0513017
-0.0359244
-0.0235846
-0.0139451
-0.00776145
-0.00348534
-0.00144978
0.000295607
0.000420552
0.00113963
-0.319195
-0.307926
-0.308705
-0.300986
-0.296546
-0.287949
-0.27992
-0.269156
-0.25774
-0.244159
-0.229331
-0.212815
-0.19501
-0.176297
-0.157027
-0.137884
-0.119179
-0.101372
-0.084537
-0.0679536
-0.0518575
-0.0364324
-0.0240202
-0.0142974
-0.00803549
-0.0036872
-0.00159633
0.000194277
0.00035775
0.00110725
-0.319613
-0.30824
-0.308944
-0.301425
-0.296916
-0.288455
-0.280396
-0.269731
-0.258318
-0.244793
-0.229977
-0.213478
-0.195673
-0.176951
-0.15767
-0.138508
-0.11979
-0.101973
-0.0851485
-0.0685777
-0.0524765
-0.0370067
-0.0245193
-0.0147066
-0.00835595
-0.00392536
-0.00176841
7.45628e-05
0.00028457
0.00106862
-0.319664
-0.308504
-0.309026
-0.301822
-0.297221
-0.288927
-0.28087
-0.270293
-0.258906
-0.245437
-0.230644
-0.214176
-0.19638
-0.177656
-0.15837
-0.139193
-0.120466
-0.102635
-0.0858158
-0.0692548
-0.0531509
-0.0376419
-0.0250787
-0.0151714
-0.00872206
-0.00419977
-0.00196588
-6.35789e-05
0.000201184
0.00102371
-0.319323
-0.308621
-0.308966
-0.302103
-0.297452
-0.289332
-0.28129
-0.270826
-0.259472
-0.246077
-0.231317
-0.214889
-0.197115
-0.178399
-0.159118
-0.139932
-0.121198
-0.103351
-0.0865322
-0.069978
-0.0538741
-0.0383328
-0.0256944
-0.0156893
-0.00913239
-0.00450971
-0.00218822
-0.000219886
0.000107872
0.000972653
-0.3183
-0.30859
-0.308678
-0.302239
-0.297547
-0.289642
-0.281635
-0.271298
-0.259992
-0.246686
-0.231972
-0.215601
-0.197863
-0.179169
-0.159904
-0.140716
-0.121982
-0.104117
-0.0872915
-0.0707409
-0.0546398
-0.0390739
-0.0263624
-0.0162573
-0.00958475
-0.00485381
-0.00243454
-0.000393772
5.03025e-06
0.000915725
-0.31641
-0.308302
-0.30812
-0.302169
-0.297486
-0.289793
-0.281862
-0.271673
-0.260439
-0.247239
-0.23259
-0.216293
-0.198609
-0.179953
-0.160719
-0.141539
-0.122809
-0.104925
-0.0880885
-0.0715384
-0.0554427
-0.0398601
-0.0270778
-0.0168716
-0.0100763
-0.00523002
-0.00270353
-0.000584339
-0.000106824
0.000853359
-0.313677
-0.30761
-0.307259
-0.301801
-0.297199
-0.28978
-0.281953
-0.271928
-0.26079
-0.247715
-0.233152
-0.216949
-0.199342
-0.180741
-0.161554
-0.142393
-0.123673
-0.105772
-0.0889186
-0.0723661
-0.056278
-0.040686
-0.0278355
-0.0175276
-0.0106034
-0.00563575
-0.00299351
-0.000790411
-0.000227056
0.000786097
-0.310501
-0.306316
-0.305996
-0.301118
-0.296647
-0.289483
-0.281827
-0.272021
-0.261013
-0.248091
-0.233642
-0.217554
-0.200048
-0.181525
-0.162402
-0.143272
-0.12457
-0.106653
-0.0897777
-0.0732203
-0.0571414
-0.0415465
-0.0286301
-0.0182205
-0.0111623
-0.00606799
-0.00330252
-0.00101059
-0.000354934
0.000714565
-0.30711
-0.304359
-0.304275
-0.300044
-0.295843
-0.289024
-0.28153
-0.271949
-0.261095
-0.248352
-0.234044
-0.218098
-0.200718
-0.182296
-0.163256
-0.144171
-0.125493
-0.107562
-0.0906626
-0.0740977
-0.0580287
-0.0424361
-0.0294561
-0.018945
-0.0117486
-0.00652345
-0.00362841
-0.00124333
-0.00048964
0.000639436
-0.303429
-0.301809
-0.302023
-0.298496
-0.294561
-0.288064
-0.280885
-0.271637
-0.261002
-0.248481
-0.234349
-0.218574
-0.201347
-0.183049
-0.164111
-0.145084
-0.126439
-0.108497
-0.0915703
-0.0749958
-0.0589366
-0.0433503
-0.0303081
-0.0196959
-0.0123581
-0.00699867
-0.00396883
-0.00148692
-0.000630294
0.000561405
-0.299589
-0.29863
-0.299257
-0.296549
-0.293095
-0.287159
-0.28015
-0.271176
-0.260757
-0.248476
-0.234551
-0.218975
-0.201929
-0.183781
-0.164965
-0.146011
-0.127405
-0.109455
-0.0924998
-0.075913
-0.0598622
-0.044284
-0.0311803
-0.0204673
-0.0129859
-0.00748985
-0.00432133
-0.00173966
-0.000776017
0.000481137
-0.295534
-0.294911
-0.295904
-0.293981
-0.290971
-0.285485
-0.278819
-0.270366
-0.260298
-0.248328
-0.234658
-0.219315
-0.202477
-0.184497
-0.165817
-0.146946
-0.128383
-0.110429
-0.0934423
-0.0768412
-0.0607973
-0.0452289
-0.0320656
-0.0212536
-0.0136283
-0.00799439
-0.00468434
-0.00200039
-0.000926145
0.000399193
-0.291309
-0.29092
-0.292413
-0.291401
-0.289001
-0.284114
-0.277889
-0.269569
-0.25974
-0.248053
-0.234641
-0.219546
-0.202938
-0.185154
-0.166636
-0.14787
-0.129368
-0.11142
-0.0944099
-0.077796
-0.0617591
-0.0462003
-0.0329766
-0.0220631
-0.0142898
-0.00851387
-0.0050578
-0.00226834
-0.00107997
0.000316203
-0.287339
-0.286131
-0.287666
-0.287489
-0.285774
-0.281574
-0.275637
-0.268215
-0.258933
-0.247703
-0.234668
-0.219902
-0.203573
-0.186007
-0.167646
-0.148971
-0.130505
-0.112536
-0.0954685
-0.0788162
-0.0627627
-0.0471977
-0.0338983
-0.022876
-0.0149499
-0.00903208
-0.00543059
-0.00253652
-0.00123456
0.000233583
-0.282161
-0.282393
-0.284141
-0.284591
-0.283371
-0.279777
-0.274651
-0.266894
-0.25776
-0.246742
-0.233912
-0.219353
-0.203232
-0.185861
-0.167682
-0.149162
-0.130818
-0.112934
-0.0959154
-0.0793102
-0.0633089
-0.0478089
-0.0345232
-0.023477
-0.0154721
-0.00946452
-0.00575421
-0.00277559
-0.00137539
0.000158394
-0.276498
-0.27752
-0.279465
-0.280427
-0.279562
-0.276246
-0.270969
-0.264191
-0.255491
-0.24483
-0.232328
-0.218081
-0.202264
-0.18518
-0.167272
-0.148982
-0.130829
-0.113085
-0.0961572
-0.0796318
-0.0637163
-0.04832
-0.035082
-0.0240383
-0.0159701
-0.00988248
-0.00606668
-0.00300694
-0.00150946
8.66463e-05
-0.270562
-0.272197
-0.274393
-0.275915
-0.275522
-0.272709
-0.268144
-0.261486
-0.253094
-0.24277
-0.230591
-0.216662
-0.201162
-0.184381
-0.166757
-0.148716
-0.130768
-0.113178
-0.0963506
-0.079916
-0.0640967
-0.0488166
-0.0356372
-0.0246059
-0.0164792
-0.0103141
-0.00639093
-0.00324844
-0.00164908
1.18818e-05
-0.264378
-0.266653
-0.269127
-0.271183
-0.271283
-0.268974
-0.264761
-0.258566
-0.250543
-0.240582
-0.228752
-0.215165
-0.200003
-0.183543
-0.166219
-0.148437
-0.130703
-0.113274
-0.0965539
-0.0802151
-0.0644948
-0.0493334
-0.0362129
-0.025194
-0.0170074
-0.0107627
-0.00672874
-0.0035005
-0.00179463
-6.56458e-05
-0.257896
-0.260917
-0.263685
-0.266233
-0.266824
-0.264997
-0.261209
-0.25545
-0.247823
-0.238249
-0.226795
-0.213573
-0.19877
-0.182651
-0.165643
-0.148135
-0.130627
-0.113368
-0.0967626
-0.080526
-0.0649088
-0.049869
-0.0368085
-0.0258028
-0.0175549
-0.0112287
-0.00708026
-0.00376316
-0.00194608
-0.000145775
-0.251161
-0.255011
-0.258094
-0.26109
-0.26217
-0.260828
-0.257488
-0.252168
-0.244951
-0.235783
-0.224723
-0.211886
-0.197461
-0.181701
-0.165024
-0.147804
-0.130532
-0.113454
-0.0969712
-0.0808438
-0.065334
-0.0504194
-0.0374207
-0.0264296
-0.0181197
-0.0117108
-0.00744471
-0.00403594
-0.00210313
-0.000228247
-0.244247
-0.248968
-0.252387
-0.255797
-0.257363
-0.256509
-0.253617
-0.248743
-0.24195
-0.233201
-0.222552
-0.210116
-0.196084
-0.180697
-0.164365
-0.147445
-0.13042
-0.113532
-0.0971789
-0.0811676
-0.0657693
-0.0509828
-0.0380476
-0.0270723
-0.0187003
-0.0122076
-0.00782122
-0.00431823
-0.00226541
-0.000312753
-0.237206
-0.242814
-0.246596
-0.250389
-0.252432
-0.252068
-0.249625
-0.245201
-0.238841
-0.230522
-0.220296
-0.208274
-0.194647
-0.179646
-0.163669
-0.147059
-0.13029
-0.1136
-0.0973856
-0.0814969
-0.0662142
-0.0515579
-0.0386874
-0.0277291
-0.019295
-0.0127179
-0.00820889
-0.00460937
-0.00243258
-0.000398959
-0.230089
-0.236572
-0.240742
-0.244893
-0.247401
-0.247525
-0.245533
-0.241559
-0.235641
-0.227759
-0.217965
-0.206368
-0.193156
-0.178551
-0.162938
-0.146648
-0.130142
-0.113659
-0.0975906
-0.0818311
-0.0666674
-0.052143
-0.0393383
-0.028398
-0.0199022
-0.0132404
-0.00860672
-0.00490861
-0.00260422
-0.000486509
-0.222944
-0.230265
-0.234848
-0.239333
-0.24229
-0.242899
-0.24136
-0.237837
-0.232364
-0.224926
-0.215573
-0.204407
-0.191618
-0.177416
-0.162175
-0.146212
-0.129977
-0.113708
-0.0977934
-0.0821692
-0.0671279
-0.0527363
-0.0399984
-0.029077
-0.02052
-0.0137733
-0.00901359
-0.00521511
-0.00277987
-0.000575027
-0.215817
-0.223918
-0.228931
-0.233733
-0.237118
-0.238207
-0.237122
-0.23405
-0.229025
-0.222035
-0.213127
-0.2024
-0.190038
-0.176247
-0.161383
-0.145753
-0.129794
-0.113747
-0.0979931
-0.08251
-0.067594
-0.0533359
-0.0406654
-0.0297637
-0.0211463
-0.0143152
-0.00942831
-0.00552796
-0.00295904
-0.000664122
-0.208752
-0.217559
-0.223015
-0.228119
-0.231906
-0.233465
-0.232835
-0.230211
-0.225634
-0.219096
-0.210637
-0.200353
-0.188423
-0.175046
-0.160563
-0.145272
-0.129595
-0.113775
-0.0981889
-0.0828523
-0.0680643
-0.0539398
-0.0413372
-0.0304559
-0.0217792
-0.0148641
-0.00984956
-0.00584613
-0.00314121
-0.00075339
-0.201793
-0.211217
-0.21712
-0.222513
-0.226673
-0.228689
-0.228513
-0.226334
-0.222205
-0.216119
-0.208112
-0.198273
-0.186778
-0.173818
-0.159719
-0.14477
-0.129379
-0.113793
-0.09838
-0.0831948
-0.0685372
-0.0545457
-0.0420114
-0.0311511
-0.0224165
-0.0154183
-0.0102759
-0.00616853
-0.0033258
-0.000842421
-0.194981
-0.204924
-0.211267
-0.216941
-0.221444
-0.223898
-0.224171
-0.222434
-0.218751
-0.213115
-0.20556
-0.196168
-0.185108
-0.172566
-0.158852
-0.144249
-0.129148
-0.113799
-0.0985656
-0.0835359
-0.0690107
-0.0551515
-0.0426858
-0.0318468
-0.0230557
-0.0159757
-0.0107059
-0.00649396
-0.00351218
-0.000930797
-0.188352
-0.19871
-0.205481
-0.211427
-0.216242
-0.219111
-0.219827
-0.218526
-0.215283
-0.210096
-0.202991
-0.194045
-0.18342
-0.171296
-0.157967
-0.14371
-0.128901
-0.113794
-0.0987446
-0.0838743
-0.069483
-0.0557549
-0.0433576
-0.0325403
-0.0236946
-0.0165341
-0.0111378
-0.00682111
-0.00369967
-0.0010181
-0.181938
-0.192608
-0.199784
-0.205993
-0.211092
-0.214351
-0.215498
-0.214627
-0.211817
-0.207073
-0.200415
-0.191913
-0.181719
-0.170011
-0.157067
-0.143156
-0.12864
-0.113778
-0.0989164
-0.0842082
-0.069952
-0.0563532
-0.0440243
-0.0332288
-0.0243304
-0.0170912
-0.0115699
-0.00714853
-0.00388753
-0.0011039
-0.175768
-0.186651
-0.194202
-0.200665
-0.206021
-0.20964
-0.211203
-0.210754
-0.208369
-0.204061
-0.197843
-0.189781
-0.180015
-0.168719
-0.156155
-0.142589
-0.128366
-0.113751
-0.09908
-0.084536
-0.0704154
-0.0569439
-0.0446829
-0.0339093
-0.0249603
-0.0176444
-0.0120001
-0.00747463
-0.0040749
-0.0011878
-0.16987
-0.180875
-0.188764
-0.195466
-0.201058
-0.205005
-0.206966
-0.206927
-0.204957
-0.201075
-0.19529
-0.18766
-0.178315
-0.167425
-0.155238
-0.142013
-0.128082
-0.113712
-0.0992347
-0.084856
-0.0708708
-0.0575239
-0.0453301
-0.0345783
-0.0255812
-0.0181909
-0.0124262
-0.00779768
-0.00426087
-0.00126936
-0.164267
-0.175314
-0.183497
-0.190426
-0.196231
-0.200477
-0.202811
-0.203169
-0.201601
-0.198133
-0.192769
-0.185562
-0.176629
-0.166138
-0.154321
-0.141432
-0.127788
-0.113664
-0.0993799
-0.0851663
-0.0713156
-0.0580902
-0.0459626
-0.0352323
-0.0261896
-0.0187275
-0.0128458
-0.00811571
-0.00444436
-0.00134816
-0.158982
-0.170001
-0.178434
-0.185571
-0.191572
-0.196086
-0.198765
-0.199503
-0.198323
-0.195255
-0.190298
-0.183502
-0.174971
-0.164867
-0.15341
-0.140849
-0.127489
-0.113606
-0.0995148
-0.085465
-0.071747
-0.0586393
-0.0465765
-0.0358673
-0.0267817
-0.0192509
-0.0132561
-0.0084266
-0.00462418
-0.00142376
-0.154038
-0.164971
-0.173607
-0.180934
-0.187114
-0.191865
-0.194861
-0.195957
-0.195149
-0.192463
-0.187897
-0.181496
-0.173352
-0.163622
-0.152513
-0.140271
-0.127187
-0.11354
-0.099639
-0.0857502
-0.072162
-0.0591675
-0.0471677
-0.036479
-0.0273534
-0.0197571
-0.013654
-0.00872795
-0.00479899
-0.00149572
-0.149455
-0.160256
-0.169049
-0.176546
-0.182889
-0.187851
-0.19113
-0.19256
-0.192104
-0.189781
-0.185586
-0.179562
-0.171787
-0.162415
-0.151641
-0.139704
-0.126886
-0.113468
-0.0997519
-0.0860197
-0.0725572
-0.0596706
-0.0477316
-0.0370626
-0.0278999
-0.020242
-0.0140362
-0.00901715
-0.00496726
-0.00156355
-0.145253
-0.155889
-0.164796
-0.172443
-0.178933
-0.184079
-0.187611
-0.189347
-0.18922
-0.187236
-0.18339
-0.17772
-0.170294
-0.16126
-0.150802
-0.139156
-0.126591
-0.113391
-0.0998533
-0.0862713
-0.072929
-0.0601443
-0.0482631
-0.0376127
-0.0284164
-0.0207008
-0.0143989
-0.00929127
-0.00512726
-0.00162676
-0.141456
-0.151905
-0.160887
-0.168662
-0.175283
-0.180592
-0.184343
-0.186354
-0.186529
-0.18486
-0.181336
-0.175993
-0.168892
-0.160172
-0.150009
-0.138634
-0.126306
-0.113313
-0.0999429
-0.0865027
-0.0732737
-0.0605836
-0.0487566
-0.0381235
-0.0288969
-0.0211284
-0.0147377
-0.00954711
-0.00527706