/*--------------------------------*- C++ -*----------------------------------*\
  =========                 |
  \\      /  F ield         | OpenFOAM: The Open Source CFD Toolbox
   \\    /   O peration     | Website:  https://openfoam.org
    \\  /    A nd           | Version:  9
     \\/     M anipulation  |
\*---------------------------------------------------------------------------*/
FoamFile
{
    format      ascii;
    class       volScalarField;
    location    "0.5";
    object      p;
}
// * * * * * * * * * * * * * * * * * * * * * * * * * * * * * * * * * * * * * //

dimensions      [0 2 -2 0 0 0 0];

internalField   nonuniform List<scalar> 
102400
(
2.07714e-08
2.80627e-06
5.36708e-06
6.4149e-06
5.34352e-06
1.90507e-06
-3.95574e-06
-1.21779e-05
-2.26404e-05
-3.51902e-05
-4.9662e-05
-6.58864e-05
-8.36924e-05
-0.000102911
-0.000123381
-0.000144954
-0.000167489
-0.000190851
-0.000214913
-0.000239559
-0.000264679
-0.000290173
-0.000315944
-0.000341895
-0.000367938
-0.000393989
-0.000419973
-0.000445822
-0.000471472
-0.000496865
-0.000521949
-0.000546673
-0.000570991
-0.000594857
-0.000618229
-0.000641067
-0.000663337
-0.000685006
-0.000706046
-0.00072643
-0.000746134
-0.000765131
-0.000783401
-0.000800926
-0.000817688
-0.000833671
-0.000848859
-0.000863242
-0.00087681
-0.000889553
-0.00090146
-0.000912521
-0.000922728
-0.000932073
-0.00094055
-0.000948153
-0.000954879
-0.000960726
-0.000965692
-0.000969776
-0.000972975
-0.000975291
-0.000976722
-0.000977266
-0.000976922
-0.000975691
-0.000973573
-0.000970571
-0.000966685
-0.000961913
-0.000956257
-0.000949716
-0.000942293
-0.000933989
-0.000924804
-0.000914739
-0.000903795
-0.000891971
-0.000879267
-0.000865684
-0.000851227
-0.000835898
-0.000819701
-0.000802641
-0.000784717
-0.000765929
-0.000746277
-0.00072576
-0.000704377
-0.000682131
-0.000659022
-0.000635052
-0.000610223
-0.000584535
-0.000557987
-0.000530581
-0.000502316
-0.000473192
-0.000443211
-0.000412373
-0.000380681
-0.000348138
-0.000314745
-0.000280503
-0.000245414
-0.000209481
-0.000172706
-0.000135092
-9.66434e-05
-5.7363e-05
-1.7254e-05
2.36824e-05
6.54449e-05
0.00010803
0.000151435
0.000195655
0.000240682
0.00028651
0.000333133
0.000380545
0.000428743
0.000477721
0.000527472
0.000577988
0.000629262
0.000681288
0.000734058
0.000787565
0.000841798
0.000896746
0.000952397
0.00100874
0.00106577
0.00112346
0.00118182
0.00124083
0.00130047
0.00136073
0.00142159
0.00148304
0.00154505
0.00160762
0.00167071
0.00173431
0.00179842
0.001863
0.00192804
0.00199351
0.0020594
0.00212569
0.00219234
0.00225934
0.00232668
0.00239432
0.00246224
0.00253041
0.00259882
0.00266742
0.0027362
0.00280512
0.00287417
0.00294331
0.0030125
0.00308173
0.00315096
0.00322016
0.0032893
0.00335835
0.00342728
0.00349604
0.00356462
0.00363297
0.00370107
0.00376888
0.00383636
0.00390348
0.00397022
0.00403653
0.00410238
0.00416775
0.00423258
0.00429686
0.00436053
0.00442357
0.00448594
0.0045476
0.00460852
0.00466866
0.00472799
0.00478647
0.00484407
0.00490076
0.0049565
0.00501125
0.005065
0.0051177
0.00516932
0.00521984
0.00526921
0.00531742
0.00536444
0.00541023
0.00545478
0.00549805
0.00554003
0.00558067
0.00561996
0.00565788
0.0056944
0.00572949
0.00576315
0.00579535
0.00582607
0.0058553
0.00588303
0.00590923
0.0059339
0.00595702
0.00597858
0.00599857
0.00601698
0.00603382
0.00604906
0.0060627
0.00607475
0.0060852
0.00609405
0.00610131
0.00610697
0.00611104
0.00611353
0.00611445
0.00611381
0.00611161
0.00610788
0.00610262
0.00609585
0.00608759
0.00607785
0.00606665
0.00605402
0.00603997
0.00602452
0.00600771
0.00598956
0.0059701
0.00594935
0.00592735
0.00590412
0.00587971
0.00585414
0.00582745
0.00579968
0.00577086
0.00574102
0.00571022
0.00567849
0.00564588
0.00561244
0.00557821
0.00554324
0.00550756
0.00547122
0.00543428
0.00539678
0.00535876
0.00532029
0.00528141
0.00524217
0.00520262
0.00516283
0.00512283
0.0050827
0.00504248
0.00500223
0.00496201
0.00492188
0.00488188
0.00484209
0.00480255
0.00476333
0.00472449
0.00468608
0.00464817
0.00461082
0.0045741
0.00453807
0.00450278
0.0044683
0.0044347
0.00440202
0.00437034
0.00433973
0.00431023
0.00428192
0.00425484
0.00422906
0.00420463
0.00418162
0.00416008
0.00414007
0.00412165
0.00410485
0.00408973
0.00407633
0.00406469
0.00405484
0.00404681
0.00404059
0.00403619
0.00403358
0.0040327
0.00403346
0.00403572
0.00403925
0.00404376
0.00404878
0.00405371
0.0040576
0.00405954
-2.49434e-06
2.5998e-07
2.01604e-06
2.22033e-06
6.29117e-07
-2.97367e-06
-8.67307e-06
-1.64547e-05
-2.62438e-05
-3.7932e-05
-5.13899e-05
-6.64799e-05
-8.306e-05
-0.000100984
-0.000120107
-0.000140295
-0.000161419
-0.000183358
-0.000205995
-0.00022922
-0.000252927
-0.000277021
-0.000301407
-0.000325997
-0.000350703
-0.000375445
-0.000400148
-0.000424747
-0.000449179
-0.000473388
-0.000497321
-0.000520929
-0.000544164
-0.000566982
-0.00058934
-0.0006112
-0.000632525
-0.000653284
-0.000673447
-0.000692988
-0.000711882
-0.000730103
-0.000747629
-0.00076444
-0.000780518
-0.000795849
-0.000810417
-0.000824208
-0.000837212
-0.000849418
-0.000860815
-0.000871391
-0.000881139
-0.000890048
-0.000898114
-0.000905331
-0.000911695
-0.000917202
-0.000921851
-0.000925638
-0.000928562
-0.000930621
-0.000931815
-0.000932142
-0.000931602
-0.000930191
-0.000927911
-0.000924763
-0.000920747
-0.000915863
-0.000910111
-0.000903492
-0.000896007
-0.000887655
-0.000878437
-0.000868353
-0.000857403
-0.000845586
-0.000832905
-0.000819359
-0.000804951
-0.000789686
-0.000773567
-0.000756597
-0.000738777
-0.000720106
-0.000700583
-0.000680208
-0.00065898
-0.000636901
-0.000613972
-0.000590196
-0.000565572
-0.000540102
-0.000513786
-0.000486622
-0.000458613
-0.000429758
-0.000400058
-0.000369516
-0.000338133
-0.000305911
-0.000272852
-0.000238958
-0.00020423
-0.00016867
-0.000132284
-9.50724e-05
-5.70403e-05
-1.81895e-05
2.1477e-05
6.19569e-05
0.000103248
0.000145348
0.000188252
0.000231955
0.000276451
0.000321734
0.000367796
0.000414633
0.000462239
0.00051061
0.00055974
0.00060962
0.000660243
0.000711602
0.00076369
0.000816498
0.000870016
0.000924234
0.000979141
0.00103473
0.00109098
0.00114788
0.00120543
0.00126362
0.00132242
0.00138183
0.00144183
0.00150239
0.00156351
0.00162516
0.00168733
0.00174999
0.00181314
0.00187676
0.00194082
0.0020053
0.00207018
0.00213545
0.00220107
0.00226703
0.00233331
0.00239988
0.00246672
0.00253381
0.00260111
0.00266861
0.00273627
0.00280407
0.00287198
0.00293997
0.00300802
0.0030761
0.00314417
0.0032122
0.00328018
0.00334805
0.0034158
0.00348339
0.00355078
0.00361795
0.00368487
0.00375149
0.00381779
0.00388373
0.00394929
0.00401442
0.00407911
0.0041433
0.00420698
0.0042701
0.00433263
0.00439453
0.00445577
0.00451631
0.00457612
0.00463517
0.00469341
0.00475082
0.00480737
0.00486301
0.00491772
0.00497147
0.00502423
0.00507595
0.00512663
0.00517621
0.00522467
0.00527199
0.00531814
0.00536309
0.00540683
0.00544931
0.00549051
0.00553042
0.005569
0.00560623
0.00564209
0.00567656
0.00570963
0.00574126
0.00577145
0.00580019
0.00582744
0.00585321
0.00587748
0.00590023
0.00592146
0.00594116
0.00595931
0.00597592
0.00599097
0.00600447
0.0060164
0.00602677
0.00603558
0.00604284
0.00604854
0.00605268
0.00605529
0.00605635
0.00605589
0.00605392
0.00605045
0.00604549
0.00603906
0.00603118
0.00602185
0.0060111
0.00599895
0.00598542
0.00597053
0.00595432
0.00593679
0.00591799
0.00589794
0.00587667
0.00585421
0.00583059
0.00580584
0.00578001
0.00575312
0.00572522
0.00569633
0.0056665
0.00563577
0.00560419
0.0055718
0.00553864
0.00550476
0.0054702
0.00543501
0.00539923
0.00536291
0.00532609
0.00528883
0.00525118
0.00521318
0.00517489
0.00513636
0.00509765
0.0050588
0.00501988
0.00498093
0.00494201
0.00490319
0.0048645
0.00482601
0.00478778
0.00474986
0.00471231
0.0046752
0.00463857
0.00460249
0.00456702
0.00453223
0.00449817
0.00446489
0.00443246
0.00440094
0.00437039
0.00434087
0.00431243
0.00428513
0.00425904
0.00423419
0.00421064
0.00418846
0.00416769
0.00414838
0.00413058
0.00411433
0.00409967
0.00408664
0.00407527
0.00406557
0.00405756
0.00405124
0.00404658
0.00404356
0.00404209
0.00404209
0.00404339
0.0040458
0.00404905
0.00405276
0.00405645
0.00405954
0.00406148
-4.71426e-06
-1.23886e-06
4.71387e-07
3.79753e-07
-1.41968e-06
-5.06323e-06
-1.06206e-05
-1.80785e-05
-2.73816e-05
-3.84426e-05
-5.11528e-05
-6.53941e-05
-8.1043e-05
-9.79724e-05
-0.000116052
-0.000135158
-0.00015517
-0.000175978
-0.000197476
-0.000219557
-0.000242124
-0.000265083
-0.000288343
-0.000311818
-0.000335426
-0.000359089
-0.000382734
-0.000406296
-0.000429716
-0.000452938
-0.00047591
-0.000498583
-0.00052091
-0.000542846
-0.00056435
-0.000585382
-0.000605908
-0.000625895
-0.000645313
-0.000664136
-0.000682339
-0.000699897
-0.000716788
-0.000732988
-0.00074848
-0.00076325
-0.000777282
-0.000790564
-0.000803081
-0.000814823
-0.000825778
-0.000835935
-0.000845284
-0.000853816
-0.000861525
-0.000868405
-0.000874452
-0.000879662
-0.000884033
-0.000887561
-0.000890244
-0.00089208
-0.000893066
-0.000893202
-0.000892486
-0.000890917
-0.000888495
-0.000885219
-0.000881088
-0.000876106
-0.000870269
-0.000863579
-0.000856036
-0.000847641
-0.000838392
-0.000828291
-0.000817335
-0.000805525
-0.000792862
-0.000779347
-0.000764983
-0.000749774
-0.000733723
-0.000716832
-0.000699103
-0.000680534
-0.000661125
-0.000640873
-0.000619781
-0.000597848
-0.000575077
-0.00055147
-0.000527028
-0.000501749
-0.000475636
-0.000448686
-0.000420901
-0.000392281
-0.000362829
-0.000332547
-0.000301435
-0.000269495
-0.000236729
-0.00020314
-0.000168729
-0.000133498
-9.74519e-05
-6.0594e-05
-2.29275e-05
1.55457e-05
5.48233e-05
9.49028e-05
0.000135783
0.000177459
0.000219926
0.000263179
0.000307211
0.000352016
0.00039759
0.000443925
0.000491016
0.000538858
0.000587446
0.000636772
0.000686829
0.000737608
0.000789102
0.000841303
0.000894201
0.000947786
0.00100205
0.00105697
0.00111255
0.00116877
0.00122562
0.0012831
0.00134118
0.00139985
0.0014591
0.0015189
0.00157924
0.0016401
0.00170147
0.00176333
0.00182566
0.00188844
0.00195165
0.00201528
0.00207929
0.00214368
0.00220841
0.00227348
0.00233885
0.0024045
0.00247042
0.00253657
0.00260294
0.00266948
0.00273619
0.00280302
0.00286996
0.00293697
0.00300404
0.00307113
0.00313821
0.00320525
0.00327222
0.00333909
0.00340583
0.00347241
0.0035388
0.00360495
0.00367085
0.00373647
0.00380176
0.00386669
0.00393124
0.00399538
0.00405906
0.00412227
0.00418495
0.00424709
0.00430864
0.00436958
0.00442985
0.00448944
0.00454831
0.00460642
0.00466375
0.00472025
0.00477589
0.00483065
0.00488449
0.00493738
0.0049893
0.0050402
0.00509006
0.00513885
0.00518654
0.0052331
0.00527852
0.00532275
0.00536579
0.0054076
0.00544815
0.00548743
0.00552541
0.00556206
0.00559736
0.0056313
0.00566386
0.00569502
0.00572476
0.00575306
0.00577993
0.00580532
0.00582925
0.00585169
0.00587264
0.00589208
0.00591001
0.00592642
0.00594132
0.00595468
0.00596652
0.00597682
0.00598559
0.00599284
0.00599856
0.00600277
0.00600546
0.00600665
0.00600635
0.00600456
0.0060013
0.00599659
0.00599045
0.00598287
0.00597389
0.00596351
0.00595177
0.00593868
0.00592426
0.00590854
0.00589154
0.00587329
0.00585383
0.00583316
0.00581134
0.00578838
0.00576433
0.00573922
0.00571307
0.00568594
0.00565784
0.00562883
0.00559894
0.00556822
0.00553671
0.00550445
0.0054715
0.00543788
0.00540364
0.00536883
0.0053335
0.00529769
0.00526145
0.00522483
0.00518788
0.00515064
0.00511317
0.00507553
0.00503776
0.00499992
0.00496207
0.00492424
0.00488651
0.00484891
0.00481152
0.00477438
0.00473755
0.00470109
0.00466505
0.00462949
0.00459447
0.00456005
0.00452629
0.00449324
0.00446096
0.00442951
0.00439895
0.00436933
0.00434071
0.00431314
0.00428669
0.00426139
0.00423731
0.00421449
0.00419298
0.00417283
0.00415409
0.0041368
0.00412099
0.0041067
0.00409397
0.00408281
0.00407324
0.00406526
0.00405886
0.00405403
0.00405071
0.00404884
0.00404832
0.00404902
0.00405075
0.00405329
0.00405634
0.00405955
0.00406265
0.00406538
-5.47138e-06
-1.20851e-06
7.39218e-07
6.23124e-07
-1.21385e-06
-4.832e-06
-1.02643e-05
-1.7481e-05
-2.64249e-05
-3.70185e-05
-4.91652e-05
-6.27565e-05
-7.76804e-05
-9.38228e-05
-0.000111068
-0.0001293
-0.000148408
-0.000168287
-0.000188839
-0.000209965
-0.000231574
-0.000253573
-0.000275878
-0.000298403
-0.00032107
-0.000343803
-0.000366532
-0.000389196
-0.000411735
-0.000434097
-0.000456228
-0.000478081
-0.000499609
-0.000520767
-0.000541514
-0.000561812
-0.000581626
-0.000600926
-0.00061968
-0.000637861
-0.000655445
-0.000672407
-0.000688725
-0.000704376
-0.000719342
-0.000733604
-0.000747151
-0.000759969
-0.000772043
-0.000783362
-0.000793914
-0.000803688
-0.000812673
-0.00082086
-0.000828242
-0.000834814
-0.000840571
-0.000845507
-0.000849621
-0.000852909
-0.000855369
-0.000856997
-0.000857791
-0.00085775
-0.000856872
-0.000855156
-0.000852601
-0.000849206
-0.00084497
-0.000839894
-0.000833978
-0.000827221
-0.000819623
-0.000811185
-0.000801907
-0.000791788
-0.000780827
-0.000769023
-0.000756377
-0.000742891
-0.000728567
-0.00071341
-0.000697422
-0.000680605
-0.00066296
-0.000644485
-0.00062518
-0.000605043
-0.000584076
-0.000562279
-0.000539656
-0.000516205
-0.00049193
-0.000466829
-0.000440903
-0.000414152
-0.000386576
-0.000358176
-0.000328953
-0.000298912
-0.000268051
-0.000236373
-0.000203881
-0.000170575
-0.000136458
-0.000101532
-6.58019e-05
-2.92709e-05
8.05778e-06
4.6182e-05
8.50997e-05
0.000124808
0.000165306
0.00020659
0.000248654
0.000291492
0.000335096
0.000379461
0.000424583
0.000470456
0.000517074
0.00056443
0.000612519
0.000661335
0.00071087
0.000761116
0.000812065
0.000863709
0.000916039
0.000969044
0.00102271
0.00107703
0.001132
0.00118759
0.00124381
0.00130063
0.00135805
0.00141605
0.00147461
0.00153372
0.00159335
0.0016535
0.00171414
0.00177526
0.00183684
0.00189887
0.00196131
0.00202416
0.00208739
0.00215098
0.00221491
0.00227916
0.0023437
0.00240853
0.00247361
0.00253892
0.00260443
0.00267011
0.00273595
0.00280192
0.00286798
0.00293411
0.00300029
0.00306649
0.00313268
0.00319882
0.00326489
0.00333085
0.00339669
0.00346236
0.00352783
0.00359308
0.00365807
0.00372278
0.00378716
0.00385119
0.00391484
0.00397807
0.00404087
0.00410318
0.00416498
0.00422624
0.00428691
0.00434697
0.00440639
0.00446513
0.00452315
0.00458042
0.00463692
0.00469261
0.00474745
0.00480141
0.00485447
0.0049066
0.00495776
0.00500792
0.00505706
0.00510514
0.00515214
0.00519803
0.00524278
0.00528638
0.00532879
0.00537
0.00540998
0.00544869
0.00548613
0.00552226
0.00555707
0.00559053
0.00562264
0.00565337
0.0056827
0.00571063
0.00573713
0.0057622
0.00578582
0.00580798
0.00582867
0.00584789
0.00586562
0.00588185
0.0058966
0.00590984
0.00592158
0.00593182
0.00594056
0.0059478
0.00595354
0.00595779
0.00596056
0.00596185
0.00596168
0.00596006
0.00595699
0.0059525
0.00594659
0.00593929
0.00593061
0.00592056
0.00590917
0.00589646
0.00588245
0.00586717
0.00585064
0.00583288
0.00581392
0.00579379
0.00577252
0.00575016
0.00572671
0.00570223
0.00567674
0.00565027
0.00562288
0.00559458
0.00556543
0.00553547
0.00550474
0.00547328
0.00544113
0.00540834
0.00537494
0.00534099
0.00530653
0.00527161
0.00523627
0.00520055
0.00516452
0.00512821
0.00509168
0.00505498
0.00501816
0.00498127
0.00494437
0.00490751
0.00487073
0.0048341
0.00479767
0.00476149
0.00472561
0.0046901
0.004655
0.00462038
0.00458628
0.00455278
0.00451992
0.00448775
0.00445634
0.00442574
0.00439601
0.00436719
0.00433936
0.00431255
0.00428682
0.00426221
0.00423878
0.00421658
0.00419565
0.00417604
0.00415778
0.00414091
0.00412547
0.0041115
0.00409901
0.00408804
0.00407858
0.00407064
0.00406421
0.00405926
0.00405575
0.00405362
0.00405278
0.00405312
0.00405449
0.00405671
0.00405956
0.00406277
0.00406635
0.00407031
-4.19003e-06
5.79023e-07
2.70427e-06
2.59286e-06
7.40849e-07
-2.85123e-06
-8.18627e-06
-1.52144e-05
-2.38701e-05
-3.40793e-05
-4.57543e-05
-5.87953e-05
-7.30972e-05
-8.85552e-05
-0.000105064
-0.00012252
-0.000140819
-0.000159863
-0.000179557
-0.000199812
-0.000220539
-0.000241653
-0.00026307
-0.00028471
-0.000306496
-0.000328357
-0.000350225
-0.00037204
-0.000393746
-0.000415289
-0.00043662
-0.000457691
-0.000478454
-0.000498866
-0.000518886
-0.000538476
-0.000557603
-0.000576236
-0.000594346
-0.000611906
-0.000628889
-0.000645271
-0.00066103
-0.000676145
-0.000690594
-0.000704362
-0.000717434
-0.000729795
-0.000741433
-0.000752335
-0.000762489
-0.000771884
-0.000780509
-0.000788355
-0.000795414
-0.00080168
-0.000807148
-0.000811814
-0.000815672
-0.000818721
-0.000820957
-0.000822378
-0.000822981
-0.000822763
-0.000821723
-0.000819859
-0.000817171
-0.000813656
-0.000809314
-0.000804145
-0.000798148
-0.000791323
-0.00078367
-0.000775189
-0.00076588
-0.000755743
-0.000744775
-0.000732977
-0.000720348
-0.000706891
-0.000692608
-0.000677503
-0.000661579
-0.000644836
-0.000627274
-0.000608893
-0.000589692
-0.000569671
-0.000548829
-0.000527169
-0.000504692
-0.0004814
-0.000457292
-0.000432369
-0.000406632
-0.000380079
-0.000352713
-0.000324533
-0.000295541
-0.00026574
-0.000235132
-0.000203717
-0.000171498
-0.000138477
-0.000104655
-7.00357e-05
-3.46227e-05
1.58064e-06
3.85712e-05
7.63466e-05
0.000114905
0.000154244
0.00019436
0.00023525
0.00027691
0.000319332
0.00036251
0.000406437
0.000451108
0.00049652
0.000542665
0.000589537
0.00063713
0.000685438
0.000734454
0.000784169
0.000834577
0.000885668
0.000937433
0.000989862
0.00104294
0.00109666
0.00115102
0.00120599
0.00126158
0.00131776
0.00137452
0.00143186
0.00148974
0.00154816
0.0016071
0.00166654
0.00172646
0.00178686
0.0018477
0.00190898
0.00197067
0.00203275
0.0020952
0.00215801
0.00222114
0.00228459
0.00234834
0.00241235
0.0024766
0.00254108
0.00260576
0.0026706
0.00273559
0.0028007
0.0028659
0.00293118
0.00299649
0.00306181
0.00312712
0.00319238
0.00325757
0.00332265
0.0033876
0.00345238
0.00351697
0.00358133
0.00364544
0.00370925
0.00377275
0.0038359
0.00389867
0.00396103
0.00402295
0.00408439
0.00414533
0.00420572
0.00426555
0.00432476
0.00438334
0.00444125
0.00449844
0.00455491
0.0046106
0.00466549
0.00471955
0.00477275
0.00482505
0.00487643
0.00492686
0.0049763
0.00502474
0.00507213
0.00511845
0.00516369
0.0052078
0.00525078
0.00529259
0.00533321
0.00537262
0.00541079
0.0054477
0.00548333
0.00551765
0.00555066
0.00558232
0.00561263
0.00564157
0.00566913
0.00569529
0.00572003
0.00574335
0.00576523
0.00578568
0.00580467
0.0058222
0.00583827
0.00585287
0.00586599
0.00587764
0.00588781
0.00589651
0.00590374
0.00590949
0.00591379
0.00591662
0.00591801
0.00591797
0.00591649
0.0059136
0.00590932
0.00590364
0.0058966
0.0058882
0.00587847
0.00586742
0.00585507
0.00584146
0.00582659
0.0058105
0.0057932
0.00577473
0.00575512
0.00573439
0.00571258
0.00568972
0.00566584
0.00564097
0.00561515
0.00558842
0.00556082
0.00553238
0.00550314
0.00547315
0.00544245
0.00541108
0.00537908
0.00534649
0.00531337
0.00527974
0.00524566
0.00521118
0.00517634
0.00514118
0.00510576
0.00507013
0.00503433
0.00499842
0.00496244
0.00492646
0.00489051
0.00485466
0.00481894
0.00478343
0.00474816
0.0047132
0.00467859
0.00464439
0.00461066
0.00457745
0.00454481
0.00451281
0.00448148
0.0044509
0.0044211
0.00439215
0.0043641
0.004337
0.0043109
0.00428585
0.0042619
0.00423909
0.00421747
0.00419708
0.00417795
0.00416014
0.00414367
0.00412859
0.00411491
0.00410266
0.00409186
0.00408251
0.00407462
0.00406818
0.00406316
0.00405952
0.00405721
0.00405617
0.00405629
0.00405746
0.00405956
0.00406241
0.00406584
0.00407007
0.00407535
-5.79894e-07
4.35221e-06
6.50372e-06
6.34107e-06
4.43769e-06
8.33399e-07
-4.45053e-06
-1.13504e-05
-1.97929e-05
-2.97012e-05
-4.09929e-05
-5.35765e-05
-6.73545e-05
-8.22282e-05
-9.80999e-05
-0.000114875
-0.000132458
-0.000150757
-0.000169683
-0.00018915
-0.000209076
-0.00022938
-0.00024998
-0.000270802
-0.000291772
-0.000312821
-0.000333885
-0.000354905
-0.000375828
-0.000396601
-0.000417175
-0.000437503
-0.000457539
-0.00047724
-0.000496566
-0.00051548
-0.000533949
-0.000551942
-0.000569433
-0.000586393
-0.000602798
-0.00061862
-0.000633838
-0.000648431
-0.000662379
-0.000675666
-0.000688274
-0.000700191
-0.000711404
-0.000721898
-0.000731662
-0.000740685
-0.000748957
-0.000756467
-0.000763208
-0.000769173
-0.000774357
-0.000778754
-0.000782361
-0.000785173
-0.000787188
-0.000788403
-0.000788816
-0.000788423
-0.000787222
-0.000785212
-0.00078239
-0.000778756
-0.000774309
-0.000769046
-0.000762969
-0.000756076
-0.000748368
-0.000739843
-0.000730503
-0.000720347
-0.000709372
-0.000697579
-0.000684968
-0.000671541
-0.000657298
-0.000642245
-0.000626383
-0.000609714
-0.000592236
-0.000573948
-0.000554851
-0.000534944
-0.000514228
-0.000492705
-0.000470374
-0.000447239
-0.000423299
-0.000398554
-0.000373004
-0.00034665
-0.000319492
-0.000291532
-0.000262771
-0.000233211
-0.000202854
-0.000171701
-0.000139755
-0.000107017
-7.34891e-05
-3.91753e-05
-4.07865e-06
3.17979e-05
6.84513e-05
0.000105879
0.00014408
0.000183051
0.000222788
0.000263288
0.000304545
0.000346553
0.000389308
0.0004328
0.000477025
0.000521978
0.000567653
0.000614046
0.000661148
0.000708953
0.000757455
0.000806646
0.000856517
0.000907062
0.000958269
0.00101013
0.00106263
0.00111576
0.00116952
0.00122388
0.00127884
0.00133439
0.00139051
0.00144719
0.00150441
0.00156216
0.00162041
0.00167915
0.00173837
0.00179805
0.00185817
0.00191872
0.00197967
0.002041
0.00210269
0.00216473
0.00222709
0.00228976
0.00235271
0.00241593
0.00247938
0.00254305
0.00260691
0.00267093
0.00273509
0.00279937
0.00286374
0.00292817
0.00299264
0.00305711
0.00312157
0.00318597
0.0032503
0.00331453
0.00337861
0.00344253
0.00350626
0.00356976
0.003633
0.00369596
0.00375859
0.00382089
0.00388281
0.00394432
0.00400539
0.004066
0.0041261
0.00418566
0.00424466
0.00430305
0.00436082
0.00441792
0.00447432
0.00452999
0.00458491
0.00463903
0.00469234
0.00474479
0.00479636
0.00484702
0.00489674
0.0049455
0.00499325
0.00503997
0.00508565
0.00513025
0.00517375
0.00521612
0.00525735
0.00529741
0.00533627
0.00537391
0.00541031
0.00544545
0.00547931
0.00551187
0.00554311
0.00557302
0.00560158
0.00562877
0.00565459
0.00567903
0.00570205
0.00572367
0.00574387
0.00576265
0.00577999
0.00579588
0.00581034
0.00582334
0.0058349
0.00584501
0.00585366
0.00586087
0.00586664
0.00587097
0.00587387
0.00587535
0.00587541
0.00587408
0.00587136
0.00586726
0.00586181
0.00585501
0.00584688
0.00583744
0.00582672
0.00581472
0.00580147
0.005787
0.00577132
0.00575446
0.00573646
0.00571733
0.00569711
0.00567583
0.00565352
0.00563022
0.00560595
0.00558074
0.00555465
0.00552769
0.00549993
0.00547138
0.0054421
0.00541213
0.00538149
0.00535025
0.00531843
0.00528608
0.00525325
0.00521998
0.00518631
0.0051523
0.00511798
0.00508341
0.00504862
0.00501368
0.00497863
0.00494352
0.00490841
0.00487333
0.00483835
0.00480351
0.00476886
0.00473446
0.00470036
0.00466661
0.00463327
0.00460038
0.004568
0.00453619
0.00450499
0.00447446
0.00444465
0.00441562
0.00438741
0.00436007
0.00433366
0.00430823
0.00428381
0.00426047
0.00423823
0.00421715
0.00419726
0.0041786
0.0041612
0.0041451
0.00413034
0.00411694
0.00410491
0.00409428
0.00408505
0.00407723
0.00407079
0.00406573
0.00406202
0.00405961
0.00405844
0.00405845
0.00405955
0.00406166
0.00406465
0.0040684
0.00407335
0.00407988
5.43336e-06
1.02089e-05
1.22092e-05
1.19031e-05
9.87674e-06
6.19584e-06
8.99865e-07
-5.94051e-06
-1.42472e-05
-2.39407e-05
-3.49391e-05
-4.71577e-05
-6.0507e-05
-7.48942e-05
-9.02281e-05
-0.000106419
-0.00012338
-0.000141026
-0.000159272
-0.000178038
-0.000197246
-0.000216818
-0.000236678
-0.000256754
-0.000276974
-0.000297276
-0.000317597
-0.000337881
-0.000358075
-0.00037813
-0.000397996
-0.000417627
-0.000436978
-0.000456008
-0.000474677
-0.000492951
-0.000510795
-0.000528181
-0.00054508
-0.000561467
-0.000577317
-0.000592604
-0.000607303
-0.000621395
-0.00063486
-0.000647681
-0.000659842
-0.000671329
-0.000682129
-0.000692228
-0.000701613
-0.000710275
-0.000718202
-0.000725385
-0.000731817
-0.000737488
-0.000742392
-0.000746527
-0.000749886
-0.000752466
-0.000754264
-0.000755278
-0.000755503
-0.000754937
-0.000753578
-0.000751423
-0.000748471
-0.000744719
-0.000740166
-0.000734812
-0.000728655
-0.000721695
-0.000713931
-0.000705364
-0.000695993
-0.000685817
-0.000674836
-0.000663048
-0.000650454
-0.000637056
-0.000622854
-0.000607853
-0.000592053
-0.000575456
-0.00055806
-0.000539866
-0.000520871
-0.000501078
-0.000480487
-0.000459099
-0.000436914
-0.000413934
-0.00039016
-0.000365591
-0.000340228
-0.000314071
-0.000287121
-0.00025938
-0.000230847
-0.000201526
-0.000171418
-0.000140525
-0.000108849
-7.6392e-05
-4.3156e-05
-9.14453e-06
2.56393e-05
6.11926e-05
9.75127e-05
0.000134597
0.000172443
0.000211049
0.000250412
0.000290526
0.000331386
0.000372986
0.000415321
0.000458384
0.000502169
0.000546671
0.000591884
0.000637803
0.000684422
0.000731732
0.000779729
0.000828403
0.000877749
0.000927757
0.000978417
0.00102972
0.00108165
0.00113421
0.00118738
0.00124114
0.00129549
0.00135042
0.00140592
0.00146195
0.00151852
0.00157561
0.00163319
0.00169126
0.00174979
0.00180878
0.00186819
0.00192802
0.00198825
0.00204885
0.00210981
0.0021711
0.00223271
0.00229462
0.0023568
0.00241925
0.00248192
0.0025448
0.00260787
0.0026711
0.00273446
0.00279793
0.00286149
0.00292511
0.00298876
0.00305241
0.00311604
0.00317962
0.00324312
0.00330651
0.00336977
0.00343286
0.00349575
0.00355842
0.00362083
0.00368296
0.00374477
0.00380624
0.00386734
0.00392804
0.0039883
0.00404809
0.00410739
0.00416615
0.00422436
0.00428196
0.00433895
0.00439527
0.00445091
0.00450583
0.00456
0.00461339
0.00466597
0.00471771
0.00476857
0.00481854
0.00486759
0.00491567
0.00496277
0.00500886
0.00505392
0.00509791
0.00514081
0.00518262
0.00522329
0.0052628
0.00530114
0.00533827
0.00537419
0.00540886
0.00544226
0.00547439
0.00550523
0.00553475
0.00556294
0.00558979
0.00561529
0.00563942
0.00566217
0.00568353
0.00570349
0.00572206
0.00573921
0.00575494
0.00576926
0.00578215
0.00579361
0.00580365
0.00581226
0.00581945
0.00582522
0.00582959
0.00583254
0.0058341
0.00583427
0.00583307
0.0058305
0.00582658
0.00582133
0.00581476
0.00580688
0.00579772
0.00578729
0.00577562
0.00576271
0.00574861
0.00573333
0.00571689
0.00569932
0.00568065
0.00566091
0.00564013
0.00561834
0.00559557
0.00557186
0.00554724
0.00552174
0.0054954
0.00546827
0.00544038
0.00541176
0.00538247
0.00535254
0.005322
0.00529091
0.0052593
0.00522722
0.0051947
0.00516181
0.00512857
0.00509504
0.00506126
0.00502728
0.00499315
0.00495891
0.00492462
0.00489032
0.00485607
0.0048219
0.00478788
0.00475405
0.00472047
0.00468718
0.00465424
0.00462169
0.00458959
0.004558
0.00452695
0.00449651
0.00446672
0.00443764
0.00440931
0.00438179
0.00435512
0.00432935
0.00430453
0.00428071
0.00425793
0.00423622
0.00421563
0.0041962
0.00417796
0.00416095
0.0041452
0.00413074
0.00411759
0.00410577
0.0040953
0.00408619
0.00407844
0.00407204
0.00406697
0.00406322
0.00406076
0.00405954
0.00405951
0.00406063
0.00406284
0.00406604
0.00407017
0.00407581
0.00408347
1.38045e-05
1.81423e-05
1.98145e-05
1.92525e-05
1.70137e-05
1.31758e-05
7.79129e-06
9.36455e-07
-7.31122e-06
-1.68715e-05
-2.76634e-05
-3.96054e-05
-5.26139e-05
-6.66046e-05
-8.14914e-05
-9.71893e-05
-0.000113617
-0.000130695
-0.000148345
-0.000166492
-0.000185058
-0.000203974
-0.000223164
-0.000242562
-0.000262099
-0.000281716
-0.000301353
-0.000320956
-0.000340475
-0.00035986
-0.000379065
-0.000398044
-0.000416752
-0.00043515
-0.000453199
-0.000470866
-0.000488118
-0.000504927
-0.000521265
-0.000537105
-0.000552424
-0.000567197
-0.0005814
-0.000595011
-0.000608011
-0.000620384
-0.000632113
-0.000643184
-0.000653584
-0.000663299
-0.000672318
-0.000680629
-0.000688222
-0.000695086
-0.000701215
-0.000706599
-0.000711231
-0.000715108
-0.000718225
-0.000720578
-0.000722164
-0.000722979
-0.00072302
-0.000722285
-0.00072077
-0.000718473
-0.000715392
-0.000711524
-0.000706868
-0.000701423
-0.000695187
-0.00068816
-0.000680341
-0.000671732
-0.00066233
-0.000652135
-0.000641148
-0.000629365
-0.000616788
-0.000603419
-0.000589258
-0.000574308
-0.00055857
-0.000542044
-0.00052473
-0.000506627
-0.000487736
-0.000468056
-0.000447589
-0.000426334
-0.000404294
-0.000381469
-0.00035786
-0.000333467
-0.00030829
-0.000282329
-0.000255586
-0.000228061
-0.000199755
-0.000170671
-0.00014081
-0.000110175
-7.87666e-05
-4.6588e-05
-1.36412e-05
2.00707e-05
5.45447e-05
8.97781e-05
0.000125768
0.000162513
0.000200009
0.000238254
0.000277245
0.000316977
0.000357445
0.000398643
0.000440564
0.000483203
0.000526554
0.000570611
0.000615369
0.000660822
0.000706965
0.000753789
0.000801288
0.000849456
0.000898284
0.000947765
0.000997889
0.00104864
0.00110002
0.00115201
0.0012046
0.00125778
0.00131154
0.00136586
0.00142074
0.00147615
0.00153209
0.00158853
0.00164546
0.00170286
0.00176072
0.00181903
0.00187776
0.0019369
0.00199642
0.00205631
0.00211655
0.00217712
0.002238
0.00229917
0.00236061
0.0024223
0.00248422
0.00254634
0.00260864
0.00267109
0.00273368
0.00279637
0.00285915
0.00292198
0.00298484
0.0030477
0.00311053
0.00317331
0.00323601
0.0032986
0.00336106
0.00342335
0.00348544
0.00354731
0.00360892
0.00367025
0.00373127
0.00379195
0.00385226
0.00391216
0.00397164
0.00403066
0.00408918
0.00414717
0.00420462
0.00426147
0.0043177
0.00437329
0.00442819
0.00448238
0.00453584
0.00458852
0.0046404
0.00469146
0.00474165
0.00479096
0.00483935
0.0048868
0.00493327
0.00497875
0.00502321
0.00506662
0.00510896
0.00515021
0.00519034
0.00522934
0.00526717
0.00530382
0.00533926
0.00537349
0.00540646
0.00543818
0.00546862
0.00549777
0.00552562
0.00555213
0.00557732
0.00560116
0.00562364
0.00564475
0.00566449
0.00568285
0.00569982
0.00571539
0.00572957
0.00574235
0.00575372
0.00576369
0.00577226
0.00577942
0.0057852
0.00578958
0.00579259
0.00579422
0.00579448
0.0057934
0.00579097
0.00578722
0.00578216
0.0057758
0.00576815
0.00575925
0.0057491
0.00573772
0.00572515
0.00571139
0.00569647
0.00568042
0.00566327
0.00564503
0.00562574
0.00560543
0.00558413
0.00556187
0.00553868
0.0055146
0.00548967
0.00546391
0.00543737
0.00541009
0.00538211
0.00535346
0.00532418
0.00529432
0.0052639
0.00523299
0.00520161
0.00516981
0.00513764
0.00510513
0.00507234
0.00503931
0.00500608
0.00497271
0.00493924
0.00490571
0.00487219
0.0048387
0.00480531
0.00477206
0.004739
0.00470618
0.00467365
0.00464146