/*--------------------------------*- C++ -*----------------------------------*\
  =========                 |
  \\      /  F ield         | OpenFOAM: The Open Source CFD Toolbox
   \\    /   O peration     | Website:  https://openfoam.org
    \\  /    A nd           | Version:  9
     \\/     M anipulation  |
\*---------------------------------------------------------------------------*/
FoamFile
{
    format      ascii;
    class       surfaceScalarField;
    location    "0.5";
    object      phi;
}
// * * * * * * * * * * * * * * * * * * * * * * * * * * * * * * * * * * * * * //

dimensions      [0 3 -1 0 0 0 0];

internalField   nonuniform List<scalar> 
204160
(
-5.87706e-14
4.74347e-14
1.58654e-12
-1.64445e-12
4.78351e-12
-3.19759e-12
8.98793e-12
-4.20373e-12
1.3723e-11
-4.73491e-12
1.86068e-11
-4.88356e-12
2.33413e-11
-4.73484e-12
2.7698e-11
-4.35694e-12
3.1503e-11
-3.80485e-12
3.46235e-11
-3.12022e-12
3.69584e-11
-2.33476e-12
3.84312e-11
-1.47299e-12
3.89856e-11
-5.5441e-13
3.85812e-11
4.04571e-13
3.71898e-11
1.39147e-12
3.47933e-11
2.39646e-12
3.13819e-11
3.41136e-12
2.69523e-11
4.42922e-12
2.15075e-11
5.44468e-12
1.50542e-11
6.45335e-12
7.60269e-12
7.45156e-12
-8.33345e-13
8.43635e-12
-1.02381e-11
9.40499e-12
-2.0593e-11
1.03551e-11
-3.18779e-11
1.12849e-11
-4.4071e-11
1.2193e-11
-5.71496e-11
1.30787e-11
-7.10905e-11
1.39407e-11
-8.5869e-11
1.47787e-11
-1.01461e-10
1.5592e-11
-1.17841e-10
1.63806e-11
-1.34986e-10
1.71444e-11
-1.52869e-10
1.78835e-11
-1.71467e-10
1.85977e-11
-1.90754e-10
1.9287e-11
-2.10705e-10
1.99514e-11
-2.31296e-10
2.05913e-11
-2.52503e-10
2.1207e-11
-2.74303e-10
2.17989e-11
-2.9667e-10
2.23676e-11
-3.19584e-10
2.29134e-11
-3.4302e-10
2.34365e-11
-3.66957e-10
2.39373e-11
-3.91373e-10
2.44161e-11
-4.16247e-10
2.48735e-11
-4.41557e-10
2.53099e-11
-4.67283e-10
2.57261e-11
-4.93405e-10
2.61225e-11
-5.19904e-10
2.64995e-11
-5.46761e-10
2.68576e-11
-5.73959e-10
2.71973e-11
-6.01478e-10
2.75194e-11
-6.29302e-10
2.78241e-11
-6.57414e-10
2.81117e-11
-6.85796e-10
2.83828e-11
-7.14434e-10
2.86377e-11
-7.43311e-10
2.88771e-11
-7.72412e-10
2.91014e-11
-8.01723e-10
2.93112e-11
-8.3123e-10
2.95068e-11
-8.60919e-10
2.96886e-11
-8.90775e-10
2.98569e-11
-9.20787e-10
3.00119e-11
-9.50942e-10
3.01541e-11
-9.81226e-10
3.0284e-11
-1.01163e-09
3.04021e-11
-1.04214e-09
3.05081e-11
-1.07274e-09
3.06027e-11
-1.10342e-09
3.06858e-11
-1.13418e-09
3.07581e-11
-1.165e-09
3.08195e-11
-1.19587e-09
3.08708e-11
-1.22678e-09
3.09119e-11
-1.25773e-09
3.0943e-11
-1.28869e-09
3.09646e-11
-1.31967e-09
3.09766e-11
-1.35065e-09
3.09791e-11
-1.38162e-09
3.09722e-11
-1.41258e-09
3.09562e-11
-1.44351e-09
3.09312e-11
-1.4744e-09
3.08974e-11
-1.50526e-09
3.08547e-11
-1.53606e-09
3.08033e-11
-1.56681e-09
3.07434e-11
-1.59748e-09
3.06753e-11
-1.62808e-09
3.05987e-11
-1.65859e-09
3.05135e-11
-1.68901e-09
3.04199e-11
-1.71933e-09
3.0318e-11
-1.74954e-09
3.02077e-11
-1.77963e-09
3.00888e-11
-1.80959e-09
2.99616e-11
-1.83942e-09
2.98264e-11
-1.8691e-09
2.96829e-11
-1.89863e-09
2.95311e-11
-1.928e-09
2.9371e-11
-1.9572e-09
2.92024e-11
-1.98623e-09
2.90255e-11
-2.01507e-09
2.88398e-11
-2.04371e-09
2.86456e-11
-2.07216e-09
2.84428e-11
-2.10039e-09
2.82316e-11
-2.1284e-09
2.80118e-11
-2.15618e-09
2.77833e-11
-2.18373e-09
2.75458e-11
-2.21103e-09
2.72992e-11
-2.23807e-09
2.70434e-11
-2.26485e-09
2.67785e-11
-2.29135e-09
2.65045e-11
-2.31758e-09
2.62214e-11
-2.3435e-09
2.59287e-11
-2.36913e-09
2.56265e-11
-2.39445e-09
2.53146e-11
-2.41944e-09
2.49933e-11
-2.4441e-09
2.46624e-11
-2.46842e-09
2.43215e-11
-2.49239e-09
2.39703e-11
-2.516e-09
2.36092e-11
-2.53924e-09
2.32383e-11
-2.5621e-09
2.28577e-11
-2.58457e-09
2.24668e-11
-2.60663e-09
2.20654e-11
-2.62829e-09
2.16537e-11
-2.64952e-09
2.12318e-11
-2.67032e-09
2.07994e-11
-2.69067e-09
2.03563e-11
-2.71058e-09
1.99029e-11
-2.73001e-09
1.94392e-11
-2.74898e-09
1.89652e-11
-2.76746e-09
1.84807e-11
-2.78545e-09
1.79856e-11
-2.80293e-09
1.74801e-11
-2.81989e-09
1.69642e-11
-2.83633e-09
1.64377e-11
-2.85223e-09
1.59006e-11
-2.86758e-09
1.5353e-11
-2.88238e-09
1.47949e-11
-2.8966e-09
1.42265e-11
-2.91025e-09
1.36478e-11
-2.92331e-09
1.30589e-11
-2.93577e-09
1.24602e-11
-2.94762e-09
1.18517e-11
-2.95885e-09
1.12333e-11
-2.96946e-09
1.06053e-11
-2.97943e-09
9.96789e-12
-2.98875e-09
9.32116e-12
-2.99741e-09
8.66491e-12
-3.00541e-09
7.99934e-12
-3.01274e-09
7.32514e-12
-3.01938e-09
6.64249e-12
-3.02533e-09
5.95144e-12
-3.03058e-09
5.25202e-12
-3.03513e-09
4.54425e-12
-3.03896e-09
3.82879e-12
-3.04206e-09
3.10623e-12
-3.04444e-09
2.37633e-12
-3.04608e-09
1.63914e-12
-3.04697e-09
8.95301e-13
-3.04712e-09
1.45363e-13
-3.04651e-09
-6.10341e-13
-3.04514e-09
-1.37186e-12
-3.043e-09
-2.13899e-12
-3.04009e-09
-2.91092e-12
-3.0364e-09
-3.68723e-12
-3.03193e-09
-4.46764e-12
-3.02668e-09
-5.25163e-12
-3.02064e-09
-6.03909e-12
-3.01381e-09
-6.82972e-12
-3.00619e-09
-7.6226e-12
-2.99777e-09
-8.41732e-12
-2.98856e-09
-9.21384e-12
-2.97855e-09
-1.00114e-11
-2.96774e-09
-1.08093e-11
-2.95613e-09
-1.16071e-11
-2.94373e-09
-1.24042e-11
-2.93053e-09
-1.32004e-11
-2.91653e-09
-1.39953e-11
-2.90174e-09
-1.47882e-11
-2.88616e-09
-1.55787e-11
-2.8698e-09
-1.63661e-11
-2.85265e-09
-1.71496e-11
-2.83472e-09
-1.79288e-11
-2.81602e-09
-1.87034e-11
-2.79654e-09
-1.94727e-11
-2.77631e-09
-2.02358e-11
-2.75531e-09
-2.09926e-11
-2.73357e-09
-2.17423e-11
-2.71109e-09
-2.24841e-11
-2.68787e-09
-2.32173e-11
-2.66393e-09
-2.39417e-11
-2.63927e-09
-2.46564e-11
-2.61391e-09
-2.5361e-11
-2.58786e-09
-2.60548e-11
-2.56112e-09
-2.67371e-11
-2.53371e-09
-2.74073e-11
-2.50565e-09
-2.80651e-11
-2.47694e-09
-2.871e-11
-2.4476e-09
-2.9341e-11
-2.41764e-09
-2.99576e-11
-2.38708e-09
-3.05592e-11
-2.35593e-09
-3.11453e-11
-2.32422e-09
-3.17155e-11
-2.29195e-09
-3.22695e-11
-2.25914e-09
-3.28061e-11
-2.22582e-09
-3.3325e-11
-2.19199e-09
-3.3826e-11
-2.15768e-09
-3.43084e-11
-2.12291e-09
-3.47714e-11
-2.0877e-09
-3.52148e-11
-2.05206e-09
-3.56379e-11
-2.01602e-09
-3.60402e-11
-1.9796e-09
-3.64216e-11
-1.94282e-09
-3.67818e-11
-1.90569e-09
-3.71203e-11
-1.86826e-09
-3.74365e-11
-1.83053e-09
-3.77301e-11
-1.79253e-09
-3.80006e-11
-1.75428e-09
-3.82476e-11
-1.71581e-09
-3.8471e-11
-1.67714e-09
-3.86707e-11
-1.63829e-09
-3.8846e-11
-1.5993e-09
-3.89966e-11
-1.56017e-09
-3.91224e-11
-1.52095e-09
-3.92232e-11
-1.48165e-09
-3.92987e-11
-1.4423e-09
-3.9349e-11
-1.40293e-09
-3.9374e-11
-1.36355e-09
-3.93736e-11
-1.32421e-09
-3.93474e-11
-1.28491e-09
-3.92956e-11
-1.24569e-09
-3.92179e-11
-1.20658e-09
-3.91142e-11
-1.1676e-09
-3.89845e-11
-1.12877e-09
-3.88292e-11
-1.09012e-09
-3.86484e-11
-1.05168e-09
-3.84419e-11
-1.01347e-09
-3.82098e-11
-9.75513e-10
-3.79524e-11
-9.37844e-10
-3.76696e-11
-9.00482e-10
-3.73616e-11
-8.63453e-10
-3.70288e-11
-8.26782e-10
-3.66714e-11
-7.90493e-10
-3.62895e-11
-7.54609e-10
-3.58833e-11
-7.19155e-10
-3.54536e-11
-6.84155e-10
-3.50005e-11
-6.49631e-10
-3.45241e-11
-6.15606e-10
-3.40249e-11
-5.82102e-10
-3.35033e-11
-5.49143e-10
-3.29596e-11
-5.16749e-10
-3.23944e-11
-4.84941e-10
-3.18081e-11
-4.53739e-10
-3.12015e-11
-4.23164e-10
-3.0575e-11
-3.93235e-10
-2.99288e-11
-3.63972e-10
-2.92635e-11
-3.35392e-10
-2.85798e-11
-3.07514e-10
-2.78785e-11
-2.80353e-10
-2.71602e-11
-2.53927e-10
-2.64256e-11
-2.28252e-10
-2.56754e-11
-2.03342e-10
-2.49102e-11
-1.79212e-10
-2.41305e-11
-1.55875e-10
-2.3337e-11
-1.33344e-10
-2.25306e-11
-1.11632e-10
-2.17121e-11
-9.07496e-11
-2.08824e-11
-7.07072e-11
-2.00422e-11
-5.15151e-11
-1.91923e-11
-3.31821e-11
-1.83334e-11
-1.5716e-11
-1.74662e-11
8.76357e-13
-1.6592e-11
1.65884e-11
-1.57118e-11
3.14147e-11
-1.48264e-11
4.53513e-11
-1.39367e-11
5.83953e-11
-1.30437e-11
7.05442e-11
-1.21485e-11
8.17965e-11
-1.12523e-11
9.21519e-11
-1.03558e-11
1.01612e-10
-9.45996e-12
1.10178e-10
-8.56626e-12
1.17854e-10
-7.67603e-12
1.24644e-10
-6.79025e-12
1.30554e-10
-5.90994e-12
1.35591e-10
-5.03663e-12
1.39763e-10
-4.17218e-12
1.43082e-10
-3.31822e-12
1.45557e-10
-2.47599e-12
1.47204e-10
-1.64679e-12
1.48036e-10
-8.32263e-13
1.4807e-10
-3.44956e-14
1.47326e-10
7.44716e-13
1.45823e-10
1.50299e-12
1.43585e-10
2.23815e-12
1.40637e-10
2.94787e-12
1.37007e-10
3.62984e-12
1.32726e-10
4.2815e-12
1.27826e-10
4.8997e-12
1.22345e-10
5.4809e-12
1.16324e-10
6.02147e-12
1.09806e-10
6.51747e-12
1.02842e-10
6.96431e-12
9.54854e-11
7.35698e-12
8.77949e-11
7.69025e-12
7.98363e-11
7.95831e-12
7.16824e-11
8.15405e-12
6.34135e-11
8.26918e-12
5.51188e-11
8.29469e-12
4.68973e-11
8.221e-12
3.88599e-11
8.03712e-12
3.11303e-11
7.72992e-12
2.38462e-11
7.28444e-12
1.71615e-11
6.68472e-12
1.12466e-11
5.9147e-12
6.28672e-12
4.95982e-12
2.47398e-12
3.81286e-12
-1.60014e-14
2.49005e-12
-1.08333e-12
1.06727e-12
-8.29805e-13
-2.53695e-13
-8.297e-13
1.64757e-12
-1.59895e-12
6.70896e-12
-6.70659e-12
1.46276e-11
-1.11159e-11
2.4524e-11
-1.41006e-11
3.54882e-11
-1.56987e-11
4.67042e-11
-1.60994e-11
5.7481e-11
-1.55107e-11
6.72498e-11
-1.4126e-11
7.55534e-11
-1.21086e-11
8.20272e-11
-9.59382e-12
8.63837e-11
-6.69102e-12
8.8399e-11
-3.48781e-12
8.79007e-11
-5.61781e-14
8.47598e-11
3.54527e-12
7.88826e-11
7.26858e-12
7.02046e-11
1.10746e-11
5.86852e-11
1.49308e-11
4.4304e-11
1.88106e-11
2.7057e-11
2.26918e-11
6.95394e-12
2.6556e-11
-1.5983e-11
3.03882e-11
-4.17228e-11
3.41758e-11
-7.02259e-11
3.79079e-11
-1.01446e-10
4.15753e-11
-1.35332e-10
4.51706e-11
-1.71827e-10
4.86879e-11
-2.1087e-10
5.21225e-11
-2.52401e-10
5.54707e-11
-2.96352e-10
5.87299e-11
-3.42657e-10
6.18975e-11
-3.91249e-10
6.49724e-11
-4.42057e-10
6.79531e-11
-4.95014e-10
7.08394e-11
-5.50047e-10
7.36313e-11
-6.07089e-10
7.63285e-11
-6.66069e-10
7.89316e-11
-7.26918e-10
8.1441e-11
-7.89568e-10
8.38575e-11
-8.53951e-10
8.61825e-11
-9.2e-10
8.8417e-11
-9.87649e-10
9.05624e-11
-1.05683e-09
9.26204e-11
-1.12749e-09
9.45925e-11
-1.19955e-09
9.64799e-11
-1.27296e-09
9.82846e-11
-1.34766e-09
1.00008e-10
-1.42359e-09
1.01652e-10
-1.50068e-09
1.03219e-10
-1.57889e-09
1.04711e-10
-1.65816e-09
1.06128e-10
-1.73844e-09
1.07474e-10
-1.81967e-09
1.0875e-10
-1.90181e-09
1.09958e-10
-1.98479e-09
1.11099e-10
-2.06859e-09
1.12176e-10
-2.15314e-09
1.1319e-10
-2.2384e-09
1.14142e-10
-2.32434e-09
1.15035e-10
-2.4109e-09
1.1587e-10
-2.49804e-09
1.16649e-10
-2.58572e-09
1.17373e-10
-2.67391e-09
1.18045e-10
-2.76256e-09
1.18664e-10
-2.85164e-09
1.19232e-10
-2.9411e-09
1.1975e-10
-3.03092e-09
1.20221e-10
-3.12106e-09
1.20645e-10
-3.21148e-09
1.21023e-10
-3.30215e-09
1.21357e-10
-3.39304e-09
1.21648e-10
-3.48412e-09
1.21896e-10
-3.57535e-09
1.22102e-10
-3.6667e-09
1.22267e-10
-3.75815e-09
1.22393e-10
-3.84967e-09
1.2248e-10
-3.94122e-09
1.22529e-10
-4.03278e-09
1.2254e-10
-4.12432e-09
1.22515e-10
-4.21582e-09
1.22452e-10
-4.30724e-09
1.22354e-10
-4.39857e-09
1.2222e-10
-4.48976e-09
1.22052e-10
-4.58081e-09
1.21848e-10
-4.67168e-09
1.2161e-10
-4.76234e-09
1.21339e-10
-4.85277e-09
1.21034e-10
-4.94295e-09
1.20694e-10
-5.03286e-09
1.20322e-10
-5.12245e-09
1.19915e-10
-5.21172e-09
1.19476e-10
-5.30064e-09
1.19003e-10
-5.38917e-09
1.18496e-10
-5.4773e-09
1.17957e-10
-5.565e-09
1.17385e-10
-5.65225e-09
1.1678e-10
-5.73902e-09
1.16141e-10
-5.82529e-09
1.15469e-10
-5.91102e-09
1.14762e-10
-5.99621e-09
1.14022e-10
-6.08081e-09
1.13248e-10
-6.16481e-09
1.1244e-10
-6.24817e-09
1.11597e-10
-6.33088e-09
1.1072e-10
-6.41291e-09
1.09808e-10
-6.49422e-09
1.08861e-10
-6.5748e-09
1.07878e-10
-6.65462e-09
1.06859e-10
-6.73364e-09
1.05804e-10
-6.81185e-09
1.04712e-10
-6.88921e-09
1.03584e-10
-6.9657e-09
1.02418e-10
-7.04129e-09
1.01215e-10
-7.11595e-09
9.99738e-11
-7.18965e-09
9.86942e-11
-7.26236e-09
9.73763e-11
-7.33406e-09
9.60199e-11
-7.40472e-09
9.46244e-11
-7.4743e-09
9.31896e-11
-7.54277e-09
9.17152e-11
-7.61012e-09
9.02012e-11
-7.6763e-09
8.86471e-11
-7.74128e-09
8.70525e-11
-7.80505e-09
8.54174e-11
-7.86756e-09
8.37417e-11
-7.92878e-09
8.20253e-11
-7.98869e-09
8.02678e-11
-8.04726e-09
7.8469e-11
-8.10445e-09
7.66293e-11
-8.16023e-09
7.47485e-11
-8.21458e-09
7.28266e-11
-8.26746e-09
7.08636e-11
-8.31884e-09
6.88593e-11
-8.36869e-09
6.68139e-11
-8.41698e-09
6.47275e-11
-8.46368e-09
6.26002e-11
-8.50876e-09
6.04321e-11
-8.55218e-09
5.82233e-11
-8.59393e-09
5.59739e-11
-8.63397e-09
5.36844e-11
-8.67226e-09
5.13551e-11
-8.70879e-09
4.89869e-11
-8.74352e-09
4.65801e-11
-8.77642e-09
4.4135e-11
-8.80747e-09
4.16521e-11
-8.83663e-09
3.91319e-11
-8.86389e-09
3.65751e-11
-8.8892e-09
3.39823e-11
-8.91256e-09
3.13539e-11
-8.93392e-09
2.86909e-11
-8.95328e-09
2.59945e-11
-8.97059e-09
2.32651e-11
-8.98584e-09
2.05036e-11
-8.99901e-09
1.77107e-11
-9.01006e-09
1.48873e-11
-9.01899e-09
1.2035e-11
-9.02577e-09
9.15507e-12
-9.03038e-09
6.24816e-12
-9.0328e-09
3.31549e-12
-9.03301e-09
3.58399e-13
-9.031e-09
-2.62174e-12
-9.02675e-09
-5.62348e-12
-9.02024e-09
-8.64572e-12
-9.01147e-09
-1.1687e-11
-9.00041e-09
-1.47456e-11
-8.98706e-09
-1.782e-11
-8.9714e-09
-2.09085e-11
-8.95343e-09
-2.40095e-11
-8.93314e-09
-2.71213e-11
-8.91052e-09
-3.02424e-11
-8.88557e-09
-3.33707e-11
-8.85828e-09
-3.65047e-11
-8.82864e-09
-3.96426e-11
-8.79667e-09
-4.27822e-11
-8.76236e-09
-4.59213e-11
-8.7257e-09
-4.90581e-11
-8.68671e-09
-5.21904e-11
-8.64539e-09
-5.53165e-11
-8.60175e-09
-5.84344e-11
-8.55578e-09
-6.15417e-11
-8.50751e-09
-6.46364e-11
-8.45694e-09
-6.77164e-11
-8.40409e-09
-7.07792e-11
-8.34897e-09
-7.38226e-11
-8.2916e-09
-7.68446e-11
-8.232e-09
-7.98429e-11
-8.17017e-09
-8.2815e-11
-8.10616e-09
-8.57588e-11
-8.03997e-09
-8.8672e-11
-7.97163e-09
-9.15521e-11
-7.90118e-09
-9.43966e-11
-7.82863e-09
-9.72031e-11
-7.75402e-09
-9.99695e-11
-7.67738e-09
-1.02693e-10
-7.59875e-09
-1.05373e-10
-7.51815e-09
-1.08004e-10
-7.43563e-09
-1.10587e-10
-7.35122e-09
-1.13118e-10
-7.26497e-09
-1.15595e-10
-7.17691e-09
-1.18015e-10
-7.08709e-09
-1.20378e-10
-6.99556e-09
-1.22679e-10
-6.90236e-09
-1.24917e-10
-6.80754e-09
-1.27091e-10
-6.71114e-09
-1.29198e-10
-6.61324e-09
-1.31235e-10
-6.51386e-09
-1.33201e-10
-6.41307e-09
-1.35094e-10
-6.31093e-09
-1.36911e-10
-6.2075e-09
-1.38652e-10
-6.10282e-09
-1.40314e-10
-5.99697e-09
-1.41895e-10
-5.88999e-09
-1.43393e-10
-5.78197e-09
-1.44808e-10
-5.67295e-09
-1.46137e-10
-5.56301e-09
-1.47379e-10
-5.45221e-09
-1.48532e-10
-5.34061e-09
-1.49595e-10
-5.22829e-09
-1.50567e-10
-5.11532e-09
-1.51446e-10
-5.00176e-09
-1.52232e-10
-4.88768e-09
-1.52922e-10
-4.77316e-09
-1.53517e-10
-4.65827e-09
-1.54014e-10
-4.54308e-09
-1.54413e-10
-4.42766e-09
-1.54715e-10
-4.31209e-09
-1.54917e-10
-4.19645e-09
-1.5502e-10
-4.0808e-09
-1.55023e-10
-3.96522e-09
-1.54925e-10
-3.84979e-09
-1.54727e-10
-3.73458e-09
-1.54427e-10
-3.61967e-09
-1.54027e-10
-3.50513e-09
-1.53526e-10
-3.39103e-09
-1.52923e-10
-3.27746e-09
-1.52221e-10
-3.16449e-09
-1.51417e-10
-3.05218e-09
-1.50514e-10
-2.94062e-09
-1.49512e-10
-2.82988e-09
-1.4841e-10
-2.72003e-09
-1.47211e-10
-2.61115e-09
-1.45914e-10
-2.5033e-09
-1.4452e-10
-2.39656e-09
-1.43031e-10
-2.29099e-09
-1.41448e-10
-2.18668e-09
-1.39771e-10
-2.08367e-09
-1.38003e-10
-1.98205e-09
-1.36144e-10
-1.88188e-09
-1.34196e-10
-1.78322e-09
-1.32161e-10
-1.68614e-09
-1.30039e-10
-1.5907e-09
-1.27834e-10
-1.49697e-09
-1.25546e-10
-1.40499e-09
-1.23178e-10
-1.31483e-09
-1.20732e-10
-1.22655e-09
-1.1821e-10
-1.1402e-09
-1.15614e-10
-1.05584e-09
-1.12946e-10
-9.73505e-10
-1.10208e-10
-8.93261e-10
-1.07404e-10
-8.1515e-10
-1.04537e-10
-7.39218e-10
-1.01607e-10
-6.6551e-10
-9.86188e-11
-5.94065e-10
-9.55744e-11
-5.24925e-10
-9.24769e-11
-4.58127e-10
-8.93289e-11
-3.93706e-10
-8.61335e-11
-3.31694e-10
-8.28942e-11
-2.72122e-10
-7.96139e-11
-2.15018e-10
-7.62959e-11
-1.60408e-10
-7.29434e-11
-1.08315e-10
-6.95598e-11
-5.87584e-11
-6.61488e-11
-1.17564e-11
-6.27139e-11
3.26763e-11
-5.9259e-11
7.45273e-11
-5.57881e-11
1.13788e-10
-5.23048e-11
1.50451e-10
-4.88129e-11
1.84516e-10
-4.53166e-11
2.15981e-10
-4.18206e-11
2.44851e-10
-3.83291e-11
2.71131e-10
-3.48466e-11
2.94833e-10
-3.13777e-11
3.1597e-10
-2.79274e-11
3.34562e-10
-2.45011e-11
3.50628e-10
-2.11037e-11
3.64196e-10
-1.77405e-11
3.75296e-10
-1.44179e-11
3.83963e-10
-1.11423e-11
3.90237e-10
-7.92002e-12
3.94161e-10
-4.7572e-12
3.95787e-10
-1.66079e-12
3.9517e-10
1.36128e-12
3.92373e-10
4.30058e-12
3.87462e-10
7.14861e-12
3.80513e-10
9.89634e-12
3.71609e-10
1.25338e-11
3.60841e-10
1.50504e-11
3.48306e-10
1.74343e-11
3.34114e-10
1.96729e-11
3.18384e-10
2.1752e-11
3.01245e-10
2.36564e-11
2.8284e-10
2.53694e-11
2.63325e-10
2.68725e-11
2.4287e-10
2.81454e-11
2.21662e-10
2.91658e-11
1.99908e-10
2.99085e-11
1.77831e-10
3.03456e-11
1.5568e-10
3.0446e-11
1.33726e-10
3.01756e-11
1.12266e-10
2.94971e-11
9.16259e-11
2.837e-11
7.21585e-11
2.67513e-11
5.42446e-11
2.45985e-11
3.82858e-11
2.18738e-11
2.46905e-11
1.85553e-11
1.38441e-11
1.46589e-11
6.05069e-12
1.02832e-11
1.43356e-12
5.68443e-12
-2.53646e-13
1.43359e-12
-1.08336e-12
3.17971e-12
-4.77925e-12
1.10943e-11
-1.46198e-11
2.25268e-11
-2.25484e-11
3.62886e-11
-2.78624e-11
5.12141e-11
-3.06248e-11
6.62343e-11
-3.11193e-11
8.04102e-11
-2.96865e-11
9.2943e-11
-2.66584e-11
1.03166e-10
-2.23316e-11
1.10532e-10
-1.69604e-11
1.146e-10
-1.07581e-11
1.15014e-10
-3.90239e-12
1.11499e-10
3.45913e-12
1.03841e-10
1.12041e-11
9.1878e-11
1.9231e-11
7.54972e-11
2.74549e-11
5.46222e-11
3.58057e-11
2.92089e-11
4.4224e-11
-7.59941e-13
5.26607e-11
-3.52781e-11
6.10745e-11
-7.43203e-11
6.94308e-11
-1.17845e-10
7.77009e-11
-1.65798e-10
8.58602e-11
-2.18111e-10
9.38884e-11
-2.74709e-10
1.01769e-10
-3.35508e-10
1.09487e-10
-4.00416e-10
1.17031e-10
-4.69339e-10
1.24394e-10
-5.42177e-10
1.31567e-10
-6.18824e-10
1.38545e-10
-6.99177e-10
1.45325e-10
-7.83125e-10
1.51902e-10
-8.70562e-10
1.58276e-10
-9.61376e-10
1.64445e-10
-1.05546e-09
1.70409e-10
-1.15269e-09
1.76169e-10
-1.25298e-09
1.81726e-10
-1.3562e-09
1.8708e-10
-1.46226e-09
1.92235e-10
-1.57103e-09
1.97192e-10
-1.68242e-09
2.01954e-10
-1.79633e-09
2.06525e-10
-1.91264e-09
2.10907e-10
-2.03126e-09
2.15103e-10
-2.1521e-09
2.19118e-10
-2.27504e-09
2.22955e-10
-2.40001e-09
2.26617e-10
-2.5269e-09
2.30108e-10
-2.65562e-09
2.33433e-10
-2.78609e-09
2.36596e-10
-2.91821e-09
2.396e-10
-3.05191e-09
2.42448e-10
-3.1871e-09
2.45146e-10
-3.32369e-09
2.47697e-10
-3.46162e-09
2.50104e-10
-3.6008e-09
2.52371e-10
-3.74116e-09
2.54503e-10
-3.88263e-09
2.56502e-10
-4.02513e-09
2.58373e-10
-4.1686e-09
2.60118e-10
-4.31297e-09
2.61741e-10
-4.45817e-09
2.63245e-10
-4.60414e-09
2.64633e-10
-4.75082e-09
2.65909e-10
-4.89814e-09
2.67074e-10
-5.04605e-09
2.68131e-10
-5.19449e-09
2.69084e-10
-5.3434e-09
2.69935e-10
-5.49273e-09
2.70686e-10
-5.64242e-09
2.7134e-10
-5.79242e-09
2.71899e-10
-5.94269e-09
2.72364e-10
-6.09316e-09
2.72739e-10
-6.24379e-09
2.73024e-10
-6.39453e-09
2.73221e-10
-6.54533e-09
2.73333e-10
-6.69615e-09
2.7336e-10
-6.84694e-09
2.73304e-10
-6.99766e-09
2.73167e-10
-7.14825e-09
2.72948e-10
-7.29868e-09
2.7265e-10
-7.4489e-09
2.72273e-10
-7.59887e-09
2.71817e-10
-7.74854e-09
2.71285e-10
-7.89788e-09
2.70676e-10
-8.04684e-09
2.69991e-10
-8.19537e-09
2.6923e-10
-8.34345e-09
2.68394e-10
-8.49101e-09
2.67483e-10
-8.63803e-09
2.66497e-10
-8.78447e-09
2.65436e-10
-8.93027e-09
2.64301e-10
-9.0754e-09
2.63091e-10
-9.21983e-09
2.61806e-10
-9.36349e-09
2.60447e-10
-9.50637e-09
2.59014e-10
-9.6484e-09
2.57504e-10
-9.78956e-09
2.5592e-10
-9.9298e-09
2.54259e-10
-1.00691e-08
2.52522e-10
-1.02073e-08
2.50708e-10
-1.03446e-08
2.48817e-10
-1.04807e-08
2.46848e-10
-1.06157e-08
2.44801e-10
-1.07495e-08
2.42675e-10
-1.08821e-08
2.40469e-10
-1.10134e-08
2.38183e-10
-1.11434e-08
2.35816e-10
-1.12721e-08
2.33367e-10
-1.13993e-08
2.30836e-10
-1.15251e-08
2.28223e-10
-1.16494e-08
2.25525e-10
-1.17722e-08
2.22743e-10
-1.18934e-08
2.19876e-10
-1.20129e-08
2.16923e-10
-1.21308e-08
2.13884e-10
-1.22469e-08
2.10758e-10
-1.23613e-08
2.07545e-10
-1.24738e-08
2.04244e-10
-1.25845e-08
2.00854e-10
-1.26932e-08
1.97376e-10
-1.28e-08
1.93807e-10
-1.29047e-08
1.90148e-10
-1.30073e-08
1.86399e-10
-1.31079e-08
1.8256e-10
-1.32062e-08
1.78629e-10
-1.33024e-08
1.74608e-10
-1.33962e-08
1.70495e-10
-1.34878e-08
1.66291e-10
-1.3577e-08
1.61995e-10
-1.36637e-08
1.57608e-10
-1.3748e-08
1.5313e-10
-1.38297e-08
1.48561e-10
-1.39089e-08
1.43901e-10
-1.39854e-08
1.3915e-10
-1.40593e-08
1.34309e-10
-1.41305e-08
1.29378e-10
-1.41989e-08
1.24359e-10
-1.42644e-08
1.1925e-10
-1.43271e-08
1.14054e-10
-1.43869e-08
1.08771e-10
-1.44437e-08
1.03403e-10
-1.44975e-08
9.79497e-11
-1.45483e-08
9.24133e-11
-1.4596e-08
8.67945e-11
-1.46405e-08
8.10945e-11
-1.46818e-08
7.53151e-11
-1.47199e-08
6.94578e-11
-1.47548e-08
6.35241e-11
-1.47863e-08
5.75159e-11
-1.48145e-08
5.14354e-11
-1.48392e-08
4.52843e-11
-1.48606e-08
3.90646e-11
-1.48785e-08
3.27784e-11
-1.48929e-08
2.64282e-11
-1.49037e-08
2.00166e-11
-1.4911e-08
1.35463e-11
-1.49147e-08
7.01977e-12
-1.49148e-08
4.39815e-13
-1.49112e-08
-6.19092e-12
-1.4904e-08
-1.28693e-11
-1.48931e-08
-1.95918e-11
-1.48784e-08
-2.63555e-11
-1.486e-08
-3.31572e-11
-1.48378e-08
-3.99932e-11
-1.48118e-08
-4.68601e-11
-1.47821e-08
-5.37543e-11
-1.47486e-08
-6.06717e-11
-1.47112e-08
-6.76087e-11
-1.467e-08
-7.45613e-11
-1.4625e-08
-8.15254e-11
-1.45761e-08
-8.84969e-11
-1.45234e-08
-9.54717e-11
-1.44669e-08
-1.02445e-10
-1.44066e-08
-1.09413e-10
-1.43424e-08
-1.1637e-10
-1.42744e-08
-1.23313e-10
-1.42026e-08
-1.30237e-10
-1.4127e-08
-1.37136e-10
-1.40476e-08
-1.44007e-10
-1.39645e-08
-1.50845e-10
-1.38776e-08
-1.57643e-10
-1.3787e-08
-1.64399e-10
-1.36928e-08
-1.71106e-10
-1.35949e-08
-1.7776e-10
-1.34933e-08
-1.84355e-10
-1.33882e-08
-1.90887e-10
-1.32795e-08
-1.9735e-10
-1.31673e-08
-2.0374e-10
-1.30517e-08
-2.1005e-10
-1.29326e-08
-2.16277e-10
-1.28102e-08
-2.22413e-10
-1.26844e-08
-2.28456e-10
-1.25554e-08
-2.34398e-10
-1.24231e-08
-2.40236e-10
-1.22878e-08
-2.45965e-10
-1.21493e-08
-2.51578e-10
-1.20078e-08
-2.57071e-10
-1.18634e-08
-2.6244e-10
-1.17161e-08
-2.67679e-10
-1.1566e-08
-2.72783e-10
-1.14132e-08
-2.77748e-10
-1.12577e-08
-2.82569e-10
-1.10996e-08
-2.87241e-10
-1.09391e-08
-2.91759e-10
-1.07762e-08
-2.9612e-10
-1.0611e-08
-3.00318e-10
-1.04435e-08
-3.0435e-10
-1.0274e-08
-3.08211e-10
-1.01024e-08
-3.11897e-10
-9.92888e-09
-3.15405e-10
-9.75354e-09
-3.1873e-10
-9.57648e-09
-3.21869e-10
-9.3978e-09
-3.24818e-10
-9.2176e-09
-3.27575e-10
-9.036e-09
-3.30135e-10
-8.8531e-09
-3.32496e-10
-8.66901e-09
-3.34655e-10
-8.48385e-09
-3.36609e-10
-8.29773e-09
-3.38355e-10
-8.11076e-09
-3.39891e-10
-7.92306e-09
-3.41215e-10
-7.73475e-09
-3.42324e-10
-7.54594e-09
-3.43217e-10
-7.35677e-09
-3.43893e-10
-7.16733e-09
-3.44349e-10
-6.97777e-09
-3.44586e-10
-6.78819e-09
-3.44601e-10
-6.59872e-09
-3.44394e-10
-6.40948e-09
-3.43964e-10
-6.2206e-09
-3.43311e-10
-6.03219e-09
-3.42434e-10
-5.84438e-09
-3.41334e-10
-5.6573e-09
-3.40011e-10
-5.47105e-09
-3.38466e-10
-5.28577e-09
-3.36698e-10
-5.10158e-09
-3.3471e-10
-4.91859e-09
-3.32501e-10
-4.73692e-09
-3.30074e-10
-4.5567e-09
-3.27429e-10
-4.37805e-09
-3.24569e-10
-4.20107e-09
-3.21497e-10
-4.02589e-09
-3.18212e-10
-3.85262e-09
-3.14719e-10
-3.68137e-09
-3.11021e-10
-3.51225e-09
-3.07119e-10
-3.34538e-09
-3.03017e-10
-3.18086e-09
-2.98717e-10
-3.0188e-09
-2.94224e-10
-2.85929e-09
-2.89542e-10
-2.70245e-09
-2.84674e-10
-2.54838e-09
-2.79623e-10
-2.39716e-09
-2.74396e-10
-2.2489e-09
-2.68995e-10
-2.10368e-09
-2.63426e-10
-1.9616e-09
-2.57694e-10
-1.82274e-09
-2.51804e-10
-1.68719e-09
-2.4576e-10
-1.55503e-09
-2.39569e-10
-1.42633e-09
-2.33236e-10
-1.30117e-09
-2.26768e-10
-1.17962e-09
-2.20169e-10
-1.06175e-09
-2.13446e-10
-9.47616e-10
-2.06606e-10
-8.3729e-10
-1.99655e-10
-7.30825e-10
-1.92599e-10
-6.28273e-10
-1.85446e-10
-5.29684e-10
-1.78203e-10
-4.35104e-10
-1.70876e-10
-3.44573e-10
-1.63474e-10
-2.58128e-10
-1.56005e-10
-1.75803e-10
-1.48474e-10
-9.76246e-11
-1.40892e-10
-2.36178e-11
-1.33266e-10
4.61988e-11
-1.25605e-10
1.11811e-10
-1.17917e-10
1.73209e-10
-1.10211e-10
2.3039e-10
-1.02498e-10
2.83354e-10
-9.4785e-11
3.32108e-10
-8.70833e-11
3.76664e-10
-7.94028e-11
4.1704e-10
-7.17539e-11
4.53261e-10
-6.41477e-11
4.85355e-10
-5.65954e-11
5.13361e-10
-4.91091e-11
5.37321e-10
-4.1701e-11
5.57287e-10
-3.43841e-11
5.73316e-10
-2.71718e-11
5.85474e-10
-2.00783e-11
5.93837e-10
-1.31189e-11
5.98485e-10
-6.30927e-12
5.99511e-10
3.33982e-13
5.97019e-10
6.79316e-12
5.91119e-10
1.30489e-11
5.81935e-10
1.90806e-11
5.69601e-10
2.48667e-11
5.54268e-10
3.03839e-11
5.36095e-10
3.5607e-11
5.15261e-10
4.05078e-11
4.91957e-10
4.5056e-11
4.66393e-10
4.92193e-11
4.388e-10
5.29623e-11
4.09427e-10
5.62457e-11
3.78547e-10
5.90264e-11
3.46455e-10
6.12573e-11
3.13476e-10
6.28873e-11
2.79961e-10
6.38598e-11
2.46294e-10
6.41129e-11
2.12891e-10
6.35794e-11
1.802e-10
6.2188e-11
1.48706e-10
5.98642e-11
1.18924e-10
5.65331e-11
9.13963e-11
5.2126e-11
6.66785e-11
4.65914e-11
4.53169e-11
3.99167e-11
2.78088e-11
3.21671e-11
1.45377e-11
2.35545e-11
5.6781e-12
1.45438e-11
1.06509e-12
6.04653e-12
-1.81942e-14
4.1931e-12
-8.97248e-12
1.40843e-11
-2.45108e-11
2.78476e-11
-3.6311e-11
4.39628e-11
-4.39772e-11
6.10499e-11
-4.77119e-11
7.78636e-11
-4.79333e-11
9.33025e-11
-4.51254e-11
1.06412e-10
-3.97672e-11
1.16377e-10
-3.22971e-11
1.22518e-10
-2.31004e-11
1.24269e-10
-1.25092e-11
1.21172e-10
-8.05812e-13
1.12861e-10
1.1771e-11
9.90451e-11
2.50199e-11
7.9505e-11
3.8771e-11
5.40779e-11
5.28819e-11
2.26513e-11
6.72322e-11
-1.48451e-11
8.17202e-11
-5.84454e-11
9.62606e-11
-1.08152e-10
1.10781e-10
-1.63941e-10
1.2522e-10
-2.25767e-10
1.39527e-10
-2.93564e-10
1.53657e-10
-3.67251e-10
1.67576e-10
-4.46734e-10
1.81251e-10
-5.31907e-10
1.94659e-10
-6.22653e-10
2.07778e-10
-7.18849e-10
2.2059e-10
-8.20366e-10
2.33084e-10
-9.27069e-10
2.45248e-10
-1.03882e-09
2.57074e-10
-1.15547e-09
2.68556e-10
-1.27689e-09
2.7969e-10
-1.40291e-09
2.90473e-10
-1.53341e-09
3.00905e-10
-1.66822e-09
3.10985e-10
-1.80721e-09
3.20715e-10
-1.95023e-09
3.30097e-10
-2.09713e-09
3.39134e-10
-2.24777e-09
3.47829e-10
-2.402e-09
3.56187e-10
-2.55968e-09
3.64212e-10
-2.72069e-09
3.7191e-10
-2.88487e-09
3.79286e-10
-3.0521e-09
3.86346e-10
-3.22224e-09
3.93096e-10
-3.39516e-09
3.99542e-10
-3.57075e-09
4.05691e-10
-3.74886e-09
4.11549e-10
-3.92939e-09
4.17123e-10
-4.11221e-09
4.2242e-10
-4.29721e-09
4.27446e-10
-4.48427e-09
4.32207e-10
-4.67328e-09
4.3671e-10
-4.86414e-09
4.40962e-10
-5.05674e-09
4.44969e-10
-5.25097e-09
4.48737e-10
-5.44674e-09
4.52272e-10
-5.64395e-09
4.55582e-10
-5.8425e-09
4.5867e-10
-6.0423e-09
4.61543e-10
-6.24326e-09
4.64206e-10
-6.4453e-09
4.66665e-10
-6.64831e-09
4.68925e-10
-6.85223e-09
4.7099e-10
-7.05696e-09
4.72866e-10
-7.26244e-09
4.74557e-10
-7.46857e-09
4.76068e-10
-7.67529e-09
4.77402e-10
-7.88251e-09
4.78564e-10
-8.09017e-09
4.79558e-10
-8.29819e-09
4.80386e-10
-8.50651e-09
4.81053e-10
-8.71504e-09
4.81562e-10
-8.92374e-09
4.81915e-10
-9.13252e-09
4.82116e-10
-9.34133e-09
4.82167e-10
-9.5501e-09
4.82071e-10
-9.75876e-09
4.81829e-10
-9.96725e-09
4.81443e-10
-1.01755e-08
4.80916e-10
-1.03835e-08
4.80249e-10
-1.05911e-08
4.79443e-10
-1.07983e-08
4.78501e-10
-1.10051e-08
4.77422e-10
-1.12113e-08
4.76208e-10
-1.14169e-08
4.74859e-10
-1.16219e-08
4.73377e-10
-1.18262e-08
4.71762e-10
-1.20297e-08
4.70013e-10
-1.22324e-08
4.68133e-10
-1.24342e-08
4.6612e-10
-1.26351e-08
4.63974e-10
-1.2835e-08
4.61696e-10
-1.30338e-08
4.59286e-10
-1.32316e-08
4.56743e-10
-1.34281e-08
4.54066e-10
-1.36235e-08
4.51255e-10
-1.38175e-08
4.48309e-10
-1.40102e-08
4.45228e-10
-1.42015e-08
4.42011e-10
-1.43914e-08
4.38657e-10
-1.45797e-08
4.35166e-10
-1.47664e-08
4.31536e-10
-1.49515e-08
4.27766e-10
-1.51349e-08
4.23855e-10
-1.53165e-08
4.19803e-10
-1.54963e-08
4.15607e-10
-1.56742e-08
4.11268e-10
-1.58501e-08
4.06782e-10
-1.60241e-08
4.02151e-10
-1.61959e-08
3.97371e-10
-1.63656e-08
3.92444e-10
-1.65331e-08
3.87366e-10
-1.66983e-08
3.82137e-10
-1.68612e-08
3.76756e-10
-1.70217e-08
3.71223e-10
-1.71797e-08
3.65535e-10
-1.73351e-08
3.59693e-10
-1.74879e-08
3.53694e-10
-1.76381e-08
3.47539e-10
-1.77855e-08
3.41227e-10
-1.79301e-08
3.34756e-10
-1.80719e-08
3.28127e-10
-1.82106e-08
3.21338e-10
-1.83464e-08
3.14389e-10
-1.84791e-08
3.07281e-10
-1.86086e-08
3.00012e-10
-1.87349e-08
2.92583e-10
-1.88579e-08
2.84994e-10
-1.89775e-08
2.77244e-10
-1.90937e-08
2.69335e-10
-1.92064e-08
2.61266e-10
-1.93156e-08
2.53037e-10
-1.94211e-08
2.4465e-10
-1.95229e-08
2.36105e-10
-1.96209e-08
2.27402e-10
-1.97151e-08
2.18544e-10
-1.98053e-08
2.09532e-10
-1.98917e-08
2.00366e-10
-1.99739e-08
1.91048e-10
-2.00521e-08
1.8158e-10
-2.01261e-08
1.71964e-10
-2.01959e-08
1.62202e-10
-2.02614e-08
1.52297e-10
-2.03226e-08
1.4225e-10
-2.03793e-08
1.32064e-10
-2.04316e-08
1.21742e-10
-2.04794e-08
1.11288e-10
-2.05226e-08
1.00703e-10
-2.05611e-08
8.99913e-11
-2.0595e-08
7.9157e-11
-2.06241e-08
6.82035e-11
-2.06485e-08
5.71347e-11
-2.0668e-08
4.59544e-11
-2.06827e-08
3.46672e-11
-2.06924e-08
2.3278e-11
-2.06972e-08
1.17911e-11
-2.06969e-08
2.11431e-13
-2.06917e-08
-1.14558e-11
-2.06813e-08
-2.32055e-11
-2.06659e-08
-3.50322e-11
-2.06453e-08
-4.69298e-11
-2.06196e-08
-5.88927e-11
-2.05887e-08
-7.09148e-11
-2.05525e-08
-8.29898e-11
-2.05112e-08
-9.51115e-11
-2.04646e-08
-1.07273e-10
-2.04127e-08
-1.19468e-10
-2.03556e-08
-1.31689e-10
-2.02932e-08
-1.43929e-10
-2.02255e-08
-1.56181e-10
-2.01525e-08
-1.68437e-10
-2.00743e-08
-1.80691e-10
-1.99908e-08
-1.92933e-10
-1.9902e-08
-2.05156e-10
-1.98079e-08
-2.17352e-10
-1.97087e-08
-2.29514e-10
-1.96042e-08
-2.41632e-10
-1.94945e-08
-2.53699e-10
-1.93796e-08
-2.65706e-10
-1.92596e-08
-2.77645e-10
-1.91345e-08
-2.89506e-10
-1.90043e-08
-3.01282e-10
-1.88691e-08
-3.12964e-10
-1.87289e-08
-3.24542e-10
-1.85838e-08
-3.36008e-10
-1.84338e-08
-3.47352e-10
-1.8279e-08
-3.58567e-10
-1.81194e-08
-3.69642e-10
-1.79551e-08
-3.8057e-10
-1.77862e-08
-3.9134e-10
-1.76127e-08
-4.01943e-10
-1.74347e-08
-4.12372e-10
-1.72523e-08
-4.22616e-10
-1.70656e-08
-4.32668e-10
-1.68747e-08
-4.42517e-10
-1.66796e-08
-4.52156e-10
-1.64805e-08
-4.61576e-10
-1.62774e-08
-4.70769e-10
-1.60704e-08
-4.79725e-10
-1.58598e-08
-4.88436e-10
-1.56454e-08
-4.96894e-10
-1.54276e-08
-5.05092e-10
-1.52063e-08
-5.1302e-10
-1.49818e-08
-5.20671e-10
-1.4754e-08
-5.28039e-10
-1.45233e-08
-5.35114e-10
-1.42896e-08
-5.41889e-10
-1.40531e-08
-5.48359e-10
-1.3814e-08
-5.54516e-10
-1.35724e-08
-5.60352e-10
-1.33284e-08
-5.65863e-10