/*--------------------------------*- C++ -*----------------------------------*\
  =========                 |
  \\      /  F ield         | OpenFOAM: The Open Source CFD Toolbox
   \\    /   O peration     | Website:  https://openfoam.org
    \\  /    A nd           | Version:  9
     \\/     M anipulation  |
\*---------------------------------------------------------------------------*/
FoamFile
{
    format      ascii;
    class       surfaceScalarField;
    location    "6.7";
    object      phi;
}
// * * * * * * * * * * * * * * * * * * * * * * * * * * * * * * * * * * * * * //

dimensions      [0 3 -1 0 0 0 0];

internalField   nonuniform List<scalar> 
16735
(
-0.00154441
0.00154441
9.13446e-11
-0.00422842
0.00268401
2.31197e-10
-0.00717436
0.00294595
3.5763e-10
-0.0096311
0.00245674
4.50306e-10
-0.0110223
0.00139117
5.20888e-10
-0.0107957
-0.000226596
5.5128e-10
-0.00843436
-0.00236132
5.3406e-10
-0.00333426
-0.0051001
4.49492e-10
0.00456305
-0.00789731
2.96706e-10
-0.0114869
6.10317e-11
0.01605
-0.00151183
0.00305624
-0.00411543
0.00528761
-0.00693201
0.00576252
-0.00920574
0.00473047
-0.0103518
0.00253727
-0.00980755
-0.000770879
-0.00704213
-0.00512674
-0.00146134
-0.0106809
0.00709831
-0.016457
-0.0237625
0.0193739
-0.00144729
0.00450353
-0.00389121
0.00773153
-0.00645076
0.00832207
-0.00836081
0.00664052
-0.00901997
0.00319643
-0.00784411
-0.00194674
-0.0042724
-0.00869845
0.00230654
-0.0172598
0.0121332
-0.0262836
-0.037587
0.0259577
-0.00135194
0.00585547
-0.00355921
0.0099388
-0.00573739
0.0105002
-0.0071077
0.00801083
-0.00704469
0.00313342
-0.00493224
-0.00405919
-0.000123513
-0.0135072
0.00791408
-0.0252974
0.0195839
-0.0379535
-0.0536759
0.0356729
-0.0012275
0.00708297
-0.0031244
0.0118357
-0.0048017
0.0121776
-0.00546289
0.00867202
-0.00445171
0.00212223
-0.00111925
-0.00739165
0.00520318
-0.0198296
0.0152302
-0.0353244
0.0293224
-0.0520457
-0.0726834
0.0483299
-0.00107607
0.00815903
-0.00259302
0.0133527
-0.0036561
0.0132406
-0.00344724
0.00846316
-0.00127239
-5.26119e-05
0.00356144
-0.0122255
0.0117709
-0.0280391
0.0241572
-0.0477107
0.0411855
-0.069074
-0.0951813
0.0636833
-0.000900109
0.00905914
-0.00197235
0.0144249
-0.00231509
0.0135834
-0.00108524
0.00723331
0.00245148
-0.00358933
0.00904167
-0.0188157
0.019456
-0.0384534
0.0345641
-0.0628188
0.0549758
-0.0894857
-0.121642
0.0814361
-0.000702301
0.00976144
-0.00127034
0.0149929
-0.000794708
0.0131077
0.00159516
0.00484344
0.00667857
-0.00867274
0.0152552
-0.0273923
0.0281549
-0.0513531
0.0462984
-0.0809624
0.0704653
-0.113652
-0.152422
0.101245
-0.000485536
0.010247
-0.000495132
0.0150025
0.000888234
0.0117244
0.00456524
0.00116644
0.0113623
-0.0154698
0.0221302
-0.0381602
0.0377565
-0.0669795
0.0591913
-0.102397
0.0873979
-0.141859
-0.18775
0.122726
-0.000253497
0.0105005
0.000343408
0.0144056
0.00271613
0.00935165
0.00779462
-0.00391205
0.0164529
-0.024128
0.0295896
-0.0512969
0.0481418
-0.0855317
0.0730599
-0.127315
0.105493
-0.174292
-0.227707
0.14545
3.31777e-06
0.0104972
0.00123982
0.0131691
0.00467211
0.00591936
0.0112527
-0.0104926
0.0218999
-0.0347753
0.0375532
-0.0669502
0.0591851
-0.107164
0.0877105
-0.155841
0.124448
-0.211029
-0.27222
0.16896
0.000257478
0.0102397
0.00218462
0.011242
0.0067397
0.00136428
0.0149093
-0.0186622
0.0276522
-0.0475181
0.0459378
-0.0852358
0.0707546
-0.13198
0.102939
-0.188025
0.143943
-0.252033
-0.321048
0.192772
0.00052671
0.00971297
0.00317149
0.0085972
0.00890332
-0.00436755
0.0187351
-0.0284939
0.0336584
-0.0624415
0.0546583
-0.106236
0.0827126
-0.160035
0.118535
-0.223847
0.163645
-0.297143
-0.373788
0.216384
0.000804556
0.00890841
0.00419436
0.00520739
0.0111486
-0.0113218
0.0227017
-0.040047
0.0398672
-0.079607
0.063627
-0.129996
0.0949149
-0.191323
0.134276
-0.263208
0.183207
-0.346074
-0.429872
0.239291
0.00108963
0.00781879
0.00524796
0.00104906
0.0134624
-0.0195362
0.0267814
-0.053366
0.0462267
-0.0990524
0.0727529
-0.156522
0.10721
-0.22578
0.149935
-0.305934
0.202278
-0.398416
-0.48859
0.260996
0.00138106
0.00643772
0.00632782
-0.00389769
0.0158321
-0.0290406
0.0309471
-0.068481
0.0526838
-0.120789
0.0819411
-0.185779
0.119439
-0.263277
0.165279
-0.351774
0.220504
-0.453642
-0.549128
0.281042
0.00167835
0.00475938
0.00743011
-0.00964945
0.0182461
-0.0398566
0.0351713
-0.0854062
0.059183
-0.144801
0.0910913
-0.217687
0.131435
-0.303621
0.180067
-0.400406
0.237533
-0.511108
-0.610652
0.299057
0.0019812
0.00277817
0.00855138
-0.0162196
0.0206926
-0.0519978
0.0394253
-0.104139
0.0656659
-0.171041
0.100097
-0.252119
0.143026
-0.34655
0.194065
-0.451444
0.253027
-0.57007
-0.672419
0.314794
0.00228952
0.000488654
0.00968828
-0.0236184
0.0231594
-0.0654689
0.0436787
-0.124658
0.0720694
-0.199432
0.108845
-0.288895
0.154038
-0.391743
0.207052
-0.504459
0.266709
-0.629726
-0.733943
0.328233
0.00260321
-0.00211455
0.0108373
-0.0318524
0.0256332
-0.0802649
0.0478983
-0.146923
0.0783257
-0.22986
0.117215
-0.327784
0.164288
-0.438815
0.21878
-0.558951
0.278444
-0.68939
-0.79585
0.340351
0.0029221
-0.00503665
0.0119943
-0.0409246
0.0280994
-0.09637
0.0520477
-0.170871
0.0843622
-0.262174
0.125081
-0.368503
0.173577
-0.487312
0.228849
-0.614223
0.288334
-0.748875
-0.870318
0.362802
0.00324583
-0.00828249
0.0131544
-0.0508332
0.0305411
-0.113757
0.056087
-0.196417
0.0901024
-0.296189
0.132317
-0.410717
0.181726
-0.53672
0.237005
-0.669503
0.295251
-0.807121
-0.937431
0.362364
0.00357376
-0.0118562
0.0143117
-0.0615711
0.0329393
-0.132384
0.0599733
-0.223451
0.0954678
-0.331684
0.138804
-0.454053
0.188587
-0.586503
0.24312
-0.724035
0.299337
-0.863339
-0.998123
0.360029
0.00390482
-0.0157611
0.0154591
-0.0731254
0.0352725
-0.152198
0.0636604
-0.251839
0.10038
-0.368403
0.144435
-0.498108
0.194051
-0.636119
0.247186
-0.777171
0.300864
-0.917017
-1.05311
0.355849
0.00423757
-0.0199986
0.016588
-0.0854758
0.037517
-0.173127
0.0671002
-0.281422
0.104762
-0.406065
0.149115
-0.542461
0.198036
-0.68504
0.249218
-0.828353
0.299903
-0.967702
-1.1029
0.349699
0.00457003
-0.0245687
0.0176886
-0.0985944
0.0396471
-0.195085
0.0702435
-0.312019
0.108541
-0.444363
0.152763
-0.586684
0.200492
-0.732769
0.249256
-0.877116
0.29659
-1.01504
-1.14789
0.341574
0.00489977
-0.0294684
0.0187499
-0.112444
0.0416353
-0.217971
0.0730414
-0.343425
0.111651
-0.482973
0.155319
-0.630351
0.2014
-0.77885
0.247367
-0.923084
0.291103
-1.05877
-1.18835
0.331568
0.00522388
-0.0346923
0.0197596
-0.12698
0.0434533
-0.241664
0.0754468
-0.375418
0.114036
-0.521562
0.156742
-0.673057
0.200769
-0.822878
0.243648
-0.965962
0.283638
-1.09876
-1.22455
0.319834
0.00553904
-0.0402314
0.0207047
-0.142146
0.0450726
-0.266032
0.0774161
-0.407762
0.115649
-0.559795
0.15701
-0.714418
0.19864
-0.864508
0.23822
-1.00554
0.274403
-1.13494
-1.2567
0.306558
0.00584155
-0.0460729
0.0215716
-0.157876
0.0464653
-0.290926
0.0789105
-0.440207
0.116458
-0.597343
0.156125
-0.754085
0.195075
-0.903458
0.231219
-1.04169
0.263607
-1.16733
-1.28504
0.291938
0.00612741
-0.0522003
0.0223466
-0.174095
0.0476051
-0.316184
0.0798974
-0.472499
0.116442
-0.633887
0.154108
-0.79175
0.190157
-0.939507
0.222795
-1.07432
0.251455
-1.19599
-1.30975
0.276167
0.00639246
-0.0585928
0.0230159
-0.190718
0.0484679
-0.341636
0.0803514
-0.504383
0.115596
-0.669132
0.150995
-0.82715
0.183986
-0.972498
0.213102
-1.10344
0.238139
-1.22103
-1.33104
0.259429
0.0066324
-0.0652252
0.0235666
-0.207653
0.0490329
-0.367103
0.0802554
-0.535605
0.113927
-0.702803
0.146842
-0.860064
0.176669
-1.00233
0.202293
-1.12906
0.223839
-1.24257
-1.34909
0.241892
0.00684298
-0.0720682
0.0239863
-0.224796
0.0492827
-0.392399
0.0796002
-0.565923
0.111454
-0.734657
0.141712
-0.890322
0.168321
-1.02893
0.190519
-1.15126
0.208719
-1.26078
-1.36408
0.223706
0.00702001
-0.0790882
0.0242641
-0.24204
0.0492043
-0.417339
0.0783852
-0.595104
0.108209
-0.764481
0.13568
-0.917793
0.159057
-1.05231
0.177921
-1.17013
0.192928
-1.27578
-1.37615
0.205004
0.00715952
-0.0862477
0.0243905
-0.259271
0.048789
-0.441738
0.0766176
-0.622932
0.104231
-0.792094
0.128826
-0.942389
0.148993
-1.07248
0.164632
-1.18576
0.176596
-1.28775
-1.38546
0.185901
0.00725784
-0.0935055
0.0243578
-0.276371
0.0480327
-0.465413
0.0743121
-0.649212
0.0995665
-0.817348
0.121235
-0.964057
0.138239
-1.08948
0.150773
-1.1983
0.15984
-1.29681
-1.39211
0.166497
0.00731164
-0.100817
0.02416
-0.293219
0.0469359
-0.488189
0.0714898
-0.673766
0.0942695
-0.840128
0.112989
-0.982777
0.126902
-1.10339
0.136455
-1.20785
0.142759
-1.30312
-1.39623
0.146879
0.00731806
-0.108135
0.0237934
-0.309695
0.0455035
-0.509899
0.0681775
-0.69644
0.0883963
-0.860347
0.104174
-0.998555
0.115079
-1.1143
0.121776
-1.21455
0.125444
-1.30679
-1.39791
0.127121
0.00727475
-0.11541
0.0232561
-0.325676
0.0437444
-0.530387
0.0644067
-0.717102
0.082006
-0.877946
0.0948704
-1.01142
0.102863
-1.12229
0.106825
-1.21851
0.107969
-1.30793
-1.39723
0.107289
0.00717987
-0.12259
0.0225485
-0.341045
0.0416712
-0.54951
0.0602124
-0.735643
0.0751585
-0.892892
0.0851564
-1.02142
0.0903371
-1.12747
0.0916813
-1.21985
0.0904035
-1.30665
-1.39426
0.0874382
0.00703221
-0.129622
0.021673
-0.355686
0.0392998
-0.567136
0.0556323
-0.751976
0.0679136
-0.905174
0.0751057
-1.02861
0.0775778
-1.12995
0.0764132
-1.21869
0.0728044
-1.30304
-1.38908
0.0676171
0.00683112
-0.136453
0.0206336
-0.369488
0.036649
-0.583152
0.0507061
-0.766033
0.0603298
-0.914797
0.0647874
-1.03307
0.0646543
-1.12981
0.0610823
-1.21512
0.0552238
-1.29719
-1.38172
0.0478671
0.00657658
-0.14303
0.0194365
-0.382348
0.0337395
-0.597455
0.0454739
-0.777767
0.0524639
-0.921787
0.0542658
-1.03487
0.0516291
-1.12718
0.0457437
-1.20923
0.0377078
-1.28915
-1.37223
0.0282217
0.00626919
-0.149299
0.0180892
-0.394168
0.0305941
-0.60996
0.0399765
-0.78715
0.0443699
-0.926181
0.0436
-1.0341
0.0385582
-1.12213
0.0304476
-1.20112
0.0203009
-1.279
-1.36062
0.00868454
0.00591011
-0.155209
0.0166008
-0.404859
0.0272367
-0.620596
0.0342542
-0.794167
0.0360994
-0.928026
0.0328443
-1.03084
0.0254901
-1.11478
0.0152359
-1.19087
0.00308563
-1.26685
-1.34691
-0.0106247
0.00550107
-0.16071
0.0149814
-0.414339
0.0236922
-0.629306
0.0283464
-0.798821
0.0277009
-0.92738
0.0220493
-1.02519
0.0124702
-1.1052
6.09426e-05
-1.17846
-0.0140402
-1.25275
-1.33127
-0.0296817
0.00504433
-0.165754
0.0132422
-0.422537
0.0199858
-0.63605
0.0222913
-0.801127
0.0192196
-0.924309
0.0112601
-1.01723
-0.000460956
-1.09348
-0.014781
-1.16414
-0.0309354
-1.2366
-1.31368
-0.0485222
0.00454263
-0.170297
0.0113951
-0.429389
0.0161429
-0.640798
0.0161256
-0.80111
0.0106972
-0.91888
0.000505983
-1.00704
-0.0132424
-1.07973
-0.0295104
-1.14787
-0.0475841
-1.21852
-1.29416
-0.0671014
0.00399916
-0.174296
0.00945271
-0.434843
0.0121888
-0.643534
0.00988439
-0.798805
0.00217421
-0.91117
-0.010137
-0.99473
-0.0258707
-1.064
-0.0440213
-1.12972
-0.0639668
-1.19858
-1.27274
-0.0853901
0.00341752
-0.177714
0.00742766
-0.438853
0.00814826
-0.644254
0.00360166
-0.794259
-0.00631483
-0.901254
-0.0206738
-0.980371
-0.0383056
-1.04637
-0.0582816
-1.10974
-0.0800588
-1.1768
-1.24944
-0.103363
0.00280164
-0.180515
0.00533418
-0.441386
0.00404649
-0.642967
-0.00269266
-0.787519
-0.0147372
-0.889209
-0.0310611
-0.964047
-0.0505183
-1.02691
-0.0722636
-1.088
-0.0958347
-1.15323
-1.22427
-0.120995
0.0021558
-0.182671
0.00318875
-0.442419
-5.43171e-05
-0.639724
-0.00897093
-0.778603
-0.0230635
-0.875116
-0.0412702
-0.94584
-0.0624824
-1.0057
-0.0859412
-1.06454
-0.111269
-1.1279
-1.19728
-0.138264
0.00148549
-0.184157
0.00101156
-0.441945
-0.00426485
-0.634447
-0.0152078
-0.76766
-0.0312653
-0.859059
-0.0512755
-0.92583
-0.0741738
-0.982798
-0.0992898
-1.03942
-0.126336
-1.10086
-1.16847
-0.155146
0.000793917
-0.184951
-0.00120133
-0.439949
-0.00842636
-0.627222
-0.0213746
-0.754712
-0.0393178
-0.841116
-0.0610536
-0.904095
-0.0855704
-0.958281
-0.112286
-1.01271
-0.141009
-1.07213
-1.13786
-0.171618
5.68956e-05
-0.185007
-0.0034478
-0.436445
-0.012563
-0.618107
-0.0274487
-0.739826
-0.0471979
-0.821366
-0.0705834
-0.880709
-0.096652
-0.932213
-0.124906
-0.984454
-0.155261
-1.04178
-1.10547
-0.187654
-0.000657875
-0.18435
-0.0056906
-0.431412
-0.0166574
-0.60714
-0.0334092
-0.723074
-0.0548848
-0.799891
-0.0798462
-0.855748
-0.1074
-0.904659
-0.137131
-0.954723
-0.169066
-1.00984
-1.0713
-0.20323
-0.00138918
-0.18296
-0.00792381
-0.424877
-0.0206921
-0.594372
-0.0392365
-0.70453
-0.06236
-0.776767
-0.0888248
-0.829283
-0.117799
-0.875685
-0.148942
-0.92358
-0.182401
-0.976384
-1.03539
-0.218315
-0.00212586
-0.180835
-0.010137
-0.416866
-0.0246513
-0.579858
-0.0449129
-0.684268
-0.0696065
-0.752074
-0.0975039
-0.801385
-0.127833
-0.845356
-0.160323
-0.89109
-0.195223
-0.941485
-0.997799
-0.232812
-0.00286223
-0.177972
-0.0123195
-0.407409
-0.0285198
-0.563657
-0.050422
-0.662366
-0.076609
-0.725887
-0.10587
-0.772125
-0.137491
-0.813735
-0.17126
-0.85732
-0.207483
-0.905261
-0.958539
-0.246743
-0.00359367
-0.174379
-0.0144611
-0.396542
-0.0322836
-0.545835
-0.055749
-0.6389
-0.0833537
-0.698282
-0.113911
-0.741568
-0.146765
-0.78088
-0.181743
-0.822342
-0.2188
-0.868205
-0.919311
-0.258028
-0.00431583
-0.170063
-0.0165521
-0.384305
-0.0359296
-0.526457
-0.0608803
-0.61395
-0.0898281
-0.669334
-0.121615
-0.709781
-0.155646
-0.746849
-0.191788
-0.7862
-0.230068
-0.829925
-0.878823
-0.270556
-0.00502459
-0.165038
-0.0185835
-0.370746
-0.0394457
-0.505595
-0.0658035
-0.587592
-0.0960206
-0.639117
-0.128973
-0.676829
-0.164123
-0.711699
-0.201375
-0.748947
-0.240805
-0.790495
-0.83707
-0.282558
-0.00571602
-0.159322
-0.0205466
-0.355916
-0.0428209
-0.483321
-0.0705075
-0.559905
-0.101921
-0.607703
-0.135974
-0.642777
-0.172185
-0.675487
-0.210495
-0.710638
-0.251008
-0.749982
-0.794141
-0.293938
-0.00638638
-0.152936
-0.0224334
-0.339869
-0.046045
-0.459709
-0.074982
-0.530969
-0.10752
-0.575165
-0.142609
-0.607687
-0.179824
-0.638272
-0.219139
-0.671324
-0.260686
-0.708434
-0.750114
-0.304713
-0.00703214
-0.145904
-0.0242365
-0.322665
-0.0491087
-0.434837
-0.0792179
-0.500859
-0.112809
-0.541574
-0.148872
-0.571624
-0.187033
-0.600111
-0.227299
-0.631058
-0.26983
-0.665903
-0.705052
-0.314892
-0.00764998
-0.138254
-0.0259491
-0.304365
-0.0520035
-0.408782
-0.0832066
-0.469656
-0.11778
-0.507001
-0.154754
-0.534649
-0.193805
-0.561061
-0.234969
-0.589893
-0.278431
-0.622441
-0.659013
-0.324471
-0.00823679
-0.130017
-0.0275647
-0.285037
-0.0547217
-0.381625
-0.0869406
-0.437437
-0.122426
-0.471516
-0.160249
-0.496826
-0.20013
-0.52118
-0.242139
-0.547885
-0.286479
-0.5781
-0.612052
-0.33344
-0.00878965
-0.121227
-0.0290777
-0.264749
-0.0572563
-0.353447
-0.0904128
-0.404281
-0.12674
-0.435188
-0.165349
-0.458217
-0.206003
-0.480525
-0.2488
-0.505088
-0.293963
-0.532937
-0.564228
-0.341787
-0.00930589
-0.111921
-0.0304826
-0.243573
-0.059601
-0.324328
-0.093617
-0.370265
-0.130716
-0.398089
-0.170048
-0.418886
-0.211416
-0.439157
-0.254943
-0.461561
-0.300871
-0.487009
-0.5156
-0.3495
-0.00978304
-0.102138
-0.0317747
-0.221581
-0.0617499
-0.294353
-0.0965475
-0.335467
-0.134349
-0.360287
-0.174341
-0.378894
-0.216362
-0.397136
-0.26056
-0.417364
-0.307193
-0.440376
-0.466228
-0.356564
-0.0102189
-0.0919195
-0.0329496
-0.19885
-0.0636981
-0.263605
-0.0991992
-0.299966
-0.137634
-0.321852
-0.178221
-0.338307
-0.220834
-0.354522
-0.265642
-0.372556
-0.312917
-0.393101
-0.416179
-0.362966
-0.0106114
-0.0813081
-0.0340035
-0.175458
-0.0654409
-0.232167
-0.101568
-0.263839
-0.140565
-0.282855
-0.181683
-0.297189
-0.224827
-0.311379
-0.270181
-0.327202
-0.318032
-0.34525
-0.36552
-0.368692
-0.0109587
-0.0703494
-0.034933
-0.151484
-0.0669745
-0.200126
-0.103649
-0.227165
-0.143139
-0.243364
-0.184724
-0.255604
-0.228333
-0.26777
-0.274169
-0.281366
-0.32253
-0.296889
-0.314321
-0.373729
-0.0112594
-0.0590901
-0.0357352
-0.127008
-0.0682952
-0.167566
-0.105439
-0.190022
-0.145352
-0.203451
-0.187338
-0.213619
-0.231348
-0.223759
-0.277601
-0.235114
-0.326402
-0.248087
-0.262656
-0.378068
-0.0115119
-0.0475781
-0.0364074
-0.102113
-0.0694003
-0.134573
-0.106935
-0.152487
-0.147201
-0.163184
-0.189522
-0.171298
-0.233868
-0.179413
-0.28047
-0.188512
-0.32964
-0.198917
-0.210599
-0.381697
-0.0117154
-0.0358628
-0.0369477
-0.0768802
-0.0702873
-0.101233
-0.108135
-0.114639
-0.148684
-0.122636
-0.191273
-0.128709
-0.235889
-0.134796
-0.282771
-0.141631
-0.332239
-0.149449
-0.158227
-0.384611
-0.0118687
-0.023994
-0.0373544
-0.0513945
-0.0709542
-0.0676336
-0.109037
-0.0765567
-0.149797
-0.0818748
-0.192588
-0.0859183
-0.237407
-0.0899772
-0.2845
-0.0945381
-0.334192
-0.0997573
-0.105617
-0.386801
-0.0119713
-0.0120227
-0.0376262
-0.0257396
-0.0713996
-0.0338602
-0.109639
-0.0383175
-0.150541
-0.0409728
-0.193466
-0.0429929
-0.238421
-0.0450225
-0.285655
-0.0473043
-0.335496
-0.0499161
-0.0528482
-0.388265
-0.0120227
7.32083e-11
-0.0377623
1.75752e-10
-0.0716225
2.35012e-10
-0.10994
2.59579e-10
-0.150913
2.63493e-10
-0.193906
2.58697e-10
-0.238928
2.51198e-10
-0.286232
2.41284e-10
-0.336149
2.31189e-10
2.18015e-10
-0.388997
-0.0120227
0.0120227
-0.0377623
0.0257396
-0.0716225
0.0338602
-0.10994
0.0383175
-0.150913
0.0409728
-0.193906
0.0429929
-0.238928
0.0450225
-0.286232
0.0473043
-0.336149
0.0499161
0.0528482
-0.388997
-0.0119713
0.023994
-0.0376262
0.0513945
-0.0713996
0.0676336
-0.109639
0.0765567
-0.150541
0.0818748
-0.193466
0.0859183
-0.238421
0.0899772
-0.285655
0.0945381
-0.335496
0.0997573
0.105617
-0.388265
-0.0118687
0.0358628
-0.0373544
0.0768802
-0.0709542
0.101233
-0.109037
0.114639
-0.149797
0.122636
-0.192588
0.128709
-0.237407
0.134796
-0.2845
0.141631
-0.334192
0.149449
0.158227
-0.386801
-0.0117154
0.0475781
-0.0369477
0.102113
-0.0702873
0.134573
-0.108135
0.152487
-0.148684
0.163184
-0.191273
0.171298
-0.235889
0.179413
-0.282771
0.188512
-0.332239
0.198917
0.210599
-0.384611
-0.0115119
0.0590901
-0.0364074
0.127008
-0.0694003
0.167566
-0.106935
0.190022
-0.147201
0.203451
-0.189522
0.213619
-0.233868
0.223759
-0.28047
0.235114
-0.32964
0.248087
0.262656
-0.381697
-0.0112594
0.0703494
-0.0357352
0.151484
-0.0682952
0.200126
-0.105439
0.227165
-0.145352
0.243364
-0.187338
0.255604
-0.231348
0.26777
-0.277601
0.281366
-0.326402
0.296889
0.314321
-0.378068
-0.0109587
0.0813081
-0.034933
0.175458
-0.0669745
0.232167
-0.103649
0.263839
-0.143139
0.282855
-0.184724
0.297189
-0.228333
0.311379
-0.274169
0.327202
-0.32253
0.34525
0.36552
-0.373729
-0.0106114
0.0919195
-0.0340035
0.19885
-0.0654409
0.263605
-0.101568
0.299966
-0.140565
0.321852
-0.181683
0.338307
-0.224827
0.354522
-0.270181
0.372556
-0.318032
0.393101
0.416179
-0.368692
-0.0102189
0.102138
-0.0329496
0.221581
-0.0636981
0.294353
-0.0991992
0.335467
-0.137634
0.360287
-0.178221
0.378894
-0.220834
0.397136
-0.265642
0.417364
-0.312917
0.440376
0.466228
-0.362966
-0.00978304
0.111921
-0.0317747
0.243573
-0.0617499
0.324328
-0.0965475
0.370265
-0.134349
0.398089
-0.174341
0.418886
-0.216362
0.439157
-0.26056
0.461561
-0.307193
0.487009
0.5156
-0.356564
-0.00930589
0.121227
-0.0304826
0.264749
-0.059601
0.353447
-0.093617
0.404281
-0.130716
0.435188
-0.170048
0.458217
-0.211416
0.480525
-0.254943
0.505088
-0.300871
0.532937
0.564228
-0.3495
-0.00878965
0.130017
-0.0290777
0.285037
-0.0572563
0.381625
-0.0904128
0.437437
-0.12674
0.471516
-0.165349
0.496826
-0.206003
0.52118
-0.2488
0.547885
-0.293963
0.5781
0.612052
-0.341787
-0.00823679
0.138254
-0.0275647
0.304365
-0.0547217
0.408782
-0.0869406
0.469656
-0.122426
0.507001
-0.160249
0.534649
-0.20013
0.561061
-0.242139
0.589893
-0.286479
0.622441
0.659013
-0.33344
-0.00764998
0.145904
-0.0259491
0.322665
-0.0520035
0.434837
-0.0832066
0.500859
-0.11778
0.541574
-0.154754
0.571624
-0.193805
0.600111
-0.234969
0.631058
-0.278431
0.665903
0.705052
-0.324471
-0.00703214
0.152936
-0.0242365
0.339869
-0.0491087
0.459709
-0.0792179
0.530969
-0.112809
0.575165
-0.148872
0.607687
-0.187033
0.638272
-0.227299
0.671324
-0.26983
0.708434
0.750114
-0.314892
-0.00638638
0.159322
-0.0224334
0.355916
-0.046045
0.483321
-0.074982
0.559906
-0.10752
0.607703
-0.142609
0.642777
-0.179824
0.675487
-0.219139
0.710638
-0.260686
0.749982
0.794141
-0.304713
-0.00571602
0.165038
-0.0205466
0.370746
-0.0428209
0.505595
-0.0705075
0.587592
-0.101921
0.639117
-0.135974
0.676829
-0.172185
0.711699
-0.210495
0.748947
-0.251008
0.790495
0.83707
-0.293938
-0.00502459
0.170063
-0.0185835
0.384305
-0.0394457
0.526457
-0.0658035
0.61395
-0.0960206
0.669334
-0.128973
0.709781
-0.164123
0.746849
-0.201375
0.7862
-0.240805
0.829925
0.878823
-0.282558
-0.00431583
0.174379
-0.0165521
0.396542
-0.0359296
0.545835
-0.0608803
0.6389
-0.0898281
0.698282
-0.121615
0.741568
-0.155646
0.78088
-0.191788
0.822342
-0.230068
0.868205
0.919311
-0.270556
-0.00359367
0.177972
-0.0144611
0.407409
-0.0322836
0.563657
-0.055749
0.662366
-0.0833537
0.725887
-0.113911
0.772125
-0.146765
0.813735
-0.181743
0.85732
-0.2188
0.905261
0.958539
-0.258028
-0.00286223
0.180835
-0.0123195
0.416866
-0.0285198
0.579858
-0.050422
0.684268
-0.076609
0.752074
-0.10587
0.801385
-0.137491
0.845356
-0.17126
0.89109
-0.207483
0.941485
0.997799
-0.246743
-0.00212586
0.18296
-0.010137
0.424877
-0.0246513
0.594372
-0.0449129
0.70453
-0.0696065
0.776767
-0.0975039
0.829283
-0.127833
0.875685
-0.160323
0.92358
-0.195223
0.976384
1.03539
-0.232812
-0.00138918
0.18435
-0.00792381
0.431412
-0.0206921
0.60714
-0.0392365
0.723074
-0.06236
0.799891
-0.0888248
0.855748
-0.117799
0.904659
-0.148942
0.954723
-0.182401
1.00984
1.0713
-0.218315
-0.000657875
0.185007
-0.0056906
0.436445
-0.0166574
0.618107
-0.0334092
0.739826
-0.0548848
0.821366
-0.0798462
0.880709
-0.1074
0.932213
-0.137131
0.984454
-0.169066
1.04178
1.10547
-0.20323
5.68956e-05
0.184951
-0.0034478
0.439949
-0.012563
0.627222
-0.0274487
0.754712
-0.0471979
0.841116
-0.0705834
0.904095
-0.096652
0.958281
-0.124906
1.01271
-0.155261
1.07213
1.13786
-0.187654
0.000793917
0.184157
-0.00120133
0.441945
-0.00842636
0.634447
-0.0213746
0.76766
-0.0393178
0.859059
-0.0610536
0.92583
-0.0855704
0.982798
-0.112286
1.03942
-0.141009
1.10086
1.16847
-0.171618
0.00148549
0.182671
0.00101156
0.442419
-0.00426485
0.639724
-0.0152078
0.778603
-0.0312653
0.875116
-0.0512755
0.94584
-0.0741738
1.0057
-0.0992898
1.06454
-0.126336
1.1279
1.19728
-0.155146
0.0021558
0.180515
0.00318875
0.441386
-5.43171e-05
0.642967
-0.00897093
0.787519
-0.0230635
0.889209
-0.0412702
0.964047
-0.0624824
1.02691
-0.0859412
1.088
-0.111269
1.15323
1.22427
-0.138264
0.00280164
0.177714
0.00533418
0.438853
0.00404649
0.644254
-0.00269266
0.794259
-0.0147372
0.901254
-0.0310611
0.980371
-0.0505183
1.04637
-0.0722636
1.10974
-0.0958347
1.1768
1.24944
-0.120995
0.00341752
0.174296
0.00742766
0.434843
0.00814826
0.643534
0.00360166
0.798805
-0.00631483
0.91117
-0.0206738
0.99473
-0.0383056
1.064
-0.0582816
1.12972
-0.0800588
1.19858
1.27274
-0.103363
0.00399916
0.170297
0.00945271
0.429389
0.0121888
0.640798
0.00988439
0.80111
0.00217421
0.91888
-0.010137
1.00704
-0.0258707
1.07973
-0.0440213
1.14787
-0.0639668
1.21852
1.29416
-0.0853901
0.00454263
0.165754
0.0113951
0.422537
0.0161429
0.63605
0.0161256
0.801127
0.0106972
0.924309
0.000505983
1.01723
-0.0132424
1.09348
-0.0295104
1.16414
-0.0475841
1.2366
1.31368
-0.0671014
0.00504433
0.16071
0.0132422
0.414339
0.0199858
0.629306
0.0222913
0.798821
0.0192196
0.92738
0.0112601
1.02519
-0.000460956
1.1052
-0.014781
1.17846
-0.0309354
1.25275
1.33127
-0.0485222
0.00550107
0.155209
0.0149814
0.404859
0.0236922
0.620596
0.0283464
0.794167
0.0277009
0.928026
0.0220493
1.03084
0.0124702
1.11478
6.09426e-05
1.19087
-0.0140402
1.26685
1.34691
-0.0296817
0.00591011
0.149299
0.0166008
0.394168
0.0272367
0.60996
0.0342542
0.78715
0.0360994
0.926181
0.0328443
1.0341
0.0254901
1.12213
0.0152359
1.20112
0.00308563
1.279
1.36062
-0.0106247
0.00626919
0.14303
0.0180892
0.382348
0.0305941
0.597455
0.0399765
0.777767
0.0443699
0.921787
0.0436
1.03487
0.0385582
1.12718
0.0304476
1.20923
0.0203009
1.28915
1.37223
0.00868454
0.00657658
0.136453
0.0194365
0.369488
0.0337395
0.583152
0.0454739
0.766033
0.0524639
0.914797
0.0542658
1.03307
0.0516291
1.12981
0.0457437
1.21512
0.0377078
1.29719
1.38172
0.0282217
0.00683112
0.129622
0.0206336
0.355686
0.036649
0.567136
0.0507061
0.751976
0.0603298
0.905174
0.0647874
1.02861
0.0646543
1.12995
0.0610823
1.21869
0.0552238
1.30304
1.38908
0.0478671
0.00703221
0.12259
0.021673
0.341045
0.0392998
0.54951
0.0556323
0.735643
0.0679136
0.892892
0.0751057
1.02142
0.0775778
1.12747
0.0764132
1.21985
0.0728044
1.30665
1.39426
0.0676171
0.00717987
0.11541
0.0225485
0.325676
0.0416712
0.530387
0.0602124
0.717102
0.0751585
0.877946
0.0851564
1.01142
0.0903371
1.12229
0.0916813
1.21851
0.0904035
1.30793
1.39723
0.0874382
0.00727475
0.108135
0.0232561
0.309695
0.0437444
0.509899
0.0644067
0.69644
0.082006
0.860347
0.0948704
0.998555
0.102863
1.1143
0.106825
1.21455
0.107969
1.30679
1.39791
0.107289
0.00731806
0.100817
0.0237934
0.293219
0.0455035
0.488189
0.0681775
0.673766
0.0883963
0.840128
0.104174
0.982777
0.115079
1.10339
0.121776
1.20785
0.125444
1.30312
1.39623
0.127121
0.00731164
0.0935055
0.02416
0.276371
0.0469359
0.465413
0.0714898
0.649212
0.0942695
0.817348
0.112989
0.964057
0.126902
1.08948
0.136455
1.1983
0.142759
1.29681
1.39211
0.146879
0.00725784
0.0862477
0.0243578
0.259271
0.0480327
0.441738
0.0743121
0.622932
0.0995665
0.792094
0.121235
0.942389
0.138239
1.07248
0.150773
1.18576
0.15984
1.28775
1.38546
0.166497
0.00715952
0.0790882
0.0243905
0.24204
0.048789
0.417339
0.0766176
0.595104
0.104231
0.764481
0.128826
0.917793
0.148993
1.05231
0.164632
1.17013
0.176596
1.27578
1.37615
0.185901
0.00702001
0.0720682
0.0242641
0.224796
0.0492043
0.392399
0.0783852
0.565923
0.108209
0.734657
0.13568
0.890322
0.159057
1.02893
0.177921
1.15126
0.192928
1.26078
1.36408
0.205004
0.00684298
0.0652252
0.0239863
0.207653
0.0492827
0.367103
0.0796002
0.535605
0.111454
0.702803
0.141712
0.860064
0.168321
1.00233
0.190519
1.12906
0.208719
1.24257
1.34909
0.223706
0.0066324
0.0585928
0.0235666
0.190718
0.0490329
0.341636
0.0802554
0.504383
0.113927
0.669132
0.146842
0.82715
0.176669
0.972498
0.202293
1.10344
0.223839
1.22103
1.33104
0.241892
0.00639246
0.0522003
0.0230159
0.174095
0.0484679
0.316184
0.0803514
0.472499
0.115596
0.633887
0.150995
0.79175
0.183986
0.939507
0.213102
1.07432
0.238139
1.19599
1.30975
0.259429
0.00612741
0.0460729
0.0223466
0.157876
0.0476051
0.290926
0.0798974
0.440207
0.116442
0.597343
0.154108
0.754085
0.190157
0.903458
0.222795
1.04169
0.251455
1.16733
1.28504
0.276167
0.00584155
0.0402314
0.0215716
0.142146
0.0464653
0.266032
0.0789105
0.407762
0.116458
0.559795
0.156125
0.714418
0.195075
0.864508
0.231219
1.00554
0.263607
1.13494
1.2567
0.291938
0.00553904
0.0346923
0.0207047
0.12698
0.0450726
0.241664
0.0774161
0.375418
0.115649
0.521562
0.15701
0.673057
0.19864
0.822878
0.23822
0.965962
0.274403
1.09876
1.22455
0.306558
0.00522388
0.0294684
0.0197596
0.112444
0.0434533
0.217971
0.0754468
0.343425
0.114036
0.482973
0.156742
0.630351
0.200769
0.77885
0.243648
0.923084
0.283638
1.05877
1.18835
0.319834
0.00489977
0.0245687
0.0187499
0.0985944
0.0416353
0.195085
0.0730414
0.312019
0.111651
0.444363
0.155319
0.586684
0.2014
0.732769
0.247367
0.877116
0.291103
1.01504
1.14789
0.331568
0.00457003
0.0199986
0.0176886
0.0854758
0.0396471
0.173127
0.0702435
0.281422
0.108541
0.406065
0.152763
0.542461
0.200492
0.68504
0.249256
0.828353
0.29659
0.967702
1.1029
0.341574
0.00423757
0.0157611
0.016588
0.0731254
0.037517
0.152198
0.0671002
0.251839
0.104762
0.368403
0.149115
0.498108
0.198036
0.636119
0.249218
0.777171
0.299903
0.917017
1.05311
0.349699
0.00390482
0.0118562
0.0154591
0.0615711
0.0352725
0.132384
0.0636604
0.223451
0.10038
0.331684
0.144435
0.454053
0.194051
0.586503
0.247186
0.724035
0.300864
0.863339
0.998123
0.355849
0.00357376
0.00828249
0.0143117
0.0508332
0.0329393
0.113757
0.0599733
0.196417
0.0954678
0.296189
0.138804
0.410717
0.188587
0.53672
0.24312
0.669503
0.299337
0.807121
0.937431
0.360029
0.00324583
0.00503665
0.0131544
0.0409246
0.0305411
0.09637
0.056087
0.170871
0.0901024
0.262174
0.132317
0.368503
0.181726
0.487312
0.237005
0.614223
0.295251
0.748875
0.870318
0.362364
0.0029221
0.00211455
0.0119943
0.0318524
0.0280994
0.0802649
0.0520477
0.146923
0.0843622
0.22986
0.125081
0.327784
0.173577
0.438815
0.228849
0.558951
0.288334
0.68939
0.79585
0.362802
0.00260321
-0.000488654
0.0108373
0.0236184
0.0256332
0.0654689
0.0478983
0.124658
0.0783257
0.199432
0.117215
0.288895
0.164288
0.391743
0.21878
0.504459
0.278444
0.629726
0.733943
0.340351
0.00228952
-0.00277817
0.00968828
0.0162196
0.0231594
0.0519978
0.0436787
0.104139
0.0720694
0.171041
0.108845
0.252119
0.154038
0.34655
0.207052
0.451444
0.266709
0.57007
0.672419
0.328233
0.0019812
-0.00475938
0.00855138
0.00964945
0.0206926
0.0398566
0.0394253
0.0854062
0.0656659
0.144801
0.100097
0.217687
0.143026
0.303621
0.194065
0.400406
0.253027
0.511108
0.610652
0.314794
0.00167835
-0.00643772
0.00743011
0.00389769
0.0182461
0.0290406
0.0351713
0.068481
0.059183
0.120789
0.0910913
0.185779
0.131435
0.263277
0.180067
0.351774
0.237533
0.453642
0.549128
0.299057
0.00138106
-0.00781879
0.00632782
-0.00104906
0.0158321
0.0195362
0.0309471
0.053366
0.0526838
0.0990524
0.0819411
0.156522
0.119439
0.22578
0.165279
0.305934
0.220504
0.398416
0.48859
0.281042
0.00108963
-0.00890841
0.00524796
-0.00520739
0.0134624
0.0113218
0.0267814
0.040047
0.0462267
0.079607
0.0727529
0.129996
0.10721
0.191323
0.149935
0.263208
0.202278
0.346074
0.429872
0.260996
0.000804556
-0.00971297
0.00419436
-0.0085972
0.0111486
0.00436755
0.0227017
0.0284939
0.0398672
0.0624415
0.063627
0.106236
0.0949149
0.160035
0.134276
0.223847
0.183207
0.297143
0.373788
0.239291
0.00052671
-0.0102397
0.00317149
-0.011242
0.00890332
-0.00136428
0.0187351
0.0186622
0.0336584
0.0475181
0.0546583
0.0852358
0.0827126
0.13198
0.118535
0.188025
0.163645
0.252033
0.321048
0.216384
0.000257478
-0.0104972
0.00218462
-0.0131691
0.0067397
-0.00591936
0.0149093
0.0104926
0.0276522
0.0347753
0.0459378
0.0669502
0.0707546
0.107164
0.102939
0.155841
0.143943
0.211029
0.27222
0.192772