/*--------------------------------*- C++ -*----------------------------------*\
  =========                 |
  \\      /  F ield         | OpenFOAM: The Open Source CFD Toolbox
   \\    /   O peration     | Website:  https://openfoam.org
    \\  /    A nd           | Version:  9
     \\/     M anipulation  |
\*---------------------------------------------------------------------------*/
FoamFile
{
    format      ascii;
    class       volScalarField;
    location    "15.2";
    object      p;
}
// * * * * * * * * * * * * * * * * * * * * * * * * * * * * * * * * * * * * * //

dimensions      [0 2 -2 0 0 0 0];

internalField   nonuniform List<scalar> 
8500
(
-0.312408
-0.316897
-0.317944
-0.320108
-0.322863
-0.323986
-0.329166
-0.327158
-0.336188
-0.331917
-0.312699
-0.317116
-0.318158
-0.320286
-0.323076
-0.324074
-0.329473
-0.327034
-0.336581
-0.331656
-0.313272
-0.317548
-0.318576
-0.320631
-0.323489
-0.324235
-0.330069
-0.326767
-0.337345
-0.331145
-0.31411
-0.318178
-0.319183
-0.321123
-0.32408
-0.324441
-0.330921
-0.326327
-0.338438
-0.330403
-0.315188
-0.318987
-0.319954
-0.321732
-0.324813
-0.324659
-0.331976
-0.32568
-0.339801
-0.329448
-0.316479
-0.319953
-0.320861
-0.322426
-0.325644
-0.324855
-0.333163
-0.324802
-0.341363
-0.328276
-0.317949
-0.321049
-0.321874
-0.323168
-0.326519
-0.325004
-0.334391
-0.323675
-0.343058
-0.326856
-0.319566
-0.32225
-0.322957
-0.323926
-0.32738
-0.325094
-0.335568
-0.322305
-0.344774
-0.325334
-0.321298
-0.323531
-0.32408
-0.324674
-0.328167
-0.325125
-0.336589
-0.320851
-0.346154
-0.323736
-0.323119
-0.324873
-0.325213
-0.325391
-0.328823
-0.325121
-0.337183
-0.319465
-0.347337
-0.321766
-0.325006
-0.326258
-0.32633
-0.326063
-0.329292
-0.325229
-0.337327
-0.318004
-0.348232
-0.319684
-0.326945
-0.327675
-0.327414
-0.326688
-0.329461
-0.325422
-0.337079
-0.316627
-0.348434
-0.318032
-0.328932
-0.329122
-0.328457
-0.327318
-0.329391
-0.32558
-0.336389
-0.315678
-0.347341
-0.317363
-0.33097
-0.3306
-0.329447
-0.327896
-0.329168
-0.325695
-0.335204
-0.315325
-0.344535
-0.317643
-0.333077
-0.332117
-0.33042
-0.328409
-0.32883
-0.325751
-0.333594
-0.315484
-0.340015
-0.317923
-0.335281
-0.333683
-0.331412
-0.328884
-0.328432
-0.32557
-0.331695
-0.315761
-0.334331
-0.317013
-0.33762
-0.335326
-0.332453
-0.329357
-0.328059
-0.325112
-0.329589
-0.315744
-0.328137
-0.314364
-0.340139
-0.33708
-0.333583
-0.329869
-0.327771
-0.3244
-0.327237
-0.315214
-0.321658
-0.310024
-0.34289
-0.338981
-0.334848
-0.330452
-0.327566
-0.323542
-0.32455
-0.314061
-0.31479
-0.304449
-0.345935
-0.341071
-0.336302
-0.331135
-0.327396
-0.322644
-0.321514
-0.312113
-0.307564
-0.298367
-0.349331
-0.343403
-0.337995
-0.331911
-0.327234
-0.321726
-0.318202
-0.309156
-0.300587
-0.292194
-0.353121
-0.346048
-0.339962
-0.33276
-0.327115
-0.32071
-0.31468
-0.30519
-0.29419
-0.284928
-0.357384
-0.349055
-0.342202
-0.333695
-0.32709
-0.319467
-0.310962
-0.3005
-0.287717
-0.277525
-0.362181
-0.35249
-0.344671
-0.334802
-0.327142
-0.317888
-0.307029
-0.295232
-0.281212
-0.270153
-0.367574
-0.356401
-0.347315
-0.336212
-0.32717
-0.315917
-0.302836
-0.289584
-0.274587
-0.262747
-0.373632
-0.360793
-0.350143
-0.337988
-0.327048
-0.313529
-0.298364
-0.283645
-0.267832
-0.255365
-0.380427
-0.365611
-0.35328
-0.340036
-0.326675
-0.310722
-0.293601
-0.277476
-0.260954
-0.247931
-0.38803
-0.370754
-0.356935
-0.342142
-0.325973
-0.307503
-0.288541
-0.271099
-0.253943
-0.240442
-0.39648
-0.376117
-0.361289
-0.344091
-0.324874
-0.303877
-0.283181
-0.264518
-0.246795
-0.232855
-0.405744
-0.381645
-0.36637
-0.345736
-0.323307
-0.299839
-0.277512
-0.257722
-0.239492
-0.225147
-0.415699
-0.387359
-0.371975
-0.346983
-0.321211
-0.295372
-0.271518
-0.250694
-0.232016
-0.217291
-0.426105
-0.393342
-0.377699
-0.347757
-0.318536
-0.290448
-0.265179
-0.243414
-0.224341
-0.209263
-0.436627
-0.399695
-0.383046
-0.347967
-0.315241
-0.285031
-0.258468
-0.235858
-0.216446
-0.201039
-0.446945
-0.406476
-0.38756
-0.347498
-0.311287
-0.279087
-0.251353
-0.227998
-0.208306
-0.1926
-0.456755
-0.413642
-0.390898
-0.346218
-0.306634
-0.27258
-0.243802
-0.219806
-0.199899
-0.183926
-0.465805
-0.421009
-0.392849
-0.343989
-0.301238
-0.265481
-0.235784
-0.211254
-0.191203
-0.174999
-0.473895
-0.428236
-0.393322
-0.340689
-0.295047
-0.257755
-0.227269
-0.202316
-0.182198
-0.165803
-0.480868
-0.434855
-0.392311
-0.33622
-0.288008
-0.249371
-0.218228
-0.192969
-0.172864
-0.156331
-0.4866
-0.440333
-0.389845
-0.330516
-0.280068
-0.240295
-0.208636
-0.183193
-0.163184
-0.146592
-0.490982
-0.444202
-0.385896
-0.323532
-0.27118
-0.230493
-0.198471
-0.172969
-0.153147
-0.136608
-0.493917
-0.446131
-0.380343
-0.315222
-0.261303
-0.219937
-0.187714
-0.162279
-0.142738
-0.126396
-0.495295
-0.445846
-0.373094
-0.305543
-0.2504
-0.208603
-0.176349
-0.151109
-0.131949
-0.115922
-0.494985
-0.443152
-0.364092
-0.294457
-0.238446
-0.196471
-0.164361
-0.139446
-0.120792
-0.105119
-0.492827
-0.437918
-0.35329
-0.281942
-0.22542
-0.183526
-0.151738
-0.12728
-0.10931
-0.0939081
-0.488632
-0.430055
-0.340639
-0.267998
-0.21131
-0.169756
-0.138468
-0.114611
-0.0975425
-0.0822848
-0.48219
-0.419509
-0.326102
-0.252631
-0.196103
-0.155156
-0.124561
-0.101478
-0.0854564
-0.0704178
-0.473283
-0.406245
-0.30966
-0.235839
-0.179784
-0.139752
-0.110055
-0.0879706
-0.0729394
-0.0583556
-0.461699
-0.390248
-0.291303
-0.217619
-0.162369
-0.123606
-0.0950052
-0.0740613
-0.0600088
-0.0460963
-0.447245
-0.371518
-0.271025
-0.197991
-0.14395
-0.106763
-0.0793785
-0.0597569
-0.0467123
-0.0336438
-0.429762
-0.350076
-0.248813
-0.177045
-0.124662
-0.0891403
-0.063214
-0.0450699
-0.0330968
-0.0210133
-0.409134
-0.325985
-0.224673
-0.154939
-0.104438
-0.0707908
-0.0465514
-0.0300246
-0.0192041
-0.00823234
-0.385295
-0.299368
-0.198702
-0.131631
-0.0833315
-0.0517727
-0.0294343
-0.0146536
-0.00507451
0.00466161
-0.358238
-0.270378
-0.171089
-0.10705
-0.0614037
-0.0321517
-0.0119103
0.00100341
0.0092529
0.0176242
-0.328011
-0.239032
-0.141982
-0.081314
-0.0387218
-0.0119978
0.00596637
0.0169024
0.0237421
0.0306108
-0.29474
-0.205134
-0.11172
-0.0545646
-0.0153606
0.00861389
0.0241354
0.032998
0.0383622
0.0435777
-0.258593
-0.168974
-0.0802763
-0.0269511
0.008593
0.0296034
0.0425318
0.0492488
0.0530815
0.0564546
-0.219665
-0.130971
-0.0477115
0.00138043
0.0330385
0.0508856
0.0610904
0.0656212
0.0678449
0.0690681
-0.177959
-0.0917222
-0.0141578
0.0302875
0.0578648
0.0723706
0.0797493
0.0820819
0.0825404
0.0810809
-0.133942
-0.0513968
0.0202043
0.0596267
0.0829522
0.0939652
0.0984477
0.0985717
0.0969928
0.0922023
-0.0879776
-0.0101901
0.0551697
0.0892485
0.108175
0.115574
0.117118
0.11498
0.111038
0.10275
-0.0404467
0.0316592
0.0905185
0.118996
0.133402
0.1371
0.135674
0.131165
0.124622
0.114044
0.00824643
0.0738864
0.126021
0.148704
0.1585
0.158441
0.154021
0.147017
0.137949
0.125868
0.0576813
0.116209
0.161442
0.178204
0.183332
0.179494
0.172062
0.162502
0.151068
0.137737
0.107426
0.158335
0.196545
0.20732
0.207761
0.200148
0.189702
0.177575
0.163926
0.149471
0.15704
0.199964
0.23109
0.235876
0.231648
0.220293
0.206853
0.192189
0.176449
0.16089
0.206085
0.240795
0.264842
0.263696
0.254856
0.23982
0.223429
0.206287
0.188571
0.171896
0.254122
0.280529
0.297568
0.290604
0.277247
0.258619
0.239346
0.219806
0.200222
0.18241
0.300721
0.318872
0.329042
0.316427
0.298687
0.276583
0.254522
0.232683
0.211341
0.192373
0.345462
0.355547
0.359044
0.340998
0.319046
0.293611
0.268877
0.244855
0.221866
0.201734
0.387934
0.39029
0.387367
0.364156
0.338198
0.309603
0.282336
0.256261
0.23174
0.210452
0.427762
0.422847
0.413813
0.385745
0.356024
0.324464
0.294826
0.266842
0.240907
0.218488
0.464647
0.452929
0.438192
0.405619
0.372412
0.338107
0.306276
0.276541
0.249317
0.225808
0.498292
0.480279
0.460327
0.423643
0.387257
0.350451
0.316626
0.285307
0.256921
0.232381
0.528407
0.50468
0.48006
0.439694
0.400464
0.361421
0.325815
0.293091
0.263676
0.238182
0.55473
0.525947
0.497248
0.453661
0.411948
0.370951
0.333792
0.299849
0.269543
0.243188
0.577028
0.543918
0.511765
0.46545
0.421635
0.378984
0.340512
0.305543
0.274486
0.247382
0.595106
0.55846
0.523508
0.474979
0.429461
0.38547
0.345935
0.310138
0.278476
0.250751
0.608806
0.569463
0.53239
0.482184
0.435376
0.390369
0.350031
0.313608
0.28149
0.253284
0.618007
0.576844
0.538347
0.487015
0.439341
0.393653
0.352775
0.315934
0.283509
0.254975
0.622628
0.580548
0.541337
0.489439
0.44133
0.395299
0.35415
0.3171
0.284522
0.255821
0.622628
0.580548
0.541337
0.489439
0.44133
0.395299
0.35415
0.3171
0.284522
0.255821
0.618007
0.576844
0.538347
0.487015
0.439341
0.393653
0.352775
0.315934
0.283509
0.254975
0.608806
0.569463
0.53239
0.482184
0.435376
0.390369
0.350031
0.313608
0.28149
0.253284
0.595106
0.55846
0.523508
0.474979
0.429461
0.38547
0.345935
0.310138
0.278476
0.250751
0.577028
0.543918
0.511765
0.46545
0.421635
0.378984
0.340512
0.305543
0.274486
0.247382
0.55473
0.525947
0.497248
0.453661
0.411948
0.370951
0.333792
0.299849
0.269543
0.243188
0.528407
0.50468
0.48006
0.439694
0.400464
0.361421
0.325815
0.293091
0.263676
0.238182
0.498292
0.480279
0.460327
0.423643
0.387257
0.350451
0.316626
0.285307
0.256921
0.232381
0.464647
0.452929
0.438192
0.405619
0.372412
0.338107
0.306276
0.276541
0.249317
0.225808
0.427762
0.422847
0.413813
0.385745
0.356024
0.324464
0.294826
0.266842
0.240907
0.218488
0.387934
0.39029
0.387367
0.364156
0.338198
0.309603
0.282336
0.256261
0.23174
0.210452
0.345462
0.355547
0.359044
0.340998
0.319046
0.293611
0.268877
0.244855
0.221866
0.201734
0.300721
0.318872
0.329042
0.316427
0.298687
0.276583
0.254522
0.232683
0.211341
0.192373
0.254122
0.280529
0.297568
0.290604
0.277247
0.258619
0.239346
0.219806
0.200222
0.18241
0.206085
0.240795
0.264842
0.263696
0.254856
0.23982
0.223429
0.206287
0.188571
0.171896
0.15704
0.199964
0.23109
0.235876
0.231648
0.220293
0.206853
0.192189
0.176449
0.16089
0.107426
0.158335
0.196545
0.20732
0.207761
0.200148
0.189702
0.177575
0.163926
0.149471
0.0576813
0.116209
0.161442
0.178204
0.183332
0.179494
0.172062
0.162502
0.151068
0.137737
0.00824643
0.0738864
0.126021
0.148704
0.1585
0.158441
0.154021
0.147017
0.137949
0.125868
-0.0404467
0.0316592
0.0905185
0.118996
0.133402
0.1371
0.135674
0.131165
0.124622
0.114044
-0.0879776
-0.0101901
0.0551697
0.0892485
0.108175
0.115574
0.117118
0.11498
0.111038
0.10275
-0.133942
-0.0513968
0.0202043
0.0596267
0.0829522
0.0939652
0.0984477
0.0985717
0.0969928
0.0922023
-0.177959
-0.0917222
-0.0141578
0.0302875
0.0578648
0.0723706
0.0797493
0.0820819
0.0825404
0.0810809
-0.219665
-0.130971
-0.0477115
0.00138043
0.0330385
0.0508856
0.0610904
0.0656212
0.0678449
0.0690681
-0.258593
-0.168974
-0.0802763
-0.0269511
0.008593
0.0296034
0.0425318
0.0492488
0.0530815
0.0564546
-0.29474
-0.205134
-0.11172
-0.0545646
-0.0153606
0.00861389
0.0241354
0.032998
0.0383622
0.0435777
-0.328011
-0.239032
-0.141982
-0.081314
-0.0387218
-0.0119978
0.00596637
0.0169024
0.0237421
0.0306108
-0.358238
-0.270378
-0.171089
-0.10705
-0.0614037
-0.0321517
-0.0119103
0.00100341
0.0092529
0.0176242
-0.385295
-0.299368
-0.198702
-0.131631
-0.0833315
-0.0517727
-0.0294343
-0.0146536
-0.00507451
0.00466161
-0.409134
-0.325985
-0.224673
-0.154939
-0.104438
-0.0707908
-0.0465514
-0.0300246
-0.0192041
-0.00823234
-0.429762
-0.350076
-0.248813
-0.177045
-0.124662
-0.0891403
-0.063214
-0.0450699
-0.0330968
-0.0210133
-0.447245
-0.371518
-0.271025
-0.197991
-0.14395
-0.106763
-0.0793785
-0.0597569
-0.0467123
-0.0336438
-0.461699
-0.390248
-0.291303
-0.217619
-0.162369
-0.123606
-0.0950052
-0.0740613
-0.0600088
-0.0460963
-0.473283
-0.406245
-0.30966
-0.235839
-0.179784
-0.139752
-0.110055
-0.0879706
-0.0729394
-0.0583556
-0.48219
-0.419509
-0.326102
-0.252631
-0.196103
-0.155156
-0.124561
-0.101478
-0.0854564
-0.0704178
-0.488632
-0.430055
-0.340639
-0.267998
-0.21131
-0.169756
-0.138468
-0.114611
-0.0975425
-0.0822848
-0.492827
-0.437918
-0.35329
-0.281942
-0.22542
-0.183526
-0.151738
-0.12728
-0.10931
-0.0939081
-0.494985
-0.443152
-0.364092
-0.294457
-0.238446
-0.196471
-0.164361
-0.139446
-0.120792
-0.105119
-0.495295
-0.445846
-0.373094
-0.305543
-0.2504
-0.208603
-0.176348
-0.151109
-0.131949
-0.115922
-0.493917
-0.446131
-0.380343
-0.315222
-0.261303
-0.219937
-0.187714
-0.162279
-0.142738
-0.126396
-0.490982
-0.444202
-0.385896
-0.323532
-0.27118
-0.230493
-0.198471
-0.172969
-0.153147
-0.136608
-0.4866
-0.440333
-0.389845
-0.330516
-0.280068
-0.240295
-0.208636
-0.183193
-0.163184
-0.146592
-0.480868
-0.434855
-0.392311
-0.33622
-0.288008
-0.249371
-0.218228
-0.192969
-0.172864
-0.156331
-0.473895
-0.428236
-0.393322
-0.340689
-0.295047
-0.257755
-0.227269
-0.202316
-0.182198
-0.165803
-0.465805
-0.421009
-0.392849
-0.343989
-0.301238
-0.265481
-0.235784
-0.211254
-0.191203
-0.174999
-0.456755
-0.413642
-0.390898
-0.346218
-0.306634
-0.27258
-0.243802
-0.219806
-0.199899
-0.183926
-0.446945
-0.406476
-0.38756
-0.347498
-0.311287
-0.279087
-0.251353
-0.227998
-0.208306
-0.1926
-0.436627
-0.399695
-0.383046
-0.347967
-0.315241
-0.285031
-0.258468
-0.235858
-0.216446
-0.201039
-0.426105
-0.393342
-0.377699
-0.347757
-0.318536
-0.290448
-0.265179
-0.243414
-0.224341
-0.209263
-0.415699
-0.387359
-0.371975
-0.346983
-0.321211
-0.295372
-0.271518
-0.250694
-0.232016
-0.217291
-0.405744
-0.381645
-0.36637
-0.345736
-0.323307
-0.299839
-0.277512
-0.257722
-0.239492
-0.225147
-0.39648
-0.376117
-0.361289
-0.344091
-0.324874
-0.303877
-0.283181
-0.264518
-0.246795
-0.232855
-0.38803
-0.370754
-0.356935
-0.342142
-0.325973
-0.307503
-0.288541
-0.271099
-0.253943
-0.240442
-0.380427
-0.365611
-0.35328
-0.340036
-0.326675
-0.310722
-0.293601
-0.277476
-0.260954
-0.247931
-0.373632
-0.360793
-0.350143
-0.337988
-0.327048
-0.313529
-0.298364
-0.283645
-0.267832
-0.255365
-0.367574
-0.356401
-0.347315
-0.336212
-0.32717
-0.315917
-0.302836
-0.289584
-0.274587
-0.262747
-0.362181
-0.35249
-0.344671
-0.334802
-0.327142
-0.317888
-0.307029
-0.295232
-0.281212
-0.270153
-0.357384
-0.349055
-0.342202
-0.333695
-0.32709
-0.319467
-0.310962
-0.3005
-0.287717
-0.277525
-0.353121
-0.346048
-0.339962
-0.33276
-0.327115
-0.32071
-0.31468
-0.30519
-0.29419
-0.284928
-0.349331
-0.343403
-0.337995
-0.331911
-0.327234
-0.321726
-0.318202
-0.309156
-0.300587
-0.292194
-0.345935
-0.341071
-0.336302
-0.331135
-0.327396
-0.322644
-0.321514
-0.312113
-0.307564
-0.298367
-0.34289
-0.338981
-0.334848
-0.330452
-0.327566
-0.323542
-0.32455
-0.314061
-0.31479
-0.304449
-0.340139
-0.33708
-0.333583
-0.329869
-0.327771
-0.3244
-0.327237
-0.315214
-0.321658
-0.310024
-0.33762
-0.335326
-0.332453
-0.329357
-0.328059
-0.325112
-0.329589
-0.315744
-0.328137
-0.314364
-0.335281
-0.333683
-0.331412
-0.328884
-0.328432
-0.32557
-0.331695
-0.315761
-0.334331
-0.317013
-0.333077
-0.332117
-0.33042
-0.328409
-0.32883
-0.325751
-0.333594
-0.315484
-0.340015
-0.317923
-0.33097
-0.3306
-0.329447
-0.327896
-0.329168
-0.325695
-0.335204
-0.315325
-0.344535
-0.317643
-0.328932
-0.329122
-0.328457
-0.327318
-0.329391
-0.32558
-0.336389
-0.315678
-0.347341
-0.317363
-0.326945
-0.327675
-0.327414
-0.326688
-0.329461
-0.325421
-0.337079
-0.316627
-0.348434
-0.318032
-0.325006
-0.326258
-0.32633
-0.326063
-0.329292
-0.325229
-0.337327
-0.318004
-0.348232
-0.319684
-0.323119
-0.324873
-0.325213
-0.325391
-0.328823
-0.325121
-0.337183
-0.319465
-0.347337
-0.321766
-0.321298
-0.323531
-0.32408
-0.324674
-0.328167
-0.325125
-0.336589
-0.320851
-0.346154
-0.323736
-0.319566
-0.32225
-0.322957
-0.323926
-0.32738
-0.325094
-0.335568
-0.322305
-0.344774
-0.325334
-0.317949
-0.321049
-0.321874
-0.323168
-0.326519
-0.325004
-0.334391
-0.323675
-0.343058
-0.326856
-0.316479
-0.319953
-0.320861
-0.322426
-0.325644
-0.324855
-0.333163
-0.324802
-0.341363
-0.328276
-0.315188
-0.318987
-0.319954
-0.321732
-0.324813
-0.324659
-0.331976
-0.32568
-0.339801
-0.329448
-0.31411
-0.318178
-0.319183
-0.321123
-0.32408
-0.324441
-0.330921
-0.326327
-0.338438
-0.330403
-0.313272
-0.317548
-0.318576
-0.320631
-0.323489
-0.324235
-0.330069
-0.326767
-0.337345
-0.331145
-0.312699
-0.317116
-0.318158
-0.320286
-0.323076
-0.324074
-0.329473
-0.327034
-0.336581
-0.331656
-0.312408
-0.316897
-0.317944
-0.320108
-0.322863
-0.323986
-0.329166
-0.327158
-0.336188
-0.331917
-0.346177
-0.34621
-0.359604
-0.365666
-0.373182
-0.370284
-0.354791
-0.319641
-0.263436
-0.186484
-0.105785
-0.0385034
0.00372561
0.0254537
0.0319163
0.0307331
0.0260597
0.0205131
0.0152637
0.0108844
0.00756227
0.00515272
0.00337185
0.0020531
0.00116334
0.000723998
0.000559606
0.000561276
0.000392656
0.000291801
-0.346376
-0.346301
-0.359735
-0.365971
-0.373647
-0.371005
-0.355754
-0.320858
-0.264857
-0.187884
-0.10695
-0.039342
0.00313834
0.0250493
0.0316413
0.030543
0.0259316
0.0204271
0.015205
0.0108432
0.00753329
0.00513322
0.0033589
0.00204364
0.0011555
0.000717143
0.000554025
0.000557189
0.000390083
0.000290389
-0.346715
-0.346433
-0.359949
-0.3665
-0.374489
-0.372328
-0.357537
-0.323129
-0.26754
-0.190547
-0.109209
-0.041005
0.00196023
0.0242283
0.0310807
0.0301554
0.025671
0.0202526
0.0150865
0.0107601
0.00747514
0.00509409
0.00333292
0.00202479
0.00114003
0.000703702
0.00054308
0.000549143
0.000385013
0.000287577
-0.347086
-0.346521
-0.360159
-0.367116
-0.375543
-0.374026
-0.359902
-0.326184
-0.271191
-0.194283
-0.112389
-0.0434703
0.000185514
0.0229714
0.0302164
0.029558
0.0252699
0.0199848
0.0149056
0.0106343
0.0073875
0.00503508
0.00329377
0.00199671
0.00111736
0.000684183
0.000527185
0.000537374
0.000377589
0.000283388
-0.347385
-0.346465
-0.360266
-0.367656
-0.376601
-0.375856
-0.362538
-0.329675
-0.275515
-0.198754
-0.116393
-0.0466633
-0.00219076
0.0212579
0.0290291
0.0287371
0.0247193
0.0196186
0.0146598
0.0104649
0.00727003
0.00495595
0.00324128
0.00195958
0.00108804
0.000659268
0.0005069
0.000522214
0.000368013
0.000277859
-0.347439
-0.34622
-0.360145
-0.367989
-0.37746
-0.377567
-0.365161
-0.333317
-0.280103
-0.20372
-0.121054
-0.0505262
-0.0051503
0.0190759
0.027503
0.0276815
0.024012
0.0191493
0.0143466
0.010251
0.00712257
0.0048565
0.00317534
0.00191365
0.00105269
0.00062974
0.000482881
0.000504058
0.000356527
0.000271045
-0.347433
-0.345588
-0.359823
-0.367926
-0.377997
-0.378891
-0.367501
-0.33674
-0.284713
-0.208988
-0.126195
-0.0549849
-0.0086718
0.0164344
0.0256319
0.0263876
0.0231445
0.0185742
0.0139649
0.00999237
0.00694523
0.0047367
0.00309587
0.00185917
0.00101195
0.000596396
0.00045581
0.000483334
0.000343394
0.000263019
-0.346656
-0.345042
-0.358959
-0.3676
-0.37798
-0.379828
-0.369351
-0.339822
-0.2891
-0.214301
-0.131672
-0.0599502
-0.0127147
0.013347
0.0234262
0.0248587
0.0221177
0.0178937
0.0135146
0.00968959
0.00673852
0.0045968
0.00300295
0.0017964
0.000966389
0.000559983
0.000426345
0.000460472
0.000328885
0.000253876
-0.345743
-0.344153
-0.357834
-0.366777
-0.377454
-0.38006
-0.370593
-0.342329
-0.293073
-0.219502
-0.137347
-0.0653316
-0.0172227
0.00984819
0.0209051
0.0231055
0.0209377
0.0171108
0.0129977
0.00934394
0.00650343
0.00443732
0.0028968
0.00172561
0.000916501
0.000521135
0.000395072
0.00043588
0.000313258
0.000243727
-0.344356
-0.343119
-0.356351
-0.365512
-0.376339
-0.379648
-0.371147
-0.344153
-0.296493
-0.224445
-0.143099
-0.0710346
-0.0221289
0.00598358
0.0180973
0.021146
0.019615
0.0162314
0.0124175
0.00895753
0.00624136
0.00425909
0.00277783
0.00164708
0.000862658
0.000480349
0.000362477
0.000409925
0.000296752
0.000232705
-0.342378
-0.341919
-0.354515
-0.363816
-0.374666
-0.378534
-0.370951
-0.34522
-0.299241
-0.229017
-0.148822
-0.0769663
-0.0273601
0.00180683
0.0150383
0.0190025
0.018163
0.0152637
0.0117786
0.00853308
0.00595411
0.00406323
0.00264663
0.00156113
0.000805128
0.00043797
0.00032893
0.000382921
0.000279575
0.000220954
-0.339621
-0.340483
-0.352315
-0.361674
-0.372362
-0.376696
-0.369962
-0.345504
-0.301255
-0.233131
-0.154428
-0.0830386
-0.0328404
-0.00262439
0.0117675
0.0167001
0.0165972
0.0142169
0.0110863
0.0080738
0.0056437
0.00385107
0.00250393
0.00146809
0.000744087
0.000394205
0.000294688
0.000355122
0.000261903
0.000208629
-0.336107
-0.338653
-0.349724
-0.359041
-0.369534
-0.37414
-0.368177
-0.344966
-0.302523
-0.236719
-0.159844
-0.0891707
-0.0384962
-0.0072522
0.0083248
0.0142647
0.0149334
0.0131011
0.0103466
0.00758307
0.00531231
0.00362406
0.00235061
0.00136832
0.000679649
0.000349143
0.000259907
0.000326725
0.000243879
0.00019589
-0.332257
-0.336166
-0.346663
-0.355863
-0.365987
-0.370844
-0.365589
-0.343636
-0.30303
-0.239749
-0.165015
-0.0952916
-0.0442589
-0.0120217
0.00474914
0.0117241
0.0131865
0.0119259
0.00956517
0.00706433
0.00496212
0.00338373
0.00218761
0.00126224
0.000611892
0.00030279
0.00022466
0.000297874
0.000225613
0.000182895
-0.32818
-0.333051
-0.343036
-0.352093
-0.36189
-0.366821
-0.362237
-0.341553
-0.302853
-0.242197
-0.169896
-0.101341
-0.0500676
-0.016883
0.00107574
0.00909845
0.0113702
0.0107003
0.00874776
0.00652091
0.00459527
0.00313156
0.0020159
0.00115028
0.000540883
0.000255096
0.000188958
0.000268672
0.000207191
0.000169795
-0.323955
-0.329214
-0.338787
-0.347721
-0.357056
-0.362066
-0.358122
-0.338743
-0.302
-0.244135
-0.174457
-0.107268
-0.0558692
-0.0217936
-0.00266695
0.00640487
0.00949826
0.00943183
0.00789903
0.00595572
0.00421362
0.00286893
0.00183641
0.00103289
0.000466694
0.000205984
0.000152768
0.000239183
0.000188677
0.000156736
-0.319493
-0.324727
-0.333901
-0.342706
-0.351751
-0.356804
-0.353468
-0.335388
-0.300631
-0.245614
-0.178695
-0.113045
-0.0616338
-0.0267255
-0.00645396
0.00366489
0.00758729
0.00813041
0.00702408
0.0053715
0.00381891
0.00259716
0.00165015
0.000910607
0.000389462
0.000155383
0.000116032
0.000209434
0.000170111
0.000143844
-0.314672
-0.319751
-0.328574
-0.337295
-0.34574
-0.350724
-0.348031
-0.331365
-0.298735
-0.246719
-0.182614
-0.118627
-0.0672943
-0.0316127
-0.0102404
0.000896138
0.00563719
0.00680501
0.00613106
0.00477314
0.00341398
0.00231809
0.00145836
0.000784081
0.000309335
0.000103237
7.8694e-05
0.000179423
0.000151489
0.000131208
-0.309749
-0.314211
-0.322713
-0.331427
-0.340045
-0.345057
-0.342832
-0.327388
-0.296682
-0.247408
-0.186123
-0.123891
-0.0728013
-0.036481
-0.0140845
-0.0019471
0.0036092
0.00542159
0.00520688
0.00415645
0.00299727
0.00203065
0.0012599
0.000652449
0.000225894
4.94472e-05
4.07628e-05
0.000149203
0.000132807
0.000118926
-0.30499
-0.308279
-0.316069
-0.324565
-0.332436
-0.337363
-0.335973
-0.322311
-0.294235
-0.248474
-0.19025
-0.129893
-0.0789508
-0.0417589
-0.0181285
-0.00484627
0.00159221
0.0039985
0.00423212
0.00350261
0.00255738
0.00172901
0.00105257
0.000515329
0.000139373
-6.03491e-06
2.26667e-06
0.000119002
0.000114291
0.000107282
-0.299594
-0.303688
-0.311228
-0.319838
-0.32799
-0.332842
-0.331139
-0.317724
-0.290266
-0.245876
-0.189503
-0.130879
-0.0810256
-0.0442482
-0.0205018
-0.00686074
2.46006e-05
0.00286506
0.00343783
0.00294733
0.002168
0.00145998
0.000871765
0.00039577
6.03646e-05
-5.99113e-05
-3.51166e-05
9.05828e-05
9.76789e-05
9.74365e-05
-0.293644
-0.298339
-0.305715
-0.314188
-0.321608
-0.325677
-0.323595
-0.310173
-0.283383
-0.240776
-0.186921
-0.13081
-0.082632
-0.0466085
-0.0229155
-0.0089622
-0.0016481
0.00160423
0.00252485
0.00230757
0.00172743
0.00115704
0.000664836
0.000259091
-2.54672e-05
-0.000113968
-7.08451e-05
6.32986e-05
8.17766e-05
8.74262e-05
-0.287398
-0.292501
-0.2997
-0.308001
-0.314998
-0.318498
-0.315877
-0.302491
-0.276436
-0.235642
-0.184291
-0.130655
-0.0841555
-0.0489307
-0.0253421
-0.0111139
-0.00338973
0.000270767
0.0015484
0.00161796
0.00125007
0.000827318
0.00043837
0.000108971
-0.000119486
-0.000172206
-0.000108687
3.45491e-05
6.4967e-05
7.68304e-05
-0.280836
-0.286322
-0.293339
-0.30146
-0.308068
-0.311009
-0.307942
-0.294676
-0.26943
-0.230478
-0.181624
-0.130451
-0.0856401
-0.0512363
-0.0277781
-0.0132958
-0.00517011
-0.00109964
0.000540368
0.000902378
0.000752287
0.000482561
0.000201373
-4.85874e-05
-0.000218859
-0.000234153
-0.000148894
4.33488e-06
4.7378e-05
6.59844e-05
-0.27389
-0.279852
-0.286701
-0.294608
-0.300818
-0.303237
-0.299796
-0.286716
-0.262337
-0.225248
-0.178885
-0.130168
-0.0870636
-0.053513
-0.0302187
-0.0155054
-0.00698811
-0.00250811
-0.000501701
0.000158714
0.000232841
0.000122018
-4.67736e-05
-0.000214042
-0.000323812
-0.00029995
-0.000191564
-2.73826e-05
2.90146e-05
5.49194e-05
-0.266618
-0.273133
-0.279834
-0.287494
-0.293331
-0.295283
-0.29152
-0.278678
-0.255214
-0.219989
-0.17609
-0.129804
-0.0884152
-0.0557485
-0.0326541
-0.0177366
-0.00884148
-0.00395531
-0.00157976
-0.000615097
-0.000309987
-0.000255701
-0.000307172
-0.000388164
-0.000434785
-0.000369811
-0.000236803
-6.06672e-05
9.83235e-06
4.36398e-05
-0.259101
-0.266206
-0.272782
-0.280176
-0.285673
-0.287217
-0.283189
-0.270632
-0.248116
-0.214738
-0.173257
-0.129362
-0.0896888
-0.0579327
-0.0350743
-0.0199817
-0.0107252
-0.0054384
-0.00269238
-0.00141855
-0.000876209
-0.000650787
-0.000579997
-0.000571096
-0.000551916
-0.000443871
-0.000284718
-9.55743e-05
-1.0204e-05
3.2179e-05
-0.251395
-0.259099
-0.265582
-0.272703
-0.277892
-0.27909
-0.274858
-0.26263
-0.241086
-0.209522
-0.1704
-0.128844
-0.0908781
-0.0600563
-0.0374695
-0.0222325
-0.0126335
-0.00695365
-0.00383737
-0.00225054
-0.00146536
-0.00106307
-0.000865155
-0.000762796
-0.000675239
-0.000522223
-0.000335404
-0.000132145
-3.11182e-05
2.05791e-05
-0.243554
-0.251842
-0.258266
-0.265116
-0.270029
-0.270944
-0.266573
-0.254712
-0.234154
-0.204364
-0.167529
-0.12825
-0.0919779
-0.0621105
-0.0398305
-0.0244812
-0.0145606
-0.00849716
-0.00501239
-0.00310984
-0.00207691
-0.00149231
-0.00116253
-0.000963215
-0.000804767
-0.000604932
-0.00038893
-0.000170407
-5.29284e-05
8.88083e-06
-0.235629
-0.244465
-0.250863
-0.25745
-0.262117
-0.262814
-0.258368
-0.246908
-0.227344
-0.199278
-0.164654
-0.127583
-0.092984
-0.0640874
-0.0421481
-0.0267195
-0.0165002
-0.0100647
-0.00621484
-0.003995
-0.00271011
-0.00193817
-0.00147195
-0.00117225
-0.000940472
-0.000692025
-0.00044534
-0.000210373
-7.56468e-05
-2.87664e-06
-0.227671
-0.237001
-0.243405
-0.249743
-0.25419
-0.254729
-0.25027
-0.239243
-0.220674
-0.194279
-0.161781
-0.126845
-0.093893
-0.0659798
-0.0444136
-0.0289391
-0.0184457
-0.0116515
-0.00744166
-0.00490421
-0.00336397
-0.00240012
-0.00179309
-0.00138973
-0.00108226
-0.000783483
-0.000504649
-0.000252037
-9.9277e-05
-1.46547e-05
-0.219732
-0.229486
-0.235922
-0.24203
-0.246281
-0.246717
-0.242304
-0.231737
-0.214159
-0.189377
-0.15892
-0.12604
-0.0947026
-0.0677812
-0.0466185
-0.0311317
-0.02039
-0.0132526
-0.00868934
-0.00583525
-0.00403719
-0.00287741
-0.00212552
-0.00161537
-0.00122999
-0.000879234
-0.000566833
-0.000295371
-0.000123811
-2.64151e-05
-0.211861
-0.221957
-0.228447
-0.234348
-0.238424
-0.238803
-0.234493
-0.224408
-0.207812
-0.184584
-0.156076
-0.125171
-0.0954114
-0.0694859
-0.0487548
-0.0332887
-0.0223259
-0.014862
-0.00995387
-0.00678548
-0.00472812
-0.00336903
-0.00246861
-0.00184877
-0.0013834
-0.000979141
-0.000631826
-0.00034032
-0.000149227
-3.81204e-05
-0.204105
-0.214455
-0.221013
-0.226732
-0.23065
-0.231014
-0.226856
-0.217273
-0.201644
-0.179907
-0.153259
-0.124243
-0.0960192
-0.0710889
-0.0508149
-0.0354016
-0.0242454
-0.0164738
-0.0112307
-0.00775177
-0.0054347
-0.00387368
-0.00282153
-0.00208939
-0.00154216
-0.001083
-0.000699514
-0.000386797
-0.000175486
-4.97331e-05
-0.196509
-0.207018
-0.213652
-0.219217
-0.222994
-0.223375
-0.219413
-0.210348
-0.195667
-0.175356
-0.150475
-0.123261
-0.0965266
-0.0725864
-0.0527914
-0.0374617
-0.0261403
-0.0180809
-0.0125146
-0.00873044
-0.00615446
-0.00438973
-0.00318321
-0.00233654
-0.00170582
-0.00119051
-0.000769724
-0.000434681
-0.000202528
-6.12158e-05
-0.189111
-0.199688
-0.206401
-0.211839
-0.21549
-0.215914
-0.212185
-0.203648
-0.189892
-0.170942
-0.147734
-0.122233
-0.0969355
-0.073975
-0.0546776
-0.0394603
-0.028002
-0.019676
-0.0137998
-0.00971722
-0.00688441
-0.00491517
-0.00355233
-0.00258933
-0.0018738
-0.00130131
-0.000842218
-0.000483809
-0.00023027
-7.25303e-05
-0.181949
-0.192509
-0.199294
-0.204631
-0.208174
-0.20866
-0.205192
-0.197191
-0.184332
-0.166673
-0.145045
-0.121166
-0.0972492
-0.0752527
-0.0564672
-0.041389
-0.0298216
-0.0212511
-0.0150799
-0.0107072
-0.00762101
-0.00544756
-0.00392724
-0.00284664
-0.00204535
-0.00141488
-0.000916683
-0.000533973
-0.000258603
-8.36367e-05
-0.175059
-0.185523
-0.192372
-0.197631
-0.201082
-0.201643
-0.198456
-0.190993
-0.178999
-0.162562
-0.142418
-0.120069
-0.0974719
-0.0764183
-0.0581545
-0.0432391
-0.0315896
-0.0227976
-0.0163475
-0.0116947
-0.00836012
-0.00598397
-0.00430592
-0.00310712
-0.00221957
-0.00153061
-0.00099272
-0.000584911
-0.000287384
-9.4493e-05
-0.168474
-0.178776
-0.185672
-0.190874
-0.194252
-0.194897
-0.192
-0.185071
-0.173908
-0.158622
-0.139866
-0.118953
-0.0976094
-0.0774717
-0.0597345
-0.0450025
-0.0332963
-0.024306
-0.0175947
-0.0126735
-0.00909695
-0.00652095
-0.00468599
-0.00336911
-0.00239533
-0.00164773
-0.00106983
-0.000636304
-0.000316438
-0.000105054
-0.162226
-0.172311
-0.179237
-0.184397
-0.187721
-0.188455
-0.185851
-0.179446
-0.169075
-0.154865
-0.137401
-0.117827
-0.0976687
-0.0784139
-0.0612025
-0.0466709
-0.034932
-0.0257666
-0.0188127
-0.0136362
-0.00982597
-0.00705447
-0.0050646
-0.00363066
-0.00257129
-0.00176535
-0.00114742
-0.000687765
-0.000345548
-0.000115269
-0.156348
-0.166172
-0.173107
-0.17824
-0.181528
-0.182353
-0.180036
-0.174139
-0.164517
-0.151308
-0.135039
-0.116707
-0.0976582
-0.0792473
-0.0625548
-0.0482366
-0.0364862
-0.0271687
-0.019992
-0.014575
-0.0105409
-0.00757984
-0.00543842
-0.00388945
-0.00274587
-0.00188235
-0.00122476
-0.000738833
-0.000374456
-0.000125082
-0.150869
-0.160401
-0.167327
-0.172441
-0.175712
-0.176629
-0.174588
-0.169173
-0.160254
-0.147969
-0.132795
-0.115605
-0.0975877
-0.079975
-0.0637879
-0.0496917
-0.0379484
-0.028501
-0.0211219
-0.0154807
-0.0112346
-0.00809168
-0.00580358
-0.00414275
-0.00291719
-0.00199745
-0.00130098
-0.000788966
-0.000402854
-0.000134429
-0.145822
-0.155043
-0.161941
-0.167045
-0.170312
-0.17132
-0.169538
-0.164575
-0.156306
-0.144867
-0.130687
-0.114538
-0.0974684
-0.0806012
-0.0648992
-0.0510285