/*--------------------------------*- C++ -*----------------------------------*\
  =========                 |
  \\      /  F ield         | OpenFOAM: The Open Source CFD Toolbox
   \\    /   O peration     | Website:  https://openfoam.org
    \\  /    A nd           | Version:  7
     \\/     M anipulation  |
\*---------------------------------------------------------------------------*/
FoamFile
{
    version     2.0;
    format      ascii;
    class       volScalarField;
    location    "2.4";
    object      T;
}
// * * * * * * * * * * * * * * * * * * * * * * * * * * * * * * * * * * * * * //

dimensions      [0 0 0 1 0 0 0];

internalField   nonuniform List<scalar> 
1575
(
1
1
1
1
1
1
1
1.84823
2.66371
2.73185
2.76184
2.79395
2.81988
2.83757
2.84846
1
1
1
1
1
1
1
1.81284
2.64863
2.72688
2.75671
2.78701
2.81034
2.82369
2.83331
1
1
1
1
1
1
1
1.71715
2.61455
2.71462
2.74806
2.7798
2.80148
2.80806
2.80767
1
1
1
1
1
1
1
1.55108
2.54305
2.69162
2.7308
2.76113
2.77597
2.77382
2.77395
1
1
1
1
1
1
1
1.29063
2.42398
2.66045
2.70091
2.73367
2.75372
2.76021
2.78552
1
1
1
1
1
1
1
1.02673
2.28156
2.63781
2.6619
2.68848
2.69972
2.66984
2.58837
1
1
1
1
1
1
1
1.00015
2.07799
2.57643
2.62484
2.63605
2.62727
2.58996
2.46761
1
1
1
1
1
1
1
0.999998
1.70309
2.46724
2.59109
2.5887
2.56621
2.52003
2.37556
1
1
1
1
1
1
1
1
1.17981
2.28681
2.55788
2.53444
2.5062
2.45283
2.32909
1
1
1
1
1
1
1
1
1.00875
2.09002
2.48175
2.46045
2.44274
2.39294
2.30183
1
1
1
1
1
1
1
1
0.999981
1.60036
2.33542
2.43494
2.40373
2.35465
2.28063
1
1
1
1
1
1
1
1
0.999993
1.09503
2.09694
2.39763
2.36289
2.31964
2.25727
1
1
1
1
1
1
1
1
0.999999
1.00183
1.63151
2.25224
2.31893
2.28016
2.2304
1
1
1
1
1
1
1
1
1
1
1.11856
2.00219
2.28481
2.24458
2.20799
1
1
1
1
1
1
1
1
1
1
1.00303
1.47523
2.09001
2.21918
2.18006
1
1
1
1
1
1
1
1
1
1
1.00001
1.06456
1.78859
2.16971
2.14938
1
1
1
1
1
1
1
1
1
1
1
1.00109
1.26199
1.94236
2.11921
1
1
1
1
1
1
1
1
1
1
1
1
1.01685
1.50167
1.96884
1
1
1
1
1
1
1
1
1
1
1
1
1.00017
1.08034
1.66311
1
1
1
1
1
1
1
1
1
1
1
1
1
1.00193
1.19144
1
1
1
1
1
1
1
1
1
1
1
1
1
1.00001
1.00981
1
1
1
1
1
1
1
1
1
1
1
1
1
1
1.0001
1
1
1
1
1
1
1
1
1
1
1
1
1
1
1
1
1
1
1
1
1
1
1
1
1
1
1
1
1
1
1
1
1
1
1
1
1
1
1
1
1
1
1
1
1
1.81861
1.32814
1.20649
1.28612
1.35425
1.45111
1.55942
1.62811
1.6574
1.68734
1.73521
1.76022
1.75372
1.74957
1.74514
1.74541
1.74377
1.73964
1.73192
1.7172
1.69825
1.70289
1.77081
2.07286
2.6075
2.73729
2.68641
2.62771
2.58679
2.56579
2.53172
2.49595
2.46066
2.42794
2.39997
2.37853
2.36193
2.34793
2.33409
2.31829
2.29943
2.27798
2.25551
2.23404
2.21593
2.2024
2.1911
2.17953
2.16734
2.15408
2.13735
2.11218
2.08108
2.06078
2.0485
2.03743
2.02817
2.01858
2.00861
1.98737
2.06008
1.77357
1.57745
1.53009
1.49386
1.48206
1.46967
1.44515
1.46191
1.49812
1.54187
1.58556
1.61811
1.6373
1.65055
1.66321
1.67054
1.6763
1.67393
1.66332
1.66857
1.72548
1.92717
2.07397
2.29509
2.50755
2.56823
2.54497
2.52489
2.51003
2.48527
2.46006
2.43377
2.40621
2.38034
2.35833
2.34067
2.32681
2.31448
2.30109
2.28506
2.26596
2.24475
2.22344
2.20425
2.18883
2.17674
2.16542
2.1537
2.1414
2.12709
2.1077
2.08106
2.0554
2.03853
2.02607
2.01528
2.00621
1.99823
1.97927
2.11773
1.93617
1.78435
1.66795
1.57668
1.4953
1.44482
1.39913
1.37966
1.39967
1.43222
1.45828
1.48581
1.50525
1.52433
1.54555
1.56408
1.58422
1.58975
1.60057
1.67662
1.85034
2.04486
2.04256
2.05048
2.17287
2.35887
2.42534
2.45121
2.4379
2.42133
2.40093
2.37715
2.35407
2.32999
2.30587
2.28495
2.27037
2.25993
2.25015
2.23844
2.22333
2.20463
2.18447
2.16618
2.15093
2.13746
2.12446
2.11155
2.09967
2.08894
2.0776
2.0616
2.03893
2.0165
2.00032
1.98822
1.97718
1.96665
1.94618
2.16155
2.01119
1.88934
1.78211
1.68501
1.59716
1.53673
1.48712
1.43314
1.41505
1.40285
1.39335
1.397
1.40695
1.42633
1.44828
1.47101
1.48656
1.51083
1.57542
1.79818
1.97526
2.04432
2.03419
2.01092
1.99686
2.07068
2.20522
2.28788
2.32236
2.34336
2.32758
2.30415
2.28172
2.25919
2.23657
2.21492
2.19922
2.18933
2.18135
2.17246
2.1608
2.14499
2.12585
2.10792
2.09385
2.08168
2.06935
2.05604
2.04284
2.03139
2.02175
2.01126
1.99624
1.97635
1.95738
1.9429
1.93007
1.91856
1.9001
2.18515
2.06392
1.95682
1.86524
1.76753
1.68568
1.62549
1.57138
1.51564
1.47055
1.43158
1.39584
1.37536
1.37898
1.3839
1.39138
1.4085
1.43324
1.49984
1.70992
1.91808
2.00827
2.00808
1.99506
1.98063
1.96161
1.93674
1.97387
2.07675
2.17341
2.23089
2.24095
2.23964
2.22876
2.2113
2.18643
2.16035
2.13906
2.12507
2.11611
2.1079
2.09759
2.08349
2.06555
2.04759
2.03292
2.02049
2.00872
1.99656
1.98447
1.97294
1.9621
1.95139
1.9386
1.92147
1.90238
1.88653
1.87341
1.86442
1.85079
2.19169
2.09851
2.00397
1.91944
1.83735
1.76021
1.69915
1.64041
1.58244
1.53974
1.49746
1.46015
1.41863
1.40659
1.39061
1.38497
1.38899
1.44407
1.64793
1.86455
1.92564
1.94934
1.94353
1.93418
1.92764
1.915
1.89253
1.87365
1.89242
1.95959
2.05623
2.12833
2.14833
2.16509
2.16584
2.1483
2.11869
2.09463
2.07556
2.06249
2.05242
2.0412
2.02727
2.01111
1.99509
1.98061
1.96726
1.95503
1.94334
1.93174
1.92
1.90822
1.89645
1.88369
1.86799
1.85044
1.83523
1.82276
1.81481
1.80258
2.1856
2.10754
2.03408
1.95885
1.88147
1.81427
1.75475
1.698
1.6415
1.59708
1.55449
1.51017
1.47356
1.44318
1.41473
1.39424
1.43295
1.63877
1.8381
1.88441
1.87642
1.85946
1.84756
1.84685
1.84709
1.84447
1.83597
1.8167
1.80217
1.81147
1.84303
1.92733
2.00739
2.06686
2.09169
2.08887
2.07737
2.05915
2.0431
2.02666
2.00985
1.99443
1.97911
1.96396
1.95045
1.93802
1.92483
1.91104
1.89831
1.8865
1.87502
1.8636
1.85116
1.83678
1.81996
1.80371
1.79127
1.78163
1.77486
1.76271
2.17366
2.11146
2.04907
1.98194
1.91357
1.85742
1.80034
1.73945
1.6885
1.64668
1.60407
1.5643
1.52621
1.48862
1.45943
1.49242
1.66836
1.88217
1.90416
1.88173
1.84744
1.82115
1.80207
1.7889
1.77351
1.75903
1.74727
1.73749
1.72382
1.72178
1.72142
1.73467
1.79314
1.87818
1.96015
2.00023
2.00425
2.01132
2.00777
1.99266
1.97168
1.95535
1.9396
1.92435
1.91187
1.90081
1.88746
1.87136
1.85669
1.84512
1.83545
1.82605
1.81537
1.80172
1.78421
1.76556
1.75248
1.74343
1.73753
1.72636
2.16149
2.109
2.0532
1.99453
1.936
1.88334
1.83008
1.77233
1.72504
1.68535
1.64483
1.60265
1.56503
1.5293
1.55882
1.73591
1.94893
1.9607
1.92489
1.87705
1.83743
1.80904
1.7859
1.76416
1.74419
1.72481
1.70788
1.683
1.66216
1.65114
1.64324
1.62815
1.63308
1.66121
1.72827
1.8195
1.87967
1.9263
1.94061
1.93717
1.93015
1.92
1.9078
1.89399
1.87954
1.86577
1.85174
1.83435
1.8182
1.80624
1.79734
1.78994
1.78176
1.77049
1.75558
1.73828
1.72258
1.71015
1.70207
1.68955
2.13931
2.09765
2.05024
1.9968
1.94824
1.90098
1.85116
1.79768
1.75479
1.71417
1.67711
1.63444
1.59298
1.6241
1.81258
2.02107
2.02326
1.98543
1.93438
1.88969
1.85248
1.8181
1.78593
1.75535
1.72714
1.70059
1.67642
1.65259
1.63173
1.61468
1.59232
1.57192
1.55964
1.54566
1.54828
1.57877
1.65069
1.74005
1.81028
1.85
1.86183
1.86924
1.87041
1.86313
1.84907
1.83181
1.81542
1.7984
1.7852
1.77457
1.76287
1.75132
1.74352
1.73534
1.72461
1.71223
1.69861
1.68388
1.67065
1.65367
2.1153
2.08145
2.04119
1.99476
1.9525
1.9099
1.863
1.81646
1.77765
1.73991
1.69899
1.65743
1.69131
1.88365
2.09235
2.08567
2.03975
1.98628
1.94024
1.90035
1.8626
1.82486
1.78764
1.75252
1.72001
1.69018
1.6623
1.63775
1.61583
1.59203
1.56595
1.5447
1.52872
1.50993
1.49429
1.48199
1.48037
1.50276
1.56678
1.65445
1.72817
1.77182
1.80112
1.81034
1.80678
1.79817
1.78154
1.76606
1.75567
1.74633
1.73435
1.7175
1.70244
1.69597
1.68996
1.68159
1.67126
1.65933
1.64472
1.62203
2.08818
2.05592
2.02266
1.98508
1.9487
1.90882
1.86649
1.82873
1.79294
1.75548
1.71686
1.75507
1.95724
2.15202
2.14399
2.09558
2.03948
1.99005
1.94814
1.90801
1.86805
1.82879
1.79115
1.75642
1.7246
1.69474
1.66501
1.63551
1.60659
1.57764
1.55028
1.52707
1.50472
1.48176
1.46665
1.4533
1.4378
1.41954
1.40668
1.42358
1.48323
1.56415
1.65768
1.70368
1.73158
1.73964
1.74024
1.73941
1.73213
1.72022
1.70596
1.68866
1.66764
1.65631
1.6517
1.6463
1.64004
1.63147
1.61902
1.59512
2.07006
2.03867
2.00195
1.97056
1.93979
1.90608
1.86887
1.83431
1.80262
1.7717
1.82138
2.03528
2.20261
2.19053
2.13641
2.08098
2.03317
1.99074
1.9498
1.90902
1.86838
1.82835
1.79002
1.75432
1.72126
1.68989
1.65953
1.62985
1.6005
1.57131
1.54335
1.51693
1.49105
1.46896
1.45187
1.43356
1.415
1.39678
1.38093
1.35946
1.34348
1.35599
1.40587
1.49287
1.57954
1.63167
1.6639
1.67793
1.68781
1.68694
1.68121
1.66706
1.64353
1.6276
1.62022
1.61141
1.60026
1.59183
1.58776
1.57129
1.98323
2.02305
1.99035
1.95649
1.92871
1.89856
1.86501
1.83609
1.81525
1.8853
2.10876
2.26117
2.25347
2.19164
2.12791
2.07357
2.02724
1.98492
1.9438
1.90318
1.86272
1.82279
1.78445
1.74866
1.7156
1.68466
1.65513
1.62607
1.59706
1.56876
1.54128
1.51387
1.48681
1.46373
1.44243
1.41943
1.39836
1.38007
1.36144
1.34117
1.32499
1.30811
1.29556
1.30592
1.34649
1.42213
1.5091
1.57248
1.60357
1.62627
1.63163
1.6275
1.619
1.60705
1.59448
1.58325
1.57233
1.5625
1.55086
1.53846
1.73752
1.97174
1.97189
1.94395
1.91688
1.88745
1.85912
1.84827
1.9372
2.18601
2.3052
2.27143
2.2193
2.1668
2.1142
2.06504
2.01859
1.97448
1.93239
1.89162
1.85148
1.81192
1.77364
1.73751
1.7039
1.67273
1.64371
1.61603
1.58903
1.56233
1.53562
1.50875
1.48224
1.45745
1.43423
1.41127
1.38871
1.36747
1.34771
1.33251
1.31704
1.29861
1.2827
1.26872
1.25996
1.26679
1.29524
1.36284
1.43642
1.51296
1.56132
1.56787
1.56584
1.56617
1.56718
1.56476
1.55888
1.54646
1.53012
1.507
1.29329
1.76979
1.93407
1.93043
1.90725
1.86758
1.87006
2.00353
2.2268
2.35436
2.33549
2.26439
2.19673
2.14366
2.09538
2.04927
2.00493
1.96225
1.9209
1.88026
1.83994
1.80016
1.76186
1.72595
1.69265
1.66169
1.63273
1.60555
1.58019
1.55567
1.53115
1.5066
1.48162
1.45599
1.43139
1.41072
1.39454
1.37837
1.35962
1.34011
1.3198
1.29818
1.27675
1.26012
1.24718
1.2389
1.22667
1.22814
1.24907
1.30087
1.37901
1.45755
1.49863
1.5099
1.51598
1.52335
1.52733
1.52572
1.51696
1.48969
1.02585
1.36982
1.77031
1.90028
1.8881
1.87629
2.04073
2.30912
2.36785
2.34111
2.30034
2.2455
2.18437
2.12802
2.07716
2.03096
1.98855
1.9486
1.90967
1.87056
1.83084
1.79103
1.75254
1.71657
1.68344
1.6529
1.62443
1.59762
1.57254
1.5485
1.52437
1.50027
1.4773
1.45426
1.43089
1.40982
1.39068
1.37145
1.35183
1.33125
1.3099
1.29061
1.27456
1.26072
1.24652
1.23317
1.21795
1.20654
1.19161
1.19028
1.2059
1.25337
1.32675
1.39126
1.45409
1.46964
1.47951
1.48608
1.4861
1.47776
1.00041
1.047
1.41576
1.77902
1.8384
2.04871
2.36193
2.44363
2.41004
2.33971
2.28203
2.22729
2.1712
2.11584
2.06442
2.01791
1.97575
1.93656
1.89887
1.86125
1.82301
1.78469
1.74747
1.71227
1.67944
1.649
1.62047
1.59342
1.56783
1.5439
1.52096
1.49801
1.47558
1.45486
1.4339
1.41049
1.38809
1.36793
1.34903
1.33015
1.31151
1.29334
1.27595
1.25997
1.24555
1.23017
1.2147
1.19966
1.18386
1.17555
1.16726
1.16763
1.1783
1.20924
1.27311
1.34193
1.39276
1.42035
1.441
1.44246
1
1.00098
1.0697
1.42392
1.87669
2.43588
2.52809
2.47024
2.42096
2.34809
2.27847
2.21669
2.1609
2.10937
2.06098
2.01534
1.9725
1.93234
1.89417
1.857
1.8202
1.78374
1.74799
1.71357
1.68071
1.64952
1.62054
1.59458
1.57091
1.54743
1.52372
1.50054
1.47839
1.4554
1.43428
1.41995
1.40521
1.3876
1.36875
1.34938
1.33051
1.3124
1.29475
1.2776
1.2613
1.24479
1.22899
1.2134
1.19792
1.1829
1.16578
1.15284
1.14827
1.14836
1.15519
1.17944
1.2217
1.28201
1.33431
1.39134
1
1.00001
1.00182
1.08792
2.20162
2.70495
2.62601
2.51992
2.44816
2.36698
2.28553
2.21683
2.15898
2.10905
2.06289
2.0184
1.97523
1.93374
1.89368
1.85473
1.81703
1.78089
1.74642
1.71376
1.68258
1.65266
1.62386
1.59554
1.56741
1.54104
1.51795
1.49738
1.47749
1.45789
1.43936
1.41848
1.39562
1.37418
1.35348
1.33326
1.31429
1.29697
1.28017
1.26337
1.24669
1.22981
1.21385
1.19917
1.18684
1.17204
1.15565
1.14106
1.13413
1.12722
1.12052
1.11384
1.11732
1.13624
1.18173
1.32466
)
;

boundaryField
{
    inlet
    {
        type            fixedValue;
        value           uniform 1;
    }
    outlet
    {
        type            inletOutlet;
        inletValue      uniform 1;
        value           nonuniform List<scalar> 
20
(
1.98647
1.9789
1.94594
1.90056
1.85194
1.80368
1.7635
1.72714
1.69019
1.65375
1.62082
1.59303
1.5697
1.53917
1.50481
1.48669
1.4767
1.44189
1.38981
1.31977
)
;
    }
    bottom
    {
        type            symmetryPlane;
    }
    top
    {
        type            symmetryPlane;
    }
    obstacle
    {
        type            zeroGradient;
    }
    defaultFaces
    {
        type            empty;
    }
}


// ************************************************************************* //
