/*--------------------------------*- C++ -*----------------------------------*\
  =========                 |
  \\      /  F ield         | OpenFOAM: The Open Source CFD Toolbox
   \\    /   O peration     | Website:  https://openfoam.org
    \\  /    A nd           | Version:  9
     \\/     M anipulation  |
\*---------------------------------------------------------------------------*/
FoamFile
{
    format      ascii;
    class       volScalarField;
    location    "24.8";
    object      p;
}
// * * * * * * * * * * * * * * * * * * * * * * * * * * * * * * * * * * * * * //

dimensions      [0 2 -2 0 0 0 0];

internalField   nonuniform List<scalar> 
8500
(
-0.306115
-0.310347
-0.311193
-0.312961
-0.315076
-0.315353
-0.319167
-0.315577
-0.321857
-0.314603
-0.306382
-0.310551
-0.311391
-0.313128
-0.315276
-0.315447
-0.319466
-0.31551
-0.322272
-0.314486
-0.306908
-0.310955
-0.311782
-0.313454
-0.315667
-0.315625
-0.320055
-0.315361
-0.323097
-0.314249
-0.30768
-0.311548
-0.31235
-0.313923
-0.316233
-0.315866
-0.320914
-0.315099
-0.324318
-0.313891
-0.30868
-0.312313
-0.313079
-0.314513
-0.316946
-0.316144
-0.322006
-0.314688
-0.32591
-0.31341
-0.309883
-0.313232
-0.313944
-0.315197
-0.317772
-0.316431
-0.323276
-0.314092
-0.327831
-0.312787
-0.311265
-0.314283
-0.31492
-0.315946
-0.318667
-0.316706
-0.324649
-0.313282
-0.330025
-0.311963
-0.312798
-0.315445
-0.315979
-0.31673
-0.319578
-0.316952
-0.326028
-0.312247
-0.332399
-0.31093
-0.314455
-0.316696
-0.317091
-0.317524
-0.320447
-0.317169
-0.327296
-0.311068
-0.334501
-0.309903
-0.316213
-0.318017
-0.318228
-0.318306
-0.321217
-0.31737
-0.328232
-0.309964
-0.33628
-0.308491
-0.318054
-0.319392
-0.319367
-0.319062
-0.321831
-0.317646
-0.328709
-0.308832
-0.337685
-0.306865
-0.319963
-0.32081
-0.320487
-0.319782
-0.322183
-0.318037
-0.328741
-0.307751
-0.3383
-0.30551
-0.321935
-0.322266
-0.321577
-0.320486
-0.322299
-0.318413
-0.32833
-0.30704
-0.337578
-0.304977
-0.323973
-0.323758
-0.32263
-0.321149
-0.322236
-0.318724
-0.327401
-0.30686
-0.33513
-0.305278
-0.326089
-0.325295
-0.323659
-0.321753
-0.32204
-0.318949
-0.326025
-0.307125
-0.330946
-0.305589
-0.328309
-0.326882
-0.324701
-0.322304
-0.321763
-0.318895
-0.324328
-0.307464
-0.325533
-0.304814
-0.330667
-0.328543
-0.325784
-0.322834
-0.32148
-0.318525
-0.322393
-0.307491
-0.319534
-0.302443
-0.333203
-0.330309
-0.326944
-0.323383
-0.321253
-0.317862
-0.320189
-0.307012
-0.313197
-0.298504
-0.335967
-0.332215
-0.328225
-0.323987
-0.321084
-0.317016
-0.317622
-0.305954
-0.306447
-0.293416
-0.339016
-0.334301
-0.329678
-0.324672
-0.320934
-0.316107
-0.314674
-0.304172
-0.29933
-0.287954
-0.342404
-0.336618
-0.331355
-0.325438
-0.320777
-0.315171
-0.311421
-0.301442
-0.292468
-0.282603
-0.346176
-0.339235
-0.333292
-0.326269
-0.320646
-0.314145
-0.307944
-0.297717
-0.286296
-0.276018
-0.350406
-0.342204
-0.335496
-0.327176
-0.320598
-0.312907
-0.304273
-0.293264
-0.2801
-0.269218
-0.355159
-0.34559
-0.337928
-0.328241
-0.320626
-0.311351
-0.300407
-0.288223
-0.273901
-0.262379
-0.360496
-0.349444
-0.340537
-0.329596
-0.32064
-0.309419
-0.296299
-0.282793
-0.267589
-0.255455
-0.366485
-0.353777
-0.343327
-0.331314
-0.320516
-0.307083
-0.29193
-0.277067
-0.261142
-0.24851
-0.373201
-0.35854
-0.346414
-0.333315
-0.320154
-0.304341
-0.287282
-0.271105
-0.25456
-0.241477
-0.380714
-0.363635
-0.350001
-0.335395
-0.319478
-0.301197
-0.282348
-0.264932
-0.247828
-0.234356
-0.389066
-0.368957
-0.354272
-0.337338
-0.318418
-0.297656
-0.277119
-0.258549
-0.240944
-0.227105
-0.39823
-0.374448
-0.359268
-0.338991
-0.316904
-0.29371
-0.271585
-0.251946
-0.233888
-0.219706
-0.408089
-0.380122
-0.364804
-0.34026
-0.314873
-0.289343
-0.26573
-0.245104
-0.226642
-0.212131
-0.418415
-0.386055
-0.370491
-0.341066
-0.312274
-0.284524
-0.259529
-0.238002
-0.219182
-0.204358
-0.428877
-0.392346
-0.375839
-0.34132
-0.309062
-0.279217
-0.252954
-0.230617
-0.211485
-0.196366
-0.439155
-0.399057
-0.380389
-0.340909
-0.305198
-0.273386
-0.245975
-0.222919
-0.203528
-0.188137
-0.448945
-0.406152
-0.38379
-0.339699
-0.300641
-0.266995
-0.238557
-0.21488
-0.195291
-0.179653
-0.457992
-0.413456
-0.385825
-0.337555
-0.295345
-0.260011
-0.230669
-0.206473
-0.186752
-0.170896
-0.466093
-0.420642
-0.386391
-0.334351
-0.289258
-0.252402
-0.222281
-0.197673
-0.17789
-0.161854
-0.473089
-0.427251
-0.385476
-0.329988
-0.282328
-0.244134
-0.213363
-0.188457
-0.168687
-0.152519
-0.478851
-0.432758
-0.383108
-0.324396
-0.274501
-0.235173
-0.203891
-0.178803
-0.159128
-0.142903
-0.483273
-0.436686
-0.379266
-0.317529
-0.265728
-0.225486
-0.193841
-0.168694
-0.149202
-0.133028
-0.486254
-0.438702
-0.37383
-0.309341
-0.255967
-0.215043
-0.183195
-0.158114
-0.138895
-0.122913
-0.487685
-0.438528
-0.366707
-0.299789
-0.245183
-0.203821
-0.171937
-0.147047
-0.128199
-0.112532
-0.487437
-0.435963
-0.357836
-0.288834
-0.233348
-0.191801
-0.160054
-0.135481
-0.117126
-0.101825
-0.485352
-0.430872
-0.347171
-0.276452
-0.220443
-0.178966
-0.147533
-0.123407
-0.105717
-0.0907116
-0.481243
-0.423165
-0.334664
-0.262643
-0.206454
-0.165305
-0.134361
-0.110827
-0.0940169
-0.0791729
-0.474902
-0.412785
-0.320275
-0.24741
-0.191369
-0.150811
-0.120544
-0.0977809
-0.082001
-0.067347
-0.466113
-0.399696
-0.303985
-0.230754
-0.175173
-0.135507
-0.106122
-0.0843513
-0.0695566
-0.055318
-0.454664
-0.383882
-0.285785
-0.212671
-0.157873
-0.119458
-0.0911621
-0.070511
-0.0566936
-0.0430908
-0.440363
-0.365343
-0.26567
-0.193182
-0.139558
-0.102719
-0.0756209
-0.0562719
-0.0434585
-0.0306716
-0.423049
-0.344096
-0.243627
-0.172375
-0.120376
-0.0851944
-0.0595384
-0.0416479
-0.0298989
-0.0180742
-0.402605
-0.320201
-0.219657
-0.150403
-0.100265
-0.0669387
-0.0429546
-0.0266635
-0.0160574
-0.00532567
-0.378965
-0.293784
-0.193847
-0.127236
-0.0792715
-0.0480116
-0.025913
-0.0113512
-0.00197532
0.00753729
-0.352118
-0.26501
-0.166387
-0.102791
-0.0574546
-0.028479
-0.00846159
0.00424917
0.0123076
0.0204704
-0.322111
-0.233907
-0.137414
-0.0771862
-0.0348813
-0.00841108
0.00934535
0.0200938
0.0267549
0.033429
-0.289065
-0.200228
-0.107309
-0.0505647
-0.0116261
0.0121171
0.0274473
0.0361373
0.0413354
0.0463693
-0.253155
-0.164275
-0.0760275
-0.023076
0.0122243
0.0330257
0.0457793
0.0523383
0.0560169
0.0592211
-0.21448
-0.126457
-0.0436231
0.00513364
0.03657
0.0542296
0.0642761
0.0686628
0.070744
0.0718106
-0.173012
-0.0873996
-0.0102263
0.0339216
0.0612997
0.075639
0.0828756
0.0850774
0.0854043
0.0838014
-0.129233
-0.0472641
0.0239834
0.063145
0.0862941
0.0971609
0.101517
0.101523
0.0998229
0.094904
-0.0835042
-0.00624261
0.0588016
0.0926547
0.111427
0.1187
0.120132
0.117888
0.113837
0.105437
-0.0362036
0.0354274
0.0940086
0.122294
0.136569
0.140159
0.138637
0.134034
0.127393
0.116717
0.0122657
0.0774821
0.129375
0.151899
0.161585
0.161437
0.156934
0.149847
0.140695
0.128527
0.0614846
0.11964
0.164667
0.181299
0.186339
0.182429
0.174928
0.165297
0.15379
0.14038
0.111022
0.161608
0.199647
0.210321
0.210694
0.203026
0.192524
0.180337
0.166625
0.152099
0.160439
0.203088
0.234076
0.238788
0.234512
0.223117
0.209634
0.19492
0.179125
0.163502
0.209298
0.243779
0.267719
0.266524
0.257654
0.242593
0.226171
0.208989
0.191226
0.174493
0.257159
0.283381
0.300343
0.293354
0.279984
0.261345
0.242051
0.222481
0.202858
0.184993
0.303595
0.321603
0.331722
0.319104
0.301368
0.279265
0.257193
0.235333
0.213958
0.194943
0.348184
0.358164
0.361638
0.343608
0.321674
0.296252
0.271518
0.247482
0.224466
0.204293
0.390518
0.392804
0.389881
0.366704
0.340778
0.312207
0.284948
0.258866
0.234324
0.212999
0.43022
0.425267
0.416254
0.388237
0.358561
0.327034
0.297411
0.269427
0.243477
0.221025
0.466992
0.455263
0.440567
0.408061
0.374909
0.340647
0.308839
0.279109
0.251873
0.228336
0.500537
0.482537
0.462645
0.42604
0.389719
0.352964
0.319167
0.287859
0.259466
0.234902
0.530566
0.506872
0.482327
0.442051
0.402896
0.36391
0.328338
0.295629
0.26621
0.240695
0.556813
0.528082
0.499471
0.455985
0.414354
0.37342
0.3363
0.302376
0.272068
0.245696
0.579049
0.546007
0.513953
0.467746
0.424019
0.381436
0.343007
0.308059
0.277004
0.249885
0.597078
0.560511
0.525666
0.477253
0.431828
0.387908
0.34842
0.312646
0.280988
0.25325
0.61074
0.571486
0.534526
0.484441
0.43773
0.392798
0.352508
0.316111
0.283997
0.25578
0.619916
0.578848
0.540469
0.48926
0.441686
0.396074
0.355246
0.318432
0.286014
0.257469
0.624524
0.582543
0.543452
0.491678
0.443671
0.397718
0.356619
0.319597
0.287026
0.258314
0.624524
0.582543
0.543452
0.491678
0.443671
0.397718
0.356619
0.319597
0.287026
0.258314
0.619916
0.578848
0.540469
0.48926
0.441686
0.396074
0.355246
0.318432
0.286014
0.257469
0.61074
0.571486
0.534526
0.484441
0.43773
0.392798
0.352508
0.316111
0.283997
0.25578
0.597078
0.560511
0.525666
0.477253
0.431828
0.387908
0.34842
0.312646
0.280988
0.25325
0.579049
0.546007
0.513953
0.467746
0.424019
0.381436
0.343007
0.308059
0.277004
0.249885
0.556813
0.528082
0.499471
0.455985
0.414354
0.37342
0.3363
0.302376
0.272068
0.245696
0.530566
0.506872
0.482327
0.442051
0.402896
0.36391
0.328338
0.295629
0.26621
0.240695
0.500537
0.482537
0.462645
0.42604
0.389719
0.352964
0.319167
0.287859
0.259466
0.234902
0.466992
0.455263
0.440567
0.408061
0.374909
0.340647
0.308839
0.279109
0.251873
0.228336
0.43022
0.425267
0.416254
0.388237
0.358561
0.327034
0.297411
0.269427
0.243477
0.221025
0.390518
0.392804
0.389881
0.366704
0.340778
0.312207
0.284948
0.258866
0.234324
0.212999
0.348184
0.358164
0.361638
0.343608
0.321674
0.296252
0.271518
0.247482
0.224466
0.204292
0.303595
0.321603
0.331722
0.319104
0.301368
0.279265
0.257193
0.235333
0.213958
0.194943
0.257159
0.283381
0.300343
0.293354
0.279984
0.261344
0.242051
0.222481
0.202858
0.184993
0.209298
0.243779
0.267719
0.266524
0.257654
0.242593
0.226171
0.208989
0.191226
0.174493
0.160439
0.203088
0.234076
0.238788
0.234512
0.223117
0.209634
0.19492
0.179125
0.163502
0.111022
0.161608
0.199647
0.210321
0.210694
0.203026
0.192524
0.180337
0.166625
0.152099
0.0614846
0.11964
0.164667
0.181299
0.186339
0.182429
0.174928
0.165297
0.15379
0.14038
0.0122657
0.0774821
0.129375
0.151899
0.161585
0.161437
0.156934
0.149847
0.140695
0.128527
-0.0362036
0.0354274
0.0940086
0.122294
0.136569
0.140159
0.138637
0.134034
0.127393
0.116717
-0.0835042
-0.00624262
0.0588016
0.0926547
0.111427
0.1187
0.120132
0.117888
0.113837
0.105437
-0.129233
-0.0472641
0.0239834
0.063145
0.0862941
0.0971609
0.101517
0.101523
0.0998229
0.094904
-0.173012
-0.0873996
-0.0102263
0.0339216
0.0612997
0.0756389
0.0828756
0.0850774
0.0854043
0.0838014
-0.21448
-0.126457
-0.0436231
0.00513363
0.0365699
0.0542295
0.0642761
0.0686628
0.070744
0.0718106
-0.253155
-0.164275
-0.0760275
-0.023076
0.0122243
0.0330257
0.0457793
0.0523383
0.0560169
0.0592211
-0.289065
-0.200228
-0.107309
-0.0505647
-0.0116262
0.0121171
0.0274473
0.0361373
0.0413354
0.0463693
-0.322111
-0.233907
-0.137414
-0.0771863
-0.0348814
-0.0084111
0.00934534
0.0200938
0.0267549
0.0334289
-0.352118
-0.26501
-0.166387
-0.102791
-0.0574546
-0.028479
-0.0084616
0.00424916
0.0123076
0.0204704
-0.378965
-0.293784
-0.193847
-0.127236
-0.0792715
-0.0480116
-0.025913
-0.0113513
-0.00197533
0.00753728
-0.402605
-0.320201
-0.219657
-0.150403
-0.100265
-0.0669387
-0.0429546
-0.0266635
-0.0160574
-0.00532569
-0.423049
-0.344096
-0.243627
-0.172375
-0.120376
-0.0851944
-0.0595384
-0.0416479
-0.0298989
-0.0180742
-0.440363
-0.365343
-0.26567
-0.193182
-0.139558
-0.102719
-0.0756209
-0.0562719
-0.0434585
-0.0306716
-0.454664
-0.383882
-0.285785
-0.212671
-0.157874
-0.119458
-0.0911621
-0.070511
-0.0566937
-0.0430908
-0.466113
-0.399696
-0.303985
-0.230754
-0.175173
-0.135507
-0.106122
-0.0843513
-0.0695566
-0.055318
-0.474902
-0.412785
-0.320275
-0.24741
-0.191369
-0.150811
-0.120544
-0.097781
-0.082001
-0.067347
-0.481243
-0.423165
-0.334664
-0.262643
-0.206454
-0.165305
-0.134361
-0.110827
-0.0940169
-0.0791729
-0.485352
-0.430872
-0.347171
-0.276452
-0.220443
-0.178966
-0.147533
-0.123407
-0.105717
-0.0907116
-0.487437
-0.435963
-0.357836
-0.288834
-0.233348
-0.191801
-0.160054
-0.135481
-0.117126
-0.101825
-0.487685
-0.438528
-0.366707
-0.29979
-0.245183
-0.203821
-0.171937
-0.147047
-0.128199
-0.112532
-0.486254
-0.438702
-0.37383
-0.309342
-0.255967
-0.215043
-0.183195
-0.158114
-0.138895
-0.122913
-0.483273
-0.436686
-0.379266
-0.317529
-0.265728
-0.225486
-0.193841
-0.168694
-0.149202
-0.133028
-0.478851
-0.432758
-0.383108
-0.324396
-0.274501
-0.235173
-0.203891
-0.178803
-0.159129
-0.142903
-0.473089
-0.427251
-0.385476
-0.329988
-0.282328
-0.244134
-0.213363
-0.188457
-0.168687
-0.152519
-0.466093
-0.420642
-0.386391
-0.334351
-0.289258
-0.252402
-0.222281
-0.197673
-0.17789
-0.161854
-0.457992
-0.413456
-0.385825
-0.337555
-0.295345
-0.260011
-0.230669
-0.206473
-0.186752
-0.170896
-0.448945
-0.406152
-0.38379
-0.339699
-0.300641
-0.266995
-0.238557
-0.21488
-0.195291
-0.179653
-0.439155
-0.399057
-0.380389
-0.340909
-0.305198
-0.273386
-0.245975
-0.222919
-0.203528
-0.188137
-0.428877
-0.392346
-0.375839
-0.34132
-0.309062
-0.279217
-0.252954
-0.230617
-0.211485
-0.196366
-0.418415
-0.386055
-0.370491
-0.341066
-0.312274
-0.284524
-0.259529
-0.238002
-0.219182
-0.204358
-0.408089
-0.380122
-0.364804
-0.34026
-0.314873
-0.289343
-0.26573
-0.245104
-0.226642
-0.212131
-0.39823
-0.374448
-0.359268
-0.338991
-0.316904
-0.29371
-0.271585
-0.251946
-0.233888
-0.219706
-0.389066
-0.368957
-0.354272
-0.337338
-0.318418
-0.297656
-0.277119
-0.258549
-0.240944
-0.227105
-0.380714
-0.363635
-0.350001
-0.335395
-0.319478
-0.301197
-0.282348
-0.264932
-0.247828
-0.234356
-0.373201
-0.35854
-0.346414
-0.333315
-0.320154
-0.304341
-0.287282
-0.271105
-0.25456
-0.241477
-0.366485
-0.353777
-0.343327
-0.331314
-0.320516
-0.307083
-0.29193
-0.277067
-0.261142
-0.24851
-0.360496
-0.349444
-0.340537
-0.329596
-0.32064
-0.309419
-0.296299
-0.282793
-0.267589
-0.255455
-0.355159
-0.34559
-0.337928
-0.328241
-0.320627
-0.311351
-0.300407
-0.288223
-0.273901
-0.262379
-0.350406
-0.342205
-0.335496
-0.327176
-0.320598
-0.312907
-0.304273
-0.293264
-0.2801
-0.269218
-0.346176
-0.339235
-0.333292
-0.326269
-0.320646
-0.314145
-0.307944
-0.297717
-0.286296
-0.276018
-0.342404
-0.336618
-0.331355
-0.325438
-0.320777
-0.315171
-0.311421
-0.301442
-0.292468
-0.282603
-0.339016
-0.334301
-0.329678
-0.324672
-0.320934
-0.316107
-0.314674
-0.304172
-0.29933
-0.287954
-0.335967
-0.332215
-0.328225
-0.323987
-0.321084
-0.317016
-0.317622
-0.305954
-0.306447
-0.293416
-0.333203
-0.330309
-0.326944
-0.323383
-0.321253
-0.317862
-0.320189
-0.307012
-0.313197
-0.298504
-0.330667
-0.328543
-0.325784
-0.322834
-0.32148
-0.318525
-0.322393
-0.307491
-0.319534
-0.302443
-0.328309
-0.326882
-0.324701
-0.322304
-0.321763
-0.318895
-0.324328
-0.307464
-0.325533
-0.304814
-0.326089
-0.325295
-0.323659
-0.321753
-0.32204
-0.318949
-0.326025
-0.307125
-0.330946
-0.305589
-0.323973
-0.323758
-0.32263
-0.321149
-0.322236
-0.318724
-0.327401
-0.30686
-0.33513
-0.305278
-0.321935
-0.322266
-0.321577
-0.320486
-0.322299
-0.318413
-0.32833
-0.30704
-0.337578
-0.304977
-0.319963
-0.32081
-0.320487
-0.319782
-0.322183
-0.318037
-0.328741
-0.307751
-0.3383
-0.30551
-0.318054
-0.319392
-0.319367
-0.319062
-0.321831
-0.317646
-0.328709
-0.308832
-0.337685
-0.306865
-0.316213
-0.318017
-0.318228
-0.318306
-0.321217
-0.31737
-0.328232
-0.309964
-0.33628
-0.308491
-0.314455
-0.316696
-0.317091
-0.317524
-0.320447
-0.317169
-0.327296
-0.311068
-0.334501
-0.309903
-0.312798
-0.315445
-0.315979
-0.31673
-0.319578
-0.316952
-0.326028
-0.312247
-0.332399
-0.31093
-0.311265
-0.314283
-0.31492
-0.315946
-0.318667
-0.316706
-0.324649
-0.313282
-0.330025
-0.311963
-0.309883
-0.313232
-0.313944
-0.315197
-0.317772
-0.316431
-0.323276
-0.314092
-0.327831
-0.312787
-0.30868
-0.312313
-0.313079
-0.314513
-0.316946
-0.316144
-0.322006
-0.314688
-0.32591
-0.31341
-0.30768
-0.311548
-0.31235
-0.313923
-0.316233
-0.315866
-0.320914
-0.315099
-0.324318
-0.313891
-0.306908
-0.310955
-0.311782
-0.313454
-0.315667
-0.315625
-0.320055
-0.315361
-0.323097
-0.314249
-0.306382
-0.310551
-0.311391
-0.313128
-0.315276
-0.315447
-0.319466
-0.31551
-0.322272
-0.314486
-0.306115
-0.310347
-0.311193
-0.312961
-0.315076
-0.315353
-0.319167
-0.315577
-0.321857
-0.314603
-0.32214
-0.312775
-0.314097
-0.306676
-0.303324
-0.29593
-0.289941
-0.28186
-0.273787
-0.263641
-0.251393
-0.234382
-0.211395
-0.180516
-0.140461
-0.0956497
-0.0545084
-0.0239367
-0.0054997
0.00391604
0.00687438
0.00723564
0.00578082
0.00451032
0.00301986
0.00202472
0.00140185
0.00105813
0.000516061
0.000539087
-0.322377
-0.312904
-0.314184
-0.306777
-0.303398
-0.296008
-0.290009
-0.281944
-0.273886
-0.263777
-0.251586
-0.234644
-0.211736
-0.180945
-0.140923
-0.0960764
-0.0548545
-0.0241905
-0.0056844
0.00378631
0.00678168
0.00717141
0.00573535
0.00447931
0.00299832
0.00200909
0.00139145
0.0010514
0.000511549
0.000536414
-0.322823
-0.313145
-0.314352
-0.306969
-0.303543
-0.296159
-0.290149
-0.28209
-0.274074
-0.264038
-0.251953
-0.235145
-0.212387
-0.181762
-0.141832
-0.0968898
-0.0555343
-0.024697
-0.00605614
0.00352343
0.00659384
0.00704113
0.00564344
0.00441665
0.00295495
0.00197774
0.00137059
0.00103789
0.00050258
0.000531058
-0.323429
-0.313467
-0.314587
-0.307238
-0.303743
-0.296372
-0.290329
-0.282327
-0.274339
-0.264398
-0.252463
-0.235838
-0.21329
-0.182911
-0.143077
-0.0980792
-0.0565278
-0.0254528
-0.00661905
0.0031214
0.00630658
0.00684157
0.00550337
0.00432114
0.00288921
0.00193051
0.00133912
0.00101748
0.000489255
0.000523013
-0.324123
-0.313815
-0.314872
-0.307556
-0.304002
-0.296643
-0.290591
-0.282591
-0.27466
-0.264831
-0.25307
-0.236671
-0.214384
-0.184282
-0.144625
-0.0995638
-0.0578095
-0.0264544
-0.00737785
0.00257301
0.0059146
0.00656876
0.00531299
0.00419128
0.00280043
0.00186722
0.00129688
0.00099005
0.000471719
0.00051228
-0.324822
-0.314173
-0.315167
-0.307915
-0.304267
-0.296934
-0.290848
-0.282904
-0.275014
-0.265304
-0.253741
-0.237581
-0.215571
-0.185808
-0.146376
-0.101298
-0.0593515
-0.027696
-0.00833623
0.00187151
0.00541275
0.00621888
0.00507017
0.00402558
0.00268796
0.00178772
0.00124373
0.000955461
0.000450142
0.000498887
-0.325504
-0.314405
-0.315483
-0.308242
-0.304591
-0.297275
-0.291164
-0.283211
-0.275391
-0.265787
-0.254411
-0.238515
-0.216809
-0.187402
-0.148253
-0.103223
-0.0611254
-0.0291694
-0.00949513
0.00101283
0.00479718
0.005789
0.00477328
0.00382283
0.00255126
0.00169196
0.00117957
0.000913628
0.00042472
0.000482896
-0.325887
-0.314694
-0.315663
-0.30861
-0.304821
-0.297614
-0.291429
-0.283564
-0.275743
-0.26626
-0.25506
-0.239421
-0.218019
-0.188996
-0.150192
-0.105291
-0.0631035
-0.0308644
-0.0108509
-3.43309e-06
0.00406648
0.0052777
0.00442155
0.00358236
0.00239009
0.00158004
0.00110439
0.000864529
0.000395652
0.000464415
-0.325912
-0.314923
-0.315702
-0.308932
-0.305055
-0.297932
-0.291705
-0.283877
-0.276081
-0.266688
-0.255648
-0.24026
-0.21916
-0.190533
-0.152137
-0.107459
-0.0652582
-0.0327656
-0.0123957
-0.00117425
0.00322244
0.00468545
0.00401539
0.00330421
0.00220457
0.00145224
0.00101834
0.000808228
0.000363145
0.0004436
-0.325541
-0.315012
-0.315597
-0.309149
-0.305168
-0.298196
-0.291927
-0.284159
-0.276368
-0.267051
-0.256148
-0.240995
-0.220188
-0.19197
-0.154046
-0.109691
-0.0675619
-0.0348542
-0.0141174
-0.00249197
0.00226968
0.00401482
0.00355638
0.00298924
0.00199522
0.00130904
0.000921693
0.00074489
0.000327399
0.000420653
-0.324486
-0.314954
-0.315272
-0.30923
-0.305183
-0.298374
-0.292085
-0.284372
-0.276585
-0.267324
-0.256535
-0.241598
-0.221075
-0.193274
-0.155885
-0.111955
-0.0699874
-0.0371085
-0.0159995
-0.00394521
0.00121545
0.00327038
0.0030472
0.00263906
0.00176298
0.00115111
0.000814888
0.000674778
0.000288614
0.000395809
-0.322562
-0.314641
-0.31468
-0.309108
-0.305049
-0.298405
-0.292131
-0.284485
-0.276704
-0.267485
-0.256784
-0.242049
-0.221796
-0.194423
-0.15763
-0.114227
-0.0725082
-0.0395042
-0.0180223
-0.00551968
6.91806e-05
0.00245806
0.0024915
0.00225598
0.00150913
0.000979323
0.000698501
0.000598249
0.000246985
0.000369331
-0.319796
-0.313922
-0.313785
-0.308692
-0.304672
-0.298274
-0.292038
-0.28447
-0.276697
-0.267511
-0.256877
-0.242329
-0.222341
-0.1954
-0.159264
-0.116484
-0.0750988
-0.0420159
-0.0201646
-0.00719919
-0.00115823
0.00158479
0.00189363
0.0018428
0.00123529
0.000794672
0.00057323
0.000515741
0.000202705
0.000341491
-0.316593
-0.312591
-0.312486
-0.307962
-0.304076
-0.297869
-0.291734
-0.284281
-0.276531
-0.267378
-0.256796
-0.242425
-0.222701
-0.196205
-0.160777
-0.118711
-0.0777355
-0.044618
-0.0224042
-0.00896667
-0.00245515
0.000658182
0.00125838
0.00140264
0.000943266
0.000598262
0.000439858
0.000427749
0.000155968
0.000312557
-0.313176
-0.310599
-0.310722
-0.306831
-0.303163
-0.297282
-0.291244
-0.283908
-0.276191
-0.267072
-0.256532
-0.242334
-0.22288
-0.196842
-0.162167
-0.120894
-0.0803967
-0.0472854
-0.0247191
-0.0108051
-0.00380998
-0.000313907
0.000590722
0.000938791
0.000634973
0.000391258
0.000299227
0.000334818
0.000106971
0.000282787
-0.309463
-0.308005
-0.308423
-0.305226
-0.301819
-0.296216
-0.290409
-0.283281
-0.275642
-0.266578
-0.256083
-0.242058
-0.222886
-0.197325
-0.16344
-0.123027
-0.0830634
-0.0499956
-0.0270894
-0.0126989
-0.00521161
-0.00132348
-0.000104145
0.000454743
0.00031249
0.000174899
0.000152223
0.000237523
5.59169e-05
0.000252417
-0.305587
-0.304777
-0.305602
-0.303211
-0.300246
-0.295144
-0.289455
-0.282479
-0.274911
-0.265909
-0.255461
-0.241615
-0.222743
-0.197676
-0.16461
-0.125108
-0.0857242
-0.0527308
-0.0294969
-0.0146318
-0.00664795
-0.00236227
-0.00082137
-4.62203e-05
-2.20909e-05
-4.9616e-05
-3.28779e-07
0.00013641
3.00223e-06
0.000221652
-0.301495
-0.301006
-0.302189
-0.30057
-0.298029
-0.293336
-0.287912
-0.281313
-0.273926
-0.265042
-0.254666
-0.241017
-0.222468
-0.197917
-0.165687
-0.127121
-0.088347
-0.0554545
-0.031912
-0.0165848
-0.00810932
-0.00342571
-0.00155889
-0.000563078
-0.000367979
-0.000281723
-0.000157921
3.18498e-05
-5.16261e-05
0.000190651
-0.297232
-0.296959
-0.298631
-0.297909
-0.295952
-0.291813
-0.286733
-0.280166
-0.272868
-0.26408
-0.253775
-0.240321
-0.222103
-0.198071
-0.166679
-0.129074
-0.0909438
-0.0581901
-0.0343652
-0.0185828
-0.00961126
-0.00452016
-0.00231788
-0.00109594
-0.000725733
-0.000521217
-0.000320061
-7.57519e-05
-0.000107812
0.000159585
-0.293226
-0.292112
-0.293814
-0.293906
-0.292598
-0.289073
-0.284233
-0.27838
-0.271425
-0.262869
-0.252718
-0.239541
-0.221749
-0.198342
-0.167872
-0.13125
-0.0937668
-0.0610946
-0.036912
-0.0206222
-0.011125
-0.00561634
-0.00307809
-0.00163026
-0.00108617
-0.000763118
-0.000483836
-0.0001845
-0.000164938
0.000128815
-0.288028
-0.288342
-0.290246
-0.290959
-0.290138
-0.287195
-0.283084
-0.276844
-0.26994
-0.261463
-0.251338
-0.238227
-0.220575
-0.197425
-0.167456
-0.131544
-0.0947381
-0.0625053
-0.0384241
-0.0220222
-0.0122758
-0.0065135
-0.00373075
-0.00210056
-0.00140839
-0.000983152
-0.000633689
-0.000284098
-0.000218045
0.000100818
-0.282335
-0.283431
-0.28553
-0.286754
-0.286285
-0.283593
-0.279287
-0.274017
-0.267385
-0.259066
-0.248988
-0.23592
-0.218393
-0.195515
-0.16614
-0.131139
-0.0952649
-0.0636834
-0.0398427
-0.0234013
-0.0134354
-0.00742722
-0.00439859
-0.00258297
-0.00173936
-0.00120609
-0.000783016
-0.000383164
-0.000269603
7.40151e-05
-0.276362
-0.278069
-0.280416
-0.282195
-0.282192
-0.279991
-0.276421
-0.271091
-0.264638
-0.256452
-0.246413
-0.233396
-0.216014
-0.193441
-0.164693
-0.130634
-0.0957205
-0.064824
-0.0412581
-0.0248028
-0.0146301
-0.00838021
-0.00510142
-0.00309376
-0.00209168
-0.00144339
-0.00094149
-0.000488464
-0.00032411
4.60698e-05
-0.270138
-0.272482
-0.275103
-0.277408
-0.277887
-0.276163
-0.272849
-0.267935
-0.261697
-0.253665
-0.24369
-0.230748
-0.213544
-0.191311
-0.163222
-0.130124
-0.0961834
-0.0659817
-0.042699
-0.0262359
-0.0158585
-0.00936531
-0.00583138
-0.00362608
-0.00246013
-0.00169227
-0.00110779
-0.000599023
-0.000381404
1.71505e-05
-0.263611
-0.266699
-0.269609
-0.272395
-0.273351
-0.272074
-0.26914
-0.264561
-0.258552
-0.250694
-0.240806
-0.227967
-0.210969
-0.189111
-0.161708
-0.129593
-0.0966389
-0.0671469
-0.0441608
-0.0276987
-0.0171199
-0.0103821
-0.00658837
-0.00417992
-0.00284484
-0.00195292
-0.00128201
-0.00071489
-0.000441538
-1.27137e-05
-0.256829
-0.260743
-0.263958
-0.267182
-0.268609
-0.267781
-0.265238
-0.260989
-0.255222
-0.247552
-0.237774
-0.225061
-0.2083
-0.186847
-0.160154
-0.129036
-0.0970796
-0.06831
-0.0456355
-0.0291858
-0.0184112
-0.0114292
-0.00737204
-0.00475538
-0.00324611
-0.00222558
-0.00146426
-0.000836134
-0.000504536
-4.3476e-05
-0.249863
-0.254645
-0.258187
-0.26181
-0.263702
-0.263324
-0.261161
-0.257249
-0.251735
-0.244267
-0.234619
-0.222055
-0.205556
-0.184538
-0.158573
-0.128459
-0.0975042
-0.0694662
-0.047117
-0.0306915
-0.0197285
-0.0125039
-0.00818108
-0.00535174
-0.00366362
-0.00251013
-0.00165448
-0.000962684
-0.000570376
-7.50652e-05
-0.242768
-0.248431
-0.252326
-0.256314
-0.258659
-0.258729
-0.256943
-0.253368
-0.248115
-0.24086
-0.231363
-0.218971
-0.202759
-0.1822
-0.156976
-0.127867
-0.0979117
-0.0706108
-0.0485996
-0.0322106
-0.0210679
-0.0136035
-0.00901381
-0.00596799
-0.00409679
-0.00280632
-0.00185252
-0.00109441
-0.000639013
-0.0001074
-0.235593
-0.242124
-0.246395
-0.250721
-0.253505
-0.254016
-0.252606
-0.249369
-0.244382
-0.237352
-0.228026
-0.215829
-0.199927
-0.179849
-0.155372
-0.127262
-0.0983006
-0.0717389
-0.0500776
-0.0337376
-0.0224251
-0.0147249
-0.0098684
-0.00660298
-0.00454498
-0.0031138
-0.00205818
-0.00123116
-0.000710381
-0.000140394
-0.228386
-0.235748
-0.240417
-0.245056
-0.248258
-0.249205
-0.248171
-0.245269
-0.240557
-0.233762
-0.224628
-0.212647
-0.197075
-0.177495
-0.153771
-0.126649
-0.0986692
-0.072846
-0.0515454
-0.0352671
-0.0237957
-0.015865
-0.0107428
-0.00725542
-0.0050074
-0.00343215
-0.00227122
-0.00137272
-0.000784396
-0.000173953
-0.221193
-0.229327
-0.23441
-0.239343
-0.242938
-0.244314
-0.243654
-0.241087
-0.236654
-0.230107
-0.221183
-0.209438
-0.194216
-0.17515
-0.152178
-0.126029
-0.0990164
-0.0739281
-0.0529975
-0.0367935
-0.0251753
-0.0170202
-0.0116347
-0.00792379
-0.00548311
-0.00376083
-0.00249132
-0.00151885
-0.000860943
-0.000207973
-0.214059
-0.222889
-0.228397
-0.233606
-0.237567
-0.23936
-0.239071
-0.236839
-0.232691
-0.2264
-0.217706
-0.206217
-0.191362
-0.172821
-0.150598
-0.125404
-0.0993407
-0.0749811
-0.0544288
-0.0383115
-0.0265592
-0.0181868
-0.0125417
-0.00860638
-0.00597101
-0.00409914
-0.00271807
-0.00166925
-0.000939882
-0.000242345
-0.207027
-0.216463
-0.222399
-0.22787
-0.232165
-0.23436
-0.234441
-0.23254
-0.228682
-0.222657
-0.21421
-0.202996
-0.188522
-0.170518
-0.149037
-0.124775
-0.099641
-0.0760015
-0.0558341
-0.0398155
-0.0279424
-0.019361
-0.0134607
-0.00930122
-0.00646978
-0.00444627
-0.00295097
-0.00182355
-0.00102103
-0.000276948
-0.200138
-0.210081
-0.216437
-0.222159
-0.226757
-0.229333
-0.229779
-0.228209
-0.224643
-0.218892
-0.210708
-0.199787
-0.185707
-0.168245
-0.147499
-0.124146
-0.0999164
-0.076986
-0.0572086
-0.0413001
-0.0293199
-0.0205384
-0.0143888
-0.010006
-0.00697788
-0.00480121
-0.00318941
-0.00198131
-0.00110419
-0.000311656
-0.193429
-0.203774
-0.210535
-0.216499
-0.221367
-0.224301
-0.225105
-0.223862
-0.22059
-0.21512
-0.207213
-0.1966
-0.182925
-0.16601
-0.145987
-0.123517
-0.100166
-0.0779314
-0.0585473
-0.0427595
-0.0306862
-0.0217144
-0.0153222
-0.0107183
-0.00749351
-0.00516275
-0.00343264
-0.002142
-0.00118908
-0.000346331
-0.186932
-0.197575
-0.204718
-0.210913
-0.216021
-0.219286
-0.220439
-0.219519
-0.216542
-0.211358
-0.20374
-0.193448
-0.180187
-0.16382
-0.144506
-0.12289
-0.10039
-0.078835
-0.0598455
-0.0441882
-0.0320355
-0.022884
-0.0162571
-0.0114349
-0.00801456
-0.00552945
-0.00367974
-0.00230499
-0.00127539
-0.000380825
-0.180677
-0.191518
-0.199012
-0.205428
-0.210747
-0.214314
-0.215802
-0.215201
-0.212519
-0.207624
-0.200304
-0.190344
-0.177502
-0.161681
-0.143061
-0.122267
-0.100587
-0.079694
-0.0610984
-0.0455801
-0.0333618
-0.0240416
-0.017189
-0.0121527
-0.00853859
-0.00589961
-0.00392962
-0.00246953
-0.00136275
-0.000414982
-0.17469
-0.185638
-0.193445
-0.200068
-0.205577
-0.209415
-0.211221
-0.210933
-0.208542
-0.203937
-0.196921
-0.187301
-0.174882
-0.1596
-0.141655
-0.121651
-0.100758
-0.080506
-0.0623011
-0.0469291
-0.0346585
-0.0251813
-0.0181128
-0.0128676
-0.00906277
-0.00627123
-0.00418097
-0.00263475
-0.00145069
-0.000448633
-0.168997
-0.17997
-0.188048
-0.194863
-0.200541
-0.204619
-0.206722
-0.206736
-0.204635
-0.20032
-0.193611
-0.184336
-0.172337
-0.157587
-0.140294
-0.121045
-0.100904
-0.0812687
-0.0634489
-0.0482289
-0.0359187
-0.0262964
-0.019023
-0.0135754
-0.00958385
-0.00664197
-0.00443226
-0.00279963
-0.00153868
-0.000481593
-0.163622
-0.17455
-0.182852
-0.189843
-0.195672
-0.199962
-0.202338
-0.202642
-0.200825
-0.196796
-0.190394
-0.181464
-0.169883
-0.15565
-0.138984
-0.120452
-0.101024
-0.0819801
-0.0645369
-0.0494729
-0.0371348
-0.02738
-0.0199135
-0.0142711
-0.0100981
-0.00700913
-0.00468168
-0.00296296
-0.00162607
-0.000513661
-0.158587
-0.169411
-0.177893
-0.18504
-0.191005
-0.195479
-0.198102
-0.198682
-0.19714
-0.193391
-0.187292
-0.178705
-0.167532
-0.153799
-0.137733
-0.119877
-0.101121
-0.0826383
-0.0655601
-0.0506541
-0.038299
-0.0284241
-0.0207772
-0.0149491
-0.0106013
-0.0073696
-0.00492712
-0.00312338
-0.00171214
-0.000544618
-0.153914
-0.164589
-0.173205
-0.180491
-0.186576
-0.191208
-0.194052
-0.194889
-0.193612
-0.190136
-0.184332
-0.176078
-0.1653
-0.152047
-0.136546
-0.119323
-0.101196
-0.0832416
-0.0665137
-0.0517654
-0.0394027
-0.0294202
-0.0216066
-0.0156031
-0.0110885
-0.0077198
-0.00516615
-0.0032793
-0.001796
-0.00057422
-0.149625
-0.160117
-0.168825
-0.17623
-0.182424
-0.187192
-0.190228
-0.191301
-0.190276
-0.18706
-0.181539
-0.173607
-0.163207
-0.150406
-0.135434
-0.118797
-0.101251
-0.0837883
-0.0673923
-0.0527989
-0.0404366
-0.0303592
-0.0223933
-0.0162261
-0.0115544
-0.00805568
-0.00539596
-0.0034289
-0.00187666
-0.000602195
-0.145744
-0.156031
-0.164794
-0.1723
-0.178589
-0.183473
-0.186676