/*--------------------------------*- C++ -*----------------------------------*\
  =========                 |
  \\      /  F ield         | OpenFOAM: The Open Source CFD Toolbox
   \\    /   O peration     | Website:  https://openfoam.org
    \\  /    A nd           | Version:  9
     \\/     M anipulation  |
\*---------------------------------------------------------------------------*/
FoamFile
{
    format      ascii;
    class       volScalarField;
    location    "4.2";
    object      p;
}
// * * * * * * * * * * * * * * * * * * * * * * * * * * * * * * * * * * * * * //

dimensions      [0 2 -2 0 0 0 0];

internalField   nonuniform List<scalar> 
8500
(
-0.359194
-0.36859
-0.364223
-0.357862
-0.347209
-0.333496
-0.317686
-0.297839
-0.280549
-0.254156
-0.360192
-0.369253
-0.364811
-0.358354
-0.347663
-0.333921
-0.318127
-0.298167
-0.281115
-0.254065
-0.362175
-0.370571
-0.365978
-0.359329
-0.348559
-0.334761
-0.319006
-0.298845
-0.282198
-0.253879
-0.365118
-0.372528
-0.367707
-0.360769
-0.349877
-0.335992
-0.320304
-0.299911
-0.283704
-0.253603
-0.368983
-0.375098
-0.369972
-0.362646
-0.351588
-0.337578
-0.321875
-0.30133
-0.285653
-0.253247
-0.373724
-0.378252
-0.372743
-0.364931
-0.353655
-0.339495
-0.323754
-0.30298
-0.287978
-0.252825
-0.379288
-0.381955
-0.375983
-0.367585
-0.356036
-0.341692
-0.325906
-0.304812
-0.290592
-0.252354
-0.385612
-0.38617
-0.379655
-0.370571
-0.358692
-0.344116
-0.328272
-0.306792
-0.293405
-0.251855
-0.392634
-0.390857
-0.383719
-0.37385
-0.361582
-0.346723
-0.330793
-0.308878
-0.296322
-0.251353
-0.400296
-0.395968
-0.388142
-0.377389
-0.364669
-0.349474
-0.333416
-0.311034
-0.299247
-0.250877
-0.408553
-0.401456
-0.392879
-0.381154
-0.36792
-0.352334
-0.336095
-0.313228
-0.302081
-0.250459
-0.417296
-0.407321
-0.397902
-0.385118
-0.371307
-0.355278
-0.338787
-0.315438
-0.304728
-0.250135
-0.426495
-0.413508
-0.403183
-0.389261
-0.374809
-0.358283
-0.341456
-0.317643
-0.307093
-0.249935
-0.436102
-0.419982
-0.408699
-0.393565
-0.378412
-0.361334
-0.344072
-0.31983
-0.309084
-0.249887
-0.446067
-0.42672
-0.414431
-0.398021
-0.382107
-0.36442
-0.346611
-0.321986
-0.310617
-0.250029
-0.456346
-0.433697
-0.420364
-0.402621
-0.385886
-0.367533
-0.349049
-0.324097
-0.311612
-0.250404
-0.466899
-0.440891
-0.426485
-0.40736
-0.389747
-0.370662
-0.351369
-0.326149
-0.311967
-0.250926
-0.477689
-0.448281
-0.432781
-0.412232
-0.393683
-0.373793
-0.353559
-0.328138
-0.311533
-0.251293
-0.488678
-0.455846
-0.439241
-0.417232
-0.397685
-0.376908
-0.355614
-0.330065
-0.310235
-0.25219
-0.499825
-0.463561
-0.445849
-0.422347
-0.401738
-0.379975
-0.357517
-0.331852
-0.30846
-0.258543
-0.511089
-0.471402
-0.452584
-0.42756
-0.405815
-0.382951
-0.359222
-0.333243
-0.306906
-0.276153
-0.52242
-0.479336
-0.459422
-0.432843
-0.40988
-0.385782
-0.360661
-0.334049
-0.305062
-0.280768
-0.533761
-0.487326
-0.466326
-0.43816
-0.413886
-0.388404
-0.361764
-0.334164
-0.302848
-0.280742
-0.545048
-0.495325
-0.473253
-0.443461
-0.41777
-0.390746
-0.362458
-0.333566
-0.300302
-0.278658
-0.556204
-0.50328
-0.480147
-0.448685
-0.421459
-0.39273
-0.362667
-0.332245
-0.297329
-0.27502
-0.567142
-0.511125
-0.48694
-0.453757
-0.424868
-0.394269
-0.362312
-0.330187
-0.293844
-0.270215
-0.577762
-0.518785
-0.49355
-0.458588
-0.427898
-0.395271
-0.361317
-0.327379
-0.289791
-0.264552
-0.587953
-0.526172
-0.499885
-0.463077
-0.430444
-0.395642
-0.359606
-0.323808
-0.28513
-0.258226
-0.597589
-0.533189
-0.505838
-0.467111
-0.43239
-0.395284
-0.357112
-0.319458
-0.279832
-0.251345
-0.606536
-0.539724
-0.511289
-0.470567
-0.433618
-0.394103
-0.353771
-0.314314
-0.273875
-0.243966
-0.614645
-0.545658
-0.516108
-0.473313
-0.434005
-0.392004
-0.349527
-0.308361
-0.267247
-0.236111
-0.621761
-0.550858
-0.520155
-0.47521
-0.433429
-0.388901
-0.344329
-0.301586
-0.259936
-0.227784
-0.627719
-0.555184
-0.52328
-0.476117
-0.431771
-0.384713
-0.338136
-0.293977
-0.251939
-0.218978
-0.632349
-0.558489
-0.525331
-0.47589
-0.428916
-0.379368
-0.330913
-0.285523
-0.24325
-0.209679
-0.635476
-0.560617
-0.526148
-0.474388
-0.424756
-0.372803
-0.322634
-0.276218
-0.233868
-0.199877
-0.636924
-0.561413
-0.525572
-0.471474
-0.419196
-0.364964
-0.313277
-0.266058
-0.223793
-0.18956
-0.636519
-0.560715
-0.523447
-0.467019
-0.412148
-0.355809
-0.302829
-0.255041
-0.213028
-0.17872
-0.634089
-0.558366
-0.51962
-0.460902
-0.40354
-0.345306
-0.291284
-0.24317
-0.201576
-0.167352
-0.629469
-0.55421
-0.513948
-0.453016
-0.39331
-0.333434
-0.278642
-0.230449
-0.189443
-0.155456
-0.622504
-0.548099
-0.506296
-0.443269
-0.381416
-0.320183
-0.264909
-0.216886
-0.17664
-0.143036
-0.613049
-0.539893
-0.496545
-0.431585
-0.367825
-0.305553
-0.250097
-0.202496
-0.163177
-0.130103
-0.600977
-0.529465
-0.484593
-0.417905
-0.352523
-0.289553
-0.234226
-0.187292
-0.149068
-0.116669
-0.586176
-0.516703
-0.470354
-0.402188
-0.335509
-0.272205
-0.217319
-0.171296
-0.134329
-0.102742
-0.568554
-0.501511
-0.453765
-0.384415
-0.316799
-0.253538
-0.199408
-0.154533
-0.11899
-0.0882878
-0.548042
-0.483813
-0.434784
-0.364585
-0.296421
-0.233591
-0.180529
-0.137032
-0.103119
-0.0732641
-0.524594
-0.463557
-0.413393
-0.342716
-0.27442
-0.212412
-0.160718
-0.118817
-0.0867775
-0.0578453
-0.49819
-0.440711
-0.389599
-0.31885
-0.250852
-0.190058
-0.140023
-0.0999343
-0.069786
-0.0421942
-0.468838
-0.415272
-0.363432
-0.293043
-0.225787
-0.166588
-0.11851
-0.0805132
-0.0522449
-0.0261972
-0.436573
-0.387261
-0.334948
-0.265373
-0.199307
-0.142078
-0.0962497
-0.0605207
-0.0342653
-0.0098774
-0.401457
-0.356724
-0.304229
-0.235939
-0.171506
-0.116632
-0.0732806
-0.0400123
-0.0158942
0.00672251
-0.363583
-0.323737
-0.271389
-0.204849
-0.142486
-0.0903187
-0.0496927
-0.01905
0.00282292
0.0235544
-0.323072
-0.288413
-0.236561
-0.172202
-0.11237
-0.0632343
-0.0255646
0.00230224
0.0218362
0.0405645
-0.280079
-0.25091
-0.199841
-0.13816
-0.08128
-0.0354827
-0.000978864
0.0239758
0.0410924
0.0576928
-0.234784
-0.2114
-0.161271
-0.102968
-0.04935
-0.00717244
0.0239763
0.0458983
0.0605349
0.0748707
-0.187339
-0.169975
-0.12127
-0.066696
-0.0167203
0.0215824
0.049208
0.0679936
0.0801034
0.0920215
-0.137928
-0.126917
-0.0800256
-0.0295226
0.0164605
0.0506634
0.0746193
0.0901824
0.099738
0.109063
-0.0870575
-0.0822951
-0.0377029
0.00835807
0.0500393
0.0799478
0.100109
0.112387
0.119392
0.125895
-0.0348268
-0.0364735
0.00547118
0.0467491
0.0838589
0.109309
0.125575
0.134536
0.139032
0.142322
0.0184823
0.0102824
0.0492555
0.085449
0.117758
0.138619
0.15091
0.156561
0.15856
0.157995
0.0725465
0.0577065
0.0934027
0.124252
0.151574
0.167744
0.176013
0.178373
0.177697
0.172601
0.12704
0.105513
0.137659
0.162948
0.185141
0.196555
0.200782
0.199852
0.196083
0.186501
0.181631
0.153407
0.181764
0.201327
0.218293
0.22492
0.225111
0.220883
0.214285
0.202031
0.23598
0.201084
0.225457
0.23918
0.250865
0.252708
0.248893
0.241364
0.231966
0.217706
0.289739
0.248239
0.268476
0.276298
0.282694
0.27979
0.272023
0.261221
0.249034
0.232964
0.342564
0.294565
0.31056
0.312475
0.313618
0.306041
0.294399
0.280384
0.265469
0.24765
0.394106
0.339756
0.351452
0.347509
0.343481
0.331335
0.315922
0.298778
0.281224
0.261711
0.444024
0.383512
0.390903
0.381205
0.372128
0.355553
0.336497
0.316328
0.296245
0.275089
0.491983
0.42554
0.428669
0.413372
0.399412
0.37858
0.356032
0.332964
0.310475
0.287728
0.537658
0.465555
0.464517
0.443829
0.425193
0.400304
0.374437
0.348616
0.323858
0.29958
0.580738
0.503285
0.498225
0.472402
0.449335
0.420619
0.39163
0.36322
0.336342
0.310602
0.620926
0.538472
0.529582
0.49893
0.471712
0.439427
0.40753
0.376712
0.347874
0.320756
0.657945
0.570875
0.558392
0.523261
0.492205
0.456634
0.422065
0.389035
0.358406
0.330005
0.691536
0.60027
0.584477
0.545254
0.510708
0.472154
0.435165
0.400134
0.367891
0.338315
0.721465
0.626454
0.607671
0.564785
0.52712
0.485911
0.446769
0.409959
0.376288
0.345656
0.747522
0.649245
0.62783
0.58174
0.541355
0.497835
0.456821
0.418466
0.383559
0.352002
0.769525
0.668486
0.644827
0.596022
0.553337
0.507866
0.465274
0.425617
0.38967
0.357327
0.787316
0.684042
0.658555
0.607548
0.563001
0.515953
0.472086
0.431377
0.394594
0.361612
0.800771
0.695805
0.668928
0.616251
0.570294
0.522054
0.477224
0.435721
0.398307
0.36484
0.809795
0.703693
0.675879
0.622082
0.575179
0.52614
0.480663
0.438629
0.400792
0.366999
0.814322
0.70765
0.679366
0.625005
0.577628
0.528187
0.482387
0.440086
0.402038
0.368081
0.814322
0.70765
0.679366
0.625005
0.577628
0.528187
0.482387
0.440086
0.402038
0.368081
0.809795
0.703693
0.675879
0.622082
0.575179
0.52614
0.480663
0.438629
0.400792
0.366999
0.800771
0.695805
0.668928
0.616251
0.570294
0.522054
0.477224
0.435721
0.398307
0.36484
0.787316
0.684042
0.658555
0.607548
0.563001
0.515953
0.472086
0.431377
0.394594
0.361612
0.769525
0.668486
0.644827
0.596022
0.553337
0.507866
0.465274
0.425617
0.38967
0.357327
0.747522
0.649245
0.62783
0.58174
0.541355
0.497835
0.456821
0.418466
0.383559
0.352002
0.721465
0.626454
0.607671
0.564785
0.52712
0.485911
0.446769
0.409959
0.376288
0.345656
0.691536
0.60027
0.584477
0.545254
0.510708
0.472154
0.435165
0.400134
0.367891
0.338315
0.657945
0.570875
0.558392
0.523261
0.492205
0.456634
0.422065
0.389035
0.358406
0.330005
0.620926
0.538472
0.529582
0.49893
0.471712
0.439427
0.40753
0.376712
0.347874
0.320756
0.580738
0.503285
0.498225
0.472402
0.449335
0.420619
0.39163
0.36322
0.336342
0.310602
0.537658
0.465555
0.464517
0.443829
0.425193
0.400304
0.374437
0.348616
0.323858
0.29958
0.491983
0.42554
0.428669
0.413372
0.399412
0.37858
0.356032
0.332964
0.310475
0.287728
0.444024
0.383512
0.390903
0.381205
0.372128
0.355553
0.336497
0.316328
0.296245
0.275089
0.394106
0.339756
0.351452
0.347509
0.343481
0.331335
0.315922
0.298778
0.281224
0.261711
0.342564
0.294565
0.31056
0.312475
0.313618
0.306041
0.294399
0.280384
0.265469
0.24765
0.289739
0.248239
0.268476
0.276298
0.282694
0.27979
0.272023
0.261221
0.249034
0.232964
0.23598
0.201084
0.225457
0.23918
0.250865
0.252708
0.248893
0.241364
0.231966
0.217706
0.181631
0.153407
0.181764
0.201327
0.218293
0.22492
0.225111
0.220883
0.214285
0.202031
0.12704
0.105513
0.137659
0.162948
0.185141
0.196555
0.200782
0.199852
0.196083
0.186501
0.0725465
0.0577065
0.0934027
0.124252
0.151574
0.167744
0.176013
0.178373
0.177697
0.172601
0.0184823
0.0102824
0.0492555
0.085449
0.117758
0.138619
0.15091
0.156561
0.15856
0.157995
-0.0348268
-0.0364735
0.00547118
0.0467491
0.0838589
0.109309
0.125575
0.134536
0.139032
0.142322
-0.0870575
-0.0822951
-0.0377029
0.00835807
0.0500393
0.0799478
0.100109
0.112387
0.119392
0.125895
-0.137928
-0.126917
-0.0800256
-0.0295226
0.0164605
0.0506634
0.0746193
0.0901824
0.099738
0.109063
-0.187339
-0.169975
-0.12127
-0.066696
-0.0167203
0.0215824
0.049208
0.0679936
0.0801034
0.0920215
-0.234784
-0.2114
-0.161271
-0.102968
-0.04935
-0.00717244
0.0239763
0.0458983
0.0605349
0.0748707
-0.280079
-0.25091
-0.199841
-0.13816
-0.08128
-0.0354827
-0.000978865
0.0239758
0.0410924
0.0576928
-0.323072
-0.288413
-0.236561
-0.172202
-0.11237
-0.0632343
-0.0255646
0.00230224
0.0218362
0.0405645
-0.363583
-0.323737
-0.271389
-0.204849
-0.142486
-0.0903187
-0.0496927
-0.01905
0.00282292
0.0235544
-0.401457
-0.356724
-0.304229
-0.235939
-0.171506
-0.116632
-0.0732806
-0.0400123
-0.0158942
0.00672251
-0.436573
-0.387261
-0.334948
-0.265373
-0.199307
-0.142078
-0.0962497
-0.0605207
-0.0342653
-0.0098774
-0.468838
-0.415272
-0.363432
-0.293043
-0.225787
-0.166588
-0.11851
-0.0805132
-0.0522449
-0.0261972
-0.49819
-0.440711
-0.389599
-0.31885
-0.250852
-0.190058
-0.140023
-0.0999343
-0.069786
-0.0421942
-0.524594
-0.463557
-0.413393
-0.342716
-0.27442
-0.212412
-0.160718
-0.118817
-0.0867775
-0.0578453
-0.548042
-0.483813
-0.434784
-0.364585
-0.296421
-0.233591
-0.180529
-0.137032
-0.103119
-0.0732641
-0.568554
-0.501511
-0.453765
-0.384415
-0.316799
-0.253538
-0.199408
-0.154533
-0.11899
-0.0882878
-0.586176
-0.516703
-0.470354
-0.402188
-0.335509
-0.272205
-0.217319
-0.171296
-0.134329
-0.102742
-0.600977
-0.529465
-0.484593
-0.417905
-0.352523
-0.289553
-0.234226
-0.187292
-0.149068
-0.116669
-0.613049
-0.539893
-0.496545
-0.431585
-0.367825
-0.305553
-0.250097
-0.202496
-0.163177
-0.130103
-0.622504
-0.548099
-0.506296
-0.443269
-0.381416
-0.320183
-0.264909
-0.216886
-0.17664
-0.143036
-0.629469
-0.55421
-0.513948
-0.453016
-0.39331
-0.333434
-0.278642
-0.230449
-0.189443
-0.155456
-0.634089
-0.558366
-0.51962
-0.460902
-0.40354
-0.345306
-0.291284
-0.24317
-0.201576
-0.167352
-0.636519
-0.560715
-0.523447
-0.467019
-0.412148
-0.355809
-0.302829
-0.255041
-0.213028
-0.17872
-0.636924
-0.561413
-0.525572
-0.471474
-0.419196
-0.364964
-0.313277
-0.266058
-0.223793
-0.18956
-0.635476
-0.560617
-0.526148
-0.474388
-0.424756
-0.372803
-0.322634
-0.276218
-0.233868
-0.199877
-0.632349
-0.558489
-0.525331
-0.47589
-0.428916
-0.379368
-0.330913
-0.285523
-0.24325
-0.209679
-0.627719
-0.555184
-0.52328
-0.476117
-0.431771
-0.384713
-0.338136
-0.293977
-0.251939
-0.218978
-0.621761
-0.550858
-0.520155
-0.47521
-0.433429
-0.388901
-0.344329
-0.301586
-0.259936
-0.227784
-0.614645
-0.545658
-0.516108
-0.473313
-0.434005
-0.392004
-0.349527
-0.308361
-0.267247
-0.236111
-0.606536
-0.539724
-0.511289
-0.470567
-0.433618
-0.394103
-0.353771
-0.314314
-0.273875
-0.243966
-0.597589
-0.533189
-0.505838
-0.467111
-0.43239
-0.395284
-0.357112
-0.319458
-0.279832
-0.251345
-0.587953
-0.526172
-0.499885
-0.463077
-0.430444
-0.395642
-0.359606
-0.323808
-0.28513
-0.258226
-0.577762
-0.518785
-0.49355
-0.458588
-0.427898
-0.395271
-0.361317
-0.327379
-0.289791
-0.264552
-0.567142
-0.511125
-0.48694
-0.453757
-0.424868
-0.394269
-0.362312
-0.330187
-0.293844
-0.270215
-0.556204
-0.50328
-0.480147
-0.448685
-0.421459
-0.39273
-0.362667
-0.332245
-0.297329
-0.27502
-0.545048
-0.495325
-0.473253
-0.443461
-0.41777
-0.390746
-0.362458
-0.333566
-0.300302
-0.278658
-0.533761
-0.487326
-0.466326
-0.43816
-0.413886
-0.388404
-0.361764
-0.334164
-0.302848
-0.280742
-0.52242
-0.479336
-0.459422
-0.432843
-0.40988
-0.385782
-0.360661
-0.334049
-0.305062
-0.280768
-0.511089
-0.471402
-0.452584
-0.42756
-0.405815
-0.382951
-0.359222
-0.333243
-0.306906
-0.276153
-0.499825
-0.463562
-0.445849
-0.422347
-0.401738
-0.379975
-0.357517
-0.331852
-0.30846
-0.258543
-0.488678
-0.455846
-0.439241
-0.417232
-0.397685
-0.376908
-0.355614
-0.330065
-0.310235
-0.25219
-0.477689
-0.448281
-0.432781
-0.412232
-0.393683
-0.373793
-0.353559
-0.328138
-0.311533
-0.251293
-0.466899
-0.440891
-0.426485
-0.40736
-0.389747
-0.370662
-0.351369
-0.326149
-0.311967
-0.250926
-0.456346
-0.433697
-0.420364
-0.402621
-0.385886
-0.367533
-0.349049
-0.324097
-0.311612
-0.250404
-0.446067
-0.42672
-0.414431
-0.398021
-0.382107
-0.36442
-0.346611
-0.321986
-0.310617
-0.250029
-0.436102
-0.419982
-0.408699
-0.393565
-0.378412
-0.361334
-0.344072
-0.31983
-0.309084
-0.249887
-0.426495
-0.413508
-0.403183
-0.389261
-0.374809
-0.358283
-0.341456
-0.317643
-0.307093
-0.249935
-0.417296
-0.407321
-0.397902
-0.385118
-0.371307
-0.355278
-0.338787
-0.315438
-0.304728
-0.250135
-0.408553
-0.401456
-0.392879
-0.381154
-0.36792
-0.352334
-0.336095
-0.313228
-0.302081
-0.250459
-0.400296
-0.395968
-0.388142
-0.377389
-0.364669
-0.349474
-0.333416
-0.311034
-0.299247
-0.250877
-0.392634
-0.390857
-0.383719
-0.37385
-0.361582
-0.346723
-0.330793
-0.308878
-0.296322
-0.251353
-0.385612
-0.38617
-0.379655
-0.370571
-0.358692
-0.344116
-0.328272
-0.306792
-0.293405
-0.251855
-0.379288
-0.381955
-0.375983
-0.367585
-0.356036
-0.341692
-0.325906
-0.304812
-0.290592
-0.252354
-0.373724
-0.378252
-0.372743
-0.364931
-0.353655
-0.339495
-0.323754
-0.30298
-0.287978
-0.252825
-0.368983
-0.375098
-0.369972
-0.362646
-0.351588
-0.337578
-0.321875
-0.30133
-0.285653
-0.253247
-0.365118
-0.372528
-0.367707
-0.360769
-0.349877
-0.335992
-0.320304
-0.299911
-0.283704
-0.253603
-0.362175
-0.370571
-0.365978
-0.359329
-0.348559
-0.334761
-0.319006
-0.298845
-0.282198
-0.253879
-0.360192
-0.369253
-0.364811
-0.358354
-0.347663
-0.333921
-0.318127
-0.298167
-0.281115
-0.254065
-0.359194
-0.36859
-0.364223
-0.357862
-0.347209
-0.333496
-0.317686
-0.297839
-0.280549
-0.254156
-0.24309
-0.233054
-0.222056
-0.210428
-0.197974
-0.184683
-0.17059
-0.155735
-0.140197
-0.124102
-0.107626
-0.0910019
-0.0745149
-0.0584919
-0.0432847
-0.0292464
-0.016704
-0.00592679
0.00288787
0.00966262
0.0143775
0.0172363
0.0182863
0.0181743
0.016523
0.0150331
0.0113999
0.0106415
0.00415586
0.00763911
-0.244008
-0.23384
-0.222753
-0.211113
-0.198652
-0.185355
-0.171259
-0.156401
-0.140857
-0.124752
-0.108261
-0.0916165
-0.0751038
-0.0590497
-0.0438066
-0.029728
-0.0171419
-0.00631824
0.00254437
0.00936736
0.0141293
0.0170327
0.0181233
0.0180469
0.0164263
0.0149604
0.0113497
0.0106013
0.00414033
0.00760603
-0.245811
-0.235384
-0.224122
-0.212458
-0.199981
-0.186673
-0.172571
-0.157707
-0.142152
-0.126027
-0.109507
-0.0928242
-0.0762619
-0.0601478
-0.0448351
-0.0306781
-0.0180064
-0.00709193
0.00186476
0.00878265
0.0136374
0.0166286
0.0177996
0.0177936
0.0162341
0.0148156
0.0112499
0.0105213
0.00410939
0.00754034
-0.248427
-0.237635
-0.226116
-0.214414
-0.201913
-0.188587
-0.174476
-0.159603
-0.144032
-0.12788
-0.111321
-0.0945839
-0.0779518
-0.0617527
-0.0463404
-0.0320711
-0.0192762
-0.00823004
0.00086343
0.00791975
0.0129102
0.0160304
0.0173197
0.0174177
0.0159484
0.0146001
0.0111012
0.010402
0.00406327
0.00744291
-0.251748
-0.240522
-0.228667
-0.216911
-0.204378
-0.191026
-0.176903
-0.162019
-0.146429
-0.130246
-0.11364
-0.0968375
-0.0801205
-0.0638167
-0.0482809
-0.0338708
-0.0209204
-0.0097072
-0.000439098
0.00679483
0.0119602
0.0152473
0.0166901
0.0169236
0.0155722
0.014316
0.0109049
0.0102445
0.00400229
0.00731508
-0.255636
-0.243955
-0.231689
-0.219863
-0.20729
-0.193903
-0.179764
-0.164868
-0.149258
-0.133044
-0.116388
-0.0995138
-0.0827028
-0.0662814
-0.0506049
-0.0360327
-0.0229013
-0.0114919
-0.00201722
0.00542812
0.0108029
0.0142908
0.0159191
0.016317
0.0151095
0.0139659
0.0106628
0.0100501
0.00392689
0.00715852
-0.259933
-0.247823
-0.235083
-0.223172
-0.21055
-0.197121
-0.182963
-0.168053
-0.152426
-0.136182
-0.119478
-0.102533
-0.0856258
-0.0690811
-0.0532543
-0.0385061
-0.0251757
-0.013548
-0.00384155
0.003843
0.00945624
0.0131743
0.0150164
0.015605
0.014565
0.0135528
0.0103767
0.00982033
0.00383758
0.00697526
-0.264464
-0.251995
-0.238738
-0.226729
-0.214054
-0.200575
-0.186395
-0.171474
-0.155834
-0.139566
-0.122821
-0.105812
-0.0888127
-0.0721465
-0.0561676
-0.0412373
-0.0276975
-0.015837
-0.00588028
0.00206492
0.00794016
0.0119129
0.0139932
0.0147951
0.0139439
0.0130806
0.0100492
0.00955691
0.00373498
0.00676758
-0.269073
-0.256331
-0.242536
-0.230422
-0.217693
-0.20416
-0.189956
-0.175028
-0.159382
-0.143101
-0.126327
-0.109266
-0.0921865
-0.0754079
-0.0592826
-0.0441719
-0.0304197
-0.018319
-0.00810049
0.000120486
0.00627551
0.0105223
0.0128609
0.0138957
0.0132521
0.0125529
0.00968258
0.00926184
0.00361975
0.00653798
-0.27361
-0.260681
-0.246354
-0.234138
-0.221358
-0.207771
-0.193546
-0.178618
-0.162977
-0.146697
-0.12991
-0.112816
-0.0956736
-0.0787984
-0.0625393
-0.0472567
-0.0332963
-0.0209548
-0.0104693
-0.00196354
0.00448353
0.00901905
0.0116319
0.0129157
0.0124958
0.0119743
0.00927978
0.00893728
0.00349263
0.00628911
-0.277879
-0.264889
-0.250072
-0.237766
-0.224943
-0.211308
-0.197069
-0.182151
-0.16653
-0.15027
-0.133493
-0.116388
-0.0992062
-0.0822558
-0.0658815
-0.050442
-0.0362835
-0.0237066
-0.012955
-0.00416095
0.00258526
0.00741938
0.0103185
0.0118641
0.0116813
0.011349
0.00884368
0.0085855
0.00335441
0.00602371
-0.281715
-0.268801
-0.253569
-0.241197
-0.228347
-0.214678
-0.200438
-0.185546
-0.169964
-0.153748
-0.137006
-0.119918
-0.102724
-0.0857248
-0.069259
-0.0536823
-0.0393412
-0.0265395
-0.0155277
-0.00644677
0.000600989
0.00573934
0.00893291
0.0107498
0.0108152
0.0106816
0.00837731
0.00820886
0.00320589
0.00574456
-0.284979
-0.272263
-0.256725
-0.244329
-0.231474
-0.217795
-0.203577
-0.188732
-0.173214
-0.157068
-0.140392
-0.12335
-0.106176
-0.0891578
-0.072628
-0.0569379
-0.0424337
-0.029422
-0.0181601
-0.00879799
-0.00145032
0.00399406
0.00748688
0.00958175
0.00990383
0.00997666
0.00788366
0.00780974
0.0030479
0.0054544
-0.287546
-0.275129
-0.259428
-0.247065
-0.234237
-0.220585
-0.206418
-0.19165
-0.176226
-0.160181
-0.143603
-0.126643
-0.109521
-0.0925162
-0.0759523
-0.0601754
-0.0455306
-0.0323268
-0.0208281
-0.0111939
-0.00355136
0.00219759
0.00599144
0.00836819
0.00895338
0.00923859
0.00736573
0.00739051
0.00288126
0.00515593
-0.289329
-0.277269
-0.261574
-0.249319
-0.236559
-0.222982
-0.20891
-0.194253
-0.178958
-0.163049
-0.146603
-0.12976
-0.112726
-0.095768
-0.0792014
-0.0633659
-0.0486047
-0.0352289
-0.0235093
-0.0136146
-0.00568488
0.00036439
0.00445834
0.00711835
0.00797083
0.00847245
0.00682693
0.0069538
0.0027069
0.00485179
-0.290289
-0.278585
-0.263076
-0.251002
-0.238362
-0.224923
-0.210997
-0.196497
-0.181371
-0.165637
-0.149361
-0.132671
-0.11576
-0.0988835
-0.0823458
-0.0664804
-0.0516281
-0.0381018
-0.0261789
-0.0160377
-0.00783113
-0.0014887
0.0029015
0.0058433
0.00696465
0.00768454
0.00627157
0.00650281
0.00252606
0.0045446
-0.290307
-0.278894
-0.263812
-0.252009
-0.239572
-0.226363
-0.212655
-0.198367
-0.183458
-0.167941
-0.151873
-0.135371
-0.118617
-0.101853
-0.0853741
-0.0695064
-0.0545878
-0.0409329
-0.0288255
-0.0184532
-0.00998211
-0.0033554
0.00132564
0.00454642
0.00593724
0.00687675
0.00570115
0.00603911
0.00233946
0.00423649
-0.289251
-0.278066
-0.263822
-0.25243
-0.240305
-0.227423
-0.213999
-0.199972
-0.185318
-0.170049
-0.154217
-0.137932
-0.121362
-0.10474
-0.0883468
-0.0725025
-0.0575408
-0.0437771
-0.0315012
-0.02091
-0.0121824
-0.00527583
-0.000304474
0.00319794
0.00486474
0.00603126
0.00510361
0.00555593
0.002144
0.00392797
-0.288664
-0.276868
-0.263349
-0.252181
-0.240359
-0.227869
-0.214791
-0.201088
-0.18675
-0.171787
-0.156249
-0.140236
-0.123907
-0.107479
-0.0912218
-0.0754449
-0.0604773
-0.0466347
-0.0342127
-0.0234185
-0.0144447
-0.0072644
-0.00200433
0.00178253
0.00373319
0.00513695
0.00447008
0.00504801
0.00193548
0.00362073
-0.285467
-0.271749
-0.259676
-0.248971
-0.237825
-0.226095
-0.21367
-0.200539
-0.186711
-0.17221
-0.157089
-0.14145
-0.125445
-0.109286
-0.0932336
-0.0775922
-0.0626876
-0.0488364
-0.0363403
-0.0254151
-0.0162664
-0.00888327
-0.00340203
0.000604215
0.0027803
0.00436723
0.00391677
0.00458669
0.00174184
0.00333271
-0.262906
-0.265658
-0.259738
-0.249675
-0.238859
-0.22734
-0.215018
-0.201943
-0.188138
-0.17363
-0.158478
-0.142787
-0.126715
-0.110478
-0.0943415
-0.0786118
-0.0636167
-0.0496725
-0.0370798
-0.0260549
-0.0168022
-0.00931534
-0.00373569
0.00033843
0.0025715
0.00415936
0.00375361
0.00436827
0.00165783
0.00311206
-0.253197
-0.256185
-0.252014
-0.243049
-0.233208
-0.222515
-0.210888
-0.198431
-0.185197
-0.171226
-0.156589
-0.141392
-0.125793
-0.109999
-0.0942688
-0.0788973
-0.0642023
-0.0504931
-0.0380649
-0.0271343
-0.0179077
-0.0103923
-0.00473207
-0.00055486
0.00182039
0.00352106
0.00329002
0.00395982
0.0014925
0.00285932
-0.245894
-0.246878
-0.243078
-0.235031
-0.226026
-0.216112
-0.205202
-0.193417
-0.180829
-0.16749
-0.153477
-0.138898
-0.123907
-0.108701
-0.0935261
-0.0786627
-0.0644134
-0.0510746
-0.0389321
-0.0281998
-0.0190826
-0.0115999
-0.00589455
-0.00162859
0.000899633
0.00273352
0.00271652
0.00346897
0.00129284
0.00257979
-0.238726
-0.238067
-0.234323
-0.227089
-0.218819
-0.209614
-0.199394
-0.188272
-0.176326
-0.163619
-0.150229
-0.136268
-0.121883
-0.107266
-0.0926489
-0.0782983
-0.0645024
-0.0515452
-0.0397023
-0.0291843
-0.0201927
-0.0127585
-0.00702184
-0.00268052
-9.37838e-06
0.00194742
0.00214091
0.00296952
0.0010905
0.00229021
-0.231122
-0.229297
-0.225437
-0.218917
-0.211347
-0.202832
-0.193306
-0.182865
-0.171587
-0.159536
-0.146796
-0.133475
-0.119716
-0.105704
-0.0916595
-0.0778349
-0.0645048
-0.0519412
-0.0404097
-0.0301176
-0.0212629
-0.0138876
-0.0081291
-0.00372141
-0.000914225
0.00115882
0.00156057
0.00246145
0.000884336
0.0019919
-0.222747
-0.220334
-0.216297
-0.210393
-0.203497
-0.195658
-0.186831
-0.177089
-0.166505
-0.155142
-0.143083
-0.130434
-0.117333
-0.103955
-0.0905103
-0.0772379
-0.0643982
-0.0522513
-0.0410525
-0.0310057
-0.0223048
-0.0150033
-0.00923478
-0.00476983
-0.00183206
0.00035379
0.000964878
0.00193842
0.000670283
0.00168512
-0.213614
-0.211093
-0.20693
-0.20157
-0.195331
-0.188154
-0.180019
-0.170984
-0.16111
-0.150457
-0.139103
-0.127151
-0.114733
-0.102015
-0.0891957
-0.0764998
-0.0641741
-0.0524668
-0.0416226
-0.0318414
-0.0233129
-0.0161012
-0.0103359
-0.00582377
-0.00276197
-0.000466949
0.000353618
0.00140106
0.000447399
0.00137182
-0.203844
-0.201541
-0.197372
-0.192515
-0.186914
-0.18039
-0.172938
-0.16461
-0.155454
-0.145523
-0.13489
-0.123653
-0.111938
-0.0998998
-0.0877244
-0.0756247
-0.0638329
-0.052585
-0.0421149
-0.0326182
-0.0242797
-0.0171736
-0.0114252
-0.00687667
-0.00369874
-0.00129888
-0.000270591
0.000852114
0.000215632
0.0010546
-0.193574
-0.191694
-0.187657
-0.183285
-0.178305
-0.172425
-0.165646
-0.15802
-0.149583
-0.140379
-0.130477
-0.119967
-0.108967
-0.0976221
-0.0861059
-0.0746177
-0.0633761
-0.0526045
-0.0425259
-0.033331
-0.0251995
-0.0182145
-0.0124969
-0.00792301
-0.00463793
-0.00213804
-0.000905479
0.000294221
-2.51574e-05
0.000736149
-0.182948
-0.181609
-0.177835
-0.173941
-0.169563
-0.164317
-0.1582
-0.151266
-0.143542
-0.135066
-0.125897
-0.116119
-0.105841
-0.0951976
-0.0843503
-0.073485
-0.0628062
-0.0525249
-0.042853
-0.0339756
-0.026067
-0.0192182
-0.0135456
-0.00895764
-0.00557536
-0.00298059
-0.00154884
-0.000269977
-0.000275076
0.000419265
-0.172139
-0.171368
-0.167964
-0.16455
-0.160753
-0.156127
-0.150657
-0.144401
-0.137381
-0.129625
-0.121185
-0.112138
-0.102583
-0.0926434
-0.0824698
-0.0722341
-0.0621269
-0.0523468
-0.0430942
-0.0345482
-0.0268772
-0.020179
-0.0145655
-0.00997511
-0.0065065
-0.0038224
-0.00219811
-0.00083759
-0.000534014
0.000106811
-0.161291
-0.161074
-0.158116
-0.155181
-0.151941
-0.147916
-0.143076
-0.137481
-0.131148
-0.124098
-0.116377
-0.108053
-0.0992159
-0.0899783
-0.0804781
-0.0708741
-0.0613433
-0.0520717
-0.0432482
-0.0350455
-0.0276254
-0.0210913
-0.0155509
-0.0109698
-0.00742645
-0.00465898
-0.00285039
-0.00140549
-0.000801578
-0.000198367
-0.150547
-0.150829
-0.148363
-0.145903
-0.143191
-0.139744
-0.135513
-0.130555
-0.124889
-0.118528
-0.111511
-0.103897
-0.0957662
-0.0872222
-0.0783899
-0.0694152
-0.0604615
-0.0517022
-0.0433148
-0.0354648
-0.0283074
-0.02195
-0.0164961
-0.0119359
-0.00833008
-0.00548562
-0.00350238
-0.00197035
-0.00107701
-0.000493588
-0.140032
-0.140746
-0.138783
-0.136784
-0.134569
-0.131669
-0.12802
-0.123675
-0.11865
-0.112955
-0.10662
-0.0996976
-0.0922585
-0.084395
-0.0762206
-0.0678683
-0.0594884
-0.0512418
-0.0432944
-0.0358041
-0.0289193
-0.0227499
-0.0173956
-0.0128676
-0.00921207
-0.00629746
-0.0041505
-0.00252876
-0.00135909
-0.000776478
-0.129847
-0.130912
-0.129442
-0.127885
-0.126131
-0.123745
-0.120649
-0.116886
-0.112474
-0.107418
-0.10174
-0.095486
-0.0887177
-0.0815172
-0.0739862
-0.0662454
-0.0584322
-0.050695
-0.0431886
-0.0360625
-0.0294582
-0.0234866
-0.018244
-0.0137595
-0.0100671
-0.00708951
-0.00479085
-0.00307724
-0.00164624
-0.00104492
-0.12007
-0.121408
-0.120403
-0.119262
-0.117933
-0.116023
-0.113445
-0.110232
-0.106401
-0.101952
-0.0969028
-0.0912902
-0.0851684
-0.0786092
-0.0717031
-0.064559
-0.0573016
-0.0500674
-0.0429998
-0.0362399
-0.0299218
-0.0241565
-0.0190365
-0.0146062
-0.0108897
-0.00785682
-0.0054193
-0.00361232
-0.00193649
-0.00129711
-0.110762
-0.112301
-0.111722
-0.110963
-0.110022
-0.108549
-0.106451
-0.103754
-0.100468
-0.0965923
-0.0921393
-0.0871382
-0.0816347
-0.0756915
-0.0693884
-0.0628225
-0.0561068
-0.0493657
-0.0427317
-0.0363372
-0.0303089
-0.0247563
-0.0197688
-0.0154027
-0.0116748
-0.00859447
-0.00603155
-0.00413052
-0.00222754
-0.00153165
-0.101962
-0.103643
-0.103443
-0.103033
-0.102441
-0.101364
-0.0997081
-0.0974875
-0.0947099
-0.091372
-0.0874801
-0.0830571
-0.078141
-0.0727852
-0.0670596
-0.0610504
-0.0548587
-0.0485979
-0.0423894
-0.0363567
-0.0306193
-0.0252842
-0.0204374
-0.0161447
-0.0124175
-0.00929777
-0.00662321
-0.00462846
-0.00251677
-0.00174748
-0.0937011
-0.0954727
-0.0956046
-0.0955069
-0.0952269
-0.0945058
-0.0932516
-0.0914689
-0.0891612
-0.0863225
-0.0829548
-0.0790742
-0.0747117
-0.0699121
-0.0647357
-0.0592583
-0.0535701
-0.0477734
-0.0419792
-0.0363023
-0.0308543
-0.0257392
-0.0210396
-0.0168283
-0.0131132
-0.00996228
-0.00718989
-0.00510285
-0.00280138
-0.00194396
-0.0859978
-0.087822
-0.0882391
-0.0884172
-0.0884135
-0.0880089
-0.087116
-0.0857314
-0.083854
-0.0814753
-0.0785927
-0.0752171
-0.0713721
-0.0670948
-0.0624366
-0.0574635
-0.0522552
-0.0469036
-0.0415096
-0.0361791
-0.0310165
-0.0261217
-0.0215739
-0.0174507
-0.013758
-0.0105839
-0.00772733
-0.00555062
-0.00307841
-0.00212078
-0.0788667
-0.0807142
-0.0813736
-0.0817944
-0.0820307
-0.0819046
-0.0813338
-0.0803076
-0.0788206
-0.0768614
-0.0744241
-0.0715141
-0.0681486
-0.0643577
-0.0601842
-0.0556849
-0.05093
-0.0460014
-0.0409904
-0.0359944
-0.0311102
-0.0264334
-0.0220398
-0.0180098
-0.0143485
-0.0111591
-0.00823148
-0.00596887
-0.00334485
-0.00227789
-0.0723201
-0.0741691
-0.075031
-0.0756593
-0.0761055
-0.0762231
-0.0759367
-0.0752299
-0.0740932
-0.072513
-0.07048
-0.067995
-0.0650695
-0.0617268
-0.0580021
-0.0539438
-0.049613
-0.0450823
-0.040434
-0.0357571
-0.0311414
-0.0266777
-0.0224382
-0.0185047
-0.0148822
-0.0116847
-0.0086986
-0.00635496
-0.00359775
-0.00241551
-0.0663711
-0.0682059
-0.0692357
-0.0700418
-0.070668
-0.0709957
-0.0709569
-0.0705311
-0.0697052
-0.0684631
-0.066793
-0.0646915
-0.0621649
-0.0592303
-0.0559163
-0.0522635
-0.0483246
-0.0441637
-0.0398546
-0.0354784
-0.0311181
-0.0268594
-0.0227713
-0.0189353
-0.0153575
-0.0121582
-0.00912534
-0.0067065
-0.00383427
-0.00253399
-0.0610349
-0.0628451
-0.0640126
-0.0649691
-0.0657476
-0.0662539
-0.0664277
-0.0662458
-0.0656914
-0.064747
-0.0633979
-0.0616373
-0.0594671
-0.0568991
-0.0539555
-0.05067