/*--------------------------------*- C++ -*----------------------------------*\
  =========                 |
  \\      /  F ield         | OpenFOAM: The Open Source CFD Toolbox
   \\    /   O peration     | Website:  https://openfoam.org
    \\  /    A nd           | Version:  9
     \\/     M anipulation  |
\*---------------------------------------------------------------------------*/
FoamFile
{
    format      ascii;
    class       volScalarField;
    location    "0.3";
    object      p;
}
// * * * * * * * * * * * * * * * * * * * * * * * * * * * * * * * * * * * * * //

dimensions      [0 2 -2 0 0 0 0];

internalField   nonuniform List<scalar> 
6400
(
-5.2432e-08
-3.86434e-06
-0.000137346
-0.000398006
-0.000754957
-0.00117986
-0.00164767
-0.00213659
-0.00262821
-0.00310734
-0.00356146
-0.00398031
-0.00435563
-0.00468081
-0.00495061
-0.00516098
-0.00530888
-0.00539213
-0.00540926
-0.00535941
-0.00524226
-0.00505795
-0.00480703
-0.00449037
-0.00410921
-0.00366507
-0.00315973
-0.00259525
-0.00197394
-0.00129837
-0.000571382
0.000203953
0.00102431
0.00188606
0.00278535
0.00371805
0.00467977
0.00566588
0.00667144
0.0076913
0.00872012
0.00975232
0.0107821
0.0118037
0.0128108
0.0137976
0.0147578
0.0156853
0.0165741
0.0174183
0.0182122
0.0189504
0.0196276
0.0202393
0.0207811
0.0212493
0.0216408
0.0219532
0.0221848
0.0223345
0.0224024
0.0223892
0.0222968
0.022128
0.0218867
0.0215778
0.0212076
0.0207833
0.0203137
0.0198088
0.0192802
0.0187411
0.0182063
0.0176928
0.0172195
0.0168073
0.0164783
0.0162551
0.016159
0.0161803
3.36658e-06
-6.30173e-07
-0.000119029
-0.000340451
-0.000639435
-0.000995657
-0.00139014
-0.0018052
-0.00222525
-0.00263689
-0.00302877
-0.00339136
-0.00371676
-0.00399853
-0.00423149
-0.0044115
-0.0045354
-0.00460082
-0.00460608
-0.00455011
-0.00443239
-0.00425281
-0.0040117
-0.00370972
-0.00334789
-0.00292753
-0.00245024
-0.00191785
-0.00133252
-0.000696625
-1.27882e-05
0.0007161
0.00148691
0.00229624
0.00314045
0.00401567
0.00491777
0.00584237
0.00678485
0.00774039
0.00870395
0.00967033
0.0106342
0.0115899
0.012532
0.0134547
0.0143524
0.0152194
0.0160503
0.0168394
0.0175817
0.0182722
0.0189062
0.0194795
0.0199882
0.0204289
0.0207991
0.0210965
0.0213197
0.0214681
0.0215418
0.0215418
0.0214698
0.0213288
0.0211225
0.0208558
0.0205346
0.0201658
0.0197575
0.0193192
0.0188615
0.0183962
0.0179366
0.0174974
0.0170943
0.0167443
0.0164638
0.016269
0.0161799
0.0162015
0.000135954
0.000116765
-1.97775e-06
-0.000206216
-0.000474405
-0.000790475
-0.00113917
-0.00150589
-0.00187734
-0.0022418
-0.00258913
-0.00291066
-0.00319905
-0.0034482
-0.00365314
-0.00380985
-0.00391519
-0.00396675
-0.00396274
-0.00390202
-0.00378392
-0.00360819
-0.00337501
-0.00308493
-0.00273878
-0.00233772
-0.00188318
-0.00137687
-0.000820756
-0.000217058
0.000431772
0.00112301
0.00185371
0.00262065
0.0034204
0.0042493
0.00510343
0.00597865
0.00687058
0.00777468
0.0086862
0.00960021
0.0105116
0.0114153
0.0123059
0.0131781
0.0140266
0.0148462
0.0156316
0.0163778
0.0170798
0.0177332
0.0183336
0.018877
0.0193599
0.0197794
0.0201329
0.0204186
0.0206352
0.0207823
0.0208601
0.0208696
0.0208127
0.0206922
0.0205117
0.020276
0.0199905
0.0196619
0.0192978
0.0189068
0.0184988
0.0180844
0.0176756
0.0172849
0.0169262
0.0166133
0.0163598
0.0161788
0.0160903
0.0161062
0.000395991
0.000337544
0.000200349
-4.98081e-06
-0.000262811
-0.000559626
-0.000882686
-0.00121975
-0.00155951
-0.00189181
-0.00220772
-0.00249947
-0.00276043
-0.00298498
-0.00316849
-0.00330717
-0.00339801
-0.0034387
-0.00342747
-0.00336314
-0.003245
-0.00307271
-0.00284638
-0.00256644
-0.00223361
-0.00184893
-0.0014137
-0.000929498
-0.000398143
0.000178296
0.000797517
0.00145696
0.00215383
0.00288509
0.00364751
0.00443758
0.00525161
0.00608565
0.00693554
0.00779698
0.00866545
0.00953627
0.0104046
0.0112655
0.0121141
0.0129452
0.0137537
0.0145348
0.0152835
0.0159949
0.0166646
0.0172882
0.0178615
0.018381
0.0188434
0.0192457
0.0195859
0.019862
0.0200732
0.0202188
0.0202993
0.0203157
0.0202698
0.0201643
0.0200029
0.0197897
0.0195303
0.0192306
0.0188979
0.0185401
0.0181662
0.0177858
0.0174096
0.0170488
0.0167151
0.0164208
0.0161773
0.0159964
0.0158951
0.0158849
0.00075472
0.00063771
0.000467709
0.00024879
-1.11342e-05
-0.000300949
-0.000609904
-0.000927925
-0.00124559
-0.00155423
-0.00184612
-0.00211446
-0.00235338
-0.00255783
-0.00272361
-0.00284725
-0.00292595
-0.00295752
-0.00294033
-0.00287321
-0.00275542
-0.00258663
-0.00236688
-0.00209652
-0.00177618
-0.00140679
-0.000989537
-0.000525876
-1.74898e-05
0.000533704
0.00112553
0.0017556
0.00242127
0.0031197
0.00384781
0.0046023
0.00537965
0.0061761
0.00698775
0.00781047
0.00863997
0.00947178
0.0103013
0.0111239
0.0119348
0.0127291
0.0135021
0.0142489
0.014965
0.0156458
0.0162869
0.0168842
0.0174338
0.0179323
0.0183765
0.0187638
0.0190921
0.0193597
0.0195657
0.0197097
0.019792
0.0198137
0.0197765
0.0196831
0.0195367
0.0193415
0.0191026
0.0188255
0.018517
0.0181844
0.0178356
0.0174796
0.0171257
0.0167838
0.0164641
0.016177
0.0159325
0.0157408
0.0156137
0.0155582
0.00118621
0.000998615
0.000785213
0.000542764
0.000270523
-2.24298e-05
-0.000327072
-0.000635261
-0.000939282
-0.00123191
-0.00150658
-0.00175746
-0.00197946
-0.00216816
-0.00231986
-0.00243144
-0.00250037
-0.00252468
-0.00250287
-0.00243384
-0.0023169
-0.00215174
-0.00193836
-0.00167706
-0.00136839
-0.00101321
-0.000612612
-0.000167917
0.000319316
0.000847305
0.00141401
0.00201718
0.00265437
0.00332287
0.00401979
0.004742
0.00548615
0.00624872
0.00702595
0.00781393
0.00860857
0.00940561
0.0102007
0.0109893
0.0117668
0.0125288
0.0132705
0.0139875
0.0146751
0.0153292
0.0159455
0.01652
0.0170491
0.0175294
0.017958
0.0183322
0.0186502
0.0189103
0.0191116
0.0192538
0.0193371
0.0193626
0.019332
0.0192476
0.0191127
0.0189311
0.0187075
0.0184471
0.0181561
0.0178412
0.0175096
0.0171692
0.0168285
0.0164959
0.0161803
0.0158905
0.0156355
0.0154238
0.0152605
0.015147
0.00166754
0.00140267
0.00113869
0.000864964
0.000572143
0.000267592
-4.10926e-05
-0.000347493
-0.00064541
-0.000928949
-0.00119267
-0.00143167
-0.00164163
-0.0018188
-0.00195996
-0.00206243
-0.00212401
-0.00214294
-0.0021179
-0.00204791
-0.00193237
-0.00177102
-0.00156383
-0.00131107
-0.00101328
-0.000671219
-0.000285899
0.000141468
0.000609432
0.00111633
0.00166027
0.00223914
0.00285065
0.00349226
0.00416123
0.0048546
0.00556919
0.00630165
0.00704844
0.0078058
0.00856982
0.00933643
0.0101014
0.0108605
0.0116093
0.0123434
0.0130583
0.0137496
0.0144131
0.0150445
0.0156398
0.0161951
0.0167069
0.017172
0.0175874
0.0179507
0.01826
0.0185136
0.0187108
0.018851
0.0189347
0.0189626
0.0189365
0.0188585
0.0187316
0.0185594
0.0183463
0.018097
0.0178173
0.0175131
0.0171912
0.0168586
0.0165225
0.0161907
0.0158706
0.0155697
0.0152959
0.0150566
0.0148497
0.0146705
0.0021787
0.00183348
0.00151435
0.00120377
0.000884117
0.000561358
0.000241916
-6.92827e-05
-0.00036741
-0.000647764
-0.00090594
-0.00113795
-0.00134022
-0.00150965
-0.00164353
-0.00173963
-0.00179608
-0.00181141
-0.00178448
-0.00171448
-0.00160092
-0.00144357
-0.00124245
-0.000997817
-0.000710174
-0.000380237
-8.92582e-06
0.000402631
0.000853091
0.00134091
0.00186431
0.00242134
0.00300985
0.00362745
0.00427153
0.00493932
0.0056278
0.00633379
0.00705389
0.00778453
0.00852196
0.00926226
0.0100014
0.0107352
0.0114595
0.0121699
0.0128622
0.0135321
0.0141753
0.0147879
0.0153659
0.0159054
0.0164031
0.0168556
0.0172604
0.0176147
0.0179169
0.0181652
0.0183587
0.0184972
0.0185806
0.0186099
0.0185865
0.0185124
0.0183906
0.0182241
0.0180171
0.0177741
0.0175001
0.0172007
0.016882
0.0165501
0.0162117
0.0158733
0.0155414
0.0152224
0.0149233
0.0146505
0.0143949
0.0141457
0.00270273
0.00227637
0.00189951
0.00154824
0.00119713
0.000851086
0.000515618
0.000194318
-0.000109208
-0.000391311
-0.000648552
-0.000877784
-0.00107618
-0.00124122
-0.00137075
-0.00146296
-0.00151636
-0.00152973
-0.00150218
-0.00143308
-0.00132206
-0.00116894
-0.000973804
-0.000736925
-0.000458785
-0.000140051
0.000218427
0.000615598
0.00105021
0.00152083
0.0020258
0.00256333
0.00313137
0.00372768
0.00434981
0.00499512
0.00566077
0.00634372
0.00704073
0.00774837
0.00846303
0.00918094
0.0098982
0.0106108
0.0113146
0.0120054
0.0126791
0.0133314
0.0139583
0.0145557
0.0151198
0.0156469
0.0161334
0.0165762
0.0169726
0.0173201
0.0176167
0.0178608
0.0180515
0.0181882
0.0182711
0.0183008
0.0182787
0.0182067
0.0180872
0.0179233
0.0177187
0.0174776
0.0172046
0.0169048
0.0165836
0.0162466
0.0158996
0.0155485
0.0151989
0.0148561
0.0145265
0.0142158
0.0139082
0.0135872
0.00322533
0.00271839
0.00228265
0.0018882
0.00150235
0.00112922
0.000773603
0.000437946
0.00012479
-0.000163173
-0.000423378
-0.000653458
-0.000851255
-0.00101486
-0.00114265
-0.00123321
-0.00128541
-0.00129835
-0.00127137
-0.00120402
-0.00109606
-0.000947402
-0.000758196
-0.00052874
-0.000259498
4.88962e-05
0.00039565
0.000779775
0.0012001
0.00165532
0.0021439
0.00266414
0.00321413
0.00379177
0.00439474
0.00502056
0.00566652
0.00632973
0.00700708
0.00769529
0.00839086
0.00909015
0.00978937
0.0104846
0.0111718
0.0118469
0.0125058
0.0131444
0.0137587
0.0143445
0.0148982
0.0154159
0.0158942
0.01633
0.0167205
0.0170631
0.0173558
0.017597
0.0177856
0.017921
0.0180033
0.0180328
0.0180108
0.0179391
0.0178197
0.0176557
0.0174503
0.0172074
0.0169313
0.0166265
0.016298
0.0159508
0.0155902
0.0152213
0.0148489
0.0144777
0.0141136
0.0137617
0.0134
0.013007
0.00373442
0.00314827
0.00265334
0.00221424
0.00179143
0.00138842
0.0010095
0.000656141
0.000329947
3.27404e-05
-0.000233685
-0.000467666
-0.0006677
-0.000832451
-0.000960758
-0.00105164
-0.00110432
-0.0011182
-0.00109287
-0.00102805
-0.000923622
-0.000779649
-0.000596329
-0.000373982
-0.000113063
0.000185808
0.000521874
0.000894221
0.00130177
0.0017433
0.00221741
0.00272248
0.00325674
0.00381821
0.00440472
0.00501391
0.00564321
0.00628985
0.00695086
0.00762306
0.00830308
0.00898737
0.00967225
0.0103539
0.0110283
0.0116915
0.0123394
0.012968
0.0135731
0.0141509
0.0146974
0.015209
0.0156821
0.0161135
0.0165005
0.0168403
0.0171309
0.0173706
0.0175581
0.0176928
0.0177744
0.0178034
0.0177808
0.0177079
0.017587
0.0174205
0.0172116
0.0169637
0.0166809
0.0163673
0.0160273
0.0156657
0.015287
0.014896
0.0144968
0.0140934
0.0136916
0.0132962
0.0128794
0.0124146
0.00421963
0.00355602
0.00300224
0.00251772
0.00205649
0.00162165
0.00121707
0.000843432
0.000501486
0.000192315
-8.30027e-05
-0.000323453
-0.000528128
-0.000696218
-0.000827007
-0.000919934
-0.000974578
-0.000990627
-0.00096788
-0.000906268
-0.000805839
-0.000666744
-0.000489241
-0.000273693
-2.05625e-05
0.000269548
0.000595922
0.00095771
0.00135391
0.0017834
0.00224486
0.0027368
0.00325756
0.00380526
0.00437789
0.0049732
0.00558875
0.00622189
0.00686974
0.00752924
0.00819713
0.00886995
0.00954407
0.0102157
0.010881
0.0115359
0.0121765
0.0127986
0.0133983
0.0139714
0.0145141
0.0150227
0.0154936
0.0159234
0.0163093
0.0166486
0.016939
0.0171786
0.0173662
0.0175008
0.0175822
0.0176106
0.0175867
0.0175119
0.0173879
0.0172171
0.0170024
0.0167469
0.0164544
0.0161286
0.0157737
0.0153939
0.0149935
0.0145767
0.0141473
0.0137088
0.0132668
0.0128262
0.0123535
0.011818
0.00467191
0.00393283
0.00332092
0.00279072
0.00229021
0.00182219
0.00139026
0.000994373
0.000634564
0.000311256
2.48792e-05
-0.000224159
-0.000435472
-0.000608737
-0.000743698
-0.000840166
-0.000898048
-0.000917315
-0.000897997
-0.000840209
-0.000744151
-0.000610081
-0.000438321
-0.000229271
1.65932e-05
0.00029868
0.000616307
0.00096869
0.00135491
0.00177392
0.0022245
0.00270525
0.00321463
0.00375088
0.00431212
0.0048962
0.0055008
0.00612337
0.00676114
0.00741116
0.00807024
0.00873498
0.00940183
0.0100671
0.0107268
0.0113771
0.0120139
0.0126332
0.0132308
0.0138027
0.014345
0.0148537
0.0153253
0.0157564
0.0161438
0.0164848
0.0167769
0.0170182
0.0172072
0.0173428
0.0174246
0.0174526
0.0174272
0.0173497
0.0172216
0.0170451
0.0168228
0.0165575
0.0162527
0.015912
0.0155392
0.0151382
0.014713
0.0142674
0.013805
0.0133289
0.0128447
0.0123575
0.0118288
0.0112233
0.00508331
0.00427077
0.00360168
0.0030259
0.00248568
0.00198364
0.00152316
0.00110359
0.000724315
0.000385158
8.59898e-05
-0.000173337
-0.000392935
-0.000572918
-0.000713453
-0.000814727
-0.000876944
-0.000900331
-0.00088515
-0.000831709
-0.000740345
-0.000611409
-0.000445288
-0.000242429
-3.3287e-06
0.000271437
0.000581229
0.000925325
0.00130288
0.0017129
0.00215427
0.00262569
0.00312573
0.00365277
0.004205
0.0047804
0.00537674
0.00599159
0.00662229
0.00726593
0.00791941
0.0085794
0.00924237
0.00990463
0.0105623
0.0112115
0.0118482
0.0124681
0.0130672
0.0136414
0.0141865
0.0146986
0.015174
0.0156092
0.0160008
0.0163459
0.016642
0.0168869
0.0170789
0.0172167
0.0172997
0.0173277
0.017301
0.0172206
0.0170877
0.0169044
0.016673
0.0163962
0.0160771
0.0157192
0.015326
0.0149012
0.0144485
0.0139716
0.0134738
0.012958
0.0124301
0.0118952
0.0113102
0.0106356
0.00544671
0.00456265
0.00383744
0.00321645
0.00263644
0.00209989
0.00161008
0.00116579
0.000765868
0.000409562
9.62305e-05
-0.00017474
-0.000403932
-0.000591902
-0.000739195
-0.000846321
-0.000913769
-0.000942033
-0.0009316
-0.000882942
-0.000796515
-0.000672769
-0.000512166
-0.000315199
-8.23756e-05
0.000185758
0.000488603
0.00082548
0.0011956
0.00159806
0.00203182
0.00249571
0.00298838
0.00350833
0.00405385
0.00462302
0.00521373
0.00582362
0.00645012
0.00709042
0.00774144
0.0083999
0.00906233
0.00972504
0.0103842
0.0110358
0.0116758
0.0123
0.0129041
0.0134839
0.0140352
0.0145541
0.0150365
0.0154787
0.0158774
0.0162293
0.0165317
0.0167822
0.0169789
0.0171205
0.0172059
0.0172347
0.0172071
0.0171237
0.0169858
0.016795
0.0165535
0.0162638
0.0159289
0.0155518
0.0151361
0.0146853
0.014203
0.0136926
0.0131574
0.0126001
0.0120271
0.0114437
0.010802
0.010059
0.00575562
0.00480189
0.00402168
0.00335601
0.00273633
0.00216508
0.00164548
0.0011758
0.000754352
0.000379932
5.14278e-05
-0.000232238
-0.000472088
-0.000669069
-0.000824059
-0.000937881
-0.00101131
-0.00104509
-0.0010399
-0.00099636
-0.000915043
-0.00079651
-0.00064129
-0.000449908
-0.000222868
3.93049e-05
0.000336045
0.000666712
0.00103058
0.00142684
0.00185454
0.00231261
0.0027998
0.00331471
0.00385572
0.00442103
0.00500862
0.00561623
0.00624135
0.00688123
0.00753285
0.00819298
0.00885814
0.00952468
0.0101887
0.0108463
0.0114931
0.012125
0.0127377
0.0133267
0.0138878
0.0144167
0.0149094
0.0153619
0.0157705
0.016132
0.0164433
0.0167018
0.0169054
0.0170523
0.0171415
0.0171723
0.0171445
0.0170587
0.0169157
0.0167172
0.0164649
0.0161613
0.0158092
0.0154116
0.0149717
0.0144931
0.0139792
0.0134335
0.0128591
0.0122588
0.0116393
0.0110064
0.0103078
0.00949658
0.00600407
0.00498241
0.00414828
0.00343854
0.00277953
0.00217362
0.001624
0.0011285
0.000684967
0.00029176
-5.26817e-05
-0.000349858
-0.000601184
-0.000807956
-0.000971378
-0.00109258
-0.00117261
-0.00121242
-0.00121285
-0.00117467
-0.0010986
-0.000985271
-0.000835275
-0.00064915
-0.000427402
-0.000170547
0.000120884
0.000446303
0.000805058
0.00119642
0.00161953
0.00207341
0.00255691
0.00306873
0.00360737
0.00417111
0.00475803
0.00536595
0.00599242
0.00663475
0.00728997
0.00795488
0.00862602
0.00929972
0.00997208
0.010639
0.0112963
0.0119396
0.0125643
0.0131662
0.0137406
0.0142831
0.0147894
0.0152554
0.0156773
0.0160513
0.0163743
0.0166434
0.0168561
0.0170106
0.0171053
0.0171394
0.0171126
0.017025
0.0168774
0.016671
0.0164077
0.0160897
0.0157195
0.0153001
0.0148348
0.0143268
0.0137798
0.0131971
0.012582
0.0119372
0.01127
0.0105867
0.00983059
0.00895097
0.00618646
0.00509846
0.00421151
0.00345838
0.00276045
0.00212007
0.00154041
0.00101889
0.000552945
0.000140495
-0.000220426
-0.000531704
-0.000795103
-0.00101226
-0.0011847
-0.00131383
-0.00140092
-0.00144713
-0.00145347
-0.00142086
-0.0013501
-0.00124194
-0.00109698
-0.000915781
-0.000698857
-0.000446705
-0.000159823
0.000161266
0.000515987
0.00090369
0.00132361
0.00177485
0.00225639
0.002767
0.0033053
0.00386968
0.00445828
0.005069
0.00569948
0.00634706
0.00700883
0.0076816
0.00836192
0.0090461
0.00973018
0.01041
0.0110813
0.0117395
0.0123801
0.0129985
0.0135898
0.0141496
0.0146732
0.0151562
0.0155946
0.0159845
0.0163222
0.0166047
0.0168292
0.0169935
0.0170959
0.0171351
0.0171106
0.0170223
0.0168708
0.0166571
0.0163828
0.01605
0.0156612
0.0152193
0.0147274
0.0141889
0.0136073
0.0129862
0.0123289
0.0116382
0.0109221
0.0101874
0.00937289
0.00842433
0.00629749
0.00514464
0.0042059
0.0034101
0.00267374
0.00199919
0.00138962
0.000842063
0.000353537
-7.84275e-05
-0.000456171
-0.000781936
-0.00105783
-0.00128582
-0.00146771
-0.00160516
-0.00169967
-0.00175257
-0.00176503
-0.00173811
-0.00167272
-0.00156963
-0.0014295
-0.0012529
-0.00104036
-0.00079233
-0.000509269
-0.000191636
0.000160066
0.000545277
0.000963321
0.00141341
0.00189461
0.00240582
0.00294574
0.00351286
0.00410541
0.00472137
0.00535843
0.006014
0.00668521
0.00736887
0.00806154
0.00875949
0.00945871
0.010155
0.0108439
0.0115208
0.012181
0.0128196
0.0134317
0.0140125
0.0145571
0.015061
0.0155196
0.0159287
0.0162845
0.0165836
0.0168228
0.0169996
0.0171119
0.0171584
0.017138
0.0170505
0.0168962
0.0166759
0.0163911
0.0160436
0.0156359
0.0151708
0.0146516
0.0140815
0.0134642
0.0128035
0.0121025
0.0113647
0.0105983
0.00981093
0.008937
0.00791847
0.00633206
0.00511572
0.0041262
0.00328843
0.00251421
0.00180589
0.00116666
0.000593164
8.20299e-05
-0.00036956
-0.000764307
-0.0011048
-0.00139347
-0.00163259
-0.00182424
-0.0019703
-0.00207246
-0.00213225
-0.00215099
-0.00212985
-0.00206979
-0.00197167
-0.00183616
-0.00166386
-0.00145527
-0.00121081
-0.000930889
-0.000615896
-0.000266258
0.000117555
0.000534966
0.000985291
0.00146771
0.00198121
0.00252461
0.0030965
0.00369518
0.00431872
0.00496488
0.00563111
0.00631459
0.00701213
0.0077203
0.0084353
0.00915309
0.00986935
0.0105795
0.0112789
0.0119625
0.0126253
0.0132622
0.013868
0.0144376
0.0149662
0.0154488
0.015881
0.0162586
0.0165777
0.0168348
0.0170272
0.0171523
0.0172084
0.0171943
0.0171095
0.0169538
0.016728
0.0164334
0.0160716
0.0156452
0.0151568
0.0146096
0.0140071
0.0133531
0.0126515
0.0119057
0.0111193
0.0103013
0.00945983
0.00852505
0.00743505
0.00628526
0.00500667
0.00396733
0.00308832
0.00227683
0.00153521
0.000866628
0.000267394
-0.000266242
-0.00073744
-0.00114925
-0.00150458
-0.0018062
-0.00205664
-0.00225822
-0.00241306
-0.00252305
-0.00258987
-0.00261498
-0.00259963
-0.00254488
-0.0024516
-0.00232051
-0.00215221
-0.00194716
-0.00170576
-0.00142834
-0.00111524
-0.000766779
-0.000383345
3.45918e-05
0.000486457
0.000971539
0.00148895
0.0020376
0.00261618
0.00322308
0.00385646
0.00451415
0.00519365
0.00589217
0.00660655
0.00733332
0.00806867
0.00880846
0.00954829
0.0102835
0.0110092
0.0117202
0.0124112
0.013077
0.013712
0.0143108
0.0148682
0.0153791
0.0158385
0.0162417
0.0165846
0.0168634
0.0170746
0.0172157
0.0172844
0.0172792
0.0171991
0.017044
0.0168142
0.0165109
0.0161356
0.0156907
0.015179
0.0146036
0.0139682
0.0132766
0.0125329
0.011741
0.0109046
0.0100335
0.00913641
0.00813907
0.00697563
0.00615229
0.00481259
0.00372434
0.00280482
0.00195667
0.00118223
0.00048469
-0.000139991
-0.00069592
-0.00118661
-0.00161543
-0.00198563
-0.00230025
-0.00256208
-0.0027737
-0.00293742
-0.00305533
-0.00312926
-0.00316077
-0.00315121
-0.00310168
-0.00301312
-0.00288626
-0.00272167
-0.0025198
-0.00228099
-0.0020055
-0.00169359
-0.00134551
-0.000961519
-0.000541987
-8.73692e-05
0.000401736
0.00092456
0.00148013
0.00206722
0.00268434
0.00332973
0.00400129
0.00469661
0.00541289
0.00614701
0.00689547
0.00765441
0.00841966
0.00918669
0.00995072
0.0107066
0.0114491
0.0121726
0.0128716
0.0135401
0.0141726
0.0147634
0.0153069
0.0157978
0.016231
0.016602
0.0169063
0.0171404
0.0173009
0.0173855
0.0173921
0.0173195
0.0171671
0.0169353
0.0166247
0.016237
0.0157744
0.0152397
0.014636
0.0139672
0.0132373
0.0124507
0.0116113
0.0107234
0.00979748
0.00884306
0.0077811
0.00654178
0.00592845
0.00452871
0.00339241
0.00243308
0.00154889
0.000742159
1.60987e-05
-0.000633677
-0.00121163
-0.00172162
-0.00216734
-0.00255233
-0.0028799
-0.00315312
-0.00337479
-0.00354744
-0.00367331
-0.00375435
-0.00379226
-0.00378845
-0.00374408
-0.00366012
-0.00353729
-0.00337616
-0.00317713
-0.00294048
-0.00266642
-0.00235509
-0.00200665
-0.00162126
-0.00119916
-0.000740682
-0.000246301
0.000283336
0.00084737
0.00144469
0.00207393
0.0027334
0.00342111
0.00413468
0.00487138
0.00562808
0.00640129
0.0071871
0.00798126
0.00877917
0.00957586
0.0103661
0.0111442
0.0119046
0.0126412
0.0133479
0.0140188
0.0146476
0.0152285
0.0157557
0.0162236
0.0166271
0.0169615
0.0172226
0.0174067
0.0175108
0.0175326
0.0174706
0.0173237
0.017092
0.0167762
0.0163775
0.0158982
0.0153411
0.0147094
0.0140069
0.0132381
0.0124075
0.0115195
0.0105786
0.00959603
0.00858224
0.00745329
0.00613519
0.00560907
0.00415029
0.00296676
0.00196832
0.0010487
0.000210245
-0.000543851
-0.00121832
-0.00181799
-0.00234702
-0.00280943
-0.00320905
-0.00354947
-0.00383402
-0.00406571
-0.00424725
-0.00438106
-0.0044692
-0.00451347
-0.00451535
-0.00447607
-0.00439658
-0.00427763
-0.00411973
-0.00392325
-0.0036884
-0.00341531
-0.00310402
-0.00275458
-0.00236704
-0.00194149
-0.00147815
-0.000977362
-0.000439632
0.000134306
0.000743472
0.0013866
0.00206214
0.00276815
0.00350235
0.00426204
0.00504412
0.00584508
0.006661
0.00748756
0.00832003
0.00915331
0.00998193
0.0108001
0.0116018
0.0123807
0.0131305
0.0138447
0.0145167
0.0151401
0.0157086
0.0162163
0.0166574
0.0170267
0.0173195
0.0175316
0.0176595
0.0177005
0.0176525
0.0175143
0.0172856
0.0169667
0.0165589
0.0160643
0.0154856
0.0148262
0.0140902
0.013282
0.0124065
0.0114686
0.0104731
0.00943199
0.00835662
0.00715798
0.00575772
0.00518953
0.00367266
0.00244268
0.00140581
0.000451403
-0.000418205
-0.00119984
-0.00189857
-0.00251958
-0.00306734
-0.00354618
-0.00396022
-0.00431334
-0.00460908
-0.0048507
-0.00504107
-0.00518275
-0.00527793
-0.00532851
-0.00533602
-0.00530174
-0.00522662
-0.00511139
-0.00495654
-0.00476236
-0.00452901
-0.00425651
-0.00394481
-0.00359382
-0.00320346
-0.00277371
-0.00230463
-0.00179641
-0.00124943
-0.000664272
-4.1782e-05
0.000616912
0.00131036
0.00203673
0.00279383
0.00357899
0.00438917
0.00522086
0.00607011
0.00693253
0.0078033
0.00867714
0.00954839
0.010411
0.0112588
0.012085
0.0128829
0.0136455
0.014366
0.0150374
0.0156528
0.0162057
0.0166898
0.0170994
0.0174292
0.0176743
0.0178307
0.0178953
0.0178654
0.0177396
0.017517
0.0171978
0.0167832
0.016275
0.015676
0.0149896
0.0142201
0.0133722
0.0124512
0.0114621
0.0104102
0.0093085
0.00816913
0.00689779
0.0054115
0.00466521
0.00309118
0.00181552
0.000740892
-0.000247662
-0.00114785
-0.00195651
-0.00267905
-0.00332097
-0.00388711
-0.00438207
-0.00481028
-0.00517588
-0.00548265
-0.00573405
-0.00593312
-0.00608257
-0.00618473
-0.00624154
-0.00625462
-0.00622526
-0.00615442
-0.00604279
-0.00589084
-0.00569877
-0.00546667
-0.00519446
-0.00488197
-0.00452898
-0.00413527
-0.00370066
-0.00322507
-0.00270854
-0.00215128
-0.00155373
-0.000916559
-0.000240772
0.000472313
0.00122099
0.00200313
0.00281617
0.00365709
0.00452242
0.00540818
0.00630993
0.00722272
0.00814114
0.00905934
0.00997104
0.0108696
0.0117482
0.0125995
0.0134162
0.0141909
0.014916
0.0155842
0.0161883
0.0167214
0.0171772
0.0175495
0.0178332
0.0180235
0.0181166
0.0181095
0.0180002
0.0177875
0.0174713
0.0170525
0.0165328
0.0159151
0.0152027
0.0144002
0.0135124
0.0125451
0.0115035
0.0103935
0.00922904
0.00802303
0.00667563
0.00509902
0.00403155
0.00240124
0.00108066
-3.10618e-05
-0.00105315
-0.00198333
-0.00281847
-0.00356432
-0.00422673
-0.00481084
-0.00532158
-0.00576367
-0.0061415
-0.00645908
-0.00672007
-0.00692769
-0.0070848
-0.00719381
-0.00725678
-0.00727536
-0.00725084
-0.0071842
-0.00707609
-0.00692691
-0.00673683
-0.00650581
-0.00623366
-0.00592009
-0.00556474
-0.00516724
-0.00472725
-0.00424452
-0.00371893
-0.00315051
-0.00253952
-0.00188647
-0.0011922
-0.000457891
0.000314879
0.0011241
0.00196729
0.00284152
0.00374332
0.00466873
0.00561323
0.00657178
0.00753884
0.00850836
0.00947381
0.0104283
0.0113645
0.0122748
0.0131514
0.0139862
0.0147713
0.0154986
0.0161603
0.0167488
0.0172571
0.0176784
0.0180067
0.0182367
0.0183639
0.0183848
0.0182968
0.0180983
0.0177889
0.0173691
0.0168406
0.016206
0.015469
0.014634
0.0137065
0.0126922
0.011597
0.0104271
0.00919748
0.007922
0.00649487
0.00482318
0.003284
0.00159827
0.000233496
-0.000914674
-0.00196967
-0.00292926
-0.00379033
-0.00455897
-0.00524139
-0.00584306
-0.00636921
-0.00682483
-0.00721459
-0.00754272
-0.00781308
-0.00802907
-0.00819367
-0.00830943
-0.00837845
-0.00840244
-0.0083827
-0.00832019
-0.00821554
-0.00806908
-0.00788088
-0.00765083
-0.00737859
-0.00706375
-0.00670579
-0.00630419
-0.00585842
-0.00536807
-0.0048328
-0.00425248
-0.00362716
-0.00295718
-0.0022432
-0.00148625
-0.00068773
0.000150462
0.00102598
0.00193594
0.00287696
0.00384506
0.0048357
0.00584375
0.00686353
0.0078888
0.0089128
0.00992829
0.0109276
0.0119027
0.0128452
0.0137466
0.0145982
0.0153914
0.0161176
0.0167685
0.0173362
0.0178134
0.0181931
0.0184693
0.0186369
0.0186916
0.0186303
0.0184509
0.0181526
0.0177355
0.0172012
0.0165522
0.0157922
0.0149259
0.0139587
0.0128971
0.0117471
0.0105155
0.00921817
0.00787017
0.00635934
0.00458736
0.00241802
0.000677702
-0.000730554
-0.00191454
-0.00300181
-0.00399021
-0.00487665
-0.00566756
-0.00636951
-0.00698828
-0.00752942
-0.0079982
-0.00839954
-0.00873791
-0.00901738
-0.00924152
-0.00941345
-0.00953581
-0.00961077
-0.00964007
-0.00962504
-0.00956662
-0.00946538
-0.0093216
-0.00913526
-0.00890612
-0.00863373
-0.00831751
-0.0079568
-0.00755089
-0.00709908
-0.00660074
-0.00605535
-0.00546253
-0.00482217
-0.00413438
-0.00339964
-0.00261877
-0.00179302
-0.000924117
-1.42706e-05
0.000933753
0.00191661
0.00293037
0.00397046
0.0050317
0.00610828
0.00719377
0.0082812
0.00936299
0.0104311
0.011477
0.0124919
0.0134665
0.0143917
0.0152579
0.016056
0.0167768
0.0174115
0.017952
0.0183905
0.0187202
0.018935
0.0190301
0.0190017
0.018847
0.0185647
0.0181547
0.0176182
0.0169576
0.0161767
0.0152802
0.014274
0.0131646
0.0119587
0.0106635
0.00929602
0.00787228
0.00627347
0.00439553
0.00142907
-0.000365019
-0.00181605
-0.00303522
-0.00415416
-0.00517077
-0.006082
-0.00689464
-0.00761561
-0.008251
-0.00880667
-0.00928819
-0.00970072
-0.010049
-0.0103373
-0.0105693
-0.0107484
-0.0108771
-0.0109579
-0.0109924
-0.010982
-0.0109276
-0.0108298
-0.0106887
-0.0105042
-0.010276
-0.0100034
-0.00968582
-0.00932232
-0.00891203
-0.00845404
-0.0079475
-0.00739166
-0.00678594
-0.00612998
-0.00542369
-0.00466731
-0.00386145
-0.00300716
-0.00210597
-0.00115994
-0.000171705
0.000855485
0.00191774
0.00301052
0.00412858
0.00526602
0.00641625
0.00757203
0.0087255
0.00986822
0.0109912
0.012085
0.01314
0.014146
0.015093
0.0159709
0.0167696
0.0174796
0.0180916
0.018597
0.018988
0.0192578
0.0194006
0.0194118
0.0192881
0.0190275
0.0186295
0.0180951
0.0174264
0.0166271
0.0157021
0.0146575
0.0135003
0.0122376
0.0108769
0.00943657
0.00793369
0.00624232
0.00425235
0.000312654
-0.0015344
-0.00302753
-0.00428126
-0.00543127
-0.00647551
-0.00741097
-0.00824478
-0.00898422
-0.0096357
-0.0102054
-0.0106992
-0.0111225
-0.0114803
-0.011777
-0.0120167
-0.0122025
-0.0123375
-0.0124238
-0.0124634
-0.0124576
-0.0124072
-0.0123127
-0.0121743
-0.0119917
-0.0117645
-0.0114919
-0.011173
-0.0108067
-0.0103921
-0.00992791
-0.0094131
-0.00884667
-0.0082278
-0.00755588
-0.00683057
-0.00605187
-0.00522013
-0.00433618
-0.00340132
-0.00241745
-0.00138702
-0.000313178
0.00080029
0.00194887
0.00312731
0.00432962
0.00554907
0.00677818
0.0080088
0.00923208
0.0104386
0.0116183
0.0127609
0.0138557
0.0148916
0.0158576
0.016743
0.0175369
0.0182293
0.0188104
0.0192715
0.0196047
0.0198033
0.0198618
0.0197762
0.0195438
0.0191635
0.0186359
0.017963
0.0171484
0.0161971
0.0151153
0.0139104
0.0125899
0.011162
0.00964606
0.00806049
0.00627171
0.00416317
-0.00093568
-0.00283495
-0.00436952
-0.00565723
-0.00683771
-0.00790899
-0.00886809
-0.0097225
-0.0104798
-0.0111468
-0.01173
-0.0122356
-0.0126692
-0.013036
-0.0133408
-0.0135877
-0.01378
-0.0139209
-0.0140126
-0.0140571
-0.0140557
-0.0140092
-0.0139181
-0.0137824
-0.0136018
-0.0133756
-0.0131031
-0.012783
-0.0124142
-0.0119954
-0.0115251
-0.0110021
-0.010425
-0.00979296
-0.0091049
-0.00836025
-0.00755873
-0.00670043
-0.0057859
-0.00481622
-0.00379304
-0.00271865
-0.001596
-0.000428778
0.000778579
0.00202084
0.00329195
0.00458506
0.00589249
0.00720577
0.00851569
0.00981234
0.0110852
0.0123231
0.0135146
0.014648
0.0157112
0.0166924
0.0175798
0.0183621
0.0190286
0.0195693
0.0199752
0.0202386
0.0203529
0.0203133
0.0201163
0.0197602
0.0192451
0.0185727
0.0177464
0.0167713
0.0156538
0.0144016
0.0130227
0.0115257
0.00993152
0.00825956
0.00636823
0.00413416
-0.00232036
-0.00427113
-0.00584653
-0.00716766
-0.00837806
-0.00947579
-0.0104579
-0.0113323
-0.012107
-0.0127889
-0.013385
-0.0139017
-0.0143451
-0.0147204
-0.0150328
-0.0152863
-0.0154848
-0.0156312
-0.015728
-0.0157771
-0.0157799
-0.0157373
-0.0156495
-0.0155165
-0.0153379
-0.015113
-0.0148407
-0.0145196
-0.0141485
-0.0137257
-0.0132496
-0.0127185
-0.0121311
-0.0114859
-0.0107817
-0.0100176
-0.00919297
-0.00830763
-0.00736185
-0.0063564
-0.00529269
-0.00417276
-0.00299937
-0.00177604
-0.000507098
0.000802274
0.00214601
0.00351714
0.00490782
0.0063093
0.00771201
0.00910555
0.0104788
0.01182
0.0131169
0.0143567
0.0155266
0.0166134
0.0176044
0.018487
0.0192493
0.0198799
0.0203687
0.0207068
0.0208864
0.0209017
0.0207483
0.0204237
0.0199275
0.019261
0.0184273
0.0174315
0.0162802
0.0149816
0.0135438
0.0119762
0.0103009
0.00853871
0.00653946
0.00417247
-0.00384577
-0.0058474
-0.00746308
-0.00881709
-0.0100569
-0.0111805
-0.0121851
-0.0130788
-0.0138701
-0.0145664
-0.0151747
-0.0157019
-0.0161543
-0.0165376
-0.0168568
-0.0171165
-0.0173205
-0.017472
-0.0175735
-0.017627
-0.0176338
-0.0175947
-0.0175101
-0.0173799
-0.0172034
-0.0169798
-0.0167079
-0.0163862
-0.016013
-0.0155865
-0.0151049
-0.0145662
-0.0139687
-0.0133106
-0.0125905
-0.011807
-0.0109592
-0.0100466
-0.00906908
-0.00802717
-0.00692194
-0.00575515
-0.00452931
-0.00324774
-0.00191462
-0.000535024
0.000884984
0.00233838
0.00381718
0.00531238
0.00681406
0.00831138
0.00979262