/*--------------------------------*- C++ -*----------------------------------*\
  =========                 |
  \\      /  F ield         | OpenFOAM: The Open Source CFD Toolbox
   \\    /   O peration     | Website:  https://openfoam.org
    \\  /    A nd           | Version:  9
     \\/     M anipulation  |
\*---------------------------------------------------------------------------*/
FoamFile
{
    format      ascii;
    class       surfaceScalarField;
    location    "0.3";
    object      phi;
}
// * * * * * * * * * * * * * * * * * * * * * * * * * * * * * * * * * * * * * //

dimensions      [0 3 -1 0 0 0 0];

internalField   nonuniform List<scalar> 
12640
(
1.91166e-10
-1.91037e-10
5.39204e-10
-3.48044e-10
8.32681e-10
-2.93483e-10
9.52075e-10
-1.19377e-10
8.41198e-10
1.1086e-10
4.78537e-10
3.62663e-10
-1.38136e-10
6.16659e-10
-9.99957e-10
8.61795e-10
-2.0918e-09
1.09186e-09
-3.39518e-09
1.30337e-09
-4.88974e-09
1.49455e-09
-6.55436e-09
1.66464e-09
-8.36781e-09
1.81347e-09
-1.03092e-08
1.94133e-09
-1.23579e-08
2.04878e-09
-1.44944e-08
2.13647e-09
-1.66996e-08
2.20518e-09
-1.89553e-08
2.25575e-09
-2.12443e-08
2.28898e-09
-2.355e-08
2.30568e-09
-2.58566e-08
2.30667e-09
-2.81493e-08
2.29268e-09
-3.04137e-08
2.26442e-09
-3.26363e-08
2.22253e-09
-3.48039e-08
2.16765e-09
-3.69042e-08
2.10035e-09
-3.89254e-08
2.02119e-09
-4.08561e-08
1.93068e-09
-4.26855e-08
1.82935e-09
-4.44031e-08
1.71768e-09
-4.59993e-08
1.59616e-09
-4.74647e-08
1.46533e-09
-4.87904e-08
1.32569e-09
-4.99682e-08
1.17779e-09
-5.09904e-08
1.02224e-09
-5.185e-08
8.59638e-10
-5.25407e-08
6.9069e-10
-5.30568e-08
5.16147e-10
-5.33936e-08
3.36794e-10
-5.35472e-08
1.53512e-10
-5.35144e-08
-3.27422e-11
-5.32935e-08
-2.20971e-10
-5.28834e-08
-4.1009e-10
-5.22844e-08
-5.98931e-10
-5.14981e-08
-7.86291e-10
-5.05272e-08
-9.709e-10
-4.93758e-08
-1.15141e-09
-4.80493e-08
-1.32646e-09
-4.65547e-08
-1.49465e-09
-4.49002e-08
-1.65454e-09
-4.30955e-08
-1.80468e-09
-4.11518e-08
-1.94364e-09
-3.90818e-08
-2.07002e-09
-3.68994e-08
-2.18244e-09
-3.46198e-08
-2.27957e-09
-3.22596e-08
-2.36016e-09
-2.98366e-08
-2.42304e-09
-2.73695e-08
-2.46713e-09
-2.4878e-08
-2.49149e-09
-2.23827e-08
-2.49531e-09
-1.99047e-08
-2.47793e-09
-1.74659e-08
-2.43883e-09
-1.50882e-08
-2.37768e-09
-1.27938e-08
-2.29436e-09
-1.06049e-08
-2.18892e-09
-8.54326e-09
-2.06165e-09
-6.63018e-09
-1.91308e-09
-4.88615e-09
-1.74402e-09
-3.33055e-09
-1.5556e-09
-1.98121e-09
-1.34935e-09
-8.53924e-10
-1.1273e-09
3.83013e-11
-8.92221e-10
6.8632e-10
-6.48015e-10
1.08638e-09
-4.00064e-10
1.24297e-09
-1.56598e-10
1.17324e-09
6.97344e-11
9.14406e-10
2.58835e-10
5.3677e-10
3.77636e-10
1.67252e-10
3.69511e-10
1.67251e-10
3.47692e-10
-5.3875e-10
8.13959e-10
-8.14279e-10
1.0615e-09
-5.41039e-10
8.78387e-10
6.37563e-11
1.39197e-10
8.50036e-10
-1.21796e-09
1.71987e-09
-3.21175e-09
2.61046e-09
-5.83214e-09
3.48219e-09
-9.05055e-09
4.31028e-09
-1.28267e-08
5.07948e-09
-1.71129e-08
5.7808e-09
-2.18576e-08
6.40929e-09
-2.70069e-08
6.96276e-09
-3.25065e-08
7.44088e-09
-3.83022e-08
7.84449e-09
-4.43411e-08
8.17532e-09
-5.05715e-08
8.43556e-09
-5.69434e-08
8.62772e-09
-6.34089e-08
8.75444e-09
-6.99216e-08
8.81845e-09
-7.64374e-08
8.82247e-09
-8.29138e-08
8.76911e-09
-8.93104e-08
8.66094e-09
-9.55882e-08
8.50038e-09
-1.0171e-07
8.28973e-09
-1.07641e-07
8.0312e-09
-1.13347e-07
7.7269e-09
-1.18795e-07
7.37888e-09
-1.23955e-07
6.98912e-09
-1.28797e-07
6.5596e-09
-1.33293e-07
6.09231e-09
-1.37417e-07
5.58929e-09
-1.41144e-07
5.05265e-09
-1.44451e-07
4.48459e-09
-1.47316e-07
3.88748e-09
-1.4972e-07
3.26384e-09
-1.51646e-07
2.61636e-09
-1.53078e-07
1.94799e-09
-1.54003e-07
1.26186e-09
-1.54411e-07
5.61347e-10
-1.54293e-07
-1.49884e-10
-1.53646e-07
-8.67929e-10
-1.52468e-07
-1.58867e-09
-1.50759e-07
-2.30769e-09
-1.48525e-07
-3.02036e-09
-1.45774e-07
-3.72185e-09
-1.42518e-07
-4.40717e-09
-1.38774e-07
-5.07114e-09
-1.3456e-07
-5.70848e-09
-1.29901e-07
-6.31386e-09
-1.24823e-07
-6.88192e-09
-1.1936e-07
-7.40731e-09
-1.13545e-07
-7.88478e-09
-1.07418e-07
-8.30927e-09
-1.01022e-07
-8.67588e-09
-9.44019e-08
-8.97999e-09
-8.76076e-08
-9.21732e-09
-8.06907e-08
-9.38399e-09
-7.37056e-08
-9.47658e-09
-6.67088e-08
-9.49217e-09
-5.97583e-08
-9.42841e-09
-5.29135e-08
-9.28363e-09
-4.62343e-08
-9.05681e-09
-3.9781e-08
-8.74769e-09
-3.36131e-08
-8.35683e-09
-2.7789e-08
-7.8857e-09
-2.23653e-08
-7.33677e-09
-1.73957e-08
-6.71367e-09
-1.293e-08
-6.02136e-09
-9.01279e-09
-5.26651e-09
-5.68217e-09
-4.45791e-09
-2.96713e-09
-3.60726e-09
-8.84913e-10
-2.73025e-09
5.63395e-10
-1.84839e-09
1.39866e-09
-9.91865e-10
1.6723e-09
-2.039e-10
1.47838e-09
4.52734e-10
9.68924e-10
8.87078e-10
3.68951e-10
9.69483e-10
5.36199e-10
2.9507e-10
-8.33825e-10
5.453e-10
-1.06454e-09
3.71095e-10
-3.66861e-10
-4.72794e-10
9.07626e-10
-2.14095e-09
2.51819e-09
-4.71677e-09
4.29565e-09
-8.23018e-09
6.1239e-09
-1.26728e-08
7.92484e-09
-1.80092e-08
9.64667e-09
-2.41854e-08
1.12557e-08
-3.11351e-08
1.27304e-08
-3.8784e-08
1.40582e-08
-4.70534e-08
1.52322e-08
-5.58624e-08
1.62499e-08
-6.51294e-08
1.71115e-08
-7.47736e-08
1.78194e-08
-8.47153e-08
1.83773e-08
-9.48772e-08
1.87896e-08
-1.05184e-07
1.90613e-08
-1.15563e-07
1.91979e-08
-1.25946e-07
1.92045e-08
-1.36263e-07
1.90866e-08
-1.46452e-07
1.88495e-08
-1.56449e-07
1.84981e-08
-1.66197e-07
1.80374e-08
-1.75638e-07
1.74722e-08
-1.84718e-07
1.6807e-08
-1.93386e-07
1.60463e-08
-2.01591e-07
1.51945e-08
-2.09287e-07
1.4256e-08
-2.1643e-07
1.32352e-08
-2.22978e-07
1.21367e-08
-2.2889e-07
1.09652e-08
-2.34131e-07
9.72577e-09
-2.38667e-07
8.42355e-09
-2.42468e-07
7.06419e-09
-2.45505e-07
5.65373e-09
-2.47756e-07
4.1986e-09
-2.492e-07
2.70578e-09
-2.49821e-07
1.18272e-09
-2.49608e-07
-3.62629e-10
-2.48555e-07
-1.92176e-09
-2.46658e-07
-3.48564e-09
-2.4392e-07
-5.04476e-09
-2.40352e-07
-6.58913e-09
-2.35965e-07
-8.10832e-09
-2.30781e-07
-9.59155e-09
-2.24824e-07
-1.10277e-08
-2.18127e-07
-1.24056e-08
-2.10727e-07
-1.37138e-08
-2.02668e-07
-1.49407e-08
-1.94001e-07
-1.60751e-08
-1.8478e-07
-1.71058e-08
-1.75067e-07
-1.8022e-08
-1.64929e-07
-1.88134e-08
-1.54439e-07
-1.94702e-08
-1.43673e-07
-1.99835e-08
-1.32712e-07
-2.03451e-08
-1.21641e-07
-2.05478e-08
-1.10547e-07
-2.05856e-08
-9.95217e-08
-2.04539e-08
-8.8656e-08
-2.01493e-08
-7.80429e-08
-1.96699e-08
-6.77749e-08
-1.90157e-08
-5.79435e-08
-1.81882e-08
-4.86379e-08
-1.71913e-08
-3.99437e-08
-1.60309e-08
-3.19417e-08
-1.47157e-08
-2.47059e-08
-1.32571e-08
-1.83017e-08
-1.16707e-08
-1.27832e-08
-9.97645e-09
-8.19002e-09
-8.20045e-09
-4.54326e-09
-6.37701e-09
-1.83997e-09
-4.55167e-09
-4.60899e-11
-2.78575e-09
9.12825e-10
-1.16282e-09
1.16297e-09
2.0257e-10
8.95409e-10
1.15464e-09
3.79436e-10
1.48546e-09
9.15628e-10
1.25832e-10
-9.59638e-10
-4.99502e-11
-8.88747e-10
-8.91569e-10
4.74718e-10
-2.64238e-09
2.65851e-09
-5.45969e-09
5.33545e-09
-9.43083e-09
8.26683e-09
-1.45881e-08
1.12812e-08
-2.09217e-08
1.42584e-08
-2.83901e-08
1.71151e-08
-3.69289e-08
1.97945e-08
-4.64579e-08
2.22594e-08
-5.68855e-08
2.44858e-08
-6.81135e-08
2.64602e-08
-8.00394e-08
2.81758e-08
-9.25593e-08
2.96314e-08
-1.05569e-07
3.08289e-08
-1.18965e-07
3.17733e-08
-1.32646e-07
3.24709e-08
-1.46514e-07
3.29292e-08
-1.60473e-07
3.31566e-08
-1.7443e-07
3.31613e-08
-1.88295e-07
3.29522e-08
-2.01983e-07
3.25378e-08
-2.15412e-07
3.19265e-08
-2.28501e-07
3.11265e-08
-2.41175e-07
3.01459e-08
-2.5336e-07
2.89925e-08
-2.64988e-07
2.76741e-08
-2.75992e-07
2.61983e-08
-2.86308e-07
2.45728e-08
-2.95879e-07
2.28055e-08
-3.04646e-07
2.09043e-08
-3.12559e-07
1.88776e-08
-3.19567e-07
1.67342e-08
-3.25627e-07
1.44833e-08
-3.30698e-07
1.21348e-08
-3.34743e-07
9.69923e-09
-3.37732e-07
7.18788e-09
-3.39639e-07
4.61285e-09
-3.40444e-07
1.98708e-09
-3.40131e-07
-6.7561e-10
-3.38692e-07
-3.36056e-09
-3.36125e-07
-6.05225e-09
-3.32436e-07
-8.7343e-09
-3.27635e-07
-1.13896e-08
-3.21743e-07
-1.40003e-08
-3.14787e-07
-1.65481e-08
-3.068e-07
-1.90141e-08
-2.97827e-07
-2.13791e-08
-2.87917e-07
-2.36236e-08
-2.77129e-07
-2.57283e-08
-2.6553e-07
-2.76741e-08
-2.53194e-07
-2.9442e-08
-2.40202e-07
-3.10138e-08
-2.26644e-07
-3.23722e-08
-2.12613e-07
-3.35009e-08
-1.98212e-07
-3.43846e-08
-1.83547e-07
-3.50099e-08
-1.6873e-07
-3.53649e-08
-1.53876e-07
-3.54398e-08
-1.39103e-07
-3.52268e-08
-1.24532e-07
-3.47207e-08
-1.10282e-07
-3.39189e-08
-9.64763e-08
-3.28218e-08
-8.32316e-08
-3.1433e-08
-7.06635e-08
-2.97594e-08
-5.88822e-08
-2.78123e-08
-4.79907e-08
-2.56071e-08
-3.80829e-08
-2.31649e-08
-2.92407e-08
-2.0513e-08
-2.15309e-08
-1.76862e-08
-1.50016e-08
-1.47298e-08
-9.67719e-09
-1.17014e-08
-5.5531e-09
-8.67578e-09
-2.58836e-09
-5.7505e-09
-6.97567e-10
-3.05363e-09
2.59123e-10
-7.54124e-10
4.86706e-10
9.27068e-10
2.68315e-10
1.70385e-09
1.18394e-09
-1.00057e-10
-8.59587e-10
-8.31042e-10
-1.57787e-10
-2.50291e-09
2.14659e-09
-5.33113e-09
5.4867e-09
-9.45657e-09
9.46091e-09
-1.49571e-08
1.37674e-08
-2.18584e-08
1.81825e-08
-3.01441e-08
2.25441e-08
-3.97651e-08
2.6736e-08
-5.06473e-08
3.06768e-08
-6.26984e-08
3.43104e-08
-7.58127e-08
3.76001e-08
-8.98757e-08
4.05232e-08
-1.04768e-07
4.30677e-08
-1.20365e-07
4.52291e-08
-1.36545e-07
4.70088e-08
-1.53184e-07
4.84119e-08
-1.70159e-07
4.94465e-08
-1.87353e-07
5.01226e-08
-2.04648e-07
5.04514e-08
-2.21931e-07
5.04449e-08
-2.39094e-07
5.01153e-08
-2.56031e-07
4.9475e-08
-2.72641e-07
4.85363e-08
-2.88826e-07
4.73113e-08
-3.04492e-07
4.5812e-08
-3.1955e-07
4.40503e-08
-3.33914e-07
4.20378e-08
-3.47502e-07
3.97863e-08
-3.60236e-07
3.73076e-08
-3.72045e-07
3.46137e-08
-3.82857e-07
3.17169e-08
-3.9261e-07
2.86302e-08
-4.01243e-07
2.53671e-08
-4.08701e-07
2.19418e-08
-4.14936e-07
1.83696e-08
-4.19903e-07
1.46668e-08
-4.23566e-07
1.08505e-08
-4.25892e-07
6.93927e-09
-4.26858e-07
2.95292e-09
-4.26446e-07
-1.08759e-09
-4.24647e-07
-5.15998e-09
-4.21458e-07
-9.24071e-09
-4.16888e-07
-1.33051e-08
-4.1095e-07
-1.73273e-08
-4.0367e-07
-2.12804e-08
-3.95081e-07
-2.5137e-08
-3.85227e-07
-2.88685e-08
-3.74159e-07
-3.24464e-08
-3.61941e-07
-3.58415e-08
-3.48645e-07
-3.90248e-08
-3.34351e-07
-4.19679e-08
-3.19151e-07
-4.46425e-08
-3.03143e-07
-4.70217e-08
-2.86435e-07
-4.90795e-08
-2.69145e-07
-5.07917e-08
-2.51393e-07
-5.21361e-08
-2.3331e-07
-5.30926e-08
-2.15031e-07
-5.3644e-08
-1.96695e-07
-5.37757e-08
-1.78445e-07
-5.34768e-08
-1.60426e-07
-5.27401e-08
-1.42783e-07
-5.15622e-08
-1.2566e-07
-4.99444e-08
-1.092e-07
-4.78928e-08
-9.35407e-08
-4.5419e-08
-7.88124e-08
-4.25406e-08
-6.51373e-08
-3.92821e-08
-5.26263e-08
-3.5676e-08
-4.13752e-08
-3.1764e-08
-3.14622e-08
-2.75993e-08
-2.29432e-08
-2.32487e-08
-1.58477e-08
-1.87969e-08
-1.01728e-08
-1.43507e-08
-5.87718e-09
-1.00461e-08
-2.87434e-09
-6.05647e-09
-1.0245e-09
-2.60396e-09
-1.26381e-10
2.895e-11
9.27779e-11
1.48468e-09
1.27672e-09
-3.51047e-10
-5.08539e-10
-1.70929e-09
1.20047e-09
-4.31186e-09
4.7491e-09
-8.32911e-09
9.50397e-09
-1.38721e-08
1.50039e-08
-2.09983e-08
2.08936e-08
-2.97188e-08
2.6903e-08
-4.00056e-08
3.28309e-08
-5.17992e-08
3.85296e-08
-6.50145e-08
4.38921e-08
-7.95476e-08
4.88435e-08
-9.528e-08
5.33325e-08
-1.12083e-07
5.73265e-08
-1.29822e-07
6.08068e-08
-1.48358e-07
6.3765e-08
-1.6755e-07
6.62007e-08
-1.87258e-07
6.81192e-08
-2.07341e-07
6.95298e-08
-2.27663e-07
7.04447e-08
-2.48089e-07
7.08781e-08
-2.6849e-07
7.08454e-08
-2.88738e-07
7.03629e-08
-3.08709e-07
6.94469e-08
-3.28287e-07
6.81141e-08
-3.47357e-07
6.63811e-08
-3.65809e-07
6.42643e-08
-3.83539e-07
6.178e-08
-4.00446e-07
5.89447e-08
-4.16434e-07
5.57747e-08
-4.31413e-07
5.22866e-08
-4.45297e-07
4.84976e-08
-4.58006e-07
4.44251e-08
-4.69463e-07
4.00875e-08
-4.796e-07
3.55038e-08
-4.88352e-07
3.06945e-08
-4.95664e-07
2.5681e-08
-5.01483e-07
2.04863e-08
-5.05767e-07
1.51347e-08
-5.0848e-07
9.65239e-09
-5.09595e-07
4.06706e-09
-5.0909e-07
-1.59184e-09
-5.06957e-07
-7.29315e-09
-5.03194e-07
-1.3004e-08
-4.97809e-07
-1.86899e-08
-4.90821e-07
-2.4315e-08
-4.8226e-07
-2.9842e-08
-4.72164e-07
-3.52326e-08
-4.60585e-07
-4.04475e-08
-4.47585e-07
-4.54469e-08
-4.33235e-07
-5.01908e-08
-4.17621e-07
-5.46392e-08
-4.00836e-07
-5.87525e-08
-3.82986e-07
-6.24923e-08
-3.64187e-07
-6.58212e-08
-3.44563e-07
-6.87038e-08
-3.24247e-07
-7.11068e-08
-3.03384e-07
-7.29997e-08
-2.82121e-07
-7.43553e-08
-2.60615e-07
-7.51501e-08
-2.39026e-07
-7.53646e-08
-2.17519e-07
-7.49842e-08
-1.9626e-07
-7.39994e-08
-1.75415e-07
-7.24064e-08
-1.55152e-07
-7.02078e-08
-1.35632e-07
-6.74129e-08
-1.17012e-07
-6.40388e-08
-9.9442e-08
-6.01107e-08
-8.30604e-08
-5.56637e-08
-6.79929e-08
-5.07435e-08
-5.43487e-08
-4.54083e-08
-4.22168e-08
-3.97312e-08
-3.16619e-08
-3.38035e-08
-2.27206e-08
-2.77382e-08
-1.53958e-08
-2.16755e-08
-9.65192e-09
-1.579e-08
-5.40931e-09
-1.02991e-08
-2.53866e-09
-5.4746e-09
-8.55624e-10
-1.65409e-09
-1.14787e-10
7.43845e-10
1.16193e-09
-6.10079e-10
1.01535e-10
-2.63012e-09
3.22051e-09
-6.21874e-09
8.33775e-09
-1.14921e-08
1.47773e-08
-1.85222e-08
2.20339e-08
-2.73382e-08
2.97095e-08
-3.79301e-08
3.74949e-08
-5.02534e-08
4.51542e-08
-6.42344e-08
5.25106e-08
-7.97757e-08
5.94335e-08
-9.67608e-08
6.58286e-08
-1.15059e-07
7.16305e-08
-1.34528e-07
7.6796e-08
-1.55021e-07
8.1299e-08
-1.76382e-07
8.51268e-08
-1.98458e-07
8.82765e-08
-2.21092e-07
9.07531e-08
-2.44129e-07
9.25668e-08
-2.67416e-07
9.37318e-08
-2.90803e-07
9.42654e-08
-3.14144e-07
9.41864e-08
-3.37297e-07
9.35151e-08
-3.60122e-07
9.22722e-08
-3.82487e-07
9.0479e-08
-4.04262e-07
8.81568e-08
-4.25325e-07
8.5327e-08
-4.45556e-07
8.2011e-08
-4.64842e-07
7.82304e-08
-4.83074e-07
7.40069e-08
-5.0015e-07
6.93626e-08
-5.15973e-07
6.43202e-08
-5.30451e-07
5.89032e-08
-5.43499e-07
5.31361e-08
-5.5504e-07
4.70444e-08
-5.65001e-07
4.06555e-08
-5.73318e-07
3.3998e-08
-5.79934e-07
2.71025e-08
-5.84801e-07
2.00016e-08
-5.87879e-07
1.27299e-08
-5.89136e-07
5.32421e-09
-5.88551e-07
-2.1764e-09
-5.86114e-07
-9.73073e-09
-5.81822e-07
-1.72954e-08
-5.75687e-07
-2.4825e-08
-5.6773e-07
-3.22722e-08
-5.57984e-07
-3.95881e-08
-5.46494e-07
-4.67223e-08
-5.33318e-07
-5.36235e-08
-5.18526e-07
-6.02394e-08
-5.02199e-07
-6.65176e-08
-4.84432e-07
-7.24058e-08
-4.65332e-07
-7.78526e-08
-4.45017e-07
-8.28076e-08
-4.23616e-07
-8.72222e-08
-4.0127e-07
-9.10502e-08
-3.78128e-07
-9.42484e-08
-3.5435e-07
-9.67773e-08
-3.30104e-07
-9.86017e-08
-3.05563e-07
-9.96911e-08
-2.80907e-07
-1.00021e-07
-2.56319e-07
-9.95718e-08
-2.31986e-07
-9.83328e-08
-2.08093e-07
-9.62994e-08
-1.84825e-07
-9.34757e-08
-1.62363e-07
-8.9875e-08
-1.40881e-07
-8.55202e-08
-1.20546e-07
-8.04457e-08
-1.01512e-07
-7.46978e-08
-8.3919e-08
-6.83369e-08
-6.78883e-08
-6.1439e-08
-5.35206e-08
-5.40989e-08
-4.08913e-08
-4.64328e-08
-3.00465e-08
-3.8583e-08
-2.09988e-08
-3.07232e-08
-1.37236e-08
-2.30652e-08
-8.15463e-09
-1.58681e-08
-4.18088e-09
-9.44836e-09
-1.64381e-09
-4.19115e-09
-3.35849e-10
-5.64107e-10
8.26084e-10
-8.68047e-10
9.6955e-10
-3.56092e-09
5.91337e-09
-8.16025e-09
1.2937e-08
-1.47241e-08
2.13412e-08
-2.32803e-08
3.05901e-08
-3.3824e-08
4.02533e-08
-4.63191e-08
4.999e-08
-6.07004e-08
5.95355e-08
-7.6877e-08
6.86873e-08
-9.47367e-08
7.72931e-08
-1.14149e-07
8.52411e-08
-1.34971e-07
9.24522e-08
-1.57048e-07
9.88726e-08
-1.80218e-07
1.04469e-07
-2.04315e-07
1.09224e-07
-2.2917e-07
1.13132e-07
-2.54614e-07
1.16197e-07
-2.80477e-07
1.1843e-07
-3.06594e-07
1.19848e-07
-3.32799e-07
1.20471e-07
-3.58933e-07
1.2032e-07
-3.84839e-07
1.19421e-07
-4.10365e-07
1.17798e-07
-4.35364e-07
1.15478e-07
-4.59694e-07
1.12487e-07
-4.83219e-07
1.08852e-07
-5.05807e-07
1.04599e-07
-5.27334e-07
9.97567e-08
-5.47678e-07
9.43515e-08
-5.66728e-07
8.8412e-08
-5.84375e-07
8.19671e-08
-6.00518e-07
7.50469e-08
-6.15065e-07
6.76828e-08
-6.27928e-07
5.99076e-08
-6.39029e-07
5.17561e-08
-6.48296e-07
4.32651e-08
-6.55667e-07
3.44738e-08
-6.61089e-07
2.54237e-08
-6.64518e-07
1.61589e-08
-6.6592e-07
6.72643e-09
-6.65273e-07
-2.82426e-09
-6.62563e-07
-1.24408e-08
-6.5779e-07
-2.20682e-08
-6.50966e-07
-3.16491e-08
-6.42114e-07
-4.11236e-08
-6.31272e-07
-5.04299e-08
-6.1849e-07
-5.95046e-08
-6.03831e-07
-6.82828e-08
-5.87371e-07
-7.6699e-08
-5.69202e-07
-8.46871e-08
-5.49426e-07
-9.21815e-08
-5.28161e-07
-9.91175e-08
-5.05537e-07
-1.05432e-07
-4.81695e-07
-1.11064e-07
-4.5679e-07
-1.15955e-07
-4.30986e-07
-1.20052e-07
-4.04457e-07
-1.23306e-07
-3.77388e-07
-1.25671e-07
-3.49967e-07
-1.27111e-07
-3.22393e-07
-1.27595e-07
-2.94865e-07
-1.271e-07
-2.67587e-07
-1.25611e-07
-2.40763e-07
-1.23124e-07
-2.14594e-07
-1.19645e-07
-1.89278e-07
-1.15191e-07
-1.65007e-07
-1.09792e-07
-1.41961e-07
-1.03491e-07
-1.20311e-07
-9.63483e-08
-1.00209e-07
-8.84383e-08
-8.17922e-08
-7.98562e-08
-6.51723e-08
-7.07188e-08
-5.04372e-08
-6.11678e-08
-3.76455e-08
-5.13748e-08
-2.68229e-08
-4.15457e-08
-1.79601e-08
-3.1928e-08
-1.10094e-08
-2.28188e-08
-5.8835e-09
-1.45743e-08
-2.45532e-09
-7.61933e-09
-5.59893e-10
-2.45953e-09
2.66182e-10
-1.12037e-09
2.08993e-09
-4.48296e-09
9.276e-09
-1.00972e-08
1.85513e-08
-1.7963e-08
2.9207e-08
-2.80613e-08
4.06883e-08
-4.03501e-08
5.25421e-08
-5.47634e-08
6.44033e-08
-7.12118e-08
7.59839e-08
-8.95845e-08
8.706e-08
-1.09752e-07
9.74608e-08
-1.3157e-07
1.07059e-07
-1.5488e-07
1.15762e-07
-1.79515e-07
1.23508e-07
-2.05301e-07
1.30255e-07
-2.32059e-07
1.35982e-07
-2.59609e-07
1.40681e-07
-2.87767e-07
1.44355e-07
-3.16352e-07
1.47016e-07
-3.45186e-07
1.48682e-07
-3.74091e-07
1.49376e-07
-4.02895e-07
1.49124e-07
-4.31428e-07
1.47954e-07
-4.59527e-07
1.45897e-07
-4.87033e-07
1.42983e-07
-5.13791e-07
1.39245e-07
-5.39654e-07
1.34715e-07
-5.64479e-07
1.29425e-07
-5.8813e-07
1.23408e-07
-6.10478e-07
1.16699e-07
-6.31399e-07
1.09333e-07
-6.50776e-07
1.01344e-07
-6.685e-07
9.27714e-08
-6.8447e-07
8.36526e-08
-6.98592e-07
7.40288e-08
-7.10779e-07
6.39431e-08
-7.20954e-07
5.3441e-08
-7.29052e-07
4.2571e-08
-7.35012e-07
3.13844e-08
-7.38789e-07
1.99357e-08
-7.40345e-07
8.28265e-09
-7.39656e-07
-3.51361e-09
-7.36708e-07
-1.53888e-08
-7.31501e-07
-2.72754e-08
-7.24047e-07
-3.91029e-08
-7.14372e-07
-5.07981e-08
-7.02517e-07
-6.22854e-08
-6.88534e-07
-7.34869e-08
-6.72494e-07
-8.43236e-08
-6.54477e-07
-9.47153e-08
-6.34583e-07
-1.04581e-07
-6.12923e-07
-1.13842e-07
-5.89622e-07
-1.22418e-07
-5.64822e-07
-1.30232e-07
-5.38675e-07
-1.37211e-07
-5.11347e-07
-1.43283e-07
-4.83016e-07
-1.48384e-07
-4.5387e-07
-1.52452e-07
-4.24106e-07
-1.55435e-07
-3.93931e-07
-1.57287e-07
-3.63555e-07
-1.57971e-07
-3.33196e-07
-1.57459e-07
-3.03073e-07
-1.55734e-07
-2.73405e-07
-1.52791e-07
-2.44412e-07
-1.48638e-07
-2.16306e-07
-1.43297e-07
-1.89294e-07
-1.36804e-07
-1.63573e-07
-1.29212e-07
-1.39328e-07
-1.20594e-07
-1.16726e-07
-1.1104e-07
-9.59177e-08
-1.00665e-07
-7.70294e-08
-8.9607e-08
-6.01632e-08
-7.80341e-08
-4.53922e-08
-6.61457e-08
-3.2759e-08
-5.41789e-08
-2.22725e-08
-4.24145e-08
-1.39074e-08
-3.11839e-08
-7.60377e-09
-2.08779e-08
-3.26882e-09
-1.19543e-08
-7.81225e-10
-4.94713e-09
-5.15047e-10
-1.3649e-09
3.45481e-09
-5.38601e-09
1.32971e-08
-1.20065e-08
2.51718e-08
-2.11698e-08
3.83702e-08
-3.28096e-08
5.23282e-08
-4.68451e-08
6.65776e-08
-6.31779e-08
8.07361e-08
-8.1692e-08
9.4498e-08
-1.02254e-07
1.07622e-07
-1.24717e-07
1.19923e-07
-1.48918e-07
1.3126e-07
-1.74684e-07
1.41529e-07
-2.01837e-07
1.5066e-07
-2.30187e-07
1.58606e-07
-2.59546e-07
1.6534e-07
-2.89718e-07
1.70854e-07
-3.20511e-07
1.75148e-07
-3.51733e-07
1.78237e-07
-3.83191e-07
1.8014e-07
-4.14698e-07
1.80883e-07
-4.46069e-07
1.80496e-07
-4.77126e-07
1.79011e-07
-5.07691e-07
1.76463e-07
-5.37597e-07
1.72889e-07
-5.66678e-07
1.68326e-07
-5.94776e-07
1.62813e-07
-6.21739e-07
1.56387e-07
-6.4742e-07
1.4909e-07
-6.71682e-07
1.40961e-07
-6.94391e-07
1.32042e-07
-7.15423e-07
1.22377e-07
-7.34661e-07
1.12009e-07
-7.51995e-07
1.00987e-07
-7.67326e-07
8.93591e-08
-7.8056e-07
7.71774e-08
-7.91616e-07
6.4497e-08
-8.00421e-07
5.13762e-08
-8.06914e-07
3.78767e-08
-8.11042e-07
2.40643e-08
-8.12768e-07
1.00084e-08
-8.12064e-07
-4.21787e-09
-8.08915e-07
-1.85372e-08
-8.03322e-07
-3.28689e-08
-7.95296e-07
-4.71284e-08
-7.84866e-07
-6.12282e-08
-7.72074e-07
-7.50778e-08
-7.56976e-07
-8.85845e-08
-7.39646e-07
-1.01654e-07
-7.20171e-07
-1.1419e-07
-6.98656e-07
-1.26097e-07
-6.75219e-07
-1.37279e-07
-6.49995e-07
-1.47642e-07
-6.23132e-07
-1.57095e-07
-5.94793e-07
-1.65549e-07
-5.65156e-07
-1.7292e-07
-5.34409e-07
-1.79131e-07
-5.02752e-07
-1.84108e-07
-4.70398e-07
-1.8779e-07
-4.37564e-07
-1.90121e-07
-4.04477e-07
-1.91057e-07
-3.71369e-07
-1.90567e-07
-3.38474e-07
-1.88629e-07
-3.06028e-07
-1.85238e-07
-2.74262e-07
-1.80403e-07
-2.43408e-07
-1.74151e-07
-2.13687e-07
-1.66525e-07
-1.85311e-07
-1.57588e-07
-1.5848e-07
-1.47424e-07
-1.33378e-07
-1.36142e-07
-1.1017e-07
-1.23873e-07
-8.8997e-08
-1.1078e-07
-6.99783e-08
-9.70528e-08
-5.32042e-08
-8.29198e-08
-3.87358e-08
-6.86473e-08
-2.66038e-08
-5.45466e-08
-1.68074e-08
-4.09803e-08
-9.31618e-09
-2.83692e-08
-4.07239e-09
-1.7198e-08
-9.97041e-10
-8.0225e-09
-1.51208e-09
-1.60089e-09
5.05571e-09
-6.2649e-09
1.79611e-08
-1.3875e-08
3.27819e-08
-2.43211e-08
4.88164e-08
-3.74906e-08
6.54977e-08
-5.32629e-08
8.23499e-08
-7.15061e-08
9.89793e-08
-9.20759e-08
1.15068e-07
-1.14815e-07
1.30362e-07
-1.39555e-07
1.44663e-07
-1.66117e-07
1.57821e-07
-1.94311e-07
1.69724e-07
-2.23944e-07
1.80293e-07
-2.54815e-07
1.89477e-07
-2.86722e-07
1.97247e-07
-3.19459e-07
2.03591e-07
-3.52822e-07
2.08511e-07
-3.86607e-07
2.12022e-07
-4.20613e-07
2.14146e-07
-4.54641e-07
2.14911e-07
-4.88496e-07
2.14351e-07
-5.21989e-07
2.12503e-07
-5.54934e-07
2.09408e-07
-5.87152e-07
2.05107e-07
-6.18469e-07
1.99644e-07
-6.48718e-07
1.93061e-07
-6.77738e-07
1.85406e-07
-7.05373e-07
1.76725e-07
-7.31476e-07
1.67064e-07
-7.55908e-07
1.56474e-07
-7.78536e-07
1.45004e-07
-7.99235e-07
1.32709e-07
-8.17891e-07
1.19642e-07
-8.34395e-07
1.05863e-07
-8.4865e-07
9.14329e-08
-8.60569e-07
7.64162e-08
-8.70075e-07
6.0882e-08
-8.77102e-07
4.49032e-08
-8.81594e-07
2.8557e-08
-8.83511e-07
1.19253e-08
-8.82823e-07
-4.90587e-09
-8.79515e-07
-2.18458e-08
-8.73584e-07
-3.87995e-08
-8.65045e-07
-5.5668e-08
-8.53924e-07
-7.23485e-08
-8.40267e-07
-8.8735e-08
-8.24133e-07
-1.04719e-07
-8.05598e-07
-1.20189e-07
-7.84754e-07
-1.35034e-07
-7.6171e-07
-1.49141e-07
-7.36591e-07
-1.62398e-07
-7.09538e-07
-1.74695e-07
-6.80708e-07
-1.85925e-07
-6.50274e-07
-1.95984e-07
-6.1842e-07
-2.04774e-07
-5.85348e-07
-2.12203e-07
-5.51268e-07
-2.18188e-07
-5.16403e-07
-2.22654e-07
-4.80986e-07
-2.25538e-07
-4.45257e-07
-2.26787e-07
-4.0946e-07
-2.26364e-07
-3.73845e-07
-2.24244e-07
-3.38661e-07
-2.20422e-07
-3.04158e-07
-2.14907e-07
-2.7058e-07
-2.07729e-07
-2.38165e-07
-1.9894e-07
-2.07141e-07
-1.88611e-07
-1.77724e-07
-1.76841e-07
-1.50114e-07
-1.63752e-07
-1.24492e-07
-1.49495e-07
-1.01018e-07
-1.34254e-07
-7.98277e-08
-1.18243e-07
-6.10314e-08
-1.01716e-07
-4.47112e-08
-8.49675e-08
-3.0921e-08
-6.83368e-08
-1.96865e-08
-5.22148e-08
-1.10072e-08
-3.70484e-08
-4.86026e-09
-2.3345e-08
-1.20626e-09
-1.16765e-08
-2.71833e-09
-1.82833e-09
6.88406e-09
-7.11772e-09
2.32504e-08
-1.56965e-08
4.13606e-08
-2.74044e-08
6.05242e-08
-4.20839e-08
8.01773e-08
-5.95751e-08
9.9841e-08
-7.9712e-08
1.19116e-07
-1.02321e-07
1.37677e-07
-1.27219e-07
1.5526e-07
-1.54217e-07
1.71661e-07
-1.83115e-07
1.86719e-07
-2.13709e-07
2.00318e-07
-2.4579e-07
2.12373e-07
-2.79143e-07
2.2283e-07
-3.13554e-07
2.31658e-07
-3.48806e-07
2.38843e-07
-3.84684e-07
2.44389e-07
-4.20973e-07
2.48312e-07
-4.57463e-07
2.50635e-07
-4.93944e-07
2.51392e-07
-5.30213e-07
2.5062e-07
-5.66072e-07
2.48362e-07
-6.01325e-07
2.44661e-07
-6.35784e-07
2.39567e-07
-6.69268e-07
2.33127e-07
-7.016e-07
2.25393e-07
-7.3261e-07
2.16417e-07
-7.62138e-07
2.06252e-07
-7.90027e-07
1.94954e-07
-8.16131e-07
1.82578e-07
-8.4031e-07
1.69183e-07
-8.62433e-07
1.54832e-07
-8.82379e-07
1.39588e-07
-9.00034e-07
1.23518e-07
-9.15295e-07
1.06695e-07
-9.28071e-07
8.91921e-08
-9.3828e-07
7.10905e-08
-9.45851e-07
5.24743e-08
-9.50727e-07
3.3433e-08
-9.52863e-07
1.40611e-08
-9.52227e-07
-5.54179e-09
-9.48802e-07
-2.52708e-08
-9.42585e-07
-4.50162e-08
-9.33589e-07
-6.46638e-08
-9.21843e-07
-8.40949e-08
-9.07391e-07
-1.03187e-07
-8.90294e-07
-1.21815e-07
-8.70632e-07
-1.39852e-07
-8.48499e-07
-1.57166e-07
-8.24009e-07
-1.73631e-07
-7.97292e-07
-1.89115e-07
-7.68495e-07
-2.03492e-07
-7.37781e-07
-2.16638e-07
-7.05331e-07
-2.28434e-07
-6.71338e-07
-2.38766e-07
-6.36013e-07
-2.47528e-07
-5.99578e-07
-2.54624e-07
-5.62266e-07
-2.59966e-07
-5.24322e-07
-2.63482e-07
-4.85998e-07
-2.65111e-07
-4.47554e-07
-2.64808e-07
-4.09252e-07
-2.62546e-07
-3.71357e-07
-2.58316e-07
-3.34133e-07
-2.5213e-07
-2.97841e-07
-2.44021e-07
-2.62734e-07
-2.34046e-07
-2.29058e-07
-2.22287e-07
-1.97045e-07
-2.08854e-07
-1.66912e-07
-1.93885e-07
-1.38859e-07
-1.77548e-07
-1.13065e-07
-1.60048e-07
-8.96846e-08
-1.41623e-07
-6.88496e-08
-1.22551e-07
-5.06647e-08
-1.03152e-07
-3.52086e-08
-8.37929e-08
-2.25343e-08
-6.48891e-08
-1.26715e-08
-4.69112e-08
-5.63066e-09
-3.03859e-08
-1.40884e-09
-1.58983e-08
-4.12718e-09
-2.04762e-09
8.93168e-09
-7.94437e-09
2.91472e-08
-1.74689e-08
5.08851e-08
-3.0414e-08
7.34694e-08
-4.65792e-08
9.63425e-08
-6.57661e-08
1.19028e-07
-8.77746e-08
1.41125e-07
-1.12401e-07
1.62303e-07
-1.39437e-07
1.82296e-07
-1.68669e-07
2.00893e-07
-1.99879e-07
2.17929e-07
-2.32845e-07
2.33284e-07
-2.67342e-07
2.4687e-07
-3.03143e-07
2.58631e-07
-3.40019e-07
2.68534e-07
-3.77744e-07
2.76567e-07
-4.1609e-07
2.82735e-07
-4.54834e-07
2.87055e-07
-4.93754e-07
2.89555e-07
-5.32634e-07
2.90272e-07
-5.7126e-07
2.89247e-07
-6.09425e-07
2.86527e-07
-6.46928e-07
2.82164e-07
-6.83571e-07
2.7621e-07
-7.19164e-07
2.68721e-07
-7.53525e-07
2.59754e-07
-7.86476e-07
2.49368e-07
-8.17848e-07
2.37625e-07
-8.47481e-07
2.24586e-07
-8.75219e-07
2.10316e-07
-9.00917e-07
1.94881e-07
-9.24438e-07
1.78353e-07
-9.45655e-07
1.60805e-07
-9.6445e-07
1.42313e-07
-9.80713e-07
1.22959e-07
-9.94349e-07
1.02828e-07
-1.00527e-06
8.20128e-08
-1.01341e-06
6.06088e-08
-1.01869e-06
3.87183e-08
-1.02108e-06
1.6449e-08
-1.02054e-06
-6.08528e-09
-1.01704e-06
-2.87653e-08
-1.01059e-06
-5.14661e-08
-1.0012e-06
-7.40574e-08
-9.88889e-07
-9.64042e-08
-9.73709e-07
-1.18367e-07
-9.55721e-07
-1.39804e-07
-9.35004e-07
-1.60568e-07
-9.11658e-07
-1.80513e-07
-8.85797e-07
-1.99491e-07
-8.57557e-07
-2.17355e-07
-8.27089e-07
-2.3396e-07
-7.94563e-07
-2.49164e-07
-7.60166e-07
-2.62832e-07
-7.24099e-07
-2.74833e-07
-6.86581e-07
-2.85046e-07
-6.47843e-07
-2.93361e-07
-6.08131e-07
-2.99678e-07
-5.677e-07
-3.03913e-07
-5.26816e-07
-3.05995e-07
-4.85749e-07
-3.05874e-07
-4.44779e-07
-3.03517e-07
-4.04183e-07
-2.98912e-07
-3.64242e-07
-2.92072e-07
-3.25232e-07
-2.83031e-07
-2.87425e-07
-2.71854e-07
-2.51082e-07
-2.5863e-07
-2.16454e-07
-2.43482e-07
-1.83778e-07
-2.26561e-07
-1.53271e-07
-2.08055e-07
-1.25134e-07
-1.88185e-07
-9.95439e-08
-1.67214e-07
-7.66534e-08
-1.45442e-07
-5.65919e-08
-1.23214e-07
-3.94639e-08
-1.00921e-07
-2.535e-08
-7.9003e-08
-1.43095e-08
-5.79516e-08
-6.38452e-09
-3.83109e-08
-1.60543e-09
-2.06774e-08
-5.73262e-09
-2.25932e-09
1.1191e-08
-8.74583e-09
3.56337e-08
-1.91926e-08
6.13319e-08
-3.33488e-08
8.76255e-08
-5.09729e-08
1.13967e-07
-7.18289e-08
1.39884e-07
-9.56833e-08
1.64979e-07
-1.22302e-07
1.88922e-07
-1.51451e-07
2.11445e-07
-1.82893e-07
2.32335e-07
-2.16389e-07
2.51426e-07
-2.517e-07
2.68595e-07
-2.88584e-07
2.83754e-07
-3.268e-07
2.96847e-07
-3.66107e-07
3.07841e-07
-4.06266e-07
3.16727e-07
-4.47041e-07
3.2351e-07
-4.88196e-07
3.28211e-07
-5.29503e-07
3.30862e-07
-5.70735e-07
3.31504e-07
-6.11671e-07
3.30183e-07
-6.52096e-07
3.26952e-07
-6.918e-07
3.21868e-07
-7.3058e-07
3.1499e-07
-7.68238e-07
3.06379e-07
-8.04585e-07
2.96101e-07
-8.39438e-07
2.84221e-07
-8.7262e-07
2.70807e-07
-9.03964e-07
2.5593e-07
-9.3331e-07
2.39661e-07
-9.60506e-07
2.22078e-07
-9.85411e-07
2.03258e-07
-1.00789e-06
1.83285e-07
-1.02782e-06
1.62244e-07
-1.04509e-06
1.40229e-07
-1.0596e-06
1.17336e-07
-1.07126e-06
9.36673e-08
-1.07998e-06
6.93321e-08
-1.08571e-06
4.44451e-08
-1.08838e-06
1.9128e-08
-1.08798e-06
-6.49146e-09
-1.08447e-06
-3.22788e-08
-1.07784e-06
-5.80933e-08
-1.06811e-06
-8.37885e-08
-1.0553e-06
-1.09212e-07
-1.03946e-06
-1.34208e-07
-1.02065e-06
-1.58614e-07
-9.98947e-07
-1.82268e-07
-9.74458e-07
-2.05002e-07
-9.47297e-07
-2.26652e-07
-9.17603e-07
-2.4705e-07
-8.85531e-07
-2.66032e-07
-8.51255e-07
-2.8344e-07
-8.14969e-07
-2.99118e-07
-7.76881e-07
-3.12921e-07
-7.37218e-07
-3.24709e-07
-6.9622e-07
-3.34358e-07
-6.54143e-07
-3.41755e-07
-6.11253e-07
-3.46803e-07
-5.67828e-07
-3.49421e-07
-5.24153e-07
-3.4955e-07
-4.80518e-07
-3.47151e-07
-4.3722e-07
-3.42211e-07
-3.94553e-07
-3.34738e-07
-3.52812e-07
-3.24773e-07
-3.12284e-07
-3.12382e-07
-2.73251e-07
-2.97664e-07
-2.35982e-07
-2.80751e-07
-2.00734e-07
-2.61809e-07
-1.67747e-07
-2.41042e-07
-1.37241e-07
-2.18691e-07
-1.09417e-07
-1.95038e-07
-8.44521e-08
-1.70406e-07
-6.25007e-08
-1.45165e-07
-4.36935e-08
-1.19728e-07
-2.8139e-08
-9.45576e-08
-1.59253e-08
-7.01652e-08
-7.12448e-09
-4.71117e-08
-1.79702e-09
-2.60049e-08
-7.52965e-09
-2.46407e-09
1.36551e-08
-9.52368e-09
4.26933e-08
-2.08698e-08
7.26781e-08
-3.62106e-08
1.02966e-07
-5.52655e-08
1.33022e-07
-7.77625e-08
1.62381e-07
-1.03435e-07
1.90651e-07
-1.32019e-07
2.17506e-07
-1.63254e-07
2.4268e-07
-1.96879e-07
2.6596e-07
-2.32635e-07
2.87181e-07
-2.70263e-07
3.06222e-07
-3.09505e-07
3.22997e-07
-3.50106e-07
3.37448e-07
-3.91813e-07
3.49548e-07
-4.34373e-07
3.59287e-07
-4.77541e-07
3.66677e-07
-5.21071e-07
3.71742e-07
-5.64726e-07
3.74517e-07
-6.08272e-07
3.75049e-07
-6.51478e-07
3.7339e-07
-6.94124e-07
3.69598e-07
-7.35992e-07
3.63736e-07
-7.76871e-07
3.55869e-07
-8.1656e-07
3.46068e-07
-8.54861e-07
3.34402e-07
-8.91585e-07
3.20945e-07
-9.26551e-07
3.05773e-07
-9.59585e-07
2.88964e-07
-9.90523e-07
2.70599e-07
-1.01921e-06
2.50762e-07
-1.04549e-06
2.29541e-07
-1.06923e-06
2.07028e-07
-1.09031e-06
1.8332e-07
-1.1086e-06
1.5852e-07
-1.124e-06
1.32735e-07
-1.13641e-06
1.0608e-07
-1.14575e-06
7.86764e-08
-1.15196e-06
5.06519e-08
-1.15497e-06
2.21419e-08
-1.15476e-06
-6.71096e-09
-1.15128e-06
-3.5757e-08
-1.14453e-06
-6.48395e-08
-1.13452e-06
-9.3795e-08
-1.12128e-06
-1.22454e-07
-1.10485e-06
-1.50642e-07
-1.08528e-06
-1.78179e-07
-1.06267e-06
-2.04882e-07
-1.0371e-06
-2.30567e-07
-1.00871e-06