/*--------------------------------*- C++ -*----------------------------------*\
  =========                 |
  \\      /  F ield         | OpenFOAM: The Open Source CFD Toolbox
   \\    /   O peration     | Website:  https://openfoam.org
    \\  /    A nd           | Version:  9
     \\/     M anipulation  |
\*---------------------------------------------------------------------------*/
FoamFile
{
    format      ascii;
    class       volVectorField;
    location    "0.3";
    object      U;
}
// * * * * * * * * * * * * * * * * * * * * * * * * * * * * * * * * * * * * * //

dimensions      [0 1 -1 0 0 0 0];

internalField   nonuniform List<vector> 
6400
(
(7.37869e-06 -7.37558e-06 0)
(2.9371e-05 -1.40212e-05 0)
(5.67858e-05 -1.3234e-05 0)
(7.49041e-05 -8.45321e-06 0)
(7.60112e-05 -2.00675e-06 0)
(5.73292e-05 4.93115e-06 0)
(1.81472e-05 1.17755e-05 0)
(-4.11661e-05 1.82435e-05 0)
(-0.000119586 2.42029e-05 0)
(-0.000215729 2.95931e-05 0)
(-0.000328012 3.43977e-05 0)
(-0.00045476 3.86211e-05 0)
(-0.000594268 4.22774e-05 0)
(-0.000744844 4.53897e-05 0)
(-0.000904823 4.79846e-05 0)
(-0.0010726 5.00865e-05 0)
(-0.00124661 5.17223e-05 0)
(-0.00142539 5.29184e-05 0)
(-0.0016075 5.36993e-05 0)
(-0.0017916 5.4088e-05 0)
(-0.00197639 5.41064e-05 0)
(-0.00216065 5.37751e-05 0)
(-0.0023432 5.31115e-05 0)
(-0.00252294 5.2132e-05 0)
(-0.00269879 5.08516e-05 0)
(-0.00286974 4.92846e-05 0)
(-0.00303483 4.74439e-05 0)
(-0.00319312 4.53414e-05 0)
(-0.00334373 4.29884e-05 0)
(-0.00348581 4.03955e-05 0)
(-0.00361854 3.75734e-05 0)
(-0.00374118 3.45336e-05 0)
(-0.00385299 3.12867e-05 0)
(-0.00395328 2.78444e-05 0)
(-0.00404142 2.42196e-05 0)
(-0.00411682 2.04257e-05 0)
(-0.00417895 1.64782e-05 0)
(-0.00422732 1.23941e-05 0)
(-0.00426152 8.19067e-06 0)
(-0.00428119 3.88792e-06 0)
(-0.00428607 -4.91912e-07 0)
(-0.00427595 -4.92576e-06 0)
(-0.00425071 -9.38828e-06 0)
(-0.00421033 -1.38519e-05 0)
(-0.00415488 -1.8288e-05 0)
(-0.00408452 -2.26663e-05 0)
(-0.00399953 -2.69546e-05 0)
(-0.0039003 -3.11197e-05 0)
(-0.0037873 -3.51279e-05 0)
(-0.00366116 -3.8944e-05 0)
(-0.00352259 -4.25323e-05 0)
(-0.00337243 -4.58579e-05 0)
(-0.00321163 -4.88861e-05 0)
(-0.00304125 -5.15825e-05 0)
(-0.00286246 -5.39145e-05 0)
(-0.00267655 -5.58507e-05 0)
(-0.00248487 -5.73613e-05 0)
(-0.0022889 -5.84186e-05 0)
(-0.00209017 -5.89984e-05 0)
(-0.0018903 -5.908e-05 0)
(-0.00169096 -5.86457e-05 0)
(-0.00149388 -5.76804e-05 0)
(-0.0013008 -5.61738e-05 0)
(-0.0011135 -5.41199e-05 0)
(-0.000933759 -5.15169e-05 0)
(-0.000763334 -4.83672e-05 0)
(-0.000603957 -4.46782e-05 0)
(-0.000457305 -4.04632e-05 0)
(-0.000324982 -3.57414e-05 0)
(-0.000208484 -3.05391e-05 0)
(-0.000109169 -2.48931e-05 0)
(-2.82029e-05 -1.88562e-05 0)
(3.34954e-05 -1.25082e-05 0)
(7.53714e-05 -5.96717e-06 0)
(9.74038e-05 5.62784e-07 0)
(0.000100366 6.7301e-06 0)
(8.6227e-05 1.1909e-05 0)
(5.9009e-05 1.49456e-05 0)
(2.73637e-05 1.37666e-05 0)
(5.96518e-06 5.96735e-06 0)
(1.39693e-05 -2.93391e-05 0)
(4.84468e-05 -4.84527e-05 0)
(8.10823e-05 -3.88267e-05 0)
(8.71699e-05 -1.24508e-05 0)
(5.21033e-05 2.24815e-05 0)
(-3.10106e-05 6.09928e-05 0)
(-0.000164967 0.000100119 0)
(-0.000349888 0.000138104 0)
(-0.000584091 0.000173918 0)
(-0.000864708 0.000206965 0)
(-0.00118815 0.000236926 0)
(-0.00155041 0.000263643 0)
(-0.00194721 0.00028707 0)
(-0.00237422 0.000307233 0)
(-0.00282707 0.000324202 0)
(-0.00330148 0.000338071 0)
(-0.00379324 0.000348956 0)
(-0.0042983 0.00035698 0)
(-0.00481272 0.000362264 0)
(-0.00533274 0.000364935 0)
(-0.00585473 0.000365115 0)
(-0.00637523 0.00036292 0)
(-0.00689094 0.000358458 0)
(-0.00739866 0.000351836 0)
(-0.00789538 0.000343149 0)
(-0.00837818 0.00033249 0)
(-0.0088443 0.000319947 0)
(-0.00929108 0.000305602 0)
(-0.00971599 0.000289538 0)
(-0.0101166 0.000271834 0)
(-0.0104907 0.00025257 0)
(-0.010836 0.000231827 0)
(-0.0111505 0.000209691 0)
(-0.0114323 0.000186249 0)
(-0.0116796 0.000161596 0)
(-0.0118907 0.000135833 0)
(-0.0120642 0.00010907 0)
(-0.0121988 8.14267e-05 0)
(-0.0122933 5.30301e-05 0)
(-0.0123468 2.40189e-05 0)
(-0.0123586 -5.45594e-06 0)
(-0.0123281 -3.52342e-05 0)
(-0.012255 -6.51448e-05 0)
(-0.0121395 -9.50046e-05 0)
(-0.0119816 -0.000124621 0)
(-0.011782 -0.000153792 0)
(-0.0115415 -0.000182309 0)
(-0.0112611 -0.000209956 0)
(-0.0109423 -0.000236509 0)
(-0.0105869 -0.000261746 0)
(-0.0101969 -0.000285438 0)
(-0.00977457 -0.000307361 0)
(-0.0093227 -0.000327292 0)
(-0.00884424 -0.000345017 0)
(-0.00834244 -0.000360327 0)
(-0.00782086 -0.000373026 0)
(-0.00728331 -0.00038293 0)
(-0.00673382 -0.000389873 0)
(-0.00617665 -0.000393706 0)
(-0.00561625 -0.000394304 0)
(-0.00505721 -0.000391563 0)
(-0.00450423 -0.000385406 0)
(-0.0039621 -0.000375783 0)
(-0.00343563 -0.000362677 0)
(-0.00292963 -0.000346101 0)
(-0.00244883 -0.000326104 0)
(-0.00199785 -0.000302777 0)
(-0.00158111 -0.000276255 0)
(-0.00120278 -0.000246725 0)
(-0.000866672 -0.000214442 0)
(-0.000576119 -0.000179747 0)
(-0.000333856 -0.000143099 0)
(-0.000141799 -0.000105134 0)
(-7.78009e-07 -6.67402e-05 0)
(8.98745e-05 -2.92271e-05 0)
(0.000132877 5.44022e-06 0)
(0.000133685 3.42467e-05 0)
(0.000101599 5.25169e-05 0)
(5.31206e-05 5.3124e-05 0)
(1.37298e-05 2.73195e-05 0)
(1.3253e-05 -5.67663e-05 0)
(3.90864e-05 -8.11525e-05 0)
(4.72861e-05 -4.68975e-05 0)
(1.07488e-05 2.32539e-05 0)
(-8.73979e-05 0.000113709 0)
(-0.000256107 0.000213894 0)
(-0.000499489 0.0003168 0)
(-0.000818171 0.000417865 0)
(-0.00121021 0.000514166 0)
(-0.0016719 0.000603862 0)
(-0.00219831 0.000685826 0)
(-0.00278376 0.000759423 0)
(-0.00342206 0.000824344 0)
(-0.0041068 0.000880506 0)
(-0.00483144 0.000927976 0)
(-0.00558947 0.000966926 0)
(-0.00637445 0.000997594 0)
(-0.00718011 0.00102026 0)
(-0.00800032 0.00103521 0)
(-0.00882918 0.00104277 0)
(-0.00966099 0.00104324 0)
(-0.0104903 0.00103693 0)
(-0.0113118 0.00102413 0)
(-0.0121204 0.00100513 0)
(-0.0129114 0.000980193 0)
(-0.01368 0.000949586 0)
(-0.0144219 0.000913556 0)
(-0.0151328 0.000872345 0)
(-0.0158087 0.000826191 0)
(-0.0164457 0.000775329 0)
(-0.0170401 0.000719999 0)
(-0.0175885 0.000660442 0)
(-0.0180877 0.000596912 0)
(-0.0185345 0.000529674 0)
(-0.0189263 0.000459008 0)
(-0.0192603 0.000385215 0)
(-0.0195343 0.000308619 0)
(-0.0197463 0.000229567 0)
(-0.0198944 0.000148434 0)
(-0.0199773 6.56221e-05 0)
(-0.0199938 -1.84367e-05 0)
(-0.0199432 -0.00010328 0)
(-0.0198252 -0.000188419 0)
(-0.0196397 -0.000273334 0)
(-0.0193872 -0.000357479 0)
(-0.0190687 -0.000440284 0)
(-0.0186854 -0.000521159 0)
(-0.0182392 -0.000599497 0)
(-0.0177324 -0.000674678 0)
(-0.0171677 -0.000746073 0)
(-0.0165484 -0.000813052 0)
(-0.0158783 -0.00087499 0)
(-0.0151616 -0.000931271 0)
(-0.014403 -0.000981301 0)
(-0.0136076 -0.00102451 0)
(-0.012781 -0.00106035 0)
(-0.0119292 -0.00108832 0)
(-0.0110584 -0.00110798 0)
(-0.0101754 -0.00111892 0)
(-0.00928709 -0.00112081 0)
(-0.00840053 -0.00111337 0)
(-0.00752306 -0.00109641 0)
(-0.00666208 -0.00106983 0)
(-0.00582501 -0.00103359 0)
(-0.00501926 -0.000987781 0)
(-0.00425205 -0.000932579 0)
(-0.00353042 -0.000868293 0)
(-0.00286105 -0.000795366 0)
(-0.00225017 -0.000714408 0)
(-0.00170339 -0.000626227 0)
(-0.00122556 -0.000531892 0)
(-0.000820491 -0.00043281 0)
(-0.00049071 -0.00033086 0)
(-0.000237061 -0.000228581 0)
(-5.82089e-05 -0.000129481 0)
(5.00005e-05 -3.84763e-05 0)
(9.52296e-05 3.74905e-05 0)
(8.96021e-05 8.86727e-05 0)
(5.29144e-05 0.000101683 0)
(1.4961e-05 5.89441e-05 0)
(8.70099e-06 -7.52057e-05 0)
(1.33284e-05 -8.76731e-05 0)
(-2.19756e-05 -1.05365e-05 0)
(-0.00012165 0.000122871 0)
(-0.000301973 0.000289607 0)
(-0.000572374 0.000473275 0)
(-0.000937325 0.000662351 0)
(-0.00139749 0.00084893 0)
(-0.00195062 0.00102767 0)
(-0.00259235 0.001195 0)
(-0.00331677 0.00134864 0)
(-0.00411691 0.00148718 0)
(-0.00498512 0.00160984 0)
(-0.00591332 0.00171629 0)
(-0.00689322 0.0018065 0)
(-0.00791645 0.00188067 0)
(-0.0089747 0.00193915 0)
(-0.0100598 0.00198238 0)
(-0.0111637 0.00201086 0)
(-0.0122786 0.00202512 0)
(-0.013397 0.00202572 0)
(-0.0145117 0.0020132 0)
(-0.0156155 0.0019881 0)
(-0.0167018 0.00195096 0)
(-0.017764 0.00190228 0)
(-0.018796 0.00184257 0)
(-0.0197918 0.0017723 0)
(-0.0207457 0.00169195 0)
(-0.0216522 0.00160198 0)
(-0.0225063 0.00150286 0)
(-0.0233029 0.00139506 0)
(-0.0240375 0.00127908 0)
(-0.0247057 0.0011554 0)
(-0.0253035 0.00102457 0)
(-0.0258271 0.000887132 0)
(-0.026273 0.000743694 0)
(-0.0266383 0.000594893 0)
(-0.0269203 0.000441413 0)
(-0.0271166 0.00028399 0)
(-0.0272254 0.000123413 0)
(-0.0272453 -3.94754e-05 0)
(-0.0271753 -0.00020378 0)
(-0.0270151 -0.000368548 0)
(-0.0267647 -0.000532779 0)
(-0.0264248 -0.00069542 0)
(-0.0259966 -0.000855376 0)
(-0.025482 -0.00101152 0)
(-0.0248835 -0.00116268 0)
(-0.0242042 -0.00130767 0)
(-0.0234478 -0.00144531 0)
(-0.0226187 -0.00157438 0)
(-0.0217218 -0.00169371 0)
(-0.0207628 -0.00180213 0)
(-0.019748 -0.0018985 0)
(-0.0186842 -0.00198176 0)
(-0.0175786 -0.00205088 0)
(-0.0164393 -0.00210492 0)
(-0.0152745 -0.00214303 0)
(-0.014093 -0.00216448 0)
(-0.0129038 -0.00216865 0)
(-0.0117164 -0.00215505 0)
(-0.0105402 -0.00212333 0)
(-0.009385 -0.00207332 0)
(-0.00826042 -0.00200503 0)
(-0.00717607 -0.00191863 0)
(-0.00614132 -0.00181456 0)
(-0.00516523 -0.00169345 0)
(-0.00425637 -0.00155624 0)
(-0.00342265 -0.00140418 0)
(-0.00267117 -0.00123892 0)
(-0.00200795 -0.00106259 0)
(-0.00143765 -0.000877965 0)
(-0.000963297 -0.000688648 0)
(-0.000585792 -0.000499372 0)
(-0.000303458 -0.00031642 0)
(-0.000111407 -0.000148211 0)
(-9.28195e-07 -6.07471e-06 0)
(4.13223e-05 9.48823e-05 0)
(3.58338e-05 0.000134784 0)
(1.21441e-05 8.65222e-05 0)
(2.49203e-06 -7.70422e-05 0)
(-2.10925e-05 -5.3362e-05 0)
(-0.000112128 8.74213e-05 0)
(-0.000288832 0.000303263 0)
(-0.000564843 0.000564696 0)
(-0.00094888 0.000849918 0)
(-0.00144489 0.00114304 0)
(-0.00205304 0.00143271 0)
(-0.00277055 0.00171097 0)
(-0.00359234 0.0019723 0)
(-0.00451165 0.002213 0)
(-0.00552046 0.00243066 0)
(-0.00660988 0.00262388 0)
(-0.0077705 0.00279193 0)
(-0.00899254 0.0029346 0)
(-0.0102661 0.00305204 0)
(-0.0115813 0.00314466 0)
(-0.0129282 0.00321305 0)
(-0.0142973 0.00325792 0)
(-0.0156791 0.00328003 0)
(-0.0170645 0.0032802 0)
(-0.0184445 0.00325927 0)
(-0.0198106 0.00321806 0)
(-0.0211544 0.00315739 0)
(-0.0224681 0.00307808 0)
(-0.023744 0.00298089 0)
(-0.0249747 0.00286662 0)
(-0.0261532 0.00273603 0)
(-0.0272729 0.00258987 0)
(-0.0283273 0.00242891 0)
(-0.0293104 0.00225393 0)
(-0.0302166 0.00206572 0)
(-0.0310404 0.00186512 0)
(-0.031777 0.00165301 0)
(-0.0324216 0.00143029 0)
(-0.0329703 0.00119797 0)
(-0.0334192 0.00095707 0)
(-0.0337651 0.00070873 0)
(-0.0340052 0.000454144 0)
(-0.0341373 0.000194596 0)
(-0.0341597 -6.85491e-05 0)
(-0.0340714 -0.00033384 0)
(-0.0338718 -0.000599742 0)
(-0.0335612 -0.000864641 0)
(-0.0331405 -0.00112685 0)
(-0.0326112 -0.00138461 0)
(-0.0319757 -0.00163612 0)
(-0.031237 -0.00187951 0)
(-0.030399 -0.00211291 0)
(-0.0294662 -0.0023344 0)
(-0.0284441 -0.00254208 0)
(-0.0273388 -0.00273406 0)
(-0.0261572 -0.00290851 0)
(-0.0249068 -0.00306363 0)
(-0.0235959 -0.00319772 0)
(-0.0222336 -0.00330918 0)
(-0.0208294 -0.00339654 0)
(-0.0193934 -0.00345847 0)
(-0.0179362 -0.00349382 0)
(-0.0164688 -0.00350163 0)
(-0.0150025 -0.00348116 0)
(-0.0135488 -0.00343191 0)
(-0.0121195 -0.00335365 0)
(-0.010726 -0.00324642 0)
(-0.0093799 -0.00311061 0)
(-0.00809245 -0.00294693 0)
(-0.00687442 -0.00275652 0)
(-0.00573597 -0.00254093 0)
(-0.00468647 -0.00230228 0)
(-0.00373424 -0.00204326 0)
(-0.00288633 -0.00176736 0)
(-0.0021482 -0.00147901 0)
(-0.00152334 -0.00118385 0)
(-0.00101294 -0.000889112 0)
(-0.000615355 -0.000604109 0)
(-0.000325627 -0.000340913 0)
(-0.000134899 -0.000115221 0)
(-2.97521e-05 5.27207e-05 0)
(9.08116e-06 0.000136929 0)
(7.37433e-06 0.000101874 0)
(-4.28894e-06 -5.93466e-05 0)
(-5.96462e-05 2.92086e-05 0)
(-0.000213637 0.000256919 0)
(-0.000476214 0.000575358 0)
(-0.000857011 0.000949675 0)
(-0.00136309 0.00135338 0)
(-0.00199715 0.00176659 0)
(-0.00275834 0.0021747 0)
(-0.00364301 0.0025671 0)
(-0.00464526 0.00293624 0)
(-0.00575743 0.0032769 0)
(-0.00697051 0.00358555 0)
(-0.00827456 0.00386002 0)
(-0.00965899 0.00409907 0)
(-0.0111128 0.00430223 0)
(-0.0126247 0.00446953 0)
(-0.0141835 0.00460141 0)
(-0.0157778 0.00469856 0)
(-0.0173968 0.00476188 0)
(-0.0190293 0.00479238 0)
(-0.020665 0.00479117 0)
(-0.0222934 0.00475937 0)
(-0.0239046 0.00469813 0)
(-0.0254889 0.0046086 0)
(-0.027037 0.00449192 0)
(-0.0285401 0.00434921 0)
(-0.0299894 0.00418161 0)
(-0.0313768 0.00399021 0)
(-0.0326945 0.00377612 0)
(-0.0339349 0.00354048 0)
(-0.0350911 0.00328443 0)
(-0.0361563 0.00300914 0)
(-0.0371244 0.00271586 0)
(-0.0379895 0.00240587 0)
(-0.0387463 0.00208054 0)
(-0.0393899 0.00174131 0)
(-0.0399161 0.00138973 0)
(-0.040321 0.00102746 0)
(-0.0406015 0.000656244 0)
(-0.0407551 0.000277968 0)
(-0.0407798 -0.000105375 0)
(-0.0406744 -0.000491673 0)
(-0.0404385 -0.000878695 0)
(-0.0400723 -0.0012641 0)
(-0.0395769 -0.00164545 0)
(-0.0389542 -0.0020202 0)
(-0.038207 -0.00238574 0)
(-0.0373389 -0.0027394 0)
(-0.0363544 -0.00307846 0)
(-0.0352589 -0.0034002 0)
(-0.0340585 -0.00370186 0)
(-0.0327606 -0.00398077 0)
(-0.031373 -0.00423427 0)
(-0.0299046 -0.00445981 0)
(-0.0283651 -0.00465498 0)
(-0.0267648 -0.00481748 0)
(-0.0251147 -0.00494522 0)
(-0.0234266 -0.00503634 0)
(-0.0217127 -0.00508921 0)
(-0.0199857 -0.00510248 0)
(-0.0182586 -0.00507514 0)
(-0.0165446 -0.00500651 0)
(-0.0148571 -0.00489632 0)
(-0.0132095 -0.00474471 0)
(-0.011615 -0.00455228 0)
(-0.0100864 -0.00432016 0)
(-0.0086359 -0.00405006 0)
(-0.00727519 -0.00374431 0)
(-0.00601489 -0.00340602 0)
(-0.00486444 -0.00303915 0)
(-0.00383185 -0.00264872 0)
(-0.00292335 -0.00224103 0)
(-0.0021431 -0.00182395 0)
(-0.00149275 -0.00140736 0)
(-0.000971127 -0.0010037 0)
(-0.000573733 -0.000628636 0)
(-0.000292298 -0.000302016 0)
(-0.000114206 -4.87851e-05 0)
(-2.27756e-05 9.97386e-05 0)
(1.78933e-06 0.000101439 0)
(-1.11263e-05 -2.1022e-05 0)
(-9.9729e-05 0.000163891 0)
(-0.000320426 0.000503799 0)
(-0.000673988 0.000946003 0)
(-0.00116521 0.00145154 0)
(-0.00179882 0.00199008 0)
(-0.00257569 0.00253827 0)
(-0.0034935 0.00307855 0)
(-0.0045474 0.00359785 0)
(-0.00573044 0.00408665 0)
(-0.00703398 0.00453816 0)
(-0.00844803 0.0049477 0)
(-0.00996163 0.00531224 0)
(-0.0115631 0.00563 0)
(-0.0132404 0.00590014 0)
(-0.014981 0.00612255 0)
(-0.0167725 0.00629762 0)
(-0.0186024 0.00642615 0)
(-0.0204583 0.00650921 0)
(-0.0223283 0.00654805 0)
(-0.0242003 0.00654404 0)
(-0.0260628 0.00649864 0)
(-0.0279046 0.00641333 0)
(-0.0297148 0.00628962 0)
(-0.031483 0.00612902 0)
(-0.0331989 0.00593303 0)
(-0.034853 0.00570316 0)
(-0.0364359 0.00544092 0)
(-0.0379387 0.00514781 0)
(-0.039353 0.00482537 0)
(-0.0406709 0.00447519 0)
(-0.0418846 0.00409888 0)
(-0.0429873 0.00369815 0)
(-0.0439724 0.00327477 0)
(-0.0448338 0.00283062 0)
(-0.0455662 0.0023677 0)
(-0.0461645 0.00188813 0)
(-0.0466247 0.00139417 0)
(-0.0469432 0.000888222 0)
(-0.0471171 0.000372857 0)
(-0.0471444 -0.000149211 0)
(-0.0470236 -0.000675107 0)
(-0.0467543 -0.00120181 0)
(-0.046337 -0.00172613 0)
(-0.0457727 -0.00224479 0)
(-0.0450638 -0.00275434 0)
(-0.0442133 -0.00325128 0)
(-0.0432254 -0.00373199 0)
(-0.0421052 -0.00419282 0)
(-0.0408587 -0.0046301 0)
(-0.0394929 -0.00504016 0)
(-0.038016 -0.00541939 0)
(-0.0364369 -0.00576424 0)
(-0.0347656 -0.00607131 0)
(-0.0330128 -0.00633735 0)
(-0.0311902 -0.00655932 0)
(-0.0293102 -0.00673445 0)
(-0.0273858 -0.00686023 0)
(-0.0254308 -0.00693453 0)
(-0.0234593 -0.00695558 0)
(-0.0214859 -0.00692207 0)
(-0.0195253 -0.00683314 0)
(-0.0175926 -0.00668847 0)
(-0.0157025 -0.00648833 0)
(-0.0138697 -0.00623361 0)
(-0.0121086 -0.00592589 0)
(-0.0104327 -0.00556755 0)
(-0.00885504 -0.00516182 0)
(-0.00738733 -0.00471292 0)
(-0.00604013 -0.0042262 0)
(-0.00482243 -0.00370837 0)
(-0.00374133 -0.0031677 0)
(-0.00280176 -0.00261439 0)
(-0.00200616 -0.00206103 0)
(-0.00135413 -0.0015231 0)
(-0.000842139 -0.00101971 0)
(-0.000463068 -0.000574516 0)
(-0.000205747 -0.00021657 0)
(-5.69584e-05 1.84271e-05 0)
(-4.02553e-06 8.36133e-05 0)
(-1.77806e-05 3.81109e-05 0)
(-0.000139886 0.000352308 0)
(-0.000428764 0.000831033 0)
(-0.000875775 0.00141905 0)
(-0.00148046 0.00207447 0)
(-0.00224478 0.00276394 0)
(-0.00316736 0.00346131 0)
(-0.004244 0.00414645 0)
(-0.00546836 0.00480409 0)
(-0.00683224 0.00542289 0)
(-0.00832587 0.00599455 0)
(-0.00993823 0.00651328 0)
(-0.0116573 0.00697518 0)
(-0.0134705 0.00737787 0)
(-0.0153645 0.00772015 0)
(-0.017326 0.0080017 0)
(-0.0193413 0.00822286 0)
(-0.0213969 0.00838451 0)
(-0.0234795 0.00848785 0)
(-0.0255756 0.00853438 0)
(-0.0276723 0.00852575 0)
(-0.029757 0.00846374 0)
(-0.0318172 0.0083502 0)
(-0.0338411 0.008187 0)
(-0.0358171 0.00797605 0)
(-0.0377339 0.00771928 0)
(-0.039581 0.00741859 0)
(-0.0413481 0.00707595 0)
(-0.0430252 0.0066933 0)
(-0.0446032 0.00627265 0)
(-0.0460731 0.00581606 0)
(-0.0474267 0.00532566 0)
(-0.0486561 0.00480366 0)
(-0.0497541 0.00425239 0)
(-0.0507142 0.00367432 0)
(-0.0515302 0.00307204 0)
(-0.0521969 0.00244835 0)
(-0.0527096 0.00180617 0)
(-0.0530644 0.00114866 0)
(-0.0532583 0.000479128 0)
(-0.0532888 -0.00019889 0)
(-0.0531546 -0.000881674 0)
(-0.0528552 -0.00156531 0)
(-0.0523909 -0.0022457 0)
(-0.0517633 -0.00291859 0)
(-0.0509747 -0.00357957 0)
(-0.0500286 -0.0042241 0)
(-0.0489295 -0.00484756 0)
(-0.0476831 -0.00544525 0)
(-0.046296 -0.00601248 0)
(-0.044776 -0.00654453 0)
(-0.0431319 -0.00703679 0)
(-0.0413737 -0.00748472 0)
(-0.0395121 -0.00788398 0)
(-0.037559 -0.00823041 0)
(-0.0355273 -0.00852015 0)
(-0.0334304 -0.00874966 0)
(-0.0312827 -0.00891578 0)
(-0.0290993 -0.00901579 0)
(-0.0268955 -0.00904747 0)
(-0.0246874 -0.00900918 0)
(-0.0224911 -0.00889989 0)
(-0.020323 -0.00871923 0)
(-0.0181993 -0.00846761 0)
(-0.016136 -0.00814624 0)
(-0.0141488 -0.00775723 0)
(-0.0122526 -0.00730368 0)
(-0.0104615 -0.00678979 0)
(-0.00878856 -0.00622098 0)
(-0.00724532 -0.00560409 0)
(-0.00584182 -0.00494756 0)
(-0.00458615 -0.00426172 0)
(-0.00348422 -0.00355912 0)
(-0.00253946 -0.00285498 0)
(-0.0017526 -0.00216772 0)
(-0.00112145 -0.00151964 0)
(-0.000640455 -0.000937774 0)
(-0.00030034 -0.000454661 0)
(-9.18308e-05 -0.000109443 0)
(-9.77583e-06 4.78359e-05 0)
(-2.41578e-05 0.000117731 0)
(-0.000179347 0.00059464 0)
(-0.000536431 0.00123961 0)
(-0.00107754 0.00199617 0)
(-0.00179685 0.0028205 0)
(-0.0026933 0.00367707 0)
(-0.00376294 0.0045375 0)
(-0.00499943 0.00537957 0)
(-0.00639468 0.00618614 0)
(-0.00793906 0.00694423 0)
(-0.0096215 0.00764421 0)
(-0.0114299 0.00827922 0)
(-0.0133511 0.00884455 0)
(-0.0153715 0.00933724 0)
(-0.0174768 0.00975571 0)
(-0.0196528 0.0100994 0)
(-0.0218847 0.0103687 0)
(-0.024158 0.0105644 0)
(-0.0264584 0.0106879 0)
(-0.0287714 0.010741 0)
(-0.0310832 0.0107255 0)
(-0.03338 0.0106436 0)
(-0.0356485 0.0104975 0)
(-0.0378758 0.0102895 0)
(-0.0400494 0.0100219 0)
(-0.0421571 0.00969705 0)
(-0.0441874 0.00931733 0)
(-0.0461291 0.00888516 0)
(-0.0479716 0.00840298 0)
(-0.0497047 0.00787331 0)
(-0.0513189 0.00729873 0)
(-0.0528051 0.00668191 0)
(-0.0541548 0.00602566 0)
(-0.0553603 0.0053329 0)
(-0.0564142 0.00460674 0)
(-0.0573102 0.00385047 0)
(-0.0580423 0.00306756 0)
(-0.0586057 0.00226172 0)
(-0.058996 0.00143689 0)
(-0.05921 0.000597227 0)
(-0.059245 -0.000252856 0)
(-0.0590997 -0.00110871 0)
(-0.0587733 -0.00196545 0)
(-0.0582665 -0.00281799 0)
(-0.0575807 -0.00366101 0)
(-0.0567186 -0.00448904 0)
(-0.0556838 -0.00529644 0)
(-0.0544814 -0.00607749 0)
(-0.0531173 -0.00682637 0)
(-0.0515988 -0.00753724 0)
(-0.0499342 -0.00820429 0)
(-0.0481332 -0.00882179 0)
(-0.0462062 -0.00938415 0)
(-0.0441651 -0.009886 0)
(-0.0420227 -0.0103222 0)
(-0.0397927 -0.010688 0)
(-0.0374898 -0.0109791 0)
(-0.0351294 -0.0111914 0)
(-0.0327276 -0.0113218 0)
(-0.0303013 -0.0113675 0)
(-0.0278675 -0.0113266 0)
(-0.0254439 -0.0111976 0)
(-0.0230479 -0.0109804 0)
(-0.0206971 -0.0106754 0)
(-0.0184089 -0.0102842 0)
(-0.0162002 -0.00980936 0)
(-0.0140871 -0.00925489 0)
(-0.0120849 -0.00862593 0)
(-0.0102078 -0.00792918 0)
(-0.00846867 -0.00717299 0)
(-0.00687851 -0.00636757 0)
(-0.00544656 -0.00552531 0)
(-0.00417991 -0.00466108 0)
(-0.0030832 -0.00379262 0)
(-0.00215857 -0.00294113 0)
(-0.00140543 -0.00213179 0)
(-0.00082011 -0.00139461 0)
(-0.00039551 -0.000765005 0)
(-0.00012647 -0.000284736 0)
(-1.53248e-05 -5.84212e-06 0)
(-3.02355e-05 0.000217261 0)
(-0.000217729 0.000890224 0)
(-0.000642164 0.00172924 0)
(-0.00127683 0.00267753 0)
(-0.00211059 0.00369016 0)
(-0.00313925 0.00473013 0)
(-0.00435612 0.00576743 0)
(-0.0057525 0.0067782 0)
(-0.00731838 0.00774375 0)
(-0.00904248 0.00864974 0)
(-0.0109123 0.0094854 0)
(-0.0129146 0.0102429 0)
(-0.015035 0.0109168 0)
(-0.0172589 0.0115037 0)
(-0.0195711 0.0120015 0)
(-0.0219562 0.0124096 0)
(-0.0243987 0.0127282 0)
(-0.0268831 0.0129582 0)
(-0.0293941 0.0131013 0)
(-0.0319164 0.0131592 0)
(-0.0344352 0.0131344 0)
(-0.0369359 0.0130291 0)
(-0.0394042 0.0128461 0)
(-0.0418264 0.0125879 0)
(-0.0441891 0.0122574 0)
(-0.0464793 0.0118573 0)
(-0.0486847 0.0113906 0)
(-0.0507934 0.0108602 0)
(-0.0527938 0.010269 0)
(-0.0546752 0.00962 0)
(-0.0564273 0.00891645 0)
(-0.0580403 0.0081616 0)
(-0.0595053 0.00735885 0)
(-0.0608138 0.00651181 0)
(-0.0619581 0.00562425 0)
(-0.0629313 0.0047002 0)
(-0.0637271 0.00374391 0)
(-0.0643401 0.00275989 0)
(-0.0647659 0.00175295 0)
(-0.0650007 0.000728137 0)
(-0.065042 -0.000309173 0)
(-0.064888 -0.00135334 0)
(-0.0645382 -0.00239844 0)
(-0.063993 -0.00343831 0)
(-0.0632541 -0.00446651 0)
(-0.0623242 -0.00547643 0)
(-0.0612073 -0.00646127 0)
(-0.0599086 -0.00741408 0)
(-0.0584345 -0.00832786 0)
(-0.0567927 -0.00919557 0)
(-0.0549921 -0.0100102 0)
(-0.0530428 -0.0107648 0)
(-0.0509562 -0.0114528 0)
(-0.0487447 -0.0120675 0)
(-0.046422 -0.0126029 0)
(-0.0440028 -0.0130531 0)
(-0.0415025 -0.0134131 0)
(-0.0389378 -0.013678 0)
(-0.0363258 -0.0138439 0)
(-0.0336844 -0.0139076 0)
(-0.031032 -0.0138667 0)
(-0.0283872 -0.0137196 0)
(-0.0257688 -0.013466 0)
(-0.0231957 -0.0131066 0)
(-0.0206864 -0.0126432 0)
(-0.0182591 -0.0120792 0)
(-0.0159311 -0.011419 0)
(-0.013719 -0.0106691 0)
(-0.0116382 -0.00983724 0)
(-0.00970267 -0.00893345 0)
(-0.0079248 -0.00796968 0)
(-0.00631505 -0.00696032 0)
(-0.0048818 -0.00592246 0)
(-0.00363117 -0.00487629 0)
(-0.00256685 -0.00384553 0)
(-0.00169013 -0.00285802 0)
(-0.000999386 -0.0019463 0)
(-0.000489829 -0.00114818 0)
(-0.000160398 -0.00050736 0)
(-2.0621e-05 -7.70494e-05 0)
(-3.60191e-05 0.000336027 0)
(-0.000254868 0.00123793 0)
(-0.000745304 0.00229882 0)
(-0.00147222 0.00346225 0)
(-0.00241937 0.00468285 0)
(-0.00357939 0.00592272 0)
(-0.00494276 0.00715074 0)
(-0.00649831 0.00834183 0)
(-0.00823395 0.00947613 0)
(-0.0101366 0.0105382 0)
(-0.0121923 0.0115164 0)
(-0.0143864 0.0124019 0)
(-0.0167035 0.0131889 0)
(-0.0191277 0.0138734 0)
(-0.0216429 0.0144531 0)
(-0.0242327 0.0149271 0)
(-0.0268808 0.0152956 0)
(-0.0295708 0.0155598 0)
(-0.0322864 0.0157212 0)
(-0.0350117 0.0157821 0)
(-0.0377308 0.015745 0)
(-0.0404285 0.0156127 0)
(-0.0430897 0.0153881 0)
(-0.0456997 0.0150744 0)
(-0.0482446 0.0146749 0)
(-0.0507105 0.0141927 0)
(-0.0530844 0.0136314 0)
(-0.0553536 0.0129942 0)
(-0.057506 0.0122848 0)
(-0.0595301 0.0115068 0)
(-0.0614151 0.0106639 0)
(-0.0631506 0.00975999 0)
(-0.064727 0.00879918 0)
(-0.0661354 0.00778576 0)
(-0.0673676 0.00672425 0)
(-0.0684163 0.00561944 0)
(-0.0692747 0.0044764 0)
(-0.0699372 0.00330052 0)
(-0.0703989 0.00209749 0)
(-0.070656 0.000873354 0)
(-0.0707056 -0.000365527 0)
(-0.0705459 -0.00161245 0)
(-0.0701762 -0.0028604 0)
(-0.069597 -0.00410206 0)
(-0.0688099 -0.00532981 0)
(-0.0678178 -0.00653583 0)
(-0.0666247 -0.00771206 0)
(-0.0652363 -0.00885031 0)
(-0.0636591 -0.00994229 0)
(-0.0619012 -0.0109797 0)
(-0.0599721 -0.0119542 0)
(-0.0578822 -0.0128577 0)
(-0.0556437 -0.0136823 0)
(-0.0532695 -0.0144202 0)
(-0.0507741 -0.0150642 0)
(-0.048173 -0.0156076 0)
(-0.0454825 -0.0160441 0)
(-0.0427202 -0.0163682 0)
(-0.0399043 -0.0165753 0)
(-0.0370535 -0.0166614 0)
(-0.0341876 -0.0166239 0)
(-0.0313261 -0.0164609 0)
(-0.0284891 -0.0161719 0)
(-0.0256967 -0.0157578 0)
(-0.0229687 -0.0152209 0)
(-0.0203243 -0.0145648 0)
(-0.0177823 -0.013795 0)
(-0.0153605 -0.0129188 0)
(-0.0130756 -0.0119455 0)
(-0.0109429 -0.0108864 0)
(-0.0089761 -0.0097552 0)
(-0.00718706 -0.0085683 0)
(-0.00558567 -0.00734493 0)
(-0.00417963 -0.00610754 0)
(-0.00297441 -0.00488223 0)
(-0.0019733 -0.00369917 0)
(-0.00117684 -0.00259316 0)
(-0.000582574 -0.00160394 0)
(-0.000193409 -0.000776703 0)
(-2.56576e-05 -0.000165275 0)
(-4.15299e-05 0.000473338 0)
(-0.000290735 0.00163639 0)
(-0.000845565 0.0029468 0)
(-0.001663 0.00434886 0)
(-0.00272189 0.00579725 0)
(-0.00401177 0.00725367 0)
(-0.00552028 0.00868634 0)
(-0.00723369 0.0100694 0)
(-0.00913772 0.011382 0)
(-0.0112174 0.0126081 0)
(-0.0134573 0.0137352 0)
(-0.0158411 0.014754 0)
(-0.0183524 0.0156581 0)
(-0.020974 0.0164431 0)
(-0.0236889 0.0171066 0)
(-0.0264797 0.0176476 0)
(-0.0293292 0.0180663 0)
(-0.0322202 0.0183639 0)
(-0.0351355 0.0185422 0)
(-0.0380585 0.0186037 0)
(-0.0409725 0.0185512 0)
(-0.0438616 0.018388 0)
(-0.0467099 0.0181173 0)
(-0.0495021 0.0177428 0)
(-0.0522234 0.0172682 0)
(-0.0548594 0.0166972 0)
(-0.0573964 0.0160337 0)
(-0.0598211 0.0152818 0)
(-0.0621208 0.0144455 0)
(-0.0642834 0.0135291 0)
(-0.0662974 0.0125369 0)
(-0.068152 0.0114735 0)
(-0.0698371 0.0103437 0)
(-0.0713433 0.00915248 0)
(-0.0726619 0.00790514 0)
(-0.0737852 0.00660728 0)
(-0.0747061 0.00526485 0)
(-0.0754185 0.00388414 0)
(-0.0759175 0.00247179 0)
(-0.0761987 0.00103486 0)
(-0.0762592 -0.000419239 0)
(-0.0760969 -0.00188269 0)
(-0.0757112 -0.00334733 0)
(-0.0751022 -0.00480463 0)
(-0.0742718 -0.00624575 0)
(-0.0732228 -0.00766156 0)
(-0.0719594 -0.00904273 0)
(-0.0704873 -0.0103797 0)
(-0.0688135 -0.0116629 0)
(-0.0669461 -0.0128826 0)
(-0.0648951 -0.0140292 0)
(-0.0626714 -0.0150933 0)
(-0.0602875 -0.0160655 0)
(-0.0577572 -0.016937 0)
(-0.0550955 -0.0176994 0)
(-0.0523185 -0.0183448 0)
(-0.0494435 -0.0188659 0)
(-0.0464889 -0.0192563 0)
(-0.0434737 -0.0195106 0)
(-0.0404178 -0.0196244 0)
(-0.0373419 -0.0195942 0)
(-0.0342668 -0.0194181 0)
(-0.0312136 -0.0190954 0)
(-0.0282036 -0.0186271 0)
(-0.0252578 -0.0180157 0)
(-0.0223969 -0.0172656 0)
(-0.0196408 -0.0163828 0)
(-0.0170087 -0.0153758 0)
(-0.0145187 -0.0142549 0)
(-0.0121875 -0.013033 0)
(-0.0100303 -0.0117255 0)
(-0.00806039 -0.0103507 0)
(-0.00628941 -0.00892985 0)
(-0.00472676 -0.0074875 0)
(-0.00337981 -0.00605194 0)
(-0.00225392 -0.0046555 0)
(-0.00135187 -0.00333493 0)
(-0.000673497 -0.00213163 0)
(-0.00022547 -0.00109192 0)
(-3.04523e-05 -0.000269973 0)
(-4.67949e-05 0.000628511 0)
(-0.000325369 0.00208417 0)
(-0.000942889 0.00367138 0)
(-0.00184888 0.00533548 0)
(-0.00301753 0.00703155 0)
(-0.00443537 0.00872129 0)
(-0.0060872 0.0103726 0)
(-0.00795673 0.0119592 0)
(-0.0100274 0.0134599 0)
(-0.0122825 0.0148578 0)
(-0.0147046 0.0161401 0)
(-0.0172761 0.017297 0)
(-0.0199792 0.0183218 0)
(-0.0227956 0.0192099 0)
(-0.0257073 0.0199588 0)
(-0.0286958 0.0205675 0)
(-0.0317432 0.0210361 0)
(-0.0348312 0.0213661 0)
(-0.0379422 0.0215596 0)
(-0.0410584 0.0216192 0)
(-0.0441629 0.0215481 0)
(-0.0472387 0.02135 0)
(-0.0502694 0.0210286 0)
(-0.053239 0.020588 0)
(-0.0561322 0.0200323 0)
(-0.058934 0.0193659 0)
(-0.0616299 0.0185931 0)
(-0.0642062 0.0177187 0)
(-0.0666495 0.0167471 0)
(-0.0689473 0.0156834 0)
(-0.0710876 0.0145325 0)
(-0.073059 0.0132997 0)
(-0.074851 0.0119905 0)
(-0.0764537 0.0106106 0)
(-0.0778581 0.00916616 0)
(-0.0790559 0.00766362 0)
(-0.0800398 0.00610979 0)
(-0.0808034 0.00451193 0)
(-0.0813413 0.00287766 0)
(-0.0816491 0.00121509 0)
(-0.0817234 -0.000467261 0)
(-0.0815621 -0.00216044 0)
(-0.0811643 -0.00385507 0)
(-0.0805301 -0.00554138 0)
(-0.0796613 -0.00720924 0)
(-0.0785606 -0.00884819 0)
(-0.0772325 -0.0104475 0)
(-0.0756825 -0.0119963 0)
(-0.0739179 -0.0134835 0)
(-0.0719471 -0.0148981 0)
(-0.0697802 -0.0162289 0)
(-0.0674287 -0.0174653 0)
(-0.0649054 -0.0185964 0)
(-0.0622245 -0.0196122 0)
(-0.0594018 -0.020503 0)
(-0.0564539 -0.0212596 0)
(-0.0533989 -0.0218737 0)
(-0.0502559 -0.0223381 0)
(-0.047045 -0.0226463 0)
(-0.043787 -0.0227932 0)
(-0.0405035 -0.022775 0)
(-0.0372164 -0.0225892 0)
(-0.0339482 -0.0222351 0)
(-0.0307212 -0.0217137 0)
(-0.0275577 -0.0210276 0)
(-0.0244796 -0.0201818 0)
(-0.0215085 -0.0191832 0)
(-0.0186648 -0.0180409 0)
(-0.0159681 -0.0167667 0)
(-0.0134366 -0.0153749 0)
(-0.0110871 -0.0138823 0)
(-0.00893467 -0.0123091 0)
(-0.00699259 -0.0106785 0)
(-0.00527216 -0.0090171 0)
(-0.00378274 -0.00735518 0)
(-0.00253184 -0.00572702 0)
(-0.00152446 -0.00417115 0)
(-0.000762663 -0.00273043 0)
(-0.000256658 -0.00145213 0)
(-3.50362e-05 -0.000390628 0)
(-5.18409e-05 0.000800914 0)
(-0.000358843 0.00257983 0)
(-0.00103736 0.00447068 0)
(-0.00202986 0.00642004 0)
(-0.00330611 0.00838366 0)
(-0.00484976 0.0103236 0)
(-0.00664283 0.0122077 0)
(-0.00866646 0.0140096 0)
(-0.0109019 0.0157078 0)
(-0.0133303 0.0172853 0)
(-0.0159326 0.0187289 0)
(-0.0186897 0.0200286 0)
(-0.0215823 0.0211776 0)
(-0.0245911 0.0221712 0)
(-0.0276968 0.0230068 0)
(-0.0308803 0.0236835 0)
(-0.0341223 0.0242017 0)
(-0.0374042 0.0245629 0)
(-0.0407072 0.0247695 0)
(-0.0440132 0.0248245 0)
(-0.0473043 0.0247315 0)
(-0.050563 0.0244945 0)
(-0.0537723 0.0241177 0)
(-0.0569157 0.0236057 0)
(-0.0599771 0.0229632 0)
(-0.062941 0.0221949 0)
(-0.0657926 0.021306 0)
(-0.0685174 0.0203015 0)
(-0.0711017 0.0191867 0)
(-0.0735324 0.0179672 0)
(-0.0757971 0.0166486 0)
(-0.0778839 0.015237 0)
(-0.0797818 0.0137384 0)
(-0.0814806 0.0121596 0)
(-0.0829709 0.0105074 0)
(-0.0842439 0.00878906 0)
(-0.0852921 0.00701242 0)
(-0.0861086 0.00518566 0)
(-0.0866878 0.00331745 0)
(-0.0870249 0.00141695 0)
(-0.0871164 -0.000506183 0)
(-0.0869599 -0.0024418 0)
(-0.0865543 -0.00437929 0)
(-0.0858996 -0.00630758 0)
(-0.0849973 -0.00821521 0)
(-0.0838503 -0.0100903 0)
(-0.0824628 -0.0119208 0)
(-0.0808405 -0.0136943 0)
(-0.0789908 -0.0153983 0)
(-0.0769222 -0.0170203 0)
(-0.0746451 -0.0185476 0)
(-0.0721711 -0.0199681 0)