/*--------------------------------*- C++ -*----------------------------------*\
  =========                 |
  \\      /  F ield         | OpenFOAM: The Open Source CFD Toolbox
   \\    /   O peration     | Website:  https://openfoam.org
    \\  /    A nd           | Version:  9
     \\/     M anipulation  |
\*---------------------------------------------------------------------------*/
FoamFile
{
    format      ascii;
    class       surfaceScalarField;
    location    "52.4";
    object      phi;
}
// * * * * * * * * * * * * * * * * * * * * * * * * * * * * * * * * * * * * * //

dimensions      [0 3 -1 0 0 0 0];

internalField   nonuniform List<scalar> 
16735
(
-0.00298913
0.00299096
-1.82614e-06
-0.00897691
0.00599143
-3.65336e-06
-0.0168427
0.00787056
-4.74445e-06
-0.0258622
0.009025
-5.52557e-06
-0.0359271
0.0100713
-6.37903e-06
-0.0464588
0.0105389
-7.24127e-06
-0.0585478
0.0120971
-8.17386e-06
-0.0695065
0.0109673
-8.57964e-06
-0.084248
0.0147498
-8.3055e-06
0.0111089
-6.55661e-06
-0.0953503
-0.00293789
0.00592885
-0.00883024
0.0118838
-0.0165596
0.0155999
-0.0253926
0.017858
-0.035208
0.0198867
-0.0453956
0.0207266
-0.0570403
0.0237418
-0.0673555
0.0212824
-0.0813826
0.028777
0.0209586
-0.0912324
-0.00283764
0.00876649
-0.00854203
0.0175882
-0.0160014
0.0230593
-0.0244648
0.0263214
-0.0337824
0.0292043
-0.043288
0.0302322
-0.0540355
0.0344893
-0.063075
0.0303219
-0.0756854
0.0413875
0.0283531
-0.0830799
-0.00269265
0.0114591
-0.00812223
0.0230178
-0.0151842
0.0301212
-0.0231011
0.0342383
-0.0316749
0.0377782
-0.0401726
0.0387299
-0.0495511
0.0438678
-0.0566987
0.0374694
-0.0672003
0.0518891
0.0321812
-0.0710285
-0.00250914
0.0139683
-0.00758527
0.0280939
-0.0141312
0.0366671
-0.0213339
0.041441
-0.0289218
0.0453661
-0.0361023
0.0459104
-0.0436106
0.0513761
-0.04826
0.0421189
-0.055938
0.0595671
0.0314507
-0.0552075
-0.00229495
0.0162632
-0.00694942
0.0327484
-0.0128703
0.042588
-0.0192041
0.0477748
-0.0255692
0.0517311
-0.031145
0.0514862
-0.0362405
0.0564717
-0.0377858
0.0436642
-0.0418089
0.0635902
0.0252812
-0.0356395
-0.00205922
0.0183224
-0.00623603
0.0369252
-0.0114349
0.0477869
-0.0167591
0.053099
-0.02167
0.056642
-0.0253783
0.0551945
-0.0274667
0.0585601
-0.0253091
0.0415066
-0.0245434
0.0628245
0.0129017
-0.0121639
-0.00181196
0.0201344
-0.00546847
0.0405817
-0.00986158
0.05218
-0.0140487
0.0572862
-0.0172784
0.0598717
-0.0188798
0.0567958
-0.0172993
0.0569796
-0.0109266
0.0351339
-0.00352346
0.0554213
-0.00701179
0.0163901
-0.00156351
0.0216979
-0.00467079
0.043689
-0.00818772
0.0556969
-0.0111205
0.0602189
-0.0124403
0.0611916
-0.0117087
0.0560642
-0.00566377
0.0509347
0.00546296
0.0240072
0.0205818
0.0403025
-0.0375389
0.051109
-0.00132396
0.0230219
-0.00386612
0.0462311
-0.00644866
0.0582794
-0.00801331
0.0617836
-0.00717855
0.0603568
-0.0038999
0.0527855
0.0071679
0.0398669
0.0242999
0.00687511
0.0490126
0.0155898
-0.0811381
0.0926118
-0.00110247
0.0241243
-0.00307492
0.0482036
-0.00467422
0.0598787
-0.00475187
0.0618612
-0.00144737
0.0570523
0.00488142
0.0464567
0.0214431
0.0233053
0.0450564
-0.0167383
0.0820074
-0.0213611
-0.14037
0.141239
-0.00090658
0.0250309
-0.00231276
0.0496098
-0.00288399
0.06045
-0.00135047
0.0603277
0.00458232
0.0511195
0.014849
0.0361901
0.0377844
0.000369868
0.0686083
-0.0475622
0.119814
-0.0725672
-0.216443
0.195888
-0.000741549
0.0257725
-0.00158821
0.0504564
-0.00107804
0.0599398
0.00229478
0.0569549
0.011184
0.0422303
0.0262106
0.0211635
0.0565218
-0.0299413
0.0963096
-0.08735
0.162763
-0.13902
-0.307391
0.25371
-0.000609854
0.0263823
-0.000901118
0.0507477
0.000747146
0.0582915
0.00620962
0.0514924
0.0185546
0.0298853
0.0395247
0.000193311
0.0780132
-0.0684298
0.129228
-0.138565
0.210444
-0.220236
-0.407503
0.310557
-0.000511834
0.0268942
-0.000238928
0.0504748
0.00262949
0.0554231
0.0104818
0.0436401
0.026928
0.0134392
0.0553019
-0.0281806
0.102624
-0.115752
0.166985
-0.202926
0.260403
-0.313654
-0.509044
0.361944
-0.000438435
0.0273326
0.000417152
0.0496192
0.00466713
0.0511731
0.0153056
0.0330016
0.0366436
-0.0078988
0.0738471
-0.0653841
0.130569
-0.172474
0.207487
-0.279844
0.308018
-0.414185
-0.605145
0.404119
-0.000378647
0.0277112
0.00110793
0.0481326
0.00696252
0.0453185
0.0209396
0.0190245
0.0481517
-0.0351109
0.0951443
-0.112377
0.161334
-0.238664
0.247537
-0.366047
0.34835
-0.514997
-0.691655
0.434859
-0.000320144
0.0280314
0.00188509
0.0459274
0.00965148
0.0375522
0.0276902
0.000985735
0.0618909
-0.0693116
0.118812
-0.169297
0.193199
-0.313052
0.283604
-0.456452
0.378242
-0.609636
-0.767163
0.45375
-0.000246121
0.0282775
0.00280836
0.0428729
0.0128939
0.0274666
0.0358655
-0.0219858
0.0780516
-0.111498
0.143946
-0.235192
0.223602
-0.392708
0.312742
-0.545592
0.396977
-0.69387
-0.832204
0.462018
-0.00013636
0.0284139
0.00394409
0.0387924
0.0168663
0.0145444
0.0457038
-0.0508233
0.0963294
-0.162123
0.169019
-0.307881
0.250058
-0.473746
0.3334
-0.628934
0.405608
-0.766078
-0.888867
0.462271
3.06672e-05
0.0283832
0.00536261
0.0334605
0.0217486
-0.00184162
0.0572766
-0.0863512
0.115842
-0.220689
0.192169
-0.384208
0.270852
-0.55243
0.345543
-0.703625
0.407142
-0.827677
-0.944872
0.463147
0.000248501
0.0281347
0.00713831
0.0265707
0.0276991
-0.0224024
0.0703782
-0.12903
0.135277
-0.285588
0.211772
-0.460704
0.285256
-0.625914
0.350304
-0.768673
0.405199
-0.882571
-0.993464
0.45379
0.000555452
0.0275792
0.00934878
0.0177774
0.0348027
-0.0478563
0.0844679
-0.178696
0.153216
-0.354336
0.22685
-0.534337
0.293445
-0.692509
0.34988
-0.825107
0.397549
-0.93024
-1.03473
0.438818
0.000961797
0.0266175
0.0120712
0.00666794
0.0430041
-0.0787891
0.0987258
-0.234417
0.168489
-0.424098
0.237117
-0.602965
0.296284
-0.751676
0.344952
-0.873776
0.386503
-0.97179
-1.07168
0.423453
0.00147891
0.0251385
0.0153725
-0.00722561
0.0520648
-0.115482
0.112216
-0.294569
0.180394
-0.492276
0.242831
-0.665402
0.294661
-0.803505
0.336694
-0.91581
0.373221
-1.00832
-1.10462
0.406163
0.00212072
0.0230178
0.0192827
-0.0243876
0.0615803
-0.157779
0.124092
-0.357081
0.188706
-0.55689
0.244497
-0.721193
0.289524
-0.848533
0.325948
-0.952234
0.358234
-1.0406
-1.13448
0.388086
0.0029087
0.0201091
0.0237641
-0.045243
0.0710402
-0.205055
0.133757
-0.419798
0.193541
-0.616674
0.242735
-0.770386
0.281673
-0.887471
0.313382
-0.983943
0.342165
-1.06939
-1.16164
0.369325
0.00387565
0.0162335
0.0286981
-0.0700655
0.079898
-0.256255
0.140922
-0.480822
0.195217
-0.670969
0.238167
-0.813336
0.271772
-0.921076
0.299518
-1.01169
0.325293
-1.09516
-1.18639
0.350048
0.00506172
0.0111717
0.0339004
-0.0989041
0.0876539
-0.310009
0.14556
-0.538729
0.194141
-0.719549
0.231359
-0.850554
0.260348
-0.950065
0.284723
-1.03606
0.307868
-1.11831
-1.20893
0.330407
0.00649822
0.00467353
0.0391528
-0.131559
0.0939497
-0.364805
0.147813
-0.592592
0.190744
-0.76248
0.222802
-0.882612
0.247807
-0.975071
0.269272
-1.05753
0.290036
-1.13907
-1.22934
0.31045
0.00818503
-0.00351151
0.0442328
-0.167606
0.0986083
-0.419181
0.147908
-0.641892
0.185437
-0.800008
0.212902
-0.910077
0.234459
-0.996628
0.253353
-1.07642
0.271903
-1.15762
-1.24769
0.290251
0.0100779
-0.0135894
0.048924
-0.206453
0.101602
-0.471859
0.146109
-0.686399
0.178591
-0.83249
0.20199
-0.933476
0.220533
-1.01517
0.237103
-1.09299
0.253545
-1.17406
-1.26399
0.269845
0.0120966
-0.0256861
0.0530234
-0.247379
0.103002
-0.521838
0.142686
-0.726083
0.170526
-0.860329
0.190328
-0.953278
0.2062
-1.03104
0.22062
-1.10741
0.235016
-1.18846
-1.27825
0.249276
0.0141459
-0.0398319
0.0563594
-0.289593
0.102933
-0.568412
0.137896
-0.761046
0.161511
-0.883944
0.178121
-0.969889
0.191586
-1.04451
0.203973
-1.1198
0.21636
-1.20085
-1.29047
0.228575
0.0161381
-0.0559701
0.0588137
-0.332268
0.101548
-0.611146
0.131976
-0.791474
0.151767
-0.903735
0.165529
-0.98365
0.176784
-1.05576
0.187213
-1.13023
0.197614
-1.21125
-1.30063
0.207778
0.0180023
-0.0739723
0.0603306
-0.374597
0.0990101
-0.649826
0.125141
-0.817605
0.141477
-0.920071
0.152673
-0.994846
0.161863
-1.06495
0.170383
-1.13875
0.17881
-1.21967
-1.30874
0.186916
0.0196799
-0.0936523
0.0609103
-0.415827
0.0954816
-0.684397
0.117579
-0.839703
0.130789
-0.933281
0.139647
-1.0037
0.146878
-1.07219
0.15352
-1.14539
0.159978
-1.22613
-1.31478
0.166023
0.0211181
-0.11477
0.0605923
-0.455301
0.0911149
-0.71492
0.109454
-0.858042
0.119824
-0.943651
0.126523
-1.0104
0.13187
-1.07753
0.136654
-1.15017
0.141147
-1.23062
-1.31877
0.145132
0.0222666
-0.137037
0.0594348
-0.492469
0.0860484
-0.741533
0.100904
-0.872897
0.10868
-0.951427
0.113359
-1.01508
0.116875
-1.08105
0.119813
-1.15311
0.122346
-1.23316
-1.3207
0.124278
0.0230822
-0.160119
0.0575236
-0.526911
0.0804084
-0.764418
0.0920468
-0.884536
0.0974343
-0.956814
0.1002
-1.01785
0.101922
-1.08277
0.103022
-1.15421
0.103603
-1.23374
-1.3206
0.103502
0.0235362
-0.183655
0.0550384
-0.558413
0.0743132
-0.783693
0.0829773
-0.8932
0.0861501
-0.959987
0.087082
-1.01878
0.087037
-1.08273
0.0863036
-1.15348
0.0849482
-1.23238
-1.31851
0.0828575
0.0236166
-0.207272
0.0520449
-0.586841
0.0678674
-0.799515
0.0737749
-0.899107
0.0748766
-0.961089
0.0740356
-1.01794
0.0722427
-1.08093
0.0696821
-1.15092
0.0664014
-1.2291
-1.31442
0.0623098
0.0233289
-0.230601
0.0486149
-0.612127
0.0611615
-0.812062
0.0645059
-0.902452
0.0636536
-0.960237
0.0610865
-1.01537
0.0575617
-1.07741
0.0531828
-1.14654
0.0479805
-1.2239
-1.30831
0.0418764
0.022694
-0.253295
0.044822
-0.634255
0.0542751
-0.821515
0.055225
-0.903402
0.0525134
-0.957525
0.048257
-1.01112
0.0430137
-1.07217
0.0368317
-1.14035
0.02973
-1.2168
-1.30017
0.0215827
0.0217454
-0.27504
0.0407368
-0.653247
0.0472596
-0.828038
0.0459758
-0.902118
0.0414827
-0.953032
0.0355675
-1.0052
0.0286176
-1.06522
0.0206426
-1.13238
0.0117138
-1.20787
-1.28982
0.00137108
0.0205237
-0.295564
0.0364248
-0.669148
0.0401722
-0.831785
0.0367948
-0.898741
0.0305844
-0.946821
0.0230351
-0.997651
0.0143914
-1.05657
0.00459282
-1.12258
-0.00605526
-1.19722
-1.2775
-0.0183832
0.0190724
-0.314637
0.0319465
-0.682022
0.033066
-0.832905
0.0277129
-0.893388
0.0198367
-0.938945
0.0106699
-0.988484
0.000320167
-1.04622
-0.0111183
-1.11114
-0.023707
-1.18463
-1.26334
-0.0378617
0.0174341
-0.332071
0.0273562
-0.691944
0.0259847
-0.831533
0.0187564
-0.886159
0.0092462
-0.929435
-0.00152558
-0.977712
-0.0134196
-1.03433
-0.0265752
-1.09799
-0.0410602
-1.17015
-1.24733
-0.0570732
0.0156488
-0.347719
0.0227025
-0.698997
0.0189645
-0.827795
0.00994614
-0.877141
-0.0011999
-0.918289
-0.0133996
-0.965513
-0.0269581
-1.02077
-0.0418017
-1.08314
-0.058118
-1.15383
-1.22947
-0.0759709
0.013753
-0.361472
0.0180276
-0.703272
0.0120332
-0.821801
0.00127397
-0.866382
-0.0112673
-0.905748
-0.0250865
-0.951694
-0.0402491
-1.00561
-0.0567634
-1.06663
-0.0748608
-1.13573
-1.2098
-0.0945357
0.0117803
-0.373253
0.0133687
-0.70486
0.00520184
-0.813634
-0.00711497
-0.854065
-0.0211733
-0.891689
-0.0365397
-0.936327
-0.0532757
-0.988871
-0.0714356
-1.04847
-0.0912734
-1.1159
-1.18833
-0.112739
0.00976082
-0.383014
0.00876094
-0.703861
-0.00150389
-0.803369
-0.0153282
-0.84024
-0.0308619
-0.876156
-0.0477407
-0.919448
-0.0660216
-0.97059
-0.0857967
-1.02869
-0.107337
-1.09436
-1.16511
-0.130559
0.00771969
-0.390733
0.00424432
-0.700385
-0.00789315
-0.791232
-0.0233393
-0.824794
-0.0403158
-0.859179
-0.0586751
-0.901089
-0.0784718
-0.950793
-0.0998284
-1.00734
-0.123034
-1.07115
-1.14017
-0.147975
0.00567569
-0.396409
-7.73832e-05
-0.694632
-0.0141521
-0.777157
-0.0311334
-0.807813
-0.0495242
-0.840788
-0.0693306
-0.881283
-0.0906113
-0.929512
-0.113514
-0.984435
-0.138348
-1.04632
-1.11355
-0.164964
0.00364687
-0.400056
-0.00464016
-0.686345
-0.0202492
-0.761548
-0.0386961
-0.789366
-0.0584755
-0.821009
-0.0796954
-0.860063
-0.102426
-0.906782
-0.126839
-0.960021
-0.153263
-1.01989
-1.08532
-0.1815
0.00166962
-0.401725
-0.00894305
-0.675732
-0.026166
-0.744325
-0.0460181
-0.769514
-0.0671596
-0.799867
-0.0897582
-0.837464
-0.113903
-0.882637
-0.13979
-0.934135
-0.16776
-0.991924
-1.05552
-0.197557
-0.000218732
-0.401507
-0.0130781
-0.662873
-0.0318928
-0.72551
-0.0530949
-0.748312
-0.0755665
-0.777396
-0.099508
-0.813523
-0.12503
-0.857114
-0.152355
-0.90681
-0.181823
-0.962456
-1.0242
-0.21314
-0.002347
-0.39916
-0.0170618
-0.648158
-0.0374169
-0.705155
-0.0599205
-0.725808
-0.0836872
-0.753629
-0.108934
-0.788276
-0.135799
-0.83025
-0.164537
-0.878072
-0.195446
-0.931546
-0.991435
-0.228215
-0.00432636
-0.394833
-0.0208927
-0.631592
-0.0427266
-0.683322
-0.0664891
-0.702046
-0.091513
-0.728605
-0.118027
-0.761762
-0.1462
-0.802076
-0.176327
-0.847945
-0.208582
-0.899292
-0.95747
-0.242547
-0.00621915
-0.388614
-0.024568
-0.613243
-0.047816
-0.660074
-0.0727951
-0.677067
-0.0990359
-0.702364
-0.126776
-0.734022
-0.156223
-0.772629
-0.187681
-0.816487
-0.221241
-0.865732
-0.922707
-0.256004
-0.00803172
-0.380582
-0.0280843
-0.59319
-0.0526802
-0.635478
-0.0788332
-0.650914
-0.106249
-0.674949
-0.135175
-0.705096
-0.165853
-0.741951
-0.198544
-0.783796
-0.232955
-0.831321
-0.885749
-0.269913
-0.00976438
-0.370818
-0.0314384
-0.571516
-0.0573158
-0.6096
-0.0845985
-0.623631
-0.113145
-0.646403
-0.143214
-0.675027
-0.175067
-0.710097
-0.208877
-0.749986
-0.244548
-0.795649
-0.847204
-0.283094
-0.0114157
-0.359402
-0.0346273
-0.548305
-0.06172
-0.582508
-0.0900865
-0.595265
-0.119718
-0.616771
-0.150886
-0.643858
-0.183866
-0.677118
-0.218819
-0.715034
-0.255867
-0.758601
-0.807321
-0.29575
-0.0129838
-0.346418
-0.0376483
-0.52364
-0.0658903
-0.554266
-0.0952929
-0.565862
-0.125962
-0.586102
-0.158179
-0.611641
-0.192225
-0.643071
-0.228265
-0.678994
-0.266535
-0.72033
-0.766174
-0.307682
-0.0144665
-0.331952
-0.040499
-0.497608
-0.0698246
-0.52494
-0.100214
-0.535473
-0.13187
-0.554446
-0.165086
-0.578425
-0.200151
-0.608007
-0.237249
-0.641896
-0.276676
-0.680904
-0.723881
-0.318969
-0.0158615
-0.31609
-0.0431773
-0.470292
-0.0735207
-0.494597
-0.104845
-0.504149
-0.137438
-0.521853
-0.171599
-0.544264
-0.207627
-0.57198
-0.245729
-0.603793
-0.286232
-0.640401
-0.680515
-0.329598
-0.0171662
-0.298924
-0.0456813
-0.441777
-0.0769769
-0.463301
-0.109183
-0.471942
-0.142659
-0.488378
-0.177711
-0.509212
-0.214648
-0.535043
-0.2537
-0.564741
-0.295209
-0.598892
-0.636149
-0.339575
-0.0183777
-0.280547
-0.0480094
-0.412145
-0.0801915
-0.431119
-0.113226
-0.438908
-0.147528
-0.454075
-0.183415
-0.473325
-0.221204
-0.497254
-0.261146
-0.524799
-0.30359
-0.556447
-0.590847
-0.348892
-0.0194921
-0.261055
-0.05016
-0.381477
-0.0831629
-0.398116
-0.116969
-0.405102
-0.152041
-0.419002
-0.188704
-0.436662
-0.227288
-0.45867
-0.268057
-0.48403
-0.311369
-0.513135
-0.544678
-0.357538
-0.0205026
-0.240552
-0.0521314
-0.349849
-0.0858901
-0.364357
-0.120409
-0.370583
-0.156194
-0.383218
-0.193573
-0.399283
-0.232891
-0.419352
-0.274425
-0.442496
-0.318534
-0.469026
-0.497709
-0.365503
-0.0213948
-0.219157
-0.0539224
-0.317321
-0.0883727
-0.329907
-0.123546
-0.33541
-0.159981
-0.346782
-0.198016
-0.361248
-0.238007
-0.379362
-0.28024
-0.400263
-0.325076
-0.42419
-0.450008
-0.372776
-0.0222137
-0.196943
-0.0555351
-0.284
-0.0906103
-0.294832
-0.126375
-0.299646
-0.163401
-0.309756
-0.202029
-0.322619
-0.242629
-0.338763
-0.285495
-0.357396
-0.330986
-0.378698
-0.401649
-0.379346
-0.022959
-0.173984
-0.0569704
-0.249988
-0.0926022
-0.2592
-0.128895
-0.263353
-0.166448
-0.272203
-0.205607
-0.283461
-0.246751
-0.297618
-0.290183
-0.313964
-0.336257
-0.332625
-0.352703
-0.385203
-0.0236183
-0.150366
-0.0582278
-0.215379
-0.0943474
-0.22308
-0.131104
-0.226597
-0.169121
-0.234185
-0.208745
-0.243837
-0.250368
-0.255995
-0.294298
-0.270034
-0.340881
-0.286042
-0.303246
-0.390338
-0.024187
-0.126179
-0.0593067
-0.180259
-0.0958452
-0.186542
-0.133
-0.189442
-0.171417
-0.195768
-0.211442
-0.203812
-0.253477
-0.213961
-0.297833
-0.225678
-0.344851
-0.239024
-0.253354
-0.394743
-0.0246628
-0.101516
-0.0602065
-0.144715
-0.0970946
-0.149654
-0.134582
-0.151955
-0.173333
-0.157017
-0.213693
-0.163453
-0.256072
-0.171582
-0.300783
-0.180967
-0.348161
-0.191645
-0.203102
-0.398413
-0.0250444
-0.076472
-0.0609269
-0.108833
-0.0980949
-0.112486
-0.135849
-0.1142
-0.174869
-0.117998
-0.215496
-0.122825
-0.258151
-0.128928
-0.303145
-0.135972
-0.350809
-0.143981
-0.152566
-0.401345
-0.0253311
-0.0511409
-0.0614675
-0.0726963
-0.0988457
-0.0751073
-0.136801
-0.0762452
-0.176021
-0.0787772
-0.216851
-0.0819955
-0.259711
-0.0860669
-0.304918
-0.0907658
-0.352794
-0.0961043
-0.101823
-0.403538
-0.0255224
-0.0256185
-0.0618281
-0.0363907
-0.0993464
-0.037589
-0.137435
-0.0381563
-0.17679
-0.0394225
-0.217754
-0.0410316
-0.260753
-0.0430681
-0.3061
-0.0454183
-0.354117
-0.0480873
-0.0509443
-0.404996
-0.0256181
-3.30368e-07
-0.0620084
-4.60878e-07
-0.0995969
-4.55104e-07
-0.137753
-4.36196e-07
-0.177175
-4.2131e-07
-0.218206
-4.07163e-07
-0.261274
-3.94675e-07
-0.306692
-3.82965e-07
-0.354778
-3.71781e-07
-3.59503e-07
-0.405722
-0.0256181
0.0256178
-0.0620084
0.0363898
-0.0995969
0.0375881
-0.137753
0.0381554
-0.177175
0.0394216
-0.218206
0.0410308
-0.261274
0.0430673
-0.306692
0.0454175
-0.354778
0.0480866
0.0509436
-0.405722
-0.0255224
0.0511402
-0.0618281
0.0726954
-0.0993464
0.0751064
-0.137435
0.0762443
-0.17679
0.0787764
-0.217754
0.0819947
-0.260753
0.0860661
-0.3061
0.090765
-0.354117
0.0961036
0.101822
-0.404996
-0.0253311
0.0764713
-0.0614675
0.108832
-0.0988457
0.112485
-0.136801
0.114199
-0.176021
0.117997
-0.216851
0.122824
-0.259711
0.128927
-0.304918
0.135971
-0.352794
0.14398
0.152566
-0.403538
-0.0250444
0.101516
-0.0609269
0.144714
-0.0980949
0.149653
-0.135849
0.151954
-0.174869
0.157016
-0.215496
0.163452
-0.258151
0.171581
-0.303145
0.180966
-0.350809
0.191644
0.203101
-0.401345
-0.0246628
0.126179
-0.0602065
0.180258
-0.0970946
0.186541
-0.134582
0.189442
-0.173333
0.195767
-0.213693
0.203811
-0.256072
0.21396
-0.300783
0.225677
-0.348161
0.239023
0.253353
-0.398413
-0.024187
0.150366
-0.0593067
0.215378
-0.0958452
0.223079
-0.133
0.226596
-0.171417
0.234184
-0.211442
0.243836
-0.253477
0.255995
-0.297833
0.270033
-0.344851
0.286042
0.303245
-0.394743
-0.0236183
0.173984
-0.0582278
0.249987
-0.0943474
0.259199
-0.131104
0.263352
-0.169121
0.272202
-0.208745
0.28346
-0.250368
0.297618
-0.294298
0.313963
-0.340881
0.332624
0.352702
-0.390338
-0.022959
0.196943
-0.0569704
0.283999
-0.0926022
0.294831
-0.128895
0.299645
-0.166448
0.309755
-0.205607
0.322619
-0.246751
0.338762
-0.290183
0.357395
-0.336257
0.378698
0.401648
-0.385203
-0.0222137
0.219157
-0.0555351
0.31732
-0.0906103
0.329906
-0.126375
0.335409
-0.163401
0.346781
-0.202029
0.361247
-0.242629
0.379361
-0.285495
0.400262
-0.330986
0.424189
0.450008
-0.379346
-0.0213948
0.240551
-0.0539224
0.349848
-0.0883727
0.364356
-0.123546
0.370582
-0.159981
0.383217
-0.198016
0.399282
-0.238007
0.419352
-0.28024
0.442495
-0.325076
0.469025
0.497708
-0.372776
-0.0205026
0.261054
-0.0521314
0.381476
-0.0858901
0.398115
-0.120409
0.405102
-0.156194
0.419002
-0.193573
0.436661
-0.232891
0.458669
-0.274425
0.484029
-0.318534
0.513134
0.544677
-0.365503
-0.0194921
0.280546
-0.05016
0.412144
-0.0831629
0.431118
-0.116969
0.438907
-0.152041
0.454074
-0.188704
0.473324
-0.227288
0.497253
-0.268057
0.524799
-0.311369
0.556446
0.590846
-0.357538
-0.0183777
0.298924
-0.0480094
0.441776
-0.0801915
0.4633
-0.113226
0.471941
-0.147528
0.488377
-0.183415
0.509211
-0.221204
0.535042
-0.261146
0.56474
-0.30359
0.598891
0.636148
-0.348892
-0.0171662
0.31609
-0.0456813
0.470291
-0.0769769
0.494596
-0.109183
0.504148
-0.142659
0.521852
-0.177711
0.544263
-0.214648
0.571979
-0.2537
0.603792
-0.295208
0.6404
0.680515
-0.339575
-0.0158615
0.331951
-0.0431773
0.497607
-0.0735207
0.524939
-0.104845
0.535472
-0.137438
0.554445
-0.171599
0.578424
-0.207626
0.608006
-0.245729
0.641895
-0.286232
0.680903
0.723881
-0.329598
-0.0144665
0.346418
-0.040499
0.523639
-0.0698246
0.554265
-0.100214
0.565861
-0.13187
0.586101
-0.165086
0.61164
-0.200151
0.64307
-0.237249
0.678993
-0.276676
0.72033
0.766173
-0.318969
-0.0129838
0.359402
-0.0376483
0.548304
-0.0658903
0.582507
-0.0952929
0.595264
-0.125962
0.61677
-0.158179
0.643858
-0.192225
0.677117
-0.228265
0.715033
-0.266535
0.7586
0.807321
-0.307682
-0.0114157
0.370817
-0.0346273
0.571516
-0.06172
0.609599
-0.0900865
0.62363
-0.119718
0.646402
-0.150886
0.675026
-0.183866
0.710097
-0.218819
0.749985
-0.255867
0.795649
0.847203
-0.29575
-0.00976438
0.380582
-0.0314384
0.59319
-0.0573158
0.635477
-0.0845985
0.650913
-0.113145
0.674948
-0.143214
0.705095
-0.175067
0.74195
-0.208877
0.783795
-0.244548
0.83132
0.885749
-0.283094
-0.00803172
0.388614
-0.0280843
0.613242
-0.0526802
0.660073
-0.0788332
0.677066
-0.106249
0.702364
-0.135175
0.734021
-0.165853
0.772629
-0.198544
0.816486
-0.232955
0.865731
0.922706
-0.269913
-0.00621915
0.394833
-0.024568
0.631591
-0.047816
0.683321
-0.0727951
0.702045
-0.0990359
0.728604
-0.126776
0.761761
-0.156223
0.802076
-0.187681
0.847944
-0.221241
0.899291
0.957469
-0.256004
-0.00432637
0.399159
-0.0208927
0.648157
-0.0427266
0.705154
-0.0664891
0.725807
-0.0915129
0.753628
-0.118027
0.788275
-0.1462
0.830249
-0.176327
0.878071
-0.208582
0.931546
0.991434
-0.242546
-0.00234701
0.401506
-0.0170618
0.662872
-0.0374169
0.725509
-0.0599205
0.748311
-0.0836871
0.777395
-0.108934
0.813522
-0.135799
0.857113
-0.164537
0.906809
-0.195446
0.962455
1.0242
-0.228215
-0.000218742
0.401725
-0.0130781
0.675731
-0.0318928
0.744324
-0.0530949
0.769513
-0.0755665
0.799867
-0.099508
0.837463
-0.12503
0.882636
-0.152355
0.934134
-0.181823
0.991923
1.05552
-0.21314
0.00166961
0.400055
-0.00894305
0.686344
-0.026166
0.761547
-0.0460181
0.789365
-0.0671596
0.821008
-0.0897581
0.860062
-0.113903
0.906781
-0.13979
0.960021
-0.16776
1.01989
1.08532
-0.197557
0.00364686
0.396408
-0.00464017
0.694631
-0.0202492
0.777156
-0.0386961
0.807812
-0.0584755
0.840787
-0.0796954
0.881282
-0.102426
0.929511
-0.126839
0.984434
-0.153263
1.04632
1.11355
-0.1815
0.00567568
0.390733
-7.73974e-05
0.700384
-0.0141521
0.791231
-0.0311334
0.824793
-0.0495241
0.859178
-0.0693306
0.901088
-0.0906112
0.950792
-0.113514
1.00734
-0.138348
1.07115
1.14017
-0.164964
0.00771968
0.383013
0.00424431
0.70386
-0.00789315
0.803368
-0.0233393
0.840239
-0.0403158
0.876155
-0.0586751
0.919447
-0.0784717
0.970589
-0.0998283
1.02869
-0.123034
1.09436
1.16511
-0.147975
0.0097608
0.373252
0.00876092
0.70486
-0.0015039
0.813633
-0.0153282
0.854064
-0.0308619
0.891688
-0.0477406
0.936326
-0.0660216
0.98887
-0.0857966
1.04847
-0.107337
1.1159
1.18833
-0.130559
0.0117803
0.361472
0.0133687
0.703271
0.00520183
0.8218
-0.00711497
0.866381
-0.0211733
0.905747
-0.0365397
0.951693
-0.0532756
1.00561
-0.0714355
1.06663
-0.0912733
1.13573
1.2098
-0.112739
0.013753
0.347719
0.0180275
0.698997
0.0120332
0.827794
0.00127397
0.87714
-0.0112673
0.918288
-0.0250865
0.965512
-0.040249
1.02077
-0.0567634
1.08314
-0.0748607
1.15383
1.22947
-0.0945356
0.0156487
0.33207
0.0227024
0.691943
0.0189645
0.831532
0.00994613
0.886158
-0.00119989
0.929434
-0.0133995
0.977711
-0.0269581
1.03433
-0.0418016
1.09799
-0.0581179
1.17015
1.24733
-0.0759707
0.0174341
0.314636
0.0273562
0.682021
0.0259847
0.832904
0.0187564
0.893386
0.0092462
0.938944
-0.00152555
0.988483
-0.0134195
1.04622
-0.0265751
1.11114
-0.0410601
1.18463
1.26334
-0.0570731
0.0190724
0.295564
0.0319464
0.669147
0.0330659
0.831784
0.0277128
0.89874
0.0198367
0.94682
0.0106699
0.99765
0.000320221
1.05657
-0.0111182
1.12258
-0.0237069
1.19722
1.27749
-0.0378615
0.0205237
0.27504
0.0364248
0.653246
0.0401721
0.828037
0.0367948
0.902117
0.0305844
0.953031
0.0230351
1.0052
0.0143914
1.06521
0.00459292
1.13238
-0.00605512
1.20787
1.28982
-0.018383
0.0217454
0.253295
0.0407367
0.634254
0.0472595
0.821514
0.0459758
0.903401
0.0414827
0.957524
0.0355675
1.01111
0.0286177
1.07216
0.0206427
1.14035
0.0117139
1.2168
1.30017
0.00137129
0.022694
0.230601
0.044822
0.612126
0.0542751
0.812061
0.055225
0.902451
0.0525134
0.960235
0.048257
1.01537
0.0430138
1.07741
0.0368318
1.14654
0.0297302
1.2239
1.30831
0.021583
0.0233288
0.207272
0.0486148
0.58684
0.0611614
0.799514
0.0645059
0.899106
0.0636536
0.961088
0.0610865
1.01794
0.0575617
1.08093
0.0531829
1.15091
0.0479806
1.2291
1.31442
0.0418766
0.0236166
0.183655
0.0520448
0.558412
0.0678674
0.783692
0.0737749
0.893199
0.0748765
0.959986
0.0740356
1.01878
0.0722428
1.08272
0.0696822
1.15347
0.0664015
1.23238
1.31851
0.06231
0.0235361
0.160119
0.0550383
0.52691
0.0743131
0.764417
0.0829773
0.884535
0.08615
0.956813
0.087082
1.01785
0.087037
1.08277
0.0863037
1.15421
0.0849484
1.23374
1.3206
0.0828577
0.0230822
0.137037
0.0575235
0.492469
0.0804083
0.741532
0.0920467
0.872896
0.0974342
0.951426
0.1002
1.01508
0.101922
1.08105
0.103022
1.15311
0.103604
1.23316
1.3207
0.103502
0.0222666
0.11477
0.0594347
0.4553
0.0860483
0.714919
0.100904
0.858041
0.10868
0.94365
0.113359
1.0104
0.116875
1.07753
0.119813
1.15017
0.122346
1.23062
1.31877
0.124278
0.0211181
0.0936523
0.0605922
0.415826
0.0911148
0.684396
0.109454
0.839702
0.119824
0.93328
0.126523
1.0037
0.13187
1.07218
0.136654
1.14539
0.141147
1.22613
1.31478
0.145132
0.0196799
0.0739724
0.0609102
0.374596
0.0954815
0.649825
0.117579
0.817604
0.130789
0.92007
0.139647
0.994845
0.146878
1.06495
0.15352
1.13875
0.159978
1.21967
1.30874
0.166024
0.0180022
0.0559702
0.0603305
0.332268
0.0990099
0.611145
0.125141
0.791473
0.141477
0.903734
0.152673
0.983649
0.161863
1.05576
0.170383
1.13023
0.17881
1.21124
1.30063
0.186917
0.0161381
0.0398321
0.0588135
0.289592
0.101548
0.568411
0.131976
0.761044
0.151767
0.883943
0.165529
0.969887
0.176784
1.04451
0.187213
1.1198
0.197614
1.20084
1.29047
0.207778
0.0141458
0.0256862
0.0563592
0.247379
0.102933
0.521837
0.137896
0.726082
0.161511
0.860328
0.178121
0.953277
0.191586
1.03104
0.203973
1.10741
0.21636
1.18846
1.27825
0.228575
0.0120966
0.0135896
0.0530232
0.206452
0.103002
0.471859
0.142686
0.686398
0.170525
0.832489
0.190328
0.933474
0.2062
1.01517
0.22062
1.09299
0.235016
1.17406
1.26399
0.249276
0.0100779
0.00351173
0.0489239
0.167606
0.101602
0.41918
0.146109
0.641891
0.17859
0.800007
0.201989
0.910076
0.220533
0.996626
0.237103
1.07642
0.253545
1.15762
1.24769
0.269846
0.00818502
-0.00467329
0.0442327
0.131559
0.098608
0.364805
0.147908
0.592592
0.185436
0.762478
0.212901
0.882611
0.234459
0.975069
0.253352
1.05753
0.271903
1.13907
1.22934
0.290251
0.00649822
-0.0111715
0.0391527
0.0989042
0.0939494
0.310008
0.147813
0.538728
0.190743
0.719548
0.222801
0.850553
0.247807
0.950063
0.269271
1.03606
0.290036
1.1183
1.20893
0.31045
0.00506173
-0.0162332
0.0339003
0.0700656
0.0876537
0.256255
0.14556
0.480822
0.19414
0.670968
0.231359
0.813334
0.260348
0.921074
0.284723
1.01169
0.307868
1.09516
1.18639
0.330407
0.00387567
-0.0201089
0.0286981
0.0452432
0.0798978
0.205055
0.140922
0.419798
0.195216
0.616673
0.238166
0.770385
0.271771
0.887469
0.299517
0.98394
0.325293
1.06938
1.16163
0.350048
0.00290873
-0.0230176
0.0237641
0.0243879
0.07104
0.157779
0.133757
0.357081
0.193541
0.556889
0.242734
0.721192
0.281672
0.848531
0.313381
0.952231
0.342165
1.0406
1.13447
0.369325
0.00212076
-0.0251384
0.0192827
0.00722594
0.0615801
0.115482
0.124092
0.294569
0.188706
0.492276
0.244496
0.665401
0.289523
0.803504
0.325947
0.915807
0.358233
1.00831
1.10462
0.388086
0.00147895
-0.0266173
0.0153725
-0.00666759
0.0520647
0.0787895
0.112216
0.234418
0.180394
0.424098
0.24283
0.602965
0.29466
0.751674
0.336693
0.873773
0.37322
0.971787
1.07168
0.406163
0.000961841
-0.0275792
0.0120713
-0.017777
0.043004
0.0478568
0.0987255
0.178696
0.168488
0.354336
0.237116
0.534337
0.296283
0.692508
0.344951
0.825105
0.386501
0.930236
1.03473
0.423452
0.000555491
-0.0281347
0.0093488
-0.0265703
0.0348026
0.022403
0.0844676
0.129031
0.153215
0.285588
0.226848
0.460703
0.293444
0.625913
0.349879
0.76867
0.397548
0.882567
0.993458
0.438817
0.000248529
-0.0283832
0.0071383
-0.0334601
0.027699
0.00184235
0.0703778
0.0863522
0.135276
0.22069
0.211771
0.384209
0.285255
0.552429
0.350302
0.703622
0.405197
0.827673
0.944865
0.453789
3.06759e-05
-0.0284139
0.00536255
-0.038792
0.0217484
-0.0145435
0.0572762
0.0508244
0.115841
0.162125
0.192168
0.307882
0.27085
0.473747
0.345541
0.628932
0.407139
0.766074
0.888859
0.463145
-0.000136377
-0.0282775
0.00394396
-0.0428723
0.016866
-0.0274655
0.0457033
0.0219871
0.0963285
0.111499
0.169018
0.235193
0.250056
0.392709
0.333397
0.54559
0.405605
0.693867
0.832196
0.462268
-0.000246171
-0.0280313
0.00280815
-0.0459266
0.0128935
-0.0375509
0.0358648
-0.00098412
0.0780506
0.0693134
0.143944
0.169299
0.2236
0.313053
0.312739
0.456451
0.396973
0.609633
0.767155
0.462014
-0.000320231
-0.0277111
0.00188478
-0.0481316
0.00965088
-0.045317
0.0276893
-0.0190226
0.0618897
0.035113
0.11881
0.112379
0.193197
0.238667
0.2836
0.366047
0.378238
0.514995
0.691648
0.453745
-0.000378774
-0.0273323
0.00110752
-0.0496179
0.00696173
-0.0511712
0.0209384
-0.0329992
0.0481501
0.00790131
0.0951423
0.065387
0.161332
0.172477
0.247533
0.279845
0.348345
0.414184
0.605139
0.434854
-0.000438601
-0.0268937
0.000416638
-0.0504732
0.00466616
-0.0554207
0.0153042
-0.0436373
0.0366417
-0.0134362
0.0738447
0.028184
0.130566
0.115756
0.207483
0.202928
0.308012
0.313654
0.509039
0.404112
-0.000512033
-0.0263817
-0.000239545
-0.0507456
0.00262835
-0.0582886
0.0104801
-0.0514891
0.0269257
-0.0298817
0.0552989
-0.000189211
0.10262
0.0684344
0.16698
0.138568
0.260397
0.220238
0.407499
0.361936
-0.000610089
-0.0257716
-0.000901815
-0.0504539
0.000745868
-0.0599363
0.00620765
-0.0569508
0.0185519
-0.0422259
0.0395212
-0.0211586
0.0780089
0.0299468
0.129223
0.0873545
0.210437
0.139023
0.307389
0.310548
-0.000741813
-0.0250298
-0.00158897
-0.0496068
-0.00107946
-0.0604458
0.0022926
-0.0603229
0.0111811
-0.0511144
0.0262067
-0.0361842
0.0565168
-0.000363389
0.0963033
0.047568
0.162755
0.072572
0.216443
0.2537
-0.000906864
-0.0241229
-0.00231357
-0.0482001
-0.00288547
-0.0598739
-0.0013527
-0.0618557
0.00457918
-0.0570463
0.0148447
-0.0464497
0.0377789
-0.0232976
0.0686014
0.0167455
0.119806
0.0213676
0.140373
0.195876
-0.00110277
-0.0230202
-0.00307575
-0.0462271
-0.00467574
-0.0582739