/*--------------------------------*- C++ -*----------------------------------*\
  =========                 |
  \\      /  F ield         | OpenFOAM: The Open Source CFD Toolbox
   \\    /   O peration     | Website:  https://openfoam.org
    \\  /    A nd           | Version:  9
     \\/     M anipulation  |
\*---------------------------------------------------------------------------*/
FoamFile
{
    format      ascii;
    class       volScalarField;
    location    "0.3";
    object      p;
}
// * * * * * * * * * * * * * * * * * * * * * * * * * * * * * * * * * * * * * //

dimensions      [0 2 -2 0 0 0 0];

internalField   nonuniform List<scalar> 
25600
(
6.26109e-06
0.000122685
0.000152406
4.42623e-05
-0.000209126
-0.000603596
-0.00112812
-0.00176816
-0.00250828
-0.00333326
-0.00422856
-0.00518058
-0.00617671
-0.00720532
-0.00825568
-0.00931797
-0.0103832
-0.011443
-0.01249
-0.013517
-0.0145179
-0.0154869
-0.0164185
-0.0173082
-0.0181514
-0.0189443
-0.0196833
-0.0203651
-0.0209869
-0.0215461
-0.0220404
-0.0224678
-0.0228266
-0.0231152
-0.0233325
-0.0234773
-0.0235487
-0.0235463
-0.0234694
-0.0233178
-0.0230913
-0.02279
-0.0224141
-0.0219639
-0.0214398
-0.0208425
-0.0201726
-0.019431
-0.0186187
-0.0177366
-0.0167859
-0.0157679
-0.0146839
-0.0135354
-0.0123239
-0.0110509
-0.00971819
-0.00832747
-0.00688058
-0.00537941
-0.00382593
-0.00222216
-0.000570177
0.00112786
0.00286976
0.00465325
0.00647605
0.00833578
0.0102301
0.0121564
0.0141124
0.0160955
0.0181031
0.0201326
0.0221814
0.0242469
0.0263263
0.0284169
0.030516
0.0326209
0.0347288
0.0368369
0.0389423
0.0410424
0.0431343
0.0452151
0.0472821
0.0493325
0.0513635
0.0533723
0.055356
0.0573121
0.0592377
0.0611301
0.0629866
0.0648047
0.0665818
0.0683152
0.0700025
0.0716412
0.0732289
0.0747634
0.0762423
0.0776634
0.0790246
0.080324
0.0815595
0.0827293
0.0838316
0.0848649
0.0858275
0.086718
0.0875353
0.088278
0.0889452
0.0895359
0.0900495
0.0904853
0.090843
0.0911222
0.0913228
0.0914451
0.0914892
0.0914557
0.0913453
0.0911588
0.0908975
0.0905626
0.0901558
0.089679
0.0891343
0.0885241
0.0878511
0.0871184
0.0863292
0.0854872
0.0845965
0.0836615
0.0826869
0.081678
0.0806405
0.0795806
0.0785049
0.0774206
0.0763356
0.0752584
0.0741982
0.0731647
0.0721688
0.0712219
0.0703363
0.0695253
0.0688028
0.0681832
0.0676809
0.0673091
0.067077
0.0669868
0.0670275
0.0671434
-0.00010057
1.19507e-05
1.63397e-05
-0.00010455
-0.000346654
-0.000708224
-0.00118263
-0.00175943
-0.00242666
-0.00317199
-0.00398317
-0.00484838
-0.0057564
-0.00669668
-0.00765936
-0.00863532
-0.00961609
-0.0105938
-0.0115613
-0.0125119
-0.0134395
-0.0143384
-0.0152036
-0.0160304
-0.0168143
-0.0175517
-0.0182389
-0.0188727
-0.0194502
-0.0199689
-0.0204265
-0.0208209
-0.0211505
-0.0214135
-0.0216088
-0.0217352
-0.0217918
-0.021778
-0.0216931
-0.0215369
-0.0213091
-0.0210097
-0.0206389
-0.0201968
-0.019684
-0.0191008
-0.018448
-0.0177262
-0.0169365
-0.0160796
-0.0151568
-0.0141692
-0.0131181
-0.0120047
-0.0108307
-0.00959741
-0.00830651
-0.00695968
-0.00555867
-0.00410528
-0.0026014
-0.00104897
0.000549989
0.00219342
0.0038792
0.00560516
0.00736907
0.00916865
0.0110016
0.0128655
0.0147581
0.0166767
0.0186191
0.0205826
0.0225647
0.0245629
0.0265745
0.028597
0.0306276
0.0326637
0.0347027
0.0367418
0.0387783
0.0408095
0.0428328
0.0448454
0.0468445
0.0488275
0.0507917
0.0527344
0.0546529
0.0565445
0.0584067
0.0602368
0.0620322
0.0637905
0.065509
0.0671855
0.0688174
0.0704024
0.0719382
0.0734226
0.0748534
0.0762285
0.0775459
0.0788037
0.08
0.0811331
0.0822013
0.083203
0.0841368
0.0850014
0.0857956
0.0865183
0.0871684
0.0877453
0.0882483
0.0886768
0.0890304
0.0893091
0.0895127
0.0896415
0.0896958
0.089676
0.0895831
0.0894178
0.0891815
0.0888754
0.0885012
0.0880608
0.0875563
0.0869902
0.0863651
0.0856839
0.0849501
0.0841672
0.0833391
0.0824702
0.0815652
0.0806291
0.0796674
0.0786862
0.0776917
0.076691
0.0756915
0.0747011
0.0737285
0.0727828
0.0718738
0.071012
0.0702082
0.0694738
0.0688206
0.0682603
0.0678037
0.0674603
0.067235
0.0671281
0.067142
0.0672581
-0.000128145
8.30237e-06
1.25781e-05
-0.000109599
-0.000341765
-0.000680818
-0.00112131
-0.00165449
-0.00227029
-0.0029582
-0.00370761
-0.00450806
-0.00534945
-0.00622216
-0.00711711
-0.0080258
-0.00894028
-0.00985314
-0.0107575
-0.011647
-0.0125157
-0.0133583
-0.0141697
-0.0149453
-0.0156811
-0.0163731
-0.0170179
-0.0176123
-0.0181535
-0.0186388
-0.0190661
-0.0194333
-0.0197386
-0.0199804
-0.0201574
-0.0202685
-0.0203127
-0.0202893
-0.0201978
-0.0200377
-0.0198088
-0.019511
-0.0191444
-0.0187091
-0.0182056
-0.0176343
-0.0169957
-0.0162906
-0.0155198
-0.0146842
-0.0137848
-0.0128227
-0.0117991
-0.0107154
-0.00957288
-0.00837301
-0.00711733
-0.00580747
-0.00444509
-0.00303196
-0.00156988
-6.07426e-05
0.00149352
0.00309091
0.00472937
0.00640679
0.00812103
0.00986987
0.0116511
0.0134623
0.0153013
0.0171657
0.019053
0.0209608
0.0228867
0.0248281
0.0267826
0.0287475
0.0307203
0.0326985
0.0346793
0.0366603
0.0386387
0.040612
0.0425775
0.0445325
0.0464745
0.0484008
0.0503088
0.0521958
0.0540594
0.0558969
0.0577057
0.0594834
0.0612275
0.0629354
0.0646049
0.0662335
0.0678189
0.0693588
0.0708511
0.0722935
0.073684
0.0750206
0.0763013
0.0775243
0.0786879
0.0797902
0.0808298
0.0818052
0.082715
0.0835579
0.0843328
0.0850387
0.0856747
0.08624
0.0867341
0.0871565
0.0875069
0.0877851
0.0879912
0.0881254
0.088188
0.0881797
0.0881012
0.0879534
0.0877377
0.0874553
0.0871079
0.0866974
0.086226
0.085696
0.08511
0.084471
0.0837823
0.0830474
0.0822701
0.0814547
0.0806057
0.0797281
0.0788272
0.0779086
0.0769787
0.0760439
0.0751113
0.0741886
0.0732836
0.0724051
0.0715619
0.0707635
0.0700199
0.0693409
0.0687368
0.0682175
0.0677922
0.0674688
0.0672515
0.0671421
0.0671558
0.0672981
-2.01056e-05
0.000129497
0.000135295
1.31634e-05
-0.00021307
-0.000538345
-0.000956966
-0.00146072
-0.00204058
-0.00268713
-0.00339089
-0.00414246
-0.00493266
-0.00575269
-0.00659415
-0.00744914
-0.00831018
-0.00917028
-0.0100229
-0.0108621
-0.011682
-0.0124776
-0.013244
-0.0139767
-0.0146718
-0.0153254
-0.0159341
-0.016495
-0.0170051
-0.0174619
-0.0178631
-0.0182069
-0.0184912
-0.0187147
-0.0188759
-0.0189737
-0.0190072
-0.0189756
-0.0188783
-0.0187148
-0.0184849
-0.0181885
-0.0178256
-0.0173964
-0.0169011
-0.0163401
-0.0157141
-0.0150236
-0.0142695
-0.0134525
-0.0125737
-0.0116341
-0.0106349
-0.00957726
-0.00846254
-0.00729214
-0.00606755
-0.00479031
-0.00346206
-0.00208449
-0.000659344
0.000811546
0.0023263
0.00388299
0.00547961
0.00711413
0.00878444
0.0104884
0.0122239
0.0139885
0.0157802
0.0175965
0.0194352
0.0212938
0.0231699
0.0250612
0.0269651
0.0288792
0.0308009
0.0327278
0.0346573
0.0365869
0.038514
0.0404361
0.0423506
0.0442548
0.0461464
0.0480226
0.049881
0.051719
0.0535342
0.0553239
0.0570858
0.0588173
0.0605162
0.0621799
0.0638061
0.0653927
0.0669372
0.0684375
0.0698915
0.0712971
0.0726522
0.073955
0.0752035
0.076396
0.0775308
0.0786063
0.0796209
0.0805732
0.0814619
0.0822859
0.0830439
0.0837352
0.0843588
0.084914
0.0854004
0.0858174
0.0861649
0.0864426
0.0866508
0.0867896
0.0868594
0.0868609
0.0867948
0.0866621
0.086464
0.0862019
0.0858774
0.0854925
0.0850492
0.0845499
0.0839972
0.083394
0.0827434
0.0820489
0.0813143
0.0805437
0.0797414
0.0789124
0.0780616
0.0771946
0.0763174
0.0754361
0.0745575
0.0736886
0.0728372
0.072011
0.0712183
0.070468
0.0697689
0.06913
0.0685605
0.068069
0.0676641
0.0673533
0.0671415
0.0670325
0.0670494
0.0672083
0.000232623
0.000371774
0.000368026
0.000240044
1.37279e-05
-0.000304609
-0.000708975
-0.00119154
-0.00174399
-0.00235785
-0.00302454
-0.00373555
-0.00448255
-0.00525747
-0.00605261
-0.0068606
-0.00767445
-0.00848763
-0.00929397
-0.0100877
-0.0108635
-0.0116163
-0.0123415
-0.0130349
-0.0136925
-0.0143106
-0.0148861
-0.0154158
-0.0158969
-0.0163271
-0.0167041
-0.0170259
-0.0172907
-0.0174969
-0.0176433
-0.0177287
-0.0177521
-0.0177127
-0.01761
-0.0174434
-0.0172126
-0.0169176
-0.0165583
-0.0161348
-0.0156474
-0.0150965
-0.0144825
-0.0138061
-0.0130679
-0.0122689
-0.0114099
-0.0104919
-0.00951597
-0.0084834
-0.0073954
-0.00625334
-0.00505863
-0.00381277
-0.00251734
-0.00117397
0.000215643
0.00164973
0.00312647
0.00464399
0.00620035
0.00779356
0.0094216
0.0110824
0.0127738
0.0144936
0.0162397
0.0180098
0.0198016
0.0216128
0.0234411
0.025284
0.0271393
0.0290045
0.0308771
0.0327547
0.0346349
0.0365151
0.0383928
0.0402657
0.0421311
0.0439866
0.0458297
0.0476578
0.0494686
0.0512596
0.0530282
0.0547722
0.056489
0.0581762
0.0598317
0.061453
0.0630378
0.064584
0.0660894
0.0675518
0.0689691
0.0703394
0.0716608
0.0729312
0.074149
0.0753123
0.0764197
0.0774694
0.0784601
0.0793904
0.080259
0.0810648
0.0818069
0.0824841
0.0830959
0.0836415
0.0841204
0.0845323
0.0848769
0.0851541
0.0853642
0.0855072
0.0855837
0.0855943
0.0855397
0.085421
0.0852394
0.0849963
0.0846932
0.084332
0.0839149
0.0834441
0.0829221
0.0823518
0.0817364
0.0810791
0.0803836
0.0796539
0.0788943
0.0781093
0.0773039
0.0764833
0.0756531
0.0748193
0.0739883
0.0731667
0.0723615
0.0715801
0.0708303
0.0701198
0.0694569
0.0688499
0.0683069
0.0678358
0.0674445
0.0671402
0.0669284
0.0668147
0.0668247
0.0669775
0.000626299
0.00073365
0.000707928
0.000566174
0.00033253
1.38211e-05
-0.000383841
-0.00085304
-0.00138613
-0.0019754
-0.00261306
-0.00329138
-0.00400279
-0.00473992
-0.00549567
-0.00626321
-0.00703608
-0.00780813
-0.00857357
-0.00932697
-0.0100632
-0.0107776
-0.0114657
-0.0121234
-0.0127468
-0.0133326
-0.0138776
-0.0143786
-0.0148332
-0.0152388
-0.0155934
-0.0158948
-0.0161415
-0.0163318
-0.0164645
-0.0165383
-0.0165523
-0.0165058
-0.016398
-0.0162286
-0.0159971
-0.0157035
-0.0153477
-0.0149298
-0.01445
-0.0139086
-0.0133061
-0.0126431
-0.0119203
-0.0111384
-0.0102982
-0.00940084
-0.00844727
-0.00743864
-0.00637618
-0.00526119
-0.00409505
-0.00287919
-0.00161514
-0.000304469
0.00105116
0.00245005
0.00389043
0.00537048
0.00688832
0.00844202
0.0100296
0.0116491
0.0132983
0.0149752
0.0166777
0.0184036
0.0201506
0.0219164
0.0236989
0.0254957
0.0273045
0.0291229
0.0309485
0.032779
0.034612
0.036445
0.0382756
0.0401014
0.04192
0.0437289
0.0455257
0.0473079
0.0490733
0.0508193
0.0525436
0.0542439
0.0559177
0.0575628
0.0591769
0.0607578
0.0623032
0.063811
0.0652791
0.0667054
0.0680879
0.0694247
0.0707138
0.0719535
0.073142
0.0742777
0.0753589
0.0763842
0.0773522
0.0782616
0.0791112
0.0798998
0.0806266
0.0812905
0.081891
0.0824274
0.0828992
0.0833061
0.0836479
0.0839246
0.0841362
0.0842831
0.0843658
0.0843847
0.0843408
0.0842351
0.0840686
0.0838429
0.0835595
0.0832202
0.0828271
0.0823824
0.0818886
0.0813485
0.080765
0.0801416
0.0794815
0.0787888
0.0780675
0.077322
0.076557
0.0757775
0.0749889
0.0741967
0.0734069
0.0726259
0.0718601
0.0711163
0.0704017
0.0697235
0.0690891
0.0685061
0.0679819
0.0675239
0.0671393
0.066835
0.0666165
0.0664905
0.0664815
0.0666075
0.0011504
0.00120899
0.00114991
0.000986176
0.000737679
0.000411195
1.27677e-05
-0.000450692
-0.000972162
-0.00154461
-0.00216096
-0.00281421
-0.00349744
-0.00420393
-0.00492714
-0.00566078
-0.00639885
-0.00713563
-0.00786568
-0.0085839
-0.00928548
-0.00996592
-0.010621
-0.0112468
-0.0118398
-0.0123965
-0.0129139
-0.0133891
-0.0138195
-0.0142028
-0.0145369
-0.0148199
-0.01505
-0.0152257
-0.0153458
-0.015409
-0.0154145
-0.0153614
-0.0152492
-0.0150772
-0.0148453
-0.0145531
-0.0142007
-0.0137882
-0.0133156
-0.0127833
-0.0121918
-0.0115415
-0.0108332
-0.0100675
-0.00924526
-0.00836743
-0.00743502
-0.0064491
-0.00541086
-0.00432154
-0.00318248
-0.00199507
-0.000760784
0.000518857
0.00184225
0.00320775
0.00461363
0.00605812
0.0075394
0.00905561
0.0106048
0.012185
0.0137943
0.0154305
0.0170916
0.0187755
0.0204799
0.0222028
0.0239418
0.0256948
0.0274595
0.0292335
0.0310146
0.0328004
0.0345886
0.0363769
0.0381628
0.0399441
0.0417183
0.043483
0.045236
0.0469749
0.0486972
0.0504007
0.0520831
0.053742
0.0553752
0.0569805
0.0585555
0.0600982
0.0616064
0.0630779
0.0645108
0.065903
0.0672527
0.0685578
0.0698166
0.0710273
0.0721882
0.0732978
0.0743545
0.0753568
0.0763034
0.0771931
0.0780247
0.0787971
0.0795095
0.0801609
0.0807508
0.0812785
0.0817435
0.0821457
0.0824847
0.0827607
0.0829736
0.083124
0.0832121
0.0832386
0.0832044
0.0831103
0.0829577
0.0827478
0.0824822
0.0821628
0.0817914
0.0813703
0.0809019
0.0803889
0.0798342
0.079241
0.0786126
0.0779527
0.0772653
0.0765545
0.0758249
0.0750812
0.0743284
0.0735718
0.0728171
0.07207
0.0713367
0.0706234
0.0699368
0.0692834
0.0686701
0.0681036
0.0675908
0.0671386
0.0667536
0.0664424
0.0662104
0.0660642
0.0660251
0.0661072
0.00179111
0.00178798
0.00168578
0.00149236
0.00122181
0.000880545
0.000474393
9.67081e-06
-0.000507226
-0.0010699
-0.00167197
-0.00230706
-0.00296888
-0.00365128
-0.00434827
-0.00505405
-0.00576309
-0.00647004
-0.00716987
-0.00785777
-0.00852922
-0.00917997
-0.00980604
-0.0104037
-0.0109695
-0.0115003
-0.011993
-0.0124449
-0.0128537
-0.0132168
-0.0135324
-0.0137986
-0.0140137
-0.0141762
-0.0142848
-0.0143385
-0.0143363
-0.0142773
-0.0141611
-0.013987
-0.0137547
-0.0134641
-0.0131151
-0.0127076
-0.012242
-0.0117184
-0.0111373
-0.0104991
-0.00980456
-0.00905426
-0.00824903
-0.00738974
-0.00647737
-0.00551298
-0.00449768
-0.0034327
-0.00231931
-0.00115887
4.72076e-05
0.00129744
0.00259027
0.00392411
0.00529728
0.00670806
0.00815468
0.00963534
0.0111481
0.0126912
0.0142625
0.0158601
0.017482
0.0191261
0.0207902
0.0224723
0.0241702
0.0258817
0.0276045
0.0293365
0.0310754
0.0328189
0.0345648
0.0363106
0.0380543
0.0397934
0.0415256
0.0432486
0.0449601
0.0466579
0.0483396
0.0500029
0.0516456
0.0532655
0.0548604
0.0564279
0.0579661
0.0594728
0.0609458
0.0623832
0.0637829
0.065143
0.0664617
0.067737
0.0689672
0.0701506
0.0712856
0.0723706
0.0734042
0.0743849
0.0753114
0.0761825
0.0769972
0.0777544
0.0784532
0.0790928
0.0796726
0.080192
0.0806506
0.0810481
0.0813844
0.0816595
0.0818736
0.0820269
0.0821198
0.0821532
0.0821276
0.0820442
0.0819039
0.0817083
0.0814589
0.0811572
0.0808054
0.0804055
0.0799598
0.0794711
0.078942
0.0783755
0.0777751
0.0771442
0.0764865
0.075806
0.075107
0.074394
0.0736717
0.0729452
0.0722196
0.0715004
0.0707933
0.070104
0.0694386
0.0688032
0.0682041
0.0676474
0.0671393
0.0666862
0.0662941
0.0659692
0.0657168
0.0655431
0.0654641
0.0654892
0.00253384
0.00245942
0.00230622
0.00207633
0.00177718
0.00141474
0.000994525
0.000522199
3.50072e-06
-0.000555802
-0.00114993
-0.00177312
-0.00241967
-0.00308396
-0.00376052
-0.00444402
-0.00512934
-0.00581156
-0.00648596
-0.00714809
-0.00779369
-0.00841877
-0.00901957
-0.00959257
-0.0101345
-0.0106423
-0.0111131
-0.0115444
-0.0119336
-0.0122788
-0.0125778
-0.0128289
-0.0130304
-0.013181
-0.0132794
-0.0133244
-0.0133153
-0.0132511
-0.0131313
-0.0129555
-0.0127231
-0.0124342
-0.0120884
-0.011686
-0.011227
-0.0107117
-0.0101405
-0.0095139
-0.0088324
-0.00809671
-0.00730758
-0.00646586
-0.00557249
-0.00462849
-0.00363493
-0.002593
-0.00150393
-0.000369028
0.000810328
0.0020327
0.00329659
0.00460043
0.00594261
0.00732146
0.00873526
0.0101822
0.0116606
0.0131684
0.0147038
0.0162648
0.0178496
0.0194559
0.0210819
0.0227254
0.0243843
0.0260565
0.0277397
0.0294319
0.0311309
0.0328344
0.0345401
0.036246
0.0379496
0.0396488
0.0413413
0.0430249
0.0446973
0.0463562
0.0479995
0.0496249
0.0512303
0.0528133
0.0543719
0.055904
0.0574074
0.0588801
0.06032
0.0617252
0.0630937
0.0644236
0.0657131
0.0669603
0.0681637
0.0693214
0.070432
0.0714939
0.0725057
0.0734661
0.0743737
0.0752274
0.0760261
0.076769
0.077455
0.0780834
0.0786537
0.0791652
0.0796177
0.0800108
0.0803444
0.0806185
0.0808333
0.0809892
0.0810864
0.0811257
0.0811079
0.0810339
0.0809048
0.080722
0.0804869
0.0802012
0.0798668
0.0794857
0.0790603
0.078593
0.0780865
0.0775436
0.0769677
0.0763619
0.07573
0.0750756
0.0744027
0.0737157
0.073019
0.0723173
0.0716155
0.0709185
0.0702318
0.0695606
0.0689104
0.0682868
0.0676957
0.0671425
0.066633
0.0661728
0.0657675
0.0654227
0.0651435
0.0649357
0.0648089
0.0647673
0.00336439
0.00321182
0.00300147
0.00272941
0.002396
0.00200668
0.00156672
0.00108108
0.00055483
-6.8704e-06
-0.000598814
-0.0012158
-0.00185268
-0.00250435
-0.0031658
-0.00383216
-0.00449872
-0.00516092
-0.00581441
-0.00645502
-0.00707881
-0.00768201
-0.0082611
-0.00881276
-0.00933389
-0.00982159
-0.0102732
-0.0106861
-0.0110582
-0.0113874
-0.0116716
-0.0119092
-0.0120987
-0.0122387
-0.0123279
-0.0123653
-0.01235
-0.0122813
-0.0121585
-0.0119812
-0.0117491
-0.0114618
-0.0111194
-0.0107218
-0.0102692
-0.0097619
-0.00920017
-0.00858448
-0.0079154
-0.00719356
-0.00641969
-0.00559461
-0.00471923
-0.00379452
-0.00282153
-0.0018014
-0.000735332
0.00037541
0.00152949
0.00272551
0.00396202
0.0052375
0.00655037
0.00789902
0.00928176
0.0106969
0.0121426
0.0136171
0.0151185
0.016645
0.0181946
0.0197654
0.0213552
0.0229622
0.0245843
0.0262193
0.0278652
0.0295198
0.031181
0.0328467
0.0345146
0.0361826
0.0378485
0.0395101
0.0411652
0.0428115
0.044447
0.0460693
0.0476764
0.0492661
0.0508362
0.0523846
0.0539091
0.0554078
0.0568785
0.0583192
0.059728
0.0611029
0.062442
0.0637435
0.0650056
0.0662265
0.0674046
0.0685383
0.069626
0.0706662
0.0716576
0.0725988
0.0734887
0.0743261
0.0751099
0.0758392
0.0765132
0.0771311
0.0776924
0.0781965
0.0786431
0.0790318
0.0793627
0.0796358
0.0798511
0.080009
0.0801099
0.0801545
0.0801434
0.0800778
0.0799586
0.079787
0.0795647
0.0792931
0.0789741
0.0786096
0.078202
0.0777534
0.0772666
0.0767443
0.0761896
0.0756055
0.0749955
0.0743631
0.0737123
0.0730469
0.0723711
0.0716894
0.0710062
0.0703263
0.0696546
0.068996
0.0683554
0.0677381
0.0671492
0.0665939
0.0660774
0.0656046
0.0651806
0.0648103
0.0644987
0.064251
0.0640702
0.0639548
0.00426942
0.00403394
0.00376176
0.00344289
0.0030704
0.00264931
0.00218459
0.00168054
0.00114157
0.000572291
-2.26614e-05
-0.000638619
-0.00127093
-0.00191497
-0.0025662
-0.00322016
-0.00387253
-0.00451911
-0.00515588
-0.00577898
-0.00638474
-0.00696965
-0.0075304
-0.00806387
-0.00856715
-0.00903749
-0.00947237
-0.00986941
-0.0102264
-0.0105415
-0.0108127
-0.0110385
-0.0112174
-0.0113479
-0.0114291
-0.0114598
-0.0114392
-0.0113666
-0.0112413
-0.0110629
-0.0108312
-0.0105458
-0.0102066
-0.0098138
-0.00936741
-0.00886768
-0.00831496
-0.00770968
-0.00705237
-0.00634366
-0.00558424
-0.0047749
-0.00391651
-0.00301004
-0.00205649
-0.00105695
-1.26087e-05
0.00107532
0.00220553
0.00337667
0.00458733
0.00583602
0.00712122
0.00844135
0.00979478
0.0111798
0.0125948
0.0140378
0.0155072
0.017001
0.0185175
0.0200546
0.0216104
0.023183
0.0247703
0.0263702
0.0279809
0.0296001
0.0312257
0.0328557
0.034488
0.0361204
0.0377507
0.0393768
0.0409967
0.042608
0.0442087
0.0457967
0.0473697
0.0489258
0.0504627
0.0519785
0.0534711
0.0549383
0.0563783
0.0577891
0.0591686
0.0605151
0.0618267
0.0631016
0.064338
0.0655343
0.0666887
0.0677998
0.0688661
0.069886
0.0708583
0.0717817
0.0726549
0.0734769
0.0742467
0.0749634
0.0756261
0.0762341
0.0767869
0.0772839
0.0777249
0.0781095
0.0784377
0.0787095
0.078925
0.0790845
0.0791885
0.0792376
0.0792325
0.0791742
0.0790636
0.078902
0.0786908
0.0784315
0.0781259
0.077776
0.0773837
0.0769515
0.0764817
0.075977
0.0754402
0.0748744
0.0742828
0.0736688
0.073036
0.072388
0.0717289
0.0710626
0.0703935
0.0697259
0.0690643
0.0684131
0.0677771
0.067161
0.0665692
0.0660067
0.065478
0.0649876
0.0645399
0.0641393
0.0637905
0.0634983
0.0632588
0.0630645
0.00523658
0.00491505
0.00457757
0.0042082
0.00379268
0.00333561
0.00284178
0.00231483
0.00175858
0.00117709
0.000574462
-4.51258e-05
-0.000677496
-0.00131848
-0.00196395
-0.00260986
-0.00325225
-0.00388728
-0.00451124
-0.00512057
-0.00571184
-0.00628181
-0.00682739
-0.00734565
-0.00783387
-0.00828946
-0.00871004
-0.00909338
-0.00943742
-0.00974028
-0.0100002
-0.0102157
-0.0103853
-0.0105077
-0.0105818
-0.0106067
-0.0105816
-0.0105056
-0.0103784
-0.0101993
-0.0099682
-0.00968476
-0.00934893
-0.00896074
-0.00852031
-0.00802787
-0.00748374
-0.00688835
-0.00624221
-0.00554591
-0.00480015
-0.00400568
-0.00316335
-0.00227408
-0.00133886
-0.000358748
0.000665114
0.00173153
0.00283925
0.00398694
0.00517323
0.00639668
0.00765581
0.00894906
0.0102749
0.0116316
0.0130175
0.0144309
0.0158701
0.0173332
0.0188184
0.0203239
0.0218476
0.0233878
0.0249423
0.0265094
0.0280868
0.0296727
0.0312649
0.0328614
0.0344601
0.036059
0.0376559
0.0392487
0.0408354
0.0424139
0.0439819
0.0455376
0.0470787
0.0486033
0.0501092
0.0515944
0.0530569
0.0544948
0.055906
0.0572887
0.0586409
0.0599609
0.0612467
0.0624967
0.0637091
0.0648823
0.0660147
0.0671047
0.0681509
0.0691519
0.0701064
0.071013
0.0718707
0.0726784
0.0734351
0.0741399
0.0747921
0.0753908
0.0759356
0.0764259
0.0768615
0.0772421
0.0775676
0.077838
0.0780534
0.0782142
0.0783208
0.0783737
0.0783737
0.0783216
0.0782184
0.0780654
0.0778638
0.0776152
0.0773212
0.0769837
0.0766047
0.0761863
0.0757308
0.0752409
0.0747192
0.0741686
0.0735921
0.0729929
0.0723744
0.07174
0.0710935
0.0704385
0.0697791
0.0691193
0.0684633
0.0678151
0.067179
0.0665592
0.0659601
0.0653857
0.0648403
0.0643279
0.0638523
0.0634172
0.0630271
0.0626867
0.0623848
0.0621083
0.00625453
0.00584504
0.00543984
0.0050171
0.0045553
0.00405874
0.00353206
0.00297832
0.00240077
0.00180295
0.00118848
0.000561069
-7.55389e-05
-0.0007176
-0.00136139
-0.00200324
-0.00263954
-0.00326677
-0.00388153
-0.00448055
-0.00506065
-0.00561882
-0.0061522
-0.00665807
-0.00713386
-0.00757717
-0.00798575
-0.0083575
-0.0086905
-0.00898296
-0.00923324
-0.00943986
-0.00960148
-0.0097169
-0.00978506
-0.00980505
-0.00977608
-0.00969747
-0.00956869
-0.00938931
-0.00915905
-0.00887769
-0.00854518
-0.00816152
-0.00772684
-0.00724138
-0.00670544
-0.00611944
-0.00548388
-0.00479933
-0.00406645
-0.00328601
-0.0024588
-0.00158574
-0.000667778
0.000294047
0.00129863
0.00234482
0.00343137
0.004557
0.00572038
0.0069201
0.0081547
0.00942269
0.0107225
0.0120526
0.0134113
0.0147969
0.0162076
0.0176419
0.0190977
0.0205734
0.022067
0.0235767
0.0251006
0.0266366
0.0281829
0.0297375
0.0312983
0.0328634
0.0344307
0.0359981
0.0375637
0.0391253
0.040681
0.0422286
0.0437662
0.0452916
0.0468029
0.0482979
0.0497748
0.0512314
0.0526659
0.0540763
0.0554607
0.0568172
0.0581439
0.059439
0.0607009
0.0619276
0.0631177
0.0642694
0.0653812
0.0664516
0.0674792
0.0684625
0.0694004
0.0702915
0.0711348
0.0719291
0.0726736
0.0733674
0.0740096
0.0745996
0.0751369
0.0756209
0.0760514
0.0764281
0.0767509
0.0770198
0.0772349
0.0773965
0.0775051
0.0775612
0.0775654
0.0775186
0.0774217
0.077276
0.0770826
0.0768431
0.0765589
0.0762319
0.0758639
0.0754571
0.0750136
0.0745359
0.0740265
0.073488
0.0729234
0.0723357
0.0717281
0.0711037
0.070466
0.0698186
0.0691649
0.0685089
0.0678542
0.0672048
0.0665644
0.0659369
0.0653261
0.0647358
0.0641697
0.0636313
0.063124
0.0626509
0.0622164
0.0618247
0.0614579
0.0610972
0.00731296
0.00681453
0.00633998
0.0058617
0.00535103
0.00481207
0.00424939
0.0036655
0.00306313
0.00244535
0.00181533
0.00117635
0.000531742
-0.000115144
-0.000760959
-0.00140238
-0.00203615
-0.00265904
-0.00326795
-0.00385987
-0.00443188
-0.00498119
-0.00550516
-0.00600126
-0.00646711
-0.00690045
-0.0072992
-0.00766139
-0.00798519
-0.00826895
-0.00851112
-0.0087103
-0.00886523
-0.00897477
-0.00903794
-0.00905386
-0.00902178
-0.00894108
-0.00881125
-0.00863189
-0.00840273
-0.00812358
-0.00779438
-0.00741516
-0.00698604
-0.00650726
-0.00597912
-0.00540202
-0.00477646
-0.00410299
-0.00338227
-0.00261503
-0.00180205
-0.000944224
-4.24767e-05
0.000902179
0.00188867
0.00291586
0.00398255
0.00508749
0.00622937
0.00740681
0.00861842
0.00986271
0.0111382
0.0124433
0.0137764
0.0151359
0.01652
0.0179272
0.0193556
0.0208034
0.0222688
0.0237499
0.025245
0.0267521
0.0282692
0.0297945
0.0313259
0.0328616
0.0343994
0.0359375
0.0374738
0.0390063
0.040533
0.0420519
0.0435609
0.0450581
0.0465415
0.048009
0.0494588
0.0508889
0.0522973
0.0536821
0.0550415
0.0563736
0.0576765
0.0589487
0.0601882
0.0613934
0.0625627
0.0636945
0.0647872
0.0658394
0.0668496
0.0678166
0.0687391
0.0696158
0.0704457
0.0712276
0.0719608
0.0726442
0.0732773
0.0738592
0.0743894
0.0748675
0.0752931
0.075666
0.0759861
0.0762534
0.076468
0.0766301
0.0767402
0.0767988
0.0768064
0.076764
0.0766724
0.0765328
0.0763462
0.0761142
0.0758382
0.0755198
0.0751609
0.0747635
0.0743297
0.0738617
0.0733619
0.0728329
0.0722773
0.071698
0.0710979
0.0704802
0.069848
0.0692044
0.0685529
0.0678969
0.0672399
0.0665853
0.0659368
0.0652977
0.0646716
0.0640617
0.0634713
0.0629037
0.0623615
0.0618474
0.0613658
0.0609207
0.0604872
0.0600409
0.0084025
0.00781483
0.00726993
0.00673452
0.00617296
0.00558924
0.00498791
0.00437101
0.00374077
0.00309984
0.002451
0.00179711
0.00114113
0.000486035
-0.000165165
-0.000809484
-0.00144397
-0.0020657
-0.00267183
-0.00325962
-0.00382639
-0.00436958
-0.00488674
-0.00537554
-0.00583377
-0.00625934
-0.00665029
-0.00700481
-0.00732118
-0.00759785
-0.00783338
-0.00802646
-0.00817589
-0.00828063
-0.00833974
-0.0083524
-0.00831791
-0.00823568
-0.00810524
-0.00792623
-0.00769839
-0.00742155
-0.00709567
-0.00672079
-0.00629704
-0.00582465
-0.00530392
-0.00473525
-0.00411913
-0.0034561
-0.00274681
-0.00199197
-0.00119235
-0.0003488
0.000537751
0.00146632
0.00243587
0.00344528
0.00449338
0.00557895
0.00670071
0.00785733
0.00904742
0.0102696
0.0115223
0.012804
0.0141132
0.0154483
0.0168076
0.0181894
0.0195921
0.0210138
0.0224529
0.0239074
0.0253756
0.0268556
0.0283456
0.0298435
0.0313476
0.0328558
0.0343662
0.0358769
0.0373859
0.0388913
0.040391
0.0418831
0.0433656
0.0448366
0.046294
0.047736
0.0491607
0.050566
0.0519502
0.0533113
0.0546475
0.055957
0.057238
0.0584888
0.0597076
0.0608929
0.062043
0.0631563
0.0642314
0.0652668
0.0662611
0.0672129
0.0681212
0.0689846
0.0698021
0.0705726
0.0712953
0.0719692
0.0725937
0.073168
0.0736917
0.0741642
0.0745852
0.0749545
0.075272
0.0755376
0.0757514
0.0759137
0.0760248
0.0760853
0.0760957
0.0760568
0.0759695
0.0758347
0.0756537
0.0754278
0.0751583
0.0748469
0.0744952
0.0741052
0.0736788
0.0732182
0.0727256
0.0722034
0.0716541
0.0710803
0.0704849
0.0698707
0.0692407
0.0685978
0.0679451
0.0672857
0.0666228
0.0659598
0.0652997
0.0646456
0.0640007
0.063368
0.0627504
0.0621505
0.0615707
0.0610133
0.0604825
0.0599822
0.0594809
0.0589486
0.00951465
0.00883793
0.00822216
0.00762853
0.00701455
0.00638418
0.00574202
0.00508966
0.00442894
0.00376209
0.00309153
0.00241977
0.00174939
0.00108306
0.000423434
-0.000226792
-0.000864959
-0.00148843
-0.00209462
-0.00268102
-0.00324519
-0.00378479
-0.00429756
-0.00478136
-0.00523414
-0.00565398
-0.00603906
-0.00638769
-0.00669828
-0.00696939
-0.00719968
-0.00738792
-0.007533
-0.00763394
-0.00768988
-0.00770004
-0.00766379
-0.00758057
-0.00744994
-0.00727159
-0.00704527
-0.00677085
-0.0064483
-0.00607766
-0.00565907
-0.00519278
-0.00467909
-0.00411839
-0.00351116
-0.00285794
-0.00215937
-0.00141614
-0.000629011
0.000201179
0.00107353
0.00198708
0.00294081
0.00393362
0.00496438
0.00603189
0.00713489
0.00827209
0.00944212
0.0106436
0.0118751
0.013135
0.014422
0.0157343
0.0170704
0.0184287
0.0198075
0.021205
0.0226195
0.0240492
0.0254924
0.0269473
0.0284119
0.0298844
0.031363
0.0328457
0.0343307
0.035816
0.0372997
0.0387799
0.0402545
0.0417218
0.0431798
0.0446264
0.0460599
0.0474783
0.0488796
0.0502621
0.0516239
0.0529631
0.0542779
0.0555665
0.0568273
0.0580584
0.0592583
0.0604252
0.0615576
0.062654
0.0637128
0.0647327
0.0657123
0.0666504
0.0675455
0.0683967
0.0692028
0.0699629
0.0706759
0.0713411
0.0719577
0.072525
0.0730426
0.0735099
0.0739266
0.0742924
0.0746073
0.0748711
0.075084
0.0752461
0.0753579
0.0754197
0.0754322
0.075396
0.075312
0.0751811
0.0750044
0.0747832
0.0745188
0.0742127
0.0738665
0.0734819
0.073061
0.0726055
0.0721178
0.0716
0.0710545
0.0704836
0.0698901
0.0692765
0.0686457
0.0680004
0.0673434
0.0666776
0.0660059
0.0653312
0.0646564
0.0639843
0.0633177
0.0626594
0.0620117
0.0613771
0.0607575
0.0601547
0.059573
0.0590164
0.0584467
0.0578285
0.0106417
0.00987648
0.00918972
0.00853716
0.00786962
0.0071911
0.00650632
0.00581648
0.00512302
0.00442785
0.00373305
0.00304079
0.00235333
0.00167303
0.00100225
0.00034339
-0.000301158
-0.000929017
-0.00153785
-0.00212538
-0.0026894
-0.00322775
-0.00373837
-0.0042193
-0.00466866
-0.00508468
-0.00546569
-0.0058101
-0.00611647
-0.00638345
-0.00660981
-0.0067944
-0.0069362
-0.0070343
-0.00708791
-0.0070963
-0.0070589
-0.00697518
-0.00684477
-0.00666736
-0.00644275
-0.00617084
-0.00585159
-0.00548509
-0.00507148
-0.004611
-0.00410397
-0.00355077
-0.0029519
-0.00230788
-0.00161933
-0.000886937
-0.000111459
0.000706286
0.00156542
0.00246499
0.003404
0.00438138
0.00539602
0.00644674
0.00753231
0.00865146
0.00980286
0.0109851
0.0121969
0.0134367
0.0147029
0.0159942
0.0173088
0.0186452
0.0200017
0.0213768
0.0227685
0.0241753
0.0255953
0.0270269
0.028468
0.0299171
0.0313721
0.0328312
0.0342927
0.0357545
0.0372148
0.0386717
0.0401232
0.0415676
0.0430029
0.0444271
0.0458385
0.0472351
0.048615
0.0499765
0.0513177
0.0526368
0.0539319
0.0552015
0.0564436
0.0576567
0.0588391
0.0599893
0.0611055
0.0621864
0.0632304
0.0642362
0.0652024
0.0661277
0.067011
0.067851
0.0686468
0.0693972
0.0701015
0.0707586
0.071368
0.071929
0.0724409
0.0729034
0.073316
0.0736786
0.0739909
0.0742529
0.0744647
0.0746265
0.0747385
0.0748012
0.0748151
0.0747808
0.0746992
0.0745712
0.0743977
0.0741799
0.0739192
0.0736169
0.0732745
0.0728937
0.0724762
0.0720239
0.0715389
0.0710232
0.0704791
0.0699087
0.0693145
0.068699
0.0680647
0.0674142
0.0667501
0.066075
0.0653916
0.0647024
0.0640102
0.0633174
0.0626266
0.06194
0.06126
0.0605885
0.0599272
0.0592775
0.0586438
0.05803
0.0573916
0.056688
0.0117765
0.0109237
0.0101661
0.00945424
0.00873235
0.00800454
0.00727568
0.00654666
0.00581857
0.00509302
0.00437177
0.00365669
0.00294978
0.00225307
0.00156868
0.00089873
0.000245358
-0.000389302
-0.00100315
-0.00159412
-0.00216021
-0.00269947
-0.00321002
-0.00369007
-0.00413789
-0.00455187
-0.00493047
-0.00527224
-0.00557584
-0.00584003
-0.00606368
-0.00624574
-0.00638527
-0.00648144
-0.00653349
-0.0065408
-0.00650281
-0.00641907
-0.00628924
-0.00611304
-0.00589031
-0.00562097
-0.00530502
-0.00494253
-0.00453369
-0.00407874
-0.00357799
-0.00303185
-0.00244079
-0.00180535
-0.00112614
-0.000403832
0.000360822
0.00116702
0.00201389
0.00290051
0.00382589
0.00478898
0.00578869
0.00682387
0.00789332
0.00899577