/*--------------------------------*- C++ -*----------------------------------*\
  =========                 |
  \\      /  F ield         | OpenFOAM: The Open Source CFD Toolbox
   \\    /   O peration     | Website:  https://openfoam.org
    \\  /    A nd           | Version:  9
     \\/     M anipulation  |
\*---------------------------------------------------------------------------*/
FoamFile
{
    format      ascii;
    class       surfaceScalarField;
    location    "0.3";
    object      phi;
}
// * * * * * * * * * * * * * * * * * * * * * * * * * * * * * * * * * * * * * //

dimensions      [0 3 -1 0 0 0 0];

internalField   nonuniform List<scalar> 
50880
(
5.66992e-12
-6.56535e-12
3.60528e-11
-3.03902e-11
8.10232e-11
-4.4966e-11
1.30688e-10
-4.96634e-11
1.77931e-10
-4.7246e-11
2.17792e-10
-3.9861e-11
2.46845e-10
-2.90528e-11
2.62781e-10
-1.59333e-11
2.64075e-10
-1.29135e-12
2.4976e-10
1.43142e-11
2.1928e-10
3.04794e-11
1.72373e-10
4.69059e-11
1.09004e-10
6.33688e-11
2.93062e-11
7.96974e-11
-6.64569e-11
9.57623e-11
-1.7792e-10
1.11463e-10
-3.04642e-10
1.26722e-10
-4.46119e-10
1.41478e-10
-6.01801e-10
1.55682e-10
-7.71101e-10
1.693e-10
-9.53404e-10
1.82303e-10
-1.14807e-09
1.9467e-10
-1.35446e-09
2.06385e-10
-1.5719e-09
2.17438e-10
-1.79972e-09
2.2782e-10
-2.03725e-09
2.37529e-10
-2.28381e-09
2.46562e-10
-2.53873e-09
2.54921e-10
-2.80133e-09
2.62606e-10
-3.07096e-09
2.69624e-10
-3.34694e-09
2.75978e-10
-3.62861e-09
2.81676e-10
-3.91534e-09
2.86726e-10
-4.20647e-09
2.91135e-10
-4.50139e-09
2.94913e-10
-4.79945e-09
2.98069e-10
-5.10007e-09
3.00613e-10
-5.40262e-09
3.02557e-10
-5.70653e-09
3.0391e-10
-6.01122e-09
3.04685e-10
-6.31611e-09
3.04893e-10
-6.62066e-09
3.04546e-10
-6.92432e-09
3.03656e-10
-7.22655e-09
3.02236e-10
-7.52685e-09
3.00297e-10
-7.8247e-09
2.97853e-10
-8.11962e-09
2.94916e-10
-8.41112e-09
2.91498e-10
-8.69873e-09
2.87613e-10
-8.98201e-09
2.83274e-10
-9.2605e-09
2.78493e-10
-9.53378e-09
2.73284e-10
-9.80144e-09
2.67659e-10
-1.00631e-08
2.61631e-10
-1.03183e-08
2.55215e-10
-1.05667e-08
2.48422e-10
-1.0808e-08
2.41266e-10
-1.10417e-08
2.3376e-10
-1.12676e-08
2.25918e-10
-1.14854e-08
2.17752e-10
-1.16947e-08
2.09276e-10
-1.18952e-08
2.00504e-10
-1.20866e-08
1.91448e-10
-1.22688e-08
1.82123e-10
-1.24413e-08
1.72541e-10
-1.2604e-08
1.62717e-10
-1.27567e-08
1.52664e-10
-1.28991e-08
1.42396e-10
-1.3031e-08
1.31926e-10
-1.31523e-08
1.21269e-10
-1.32627e-08
1.10438e-10
-1.33622e-08
9.94483e-11
-1.34505e-08
8.83131e-11
-1.35275e-08
7.70472e-11
-1.35932e-08
6.56649e-11
-1.36474e-08
5.41809e-11
-1.369e-08
4.26097e-11
-1.37209e-08
3.09661e-11
-1.37402e-08
1.92653e-11
-1.37477e-08
7.52237e-12
-1.37435e-08
-4.24745e-12
-1.37275e-08
-1.60288e-11
-1.36996e-08
-2.78061e-11
-1.36601e-08
-3.95638e-11
-1.36088e-08
-5.1286e-11
-1.35458e-08
-6.29568e-11
-1.34713e-08
-7.45601e-11
-1.33852e-08
-8.60797e-11
-1.32877e-08
-9.74993e-11
-1.31789e-08
-1.08802e-10
-1.30589e-08
-1.19972e-10
-1.29279e-08
-1.30992e-10
-1.27861e-08
-1.41846e-10
-1.26336e-08
-1.52516e-10
-1.24706e-08
-1.62986e-10
-1.22973e-08
-1.73239e-10
-1.21141e-08
-1.83257e-10
-1.19211e-08
-1.93024e-10
-1.17185e-08
-2.02522e-10
-1.15068e-08
-2.11735e-10
-1.12862e-08
-2.20644e-10
-1.10569e-08
-2.29235e-10
-1.08194e-08
-2.37488e-10
-1.05741e-08
-2.45388e-10
-1.03211e-08
-2.52918e-10
-1.00611e-08
-2.6006e-10
-9.79428e-09
-2.66799e-10
-9.52117e-09
-2.73118e-10
-9.24217e-09
-2.79e-10
-8.95773e-09
-2.84431e-10
-8.66834e-09
-2.89393e-10
-8.37447e-09
-2.93873e-10
-8.07661e-09
-2.97854e-10
-7.77529e-09
-3.01322e-10
-7.47103e-09
-3.04263e-10
-7.16437e-09
-3.06663e-10
-6.85586e-09
-3.08507e-10
-6.54608e-09
-3.09784e-10
-6.2356e-09
-3.1048e-10
-5.92501e-09
-3.10584e-10
-5.61493e-09
-3.10084e-10
-5.30596e-09
-3.08969e-10
-4.99873e-09
-3.07229e-10
-4.69387e-09
-3.04855e-10
-4.39204e-09
-3.01839e-10
-4.09387e-09
-2.98171e-10
-3.80002e-09
-2.93846e-10
-3.51116e-09
-2.88857e-10
-3.22796e-09
-2.83201e-10
-2.95109e-09
-2.76873e-10
-2.68122e-09
-2.69869e-10
-2.41903e-09
-2.6219e-10
-2.1652e-09
-2.53835e-10
-1.92039e-09
-2.44807e-10
-1.68528e-09
-2.35109e-10
-1.46054e-09
-2.24748e-10
-1.2468e-09
-2.13733e-10
-1.04473e-09
-2.02075e-10
-8.54942e-10
-1.89789e-10
-6.78052e-10
-1.76892e-10
-5.14644e-10
-1.63408e-10
-3.65274e-10
-1.49369e-10
-2.30465e-10
-1.34809e-10
-1.10692e-10
-1.19773e-10
-6.3767e-12
-1.04317e-10
8.21305e-11
-8.8509e-11
1.54563e-10
-7.24346e-11
2.10763e-10
-5.62019e-11
2.50712e-10
-3.99487e-11
2.74566e-10
-2.38533e-11
2.82709e-10
-8.14473e-12
2.75829e-10
6.87621e-12
2.55026e-10
2.0802e-11
2.2196e-10
3.30705e-11
1.79061e-10
4.28996e-11
1.29847e-10
4.92052e-11
7.93309e-11
5.05064e-11
3.45889e-11
4.47553e-11
5.29756e-12
2.93483e-11
5.36319e-12
2.99124e-11
-3.64857e-11
1.01041e-10
-1.01512e-10
1.95309e-10
-1.39234e-10
2.95622e-10
-1.49973e-10
3.87622e-10
-1.39239e-10
4.6007e-10
-1.12307e-10
5.04512e-10
-7.3495e-11
5.14767e-10
-2.61868e-11
4.86446e-10
2.70328e-11
4.1655e-10
8.42128e-11
3.03161e-10
1.43871e-10
1.45193e-10
2.04874e-10
-5.77843e-11
2.66346e-10
-3.05693e-10
3.27607e-10
-5.98053e-10
3.88124e-10
-9.34068e-10
4.47479e-10
-1.31269e-09
5.05342e-10
-1.73266e-09
5.6145e-10
-2.19257e-09
6.15598e-10
-2.69089e-09
6.67622e-10
-3.22598e-09
7.17394e-10
-3.79613e-09
7.64815e-10
-4.39955e-09
8.09809e-10
-5.03443e-09
8.5232e-10
-5.69892e-09
8.92308e-10
-6.39113e-09
9.29747e-10
-7.10919e-09
9.6462e-10
-7.85119e-09
9.96923e-10
-8.61524e-09
1.02666e-09
-9.39944e-09
1.05383e-09
-1.02019e-08
1.07846e-09
-1.10208e-08
1.10056e-09
-1.18542e-08
1.12016e-09
-1.27004e-08
1.13729e-09
-1.35575e-08
1.15198e-09
-1.44237e-08
1.16426e-09
-1.52972e-08
1.17418e-09
-1.61764e-08
1.18176e-09
-1.70596e-08
1.18704e-09
-1.7945e-08
1.19008e-09
-1.8831e-08
1.19091e-09
-1.9716e-08
1.18958e-09
-2.05985e-08
1.18614e-09
-2.14769e-08
1.18062e-09
-2.23497e-08
1.17309e-09
-2.32154e-08
1.16357e-09
-2.40726e-08
1.15214e-09
-2.49199e-08
1.13882e-09
-2.5756e-08
1.12368e-09
-2.65795e-08
1.10676e-09
-2.73891e-08
1.08811e-09
-2.81836e-08
1.06778e-09
-2.89618e-08
1.04583e-09
-2.97224e-08
1.0223e-09
-3.04645e-08
9.97243e-10
-3.11867e-08
9.70713e-10
-3.18882e-08
9.42761e-10
-3.25679e-08
9.13438e-10
-3.32248e-08
8.82795e-10
-3.38579e-08
8.50885e-10
-3.44664e-08
8.17761e-10
-3.50494e-08
7.83473e-10
-3.5606e-08
7.48075e-10
-3.61355e-08
7.1162e-10
-3.66371e-08
6.74161e-10
-3.71102e-08
6.35752e-10
-3.75539e-08
5.96445e-10
-3.79679e-08
5.56296e-10
-3.83513e-08
5.15358e-10
-3.87037e-08
4.73686e-10
-3.90246e-08
4.31336e-10
-3.93135e-08
3.88362e-10
-3.957e-08
3.44822e-10
-3.97938e-08
3.0077e-10
-3.99844e-08
2.56265e-10
-4.01415e-08
2.11363e-10
-4.02651e-08
1.66122e-10
-4.03547e-08
1.20601e-10
-4.04103e-08
7.48582e-11
-4.04317e-08
2.8953e-11
-4.04189e-08
-1.70545e-11
-4.03718e-08
-6.3104e-11
-4.02905e-08
-1.09134e-10
-4.0175e-08
-1.55084e-10
-4.00254e-08
-2.00892e-10
-3.98418e-08
-2.46494e-10
-3.96246e-08
-2.91828e-10
-3.93738e-08
-3.36831e-10
-3.90899e-08
-3.81438e-10
-3.87731e-08
-4.25585e-10
-3.84239e-08
-4.69207e-10
-3.80426e-08
-5.12239e-10
-3.76299e-08
-5.54615e-10
-3.71861e-08
-5.9627e-10
-3.67119e-08
-6.37137e-10
-3.6208e-08
-6.7715e-10
-3.5675e-08
-7.16243e-10
-3.51137e-08
-7.54349e-10
-3.45248e-08
-7.91402e-10
-3.39092e-08
-8.27335e-10
-3.32678e-08
-8.62081e-10
-3.26015e-08
-8.95574e-10
-3.19112e-08
-9.27749e-10
-3.11981e-08
-9.5854e-10
-3.04631e-08
-9.87881e-10
-2.97074e-08
-1.01571e-09
-2.89323e-08
-1.04196e-09
-2.81388e-08
-1.06657e-09
-2.73284e-08
-1.08947e-09
-2.65022e-08
-1.11061e-09
-2.56617e-08
-1.12992e-09
-2.48082e-08
-1.14735e-09
-2.39432e-08
-1.16283e-09
-2.30682e-08
-1.17632e-09
-2.21847e-08
-1.18775e-09
-2.12943e-08
-1.19707e-09
-2.03986e-08
-1.20423e-09
-1.94992e-08
-1.20919e-09
-1.85978e-08
-1.21188e-09
-1.76961e-08
-1.21228e-09
-1.67959e-08
-1.21033e-09
-1.58988e-08
-1.20599e-09
-1.50068e-08
-1.19924e-09
-1.41217e-08
-1.19002e-09
-1.32452e-08
-1.17832e-09
-1.23792e-08
-1.1641e-09
-1.15257e-08
-1.14734e-09
-1.06866e-08
-1.12803e-09
-9.86365e-09
-1.10613e-09
-9.05886e-09
-1.08166e-09
-8.27415e-09
-1.05459e-09
-7.51141e-09
-1.02493e-09
-6.77256e-09
-9.92683e-10
-6.0595e-09
-9.57869e-10
-5.3741e-09
-9.20509e-10
-4.71822e-09
-8.80631e-10
-4.09368e-09
-8.38279e-10
-3.50224e-09
-7.93508e-10
-2.94564e-09
-7.46387e-10
-2.42553e-09
-6.97e-10
-1.94349e-09
-6.45452e-10
-1.501e-09
-5.9187e-10
-1.09939e-09
-5.36414e-10
-7.39891e-10
-4.79277e-10
-4.23518e-10
-4.20692e-10
-1.51076e-10
-3.60952e-10
7.69023e-11
-3.00413e-10
2.60219e-10
-2.39521e-10
3.99095e-10
-1.78828e-10
4.94279e-10
-1.19037e-10
5.47175e-10
-6.10396e-11
5.60023e-10
-5.9756e-12
5.36137e-10
4.46799e-11
4.80208e-10
8.89962e-11
3.9868e-10
1.24436e-10
3.00182e-10
1.4771e-10
1.95964e-10
1.54694e-10
1.00153e-10
1.40476e-10
2.92177e-11
1.00159e-10
3.46199e-11
4.47739e-11
-8.12543e-11
1.39007e-10
-1.95743e-10
2.56204e-10
-2.56436e-10
3.74724e-10
-2.68493e-10
4.76279e-10
-2.40794e-10
5.45998e-10
-1.82021e-10
5.72172e-10
-9.96648e-11
5.45847e-10
1.37936e-13
4.60395e-10
1.12484e-10
3.1108e-10
2.33529e-10
9.47095e-11
3.60244e-10
-1.90667e-10
4.9025e-10
-5.45995e-10
6.21673e-10
-9.71413e-10
7.53025e-10
-1.46641e-09
8.83125e-10
-2.02996e-09
1.01103e-09
-2.6606e-09
1.13598e-09
-3.35652e-09
1.25737e-09
-4.11565e-09
1.37473e-09
-4.93568e-09
1.48765e-09
-5.81414e-09
1.59584e-09
-6.74838e-09
1.69906e-09
-7.73567e-09
1.7971e-09
-8.77318e-09
1.88983e-09
-9.85801e-09
1.97715e-09
-1.09872e-08
2.05897e-09
-1.21579e-08
2.13524e-09
-1.33669e-08
2.20595e-09
-1.46113e-08
2.27108e-09
-1.58881e-08
2.33064e-09
-1.71943e-08
2.38465e-09
-1.85269e-08
2.43316e-09
-1.98829e-08
2.47619e-09
-2.12594e-08
2.51382e-09
-2.26536e-08
2.5461e-09
-2.40624e-08
2.5731e-09
-2.54831e-08
2.5949e-09
-2.69129e-08
2.61157e-09
-2.83491e-08
2.62321e-09
-2.97889e-08
2.62989e-09
-3.12297e-08
2.63172e-09
-3.26689e-08
2.62878e-09
-3.4104e-08
2.62118e-09
-3.55323e-08
2.60901e-09
-3.69516e-08
2.59238e-09
-3.83595e-08
2.57139e-09
-3.97535e-08
2.54615e-09
-4.11314e-08
2.51676e-09
-4.24911e-08
2.48333e-09
-4.38303e-08
2.44597e-09
-4.5147e-08
2.40479e-09
-4.64391e-08
2.35989e-09
-4.77046e-08
2.3114e-09
-4.89417e-08
2.25941e-09
-5.01486e-08
2.20406e-09
-5.13233e-08
2.14543e-09
-5.24642e-08
2.08366e-09
-5.35696e-08
2.01886e-09
-5.46379e-08
1.95113e-09
-5.56676e-08
1.88059e-09
-5.66572e-08
1.80737e-09
-5.76053e-08
1.73157e-09
-5.85106e-08
1.65331e-09
-5.93717e-08
1.57271e-09
-6.01874e-08
1.48988e-09
-6.09566e-08
1.40496e-09
-6.16782e-08
1.31805e-09
-6.23512e-08
1.22927e-09
-6.29745e-08
1.13874e-09
-6.35475e-08
1.0466e-09
-6.40691e-08
9.52953e-10
-6.45386e-08
8.57928e-10
-6.49555e-08
7.61651e-10
-6.5319e-08
6.64246e-10
-6.56285e-08
5.65839e-10
-6.58837e-08
4.66557e-10
-6.60841e-08
3.66529e-10
-6.62294e-08
2.65885e-10
-6.63193e-08
1.64754e-10
-6.63536e-08
6.3269e-11
-6.63322e-08
-3.84377e-11
-6.62551e-08
-1.40232e-10
-6.61223e-08
-2.41979e-10
-6.59338e-08
-3.43542e-10
-6.56899e-08
-4.44783e-10
-6.53909e-08
-5.45565e-10
-6.50369e-08
-6.45747e-10
-6.46286e-08
-7.45189e-10
-6.41663e-08
-8.4375e-10
-6.36506e-08
-9.41287e-10
-6.30821e-08
-1.03766e-09
-6.24616e-08
-1.13271e-09
-6.17899e-08
-1.22631e-09
-6.10679e-08
-1.31831e-09
-6.02965e-08
-1.40856e-09
-5.94767e-08
-1.49692e-09
-5.86097e-08
-1.58324e-09
-5.76967e-08
-1.66737e-09
-5.67389e-08
-1.74916e-09
-5.57378e-08
-1.82847e-09
-5.46947e-08
-1.90516e-09
-5.36112e-08
-1.97907e-09
-5.24889e-08
-2.05007e-09
-5.13294e-08
-2.118e-09
-5.01346e-08
-2.18273e-09
-4.89062e-08
-2.24411e-09
-4.76461e-08
-2.302e-09
-4.63564e-08
-2.35627e-09
-4.50391e-08
-2.40677e-09
-4.36964e-08
-2.45338e-09
-4.23303e-08
-2.49595e-09
-4.09433e-08
-2.53437e-09
-3.95376e-08
-2.5685e-09
-3.81157e-08
-2.59822e-09
-3.66801e-08
-2.62341e-09
-3.52332e-08
-2.64396e-09
-3.37777e-08
-2.65975e-09
-3.23162e-08
-2.67068e-09
-3.08514e-08
-2.67664e-09
-2.93862e-08
-2.67754e-09
-2.79232e-08
-2.67328e-09
-2.64654e-08
-2.66378e-09
-2.50157e-08
-2.64897e-09
-2.35769e-08
-2.62876e-09
-2.21522e-08
-2.60309e-09
-2.07444e-08
-2.57192e-09
-1.93565e-08
-2.53518e-09
-1.79917e-08
-2.49284e-09
-1.6653e-08
-2.44487e-09
-1.53434e-08
-2.39127e-09
-1.40659e-08
-2.33201e-09
-1.28238e-08
-2.26711e-09
-1.16199e-08
-2.1966e-09
-1.04572e-08
-2.12051e-09
-9.33882e-09
-2.0389e-09
-8.26758e-09
-1.95187e-09
-7.24636e-09
-1.8595e-09
-6.27793e-09
-1.76194e-09
-5.36496e-09
-1.65936e-09
-4.51e-09
-1.55196e-09
-3.71547e-09
-1.43999e-09
-2.98359e-09
-1.32375e-09
-2.31639e-09
-1.20362e-09
-1.71562e-09
-1.08004e-09
-1.18275e-09
-9.53564e-10
-7.1886e-10
-8.24848e-10
-3.24571e-10
-6.94703e-10
3.19944e-14
-5.64125e-10
2.55541e-10
-4.34339e-10
4.43364e-10
-3.06864e-10
5.65926e-10
-1.83602e-10
6.26886e-10
-6.69342e-11
6.31421e-10
4.01392e-11
5.86573e-10
1.33834e-10
5.0163e-10
2.09381e-10
3.88527e-10
2.60851e-10
2.62172e-10
2.81115e-10
1.40569e-10
2.6211e-10
4.46833e-11
1.95979e-10
7.93059e-11
4.9654e-11
-1.30908e-10
1.50171e-10
-2.96257e-10
2.68953e-10
-3.75216e-10
3.80806e-10
-3.80349e-10
4.64927e-10
-3.24915e-10
5.0425e-10
-2.21339e-10
4.85053e-10
-8.04636e-11
3.96565e-10
8.86278e-11
2.30557e-10
2.78491e-10
-1.90172e-11
4.83105e-10
-3.56387e-10
6.97615e-10
-7.8426e-10
9.18123e-10
-1.30408e-09
1.14149e-09
-1.91626e-09
1.36521e-09
-2.62036e-09
1.58722e-09
-3.4152e-09
1.80588e-09
-4.29907e-09
2.01985e-09
-5.26975e-09
2.22805e-09
-6.32463e-09
2.42961e-09
-7.46079e-09
2.62381e-09
-8.67504e-09
2.81009e-09
-9.96398e-09
2.98799e-09
-1.1324e-08
3.15716e-09
-1.27515e-08
3.3173e-09
-1.42426e-08
3.46821e-09
-1.57933e-08
3.60973e-09
-1.73999e-08
3.74176e-09
-1.90581e-08
3.86423e-09
-2.07641e-08
3.9771e-09
-2.25139e-08
4.08037e-09
-2.43033e-08
4.17407e-09
-2.61284e-08
4.25825e-09
-2.79852e-08
4.33297e-09
-2.98697e-08
4.39832e-09
-3.1778e-08
4.4544e-09
-3.37062e-08
4.5013e-09
-3.56504e-08
4.53917e-09
-3.7607e-08
4.56813e-09
-3.95721e-08
4.58832e-09
-4.15421e-08
4.59989e-09
-4.35134e-08
4.603e-09
-4.54824e-08
4.5978e-09
-4.74457e-08
4.58447e-09
-4.93999e-08
4.56317e-09
-5.13416e-08
4.53408e-09
-5.32676e-08
4.49738e-09
-5.51747e-08
4.45324e-09
-5.70598e-08
4.40186e-09
-5.89198e-08
4.34341e-09
-6.0752e-08
4.27809e-09
-6.25533e-08
4.20608e-09
-6.43209e-08
4.12758e-09
-6.60523e-08
4.04278e-09
-6.77448e-08
3.95187e-09
-6.93958e-08
3.85505e-09
-7.10029e-08
3.75252e-09
-7.25637e-08
3.64447e-09
-7.40759e-08
3.53111e-09
-7.55374e-08
3.41263e-09
-7.69461e-08
3.28924e-09
-7.82998e-08
3.16113e-09
-7.95968e-08
3.02852e-09
-8.08351e-08
2.8916e-09
-8.2013e-08
2.75057e-09
-8.31287e-08
2.60566e-09
-8.41808e-08
2.45706e-09
-8.51678e-08
2.30499e-09
-8.60882e-08
2.14965e-09
-8.69407e-08
1.99125e-09
-8.77241e-08
1.83002e-09
-8.84373e-08
1.66615e-09
-8.90792e-08
1.49988e-09
-8.9649e-08
1.33142e-09
-9.01458e-08
1.16099e-09
-9.05687e-08
9.88811e-10
-9.09173e-08
8.15104e-10
-9.11908e-08
6.40096e-10
-9.1389e-08
4.64014e-10
-9.15113e-08
2.87088e-10
-9.15576e-08
1.09549e-10
-9.15277e-08
-6.83711e-11
-9.14215e-08
-2.46436e-10
-9.1239e-08
-4.2441e-10
-9.09805e-08
-6.02052e-10
-9.06462e-08
-7.79124e-10
-9.02364e-08
-9.55381e-10
-8.97515e-08
-1.13058e-09
-8.91922e-08
-1.30447e-09
-8.85592e-08
-1.47682e-09
-8.78531e-08
-1.64736e-09
-8.70749e-08
-1.81584e-09
-8.62256e-08
-1.98202e-09
-8.53063e-08
-2.14565e-09
-8.43181e-08
-2.30646e-09
-8.32625e-08
-2.4642e-09
-8.21408e-08
-2.61862e-09
-8.09546e-08
-2.76947e-09
-7.97054e-08
-2.91648e-09
-7.83952e-08
-3.05939e-09
-7.70257e-08
-3.19797e-09
-7.55989e-08
-3.33194e-09
-7.4117e-08
-3.46105e-09
-7.2582e-08
-3.58506e-09
-7.09963e-08
-3.70371e-09
-6.93622e-08
-3.81676e-09
-6.76824e-08
-3.92395e-09
-6.59594e-08
-4.02504e-09
-6.41958e-08
-4.11979e-09
-6.23946e-08
-4.20797e-09
-6.05587e-08
-4.28934e-09
-5.8691e-08
-4.36367e-09
-5.67946e-08
-4.43074e-09
-5.48728e-08
-4.49033e-09
-5.29288e-08
-4.54222e-09
-5.0966e-08
-4.58622e-09
-4.89878e-08
-4.62212e-09
-4.69978e-08
-4.64973e-09
-4.49996e-08
-4.66887e-09
-4.29969e-08
-4.67935e-09
-4.09934e-08
-4.68103e-09
-3.8993e-08
-4.67373e-09
-3.69995e-08
-4.65732e-09
-3.50168e-08
-4.63167e-09
-3.30489e-08
-4.59664e-09
-3.10998e-08
-4.55215e-09
-2.91737e-08
-4.49809e-09
-2.72744e-08
-4.43439e-09
-2.54063e-08
-4.361e-09
-2.35733e-08
-4.27786e-09
-2.17796e-08
-4.18497e-09
-2.00293e-08
-4.08233e-09
-1.83264e-08
-3.96996e-09
-1.66751e-08
-3.84791e-09
-1.50793e-08
-3.71629e-09
-1.3543e-08
-3.5752e-09
-1.20701e-08
-3.42481e-09
-1.06643e-08
-3.26531e-09
-9.32924e-09
-3.09698e-09
-8.06849e-09
-2.92011e-09
-6.88534e-09
-2.7351e-09
-5.78291e-09
-2.54241e-09
-4.76406e-09
-2.3426e-09
-3.83134e-09
-2.13634e-09
-2.98694e-09
-1.92444e-09
-2.23262e-09
-1.70788e-09
-1.56963e-09
-1.48784e-09
-9.98613e-10
-1.26573e-09
-5.19457e-10
-1.04328e-09
-1.31188e-10
-8.22611e-10
1.68225e-10
-6.06282e-10
3.82081e-10
-3.97458e-10
5.15188e-10
-2.00034e-10
5.74144e-10
-1.88109e-11
5.67653e-10
1.4031e-10
5.06888e-10
2.70108e-10
4.05845e-10
3.61862e-10
2.81688e-10
4.05287e-10
1.55046e-10
3.88802e-10
5.05471e-11
3.00465e-10
1.29844e-10
4.74551e-11
-1.78365e-10
1.401e-10
-3.88898e-10
2.42476e-10
-4.7759e-10
3.27205e-10
-4.65076e-10
3.71923e-10
-3.69631e-10
3.58274e-10
-2.07687e-10
2.71345e-10
6.46807e-12
9.92373e-11
2.60738e-10
-1.67312e-10
5.45042e-10
-5.35269e-10
8.51061e-10
-1.00962e-09
1.17196e-09
-1.59366e-09
1.50216e-09
-2.28926e-09
1.83709e-09
-3.09707e-09
2.17301e-09
-4.01672e-09
2.50687e-09
-5.047e-09
2.83616e-09
-6.18599e-09
3.15883e-09
-7.43115e-09
3.47321e-09
-8.77945e-09
3.77792e-09
-1.02275e-08
4.07183e-09
-1.17714e-08
4.35405e-09
-1.34072e-08
4.62382e-09
-1.51307e-08
4.88057e-09
-1.69372e-08
5.12382e-09
-1.88222e-08
5.35322e-09
-2.07809e-08
5.56849e-09
-2.28086e-08
5.76945e-09
-2.49004e-08
5.95595e-09
-2.70512e-08
6.12793e-09
-2.92562e-08
6.28536e-09
-3.15104e-08
6.42825e-09
-3.38088e-08
6.55666e-09
-3.61465e-08
6.67067e-09
-3.85185e-08
6.7704e-09
-4.09201e-08
6.85598e-09
-4.33464e-08
6.92757e-09
-4.57925e-08
6.98534e-09
-4.82539e-08
7.02949e-09
-5.07258e-08
7.06022e-09
-5.32037e-08
7.07775e-09
-5.5683e-08
7.08231e-09
-5.81593e-08
7.07414e-09
-6.06283e-08
7.0535e-09
-6.30858e-08
7.02063e-09
-6.55275e-08
6.9758e-09
-6.79494e-08
6.91928e-09
-7.03475e-08
6.85134e-09
-7.27179e-08
6.77226e-09
-7.50568e-08
6.68232e-09
-7.73606e-08
6.58181e-09
-7.96255e-08
6.47102e-09
-8.18482e-08
6.35025e-09
-8.40252e-08
6.21977e-09
-8.61532e-08
6.0799e-09
-8.82291e-08
5.93094e-09
-9.02497e-08
5.77318e-09
-9.22122e-08
5.60692e-09
-9.41136e-08
5.43248e-09
-9.59511e-08
5.25017e-09
-9.77221e-08
5.06029e-09
-9.94242e-08
4.86314e-09
-1.01055e-07
4.65906e-09
-1.02611e-07
4.44834e-09
-1.04092e-07
4.23132e-09
-1.05495e-07
4.00829e-09
-1.06817e-07
3.7796e-09
-1.08058e-07
3.54555e-09
-1.09215e-07
3.30647e-09
-1.10286e-07
3.0627e-09
-1.11271e-07
2.81456e-09
-1.12167e-07
2.56237e-09
-1.12974e-07
2.30648e-09
-1.13689e-07
2.04723e-09
-1.14313e-07
1.78494e-09
-1.14844e-07
1.51997e-09
-1.15282e-07
1.25265e-09
-1.15625e-07
9.83342e-10
-1.15874e-07
7.12388e-10
-1.16027e-07
4.40143e-10
-1.16084e-07
1.66964e-10
-1.16046e-07
-1.06789e-10
-1.15911e-07
-3.80755e-10
-1.15681e-07
-6.54568e-10
-1.15355e-07
-9.2786e-10
-1.14934e-07
-1.20026e-09
-1.14418e-07
-1.47139e-09
-1.13808e-07
-1.74089e-09
-1.13104e-07
-2.00836e-09
-1.12307e-07
-2.27342e-09
-1.11419e-07
-2.5357e-09
-1.1044e-07
-2.79481e-09
-1.09372e-07
-3.05036e-09
-1.08215e-07
-3.30196e-09
-1.06973e-07
-3.54922e-09
-1.05645e-07
-3.79175e-09
-1.04235e-07
-4.02915e-09
-1.02743e-07
-4.26104e-09
-1.01173e-07
-4.48702e-09
-9.95252e-08
-4.7067e-09
-9.78035e-08
-4.91968e-09
-9.60099e-08
-5.12558e-09
-9.41469e-08
-5.324e-09
-9.22174e-08
-5.51457e-09
-9.02242e-08
-5.69689e-09
-8.81704e-08
-5.87059e-09
-8.60591e-08
-6.03528e-09
-8.38935e-08
-6.1906e-09
-8.16771e-08
-6.33618e-09
-7.94134e-08
-6.47166e-09
-7.71061e-08
-6.59667e-09
-7.47589e-08
-6.71088e-09
-7.23757e-08
-6.81394e-09
-6.99605e-08
-6.90552e-09
-6.75174e-08
-6.9853e-09
-6.50507e-08
-7.05296e-09
-6.25646e-08
-7.1082e-09
-6.00636e-08
-7.15073e-09
-5.75522e-08
-7.18028e-09
-5.5035e-08
-7.19659e-09
-5.25166e-08
-7.1994e-09
-5.00018e-08
-7.18848e-09
-4.74955e-08
-7.16363e-09
-4.50025e-08
-7.12464e-09
-4.25279e-08
-7.07134e-09
-4.00764e-08
-7.00357e-09
-3.76533e-08
-6.9212e-09
-3.52636e-08
-6.82414e-09
-3.29123e-08
-6.7123e-09
-3.06045e-08
-6.58563e-09
-2.83454e-08
-6.44412e-09
-2.61399e-08
-6.28779e-09
-2.39932e-08
-6.1167e-09
-2.19101e-08
-5.93096e-09
-1.98957e-08
-5.73071e-09
-1.79547e-08
-5.51616e-09
-1.6092e-08
-5.28759e-09
-1.43119e-08
-5.04533e-09
-1.26191e-08
-4.78981e-09
-1.10177e-08
-4.52153e-09
-9.51168e-09
-4.24111e-09
-8.10479e-09
-3.94931e-09
-6.80039e-09
-3.647e-09
-5.60149e-09
-3.33525e-09
-4.5106e-09
-3.01533e-09
-3.52972e-09
-2.68876e-09
-2.66021e-09
-2.35736e-09
-1.90265e-09
-2.02329e-09
-1.25677e-09
-1.68916e-09
-7.21245e-10
-1.35814e-09
-2.93533e-10
-1.034e-09
3.0346e-11
-7.21344e-10
2.5605e-10
-4.25738e-10
3.91176e-10
-1.53925e-10
4.45549e-10
8.59519e-11
4.31535e-10
2.84125e-10
3.64379e-10
4.28996e-10
2.62618e-10
5.0702e-10
1.48616e-10
5.02828e-10
4.94196e-11
3.9967e-10
1.7926e-10
4.03585e-11
-2.18722e-10
1.14081e-10
-4.62622e-10
1.85442e-10
-5.48946e-10
2.26288e-10
-5.05917e-10
2.13582e-10
-3.56923e-10
1.28368e-10
-1.22473e-10
-4.48555e-11
1.79692e-10
-3.18588e-10
5.34472e-10
-7.02685e-10
9.29142e-10
-1.20467e-09
1.35305e-09
-1.83003e-09
1.79732e-09
-2.58246e-09
2.25459e-09
-3.46411e-09
2.71875e-09
-4.47583e-09
3.18473e-09
-5.6173e-09
3.64835e-09
-6.88728e-09
4.10614e-09
-8.28367e-09
4.55522e-09
-9.80368e-09
4.99322e-09
-1.14439e-08
5.41818e-09
-1.32006e-08
5.82849e-09
-1.50694e-08
6.2228e-09
-1.70456e-08
6.60006e-09
-1.91244e-08
6.95937e-09
-2.13006e-08
7.30004e-09
-2.35689e-08
7.62152e-09
-2.59238e-08
7.92338e-09
-2.83597e-08
8.20531e-09
-3.08708e-08
8.4671e-09
-3.34515e-08
8.7086e-09
-3.60959e-08
8.92976e-09
-3.87982e-08
9.13055e-09
-4.15526e-08
9.31104e-09
-4.43532e-08
9.47132e-09
-4.71943e-08
9.61152e-09
-5.00702e-08
9.73183e-09
-5.2975e-08
9.83243e-09
-5.59033e-08
9.91358e-09
-5.88493e-08
9.97551e-09
-6.18076e-08
1.00185e-08
-6.47727e-08
1.00429e-08
-6.77394e-08
1.00489e-08
-7.07022e-08
1.0037e-08
-7.36562e-08
1.00074e-08
-7.65961e-08
9.96057e-09
-7.95171e-08
9.89678e-09
-8.24143e-08
9.81644e-09
-8.52829e-08
9.71993e-09
-8.81182e-08
9.60764e-09
-9.09159e-08
9.47997e-09
-9.36714e-08
9.33731e-09
-9.63804e-08
9.18007e-09
-9.90389e-08
9.00868e-09
-1.01643e-07
8.82353e-09
-1.04188e-07
8.62506e-09
-1.06671e-07
8.41368e-09
-1.09087e-07
8.18982e-09
-1.11434e-07
7.95391e-09
-1.13708e-07
7.70639e-09
-1.15906e-07
7.44768e-09
-1.18024e-07
7.17824e-09
-1.20059e-07
6.89849e-09
-1.22009e-07
6.60888e-09
-1.2387e-07
6.30987e-09
-1.25641e-07
6.00189e-09
-1.27318e-07
5.68541e-09
-1.28899e-07
5.36088e-09
-1.30382e-07
5.02875e-09
-1.31765e-07
4.68949e-09
-1.33046e-07
4.34356e-09
-1.34223e-07
3.99143e-09
-1.35294e-07
3.63358e-09
-1.36258e-07
3.27047e-09
-1.37114e-07
2.90259e-09
-1.37859e-07
2.53041e-09
-1.38494e-07
2.15444e-09
-1.39016e-07
1.77514e-09
-1.39426e-07
1.39303e-09
-1.39722e-07
1.0086e-09
-1.39904e-07
6.22345e-10
-1.39972e-07
2.3478e-10
-1.39925e-07
-1.53588e-10
-1.39764e-07
-5.42241e-10
-1.39488e-07
-9.30663e-10
-1.39097e-07
-1.31833e-09
-1.38593e-07
-1.70471e-09
-1.37975e-07
-2.08928e-09
-1.37244e-07
-2.47151e-09
-1.36402e-07
-2.85085e-09
-1.35448e-07
-3.22676e-09
-1.34385e-07
-3.5987e-09
-1.33214e-07
-3.96613e-09
-1.31936e-07
-4.32848e-09
-1.30553e-07
-4.68522e-09
-1.29066e-07
-5.03579e-09
-1.27478e-07
-5.37963e-09
-1.25791e-07
-5.71619e-09
-1.24007e-07
-6.04491e-09
-1.22129e-07
-6.36523e-09
-1.20159e-07
-6.67661e-09
-1.181e-07
-6.97849e-09
-1.15956e-07
-7.27031e-09
-1.13728e-07
-7.55153e-09
-1.11421e-07
-7.8216e-09
-1.09038e-07
-8.07997e-09
-1.06583e-07
-8.32612e-09
-1.04058e-07
-8.55951e-09
-1.01469e-07
-8.77962e-09
-9.88196e-08
-8.98592e-09
-9.61133e-08
-9.17791e-09
-9.33549e-08
-9.35509e-09
-9.05488e-08
-9.51698e-09
-8.76996e-08
-9.66308e-09
-8.48122e-08
-9.79294e-09
-8.18914e-08
-9.9061e-09
-7.89423e-08
-1.00021e-08
-7.59699e-08
-1.00806e-08
-7.29795e-08
-1.01411e-08
-6.99764e-08
-1.01833e-08
-6.69663e-08
-1.02068e-08
-6.39545e-08
-1.02112e-08
-6.09467e-08
-1.01963e-08
-5.79487e-08
-1.01617e-08
-5.49662e-08
-1.01071e-08
-5.20051e-08
-1.00324e-08
-4.90713e-08
-9.93738e-09
-4.61707e-08
-9.82178e-09
-4.33093e-08
-9.68551e-09
-4.04931e-08
-9.52848e-09
-3.77281e-08
-9.35063e-09
-3.50203e-08
-9.15196e-09
-3.23756e-08
-8.93252e-09
-2.97999e-08
-8.69242e-09
-2.7299e-08
-8.43183e-09
-2.48787e-08
-8.15099e-09
-2.25447e-08
-7.85023e-09
-2.03023e-08
-7.52995e-09
-1.8157e-08
-7.19067e-09
-1.61138e-08
-6.83301e-09
-1.41776e-08
-6.45774e-09
-1.23529e-08
-6.06576e-09
-1.06441e-08
-5.65815e-09
-9.05484e-09
-5.23622e-09
-7.5886e-09
-4.8015e-09
-6.24814e-09
-4.35579e-09
-5.03564e-09
-3.90126e-09
-3.95253e-09
-3.44046e-09
-2.9994e-09
-2.97642e-09
-2.1758e-09
-2.51276e-09
-1.48015e-09
-2.05378e-09
-9.09539e-10
-1.60461e-09
-4.59503e-10
-1.17139e-09
-1.23821e-10
-7.61431e-10
1.05739e-10
-3.83488e-10
2.39679e-10
-4.79771e-11
2.91052e-10
2.3277e-10
2.75785e-10
4.44265e-10
2.13124e-10
5.69653e-10
1.26286e-10
5.89664e-10
4.33779e-11
4.82583e-10
2.22639e-10
2.99049e-11
-2.48625e-10
7.64113e-11
-5.09129e-10
1.05256e-10
-5.77789e-10
8.87246e-11
-4.89381e-10
3.91176e-12
-2.72107e-10
-1.68147e-10
4.95866e-11
-4.43056e-10
4.54601e-10
-8.33492e-10
9.2491e-10
-1.34954e-09
1.44519e-09
-1.99899e-09
2.00249e-09
-2.78754e-09
2.58588e-09
-3.71913e-09
3.18618e-09
-4.79607e-09
3.79568e-09
-6.01928e-09
4.40794e-09
-7.38847e-09
5.01755e-09
-8.90233e-09
5.61999e-09
-1.05586e-08
6.21149e-09
-1.23543e-08
6.7889e-09
-1.42857e-08
7.34958e-09
-1.63485e-08
7.89137e-09
-1.85382e-08
8.41245e-09
-2.08495e-08
8.91134e-09
-2.32769e-08
9.38683e-09
-2.58148e-08
9.83792e-09
-2.84572e-08
1.02639e-08
-3.11978e-08
1.0664e-08
-3.40304e-08
1.10379e-08
-3.69485e-08
1.13852e-08
-3.99457e-08
1.17058e-08
-4.30153e-08
1.19994e-08
-4.61508e-08
1.2266e-08
-4.93455e-08
1.25058e-08
-5.25929e-08
1.27187e-08
-5.58862e-08
1.29049e-08
-5.9219e-08
1.30646e-08
-6.25848e-08
1.31982e-08
-6.59769e-08
1.33058e-08
-6.93892e-08
1.33878e-08
-7.28152e-08
1.34445e-08
-7.62487e-08
1.34764e-08
-7.96836e-08
1.34838e-08
-8.31139e-08
1.34672e-08
-8.65335e-08
1.34271e-08
-8.99367e-08
1.33638e-08
-9.33177e-08
1.32778e-08
-9.6671e-08
1.31697e-08
-9.99911e-08
1.304e-08
-1.03273e-07
1.28891e-08
-1.0651e-07
1.27177e-08
-1.09699e-07
1.25261e-08
-1.12834e-07
1.2315e-08
-1.1591e-07
1.2085e-08
-1.18923e-07
1.18365e-08
-1.21868e-07
1.15701e-08
-1.24741e-07
1.12864e-08
-1.27537e-07
1.0986e-08
-1.30253e-07
1.06695e-08
-1.32884e-07
1.03373e-08
-1.35426e-07
9.99016e-09
-1.37877e-07
9.6286e-09
-1.40231e-07
9.25321e-09
-1.42487e-07
8.8646e-09
-1.44641e-07
8.46337e-09
-1.46689e-07
8.05011e-09
-1.48629e-07
7.62544e-09
-1.50458e-07
7.18997e-09
-1.52173e-07
6.7443e-09
-1.53773e-07
6.28908e-09
-1.55254e-07
5.82491e-09
-1.56615e-07
5.35242e-09
-1.57854e-07
4.87226e-09
-1.58969e-07
4.38506e-09
-1.59958e-07
3.89147e-09
-1.60819e-07
3.39212e-09
-1.61553e-07
2.88768e-09
-1.62156e-07
2.37881e-09
-1.62629e-07
1.86617e-09
-1.62971e-07
1.35042e-09
-1.63181e-07
8.32256e-10
-1.63259e-07
3.12344e-10
-1.63204e-07
-2.08626e-10
-1.63016e-07
-7.29962e-10
-1.62696e-07
-1.25097e-09
-1.62243e-07
-1.77094e-09
-1.61658e-07
-2.28917e-09
-1.60943e-07
-2.80495e-09
-1.60097e-07
-3.31756e-09
-1.59121e-07
-3.82628e-09
-1.58018e-07
-4.33039e-09
-1.56787e-07
-4.82914e-09
-1.55432e-07
-5.32182e-09
-1.53952e-07
-5.80768e-09
-1.52352e-07
-6.28598e-09
-1.50631e-07
-6.75599e-09
-1.48794e-07
-7.21696e-09
-1.46842e-07
-7.66815e-09
-1.44778e-07
-8.10882e-09
-1.42605e-07
-8.53821e-09
-1.40326e-07
-8.9556e-09
-1.37944e-07
-9.36023e-09
-1.35463e-07
-9.75138e-09
-1.32887e-07
-1.01283e-08
-1.30218e-07
-1.04903e-08
-1.27461e-07
-1.08366e-08
-1.24621e-07
-1.11665e-08
-1.21701e-07
-1.14793e-08
-1.18707e-07
-1.17743e-08
-1.15642e-07
-1.20508e-08
-1.12511e-07
-1.23082e-08
-1.09321e-07
-1.25458e-08
-1.06075e-07
-1.27628e-08
-1.02779e-07
-1.29588e-08
-9.94391e-08
-1.3133e-08
-9.60603e-08
-1.32849e-08
-9.26485e-08
-1.34139e-08
-8.92097e-08
-1.35194e-08
-8.57499e-08
-1.3601e-08
-8.22751e-08
-1.3658e-08
-7.87918e-08
-1.36901e-08
-7.53063e-08
-1.36967e-08
-7.1825e-08
-1.36775e-08
-6.83545e-08
-1.36321e-08
-6.49015e-08
-1.35602e-08
-6.14725e-08
-1.34614e-08
-5.80745e-08
-1.33354e-08
-5.47141e-08
-1.31822e-08
-5.13982e-08
-1.30014e-08
-4.81336e-08
-1.27931e-08
-4.49272e-08
-1.25571e-08
-4.17857e-08
-1.22935e-08
-3.87159e-08
-1.20023e-08
-3.57245e-08
-1.16838e-08
-3.28181e-08
-1.13382e-08
-3.00032e-08
-1.09659e-08
-2.72861e-08
-1.05673e-08
-2.46731e-08
-1.0143e-08
-2.217e-08
-9.6937e-09
-1.97827e-08
-9.22032e-09
-1.75166e-08
-8.7239e-09
-1.53766e-08
-8.20569e-09
-1.33676e-08
-7.66717e-09
-1.14937e-08
-7.1101e-09
-9.75868e-09
-6.53656e-09
-8.16549e-09
-5.94898e-09
-6.71652e-09
-5.35023e-09
-5.41329e-09
-4.7437e-09
-4.25636e-09
-4.13335e-09
-3.24523e-09
-3.5239e-09
-2.37815e-09
-2.92086e-09
-1.65198e-09
-2.33078e-09
-1.06196e-09
-1.7614e-09
-6.01576e-10
-1.22182e-09
-2.62258e-10
-7.22821e-10
-3.31951e-11
-2.77049e-10
9.89474e-11
1.00637e-10
1.50319e-10
3.92907e-10
1.40314e-10
5.79651e-10
9.21975e-11
6.37775e-10
3.39296e-11
5.40849e-10
2.56571e-10
1.71928e-11
-2.65815e-10
3.0411e-11
-5.22344e-10
7.91563e-12
-5.55294e-10
-7.66571e-11
-4.04808e-10
-2.454e-10
-1.03363e-10
-5.16766e-10
3.20956e-10
-9.06049e-10
8.43886e-10
-1.42575e-09
1.44461e-09
-2.08588e-09
2.10532e-09
-2.8942e-09
2.81081e-09
-3.85646e-09
3.54814e-09
-4.97661e-09
4.30633e-09
-6.257e-09
5.07607e-09
-7.69852e-09
5.84947e-09
-9.30086e-09
6.61988e-09
-1.10626e-08
7.38169e-09
-1.29812e-08
8.13015e-09
-1.50536e-08
8.86128e-09
-1.72758e-08
9.57173e-09
-1.96431e-08
1.02587e-08
-2.21505e-08
1.09198e-08
-2.47924e-08
1.15532e-08
-2.75628e-08
1.21572e-08
-3.04554e-08
1.27306e-08
-3.34638e-08
1.32722e-08
-3.65811e-08
1.37813e-08
-3.98003e-08
1.42572e-08
-4.31144e-08
1.46994e-08
-4.65162e-08
1.51076e-08
-4.99984e-08
1.54816e-08
-5.35537e-08
1.58213e-08
-5.71747e-08
1.61268e-08
-6.0854e-08
1.6398e-08
-6.45844e-08
1.66352e-08
-6.83584e-08
1.68387e-08
-7.21688e-08
1.70086e-08
-7.60084e-08
1.71454e-08
-7.98701e-08
1.72494e-08
-8.37467e-08
1.73211e-08
-8.76312e-08
1.7361e-08
-9.15169e-08
1.73695e-08
-9.53968e-08
1.73472e-08
-9.92644e-08
1.72946e-08
-1.03113e-07
1.72124e-08
-1.06936e-07
1.71011e-08
-1.10728e-07
1.69614e-08
-1.14482e-07
1.67939e-08
-1.18192e-07
1.65992e-08
-1.21852e-07
1.63781e-08