/*--------------------------------*- C++ -*----------------------------------*\
  =========                 |
  \\      /  F ield         | OpenFOAM: The Open Source CFD Toolbox
   \\    /   O peration     | Website:  https://openfoam.org
    \\  /    A nd           | Version:  9
     \\/     M anipulation  |
\*---------------------------------------------------------------------------*/
FoamFile
{
    format      ascii;
    class       volVectorField;
    location    "0.3";
    object      U;
}
// * * * * * * * * * * * * * * * * * * * * * * * * * * * * * * * * * * * * * //

dimensions      [0 1 -1 0 0 0 0];

internalField   nonuniform List<vector> 
25600
(
(1.54418e-07 -2.30813e-07 0)
(2.80009e-06 -1.80962e-06 0)
(9.05646e-06 -2.83927e-06 0)
(1.69171e-05 -3.20908e-06 0)
(2.4877e-05 -3.12395e-06 0)
(3.1992e-05 -2.74522e-06 0)
(3.76105e-05 -2.18004e-06 0)
(4.12833e-05 -1.49926e-06 0)
(4.27114e-05 -7.49308e-07 0)
(4.17017e-05 3.95731e-08 0)
(3.81366e-05 8.47011e-07 0)
(3.1954e-05 1.65888e-06 0)
(2.31326e-05 2.4651e-06 0)
(1.16818e-05 3.25836e-06 0)
(-2.36526e-06 4.03336e-06 0)
(-1.89573e-05 4.78618e-06 0)
(-3.80289e-05 5.51386e-06 0)
(-5.95039e-05 6.21414e-06 0)
(-8.32975e-05 6.88541e-06 0)
(-0.000109318 7.52646e-06 0)
(-0.00013747 8.13645e-06 0)
(-0.000167652 8.71477e-06 0)
(-0.000199762 9.26105e-06 0)
(-0.000233693 9.77507e-06 0)
(-0.000269339 1.02568e-05 0)
(-0.000306593 1.07062e-05 0)
(-0.000345346 1.11235e-05 0)
(-0.000385491 1.15089e-05 0)
(-0.000426919 1.18626e-05 0)
(-0.000469523 1.2185e-05 0)
(-0.000513196 1.24765e-05 0)
(-0.000557834 1.27374e-05 0)
(-0.000603331 1.29683e-05 0)
(-0.000649585 1.31696e-05 0)
(-0.000696493 1.33418e-05 0)
(-0.000743956 1.34854e-05 0)
(-0.000791874 1.3601e-05 0)
(-0.000840151 1.36891e-05 0)
(-0.000888691 1.37502e-05 0)
(-0.000937401 1.37849e-05 0)
(-0.000986189 1.37938e-05 0)
(-0.00103497 1.37775e-05 0)
(-0.00108364 1.37365e-05 0)
(-0.00113214 1.36714e-05 0)
(-0.00118036 1.35829e-05 0)
(-0.00122823 1.34715e-05 0)
(-0.00127567 1.33378e-05 0)
(-0.0013226 1.31825e-05 0)
(-0.00136895 1.3006e-05 0)
(-0.00141464 1.28091e-05 0)
(-0.0014596 1.25922e-05 0)
(-0.00150375 1.2356e-05 0)
(-0.00154705 1.21011e-05 0)
(-0.00158941 1.18282e-05 0)
(-0.00163077 1.15377e-05 0)
(-0.00167107 1.12303e-05 0)
(-0.00171026 1.09065e-05 0)
(-0.00174828 1.05671e-05 0)
(-0.00178506 1.02125e-05 0)
(-0.00182057 9.8434e-06 0)
(-0.00185474 9.46036e-06 0)
(-0.00188754 9.064e-06 0)
(-0.00191891 8.6549e-06 0)
(-0.0019488 8.23368e-06 0)
(-0.00197718 7.80094e-06 0)
(-0.00200402 7.35729e-06 0)
(-0.00202925 6.90335e-06 0)
(-0.00205287 6.43972e-06 0)
(-0.00207482 5.96701e-06 0)
(-0.00209508 5.48586e-06 0)
(-0.00211363 4.99687e-06 0)
(-0.00213042 4.5007e-06 0)
(-0.00214545 3.99797e-06 0)
(-0.00215868 3.48933e-06 0)
(-0.00217011 2.97541e-06 0)
(-0.0021797 2.45686e-06 0)
(-0.00218744 1.93435e-06 0)
(-0.00219333 1.40852e-06 0)
(-0.00219735 8.80052e-07 0)
(-0.0021995 3.49628e-07 0)
(-0.00219976 -1.82069e-07 0)
(-0.00219814 -7.14353e-07 0)
(-0.00219463 -1.24653e-06 0)
(-0.00218924 -1.7779e-06 0)
(-0.00218197 -2.30775e-06 0)
(-0.00217283 -2.83537e-06 0)
(-0.00216182 -3.36003e-06 0)
(-0.00214897 -3.881e-06 0)
(-0.00213428 -4.39756e-06 0)
(-0.00211777 -4.90895e-06 0)
(-0.00209946 -5.41443e-06 0)
(-0.00207938 -5.91325e-06 0)
(-0.00205754 -6.40464e-06 0)
(-0.00203399 -6.88784e-06 0)
(-0.00200874 -7.36209e-06 0)
(-0.00198183 -7.82662e-06 0)
(-0.0019533 -8.28066e-06 0)
(-0.00192319 -8.72343e-06 0)
(-0.00189154 -9.15416e-06 0)
(-0.00185838 -9.57206e-06 0)
(-0.00182378 -9.97636e-06 0)
(-0.00178778 -1.03663e-05 0)
(-0.00175043 -1.0741e-05 0)
(-0.00171178 -1.10999e-05 0)
(-0.0016719 -1.1442e-05 0)
(-0.00163085 -1.17667e-05 0)
(-0.00158868 -1.20731e-05 0)
(-0.00154547 -1.23606e-05 0)
(-0.00150129 -1.26283e-05 0)
(-0.0014562 -1.28756e-05 0)
(-0.00141027 -1.31017e-05 0)
(-0.00136359 -1.33059e-05 0)
(-0.00131623 -1.34874e-05 0)
(-0.00126828 -1.36457e-05 0)
(-0.00121981 -1.378e-05 0)
(-0.00117091 -1.38897e-05 0)
(-0.00112168 -1.39742e-05 0)
(-0.00107219 -1.40327e-05 0)
(-0.00102255 -1.40648e-05 0)
(-0.000972841 -1.40698e-05 0)
(-0.000923164 -1.40471e-05 0)
(-0.000873615 -1.39964e-05 0)
(-0.000824295 -1.3917e-05 0)
(-0.000775303 -1.38084e-05 0)
(-0.000726742 -1.36703e-05 0)
(-0.000678716 -1.35022e-05 0)
(-0.000631329 -1.33038e-05 0)
(-0.000584687 -1.30746e-05 0)
(-0.000538897 -1.28145e-05 0)
(-0.000494065 -1.25232e-05 0)
(-0.000450299 -1.22003e-05 0)
(-0.000407709 -1.18458e-05 0)
(-0.000366401 -1.14596e-05 0)
(-0.000326484 -1.10417e-05 0)
(-0.000288065 -1.0592e-05 0)
(-0.000251251 -1.01107e-05 0)
(-0.000216148 -9.59803e-06 0)
(-0.000182859 -9.05434e-06 0)
(-0.000151487 -8.47997e-06 0)
(-0.00012213 -7.87545e-06 0)
(-9.4885e-05 -7.24162e-06 0)
(-6.98428e-05 -6.57955e-06 0)
(-4.70902e-05 -5.89052e-06 0)
(-2.67075e-05 -5.1761e-06 0)
(-8.76695e-06 -4.43833e-06 0)
(6.6692e-06 -3.67987e-06 0)
(1.95507e-05 -2.90407e-06 0)
(2.98427e-05 -2.11533e-06 0)
(3.75297e-05 -1.3194e-06 0)
(4.2621e-05 -5.24155e-07 0)
(4.51576e-05 2.60023e-07 0)
(4.5222e-05 1.0187e-06 0)
(4.29531e-05 1.73106e-06 0)
(3.85656e-05 2.36621e-06 0)
(3.23795e-05 2.87761e-06 0)
(2.48616e-05 3.19531e-06 0)
(1.66768e-05 3.21534e-06 0)
(8.77712e-06 2.78171e-06 0)
(2.6399e-06 1.70078e-06 0)
(1.20789e-07 1.24959e-07 0)
(1.76247e-06 -2.91594e-06 0)
(9.35378e-06 -9.44037e-06 0)
(2.31133e-05 -1.34302e-05 0)
(3.93537e-05 -1.47324e-05 0)
(5.52318e-05 -1.3963e-05 0)
(6.87553e-05 -1.1692e-05 0)
(7.83854e-05 -8.35935e-06 0)
(8.29652e-05 -4.2938e-06 0)
(8.16638e-05 2.64113e-07 0)
(7.39032e-05 5.13973e-06 0)
(5.93005e-05 1.02047e-05 0)
(3.76232e-05 1.53632e-05 0)
(8.7562e-06 2.05428e-05 0)
(-2.7324e-05 2.56883e-05 0)
(-7.05692e-05 3.07571e-05 0)
(-0.000120874 3.57164e-05 0)
(-0.000178089 4.05404e-05 0)
(-0.000242027 4.5209e-05 0)
(-0.000312475 4.97066e-05 0)
(-0.000389196 5.4021e-05 0)
(-0.000471934 5.81428e-05 0)
(-0.000560421 6.20648e-05 0)
(-0.000654376 6.57817e-05 0)
(-0.000753513 6.92899e-05 0)
(-0.000857535 7.25866e-05 0)
(-0.000966146 7.56703e-05 0)
(-0.00107904 7.85403e-05 0)
(-0.00119592 8.11967e-05 0)
(-0.00131648 8.36401e-05 0)
(-0.00144041 8.58716e-05 0)
(-0.00156742 8.78928e-05 0)
(-0.00169721 8.97057e-05 0)
(-0.00182946 9.13126e-05 0)
(-0.0019639 9.27161e-05 0)
(-0.00210023 9.39189e-05 0)
(-0.00223816 9.49241e-05 0)
(-0.00237741 9.57349e-05 0)
(-0.0025177 9.63545e-05 0)
(-0.00265876 9.67864e-05 0)
(-0.0028003 9.70342e-05 0)
(-0.00294208 9.71015e-05 0)
(-0.00308383 9.69922e-05 0)
(-0.00322529 9.671e-05 0)
(-0.00336622 9.62589e-05 0)
(-0.00350638 9.56427e-05 0)
(-0.00364551 9.48654e-05 0)
(-0.00378341 9.39311e-05 0)
(-0.00391982 9.28438e-05 0)
(-0.00405455 9.16075e-05 0)
(-0.00418736 9.02264e-05 0)
(-0.00431806 8.87046e-05 0)
(-0.00444644 8.70461e-05 0)
(-0.0045723 8.52552e-05 0)
(-0.00469545 8.3336e-05 0)
(-0.00481571 8.12926e-05 0)
(-0.0049329 7.91294e-05 0)
(-0.00504684 7.68504e-05 0)
(-0.00515738 7.44598e-05 0)
(-0.00526434 7.19619e-05 0)
(-0.00536758 6.93609e-05 0)
(-0.00546694 6.66611e-05 0)
(-0.00556229 6.38668e-05 0)
(-0.00565349 6.09821e-05 0)
(-0.00574041 5.80114e-05 0)
(-0.00582293 5.49591e-05 0)
(-0.00590093 5.18293e-05 0)
(-0.0059743 4.86267e-05 0)
(-0.00604294 4.53554e-05 0)
(-0.00610675 4.20199e-05 0)
(-0.00616564 3.86246e-05 0)
(-0.00621953 3.51741e-05 0)
(-0.00626833 3.16728e-05 0)
(-0.00631198 2.81253e-05 0)
(-0.00635041 2.45361e-05 0)
(-0.00638357 2.09098e-05 0)
(-0.0064114 1.72512e-05 0)
(-0.00643387 1.35648e-05 0)
(-0.00645093 9.85548e-06 0)
(-0.00646255 6.12794e-06 0)
(-0.00646872 2.38701e-06 0)
(-0.00646941 -1.36242e-06 0)
(-0.00646462 -5.11546e-06 0)
(-0.00645435 -8.86715e-06 0)
(-0.00643859 -1.26125e-05 0)
(-0.00641738 -1.63465e-05 0)
(-0.00639072 -2.0064e-05 0)
(-0.00635865 -2.37599e-05 0)
(-0.00632119 -2.7429e-05 0)
(-0.00627841 -3.10662e-05 0)
(-0.00623033 -3.46661e-05 0)
(-0.00617704 -3.82236e-05 0)
(-0.00611858 -4.17332e-05 0)
(-0.00605504 -4.51897e-05 0)
(-0.00598649 -4.85876e-05 0)
(-0.00591304 -5.19216e-05 0)
(-0.00583477 -5.51863e-05 0)
(-0.00575179 -5.83762e-05 0)
(-0.00566421 -6.1486e-05 0)
(-0.00557216 -6.45101e-05 0)
(-0.00547577 -6.74431e-05 0)
(-0.00537517 -7.02796e-05 0)
(-0.00527051 -7.30142e-05 0)
(-0.00516194 -7.56414e-05 0)
(-0.00504963 -7.81559e-05 0)
(-0.00493373 -8.05524e-05 0)
(-0.00481444 -8.28256e-05 0)
(-0.00469193 -8.49701e-05 0)
(-0.00456639 -8.69808e-05 0)
(-0.00443803 -8.88525e-05 0)
(-0.00430704 -9.05803e-05 0)
(-0.00417365 -9.21591e-05 0)
(-0.00403807 -9.35839e-05 0)
(-0.00390054 -9.48502e-05 0)
(-0.00376128 -9.59531e-05 0)
(-0.00362054 -9.68881e-05 0)
(-0.00347857 -9.76508e-05 0)
(-0.00333561 -9.82369e-05 0)
(-0.00319194 -9.86423e-05 0)
(-0.0030478 -9.88629e-05 0)
(-0.00290349 -9.8895e-05 0)
(-0.00275926 -9.87351e-05 0)
(-0.00261541 -9.83797e-05 0)
(-0.00247222 -9.78256e-05 0)
(-0.00232997 -9.70698e-05 0)
(-0.00218897 -9.61098e-05 0)
(-0.0020495 -9.49431e-05 0)
(-0.00191187 -9.35674e-05 0)
(-0.00177638 -9.1981e-05 0)
(-0.00164334 -9.01824e-05 0)
(-0.00151305 -8.81707e-05 0)
(-0.00138581 -8.59448e-05 0)
(-0.00126194 -8.35047e-05 0)
(-0.00114174 -8.08505e-05 0)
(-0.00102551 -7.79831e-05 0)
(-0.000913559 -7.49039e-05 0)
(-0.000806184 -7.16148e-05 0)
(-0.00070368 -6.8119e-05 0)
(-0.000606333 -6.44204e-05 0)
(-0.000514424 -6.05239e-05 0)
(-0.000428224 -5.64355e-05 0)
(-0.000347993 -5.21632e-05 0)
(-0.000273975 -4.77167e-05 0)
(-0.000206397 -4.3108e-05 0)
(-0.000145466 -3.83518e-05 0)
(-9.13614e-05 -3.34661e-05 0)
(-4.42312e-05 -2.84736e-05 0)
(-4.1847e-06 -2.34025e-05 0)
(2.87169e-05 -1.8288e-05 0)
(5.44719e-05 -1.31746e-05 0)
(7.31531e-05 -8.12001e-06 0)
(8.4927e-05 -3.19816e-06 0)
(9.00774e-05 1.49427e-06 0)
(8.90388e-05 5.82869e-06 0)
(8.2439e-05 9.63099e-06 0)
(7.11556e-05 1.26636e-05 0)
(5.63818e-05 1.46056e-05 0)
(3.96747e-05 1.50348e-05 0)
(2.30156e-05 1.34151e-05 0)
(9.17791e-06 9.18962e-06 0)
(1.69198e-06 2.64765e-06 0)
(2.81857e-06 -9.11162e-06 0)
(1.33907e-05 -2.31822e-05 0)
(3.10468e-05 -3.10792e-05 0)
(5.08098e-05 -3.31343e-05 0)
(6.90776e-05 -3.0448e-05 0)
(8.32892e-05 -2.41137e-05 0)
(9.13619e-05 -1.50589e-05 0)
(9.16544e-05 -4.02843e-06 0)
(8.29347e-05 8.39743e-06 0)
(6.43088e-05 2.17711e-05 0)
(3.51552e-05 3.57483e-05 0)
(-4.92711e-06 5.00626e-05 0)
(-5.61614e-05 6.45068e-05 0)
(-0.000118628 7.89187e-05 0)
(-0.000192291 9.31709e-05 0)
(-0.000277023 0.000107162 0)
(-0.000372622 0.000120813 0)
(-0.000478823 0.000134059 0)
(-0.000595314 0.000146851 0)
(-0.000721741 0.000159148 0)
(-0.00085772 0.000170919 0)
(-0.00100284 0.000182138 0)
(-0.00115667 0.000192789 0)
(-0.00131877 0.000202855 0)
(-0.00148867 0.000212327 0)
(-0.00166592 0.000221198 0)
(-0.00185002 0.000229464 0)
(-0.00204051 0.000237123 0)
(-0.00223691 0.000244174 0)
(-0.00243873 0.00025062 0)
(-0.00264548 0.000256463 0)
(-0.00285671 0.000261708 0)
(-0.00307191 0.000266361 0)
(-0.00329063 0.000270428 0)
(-0.0035124 0.000273916 0)
(-0.00373675 0.000276833 0)
(-0.00396323 0.000279188 0)
(-0.00419138 0.000280989 0)
(-0.00442077 0.000282246 0)
(-0.00465095 0.000282968 0)
(-0.0048815 0.000283167 0)
(-0.00511201 0.000282852 0)
(-0.00534205 0.000282034 0)
(-0.00557122 0.000280725 0)
(-0.00579913 0.000278935 0)
(-0.00602539 0.000276675 0)
(-0.00624963 0.000273957 0)
(-0.00647148 0.000270793 0)
(-0.00669057 0.000267194 0)
(-0.00690656 0.000263173 0)
(-0.00711912 0.00025874 0)
(-0.0073279 0.000253908 0)
(-0.00753259 0.000248689 0)
(-0.00773288 0.000243095 0)
(-0.00792847 0.000237138 0)
(-0.00811906 0.00023083 0)
(-0.00830438 0.000224184 0)
(-0.00848415 0.000217211 0)
(-0.00865811 0.000209925 0)
(-0.00882601 0.000202337 0)
(-0.00898762 0.000194459 0)
(-0.00914269 0.000186305 0)
(-0.00929101 0.000177887 0)
(-0.00943236 0.000169217 0)
(-0.00956655 0.000160309 0)
(-0.00969339 0.000151174 0)
(-0.0098127 0.000141826 0)
(-0.0099243 0.000132277 0)
(-0.010028 0.00012254 0)
(-0.0101238 0.000112629 0)
(-0.0102114 0.000102557 0)
(-0.0102907 9.23362e-05 0)
(-0.0103616 8.19807e-05 0)
(-0.0104241 7.15037e-05 0)
(-0.010478 6.09189e-05 0)
(-0.0105232 5.02398e-05 0)
(-0.0105596 3.94802e-05 0)
(-0.0105873 2.86541e-05 0)
(-0.0106061 1.77754e-05 0)
(-0.0106161 6.85822e-06 0)
(-0.0106171 -4.08309e-06 0)
(-0.0106092 -1.50342e-05 0)
(-0.0105924 -2.59805e-05 0)
(-0.0105667 -3.69075e-05 0)
(-0.0105321 -4.78004e-05 0)
(-0.0104887 -5.86442e-05 0)
(-0.0104364 -6.9424e-05 0)
(-0.0103754 -8.01247e-05 0)
(-0.0103057 -9.07311e-05 0)
(-0.0102275 -0.000101228 0)
(-0.0101407 -0.000111599 0)
(-0.0100456 -0.00012183 0)
(-0.00994215 -0.000131905 0)
(-0.00983061 -0.000141808 0)
(-0.00971109 -0.000151523 0)
(-0.00958376 -0.000161035 0)
(-0.00944877 -0.000170328 0)
(-0.00930632 -0.000179386 0)
(-0.0091566 -0.000188193 0)
(-0.00899984 -0.000196733 0)
(-0.00883624 -0.000204992 0)
(-0.00866605 -0.000212952 0)
(-0.00848952 -0.000220598 0)
(-0.00830691 -0.000227915 0)
(-0.00811849 -0.000234888 0)
(-0.00792456 -0.0002415 0)
(-0.00772541 -0.000247737 0)
(-0.00752135 -0.000253583 0)
(-0.0073127 -0.000259025 0)
(-0.00709981 -0.000264047 0)
(-0.00688302 -0.000268635 0)
(-0.00666268 -0.000272774 0)
(-0.00643917 -0.000276452 0)
(-0.00621287 -0.000279655 0)
(-0.00598416 -0.00028237 0)
(-0.00575346 -0.000284583 0)
(-0.00552116 -0.000286284 0)
(-0.00528769 -0.00028746 0)
(-0.00505348 -0.000288101 0)
(-0.00481897 -0.000288194 0)
(-0.0045846 -0.000287731 0)
(-0.00435083 -0.000286702 0)
(-0.00411811 -0.000285098 0)
(-0.00388691 -0.000282911 0)
(-0.00365772 -0.000280134 0)
(-0.00343099 -0.000276761 0)
(-0.00320722 -0.000272785 0)
(-0.00298688 -0.000268203 0)
(-0.00277048 -0.00026301 0)
(-0.00255849 -0.000257205 0)
(-0.00235141 -0.000250788 0)
(-0.00214972 -0.000243757 0)
(-0.00195391 -0.000236115 0)
(-0.00176447 -0.000227865 0)
(-0.00158187 -0.000219015 0)
(-0.00140658 -0.00020957 0)
(-0.00123908 -0.000199543 0)
(-0.0010798 -0.000188946 0)
(-0.00092918 -0.000177796 0)
(-0.000787648 -0.000166115 0)
(-0.000655597 -0.000153927 0)
(-0.0005334 -0.000141265 0)
(-0.0004214 -0.000128167 0)
(-0.000319899 -0.00011468 0)
(-0.000229159 -0.000100861 0)
(-0.000149385 -8.67799e-05 0)
(-8.07169e-05 -7.25233e-05 0)
(-2.32159e-05 -5.81979e-05 0)
(2.3153e-05 -4.39364e-05 0)
(5.85434e-05 -2.99053e-05 0)
(8.32545e-05 -1.63152e-05 0)
(9.77628e-05 -3.43352e-06 0)
(0.000102763 8.39737e-06 0)
(9.92189e-05 1.87368e-05 0)
(8.84234e-05 2.7017e-05 0)
(7.20652e-05 3.25165e-05 0)
(5.22504e-05 3.43516e-05 0)
(3.15241e-05 3.15063e-05 0)
(1.3415e-05 2.30128e-05 0)
(2.77518e-06 8.77623e-06 0)
(3.20322e-06 -1.69465e-05 0)
(1.47405e-05 -3.94261e-05 0)
(3.31902e-05 -5.08517e-05 0)
(5.26886e-05 -5.25983e-05 0)
(6.91299e-05 -4.64055e-05 0)
(7.96024e-05 -3.39471e-05 0)
(8.16934e-05 -1.66825e-05 0)
(7.3453e-05 4.1758e-06 0)
(5.33743e-05 2.76478e-05 0)
(2.033e-05 5.29509e-05 0)
(-2.6489e-05 7.94635e-05 0)
(-8.76265e-05 0.000106692 0)
(-0.000163405 0.000134245 0)
(-0.000253967 0.000161809 0)
(-0.0003593 0.000189133 0)
(-0.000479272 0.000216017 0)
(-0.000613647 0.0002423 0)
(-0.000762107 0.00026785 0)
(-0.000924261 0.000292565 0)
(-0.00109967 0.000316359 0)
(-0.00128783 0.000339167 0)
(-0.00148822 0.000360934 0)
(-0.00170029 0.00038162 0)
(-0.00192344 0.000401192 0)
(-0.00215707 0.000419626 0)
(-0.00240058 0.000436906 0)
(-0.00265332 0.00045302 0)
(-0.00291466 0.000467961 0)
(-0.00318396 0.000481727 0)
(-0.00346058 0.000494318 0)
(-0.00374387 0.000505739 0)
(-0.0040332 0.000515997 0)
(-0.0043279 0.0005251 0)
(-0.00462736 0.000533061 0)
(-0.00493094 0.00053989 0)
(-0.00523802 0.000545604 0)
(-0.00554796 0.000550216 0)
(-0.00586018 0.000553745 0)
(-0.00617406 0.000556207 0)
(-0.00648902 0.000557621 0)
(-0.00680446 0.000558006 0)
(-0.00711983 0.000557383 0)
(-0.00743455 0.000555771 0)
(-0.00774808 0.000553192 0)
(-0.00805988 0.000549667 0)
(-0.00836942 0.000545219 0)
(-0.00867619 0.000539868 0)
(-0.00897969 0.000533639 0)
(-0.00927943 0.000526552 0)
(-0.00957492 0.000518632 0)
(-0.0098657 0.000509902 0)
(-0.0101513 0.000500385 0)
(-0.0104314 0.000490104 0)
(-0.0107054 0.000479083 0)
(-0.0109729 0.000467345 0)
(-0.0112337 0.000454916 0)
(-0.0114872 0.000441818 0)
(-0.0117331 0.000428077 0)
(-0.0119711 0.000413715 0)
(-0.0122008 0.000398758 0)
(-0.0124219 0.00038323 0)
(-0.012634 0.000367156 0)
(-0.0128369 0.00035056 0)
(-0.0130303 0.000333468 0)
(-0.0132138 0.000315904 0)
(-0.0133873 0.000297894 0)
(-0.0135505 0.000279462 0)
(-0.0137032 0.000260635 0)
(-0.013845 0.000241438 0)
(-0.013976 0.000221896 0)
(-0.0140957 0.000202036 0)
(-0.0142042 0.000181884 0)
(-0.0143012 0.000161466 0)
(-0.0143865 0.00014081 0)
(-0.0144601 0.00011994 0)
(-0.0145219 9.8886e-05 0)
(-0.0145716 7.76735e-05 0)
(-0.0146094 5.63305e-05 0)
(-0.0146351 3.48847e-05 0)
(-0.0146485 1.33641e-05 0)
(-0.0146499 -8.20325e-06 0)
(-0.014639 -2.97887e-05 0)
(-0.0146159 -5.13638e-05 0)
(-0.0145806 -7.28994e-05 0)
(-0.0145332 -9.43664e-05 0)
(-0.0144736 -0.000115735 0)
(-0.014402 -0.000136977 0)
(-0.0143185 -0.000158061 0)
(-0.014223 -0.000178958 0)
(-0.0141159 -0.000199637 0)
(-0.0139971 -0.000220067 0)
(-0.0138669 -0.00024022 0)
(-0.0137253 -0.000260063 0)
(-0.0135727 -0.000279565 0)
(-0.0134091 -0.000298697 0)
(-0.0132349 -0.000317426 0)
(-0.0130502 -0.000335722 0)
(-0.0128553 -0.000353554 0)
(-0.0126505 -0.000370891 0)
(-0.012436 -0.000387701 0)
(-0.0122122 -0.000403954 0)
(-0.0119794 -0.000419618 0)
(-0.011738 -0.000434664 0)
(-0.0114882 -0.00044906 0)
(-0.0112306 -0.000462777 0)
(-0.0109653 -0.000475783 0)
(-0.010693 -0.00048805 0)
(-0.010414 -0.000499549 0)
(-0.0101287 -0.000510249 0)
(-0.00983759 -0.000520124 0)
(-0.00954118 -0.000529144 0)
(-0.00923993 -0.000537283 0)
(-0.00893434 -0.000544514 0)
(-0.00862494 -0.00055081 0)
(-0.00831226 -0.000556148 0)
(-0.00799684 -0.000560501 0)
(-0.00767925 -0.000563847 0)
(-0.00736005 -0.000566164 0)
(-0.00703983 -0.000567429 0)
(-0.00671919 -0.000567622 0)
(-0.00639872 -0.000566724 0)
(-0.00607904 -0.000564717 0)
(-0.00576079 -0.000561585 0)
(-0.00544458 -0.000557312 0)
(-0.00513107 -0.000551886 0)
(-0.00482089 -0.000545294 0)
(-0.00451469 -0.000537527 0)
(-0.00421314 -0.000528577 0)
(-0.00391688 -0.000518439 0)
(-0.00362659 -0.000507109 0)
(-0.0033429 -0.000494586 0)
(-0.00306648 -0.000480875 0)
(-0.00279799 -0.000465979 0)
(-0.00253807 -0.000449909 0)
(-0.00228734 -0.000432678 0)
(-0.00204645 -0.000414304 0)
(-0.00181601 -0.000394811 0)
(-0.0015966 -0.000374227 0)
(-0.0013888 -0.00035259 0)
(-0.00119316 -0.000329945 0)
(-0.00101019 -0.000306346 0)
(-0.000840384 -0.000281858 0)
(-0.000684165 -0.000256563 0)
(-0.000541916 -0.000230556 0)
(-0.000413959 -0.000203954 0)
(-0.000300538 -0.0001769 0)
(-0.000201807 -0.000149566 0)
(-0.000117814 -0.000122163 0)
(-4.84798e-05 -9.49507e-05 0)
(6.42959e-06 -6.82476e-05 0)
(4.73315e-05 -4.24507e-05 0)
(7.48641e-05 -1.80536e-05 0)
(8.99274e-05 4.32795e-06 0)
(9.37324e-05 2.39265e-05 0)
(8.78575e-05 3.9789e-05 0)
(7.43091e-05 5.07489e-05 0)
(5.5531e-05 5.54211e-05 0)
(3.4429e-05 5.22501e-05 0)
(1.50598e-05 3.96869e-05 0)
(3.21402e-06 1.66704e-05 0)
(3.13219e-06 -2.49206e-05 0)
(1.40355e-05 -5.53644e-05 0)
(3.06507e-05 -6.91951e-05 0)
(4.67393e-05 -6.90752e-05 0)
(5.7917e-05 -5.75196e-05 0)
(6.10517e-05 -3.68302e-05 0)
(5.35347e-05 -9.01502e-06 0)
(3.32308e-05 2.42328e-05 0)
(-1.54114e-06 6.15133e-05 0)
(-5.20657e-05 0.000101682 0)
(-0.000119287 0.000143808 0)
(-0.000203857 0.000187139 0)
(-0.000306178 0.000231062 0)
(-0.000426445 0.000275084 0)
(-0.000564674 0.000318801 0)
(-0.000720731 0.000361887 0)
(-0.000894361 0.000404075 0)
(-0.0010852 0.00044515 0)
(-0.00129281 0.000484934 0)
(-0.00151666 0.000523285 0)
(-0.00175617 0.000560088 0)
(-0.00201072 0.000595249 0)
(-0.00227963 0.000628696 0)
(-0.00256221 0.000660371 0)
(-0.00285772 0.000690229 0)
(-0.00316541 0.000718237 0)
(-0.00348452 0.000744373 0)
(-0.00381427 0.000768622 0)
(-0.00415387 0.000790976 0)
(-0.00450253 0.000811434 0)
(-0.00485946 0.000829999 0)
(-0.00522386 0.000846679 0)
(-0.00559495 0.000861488 0)
(-0.00597193 0.00087444 0)
(-0.00635401 0.000885554 0)
(-0.00674043 0.000894852 0)
(-0.00713042 0.000902358 0)
(-0.0075232 0.000908097 0)
(-0.00791805 0.000912096 0)
(-0.00831421 0.000914385 0)
(-0.00871096 0.000914995 0)
(-0.00910759 0.000913956 0)
(-0.00950339 0.000911301 0)
(-0.00989768 0.000907065 0)
(-0.0102898 0.000901281 0)
(-0.010679 0.000893984 0)
(-0.0110648 0.000885211 0)
(-0.0114464 0.000874997 0)
(-0.0118233 0.000863379 0)
(-0.0121949 0.000850396 0)
(-0.0125605 0.000836083 0)
(-0.0129196 0.000820479 0)
(-0.0132718 0.000803623 0)
(-0.0136163 0.000785553 0)
(-0.0139527 0.000766308 0)
(-0.0142806 0.000745926 0)
(-0.0145993 0.000724448 0)
(-0.0149086 0.000701913 0)
(-0.0152078 0.00067836 0)
(-0.0154966 0.00065383 0)
(-0.0157745 0.000628363 0)
(-0.0160412 0.000601999 0)
(-0.0162963 0.000574778 0)
(-0.0165394 0.000546742 0)
(-0.0167701 0.000517933 0)
(-0.0169882 0.00048839 0)
(-0.0171933 0.000458156 0)
(-0.0173852 0.000427273 0)
(-0.0175635 0.000395782 0)
(-0.0177281 0.000363727 0)
(-0.0178786 0.00033115 0)
(-0.0180148 0.000298094 0)
(-0.0181367 0.000264603 0)
(-0.0182439 0.00023072 0)
(-0.0183363 0.000196489 0)
(-0.0184139 0.000161956 0)
(-0.0184764 0.000127164 0)
(-0.0185237 9.2159e-05 0)
(-0.0185558 5.69867e-05 0)
(-0.0185727 2.1693e-05 0)
(-0.0185742 -1.36757e-05 0)
(-0.0185604 -4.90727e-05 0)
(-0.0185312 -8.44509e-05 0)
(-0.0184867 -0.000119763 0)
(-0.018427 -0.00015496 0)
(-0.018352 -0.000189995 0)
(-0.0182618 -0.000224819 0)
(-0.0181567 -0.000259383 0)
(-0.0180366 -0.000293637 0)
(-0.0179018 -0.000327532 0)
(-0.0177523 -0.000361019 0)
(-0.0175885 -0.000394046 0)
(-0.0174105 -0.000426564 0)
(-0.0172185 -0.000458523 0)
(-0.0170128 -0.000489871 0)
(-0.0167937 -0.000520558 0)
(-0.0165614 -0.000550532 0)
(-0.0163164 -0.000579744 0)
(-0.0160588 -0.000608143 0)
(-0.0157892 -0.000635677 0)
(-0.0155079 -0.000662296 0)
(-0.0152153 -0.00068795 0)
(-0.0149117 -0.000712588 0)
(-0.0145978 -0.000736161 0)
(-0.0142739 -0.000758619 0)
(-0.0139406 -0.000779914 0)
(-0.0135983 -0.000799997 0)
(-0.0132476 -0.000818821 0)
(-0.0128891 -0.000836338 0)
(-0.0125232 -0.000852502 0)
(-0.0121507 -0.000867268 0)
(-0.0117721 -0.000880592 0)
(-0.0113881 -0.00089243 0)
(-0.0109993 -0.000902741 0)
(-0.0106063 -0.000911483 0)
(-0.0102099 -0.000918617 0)
(-0.00981076 -0.000924106 0)
(-0.00940959 -0.000927913 0)
(-0.00900711 -0.000930004 0)
(-0.00860407 -0.000930346 0)
(-0.00820123 -0.000928909 0)
(-0.00779935 -0.000925664 0)
(-0.00739922 -0.000920586 0)
(-0.00700161 -0.000913651 0)
(-0.00660732 -0.000904839 0)
(-0.00621715 -0.000894131 0)
(-0.00583192 -0.000881514 0)
(-0.00545244 -0.000866977 0)
(-0.00507951 -0.000850512 0)
(-0.00471395 -0.000832116 0)
(-0.00435658 -0.000811791 0)
(-0.00400821 -0.000789542 0)
(-0.00366963 -0.000765384 0)
(-0.00334164 -0.000739332 0)
(-0.00302501 -0.000711414 0)
(-0.00272053 -0.000681661 0)
(-0.00242893 -0.000650116 0)
(-0.00215093 -0.000616831 0)
(-0.00188722 -0.000581871 0)
(-0.00163848 -0.000545312 0)
(-0.0014053 -0.00050725 0)
(-0.00118827 -0.000467798 0)
(-0.000987899 -0.00042709 0)
(-0.000804626 -0.000385289 0)
(-0.000638819 -0.000342592 0)
(-0.000490748 -0.000299232 0)
(-0.000360575 -0.000255493 0)
(-0.000248332 -0.000211716 0)
(-0.000153896 -0.000168317 0)
(-7.6966e-05 -0.000125798 0)
(-1.7029e-05 -8.47753e-05 0)
(2.66759e-05 -4.60005e-05 0)
(5.51977e-05 -1.03932e-05 0)
(6.99178e-05 2.09261e-05 0)
(7.26008e-05 4.66001e-05 0)
(6.5448e-05 6.50049e-05 0)
(5.11095e-05 7.42378e-05 0)
(3.27279e-05 7.21515e-05 0)
(1.46795e-05 5.64621e-05 0)
(3.20256e-06 2.48693e-05 0)
(2.771e-06 -3.20903e-05 0)
(1.18506e-05 -6.9035e-05 0)
(2.45223e-05 -8.3594e-05 0)
(3.46304e-05 -7.97073e-05 0)
(3.77283e-05 -6.07182e-05 0)
(3.05702e-05 -2.95847e-05 0)
(1.04496e-05 1.11291e-05 0)
(-2.48631e-05 5.92459e-05 0)
(-7.71452e-05 0.000112941 0)
(-0.000147775 0.000170695 0)
(-0.000237781 0.000231256 0)
(-0.000347888 0.000293587 0)
(-0.000478556 0.000356839 0)
(-0.000630015 0.000420311 0)
(-0.000802302 0.000483428 0)
(-0.000995286 0.000545714 0)
(-0.00120869 0.000606781 0)
(-0.00144213 0.000666308 0)
(-0.00169509 0.000724031 0)
(-0.00196701 0.000779733 0)
(-0.00225722 0.00083324 0)
(-0.00256501 0.000884407 0)
(-0.00288961 0.000933121 0)
(-0.00323022 0.000979289 0)
(-0.003586 0.00102284 0)
(-0.00395607 0.00106372 0)
(-0.00433956 0.00110189 0)
(-0.00473555 0.00113732 0)
(-0.00514313 0.00117 0)
(-0.00556136 0.00119992 0)
(-0.00598933 0.00122709 0)
(-0.0064261 0.0012515 0)
(-0.00687073 0.00127318 0)
(-0.0073223 0.00129214 0)
(-0.00777989 0.00130841 0)
(-0.00824257 0.00132202 0)
(-0.00870944 0.001333 0)
(-0.00917961 0.00134139 0)
(-0.00965217 0.00134723 0)
(-0.0101263 0.00135055 0)
(-0.010601 0.0013514 0)
(-0.0110756 0.00134982 0)
(-0.0115491 0.00134587 0)
(-0.0120208 0.00133959 0)
(-0.0124899 0.00133103 0)
(-0.0129556 0.00132024 0)
(-0.013417 0.00130727 0)
(-0.0138735 0.00129218 0)
(-0.0143243 0.00127502 0)
(-0.0147688 0.00125584 0)
(-0.0152061 0.0012347 0)
(-0.0156356 0.00121165 0)
(-0.0160568 0.00118675 0)
(-0.0164688 0.00116006 0)
(-0.0168712 0.00113164 0)
(-0.0172633 0.00110154 0)
(-0.0176446 0.00106981 0)
(-0.0180144 0.00103653 0)
(-0.0183722 0.00100174 0)
(-0.0187176 0.000965501 0)
(-0.0190499 0.000927882 0)
(-0.0193689 0.000888937 0)
(-0.0196739 0.000848727 0)
(-0.0199646 0.000807312 0)
(-0.0202405 0.000764753 0)
(-0.0205012 0.000721112 0)
(-0.0207465 0.000676448 0)
(-0.0209759 0.000630826 0)
(-0.021189 0.000584307 0)
(-0.0213857 0.000536954 0)
(-0.0215656 0.00048883 0)
(-0.0217285 0.000439999 0)
(-0.0218741 0.000390526 0)
(-0.0220022 0.000340476 0)
(-0.0221127 0.000289913 0)
(-0.0222053 0.000238903 0)
(-0.0222799 0.000187514 0)
(-0.0223364 0.000135811 0)
(-0.0223747 8.38633e-05 0)
(-0.0223947 3.17377e-05 0)
(-0.0223964 -2.04969e-05 0)
(-0.0223797 -7.27711e-05 0)
(-0.0223447 -0.000125015 0)
(-0.0222913 -0.000177159 0)
(-0.0222197 -0.000229132 0)
(-0.0221299 -0.000280862 0)
(-0.022022 -0.000332277 0)
(-0.0218961 -0.000383306 0)
(-0.0217524 -0.000433876 0)
(-0.0215911 -0.000483912 0)
(-0.0214123 -0.000533343 0)
(-0.0212162 -0.000582093 0)
(-0.0210033 -0.000630088 0)
(-0.0207736 -0.000677255 0)
(-0.0205276 -0.000723517 0)
(-0.0202655 -0.000768802 0)
(-0.0199877 -0.000813033 0)
(-0.0196946 -0.000856135 0)
(-0.0193867 -0.000898035 0)
(-0.0190643 -0.000938657 0)
(-0.0187279 -0.000977927 0)
(-0.018378 -0.00101577 0)
(-0.0180151 -0.00105212 0)
(-0.0176397 -0.00108689 0)
(-0.0172525 -0.00112001 0)
(-0.0168539 -0.00115142 0)
(-0.0164447 -0.00118104 0)
(-0.0160254 -0.0012088 0)
(-0.0155968 -0.00123464 0)
(-0.0151594 -0.00125848 0)
(-0.0147141 -0.00128026 0)
(-0.0142615 -0.00129992 0)
(-0.0138024 -0.00131739 0)
(-0.0133375 -0.00133261 0)
(-0.0128677 -0.00134551 0)
(-0.0123938 -0.00135606 0)
(-0.0119166 -0.00136418 0)
(-0.0114369 -0.00136983 0)
(-0.0109556 -0.00137296 0)
(-0.0104736 -0.00137351 0)
(-0.00999182 -0.00137146 0)
(-0.00951112 -0.00136675 0)
(-0.00903245 -0.00135935 0)
(-0.00855673 -0.00134923 0)
(-0.0080849 -0.00133635 0)
(-0.00761791 -0.0013207 0)
(-0.00715672 -0.00130226 0)
(-0.00670227 -0.00128101 0)
(-0.00625554 -0.00125694 0)
(-0.00581748 -0.00123005 0)
(-0.00538904 -0.00120035 0)
(-0.00497117 -0.00116784 0)
(-0.00456481 -0.00113256 0)
(-0.00417089 -0.00109453 0)
(-0.00379032 -0.0010538 0)
(-0.00342399 -0.00101041 0)
(-0.00307277 -0.000964427 0)
(-0.00273749 -0.000915943 0)
(-0.00241895 -0.000865052 0)
(-0.00211791 -0.000811876 0)
(-0.00183507 -0.000756559 0)
(-0.00157108 -0.000699272 0)
(-0.00132652 -0.000640219 0)
(-0.00110188 -0.000579646 0)
(-0.000897572 -0.000517841 0)
(-0.000713883 -0.000455151 0)
(-0.000550981 -0.000391988 0)
(-0.000408881 -0.000328847 0)
(-0.000287431 -0.000266319 0)
(-0.000186276 -0.000205116 0)
(-0.000104835 -0.000146091 0)
(-4.22641e-05 -9.02749e-05 0)
(2.584e-06 -3.8904e-05 0)
(3.11963e-05 6.537e-06 0)
(4.54468e-05 4.42795e-05 0)
(4.76456e-05 7.22359e-05 0)
(4.05551e-05 8.79735e-05 0)
(2.74517e-05 8.87207e-05 0)
(1.28201e-05 7.13931e-05 0)
(2.89867e-06 3.24378e-05 0)
(2.22705e-06 -3.78145e-05 0)
(8.62494e-06 -7.89273e-05 0)
(1.57247e-05 -9.20049e-05 0)
(1.7802e-05 -8.21261e-05 0)
(1.05369e-05 -5.34396e-05 0)
(-9.33229e-06 -9.55214e-06 0)
(-4.45287e-05 4.64228e-05 0)
(-9.7304e-05 0.000111831 0)
(-0.000169469 0.000184425 0)
(-0.00026244 0.000262315 0)
(-0.00037729 0.000343916 0)
(-0.000514778 0.000427905 0)
(-0.000675397 0.000513178 0)
(-0.000859396 0.000598816 0)
(-0.00106682 0.000684054 0)
(-0.00129754 0.000768255 0)
(-0.00155125 0.000850892 0)
(-0.00182754 0.000931523 0)
(-0.00212586 0.00100978 0)
(-0.00244559 0.00108538 0)
(-0.00278598 0.00115805 0)
(-0.00314627 0.0012276 0)
(-0.00352559 0.00129387 0)
(-0.00392305 0.00135671 0)
(-0.00433771 0.00141603 0)
(-0.0047686 0.00147175 0)
(-0.00521471 0.00152379 0)
(-0.00567503 0.00157213 0)
(-0.00614851 0.00161673 0)
(-0.00663412 0.00165758 0)
(-0.0071308 0.00169467 0)
(-0.00763748 0.00172802 0)
(-0.00815311 0.00175763 0)
(-0.00867663 0.00178353 0)
(-0.00920698 0.00180576 0)
(-0.00974312 0.00182434 0)
(-0.010284 0.00183932 0)
(-0.0108286 0.00185075 0)
(-0.0113759 0.00185868 0)
(-0.0119249 0.00186316 0)
(-0.0124747 0.00186425 0)
(-0.0130241 0.001862 0)
(-0.0135723 0.00185649 0)
(-0.0141184 0.00184778 0)
(-0.0146614 0.00183592 0)
(-0.0152003 0.00182101 0)
(-0.0157344 0.00180309 0)
(-0.0162627 0.00178225 0)
(-0.0167845 0.00175856 0)
(-0.0172988 0.00173209 0)
(-0.0178049 0.00170291 0)
(-0.018302 0.00167111 0)
(-0.0187893 0.00163676 0)
(-0.0192661 0.00159994 0)
(-0.0197317 0.00156072 0)
(-0.0201854 0.00151919 0)
(-0.0206265 0.00147543 0)
(-0.0210544 0.00142951 0)
(-0.0214684 0.00138151 0)
(-0.021868 0.00133152 0)
(-0.0222525 0.00127962 0)
(-0.0226215 0.0012259 0)
(-0.0229744 0.00117042 0)
(-0.0233106 0.00111328 0)
(-0.0236298 0.00105457 0)
(-0.0239314 0.000994361 0)
(-0.0242151 0.000932744 0)
(-0.0244804 0.000869803 0)
(-0.024727 0.000805626 0)
(-0.0249544 0.000740299 0)
(-0.0251625 0.000673909 0)
(-0.0253508 0.000606546 0)
(-0.0255191 0.000538297 0)
(-0.0256672 0.000469253 0)
(-0.0257949 0.000399504 0)
(-0.0259019 0.000329141 0)
(-0.0259881 0.000258255 0)
(-0.0260533 0.000186939 0)
(-0.0260975 0.000115287 0)
(-0.0261205 4.33923e-05 0)
(-0.0261223 -2.865e-05 0)
(-0.0261029 -0.000100744 0)
(-0.0260622 -0.000172794 0)
(-0.0260004 -0.000244703 0)
(-0.0259174 -0.000316373 0)
(-0.0258133 -0.000387705 0)