/*--------------------------------*- C++ -*----------------------------------*\
  =========                 |
  \\      /  F ield         | OpenFOAM: The Open Source CFD Toolbox
   \\    /   O peration     | Website:  https://openfoam.org
    \\  /    A nd           | Version:  7
     \\/     M anipulation  |
\*---------------------------------------------------------------------------*/
FoamFile
{
    version     2.0;
    format      ascii;
    class       surfaceScalarField;
    location    "1.3";
    object      phi;
}
// * * * * * * * * * * * * * * * * * * * * * * * * * * * * * * * * * * * * * //

dimensions      [0 3 -1 0 0 0 0];

internalField   nonuniform List<scalar> 
21785
(
-1.74263e-13
1.76377e-13
-8.44988e-14
6.619e-13
-2.49193e-13
8.4272e-13
-4.24611e-13
8.22475e-13
-4.95965e-13
7.20185e-13
-4.4723e-13
6.10662e-13
-3.5126e-13
5.55096e-13
1.23686e-12
6.33683e-13
2.57753e-12
2.14888e-13
3.27706e-12
-1.64407e-13
4.33076e-12
-4.47163e-13
5.61889e-12
-6.58069e-13
7.07744e-12
-8.13783e-13
8.64681e-12
-9.06777e-13
1.02187e-11
-9.06626e-13
1.31648e-11
-8.51591e-13
1.56257e-11
-1.18594e-12
1.74717e-11
-1.36888e-12
1.96248e-11
-1.48358e-12
2.19689e-11
-1.62135e-12
2.43752e-11
-1.77497e-12
2.67619e-11
-1.88788e-12
2.90895e-11
-1.90982e-12
3.13156e-11
-1.81363e-12
3.44735e-11
-1.63324e-12
3.74141e-11
-1.72286e-12
3.96735e-11
-1.8414e-12
4.20199e-11
-1.91544e-12
4.43572e-11
-1.93254e-12
4.66462e-11
-1.90052e-12
4.88479e-11
-1.82211e-12
5.09057e-11
-1.68374e-12
5.35586e-11
-1.4985e-12
5.59346e-11
-1.51359e-12
5.77533e-11
-1.52615e-12
5.95564e-11
-1.50067e-12
6.12782e-11
-1.4363e-12
6.2889e-11
-1.34211e-12
6.43641e-11
-1.22122e-12
6.56708e-11
-1.06598e-12
6.72222e-11
-8.84356e-13
6.854e-11
-8.14419e-13
6.94492e-11
-7.41771e-13
7.02657e-11
-6.50187e-13
-5.40651e-13
7.09547e-11
-2.15095e-14
9.45379e-13
1.10059e-13
1.87647e-12
6.59618e-14
2.12265e-12
1.40321e-13
1.94412e-12
5.22801e-13
1.52587e-12
1.32096e-12
1.00187e-12
2.62369e-12
4.50492e-13
5.77877e-12
-1.61768e-13
9.35566e-12
-1.01946e-12
1.21739e-11
-1.91586e-12
1.55569e-11
-2.73793e-12
1.94444e-11
-3.45119e-12
2.37971e-11
-4.05129e-12
2.85778e-11
-4.52935e-12
3.37621e-11
-4.90707e-12
4.05243e-11
-5.33471e-12
4.73836e-11
-6.07237e-12
5.33004e-11
-6.53168e-12
5.95603e-11
-6.85863e-12
6.61756e-11
-7.18039e-12
7.30207e-11
-7.50645e-12
7.99455e-11
-7.77585e-12
8.68756e-11
-7.92341e-12
9.38295e-11
-7.92961e-12
1.01703e-10
-7.87456e-12
1.09584e-10
-7.86295e-12
1.16467e-10
-7.93304e-12
1.23321e-10
-7.96888e-12
1.30073e-10
-7.92389e-12
1.36688e-10
-7.79224e-12
1.43131e-10
-7.57707e-12
1.49396e-10
-7.28665e-12
1.56108e-10
-6.97683e-12
1.62572e-10
-6.72117e-12
1.68086e-10
-6.48923e-12
1.73349e-10
-6.22102e-12
1.78317e-10
-5.89532e-12
1.82963e-10
-5.51491e-12
1.87266e-10
-5.08473e-12
1.91219e-10
-4.61077e-12
1.95173e-10
-4.12588e-12
1.9875e-10
-3.67364e-12
2.01532e-10
-3.23313e-12
2.03929e-10
-2.77657e-12
-2.29592e-12
2.05922e-10
1.63581e-13
1.45148e-12
5.94156e-13
2.68353e-12
9.89953e-13
2.86574e-12
1.68288e-12
2.35805e-12
2.89543e-12
1.41158e-12
4.77496e-12
2.12551e-13
7.44147e-12
-1.12967e-12
1.21745e-11
-2.59732e-12
1.77444e-11
-4.25522e-12
2.27583e-11
-5.92667e-12
2.85391e-11
-7.50424e-12
3.50492e-11
-8.93884e-12
4.22699e-11
-1.02057e-11
5.015e-11
-1.12988e-11
5.86516e-11
-1.22838e-11
6.87937e-11
-1.33397e-11
7.96903e-11
-1.48099e-11
8.95294e-11
-1.5753e-11
9.96836e-11
-1.64231e-11
1.10268e-10
-1.699e-11
1.21232e-10
-1.75048e-11
1.32408e-10
-1.795e-11
1.43679e-10
-1.82695e-11
1.55011e-10
-1.8433e-11
1.67268e-10
-1.8473e-11
1.79483e-10
-1.84295e-11
1.90672e-10
-1.8404e-11
2.01754e-10
-1.83079e-11
2.12658e-10
-1.81062e-11
2.23338e-10
-1.77881e-11
2.33759e-10
-1.73535e-11
2.43901e-10
-1.68155e-11
2.54359e-10
-1.62136e-11
2.64448e-10
-1.55854e-11
2.7341e-10
-1.49386e-11
2.81921e-10
-1.4226e-11
2.89937e-10
-1.34352e-11
2.97433e-10
-1.25672e-11
3.04387e-10
-1.16272e-11
3.10782e-10
-1.06267e-11
3.16954e-10
-9.59207e-12
3.22536e-10
-8.54971e-12
3.27068e-10
-7.49504e-12
3.30952e-10
-6.4101e-12
-5.29385e-12
3.34171e-10
3.81804e-13
1.70249e-12
1.28098e-12
2.98715e-12
2.33578e-12
2.9247e-12
3.87761e-12
1.90515e-12
6.14135e-12
2.31081e-13
9.27932e-12
-1.86391e-12
1.34083e-11
-4.21857e-12
1.97955e-11
-6.74921e-12
2.73423e-11
-9.4373e-12
3.45514e-11
-1.2121e-11
4.27415e-11
-1.46632e-11
5.18651e-11
-1.702e-11
6.18957e-11
-1.91556e-11
7.27177e-11
-2.10668e-11
8.42758e-11
-2.28464e-11
9.73692e-11
-2.46778e-11
1.12202e-10
-2.69841e-11
1.25805e-10
-2.86e-11
1.39676e-10
-2.98191e-11
1.53979e-10
-3.07545e-11
1.68766e-10
-3.15097e-11
1.83884e-10
-3.21455e-11
1.99189e-10
-3.26429e-11
2.14589e-10
-3.29646e-11
2.30938e-10
-3.3098e-11
2.47134e-10
-3.30408e-11
2.62305e-10
-3.28992e-11
2.7732e-10
-3.26102e-11
2.92094e-10
-3.21711e-11
3.06569e-10
-3.158e-11
3.20695e-10
-3.08333e-11
3.34429e-10
-2.99394e-11
3.48368e-10
-2.89218e-11
3.61786e-10
-2.78003e-11
3.73938e-10
-2.65959e-11
3.85473e-10
-2.52678e-11
3.96335e-10
-2.38281e-11
4.06491e-10
-2.22838e-11
4.15913e-10
-2.06403e-11
4.24572e-10
-1.89106e-11
4.32802e-10
-1.71145e-11
4.40227e-10
-1.52721e-11
4.46379e-10
-1.33837e-11
4.51648e-10
-1.14364e-11
-9.44396e-12
4.56013e-10
6.54109e-13
1.67551e-12
2.13811e-12
2.70133e-12
3.97245e-12
2.20364e-12
6.49546e-12
4.79489e-13
9.93398e-12
-2.1208e-12
1.44413e-11
-5.31505e-12
2.01218e-11
-8.8842e-12
2.82165e-11
-1.26719e-11
3.77517e-11
-1.65686e-11
4.7168e-11
-2.04646e-11
5.77659e-11
-2.41529e-11
6.9476e-11
-2.76412e-11
8.22423e-11
-3.08942e-11
9.58515e-11
-3.38914e-11
1.10255e-10
-3.6683e-11
1.25916e-10
-3.93685e-11
1.44576e-10
-4.21567e-11
1.61783e-10
-4.45005e-11
1.79226e-10
-4.64869e-11
1.97129e-10
-4.81983e-11
2.15495e-10
-4.92267e-11
2.34262e-10
-5.01023e-11
2.53303e-10
-5.07954e-11
2.72494e-10
-5.12773e-11
2.92674e-10
-5.15108e-11
3.12564e-10
-5.13547e-11
3.31434e-10
-5.11133e-11
3.50104e-10
-5.05985e-11
3.68476e-10
-4.98583e-11
3.8648e-10
-4.89111e-11
4.04055e-10
-4.77533e-11
4.21134e-10
-4.63937e-11
4.38309e-10
-4.48458e-11
4.54819e-10
-4.31189e-11
4.69942e-10
-4.1233e-11
4.84292e-10
-3.9134e-11
4.97802e-10
-3.68776e-11
5.10434e-10
-3.44818e-11
5.22152e-10
-3.19512e-11
5.32917e-10
-2.93001e-11
5.43055e-10
-2.65454e-11
5.52193e-10
-2.37025e-11
5.59854e-10
-2.07789e-11
5.66414e-10
-1.77546e-11
-1.46668e-11
5.71845e-10
9.47164e-13
1.35938e-12
3.15552e-12
1.69353e-12
5.81331e-12
6.54871e-13
9.35638e-12
-1.97151e-12
1.40361e-11
-5.70938e-12
1.99762e-11
-1.01985e-11
2.72792e-11
-1.51766e-11
3.71791e-11
-2.04202e-11
4.86173e-11
-2.55822e-11
6.03077e-11
-3.10415e-11
7.32787e-11
-3.59499e-11
8.75086e-11
-4.07474e-11
1.02916e-10
-4.53489e-11
1.19212e-10
-4.96728e-11
1.36355e-10
-5.36654e-11
1.54548e-10
-5.71158e-11
1.76667e-10
-6.03734e-11
1.97204e-10
-6.32062e-11
2.17989e-10
-6.60691e-11
2.39662e-10
-6.74957e-11
2.61329e-10
-6.91288e-11
2.83494e-10
-7.04567e-11
3.05992e-10
-7.14374e-11
3.287e-10
-7.21387e-11
3.52587e-10
-7.26796e-11
3.75778e-10
-7.29407e-11
3.98169e-10
-7.28391e-11
4.20257e-10
-7.20237e-11
4.41979e-10
-7.09285e-11
4.6327e-10
-6.95557e-11
4.84055e-10
-6.7894e-11
5.04258e-10
-6.59651e-11
5.2446e-10
-6.37835e-11
5.43821e-10
-6.12823e-11
5.61761e-10
-5.86841e-11
5.78735e-10
-5.563e-11
5.94709e-10
-5.24008e-11
6.09647e-10
-4.89951e-11
6.235e-10
-4.54075e-11
6.36228e-10
-4.16576e-11
6.4815e-10
-3.77631e-11
6.58863e-10
-3.36964e-11
6.67955e-10
-2.95976e-11
6.75716e-10
-2.52723e-11
-2.08847e-11
6.82139e-10
1.2023e-12
7.96391e-13
4.42213e-12
1.50913e-12
7.78807e-12
-3.17271e-13
1.23423e-11
-4.14534e-12
1.82647e-11
-9.26975e-12
2.56521e-11
-1.52714e-11
3.45891e-11
-2.18503e-11
4.65115e-11
-2.89145e-11
5.96012e-11
-3.62872e-11
7.38667e-11
-4.23552e-11
8.89994e-11
-4.8612e-11
1.05595e-10
-5.50973e-11
1.23528e-10
-6.15437e-11
1.42513e-10
-6.77869e-11
1.6263e-10
-7.34256e-11
1.83562e-10
-7.80451e-11
2.08786e-10
-7.8873e-11
2.31976e-10
-8.25707e-11
2.56959e-10
-8.60715e-11
2.81217e-10
-8.95515e-11
3.06098e-10
-9.21586e-11
3.31479e-10
-9.40495e-11
3.57174e-10
-9.53946e-11
3.83001e-10
-9.62923e-11
4.10135e-10
-9.68915e-11
4.36646e-10
-9.77306e-11
4.62696e-10
-9.6977e-11
4.87962e-10
-9.58236e-11
5.12823e-10
-9.44e-11
5.37187e-10
-9.25596e-11
5.6096e-10
-9.03144e-11
5.84059e-10
-8.77284e-11
6.07155e-10
-8.49334e-11
6.29073e-10
-8.19842e-11
6.49833e-10
-7.80786e-11
6.69206e-10
-7.39668e-11
6.87468e-10
-6.97062e-11
7.04552e-10
-6.51905e-11
7.20393e-10
-6.04209e-11
7.34944e-10
-5.5433e-11
7.48573e-10
-5.03074e-11
7.60685e-10
-4.50837e-11
7.71212e-10
-3.93699e-11
7.80061e-10
-3.35947e-11
-2.77887e-11
7.874e-10
2.43437e-12
2.30554e-12
5.75923e-12
1.73201e-12
9.70523e-12
-1.96549e-12
1.5264e-11
-7.38331e-12
2.24386e-11
-1.41032e-11
3.12792e-11
-2.17348e-11
4.17596e-11
-2.99181e-11
5.5286e-11
-3.83088e-11
7.16165e-11
-4.66795e-11
8.76023e-11
-5.50455e-11
1.04535e-10
-6.35017e-11
1.23198e-10
-7.14078e-11
1.43458e-10
-7.89076e-11
1.65387e-10
-8.605e-11
1.88623e-10
-9.27117e-11
2.15702e-10
-9.84866e-11
2.40432e-10
-1.03619e-10
2.66448e-10
-1.08178e-10
2.93806e-10
-1.12426e-10
3.21451e-10
-1.16342e-10
3.49626e-10
-1.19455e-10
3.78181e-10
-1.21782e-10
4.06949e-10
-1.23436e-10
4.35795e-10
-1.24442e-10
4.65335e-10
-1.24786e-10
4.96124e-10
-1.24291e-10
5.25179e-10
-1.2344e-10
5.5338e-10
-1.22401e-10
5.81221e-10
-1.2068e-10
6.08482e-10
-1.18371e-10
6.35036e-10
-1.15529e-10
6.60757e-10
-1.1218e-10
6.86302e-10
-1.0833e-10
7.114e-10
-1.04038e-10
7.34471e-10
-9.93142e-11
7.56034e-10
-9.44236e-11
7.76443e-10
-8.90574e-11
7.95541e-10
-8.33074e-11
8.13243e-10
-7.72232e-11
8.29463e-10
-7.08295e-11
8.4456e-10
-6.41414e-11
8.58399e-10
-5.72003e-11
8.70063e-10
-5.00609e-11
8.7989e-10
-4.28713e-11
-3.54783e-11
8.88084e-10
2.4637e-12
1.43539e-12
6.10557e-12
-8.79909e-13
1.12205e-11
-6.04656e-12
1.80067e-11
-1.31572e-11
2.65824e-11
-2.16591e-11
3.70044e-11
-3.11022e-11
4.92853e-11
-4.11079e-11
6.47503e-11
-5.13159e-11
8.30139e-11
-6.14922e-11
1.00778e-10
-7.20716e-11
1.20149e-10
-8.21805e-11
1.41118e-10
-9.16779e-11
1.63725e-10
-1.00602e-10
1.88183e-10
-1.09022e-10
2.14359e-10
-1.16949e-10
2.44209e-10
-1.24294e-10
2.71659e-10
-1.31008e-10
3.00241e-10
-1.36751e-10
3.30139e-10
-1.41714e-10
3.6092e-10
-1.46063e-10
3.92215e-10
-1.49667e-10
4.23821e-10
-1.52489e-10
4.55628e-10
-1.54495e-10
4.87524e-10
-1.55641e-10
5.20272e-10
-1.55903e-10
5.53815e-10
-1.55211e-10
5.85415e-10
-1.54375e-10
6.16627e-10
-1.52865e-10
6.47331e-10
-1.50651e-10
6.77382e-10
-1.4776e-10
7.06641e-10
-1.44208e-10
7.34997e-10
-1.40006e-10
7.63031e-10
-1.35155e-10
7.90561e-10
-1.29655e-10
8.15687e-10
-1.23978e-10
8.3953e-10
-1.17768e-10
8.6201e-10
-1.11049e-10
8.83041e-10
-1.03879e-10
9.02533e-10
-9.62976e-11
9.20406e-10
-8.83294e-11
9.36983e-10
-7.99875e-11
9.52132e-10
-7.12952e-11
9.64812e-10
-6.25242e-11
9.75676e-10
-5.35043e-11
-4.42746e-11
9.84695e-10
2.02626e-12
-2.03679e-14
6.44512e-12
-4.12053e-12
1.26101e-11
-1.11139e-11
2.066e-11
-2.01452e-11
3.0677e-11
-3.06245e-11
4.27046e-11
-4.20721e-11
5.67757e-11
-5.40981e-11
7.42017e-11
-6.63912e-11
9.38673e-11
-7.88344e-11
1.13936e-10
-9.11851e-11
1.35703e-10
-1.03129e-10
1.5906e-10
-1.14397e-10
1.84011e-10
-1.24934e-10
2.10802e-10
-1.34769e-10
2.39439e-10
-1.43995e-10
2.71709e-10
-1.52683e-10
3.02199e-10
-1.61006e-10
3.33567e-10
-1.67806e-10
3.66159e-10
-1.73548e-10
3.99752e-10
-1.785e-10
4.33909e-10
-1.82699e-10
4.68437e-10
-1.86059e-10
5.03217e-10
-1.88432e-10
5.38098e-10
-1.89747e-10
5.73948e-10
-1.90057e-10
6.09711e-10
-1.89416e-10
6.44097e-10
-1.88123e-10
6.78062e-10
-1.86097e-10
7.11481e-10
-1.83288e-10
7.44202e-10
-1.79719e-10
7.76068e-10
-1.75389e-10
8.06957e-10
-1.70292e-10
8.37481e-10
-1.64443e-10
8.66924e-10
-1.5792e-10
8.94274e-10
-1.50857e-10
9.20214e-10
-1.43212e-10
9.44658e-10
-1.34986e-10
9.67523e-10
-1.2624e-10
9.88722e-10
-1.17019e-10
1.00817e-09
-1.07351e-10
1.0262e-09
-9.72647e-11
1.04239e-09
-8.68346e-11
1.05619e-09
-7.61032e-11
1.068e-09
-6.50955e-11
-5.38505e-11
1.07779e-09
2.01083e-12
-1.41085e-12
6.96431e-12
-7.86634e-12
1.4053e-11
-1.70811e-11
2.32909e-11
-2.82924e-11
3.47045e-11
-4.09667e-11
4.82907e-11
-5.46229e-11
6.40597e-11
-6.88541e-11
8.31952e-11
-8.33395e-11
1.04752e-10
-9.78978e-11
1.26975e-10
-1.12265e-10
1.51077e-10
-1.26182e-10
1.76833e-10
-1.39354e-10
2.0416e-10
-1.51677e-10
2.33236e-10
-1.63122e-10
2.64163e-10
-1.73779e-10
2.98548e-10
-1.83804e-10
3.32275e-10
-1.9341e-10
3.66446e-10
-2.01321e-10
4.01685e-10
-2.0799e-10
4.37863e-10
-2.13674e-10
4.74701e-10
-2.1846e-10
5.12021e-10
-2.22301e-10
5.49755e-10
-2.2518e-10
5.87516e-10
-2.2659e-10
6.26198e-10
-2.26963e-10
6.64465e-10
-2.26158e-10
7.0145e-10
-2.2456e-10
7.37987e-10
-2.22011e-10
7.73952e-10
-2.18522e-10
8.09192e-10
-2.14166e-10
8.43539e-10
-2.0896e-10
8.76834e-10
-2.02892e-10
9.09645e-10
-1.9597e-10
9.41178e-10
-1.8827e-10
9.70604e-10
-1.79826e-10
9.98514e-10
-1.70658e-10
1.0248e-09
-1.60794e-10
1.04939e-09
-1.50324e-10
1.07219e-09
-1.39315e-10
1.09312e-09
-1.27807e-10
1.11246e-09
-1.15839e-10
1.12982e-09
-1.03489e-10
1.14466e-09
-9.07133e-11
1.15734e-09
-7.75864e-11
-6.41698e-11
1.16785e-09
2.14895e-12
-2.93287e-12
7.61374e-12
-1.21216e-11
1.55586e-11
-2.3893e-11
2.59118e-11
-3.75309e-11
3.86602e-11
-5.26174e-11
5.37588e-11
-6.869e-11
7.11814e-11
-8.53147e-11
9.20161e-11
-1.02124e-10
1.15513e-10
-1.18834e-10
1.39807e-10
-1.35334e-10
1.66186e-10
-1.51327e-10
1.94325e-10
-1.6648e-10
2.2405e-10
-1.80708e-10
2.55414e-10
-1.93917e-10
2.88553e-10
-2.06121e-10
3.24915e-10
-2.17501e-10
3.61877e-10
-2.28398e-10
3.98806e-10
-2.37407e-10
4.36635e-10
-2.45092e-10
4.75306e-10
-2.51553e-10
5.14701e-10
-2.5687e-10
5.54628e-10
-2.61142e-10
5.95472e-10
-2.63229e-10
6.35885e-10
-2.6473e-10
6.77402e-10
-2.65476e-10
7.18084e-10
-2.65275e-10
7.57612e-10
-2.63524e-10
7.9663e-10
-2.60521e-10
8.35007e-10
-2.56336e-10
8.72621e-10
-2.51117e-10
9.09311e-10
-2.44923e-10
9.44898e-10
-2.37769e-10
9.79877e-10
-2.29661e-10
1.01353e-09
-2.20666e-10
1.04496e-09
-2.1077e-10
1.07477e-09
-2.00016e-10
1.10282e-09
-1.88426e-10
1.12903e-09
-1.76122e-10
1.15333e-09
-1.63191e-10
1.17564e-09
-1.49693e-10
1.1962e-09
-1.35677e-10
1.21475e-09
-1.21222e-10
1.23059e-09
-1.06272e-10
1.24413e-09
-9.09067e-11
-7.51908e-11
1.25531e-09
2.34197e-12
-4.64752e-12
8.26854e-12
-1.684e-11
1.71182e-11
-3.16099e-11
2.85235e-11
-4.7817e-11
4.25363e-11
-6.55209e-11
5.91036e-11
-8.42147e-11
7.8175e-11
-1.03428e-10
1.00805e-10
-1.22732e-10
1.26105e-10
-1.41599e-10
1.52362e-10
-1.60363e-10
1.81036e-10
-1.78726e-10
2.11511e-10
-1.95841e-10
2.43623e-10
-2.12064e-10
2.77304e-10
-2.27169e-10
3.12641e-10
-2.41011e-10
3.50807e-10
-2.53511e-10
3.91052e-10
-2.64768e-10
4.30637e-10
-2.7514e-10
4.71094e-10
-2.84101e-10
5.12338e-10
-2.91304e-10
5.54133e-10
-2.96802e-10
5.97622e-10
-3.00635e-10
6.40412e-10
-3.03818e-10
6.83031e-10
-3.05944e-10
7.26867e-10
-3.0672e-10
7.70454e-10
-3.0664e-10
8.12552e-10
-3.04824e-10
8.54128e-10
-3.0157e-10
8.94867e-10
-2.96657e-10
9.34753e-10
-2.90546e-10
9.73667e-10
-2.83289e-10
1.01144e-09
-2.74936e-10
1.0485e-09
-2.65511e-10
1.08421e-09
-2.54973e-10
1.11758e-09
-2.43533e-10
1.14928e-09
-2.31235e-10
1.17903e-09
-2.17806e-10
1.2068e-09
-2.03589e-10
1.23252e-09
-1.88634e-10
1.25613e-09
-1.73008e-10
1.27785e-09
-1.56773e-10
1.29754e-09
-1.39948e-10
1.31435e-09
-1.22673e-10
1.32873e-09
-1.05011e-10
-8.68549e-11
1.34056e-09
2.5536e-12
-6.56503e-12
8.78733e-12
-2.18634e-11
1.88539e-11
-3.87063e-11
3.11325e-11
-5.76966e-11
4.63125e-11
-7.83378e-11
6.42826e-11
-9.99081e-11
8.49694e-11
-1.21924e-10
1.09621e-10
-1.44091e-10
1.36482e-10
-1.65992e-10
1.64523e-10
-1.87272e-10
1.95746e-10
-2.06927e-10
2.2835e-10
-2.26268e-10
2.62813e-10
-2.44976e-10
2.98943e-10
-2.62455e-10
3.36765e-10
-2.78241e-10
3.7734e-10
-2.92052e-10
4.19649e-10
-3.03179e-10
4.61827e-10
-3.14555e-10
5.05189e-10
-3.2469e-10
5.49266e-10
-3.33139e-10
5.93882e-10
-3.39768e-10
6.39189e-10
-3.44748e-10
6.84149e-10
-3.48457e-10
7.29257e-10
-3.50598e-10
7.75045e-10
-3.51234e-10
8.21575e-10
-3.50696e-10
8.66243e-10
-3.48431e-10
9.10637e-10
-3.44139e-10
9.53682e-10
-3.38738e-10
9.95808e-10
-3.31862e-10
1.03687e-09
-3.23475e-10
1.07673e-09
-3.13762e-10
1.1159e-09
-3.02936e-10
1.15347e-09
-2.91043e-10
1.18863e-09
-2.78004e-10
1.22234e-09
-2.63506e-10
1.25369e-09
-2.48356e-10
1.28297e-09
-2.32336e-10
1.31008e-09
-2.15338e-10
1.33496e-09
-1.97444e-10
1.35785e-09
-1.78834e-10
1.37853e-09
-1.59583e-10
1.39621e-09
-1.39876e-10
1.41149e-09
-1.19443e-10
-9.88534e-11
1.42393e-09
2.82452e-12
-7.14667e-12
1.02405e-11
-2.50088e-11
2.07061e-11
-4.54959e-11
3.36493e-11
-6.83303e-11
4.99018e-11
-9.22046e-11
6.92034e-11
-1.16749e-10
9.13464e-11
-1.41566e-10
1.1775e-10
-1.66265e-10
1.46532e-10
-1.90688e-10
1.77419e-10
-2.13856e-10
2.10091e-10
-2.36333e-10
2.4447e-10
-2.58182e-10
2.81207e-10
-2.78734e-10
3.20081e-10
-2.97982e-10
3.60772e-10
-3.15713e-10
4.04991e-10
-3.31555e-10
4.48023e-10
-3.45241e-10
4.92478e-10
-3.57771e-10
5.38398e-10
-3.68972e-10
5.85203e-10
-3.78529e-10
6.32412e-10
-3.8619e-10
6.79876e-10
-3.91908e-10
7.27337e-10
-3.95815e-10
7.74883e-10
-3.97865e-10
8.22785e-10
-3.98067e-10
8.71974e-10
-3.95803e-10
9.19597e-10
-3.92538e-10
9.66024e-10
-3.88084e-10
1.01146e-09
-3.82164e-10
1.05594e-09
-3.74472e-10
1.09917e-09
-3.65097e-10
1.14098e-09
-3.54176e-10
1.18203e-09
-3.41831e-10
1.2215e-09
-3.28072e-10
1.25886e-09
-3.12953e-10
1.29393e-09
-2.96881e-10
1.32685e-09
-2.79888e-10
1.35772e-09
-2.61792e-10
1.38629e-09
-2.42654e-10
1.41242e-09
-2.22538e-10
1.43645e-09
-2.0154e-10
1.45801e-09
-1.79635e-10
1.4768e-09
-1.57193e-10
1.49256e-09
-1.34434e-10
-1.11247e-10
1.5056e-09
3.2232e-12
-8.75733e-12
1.11239e-11
-3.05053e-11
2.17933e-11
-5.5206e-11
3.59066e-11
-8.14449e-11
5.33763e-11
-1.08641e-10
7.40834e-11
-1.36347e-10
9.78492e-11
-1.64162e-10
1.25829e-10
-1.91684e-10
1.57021e-10
-2.18514e-10
1.89667e-10
-2.44629e-10
2.2394e-10
-2.69984e-10
2.60519e-10
-2.93928e-10
2.99408e-10
-3.16455e-10
3.40662e-10
-3.37605e-10
3.83994e-10
-3.5723e-10
4.31108e-10
-3.74972e-10
4.76057e-10
-3.90132e-10
5.22624e-10
-4.03726e-10
5.70892e-10
-4.15744e-10
6.20305e-10
-4.26184e-10
6.70173e-10
-4.34803e-10
7.20206e-10
-4.41348e-10
7.70291e-10
-4.45682e-10
8.20338e-10
-4.47723e-10
8.7141e-10
-4.47461e-10
9.22291e-10
-4.44736e-10
9.71849e-10
-4.40839e-10
1.0204e-09
-4.35679e-10
1.06828e-09
-4.28816e-10
1.1151e-09
-4.20164e-10
1.16053e-09
-4.09689e-10
1.20441e-09
-3.97431e-10
1.24749e-09
-3.83497e-10
1.28888e-09
-3.67991e-10
1.32777e-09
-3.51099e-10
1.3643e-09
-3.33046e-10
1.39884e-09
-3.13765e-10
1.43123e-09
-2.93382e-10
1.46125e-09
-2.71944e-10
1.48867e-09
-2.49439e-10
1.51398e-09
-2.25897e-10
1.53641e-09
-2.01405e-10
1.55581e-09
-1.76293e-10
1.57224e-09
-1.50671e-10
-1.24554e-10
1.5859e-09
3.19044e-12
-1.13727e-11
1.11864e-11
-3.73493e-11
2.28024e-11
-6.57349e-11
3.80407e-11
-9.56304e-11
5.6794e-11
-1.26336e-10
7.89345e-11
-1.57381e-10
1.04321e-10
-1.88382e-10
1.34134e-10
-2.19017e-10
1.67031e-10
-2.49153e-10
2.01285e-10
-2.78121e-10
2.37773e-10
-3.05832e-10
2.7648e-10
-3.31983e-10
3.17429e-10
-3.56466e-10
3.60875e-10
-3.79371e-10
4.0666e-10
-4.00726e-10
4.56886e-10
-4.20369e-10
5.03935e-10
-4.37877e-10
5.52632e-10
-4.52764e-10
6.02984e-10
-4.65524e-10
6.54725e-10
-4.76489e-10
7.07179e-10
-4.8563e-10
7.59961e-10
-4.92701e-10
8.12872e-10
-4.9743e-10
8.65674e-10
-4.99629e-10
9.19711e-10
-4.9932e-10
9.72212e-10
-4.96752e-10
1.0235e-09
-4.92213e-10
1.07422e-09
-4.85788e-10
1.12435e-09
-4.77632e-10
1.17346e-09
-4.67755e-10
1.22115e-09
-4.56041e-10
1.26717e-09
-4.4244e-10
1.31229e-09
-4.27066e-10
1.35544e-09
-4.1032e-10
1.39584e-09
-3.91564e-10
1.43399e-09
-3.71142e-10
1.47e-09
-3.49327e-10
1.5038e-09
-3.26369e-10
1.53522e-09
-3.02388e-10
1.56397e-09
-2.77366e-10
1.59051e-09
-2.51297e-10
1.61377e-09
-2.2442e-10
1.63388e-09
-1.96491e-10
1.65099e-09
-1.67781e-10
-1.38524e-10
1.66518e-09
3.17823e-12
-1.39171e-11
1.14967e-11
-4.44444e-11
2.38958e-11
-7.6996e-11
4.01893e-11
-1.10821e-10
6.01902e-11
-1.45254e-10
8.37089e-11
-1.7985e-10
1.10602e-10
-2.14232e-10
1.41884e-10
-2.48104e-10
1.76743e-10
-2.81366e-10
2.12955e-10
-3.13276e-10
2.51628e-10
-3.43674e-10
2.92492e-10
-3.72235e-10
3.3548e-10
-3.98782e-10
3.8092e-10
-4.23418e-10
4.28852e-10
-4.4637e-10
4.81654e-10
-4.67932e-10
5.31561e-10
-4.88163e-10
5.82623e-10
-5.04624e-10
6.3503e-10
-5.18315e-10
6.88853e-10
-5.29688e-10
7.43659e-10
-5.38935e-10
7.99104e-10
-5.46034e-10
8.5489e-10
-5.50852e-10
9.10548e-10
-5.5326e-10
9.67242e-10
-5.53318e-10
1.02181e-09
-5.51118e-10
1.07522e-09
-5.46287e-10
1.12791e-09
-5.38679e-10
1.18002e-09
-5.28987e-10
1.23123e-09
-5.17535e-10
1.28106e-09
-5.04293e-10
1.32914e-09
-4.89213e-10
1.37593e-09
-4.7238e-10
1.42129e-09
-4.54359e-10
1.46355e-09
-4.33778e-10
1.50333e-09
-4.11094e-10
1.54069e-09
-3.86683e-10
1.57573e-09
-3.60931e-10
1.60838e-09
-3.34118e-10
1.63837e-09
-3.06341e-10
1.6659e-09
-2.77612e-10
1.69034e-09
-2.48199e-10
1.71133e-09
-2.17446e-10
1.7291e-09
-1.85658e-10
-1.53184e-10
1.74375e-09
3.27159e-12
-1.65591e-11
1.19673e-11
-5.1904e-11
2.5067e-11
-8.89238e-11
4.2361e-11
-1.26963e-10
6.35654e-11
-1.65352e-10
8.84153e-11
-2.0373e-10
1.16749e-10
-2.41715e-10
1.4938e-10
-2.78946e-10
1.86237e-10
-3.15225e-10
2.24492e-10
-3.50136e-10
2.65407e-10
-3.83422e-10
3.08561e-10
-4.14698e-10
3.53691e-10
-4.43659e-10
4.00977e-10
-4.70319e-10
4.50546e-10
-4.94901e-10
5.04763e-10
-5.17653e-10
5.58591e-10
-5.40578e-10
6.12476e-10
-5.59378e-10
6.67354e-10
-5.74335e-10
7.23377e-10
-5.85508e-10
7.80372e-10
-5.93562e-10
8.38122e-10
-5.99148e-10
8.96328e-10
-6.02762e-10
9.54434e-10
-6.04952e-10
1.01354e-09
-6.06134e-10
1.07075e-09
-6.07768e-10
1.12694e-09
-6.02723e-10
1.18177e-09
-5.94269e-10
1.2357e-09
-5.8318e-10
1.28875e-09
-5.70142e-10
1.34043e-09
-5.55213e-10
1.39037e-09
-5.38423e-10
1.43844e-09
-5.19823e-10
1.48644e-09
-4.99915e-10
1.53083e-09
-4.77416e-10
1.57243e-09
-4.52533e-10
1.6112e-09
-4.25785e-10
1.64736e-09
-3.97379e-10
1.68101e-09
-3.67632e-10
1.71203e-09
-3.36797e-10
1.7403e-09
-3.0502e-10
1.76619e-09
-2.72816e-10
1.7882e-09
-2.38932e-10
1.80671e-09
-2.04108e-10
-1.68426e-10
1.8218e-09
3.43658e-12
-1.93738e-11
1.2488e-11
-5.97273e-11
2.61988e-11
-1.01463e-10
4.45365e-11
-1.44138e-10
6.68942e-11
-1.86599e-10
9.30467e-11
-2.28967e-10
1.22835e-10
-2.7078e-10
1.56942e-10
-3.11545e-10
1.95578e-10
-3.507e-10
2.3577e-10
-3.8863e-10
2.78869e-10
-4.24984e-10
3.2448e-10
-4.59446e-10
3.71932e-10
-4.91147e-10
4.21126e-10
-5.20381e-10
4.72488e-10
-5.47007e-10
5.2632e-10
-5.70933e-10
5.84408e-10
-5.91902e-10
6.41962e-10
-6.11197e-10
7.00591e-10
-6.2815e-10
7.59618e-10
-6.41985e-10
8.18901e-10
-6.52612e-10
8.78355e-10
-6.60176e-10
9.37594e-10
-6.64786e-10
9.96673e-10
-6.66668e-10
1.05513e-09
-6.66305e-10
1.11886e-09
-6.64975e-10
1.17816e-09
-6.59895e-10
1.23566e-09
-6.51323e-10
1.2915e-09
-6.39857e-10
1.34626e-09
-6.25598e-10
1.39955e-09
-6.09124e-10
1.45115e-09
-5.90472e-10
1.50038e-09
-5.69666e-10
1.55097e-09
-5.46847e-10
1.59756e-09
-5.21877e-10
1.64114e-09
-4.95137e-10
1.68151e-09
-4.66246e-10
1.71887e-09
-4.35549e-10
1.75346e-09
-4.03059e-10
1.78536e-09
-3.69043e-10
1.81402e-09
-3.3376e-10
1.84154e-09
-2.97193e-10
1.86446e-09
-2.60903e-10
1.88382e-09
-2.22847e-10
-1.83986e-10
1.89946e-09
3.67496e-12
-2.24245e-11
1.29871e-11
-6.78315e-11
2.71388e-11
-1.14476e-10
4.68261e-11
-1.60885e-10
7.01495e-11
-2.07673e-10
9.75516e-11
-2.54406e-10
1.28825e-10
-3.00314e-10
1.64822e-10
-3.44941e-10
2.04827e-10
-3.87654e-10
2.46678e-10
-4.28807e-10
2.91618e-10
-4.68248e-10
3.39878e-10
-5.05283e-10
3.8963e-10
-5.40981e-10
4.4125e-10
-5.7415e-10
4.94963e-10
-6.03555e-10
5.51348e-10
-6.28518e-10
6.10807e-10
-6.47195e-10
6.70408e-10
-6.67634e-10
7.31749e-10
-6.86136e-10
7.93599e-10
-7.01768e-10
8.55569e-10
-7.14047e-10
9.17543e-10
-7.22949e-10
9.78947e-10
-7.2841e-10
1.03986e-09
-7.30373e-10
1.09867e-09
-7.28788e-10
1.16602e-09
-7.2448e-10
1.22846e-09
-7.18147e-10
1.28862e-09
-7.09456e-10
1.34688e-09
-6.97398e-10
1.40351e-09
-6.83938e-10
1.45863e-09
-6.66905e-10
1.51204e-09
-6.46301e-10
1.56294e-09
-6.22428e-10
1.61535e-09
-5.95076e-10
1.66364e-09
-5.67657e-10
1.70912e-09
-5.36649e-10
1.7511e-09
-5.0736e-10
1.79003e-09
-4.7593e-10
1.82593e-09
-4.41376e-10
1.85887e-09
-4.04028e-10
1.88872e-09
-3.64881e-10
1.91577e-09
-3.24567e-10
1.94037e-09
-2.83373e-10
1.96039e-09
-2.41967e-10
-1.99779e-10
1.97667e-09
4.05638e-12
-2.42446e-11
1.3452e-11
-7.48166e-11
2.89873e-11
-1.25806e-10
4.91368e-11
-1.77249e-10
7.31689e-11
-2.29118e-10
1.018e-10
-2.8017e-10
1.34529e-10
-3.30076e-10
1.72481e-10
-3.78445e-10
2.13949e-10
-4.24756e-10
2.5727e-10
-4.6886e-10
3.04319e-10
-5.10652e-10
3.53572e-10
-5.50394e-10
4.05535e-10
-5.8804e-10
4.60594e-10
-6.23102e-10
5.17989e-10
-6.55128e-10
5.80124e-10
-6.83236e-10
6.37252e-10
-7.06084e-10
6.98347e-10
-7.2737e-10
7.61684e-10
-7.46733e-10
8.26185e-10
-7.63503e-10
8.90931e-10
-7.77059e-10
9.55771e-10
-7.87241e-10
1.02008e-09
-7.93759e-10
1.08387e-09
-7.96094e-10
1.14482e-09
-7.93916e-10
1.21352e-09
-7.82914e-10
1.27767e-09
-7.74453e-10
1.34063e-09
-7.65536e-10
1.39977e-09
-7.54682e-10
1.45951e-09
-7.391e-10
1.5177e-09
-7.20179e-10
1.57385e-09
-6.98032e-10
1.62802e-09
-6.73023e-10
1.67966e-09
-6.43796e-10
1.73116e-09
-6.11777e-10
1.77454e-09
-5.81353e-10
1.81848e-09
-5.47989e-10
1.86008e-09
-5.13074e-10
1.89846e-09
-4.75793e-10
1.93295e-09
-4.36084e-10
1.96374e-09
-3.94373e-10
1.99139e-09
-3.51127e-10
2.01603e-09
-3.06035e-10
2.03665e-09
-2.60983e-10
-2.15439e-10
2.05347e-09
4.16593e-12
-2.6769e-11
1.44957e-11
-8.27296e-11
3.0555e-11
-1.39536e-10
5.09233e-11
-1.96742e-10
7.61402e-11
-2.53262e-10
1.06039e-10
-3.08689e-10
1.40277e-10
-3.62727e-10
1.80115e-10
-4.15056e-10
2.23392e-10
-4.65414e-10
2.68533e-10
-5.13065e-10
3.17067e-10
-5.57935e-10
3.67765e-10
-6.0046e-10
4.21657e-10
-6.40227e-10
4.79139e-10
-6.77409e-10
5.39568e-10
-7.11796e-10
6.06066e-10
-7.42564e-10
6.63911e-10
-7.6808e-10
7.26237e-10
-7.90658e-10
7.91228e-10
-8.10566e-10
8.57959e-10
-8.27954e-10
9.25219e-10
-8.41786e-10
9.92939e-10
-8.52233e-10
1.06086e-09
-8.59006e-10
1.12804e-09
-8.61502e-10
1.19701e-09
-8.59121e-10
1.26218e-09
-8.52042e-10
1.32625e-09
-8.42554e-10
1.39008e-09
-8.3054e-10
1.45307e-09
-8.16103e-10
1.51538e-09
-7.98445e-10
1.57628e-09
-7.77251e-10
1.63474e-09
-7.52927e-10
1.69272e-09
-7.26415e-10
1.74608e-09
-6.99638e-10
1.79532e-09
-6.65983e-10
1.84115e-09
-6.29145e-10
1.88607e-09
-5.91283e-10
1.92968e-09
-5.52716e-10
1.97007e-09
-5.12736e-10
2.00622e-09
-4.70556e-10
2.03813e-09
-4.26033e-10
2.06734e-09
-3.79443e-10
2.09164e-09
-3.30995e-10
2.11255e-09
-2.82142e-10
-2.32548e-10
2.12993e-09
4.14465e-12
-3.03273e-11
1.49393e-11
-9.23639e-11
3.13172e-11
-1.5489e-10
5.27787e-11
-2.17223e-10
7.91813e-11
-2.78633e-10
1.10338e-10
-3.38585e-10
1.46006e-10
-3.96869e-10
1.8739e-10
-4.53419e-10
2.32683e-10
-5.08583e-10
2.79836e-10
-5.60156e-10
3.29849e-10
-6.08336e-10
3.82423e-10
-6.53245e-10
4.3794e-10
-6.94963e-10
4.97297e-10
-7.33819e-10
5.60256e-10
-7.70066e-10
6.30817e-10
-8.03391e-10
6.90522e-10
-8.33058e-10
7.54521e-10
-8.5748e-10
8.20896e-10
-8.78226e-10
8.89751e-10
-8.95648e-10
9.59237e-10
-9.08994e-10
1.02964e-09
-9.18673e-10
1.10097e-09
-9.24883e-10
1.17205e-09
-9.27415e-10
1.24507e-09
-9.26328e-10
1.31107e-09
-9.21579e-10
1.3766e-09
-9.12166e-10
1.44171e-09
-8.97962e-10
1.50696e-09
-8.80511e-10
1.57174e-09
-8.59817e-10
1.63473e-09
-8.35689e-10
1.6949e-09
-8.08777e-10
1.75288e-09
-7.81077e-10
1.81174e-09
-7.57631e-10
1.86289e-09
-7.22603e-10
1.90934e-09
-6.81678e-10
1.9544e-09
-6.38399e-10
1.99882e-09
-5.94907e-10
2.0408e-09
-5.51038e-10
2.07878e-09
-5.05729e-10
2.11226e-09
-4.58222e-10
2.14295e-09
-4.08441e-10
2.16733e-09
-3.56684e-10
2.1887e-09
-3.03894e-10
-2.50177e-10
2.20655e-09
4.12772e-12
-3.3815e-11
1.52715e-11
-1.02211e-10
3.22809e-11
-1.70666e-10
5.47778e-11
-2.38544e-10
8.23926e-11
-3.05149e-10
1.14729e-10
-3.69914e-10
1.51574e-10
-4.32681e-10
1.93621e-10
-4.93505e-10
2.4156e-10
-5.53024e-10
2.91005e-10
-6.08708e-10
3.43186e-10
-6.60582e-10
3.97751e-10
-7.08457e-10
4.5486e-10
-7.52377e-10
5.15585e-10
-7.92789e-10
5.80289e-10
-8.30501e-10
6.5328e-10
-8.6623e-10
7.16715e-10
-9.00124e-10
7.82938e-10
-9.26864e-10
8.51107e-10
-9.48717e-10
9.22809e-10
-9.67529e-10
9.9451e-10
-9.76738e-10
1.06703e-09
-9.82045e-10
1.14058e-09
-9.84594e-10
1.21404e-09
-9.86053e-10
1.2895e-09
-9.87645e-10
1.35887e-09
-9.93873e-10
1.42788e-09
-9.84374e-10
1.49507e-09
-9.68515e-10
1.56229e-09
-9.48176e-10
1.62919e-09
-9.24298e-10
1.69346e-09
-8.96953e-10
1.75401e-09
-8.6726e-10
1.80727e-09
-8.3774e-10
1.87624e-09
-8.15937e-10
1.93182e-09
-7.80583e-10
1.98e-09
-7.37465e-10
2.02457e-09
-6.90027e-10
2.06863e-09
-6.41328e-10
2.11131e-09
-5.92397e-10
2.15081e-09
-5.42703e-10
2.18598e-09
-4.91369e-10
2.21815e-09
-4.38057e-10
2.24316e-09
-3.83096e-10
2.26511e-09
-3.26305e-10
-2.68334e-10
2.28337e-09
4.18961e-12
-3.7393e-11
1.56826e-11
-1.12357e-10
3.33428e-11
-1.86932e-10
5.68317e-11
-2.60611e-10
8.56805e-11
-3.32793e-10
1.1918e-10
-4.02785e-10
1.57078e-10
-4.70409e-10
1.99355e-10
-5.35577e-10
2.49952e-10
-5.9872e-10
3.01834e-10
-6.5847e-10
3.56666e-10
-7.14383e-10
4.13684e-10
-7.65867e-10
4.72695e-10
-8.12888e-10
5.34441e-10
-8.55668e-10
5.99699e-10
-8.94979e-10
6.7274e-10
-9.31636e-10
7.41764e-10
-9.69545e-10
8.11475e-10
-1.0004e-09
8.81268e-10
-1.02431e-09
9.60874e-10
-1.0388e-09
1.0346e-09
-1.05312e-09
1.10819e-09
-1.06224e-09
1.18067e-09
-1.06669e-09
1.25287e-09
-1.06715e-09
1.32214e-09
-1.06522e-09
1.40563e-09
-1.06475e-09
1.47902e-09
-1.05612e-09
1.54982e-09
-1.04028e-09
1.61927e-09
-1.01881e-09
1.68813e-09
-9.9335e-10
1.75279e-09
-9.64563e-10
1.81243e-09
-9.33116e-10
1.85697e-09
-9.00412e-10
1.93832e-09
-8.70687e-10
1.99999e-09
-8.33763e-10
2.05189e-09
-7.90893e-10
2.0969e-09
-7.42423e-10
2.14031e-09
-6.90443e-10
2.18287e-09
-6.3689e-10
2.22313e-09
-5.82122e-10
2.25958e-09
-5.26152e-10
2.29283e-09
-4.68736e-10
2.31914e-09
-4.10082e-10
2.34181e-09
-3.49242e-10
-2.87002e-10
2.36048e-09
4.36626e-12
-4.11636e-11
1.61946e-11
-1.22877e-10
3.43971e-11
-2.0375e-10
5.87079e-11
-2.83499e-10
8.88327e-11
-3.61668e-10
1.2354e-10
-4.37106e-10
1.62612e-10
-5.09925e-10
2.05454e-10
-5.79606e-10
2.57994e-10
-6.45664e-10
3.1209e-10
-7.09023e-10
3.69715e-10
-7.68983e-10
4.29506e-10
-8.24922e-10
4.90954e-10
-8.76437e-10
5.53925e-10