/*--------------------------------*- C++ -*----------------------------------*\
  =========                 |
  \\      /  F ield         | OpenFOAM: The Open Source CFD Toolbox
   \\    /   O peration     | Website:  https://openfoam.org
    \\  /    A nd           | Version:  7
     \\/     M anipulation  |
\*---------------------------------------------------------------------------*/
FoamFile
{
    version     2.0;
    format      ascii;
    class       volScalarField;
    location    "0.5";
    object      rho;
}
// * * * * * * * * * * * * * * * * * * * * * * * * * * * * * * * * * * * * * //

dimensions      [1 -3 0 0 0 0 0];

internalField   nonuniform List<scalar> 
1575
(
1.40001
1.40001
1.40001
1.40001
1.40001
1.40001
1.40001
1.40001
1.40001
3.19692
5.68922
5.58176
5.33982
5.12098
5.0434
1.40001
1.40001
1.40001
1.40001
1.40001
1.40001
1.40001
1.40001
1.40001
3.07685
5.60133
5.53593
5.29024
5.06851
4.98235
1.40001
1.40001
1.40001
1.40001
1.40001
1.40001
1.40001
1.40001
1.40001
2.81284
5.47873
5.49262
5.24779
5.03464
4.93144
1.40001
1.40001
1.40001
1.40001
1.40001
1.40001
1.40001
1.40001
1.40001
2.42141
5.28895
5.47728
5.20774
4.92898
4.81776
1.40001
1.40001
1.40001
1.40001
1.40001
1.40001
1.40001
1.40001
1.40001
1.93313
4.96329
5.50936
5.20342
4.85652
4.68026
1.40001
1.40001
1.40001
1.40001
1.40001
1.40001
1.40001
1.40001
1.40001
1.47465
4.30186
5.45651
5.13232
4.58904
3.61275
1.40001
1.40001
1.40001
1.40001
1.40001
1.40001
1.40001
1.40001
1.40001
1.401
3.33001
5.18843
4.91981
4.41999
3.56875
1.40001
1.40001
1.40001
1.40001
1.40001
1.40001
1.40001
1.40001
1.40001
1.4
2.23423
4.83806
4.79442
4.36236
3.60175
1.40001
1.40001
1.40001
1.40001
1.40001
1.40001
1.40001
1.40001
1.40001
1.4
1.51499
3.81032
4.77782
4.35892
3.70748
1.40001
1.40001
1.40001
1.40001
1.40001
1.40001
1.40001
1.40001
1.40001
1.4
1.40164
2.24948
4.46786
4.42561
3.85984
1.40001
1.40001
1.40001
1.40001
1.40001
1.40001
1.40001
1.40001
1.40001
1.40001
1.40001
1.49266
3.3016
4.41784
4.03939
1.40001
1.40001
1.40001
1.40001
1.40001
1.40001
1.40001
1.40001
1.40001
1.40001
1.40001
1.40116
1.88075
3.85837
4.17423
1.40001
1.40001
1.40001
1.40001
1.40001
1.40001
1.40001
1.40001
1.40001
1.40001
1.40001
1.40001
1.42588
2.39272
3.92131
1.40001
1.40001
1.40001
1.40001
1.40001
1.40001
1.40001
1.40001
1.40001
1.40001
1.40001
1.40001
1.40021
1.5166
2.67903
1.40001
1.40001
1.40001
1.40001
1.40001
1.40001
1.40001
1.40001
1.40001
1.40001
1.40001
1.40001
1.40001
1.40215
1.6064
1.40001
1.40001
1.40001
1.40001
1.40001
1.40001
1.40001
1.40001
1.40001
1.40001
1.40001
1.40001
1.40001
1.40001
1.40569
1.40001
1.40001
1.40001
1.40001
1.40001
1.40001
1.40001
1.40001
1.40001
1.40001
1.40001
1.40001
1.40001
1.40001
1.40003
1.40001
1.40001
1.40001
1.40001
1.40001
1.40001
1.40001
1.40001
1.40001
1.40001
1.40001
1.40001
1.40001
1.40001
1.40001
1.40001
1.40001
1.40001
1.40001
1.40001
1.40001
1.40001
1.40001
1.40001
1.40001
1.40001
1.40001
1.40001
1.40001
1.40001
1.40001
1.40001
1.40001
1.40001
1.40001
1.40001
1.40001
1.40001
1.40001
1.40001
1.40001
1.40001
1.40001
1.40001
1.40001
1.40001
1.40001
1.40001
1.40001
1.40001
1.40001
1.40001
1.40001
1.40001
1.40001
1.40001
1.40001
1.40001
1.40001
1.40001
1.40001
1.40001
1.40001
1.40001
1.40001
1.40001
1.40001
1.40001
1.40001
1.40001
1.40001
1.40001
1.40001
1.40001
1.40001
1.40001
1.40001
1.40001
1.40001
1.40001
1.40001
1.40001
1.40001
1.40001
1.40001
1.40001
1.40001
1.40001
1.40001
1.40001
1.40001
1.40001
1.40001
1.40001
1.40001
1.40001
1.40001
1.40001
1.40001
1.40001
1.40001
1.40001
1.40001
1.40001
1.40001
1.40001
1.40001
1.40001
1.40001
1.40001
1.40001
1.40001
1.40001
1.40001
1.40001
1.40001
1.40001
1.40001
1.40001
1.40001
1.2594
0.526555
0.358906
0.335413
0.331551
0.360161
0.482064
0.610289
0.684841
0.683119
0.654433
0.641605
0.642475
0.65455
0.681682
0.697079
0.700541
0.697496
0.679613
0.670478
0.667459
0.67761
0.685918
0.689137
0.697957
0.716166
0.74317
0.780543
0.833056
0.904785
0.994599
1.1015
1.2187
1.30158
1.33605
1.35535
1.37572
1.39596
1.41408
1.43323
1.44865
1.45181
1.45126
1.44968
1.44681
1.44134
1.43055
1.41289
1.40154
1.40003
1.4
1.4
1.4
1.4
1.4
1.40001
1.40001
1.40001
1.40001
1.40001
1.96216
1.20424
0.876932
0.760101
0.65774
0.598051
0.604287
0.61785
0.629542
0.64034
0.631965
0.636997
0.647063
0.659337
0.683507
0.69613
0.697864
0.69367
0.686177
0.681671
0.682219
0.694587
0.704575
0.713146
0.727781
0.750456
0.781283
0.823219
0.879854
0.950976
1.0342
1.13326
1.2362
1.2962
1.31943
1.33639
1.36274
1.39486
1.41807
1.43211
1.44395
1.4511
1.45143
1.4505
1.44819
1.44321
1.43039
1.41104
1.401
1.40001
1.4
1.4
1.4
1.4
1.4
1.40001
1.40001
1.40001
1.40001
1.40001
2.47867
1.80775
1.34157
1.09198
0.936811
0.797421
0.692839
0.677786
0.653939
0.649231
0.664182
0.688276
0.699805
0.706101
0.712754
0.714904
0.716581
0.71808
0.722864
0.730981
0.746447
0.759565
0.761678
0.765303
0.777213
0.800391
0.835259
0.8847
0.951025
1.03029
1.11489
1.19936
1.2751
1.32458
1.34576
1.35656
1.36953
1.39157
1.41397
1.43344
1.44857
1.45338
1.45361
1.45345
1.45124
1.44353
1.42702
1.40729
1.40038
1.40001
1.4
1.4
1.4
1.4
1.4
1.40001
1.40001
1.40001
1.40001
1.40001
2.86407
2.25129
1.76674
1.44028
1.23619
1.0517
0.888016
0.836846
0.79517
0.746197
0.710343
0.705199
0.704684
0.695761
0.694539
0.695527
0.702049
0.721757
0.745894
0.771045
0.792159
0.799998
0.802026
0.807426
0.825621
0.863291
0.916856
0.979537
1.04896
1.12219
1.1893
1.24215
1.28325
1.31813
1.34719
1.37014
1.38426
1.39288
1.40439
1.42636
1.45069
1.45808
1.45903
1.45925
1.45648
1.44473
1.42116
1.40311
1.40006
1.4
1.4
1.4
1.4
1.4
1.4
1.40001
1.40001
1.40001
1.40001
1.40001
3.16825
2.60923
2.14339
1.76942
1.51331
1.30323
1.11968
1.01689
0.94068
0.853303
0.760552
0.725404
0.728866
0.712897
0.693655
0.696595
0.710089
0.73418
0.755485
0.774578
0.792847
0.810885
0.826542
0.844815
0.874096
0.918968
0.973896
1.03322
1.09671
1.16146
1.21646
1.25506
1.28359
1.30811
1.33373
1.36127
1.38612
1.40209
1.41264
1.43073
1.45568
1.46392
1.46506
1.46531
1.46136
1.44169
1.41244
1.40073
1.40001
1.4
1.4
1.4
1.4
1.4
1.40001
1.40001
1.40001
1.40001
1.40001
1.40001
3.41363
2.88197
2.42708
2.06645
1.8031
1.56549
1.34137
1.21534
1.13117
1.03557
0.89895
0.827452
0.824743
0.803432
0.758859
0.747603
0.756281
0.768777
0.770299
0.771774
0.780478
0.799399
0.827428
0.85999
0.897214
0.944247
0.995451
1.04999
1.10682
1.16305
1.21303
1.25041
1.27402
1.29217
1.31379
1.34233
1.36955
1.39303
1.41848
1.44995
1.47219
1.47603
1.47689
1.476
1.46289
1.42971
1.40399
1.40006
1.4
1.4
1.4
1.4
1.4
1.40001
1.40001
1.40001
1.40001
1.40001
1.40001
1.40001
3.71659
3.18971
2.73756
2.31843
2.02898
1.81055
1.58953
1.41314
1.31142
1.2046
1.06797
0.9815
0.954353
0.919778
0.85806
0.806457
0.805388
0.814206
0.805868
0.795359
0.798673
0.816252
0.851916
0.88572
0.915291
0.950592
0.990406
1.03404
1.08173
1.13127
1.17944
1.22478
1.26859
1.30968
1.33861
1.35219
1.36546
1.38657
1.42546
1.47296
1.49006
1.4924
1.49328
1.48663
1.45311
1.41191
1.40041
1.40001
1.4
1.4
1.4
1.4
1.4
1.40001
1.40001
1.40001
1.40001
1.40001
1.40001
1.40001
3.86394
3.52122
3.06392
2.63064
2.29171
2.04757
1.8102
1.62555
1.50916
1.39462
1.22975
1.13161
1.10634
1.06804
1.00666
0.932374
0.909523
0.913974
0.899731
0.878237
0.87688
0.891786
0.915684
0.923883
0.931777
0.946467
0.973582
1.0081
1.04733
1.08859
1.13069
1.17624
1.2275
1.28227
1.33542
1.37084
1.39518
1.42763
1.47926
1.51261
1.51817
1.51964
1.51395
1.47754
1.42275
1.40124
1.40001
1.4
1.4
1.4
1.4
1.4
1.40001
1.40001
1.40001
1.40001
1.40001
1.40001
1.40001
1.40001
3.73261
3.67201
3.4062
2.99013
2.57973
2.3054
2.07318
1.82721
1.68544
1.58643
1.43885
1.31189
1.26537
1.2157
1.14685
1.06617
1.02746
1.02731
1.01728
0.98598
0.980232
0.990587
0.996303
0.989356
0.988079
0.994461
1.01172
1.03922
1.07071
1.10231
1.13721
1.17871
1.22735
1.27997
1.32939
1.38038
1.43615
1.50057
1.5483
1.55865
1.5608
1.55077
1.50089
1.4306
1.40187
1.40001
1.4
1.4
1.4
1.4
1.4
1.40001
1.40001
1.40001
1.40001
1.40001
1.40001
1.40001
1.40001
1.40001
2.70931
3.55824
3.49524
3.33081
2.98551
2.60626
2.33461
2.08276
1.88694
1.76664
1.626
1.50019
1.44582
1.38916
1.3066
1.21385
1.16144
1.15736
1.16009
1.13711
1.12529
1.13068
1.12633
1.11732
1.12309
1.13991
1.15922
1.1774
1.19334
1.21077
1.23635
1.27378
1.32005
1.37008
1.42409
1.48732
1.55594
1.6058
1.61951
1.61946
1.58846
1.51498
1.43154
1.40174
1.40001
1.4
1.4
1.4
1.4
1.4
1.40001
1.40001
1.40001
1.40001
1.40001
1.40001
1.40001
1.40001
1.40001
1.40001
1.63818
2.59018
3.3778
3.34125
3.27642
3.03326
2.69515
2.39937
2.15099
1.9818
1.82854
1.69084
1.62741
1.56852
1.47527
1.36264
1.3138
1.31336
1.31877
1.29915
1.27819
1.26852
1.25402
1.24913
1.25477
1.26788
1.27769
1.28184
1.28657
1.29834
1.32551
1.3713
1.4314
1.50066
1.5755
1.64514
1.68622
1.6953
1.67827
1.6161
1.51648
1.42527
1.40104
1.40001
1.4
1.4
1.4
1.4
1.40001
1.40001
1.40001
1.40001
1.40001
1.40001
1.40001
1.40001
1.40001
1.40001
1.40001
1.40001
1.4079
1.605
2.39431
3.11109
3.26172
3.21226
3.06774
2.80923
2.52969
2.29247
2.10072
1.94517
1.85611
1.78552
1.67239
1.53167
1.49212
1.49759
1.50746
1.48948
1.45953
1.4414
1.43138
1.43285
1.44278
1.45673
1.46893
1.47783
1.48703
1.50362
1.53473
1.58209
1.64191
1.7057
1.75467
1.77107
1.76232
1.71407
1.62832
1.50141
1.41538
1.4004
1.40001
1.4
1.4
1.4
1.4
1.40001
1.40001
1.40001
1.40001
1.40001
1.40001
1.40001
1.40001
1.40001
1.40001
1.40001
1.40001
1.40001
1.40005
1.4062
1.54565
2.11153
2.78902
3.14343
3.10764
2.98557
2.84292
2.69012
2.5278
2.35398
2.20948
2.10116
1.95393
1.78934
1.74857
1.75416
1.75957
1.73604
1.69026
1.67254
1.67039
1.67381
1.67975
1.68841
1.70124
1.71601
1.73217
1.75287
1.78053
1.81117
1.8338
1.83885
1.82675
1.79155
1.73261
1.61715
1.47142
1.40675
1.4001
1.40001
1.4
1.4
1.4
1.40001
1.40001
1.40001
1.40001
1.40001
1.40001
1.40001
1.40001
1.40001
1.40001
1.40001
1.40001
1.40001
1.40001
1.40001
1.40001
1.40003
1.40358
1.47243
1.79905
2.4127
2.88032
2.94754
2.86018
2.83531
2.81528
2.7294
2.61128
2.4931
2.34773
2.20044
2.15182
2.13519
2.11665
2.07358
2.02
2.00629
2.0013
1.9924
1.98305
1.97757
1.97434
1.96935
1.95963
1.94369
1.92292
1.90016
1.87585
1.84764
1.80537
1.71767
1.56682
1.43739
1.402
1.40002
1.40001
1.4
1.4
1.40001
1.40001
1.40001
1.40001
1.40001
1.40001
1.40001
1.40001
1.40001
1.40001
1.40001
1.40001
1.40001
1.40001
1.40001
1.40001
1.40001
1.40001
1.40001
1.40002
1.40109
1.42308
1.5653
1.97133
2.42377
2.68056
2.80152
2.82315
2.79681
2.71706
2.62766
2.56996
2.51862
2.48252
2.45391
2.41861
2.36944
2.31973
2.28216
2.24699
2.2084
2.16791
2.12881
2.09184
2.05382
2.01323
1.97171
1.93281
1.89494
1.8475
1.77137
1.64321
1.4921
1.41251
1.40036
1.40001
1.40001
1.40001
1.40001
1.40001
1.40001
1.40001
1.40001
1.40001
1.40001
1.40001
1.40001
1.40001
1.40001
1.40001
1.40001
1.40001
1.40001
1.40001
1.40001
1.40001
1.40001
1.40001
1.40001
1.40001
1.40001
1.40018
1.40422
1.44844
1.61569
1.93849
2.27043
2.5238
2.65409
2.66679
2.6259
2.58196
2.55654
2.53401
2.50236
2.46667
2.42348
2.37524
2.32755
2.28055
2.23257
2.18447
2.13815
2.09189
2.04348
1.99059
1.9317
1.86273
1.77448
1.65756
1.52365
1.42974
1.40228
1.40004
1.40001
1.40001
1.40001
1.40001
1.40001
1.40001
1.40001
1.40001
1.40001
1.40001
1.40001
1.40001
1.40001
1.40001
1.40001
1.40001
1.40001
1.40001
1.40001
1.40001
1.40001
1.40001
1.40001
1.40001
1.40001
1.40001
1.40001
1.40001
1.40002
1.40057
1.40747
1.44847
1.56121
1.74498
1.96406
2.15466
2.29573
2.37849
2.41941
2.42913
2.41588
2.39558
2.36121
2.31561
2.2659
2.21322
2.15654
2.0966
2.03343
1.96511
1.88857
1.80181
1.70486
1.60095
1.50219
1.43224
1.40452
1.40019
1.40001
1.40001
1.40001
1.40001
1.40001
1.40001
1.40001
1.40001
1.40001
1.40001
1.40001
1.40001
1.40001
1.40001
1.40001
1.40001
1.40001
1.40001
1.40001
1.40001
1.40001
1.40001
1.40001
1.40001
1.40001
1.40001
1.40001
1.40001
1.40001
1.40001
1.40001
1.40001
1.40003
1.40052
1.40408
1.41778
1.45508
1.5292
1.6394
1.75542
1.84238
1.9043
1.93599
1.95574
1.95036
1.93181
1.89941
1.85512
1.80228
1.74408
1.68189
1.61679
1.55207
1.49325
1.44636
1.41627
1.4032
1.40026
1.40001
1.40001
1.40001
1.40001
1.40001
1.40001
1.40001
1.40001
1.40001
1.40001
1.40001
1.40001
1.40001
1.40001
1.40001
1.40001
1.40001
1.40001
1.40001
1.40001
1.40001
1.40001
1.40001
1.40001
1.40001
1.40001
1.40001
1.40001
1.40001
1.40001
1.40001
1.40001
1.40001
1.40001
1.40001
1.40001
1.40001
1.40009
1.40061
1.40298
1.41023
1.42353
1.43953
1.45616
1.47099
1.48334
1.48827
1.48698
1.48127
1.47068
1.45705
1.44243
1.42842
1.41654
1.40796
1.40291
1.4007
1.40009
1.40001
1.40001
1.40001
1.40001
1.40001
1.40001
1.40001
1.40001
1.40001
1.40001
1.40001
1.40001
1.40001
1.40001
1.40001
1.40001
1.40001
1.40001
1.40001
1.40001
1.40001
1.40001
1.40001
1.40001
1.40001
1.40001
1.40001
1.40001
1.40001
1.40001
1.40001
1.40001
1.40001
1.40001
1.40001
1.40001
1.40001
1.40001
1.40001
1.40001
1.40001
1.40001
1.40004
1.40014
1.40034
1.40065
1.40105
1.40148
1.40174
1.40175
1.40163
1.40135
1.40096
1.40059
1.4003
1.40012
1.40004
1.40001
1.40001
1.40001
1.40001
1.40001
1.40001
1.40001
1.40001
1.40001
1.40001
1.40001
1.40001
1.40001
1.40001
1.40001
1.40001
1.40001
1.40001
1.40001
1.40001
1.40001
1.40001
1.40001
1.40001
1.40001
1.40001
1.40001
1.40001
1.40001
1.40001
1.40001
1.40001
)
;

boundaryField
{
    inlet
    {
        type            calculated;
        value           uniform 1.40001;
    }
    outlet
    {
        type            calculated;
        value           uniform 1.40001;
    }
    bottom
    {
        type            symmetryPlane;
    }
    top
    {
        type            symmetryPlane;
    }
    obstacle
    {
        type            calculated;
        value           nonuniform List<scalar> 
65
(
5.0434
4.98235
4.93144
4.81776
4.68026
1.2594
0.526555
0.358906
0.335413
0.331551
0.360161
0.482064
0.610289
0.684841
0.683119
0.654433
0.641605
0.642475
0.65455
0.681682
0.697079
0.700541
0.697496
0.679613
0.670478
0.667459
0.67761
0.685918
0.689137
0.697957
0.716166
0.74317
0.780543
0.833056
0.904785
0.994599
1.1015
1.2187
1.30158
1.33605
1.35535
1.37572
1.39596
1.41408
1.43323
1.44865
1.45181
1.45126
1.44968
1.44681
1.44134
1.43055
1.41289
1.40154
1.40003
1.4
1.4
1.4
1.4
1.4
1.40001
1.40001
1.40001
1.40001
1.40001
)
;
    }
    defaultFaces
    {
        type            empty;
    }
}


// ************************************************************************* //
