/*--------------------------------*- C++ -*----------------------------------*\
  =========                 |
  \\      /  F ield         | OpenFOAM: The Open Source CFD Toolbox
   \\    /   O peration     | Website:  https://openfoam.org
    \\  /    A nd           | Version:  9
     \\/     M anipulation  |
\*---------------------------------------------------------------------------*/
FoamFile
{
    format      ascii;
    class       volVectorField;
    location    "17.1";
    object      U;
}
// * * * * * * * * * * * * * * * * * * * * * * * * * * * * * * * * * * * * * //

dimensions      [0 1 -1 0 0 0 0];

internalField   nonuniform List<vector> 
8500
(
(-0.00676356 0.00269639 0)
(-0.030259 0.00464541 -6.9298e-23)
(-0.0635834 0.0051552 -3.81057e-24)
(-0.0927835 0.00503755 7.22235e-37)
(-0.121907 0.004792 -1.0637e-23)
(-0.14432 0.00427303 8.8569e-24)
(-0.170874 0.00437887 -6.00749e-23)
(-0.184904 0.00323425 -9.33166e-23)
(-0.209807 0.00459623 -8.55758e-23)
(-0.222401 0.0026728 -4.45669e-24)
(-0.00705727 0.00803156 2.00171e-22)
(-0.0304847 0.0138544 6.47462e-23)
(-0.0633752 0.0153818 2.59896e-22)
(-0.0919404 0.0150307 0)
(-0.120375 0.0142902 0)
(-0.141626 0.0127332 1.78597e-23)
(-0.167377 0.0130284 4.51629e-23)
(-0.17925 0.00958261 9.96127e-23)
(-0.203121 0.0136607 6.4381e-23)
(-0.212574 0.0077768 1.78326e-23)
(-0.00763613 0.0131964 -1.77883e-22)
(-0.0309343 0.0228202 0)
(-0.0629694 0.0253584 -2.44576e-22)
(-0.0902752 0.0247791 0)
(-0.117346 0.0235305 -4.26067e-23)
(-0.13629 0.0209403 3.54765e-23)
(-0.160469 0.0213505 0)
(-0.168054 0.0155866 0)
(-0.189993 0.0223551 0)
(-0.193367 0.0121811 0)
(-0.00848369 0.0180855 3.57592e-22)
(-0.0316042 0.0313878 -2.59982e-22)
(-0.0623861 0.0349224 -6.13298e-23)
(-0.0878282 0.0341229 -3.82467e-22)
(-0.112885 0.0323399 -3.84176e-22)
(-0.128413 0.0287407 3.58173e-23)
(-0.150309 0.0291174 -2.99055e-23)
(-0.15151 0.0210656 3.46856e-22)
(-0.170838 0.0304779 -1.52424e-25)
(-0.165535 0.0155056 3.52617e-22)
(-0.00957683 0.0226055 -3.57592e-22)
(-0.032489 0.0394124 -3.35982e-22)
(-0.0616526 0.0439173 9.22627e-23)
(-0.0846554 0.0429069 5.10451e-22)
(-0.107077 0.0405448 -4.33916e-23)
(-0.118134 0.0359996 5.68953e-22)
(-0.137086 0.0360861 0)
(-0.129837 0.0258994 -3.97337e-22)
(-0.146111 0.0378905 -8.51008e-23)
(-0.129845 0.0175214 -4.89998e-22)
(-0.0108875 0.0266785 9.01315e-23)
(-0.0335807 0.0467635 5.58787e-22)
(-0.0607998 0.0521938 -4.31928e-22)
(-0.0808241 0.0509832 -3.34501e-25)
(-0.100007 0.0479715 -3.87269e-22)
(-0.105612 0.0426051 1.43609e-22)
(-0.12097 0.0419919 -6.00579e-23)
(-0.103205 0.0300338 4.96692e-22)
(-0.116162 0.044505 -8.49032e-23)
(-0.0866387 0.0183048 2.80383e-22)
(-0.0123848 0.0302449 4.51548e-23)
(-0.034869 0.0533274 0)
(-0.0598567 0.0596116 -1.59732e-24)
(-0.0764046 0.0582124 0)
(-0.0917443 0.0544502 6.86852e-22)
(-0.0910071 0.0484691 -5.69351e-22)
(-0.102057 0.0465435 0)
(-0.0716812 0.033498 -1.34593e-24)
(-0.0811111 0.0501253 0)
(-0.0352754 0.0184948 0)
(-0.0140372 0.0332657 -7.28013e-22)
(-0.0363404 0.0590098 -7.51913e-23)
(-0.0588448 0.0660428 5.57211e-22)
(-0.0714596 0.064464 1.03329e-22)
(-0.0823144 0.0598198 -6.90683e-22)
(-0.0744425 0.0535287 -4.26195e-22)
(-0.0802628 0.0494062 -6.03194e-23)
(-0.0351925 0.0364557 4.92466e-22)
(-0.0407807 0.0540772 -8.50914e-23)
(0.0263116 0.0192243 7.10245e-23)
(-0.015815 0.0357229 8.19557e-22)
(-0.0379769 0.0637373 -6.04286e-22)
(-0.05777 0.0713747 -1.86726e-22)
(-0.0660294 0.069616 1.0302e-22)
(-0.0716694 0.0639344 6.90553e-22)
(-0.0559733 0.0577609 6.42335e-22)
(-0.0551822 0.050193 -6.04317e-23)
(0.00660526 0.0390976 9.83369e-23)
(0.004875 0.0558647 -1.7065e-22)
(0.102607 0.020944 7.18854e-23)
(-0.0176922 0.0376186 7.36173e-22)
(-0.0397542 0.0674588 6.04615e-22)
(-0.0566148 0.0755137 -8.75985e-22)
(-0.0601128 0.0735541 -1.03325e-22)
(-0.059643 0.0666587 0)
(-0.0355427 0.0612002 0)
(-0.0260825 0.0487887 0)
(0.0549431 0.0415182 -1.56088e-21)
(0.0555873 0.0547794 -7.1173e-22)
(0.197691 0.0245106 5.48755e-22)
(-0.0196475 0.0389737 -1.47668e-21)
(-0.0416382 0.0701448 0)
(-0.0553282 0.0783892 2.00525e-21)
(-0.0536486 0.0761762 8.2947e-22)
(-0.0458973 0.0678657 8.63477e-23)
(-0.012736 0.0637809 0)
(0.0080163 0.045489 -9.86738e-22)
(0.111223 0.0442439 7.78875e-22)
(0.113532 0.0494113 7.1172e-22)
(0.313754 0.0308799 -5.48734e-22)
(-0.0216656 0.0398247 8.33452e-22)
(-0.0435812 0.0717875 -7.62919e-23)
(-0.0538124 0.0799572 -1.00435e-21)
(-0.0464928 0.0774002 -9.33646e-22)
(-0.030013 0.0675963 0)
(0.0134003 0.0652236 1.14279e-21)
(0.0489877 0.0407696 9.26797e-25)
(0.176338 0.0481472 6.71989e-22)
(0.184558 0.0401358 7.97871e-22)
(0.449615 0.0391917 -5.44098e-22)
(-0.0237363 0.0402197 3.55113e-26)
(-0.0455155 0.0723985 1.30711e-21)
(-0.0519067 0.0802022 -1.2631e-22)
(-0.038305 0.0771392 7.28553e-22)
(-0.0114735 0.06599 4.35311e-22)
(0.0441079 0.065333 2.89771e-22)
(0.0998206 0.0355102 9.84122e-22)
(0.250831 0.0529968 -8.73269e-22)
(0.277437 0.0311014 -5.42579e-22)
(0.599104 0.0482474 4.00964e-22)
(-0.0258536 0.0402143 0)
(-0.0473473 0.0720064 -1.07658e-21)
(-0.0493944 0.0791468 -1.26801e-22)
(-0.0285408 0.0753371 1.52203e-24)
(0.0106154 0.063127 6.94597e-22)
(0.0809759 0.0640429 -9.98775e-22)
(0.163823 0.0313991 9.77942e-22)
(0.335454 0.0572308 -9.97688e-23)
(0.39874 0.0283024 0)
(0.751544 0.0580075 0)
(-0.0280136 0.0398667 9.45926e-23)
(-0.0489443 0.0706553 -1.24199e-21)
(-0.045973 0.0768537 0)
(-0.0164816 0.072063 -1.03054e-22)
(0.0375361 0.0591696 8.66892e-23)
(0.126243 0.0612565 0)
(0.243445 0.0305131 -9.79703e-22)
(0.431903 0.0597851 -7.72646e-22)
(0.545714 0.034921 1.68557e-22)
(0.894489 0.0691597 -1.41652e-22)
(-0.0302082 0.0392283 -9.50231e-23)
(-0.0501348 0.0684084 1.31999e-21)
(-0.0412086 0.0734012 0)
(-0.00118542 0.0674982 -9.4022e-22)
(0.0709279 0.0544829 8.67197e-23)
(0.18272 0.0573426 -1.14344e-21)
(0.339172 0.0341471 -1.18657e-22)
(0.542128 0.0621406 8.71942e-22)
(0.704705 0.0493813 0)
(1.01736 0.0814503 1.08242e-21)
(-0.0324164 0.0383399 -1.44456e-21)
(-0.0507019 0.0653387 -7.84723e-23)
(-0.0345265 0.0688933 -1.27211e-22)
(0.0185671 0.0619178 1.05223e-22)
(0.11283 0.0496824 -1.38446e-21)
(0.25335 0.0536212 1.14342e-21)
(0.44911 0.0422484 9.62888e-22)
(0.664706 0.0673962 7.72433e-22)
(0.857518 0.0678231 1.33364e-21)
(1.11413 0.0934107 -9.46875e-22)
(-0.0346019 0.0372312 1.54016e-21)
(-0.0503691 0.0615169 0)
(-0.0252118 0.0634751 1.15515e-21)
(0.0442735 0.0556841 -1.05496e-22)
(0.16555 0.0456079 2.76796e-21)
(0.340124 0.0521777 0)
(0.569213 0.054082 -9.62868e-22)
(0.792134 0.0770411 -1.97365e-24)
(0.989608 0.0870032 -1.49543e-21)
(1.18404 0.10362 1.35998e-22)
(-0.0367089 0.035918 0)
(-0.0487984 0.0570135 1.26886e-21)
(-0.0124039 0.0573281 -1.02761e-21)
(0.0776669 0.0492777 0)
(0.231266 0.04333 -1.38349e-21)
(0.442465 0.0550381 0)
(0.693354 0.0688963 9.47309e-22)
(0.91344 0.0900083 -7.70429e-22)
(1.09396 0.105058 -1.27743e-21)
(1.2302 0.111162 -1.03532e-21)
(-0.0386544 0.0343998 -1.95279e-22)
(-0.045591 0.051901 -1.10857e-21)
(0.00490671 0.050672 0)
(0.120627 0.0433698 0)
(0.311275 0.0440939 0)
(0.556256 0.0631042 -1.41472e-22)
(0.813977 0.0856893 -9.49292e-22)
(1.01948 0.104444 -9.71863e-23)
(1.17026 0.120908 1.27742e-21)
(1.25803 0.115342 1.16472e-21)
(-0.0403265 0.0326641 0)
(-0.0402861 0.0462521 -1.28646e-21)
(0.0278787 0.0437777 0)
(0.174965 0.0389244 0)
(0.404987 0.0490149 0)
(0.674476 0.0758017 1.40567e-22)
(0.924032 0.103104 -1.16032e-21)
(1.10565 0.119017 9.05376e-23)
(1.2224 0.133405 9.1233e-22)
(1.27437 0.115692 9.98989e-22)
(-0.0415987 0.0307034 0)
(-0.0323475 0.0401242 1.28646e-21)
(0.0578139 0.037014 -1.04877e-21)
(0.241967 0.0372091 0)
(0.509211 0.0585415 -1.38105e-21)
(0.789334 0.0915943 0)
(1.01889 0.119978 9.27969e-22)
(1.17149 0.132682 -7.42244e-22)
(1.25608 0.141594 -1.22101e-21)
(1.29779 0.125965 -9.94286e-22)
(-0.0423275 0.0285001 1.63576e-21)
(-0.0211713 0.033563 0)
(0.096107 0.0309488 9.18766e-22)
(0.321713 0.0395206 1.07518e-22)
(0.618483 0.0721387 2.76206e-21)
(0.894556 0.108811 0)
(1.09678 0.135633 -9.06104e-22)
(1.21923 0.144461 -1.47246e-21)
(1.27991 0.149473 -1.02348e-21)
(1.30623 0.131789 -5.20564e-24)
(-0.0423381 0.0260234 -1.73738e-21)
(-0.00607835 0.0266285 8.3413e-23)
(0.144072 0.0264611 1.30689e-22)
(0.41244 0.0466355 -1.08095e-22)
(0.726557 0.0885699 -1.38101e-21)
(0.986445 0.126178 1.11359e-21)
(1.15817 0.149694 9.061e-22)
(1.25298 0.15485 7.30215e-22)
(1.29353 0.155679 1.16862e-21)
(1.30886 0.137448 -1.03392e-21)
(-0.0414381 0.0232422 1.02958e-22)
(0.0137162 0.0194263 1.25371e-21)
(0.202597 0.0247423 0)
(0.5105 0.0583818 -7.51761e-22)
(0.828123 0.106503 -8.75856e-23)
(1.06368 0.142901 -1.11358e-21)
(1.20495 0.162222 1.08669e-22)
(1.27543 0.163802 6.11974e-22)
(1.30076 0.161229 0)
(1.30839 0.142379 9.20099e-22)
(-0.0394189 0.0201259 -1.06176e-22)
(0.0391027 0.0121941 -1.33822e-21)
(0.271686 0.0270221 0)
(0.611141 0.0737718 1.00971e-22)
(0.91971 0.124915 -8.78139e-23)
(1.12663 0.158598 0)
(1.23936 0.173341 -8.68034e-22)
(1.2895 0.171679 -7.02933e-22)
(1.3033 0.16613 -1.34581e-22)
(1.30481 0.146893 -1.13209e-22)
(-0.0360407 0.0166438 0)
(0.0710088 0.00543237 -1.54186e-21)
(0.350109 0.0340724 1.38277e-22)
(0.709698 0.0915676 -5.26474e-24)
(0.99966 0.143162 -6.88753e-22)
(1.17653 0.17314 -1.21915e-21)
(1.26372 0.183268 9.7901e-22)
(1.29732 0.178699 0)
(1.30257 0.170658 0)
(1.30019 0.151222 0)
(-0.0310056 0.0127752 2.31158e-24)
(0.110241 6.01977e-06 1.2927e-21)
(0.435433 0.0458514 1.39983e-22)
(0.80251 0.110744 9.73668e-22)
(1.06764 0.160895 6.00493e-22)
(1.21506 0.186547 -1.19128e-22)
(1.28011 0.192218 8.45216e-22)
(1.30061 0.185109 -5.71184e-22)
(1.29973 0.174946 -6.4244e-22)
(1.29443 0.155433 5.16458e-22)
(-0.0239308 0.00853183 8.0199e-22)
(0.157252 -0.0028955 9.02478e-23)
(0.524468 0.0616047 -1.11852e-21)
(0.887243 0.130607 -8.7708e-22)
(1.12415 0.177943 0)
(1.24395 0.198917 1.07426e-21)
(1.29031 0.200411 -1.61097e-23)
(1.30067 0.191097 7.3575e-22)
(1.29539 0.17911 4.49244e-22)
(1.28821 0.159609 -4.09369e-22)
(-0.0143444 0.00399618 -1.84576e-21)
(0.211911 -0.00201278 0)
(0.613897 0.0803079 2.25344e-21)
(0.962734 0.150734 7.7054e-22)
(1.17013 0.194246 8.84294e-23)
(1.26486 0.210389 0)
(1.29578 0.208041 -8.22382e-22)
(1.2984 0.196816 6.24018e-22)
(1.29008 0.183226 4.85331e-22)
(1.28156 0.16379 -3.82952e-22)
(-0.00171477 -0.000635673 9.33818e-22)
(0.273395 0.0035966 7.28462e-22)
(0.700807 0.101065 -1.27335e-21)
(1.02866 0.170897 1.14493e-22)
(1.20671 0.209814 0)
(1.27926 0.221116 0)
(1.29766 0.215277 0)
(1.2945 0.202377 -1.23057e-21)
(1.28407 0.187345 -4.85335e-22)
(1.27466 0.167987 3.82934e-22)
(0.0144762 -0.00500992 8.64142e-22)
(0.340277 0.0142687 -7.22682e-22)
(0.78294 0.123246 7.41708e-23)
(1.08523 0.190986 0)
(1.23508 0.224694 6.68934e-22)
(1.28841 0.231247 4.44508e-22)
(1.29684 0.222257 5.10811e-23)
(1.28941 0.207857 -5.37996e-23)
(1.27757 0.191497 1.16259e-22)
(1.26753 0.17221 -4.70198e-23)
(0.0346052 -0.00858987 -9.80867e-22)
(0.41076 0.0297207 9.1408e-23)
(0.858734 0.146433 5.87484e-22)
(1.13293 0.210938 -1.63971e-22)
(1.2564 0.238956 -5.0177e-22)
(1.29334 0.240919 -6.31677e-22)
(1.29397 0.229084 4.9979e-23)
(1.28343 0.213306 3.03644e-22)
(1.27066 0.195695 0)
(1.26019 0.176449 -4.1917e-23)
(0.0588328 -0.0107083 -6.3526e-23)
(0.482943 0.0492793 0)
(0.927255 0.170335 6.0978e-24)
(1.17241 0.2307 0)
(1.2717 0.252674 6.5226e-22)
(1.29491 0.250249 -4.84811e-22)
(1.28953 0.235832 0)
(1.27676 0.218753 9.83022e-24)
(1.26342 0.199941 0)
(1.25264 0.180691 0)
(0.087088 -0.0106719 -1.26964e-22)
(0.555016 0.0721805 8.29788e-22)
(0.988073 0.194736 -6.69535e-22)
(1.20435 0.250212 1.10867e-22)
(1.28193 0.265925 -2.97971e-22)
(1.29378 0.259332 -5.19033e-23)
(1.28385 0.242547 0)
(1.26954 0.224207 2.10358e-22)
(1.25586 0.204227 5.41862e-23)
(1.24486 0.184918 1.55483e-22)
(0.119064 -0.00788428 -5.34379e-22)
(0.62537 0.097757 -3.3504e-22)
(1.04113 0.219478 -1.10273e-22)
(1.22948 0.269413 4.42735e-22)
(1.28786 0.278781 3.66264e-23)
(1.29047 0.268241 4.72879e-22)
(1.27719 0.249253 0)
(1.26182 0.229664 -2.53966e-22)
(1.248 0.208538 4.72804e-23)
(1.23684 0.189108 -3.42869e-22)
(0.154253 -0.00195435 -5.34378e-22)
(0.692628 0.125482 3.48217e-22)
(1.08663 0.244441 -4.15771e-24)
(1.24848 0.288243 -5.15462e-22)
(1.29018 0.291299 -2.72619e-22)
(1.28539 0.277025 -2.67347e-23)
(1.26968 0.255955 2.23224e-23)
(1.25364 0.235112 2.83571e-22)
(1.23983 0.212855 -2.36083e-24)
(1.22857 0.193236 1.11573e-22)
(0.192007 0.00725614 -2.75133e-22)
(0.75565 0.154931 0)
(1.12494 0.269516 -3.00762e-22)
(1.26201 0.306652 0)
(1.28943 0.303522 -3.43365e-22)
(1.27882 0.285714 2.96416e-23)
(1.26143 0.262644 0)
(1.24502 0.240529 0)
(1.23135 0.217155 0)
(1.22003 0.197272 0)
(0.23158 0.0196596 2.41312e-22)
(0.813535 0.185726 1.16767e-22)
(1.1565 0.294595 3.00763e-22)
(1.27068 0.324605 0)
(1.28606 0.315478 0)
(1.27099 0.294316 -1.23779e-23)
(1.25252 0.269299 4.76724e-23)
(1.23597 0.245887 5.46781e-23)
(1.22254 0.22141 5.07454e-23)
(1.21124 0.201187 -8.41031e-24)
(0.272184 0.035022 -4.36386e-24)
(0.865651 0.217504 -1.09285e-22)
(1.18177 0.319561 5.00809e-24)
(1.27503 0.342081 5.93966e-24)
(1.28043 0.327179 -9.08668e-24)
(1.26204 0.302822 3.4608e-24)
(1.24297 0.275887 -4.1612e-23)
(1.22648 0.251154 -5.11011e-23)
(1.21339 0.225585 -3.84007e-23)
(1.20221 0.204946 1.55714e-24)
(0.313016 0.0530448 0)
(0.911675 0.249923 -1.1015e-22)
(1.20114 0.344291 -3.41453e-24)
(1.27554 0.359066 6.95135e-24)
(1.27281 0.338621 1.24824e-37)
(1.25208 0.311206 -8.79001e-38)
(1.2328 0.28237 -3.74123e-23)
(1.21655 0.256295 -4.47306e-23)
(1.20391 0.229637 -3.53693e-23)
(1.19295 0.208512 0)
(0.353297 0.0734128 3.16085e-22)
(0.951518 0.282692 9.03201e-23)
(1.21499 0.368671 2.99933e-22)
(1.27262 0.375529 -1.35694e-23)
(1.26345 0.349784 0)
(1.24119 0.31943 1.06197e-23)
(1.22203 0.288703 2.45176e-23)
(1.20616 0.261271 4.81025e-23)
(1.19407 0.233519 2.73616e-23)
(1.18347 0.211865 6.7305e-24)
(0.392284 0.095828 -2.81692e-22)
(0.985183 0.315552 0)
(1.22372 0.392576 -2.83531e-22)
(1.26663 0.391435 0)
(1.2525 0.360634 -2.8846e-23)
(1.22941 0.327444 2.40189e-23)
(1.21066 0.294837 0)
(1.19532 0.26604 0)
(1.18389 0.237189 0)
(1.1737 0.214986 0)
(0.429292 0.120014 5.58408e-22)
(1.01276 0.348265 -3.58805e-22)
(1.22769 0.415884 -6.90137e-23)
(1.25788 0.406738 -2.83773e-22)
(1.24012 0.37112 -2.64161e-22)
(1.21679 0.335192 1.85033e-23)
(1.19869 0.300721 -1.54494e-23)
(1.18401 0.270556 1.30174e-22)
(1.17339 0.240621 2.15402e-24)
(1.16359 0.217851 9.69036e-23)
(0.463708 0.145706 -5.58408e-22)
(1.03439 0.380603 -4.33402e-22)
(1.22725 0.438466 9.62247e-23)
(1.24661 0.421386 3.39408e-22)
(1.22641 0.381182 -1.6329e-23)
(1.20334 0.34261 2.85335e-22)
(1.18612 0.306301 0)
(1.17223 0.274759 -1.48397e-22)
(1.16263 0.243805 -2.32394e-23)
(1.1531 0.220457 -1.2272e-22)
(0.495005 0.172633 1.32981e-22)
(1.05026 0.412351 7.4054e-22)
(1.22271 0.460194 -4.32979e-22)
(1.23308 0.435321 -8.22761e-23)
(1.21145 0.390754 -1.9841e-22)
(1.18909 0.34963 4.32547e-23)
(1.17295 0.311519 -2.57841e-23)
(1.16002 0.278586 1.44872e-22)
(1.15159 0.24672 -2.41415e-23)
(1.14234 0.222806 6.60189e-23)
(0.522744 0.200504 6.73229e-23)
(1.06057 0.443293 0)
(1.21437 0.480933 2.68067e-23)
(1.21748 0.448472 0)
(1.19531 0.399759 3.96574e-22)
(1.17406 0.356181 -2.58894e-22)
(1.15921 0.316315 0)
(1.14744 0.281997 -1.68983e-23)
(1.14019 0.249303 0)
(1.13139 0.224807 0)
(0.546581 0.229007 -1.03435e-21)
(1.06554 0.473213 -8.02262e-23)
(1.20251 0.50055 5.28321e-22)
(1.19996 0.460763 6.08717e-23)
(1.17804 0.408109 -4.11419e-22)
(1.15833 0.362189 -1.46243e-22)
(1.14496 0.320627 -2.01509e-23)
(1.1345 0.284964 8.50241e-23)
(1.12841 0.251512 -1.7295e-23)
(1.12025 0.22644 9.52144e-24)
(0.566265 0.257806 1.15145e-21)
(1.0654 0.501888 -6.94308e-22)
(1.18738 0.518906 -1.53297e-22)
(1.18066 0.472108 7.52291e-23)
(1.15973 0.415716 3.22926e-22)
(1.14194 0.367574 2.22541e-22)
(1.13018 0.324396 -1.71564e-23)
(1.12118 0.287455 -1.93987e-23)
(1.11629 0.253305 -2.40808e-23)
(1.10895 0.227661 8.70565e-24)
(0.581632 0.28655 9.54585e-22)
(1.0604 0.529095 6.73876e-22)
(1.1692 0.535852 -6.45362e-22)
(1.15976 0.482412 -6.83385e-23)
(1.14054 0.422505 0)
(1.12487 0.372252 0)
(1.1149 0.327567 0)
(1.10751 0.289427 -2.19029e-22)
(1.10387 0.254649 -5.30397e-23)
(1.0975 0.228438 2.46568e-23)
(0.592601 0.314876 -1.85852e-21)
(1.05079 0.554615 0)
(1.14819 0.551222 1.3787e-21)
(1.13747 0.491579 3.63763e-22)
(1.12049 0.428396 0)
(1.10713 0.376152 0)
(1.09915 0.330074 -1.1006e-22)
(1.09351 0.290839 9.11795e-23)
(1.09117 0.255508 5.30401e-23)
(1.08591 0.228738 -2.46558e-23)
(0.599172 0.342422 1.00202e-21)
(1.03687 0.578245 -8.05124e-23)
(1.12459 0.564846 -6.50717e-22)
(1.1139 0.49949 -3.98259e-22)
(1.09959 0.433307 2.86315e-23)
(1.08878 0.379205 1.45636e-22)
(1.08298 0.331859 5.10457e-23)
(1.0792 0.29165 1.24324e-23)
(1.07825 0.25585 -2.9371e-24)
(1.07422 0.228534 2.01635e-23)
(0.601417 0.36882 -1.17681e-23)
(1.01896 0.599796 9.81154e-22)
(1.09867 0.576609 -8.59418e-23)
(1.0891 0.505982 2.114e-22)
(1.07792 0.437161 1.02123e-22)
(1.06987 0.381344 -3.98429e-23)
(1.06643 0.332867 5.28521e-23)
(1.06463 0.291822 -1.69841e-23)
(1.06512 0.25564 -1.25035e-23)
(1.06247 0.227796 -1.42063e-23)
(0.599479 0.393705 0)
(0.997332 0.619031 -8.60683e-22)
(1.0707 0.586419 -7.42628e-23)
(1.06316 0.510929 -6.6994e-23)
(1.05556 0.439855 -1.04508e-22)
(1.05048 0.382505 -7.419e-23)
(1.04957 0.333045 -5.16597e-23)
(1.04984 0.291316 0)
(1.05182 0.254843 0)
(1.0507 0.22649 0)
(0.593558 0.416755 8.37914e-23)
(0.972099 0.635615 -6.97569e-22)
(1.04101 0.594218 0)
(1.03625 0.514254 -8.06685e-23)
(1.03259 0.441298 9.35479e-24)
(1.03067 0.382628 0)
(1.03244 0.332347 4.62828e-23)
(1.03486 0.2901 1.0294e-22)
(1.03839 0.253424 -2.13878e-23)
(1.03893 0.224571 1.79644e-23)
(0.583879 0.437752 -6.14827e-23)
(0.943493 0.649256 7.48041e-22)
(1.00987 0.599861 0)
(1.00849 0.515916 -1.05068e-22)
(1.0091 0.441406 2.4961e-24)
(1.01051 0.381656 1.44562e-22)
(1.01511 0.330733 1.70723e-23)
(1.01974 0.288142 -1.1723e-22)
(1.02484 0.251347 0)
(1.02723 0.221999 -2.19897e-22)
(0.570651 0.456467 -8.52621e-22)
(0.911989 0.659836 -4.1458e-23)
(0.977441 0.603145 -9.17205e-24)
(0.980047 0.515846 7.58689e-24)
(0.985193 0.440107 1.95893e-22)
(0.990098 0.379536 -1.44563e-22)
(0.997642 0.328165 -2.09527e-22)
(1.00452 0.285409 -1.83721e-22)
(1.01123 0.248586 -3.13557e-22)
(1.0157 0.218767 1.92476e-22)
(0.554 0.472544 9.0313e-22)
(0.878143 0.667335 0)
(0.943948 0.603941 -1.48262e-23)
(0.951057 0.513977 2.42405e-24)
(0.96097 0.437339 -4.97611e-22)
(0.969509 0.376222 0)
(0.980095 0.324613 2.09528e-22)
(0.989233 0.281866 -4.06671e-23)
(0.997661 0.245113 3.56186e-22)
(1.00465 0.214914 -3.57996e-23)
(0.534151 0.485574 0)
(0.842337 0.671601 1.12213e-22)
(0.909595 0.602185 1.18958e-23)
(0.921678 0.510239 0)
(0.936546 0.433052 3.01719e-22)
(0.948835 0.371676 0)
(0.962529 0.320049 -3.19704e-22)
(0.973924 0.277471 2.2439e-22)
(0.984303 0.240887 4.32939e-22)
(0.994365 0.210507 3.40645e-22)
(0.511584 0.495385 -2.88223e-23)
(0.804915 0.672496 -8.85554e-23)
(0.874613 0.597818 0)
(0.892066 0.504573 0)
(0.912036 0.427205 0)
(0.928167 0.365867 5.16343e-23)
(0.945002 0.314456 2.3357e-22)
(0.958689 0.2722 3.60113e-23)
(0.971347 0.235851 -4.32941e-22)
(0.984738 0.205495 -3.82512e-22)
(0.486716 0.501808 0)
(0.766225 0.669906 2.00913e-22)
(0.83924 0.590796 0)
(0.862383 0.496928 0)
(0.887563 0.419766 0)
(0.907599 0.358774 -6.05192e-23)
(0.927589 0.307818 5.29001e-22)
(0.943651 0.266057 -1.20773e-22)
(0.958876 0.230018 -4.17131e-22)
(0.975102 0.198383 -4.20314e-22)
(0.459959 0.504708 0)
(0.726624 0.663752 -2.00914e-22)
(0.803719 0.581093 4.46342e-22)
(0.832794 0.487268 0)
(0.863253 0.410716 7.27975e-22)
(0.887225 0.35038 0)
(0.91038 0.300121 -4.2902e-22)
(0.928922 0.259054 3.8346e-22)
(0.94664 0.223844 5.45908e-22)
(0.964182 0.193249 4.18984e-22)
(0.431724 0.503995 -3.80973e-22)
(0.686478 0.653988 0)
(0.768294 0.568697 -3.80672e-22)
(0.80347 0.475572 -5.43231e-23)
(0.839233 0.400044 -1.56043e-21)
(0.867144 0.340678 0)
(0.893466 0.291351 5.35302e-22)
(0.914568 0.251116 3.77236e-23)
(0.934757 0.216613 5.79288e-22)
(0.953686 0.186666 2.40357e-24)
(0.40242 0.499615 4.18706e-22)
(0.646151 0.640595 -3.09728e-23)
(0.733208 0.553619 -7.81356e-23)
(0.774581 0.461833 -6.4632e-23)
(0.815632 0.387751 8.32458e-22)
(0.847458 0.329672 -7.44874e-22)
(0.87693 0.281525 -5.35305e-22)
(0.900594 0.242341 -4.21188e-22)
(0.923067 0.208803 -6.54501e-22)
(0.943174 0.179858 6.07037e-22)
(0.372452 0.491555 -5.08189e-23)
(0.606006 0.623588 -7.87381e-22)
(0.698701 0.535883 0)
(0.746299 0.446062 5.65154e-22)
(0.79258 0.373852 6.21957e-23)
(0.828272 0.317372 7.44879e-22)
(0.860862 0.270645 -7.39298e-23)
(0.88707 0.23268 -4.31408e-22)
(0.911719 0.200209 0)
(0.932963 0.172354 -5.41579e-22)
(0.342217 0.47984 5.90601e-23)
(0.566398 0.603009 8.291e-22)
(0.665008 0.515536 0)
(0.718794 0.428285 -1.32022e-23)
(0.770206 0.358369 6.89951e-23)
(0.809687 0.303799 0)
(0.845339 0.258738 6.84285e-22)
(0.874032 0.222184 4.93289e-22)
(0.90073 0.190963 9.38155e-23)
(0.923104 0.164311 -7.88024e-23)
(0.312102 0.464532 0)
(0.527676 0.578931 1.26203e-21)
(0.63236 0.49264 -1.11704e-22)
(0.692234 0.408543 6.7369e-23)
(0.748639 0.34134 6.12263e-22)
(0.791805 0.288984 1.05804e-21)
(0.83044 0.245825 -7.76516e-22)
(0.861541 0.210863 0)
(0.890172 0.181043 0)
(0.913681 0.155688 0)
(0.28248 0.445729 2.4319e-24)
(0.490175 0.551455 -1.04707e-21)
(0.60098 0.467277 1.2526e-22)
(0.666783 0.386894 -8.76001e-22)
(0.728004 0.322811 -5.30402e-22)
(0.774726 0.272966 1.79622e-22)
(0.816242 0.231943 -7.81817e-22)
(0.849651 0.198753 5.15361e-22)
(0.880097 0.170491 5.54744e-22)
(0.904747 0.146519 -4.31893e-22)
(0.253711 0.42357 -7.39005e-22)
(0.454217 0.520704 -8.22404e-23)
(0.571081 0.439545 1.15513e-21)
(0.642599 0.363409 9.02752e-22)
(0.708423 0.302841 0)
(0.758546 0.255794 -1.00941e-21)
(0.802817 0.217131 -4.10265e-23)
(0.838418 0.185887 -6.63296e-22)
(0.870558 0.159325 -3.88979e-22)
(0.896349 0.136823 3.43656e-22)
(0.226134 0.398234 1.77235e-21)
(0.420099 0.486816 0)
(0.542869 0.409557 -2.39485e-21)
(0.619835 0.338176 -7.90124e-22)
(0.690015 0.281499 -9.3493e-23)
(0.743357 0.237525 0)
(0.790236 0.201437 8.14743e-22)
(0.827897 0.172306 -6.47171e-22)
(0.861608 0.147577 -4.90551e-22)
(0.888526 0.126633 3.73965e-22)
(0.200062 0.369944 -9.33158e-22)
(0.388096 0.44995 -8.22271e-22)
(0.516544 0.377442 1.39469e-21)
(0.598635 0.311296 -1.28183e-22)
(0.672892 0.258866 0)
(0.729246 0.218225 0)
(0.778566 0.184915 0)
(0.81814 0.158053 1.31939e-21)
(0.853294 0.135283 4.90553e-22)
(0.881313 0.115982 -3.73965e-22)
(0.175768 0.338922 -9.69997e-22)
(0.358477 0.410318 8.1919e-22)
(0.492299 0.343343 8.62494e-23)
(0.579137 0.282882 0)
(0.657159 0.235032 -8.07161e-22)
(0.716296 0.197967 -5.3778e-22)
(0.76787 0.167624 -5.9677e-23)
(0.809199 0.143178 1.0435e-22)
(0.845664 0.122479 -1.30209e-22)
(0.874741 0.104907 5.19114e-23)
(0.153488 0.305369 1.10128e-21)
(0.331496 0.368171 -1.10517e-22)
(0.470306 0.307423 -9.04121e-22)
(0.561467 0.253062 2.00938e-22)
(0.642914 0.210096 6.00941e-22)
(0.704582 0.176833 7.65062e-22)
(0.758205 0.149629 -6.17795e-23)
(0.801119 0.127732 -3.37291e-22)
(0.83876 0.109209 0)
(0.868836 0.0934516 4.87194e-23)
(0.133447 0.269516 7.55296e-23)
(0.307379 0.323776 0)
(0.450721 0.269863 -2.85166e-23)
(0.545743 0.221975 0)
(0.630247 0.184166 -8.63113e-22)
(0.694174 0.154908 6.47958e-22)
(0.749626 0.131001 0)
(0.793944 0.111772 8.97827e-24)
(0.832623 0.0955195 0)
(0.863623 0.0816584 0)
(0.115856 0.231621 1.56641e-22)
(0.286327 0.277402 -1.06771e-21)
(0.433678 0.230857 8.48086e-22)
(0.532066 0.18977 -1.45678e-22)
(0.619236 0.157359 3.73677e-22)
(0.685133 0.132287 1.02344e-22)
(0.742179 0.111815 0)
(0.787714 0.0953586 -2.7841e-22)
(0.827288 0.0814598 -7.40649e-23)
(0.85912 0.0695742 -2.13796e-22)
(0.100902 0.191966 6.70079e-22)
(0.268514 0.229328 -1.58361e-21)
(0.419294 0.190609 1.45855e-22)
(0.520528 0.156604 -6.08918e-22)
(0.609952 0.129798 -6.83505e-23)
(0.677514 0.109067 -6.63475e-22)
(0.735906 0.0921492 0)
(0.782464 0.0785574 3.80746e-22)
(0.822788 0.0670833 -6.78822e-23)
(0.855344 0.0572456 4.87898e-22)
(0.0887432 0.150848 -6.7008e-22)
(0.254085 0.179847 5.80941e-22)
(0.407667 0.149332 -1.00797e-22)
(0.511205 0.122641 7.14288e-22)
(0.602452 0.101612 3.91859e-22)
(0.671362 0.0853512 4.05655e-23)
(0.730844 0.0720876 -3.387e-23)
(0.778225 0.0614357 -4.26384e-22)
(0.819152 0.0524462 3.86198e-24)
(0.852308 0.0447195 -1.62075e-22)
(0.0795096 0.108579 3.5065e-22)
(0.243159 0.12926 0)
(0.398877 0.107248 4.14036e-22)
(0.504158 0.088052 0)
(0.596785 0.0729341 5.49967e-23)
(0.666715 0.0612459 -4.57933e-23)
(0.727021 0.051715 0)
(0.775023 0.0440631 0)
(0.816403 0.0376064 0)
(0.850022 0.032044 0)
(0.0732989 0.0654814 -3.07181e-22)
(0.235825 0.077876 -1.18226e-22)
(0.392983 0.0645824 -4.14036e-22)
(0.499434 0.0530124 0)
(0.592987 0.0439027 0)
(0.663602 0.0368602 2.06996e-23)
(0.724459 0.0311189 -8.25613e-23)
(0.772877 0.0265102 -9.78654e-23)
(0.81456 0.0226217 -9.11817e-23)
(0.848494 0.0192658 1.47081e-23)
(0.070177 0.0218829 -5.56118e-24)
(0.232143 0.0260122 1.27541e-22)
(0.390026 0.0215665 -5.70073e-24)
(0.497064 0.0177011 1.96661e-23)
(0.591082 0.014658 -7.74677e-24)
(0.66204 0.0123056 0)
(0.723175 0.010388 6.52783e-23)
(0.7718 0.00884883 9.78654e-23)
(0.813634 0.00755018 6.92778e-23)
(0.847728 0.00642832 1.03343e-23)
(0.070177 -0.0218829 -5.56118e-24)
(0.232143 -0.0260122 1.27541e-22)
(0.390026 -0.0215665 -5.70073e-24)
(0.497064 -0.0177011 1.96661e-23)
(0.591082 -0.014658 -7.74677e-24)
(0.66204 -0.0123056 0)
(0.723175 -0.010388 5.75062e-23)
(0.7718 -0.00884883 1.04371e-22)
(0.813634 -0.00755018 7.36706e-23)
(0.847728 -0.00642832 0)
(0.0732989 -0.0654814 -3.94119e-22)
(0.235825 -0.077876 -1.53341e-22)
(0.392983 -0.0645824 -4.3889e-22)
(0.499434 -0.0530124 2.05583e-23)
(0.592987 -0.0439027 0)
(0.663602 -0.0368602 -2.06996e-23)
(0.724459 -0.0311189 -4.79953e-23)
(0.772877 -0.0265102 -9.78654e-23)
(0.81456 -0.0226217 -5.61596e-23)
(0.848494 -0.0192658 -1.47081e-23)
(0.0795096 -0.108579 3.5065e-22)
(0.243159 -0.12926 0)
(0.398877 -0.107248 4.14036e-22)
(0.504158 -0.088052 0)
(0.596785 -0.0729341 5.49967e-23)
(0.666715 -0.0612459 -4.57933e-23)
(0.727021 -0.051715 0)
(0.775023 -0.0440631 0)
(0.816403 -0.0376064 0)
(0.850022 -0.032044 0)
(0.0887432 -0.150848 -6.7008e-22)
(0.254085 -0.179847 4.53755e-22)
(0.407667 -0.149332 1.00797e-22)
(0.511205 -0.122641 4.89123e-22)
(0.602452 -0.101612 5.12296e-22)
(0.671362 -0.0853512 -4.05655e-23)
(0.730844 -0.0720876 3.387e-23)
(0.778225 -0.0614357 -3.35109e-22)
(0.819152 -0.0524462 -3.86198e-24)
(0.852308 -0.0447195 -2.72097e-22)
(0.100902 -0.191966 6.70079e-22)
(0.268514 -0.229328 5.48911e-22)
(0.419294 -0.190609 -1.45855e-22)
(0.520528 -0.156604 -5.94492e-22)
(0.609952 -0.129798 4.97725e-23)
(0.677514 -0.109067 -6.63475e-22)
(0.735906 -0.0921492 0)
(0.782464 -0.0785574 3.80746e-22)
(0.822788 -0.0670833 6.78822e-23)
(0.855344 -0.0572456 3.73865e-22)
(0.115856 -0.231621 -1.56641e-22)
(0.286327 -0.277402 1.06771e-21)
(0.433678 -0.230857 6.63722e-22)
(0.532066 -0.18977 1.45678e-22)
(0.619236 -0.157359 4.6698e-22)
(0.685133 -0.132287 -1.49489e-22)
(0.742179 -0.111815 6.52696e-23)
(0.787714 -0.0953586 -4.55002e-22)
(0.827288 -0.0814598 7.40649e-23)
(0.85912 -0.0695742 -2.13796e-22)
(0.133447 -0.269516 -7.55296e-23)
(0.307379 -0.323776 0)
(0.450721 -0.269863 -2.85166e-23)
(0.545743 -0.221975 0)
(0.630247 -0.184166 -8.63113e-22)
(0.694174 -0.154908 6.47958e-22)
(0.749626 -0.131001 0)
(0.793944 -0.111772 8.97827e-24)
(0.832623 -0.0955195 0)
(0.863623 -0.0816584 0)
(0.153488 -0.305369 1.10128e-21)
(0.331496 -0.368171 1.10517e-22)
(0.470306 -0.307423 -6.36328e-22)
(0.561467 -0.253062 -1.30065e-22)
(0.642914 -0.210096 1.01338e-21)
(0.704582 -0.176833 4.53449e-22)
(0.758205 -0.149629 6.17795e-23)
(0.801119 -0.127732 -4.21377e-22)
(0.83876 -0.109209 7.05338e-23)
(0.868836 -0.0934516 -4.87194e-23)
(0.175768 -0.338922 -1.23256e-21)
(0.358477 -0.410318 8.25355e-22)
(0.492299 -0.343343 7.73098e-23)
(0.579137 -0.282882 -1.35293e-22)
(0.657159 -0.235032 -8.07161e-22)
(0.716296 -0.197967 -6.80728e-22)
(0.76787 -0.167624 5.9677e-23)
(0.809199 -0.143178 -5.87499e-23)
(0.845664 -0.122479 1.30209e-22)
(0.874741 -0.104907 -5.19114e-23)
(0.200062 -0.369944 -9.33158e-22)
(0.388096 -0.44995 -8.22271e-22)
(0.516544 -0.377442 1.08477e-21)
(0.598635 -0.311296 1.28183e-22)
(0.672892 -0.258866 0)
(0.729246 -0.218225 0)
(0.778566 -0.184915 0)
(0.81814 -0.158053 1.31939e-21)
(0.853294 -0.135283 4.90553e-22)
(0.881313 -0.115982 -3.73965e-22)
(0.226134 -0.398234 1.77235e-21)
(0.420099 -0.486816 0)
(0.542869 -0.409557 -2.39485e-21)
(0.619835 -0.338176 -9.02755e-22)
(0.690015 -0.281499 0)
(0.743357 -0.237525 0)
(0.790236 -0.201437 8.14743e-22)
(0.827897 -0.172306 -6.47171e-22)
(0.861608 -0.147577 -4.90551e-22)
(0.888526 -0.126633 3.73965e-22)
(0.253711 -0.42357 -9.3938e-22)
(0.454217 -0.520704 8.22404e-23)
(0.571081 -0.439545 1.15513e-21)
(0.642599 -0.363409 1.00859e-21)
(0.708423 -0.302841 -8.78529e-23)
(0.758546 -0.255794 -1.00941e-21)
(0.802817 -0.217131 -4.10265e-23)
(0.838418 -0.185887 -5.18524e-22)
(0.870558 -0.159325 -5.10417e-22)
(0.896349 -0.136823 3.43656e-22)
(0.28248 -0.445729 -2.4319e-24)
(0.490175 -0.551455 -1.20584e-21)
(0.60098 -0.467277 -1.2526e-22)
(0.666783 -0.386894 -6.78756e-22)
(0.728004 -0.322811 -5.40914e-22)
(0.774726 -0.272966 -1.83577e-22)
(0.816242 -0.231943 -7.65603e-22)
(0.849651 -0.198753 6.66454e-22)
(0.880097 -0.170491 3.44648e-22)
(0.904747 -0.146519 -2.55421e-22)
(0.312102 -0.464532 0)
(0.527676 -0.578931 9.90868e-22)
(0.63236 -0.49264 1.11704e-22)
(0.692234 -0.408543 6.7369e-23)
(0.748639 -0.34134 6.12263e-22)
(0.791805 -0.288984 8.37127e-22)
(0.83044 -0.245825 -6.77124e-22)
(0.861541 -0.210863 7.1197e-23)
(0.890172 -0.181043 0)
(0.913681 -0.155688 0)
(0.342217 -0.47984 -5.90601e-23)
(0.566398 -0.603009 8.291e-22)
(0.665008 -0.515536 0)
(0.718794 -0.428285 1.53035e-22)
(0.770206 -0.358369 -6.89951e-23)
(0.809687 -0.303799 0)
(0.845339 -0.258738 6.84286e-22)
(0.874032 -0.222184 4.93289e-22)
(0.90073 -0.190963 -9.38155e-23)
(0.923104 -0.164311 7.88024e-23)
(0.372452 -0.491555 5.08189e-23)