/*--------------------------------*- C++ -*----------------------------------*\
  =========                 |
  \\      /  F ield         | OpenFOAM: The Open Source CFD Toolbox
   \\    /   O peration     | Website:  https://openfoam.org
    \\  /    A nd           | Version:  9
     \\/     M anipulation  |
\*---------------------------------------------------------------------------*/
FoamFile
{
    format      ascii;
    class       surfaceScalarField;
    location    "18.3";
    object      phi;
}
// * * * * * * * * * * * * * * * * * * * * * * * * * * * * * * * * * * * * * //

dimensions      [0 3 -1 0 0 0 0];

internalField   nonuniform List<scalar> 
16735
(
-0.00307087
0.00307087
-1.62656e-09
-0.00921737
0.00614651
-3.92351e-09
-0.017316
0.00809861
-5.77492e-09
-0.0266525
0.00933652
-7.39289e-09
-0.0371593
0.0105069
-9.34829e-09
-0.0482929
0.0111335
-1.1605e-08
-0.0612667
0.0129739
-1.46549e-08
-0.0734491
0.0121824
-1.75166e-08
-0.0900842
0.0166351
-2.06793e-08
0.013801
-2.26458e-08
-0.103885
-0.0030153
0.00608617
-0.00905847
0.0121897
-0.0170079
0.016048
-0.0261372
0.0184658
-0.03636
0.0207297
-0.0470908
0.0218643
-0.0595214
0.0254045
-0.0708963
0.0235573
-0.086549
0.0322878
0.025955
-0.098703
-0.00290671
0.00899288
-0.00874668
0.0180296
-0.0164018
0.0237032
-0.025122
0.027186
-0.0347821
0.0303897
-0.0447223
0.0318045
-0.0560733
0.0367554
-0.0658754
0.0333595
-0.0796253
0.0460376
0.0349478
-0.0886181
-0.00275004
0.0117429
-0.00829378
0.0235734
-0.0155176
0.030927
-0.023637
0.0353054
-0.0324653
0.039218
-0.041255
0.0405942
-0.051
0.0465004
-0.0585339
0.0408934
-0.0695617
0.0570654
0.0395019
-0.0741158
-0.00255241
0.0142953
-0.00771666
0.0287376
-0.0143836
0.0375939
-0.021725
0.0426469
-0.029466
0.0469591
-0.0367818
0.0479099
-0.0444005
0.0541191
-0.0490462
0.0455392
-0.0566218
0.064641
0.0386271
-0.055747
-0.00232272
0.0166181
-0.00703655
0.0334515
-0.0130337
0.0435911
-0.0194386
0.0490518
-0.0258521
0.0533726
-0.0314119
0.0534697
-0.0363783
0.0590854
-0.0375782
0.0467391
-0.0409617
0.0680244
0.0316008
-0.0339354
-0.00207126
0.0186893
-0.00627789
0.0376581
-0.0115076
0.0488207
-0.016837
0.0543813
-0.0216976
0.0582332
-0.0252602
0.0570323
-0.0270228
0.0608481
-0.0242735
0.0439898
-0.0224878
0.0662387
0.0179369
-0.00882393
-0.00180912
0.0204984
-0.00546708
0.041316
-0.00984784
0.0532015
-0.0139807
0.0585141
-0.017074
0.0613266
-0.0184313
0.0583896
-0.0163832
0.0587999
-0.00930042
0.0369071
-0.000523498
0.0574618
-0.00347998
0.0208934
-0.00154763
0.0220461
-0.00463083
0.0443992
-0.00809707
0.0566678
-0.0109258
0.0613428
-0.0120401
0.0624409
-0.011001
0.0573505
-0.00438188
0.0521808
0.00758992
0.0249353
0.0237586
0.0412931
-0.035802
0.0560807
-0.00129765
0.0233437
-0.00379443
0.046896
-0.00629463
0.059168
-0.00771728
0.0627655
-0.00662525
0.0613488
-0.0030196
0.0537449
0.00859911
0.0405621
0.0265918
0.00694255
0.0523662
0.0155188
-0.0811553
0.0977195
-0.00106885
0.0244126
-0.00297974
0.0488069
-0.00447297
0.0606612
-0.00438319
0.0626757
-0.000769357
0.057735
0.00593633
0.0470392
0.0230305
0.0234679
0.0474258
-0.0174528
0.0854144
-0.0224698
-0.142098
0.146357
-0.000869002
0.0252816
-0.00220298
0.0501409
-0.00265261
0.0611108
-0.00094246
0.0609655
0.00528662
0.0515059
0.0159675
0.0363583
0.0394645
-2.90678e-05
0.0710399
-0.0490283
0.123292
-0.074722
-0.219812
0.201005
-0.000703312
0.0259849
-0.00147248
0.0509101
-0.000831315
0.0604697
0.00273752
0.0573967
0.011922
0.0423215
0.0273756
0.0209047
0.0582692
-0.0309226
0.098862
-0.0896211
0.16639
-0.14225
-0.312213
0.258791
-0.000573954
0.0265588
-0.000787201
0.0511233
0.000988518
0.0586939
0.00665116
0.051734
0.0193012
0.0296714
0.0407377
-0.000531816
0.0798355
-0.0700204
0.131968
-0.141753
0.214251
-0.224533
-0.413433
0.315471
-0.000480779
0.0270396
-0.000132051
0.0507746
0.00286286
0.055699
0.0109149
0.043682
0.0276774
0.0129089
0.0565816
-0.029436
0.104559
-0.117998
0.169908
-0.207102
0.264271
-0.318897
-0.515662
0.3665
-0.000412801
0.0274524
0.000511382
0.0498504
0.0048871
0.0513233
0.0157328
0.0328363
0.0374118
-0.00877011
0.0752171
-0.0672413
0.132658
-0.175439
0.210499
-0.284943
0.311694
-0.420092
-0.612073
0.408105
-0.000359495
0.0278119
0.00119018
0.0483007
0.00717044
0.045343
0.0213744
0.0186324
0.0489731
-0.0363688
0.0966242
-0.114892
0.163562
-0.242377
0.250468
-0.371849
0.351574
-0.521197
-0.69864
0.438142
-0.000307337
0.0281192
0.00195641
0.046037
0.00985417
0.0374453
0.0281546
0.000331912
0.0628063
-0.0710204
0.120403
-0.172489
0.19547
-0.317444
0.286255
-0.462634
0.380866
-0.615808
-0.7741
0.456325
-0.000238662
0.0283579
0.00287232
0.042926
0.0131028
0.0272149
0.0363854
-0.0229507
0.0790873
-0.113722
0.145612
-0.239014
0.22577
-0.397602
0.314957
-0.55182
0.398981
-0.699832
-0.839075
0.463955
-0.000132559
0.0284905
0.00400606
0.0387874
0.0170962
0.0141247
0.0463027
-0.0521573
0.0974796
-0.164899
0.17068
-0.312214
0.251986
-0.478908
0.335113
-0.634947
0.407051
-0.77177
-0.895678
0.463655
3.25086e-05
0.028458
0.00542937
0.0333905
0.0220165
-0.00246237
0.0579677
-0.0881085
0.117064
-0.223995
0.193722
-0.388873
0.27245
-0.557636
0.346779
-0.709276
0.40817
-0.833161
-0.951149
0.463641
0.000250881
0.0282071
0.0072173
0.0264241
0.0280208
-0.0232659
0.0711565
-0.131244
0.136501
-0.28934
0.213134
-0.465506
0.286493
-0.630994
0.351155
-0.773938
0.405749
-0.887755
-0.999257
0.453857
0.000560232
0.0276468
0.00944765
0.0175367
0.0351891
-0.0490073
0.0853076
-0.181363
0.154368
-0.3584
0.227973
-0.539111
0.29434
-0.697362
0.350397
-0.829994
0.397749
-0.935107
-1.04014
0.438629
0.000970629
0.0266762
0.0121974
0.00630987
0.0434563
-0.0802662
0.0995846
-0.237491
0.169509
-0.428324
0.23799
-0.607593
0.296876
-0.756248
0.345193
-0.878312
0.386445
-0.97636
-1.07674
0.423047
0.00149315
0.0251831
0.0155322
-0.00772915
0.0525724
-0.117306
0.113046
-0.297965
0.181248
-0.496526
0.243467
-0.669812
0.294999
-0.807779
0.336715
-0.920028
0.372964
-1.01261
-1.10936
0.405588
0.00214164
0.0230414
0.0194792
-0.0250667
0.0621231
-0.15995
0.12485
-0.360691
0.189384
-0.56106
0.24492
-0.725348
0.289656
-0.852515
0.325795
-0.956168
0.357825
-1.04464
-1.13892
0.38738
0.00293785
0.0201036
0.0239962
-0.0461251
0.0715924
-0.207546
0.134413
-0.423512
0.194047
-0.620695
0.242976
-0.774276
0.28164
-0.89118
0.313094
-0.987621
0.341639
-1.07318
-1.16579
0.368512
0.00391515
0.0161884
0.0289602
-0.0711701
0.0804311
-0.259017
0.141463
-0.484544
0.195566
-0.674798
0.238255
-0.816965
0.27161
-0.924534
0.299124
-1.01514
0.324675
-1.09873
-1.19027
0.349153
0.00511398
0.0110745
0.0341836
-0.10024
0.0881428
-0.312977
0.145984
-0.542385
0.194352
-0.723166
0.231323
-0.853936
0.260084
-0.953295
0.284248
-1.0393
0.307178
-1.12166
-1.21254
0.329448
0.00656502
0.00450944
0.0394468
-0.133122
0.0943769
-0.367907
0.148126
-0.596134
0.190837
-0.765877
0.222665
-0.885764
0.247464
-0.978094
0.268732
-1.06057
0.28929
-1.14222
-1.23269
0.309442
0.00826636
-0.00375693
0.0445271
-0.169382
0.0989651
-0.422345
0.148119
-0.645288
0.185432
-0.803189
0.212685
-0.913017
0.234054
-0.999463
0.252764
-1.07928
0.271114
-1.16057
-1.25079
0.289208
0.0101717
-0.0139286
0.0492081
-0.208419
0.101887
-0.475023
0.14623
-0.689631
0.178504
-0.835463
0.20171
-0.936223
0.220081
-1.01783
0.236477
-1.09568
0.252723
-1.17682
-1.26684
0.26878
0.012199
-0.0261276
0.0532872
-0.249507
0.103217
-0.524953
0.142729
-0.729143
0.170373
-0.863107
0.189999
-0.955849
0.205712
-1.03355
0.219966
-1.10993
0.234172
-1.19102
-1.28087
0.248198
0.0142529
-0.0403805
0.0565943
-0.291848
0.103082
-0.571441
0.137872
-0.763933
0.161305
-0.886541
0.177755
-0.972299
0.19107
-1.04686
0.203299
-1.12216
0.215503
-1.20323
-1.29286
0.227494
0.0162462
-0.0566267
0.0590139
-0.334616
0.101638
-0.614065
0.131896
-0.79419
0.151519
-0.906164
0.165133
-0.985913
0.176248
-1.05798
0.186525
-1.13244
0.19675
-1.21345
-1.30281
0.206702
0.0181085
-0.0747352
0.060493
-0.377
0.0990479
-0.65262
0.125014
-0.820156
0.141196
-0.922346
0.152256
-0.996973
0.161313
-1.06703
0.169688
-1.14081
0.177946
-1.22171
-1.31072
0.185852
0.0197818
-0.094517
0.061034
-0.418253
0.0954738
-0.68706
0.117414
-0.842097
0.130482
-0.935413
0.139214
-1.00571
0.146319
-1.07414
0.152822
-1.14731
0.159119
-1.22801
-1.31657
0.164977
0.0212132
-0.11573
0.0606782
-0.457718
0.0910677
-0.717449
0.109258
-0.860287
0.119498
-0.945653
0.12608
-1.01229
0.131307
-1.07937
0.135957
-1.15196
0.140298
-1.23235
-1.32038
0.144108
0.0223525
-0.138083
0.0594839
-0.494849
0.0859677
-0.743933
0.100684
-0.875003
0.108339
-0.953309
0.112909
-1.01686
0.116311
-1.08277
0.119121
-1.15477
0.121511
-1.23474
-1.32215
0.12328
0.0231568
-0.16124
0.0575428
-0.529235
0.0802997
-0.76669
0.0918085
-0.886512
0.0970844
-0.958585
0.0997466
-1.01952
0.10136
-1.08438
0.102338
-1.15575
0.102785
-1.23519
-1.3219
0.102533
0.0235977
-0.184837
0.0550323
-0.56067
0.0741816
-0.785839
0.0827251
-0.895056
0.0857942
-0.961654
0.0866282
-1.02035
0.0864791
-1.08423
0.0856306
-1.1549
0.0841495
-1.2337
-1.31967
0.0819195
0.0236643
-0.208502
0.052016
-0.589021
0.0677175
-0.801541
0.0735127
-0.900851
0.0745176
-0.962658
0.0735837
-1.01942
0.0716918
-1.08234
0.0690221
-1.15223
0.0656236
-1.23031
-1.31545
0.0614039
0.0233624
-0.231864
0.048566
-0.614225
0.0609972
-0.813972
0.064237
-0.904091
0.0632939
-0.961715
0.0606385
-1.01676
0.0570194
-1.07872
0.0525381
-1.14775
0.0472267
-1.22499
-1.30923
0.0410021
0.0227139
-0.254578
0.0447562
-0.636267
0.0540996
-0.823316
0.054952
-0.904943
0.0521549
-0.958918
0.0478146
-1.01242
0.0424817
-1.07339
0.0362039
-1.14147
0.0290023
-1.21779
-1.30097
0.0207416
0.0217527
-0.276331
0.0406567
-0.655171
0.047075
-0.829734
0.0457009
-0.903569
0.0411271
-0.954345
0.0351319
-1.00643
0.0280971
-1.06636
0.020032
-1.13341
0.0110149
-1.20878
-1.29049
0.000540445
0.0205198
-0.29685
0.0363331
-0.670984
0.0399814
-0.833382
0.0365198
-0.900107
0.0302331
-0.948058
0.0226074
-0.998802
0.0138837
-1.05763
0.00399592
-1.12352
-0.00673743
-1.19804
-1.2781
-0.0191313
0.0190587
-0.315909
0.0318456
-0.683771
0.0328713
-0.834408
0.0274393
-0.894675
0.0194907
-0.940109
0.0102504
-0.989562
-0.000175865
-1.04721
-0.0116857
-1.11201
-0.0243597
-1.18537
-1.26388
-0.0385809
0.0174122
-0.333321
0.0272483
-0.693608
0.025788
-0.832948
0.0184859
-0.887373
0.00890555
-0.930529
-0.00192869
-0.978728
-0.0138961
-1.03524
-0.0271238
-1.09878
-0.0416856
-1.17081
-1.2478
-0.0577601
0.01562
-0.348941
0.0225895
-0.700577
0.0187672
-0.829125
0.00967954
-0.878285
-0.00152462
-0.919325
-0.0137953
-0.966457
-0.0274199
-1.02161
-0.0423306
-1.08387
-0.0587154
-1.15442
-1.22989
-0.076627
0.0137188
-0.36266
0.0179112
-0.704769
0.0118365
-0.823051
0.00100819
-0.867457
-0.0115892
-0.906727
-0.0254709
-0.952575
-0.0406956
-1.00639
-0.0572723
-1.06729
-0.0754316
-1.13626
-1.21016
-0.0951604
0.0117419
-0.374402
0.0132507
-0.706278
0.0050058
-0.814806
-0.00736949
-0.855082
-0.0214872
-0.89261
-0.0369122
-0.93715
-0.0537067
-0.989594
-0.0719244
-1.04908
-0.091818
-1.11637
-1.18865
-0.113333
0.00971927
-0.384121
0.00864285
-0.705202
-0.00169007
-0.804473
-0.0155772
-0.841195
-0.031167
-0.87702
-0.0481011
-0.920216
-0.066437
-0.971258
-0.0862655
-1.02925
-0.107856
-1.09478
-1.16538
-0.131123
0.00767567
-0.391797
0.004128
-0.701654
-0.00807841
-0.792267
-0.023582
-0.825691
-0.0406117
-0.85999
-0.0590234
-0.901805
-0.0788714
-0.95141
-0.100277
-1.00784
-0.123529
-1.07153
-1.1404
-0.14851
0.00562997
-0.397427
-0.000215665
-0.695808
-0.0143341
-0.778148
-0.0313691
-0.808656
-0.0498107
-0.841549
-0.0696666
-0.881949
-0.0909953
-0.930081
-0.113944
-0.984894
-0.138819
-1.04665
-1.11375
-0.165471
0.00360097
-0.401028
-0.00475818
-0.687449
-0.0204269
-0.762479
-0.0389245
-0.790159
-0.0587526
-0.82172
-0.0800192
-0.860682
-0.102795
-0.907306
-0.12725
-0.960438
-0.153711
-1.02019
-1.08548
-0.18198
0.00162498
-0.402653
-0.00905813
-0.676766
-0.0263391
-0.745198
-0.0462394
-0.770258
-0.0674271
-0.800533
-0.0900698
-0.838039
-0.114257
-0.883119
-0.140182
-0.934513
-0.168186
-0.992187
-1.05565
-0.198011
-0.000274554
-0.402378
-0.0131906
-0.66385
-0.0320608
-0.726328
-0.0533088
-0.74901
-0.0758245
-0.778017
-0.0998077
-0.814056
-0.125369
-0.857557
-0.15273
-0.907153
-0.182228
-0.962689
-1.02431
-0.213569
-0.00239603
-0.399982
-0.0171716
-0.649074
-0.0375794
-0.70592
-0.0601271
-0.726463
-0.0839357
-0.754208
-0.109222
-0.78877
-0.136123
-0.830656
-0.164894
-0.878382
-0.195831
-0.931752
-0.991522
-0.228621
-0.00437436
-0.395608
-0.0209995
-0.632449
-0.0428837
-0.684036
-0.0666884
-0.702658
-0.0917523
-0.729145
-0.118303
-0.762219
-0.14651
-0.802449
-0.176668
-0.848224
-0.208948
-0.899471
-0.95754
-0.242931
-0.00626625
-0.389342
-0.0246717
-0.614044
-0.0479676
-0.66074
-0.0729873
-0.677638
-0.0992662
-0.702866
-0.127041
-0.734444
-0.15652
-0.77297
-0.188006
-0.816738
-0.22159
-0.865888
-0.922764
-0.256366
-0.00807784
-0.381264
-0.0281847
-0.593937
-0.0528265
-0.636098
-0.0790184
-0.651446
-0.10647
-0.675414
-0.135429
-0.705485
-0.166137
-0.742262
-0.198854
-0.784022
-0.233284
-0.831458
-0.885795
-0.270253
-0.00980944
-0.371454
-0.0315356
-0.572211
-0.0574569
-0.610177
-0.084777
-0.624126
-0.113358
-0.646833
-0.143458
-0.675385
-0.175339
-0.710381
-0.209172
-0.750189
-0.24486
-0.795769
-0.847238
-0.283418
-0.0114597
-0.359995
-0.0347214
-0.548949
-0.061856
-0.583042
-0.0902584
-0.595724
-0.119923
-0.617169
-0.15112
-0.644187
-0.184126
-0.677376
-0.219099
-0.715216
-0.256164
-0.758705
-0.807345
-0.296057
-0.0130266
-0.346968
-0.0377393
-0.524236
-0.0660214
-0.55476
-0.0954584
-0.566287
-0.126159
-0.586469
-0.158404
-0.611942
-0.192474
-0.643305
-0.228532
-0.679157
-0.266816
-0.72042
-0.766188
-0.307973
-0.0145081
-0.33246
-0.0405869
-0.498158
-0.069951
-0.525396
-0.100373
-0.535865
-0.13206
-0.554782
-0.165302
-0.5787
-0.200388
-0.608219
-0.237504
-0.642041
-0.276944
-0.680981
-0.723888
-0.319244
-0.0159018
-0.316558
-0.0432622
-0.470797
-0.0736427
-0.495016
-0.104999
-0.504509
-0.13762
-0.522161
-0.171806
-0.544514
-0.207854
-0.572171
-0.245973
-0.603922
-0.286487
-0.640467
-0.680516
-0.329859
-0.0172053
-0.299353
-0.0457634
-0.442239
-0.0770947
-0.463684
-0.109332
-0.472271
-0.142834
-0.488658
-0.17791
-0.509439
-0.214866
-0.535215
-0.253932
-0.564856
-0.295451
-0.598948
-0.636144
-0.339823
-0.0184157
-0.280937
-0.0480888
-0.412566
-0.0803053
-0.431468
-0.113369
-0.439208
-0.147698
-0.45433
-0.183606
-0.47353
-0.221413
-0.497408
-0.261368
-0.524901
-0.303822
-0.556495
-0.590839
-0.349127
-0.019529
-0.261408
-0.0502369
-0.381858
-0.083273
-0.398432
-0.117107
-0.405373
-0.152205
-0.419232
-0.188889
-0.436846
-0.227489
-0.458808
-0.268271
-0.484119
-0.31159
-0.513175
-0.544667
-0.357762
-0.0205386
-0.240869
-0.0522059
-0.350191
-0.0859968
-0.364641
-0.120544
-0.370827
-0.156352
-0.383424
-0.193751
-0.399447
-0.233085
-0.419474
-0.27463
-0.442574
-0.318746
-0.469059
-0.497696
-0.365717
-0.0214299
-0.21944
-0.0539948
-0.317626
-0.0884762
-0.33016
-0.123676
-0.335627
-0.160135
-0.346965
-0.198189
-0.361393
-0.238194
-0.379469
-0.280438
-0.40033
-0.325279
-0.424217
-0.449995
-0.372981
-0.0222476
-0.197192
-0.0556055
-0.284268
-0.090711
-0.295054
-0.126502
-0.299836
-0.16355
-0.309916
-0.202196
-0.322746
-0.24281
-0.338856
-0.285686
-0.357454
-0.331182
-0.378721
-0.401635
-0.379542
-0.0229919
-0.1742
-0.057039
-0.250221
-0.0927003
-0.259393
-0.129018
-0.263518
-0.166593
-0.272341
-0.205769
-0.28357
-0.246927
-0.297698
-0.290368
-0.314013
-0.336446
-0.332643
-0.35269
-0.385391
-0.0236505
-0.15055
-0.0582948
-0.215577
-0.0944434
-0.223244
-0.131224
-0.226737
-0.169263
-0.234302
-0.208904
-0.243929
-0.25054
-0.256063
-0.294478
-0.270075
-0.341064
-0.286057
-0.303233
-0.39052
-0.0242186
-0.126331
-0.0593724
-0.180423
-0.0959392
-0.186677
-0.133118
-0.189559
-0.171556
-0.195865
-0.211597
-0.203888
-0.253644
-0.214016
-0.298008
-0.225711
-0.345029
-0.239035
-0.253343
-0.39492
-0.0246939
-0.101637
-0.0602711
-0.144845
-0.097187
-0.149761
-0.134699
-0.152047
-0.17347
-0.157094
-0.213845
-0.163513
-0.256235
-0.171626
-0.300954
-0.180993
-0.348335
-0.191654
-0.203093
-0.398585
-0.0250751
-0.0765622
-0.0609907
-0.10893
-0.0981861
-0.112566
-0.135964
-0.114269
-0.175003
-0.118055
-0.215646
-0.12287
-0.258312
-0.12896
-0.303313
-0.135991
-0.35098
-0.143987
-0.152559
-0.401513
-0.0253614
-0.0512007
-0.0615306
-0.0727607
-0.0989359
-0.0751607
-0.136914
-0.0762908
-0.176154
-0.0788152
-0.216999
-0.0820251
-0.259871
-0.0860881
-0.305084
-0.0907783
-0.352962
-0.0961082
-0.101818
-0.403704
-0.0255526
-0.0256482
-0.0618907
-0.0364226
-0.099436
-0.0376154
-0.137548
-0.0381788
-0.176922
-0.0394412
-0.217901
-0.0410461
-0.260911
-0.0430785
-0.306265
-0.0454243
-0.354284
-0.048089
-0.0509416
-0.40516
-0.0256482
-3.92709e-10
-0.0620708
-5.77927e-10
-0.0996861
-5.94432e-10
-0.137865
-5.95467e-10
-0.177306
-6.04571e-10
-0.218352
-6.15383e-10
-0.261431
-6.28693e-10
-0.306855
-6.42013e-10
-0.354944
-6.54406e-10
-6.62813e-10
-0.405886
-0.0256482
0.0256482
-0.0620708
0.0364226
-0.0996861
0.0376154
-0.137865
0.0381788
-0.177306
0.0394412
-0.218352
0.0410461
-0.261431
0.0430785
-0.306855
0.0454243
-0.354944
0.048089
0.0509416
-0.405886
-0.0255526
0.0512007
-0.0618907
0.0727607
-0.099436
0.0751607
-0.137548
0.0762908
-0.176922
0.0788152
-0.217901
0.0820251
-0.260911
0.0860881
-0.306265
0.0907783
-0.354284
0.0961082
0.101818
-0.40516
-0.0253614
0.0765622
-0.0615306
0.10893
-0.0989359
0.112566
-0.136914
0.114269
-0.176154
0.118055
-0.216999
0.12287
-0.259871
0.12896
-0.305084
0.135991
-0.352962
0.143987
0.152559
-0.403704
-0.0250751
0.101637
-0.0609907
0.144845
-0.0981861
0.149761
-0.135964
0.152047
-0.175003
0.157094
-0.215646
0.163513
-0.258312
0.171626
-0.303313
0.180993
-0.35098
0.191654
0.203093
-0.401513
-0.0246939
0.126331
-0.0602711
0.180423
-0.097187
0.186677
-0.134699
0.189559
-0.17347
0.195865
-0.213845
0.203888
-0.256235
0.214016
-0.300954
0.225711
-0.348335
0.239035
0.253343
-0.398585
-0.0242186
0.15055
-0.0593724
0.215577
-0.0959392
0.223244
-0.133118
0.226737
-0.171556
0.234302
-0.211597
0.243929
-0.253644
0.256063
-0.298008
0.270075
-0.345029
0.286057
0.303233
-0.39492
-0.0236505
0.1742
-0.0582948
0.250221
-0.0944434
0.259393
-0.131224
0.263518
-0.169263
0.272341
-0.208904
0.28357
-0.25054
0.297698
-0.294478
0.314013
-0.341064
0.332643
0.35269
-0.39052
-0.0229919
0.197192
-0.057039
0.284268
-0.0927003
0.295054
-0.129018
0.299836
-0.166593
0.309916
-0.205769
0.322746
-0.246927
0.338856
-0.290368
0.357454
-0.336446
0.378721
0.401635
-0.385391
-0.0222476
0.21944
-0.0556055
0.317626
-0.090711
0.33016
-0.126502
0.335627
-0.16355
0.346965
-0.202196
0.361393
-0.24281
0.379469
-0.285686
0.40033
-0.331182
0.424217
0.449995
-0.379542
-0.0214299
0.240869
-0.0539948
0.350191
-0.0884762
0.364641
-0.123676
0.370827
-0.160135
0.383424
-0.198189
0.399447
-0.238194
0.419474
-0.280438
0.442574
-0.325279
0.469059
0.497696
-0.372981
-0.0205386
0.261408
-0.0522059
0.381858
-0.0859968
0.398432
-0.120544
0.405373
-0.156352
0.419232
-0.193751
0.436846
-0.233085
0.458808
-0.27463
0.484119
-0.318746
0.513175
0.544667
-0.365717
-0.019529
0.280937
-0.0502369
0.412566
-0.083273
0.431468
-0.117107
0.439208
-0.152205
0.45433
-0.188889
0.47353
-0.227489
0.497408
-0.268271
0.524901
-0.31159
0.556495
0.590839
-0.357762
-0.0184157
0.299353
-0.0480888
0.442239
-0.0803053
0.463684
-0.113369
0.472271
-0.147698
0.488658
-0.183606
0.509439
-0.221413
0.535215
-0.261368
0.564856
-0.303822
0.598948
0.636144
-0.349127
-0.0172053
0.316558
-0.0457634
0.470797
-0.0770947
0.495016
-0.109332
0.504509
-0.142834
0.522161
-0.17791
0.544514
-0.214866
0.572171
-0.253932
0.603922
-0.295451
0.640467
0.680516
-0.339823
-0.0159018
0.33246
-0.0432622
0.498158
-0.0736427
0.525396
-0.104999
0.535865
-0.13762
0.554782
-0.171806
0.5787
-0.207854
0.608219
-0.245973
0.642041
-0.286487
0.680981
0.723888
-0.329859
-0.0145081
0.346968
-0.0405869
0.524236
-0.069951
0.55476
-0.100373
0.566287
-0.13206
0.586469
-0.165302
0.611942
-0.200388
0.643305
-0.237504
0.679157
-0.276944
0.72042
0.766188
-0.319244
-0.0130266
0.359995
-0.0377393
0.548949
-0.0660214
0.583042
-0.0954584
0.595724
-0.126159
0.617169
-0.158404
0.644187
-0.192474
0.677376
-0.228532
0.715216
-0.266816
0.758705
0.807345
-0.307973
-0.0114597
0.371454
-0.0347214
0.572211
-0.061856
0.610177
-0.0902584
0.624126
-0.119923
0.646833
-0.15112
0.675385
-0.184126
0.710381
-0.219099
0.750189
-0.256164
0.795769
0.847238
-0.296057
-0.00980944
0.381264
-0.0315356
0.593937
-0.0574569
0.636098
-0.084777
0.651446
-0.113358
0.675414
-0.143458
0.705485
-0.175339
0.742262
-0.209172
0.784022
-0.24486
0.831458
0.885795
-0.283418
-0.00807784
0.389342
-0.0281847
0.614044
-0.0528265
0.66074
-0.0790184
0.677638
-0.10647
0.702866
-0.135429
0.734444
-0.166137
0.77297
-0.198854
0.816738
-0.233284
0.865888
0.922764
-0.270253
-0.00626625
0.395608
-0.0246717
0.632449
-0.0479676
0.684036
-0.0729873
0.702658
-0.0992662
0.729145
-0.127041
0.762219
-0.15652
0.802449
-0.188006
0.848224
-0.22159
0.899471
0.95754
-0.256366
-0.00437436
0.399982
-0.0209995
0.649074
-0.0428837
0.70592
-0.0666884
0.726463
-0.0917523
0.754208
-0.118303
0.78877
-0.14651
0.830656
-0.176668
0.878382
-0.208948
0.931752
0.991522
-0.242931
-0.00239603
0.402378
-0.0171716
0.66385
-0.0375794
0.726328
-0.0601271
0.74901
-0.0839357
0.778017
-0.109222
0.814056
-0.136123
0.857557
-0.164894
0.907153
-0.195831
0.962689
1.02431
-0.228621
-0.000274554
0.402653
-0.0131906
0.676766
-0.0320608
0.745198
-0.0533088
0.770258
-0.0758245
0.800533
-0.0998077
0.838039
-0.125369
0.883119
-0.15273
0.934513
-0.182228
0.992187
1.05565
-0.213569
0.00162498
0.401028
-0.00905813
0.687449
-0.0263391
0.762479
-0.0462394
0.790159
-0.0674271
0.82172
-0.0900698
0.860682
-0.114257
0.907306
-0.140182
0.960438
-0.168186
1.02019
1.08548
-0.198011
0.00360097
0.397427
-0.00475818
0.695808
-0.0204269
0.778148
-0.0389245
0.808656
-0.0587526
0.841549
-0.0800192
0.881949
-0.102795
0.930081
-0.12725
0.984894
-0.153711
1.04665
1.11375
-0.18198
0.00562997
0.391797
-0.000215665
0.701654
-0.0143341
0.792267
-0.0313691
0.825691
-0.0498107
0.85999
-0.0696666
0.901805
-0.0909953
0.95141
-0.113944
1.00784
-0.138819
1.07153
1.1404
-0.165471
0.00767567
0.384121
0.004128
0.705202
-0.00807841
0.804473
-0.023582
0.841195
-0.0406117
0.87702
-0.0590234
0.920216
-0.0788714
0.971258
-0.100277
1.02925
-0.123529
1.09478
1.16538
-0.14851
0.00971927
0.374402
0.00864285
0.706278
-0.00169007
0.814806
-0.0155772
0.855082
-0.031167
0.89261
-0.0481011
0.93715
-0.066437
0.989594
-0.0862655
1.04908
-0.107856
1.11637
1.18865
-0.131123
0.0117419
0.36266
0.0132507
0.704769
0.0050058
0.823051
-0.00736949
0.867457
-0.0214872
0.906727
-0.0369122
0.952575
-0.0537067
1.00639
-0.0719244
1.06729
-0.091818
1.13626
1.21016
-0.113333
0.0137188
0.348941
0.0179112
0.700577
0.0118365
0.829125
0.00100819
0.878285
-0.0115892
0.919325
-0.0254709
0.966457
-0.0406956
1.02161
-0.0572723
1.08387
-0.0754316
1.15442
1.22989
-0.0951604
0.01562
0.333321
0.0225895
0.693608
0.0187672
0.832948
0.00967954
0.887373
-0.00152462
0.930529
-0.0137953
0.978728
-0.0274199
1.03524
-0.0423306
1.09878
-0.0587154
1.17081
1.2478
-0.076627
0.0174122
0.315909
0.0272483
0.683771
0.025788
0.834408
0.0184859
0.894675
0.00890555
0.940109
-0.00192869
0.989562
-0.0138961
1.04721
-0.0271238
1.11201
-0.0416856
1.18537
1.26388
-0.0577601
0.0190587
0.29685
0.0318456
0.670984
0.0328713
0.833382
0.0274393
0.900107
0.0194907
0.948058
0.0102504
0.998802
-0.000175865
1.05763
-0.0116857
1.12352
-0.0243597
1.19804
1.2781
-0.0385809
0.0205198
0.276331
0.0363331
0.655171
0.0399814
0.829734
0.0365198
0.903569
0.0302331
0.954345
0.0226074
1.00643
0.0138837
1.06636
0.00399592
1.13341
-0.00673743
1.20878
1.29049
-0.0191313
0.0217527
0.254578
0.0406567
0.636267
0.047075
0.823316
0.0457009
0.904943
0.0411271
0.958918
0.0351319
1.01242
0.0280971
1.07339
0.020032
1.14147
0.0110149
1.21779
1.30097
0.000540445
0.0227139
0.231864
0.0447562
0.614225
0.0540996
0.813972
0.054952
0.904091
0.0521549
0.961715
0.0478146
1.01676
0.0424817
1.07872
0.0362039
1.14775
0.0290023
1.22499
1.30923
0.0207416
0.0233624
0.208502
0.048566
0.589021
0.0609972
0.801541
0.064237
0.900851
0.0632939
0.962658
0.0606385
1.01942
0.0570194
1.08234
0.0525381
1.15223
0.0472267
1.23031
1.31545
0.0410021
0.0236643
0.184837
0.052016
0.56067
0.0677175
0.785839
0.0735127
0.895056
0.0745176
0.961654
0.0735837
1.02035
0.0716918
1.08423
0.0690221
1.1549
0.0656236
1.2337
1.31967
0.0614039
0.0235977
0.16124
0.0550323
0.529235
0.0741816
0.76669
0.0827251
0.886512
0.0857942
0.958585
0.0866282
1.01952
0.0864791
1.08438
0.0856306
1.15575
0.0841495
1.23519
1.3219
0.0819195
0.0231568
0.138083
0.0575428
0.494849
0.0802997
0.743933
0.0918085
0.875003
0.0970844
0.953309
0.0997466
1.01686
0.10136
1.08277
0.102338
1.15477
0.102785
1.23474
1.32215
0.102533
0.0223525
0.11573
0.0594839
0.457718
0.0859677
0.717449
0.100684
0.860287
0.108339
0.945653
0.112909
1.01229
0.116311
1.07937
0.119121
1.15196
0.121511
1.23235
1.32038
0.12328
0.0212132
0.094517
0.0606782
0.418253
0.0910677
0.68706
0.109258
0.842097
0.119498
0.935413
0.12608
1.00571
0.131307
1.07414
0.135957
1.14731
0.140298
1.22801
1.31657
0.144108
0.0197818
0.0747352
0.061034
0.377
0.0954738
0.65262
0.117414
0.820156
0.130482
0.922346
0.139214
0.996973
0.146319
1.06703
0.152822
1.14081
0.159119
1.22171
1.31072
0.164977
0.0181085
0.0566267
0.060493
0.334616
0.0990479
0.614065
0.125014
0.79419
0.141196
0.906164
0.152256
0.985913
0.161313
1.05798
0.169688
1.13244
0.177946
1.21345
1.30281
0.185852
0.0162462
0.0403805
0.0590139
0.291848
0.101638
0.571441
0.131896
0.763933
0.151519
0.886541
0.165133
0.972299
0.176248
1.04686
0.186525
1.12216
0.19675
1.20323
1.29286
0.206702
0.0142529
0.0261276
0.0565943
0.249507
0.103082
0.524953
0.137872
0.729143
0.161305
0.863107
0.177755
0.955849
0.19107
1.03355
0.203299
1.10993
0.215503
1.19102
1.28087
0.227494
0.012199
0.0139286
0.0532872
0.208419
0.103217
0.475023
0.142729
0.689631
0.170373
0.835463
0.189999
0.936223
0.205712
1.01783
0.219966
1.09568
0.234172
1.17682
1.26684
0.248198
0.0101717
0.00375693
0.0492081
0.169382
0.101887
0.422345
0.14623
0.645288
0.178504
0.803189
0.20171
0.913017
0.220081
0.999463
0.236477
1.07928
0.252723
1.16057
1.25079
0.26878
0.00826636
-0.00450944
0.0445271
0.133122
0.0989651
0.367907
0.148119
0.596134
0.185432
0.765877
0.212685
0.885764
0.234054
0.978094
0.252764
1.06057
0.271114
1.14222
1.23269
0.289208
0.00656502
-0.0110745
0.0394468
0.10024
0.0943769
0.312977
0.148126
0.542385
0.190837
0.723166
0.222665
0.853936
0.247464
0.953295
0.268732
1.0393
0.28929
1.12166
1.21254
0.309442
0.00511398
-0.0161884
0.0341836
0.0711701
0.0881428
0.259017
0.145984
0.484544
0.194352
0.674798
0.231323
0.816965
0.260084
0.924534
0.284248
1.01514
0.307178
1.09873
1.19027
0.329448
0.00391515
-0.0201036
0.0289602
0.0461251
0.0804311
0.207546
0.141463
0.423512
0.195566
0.620695
0.238255
0.774276
0.27161
0.89118
0.299124
0.987621
0.324675
1.07318
1.16579
0.349153
0.00293785
-0.0230414
0.0239962
0.0250667
0.0715924
0.15995
0.134413
0.360691
0.194047
0.56106
0.242976
0.725348
0.28164
0.852515
0.313094
0.956168
0.341639
1.04464
1.13892
0.368512
0.00214164
-0.0251831
0.0194792
0.00772915
0.0621231
0.117306
0.12485
0.297965
0.189384
0.496527
0.24492
0.669812
0.289656
0.807779
0.325795
0.920028
0.357825
1.01261
1.10936
0.38738
0.00149315
-0.0266762
0.0155322
-0.00630987
0.0525724
0.0802662
0.113046
0.237491
0.181248
0.428324
0.243467
0.607593
0.294999
0.756248
0.336715
0.878312
0.372964
0.97636
1.07674
0.405588
0.000970629
-0.0276468
0.0121974
-0.0175367
0.0434563
0.0490073
0.0995846
0.181363
0.169509
0.3584
0.23799
0.539111
0.296876
0.697362
0.345193
0.829994
0.386445
0.935107
1.04014
0.423047
0.000560232
-0.0282071
0.00944765
-0.0264241
0.0351891
0.0232659
0.0853076
0.131244
0.154368
0.28934
0.227973
0.465506
0.29434
0.630994
0.350397
0.773938
0.397749
0.887755
0.999257
0.438629
0.000250881
-0.028458
0.0072173
-0.0333905
0.0280208
0.00246237
0.0711565
0.0881085
0.136501
0.223995
0.213134
0.388873
0.286493
0.557636
0.351155
0.709276
0.405749
0.833161
0.951149
0.453857
3.25087e-05
-0.0284905
0.00542937
-0.0387874
0.0220165
-0.0141247
0.0579677
0.0521573
0.117064
0.164899
0.193722
0.312214
0.27245
0.478908
0.346779
0.634947
0.40817
0.77177
0.895678
0.463641
-0.000132559
-0.0283579
0.00400606
-0.042926
0.0170962
-0.0272149
0.0463027
0.0229507
0.0974796
0.113722
0.17068
0.239014
0.251986
0.397602
0.335113
0.55182
0.407051
0.699832
0.839075
0.463655
-0.000238662
-0.0281192
0.00287232
-0.046037
0.0131028
-0.0374453
0.0363854
-0.000331909
0.0790873
0.0710204
0.145612
0.172489
0.22577
0.317444
0.314957
0.462634
0.398981
0.615808
0.7741
0.463955
-0.000307337
-0.0278119
0.00195641
-0.0483007
0.00985417
-0.045343
0.0281546
-0.0186324
0.0628063
0.0363688
0.120403
0.114892
0.19547
0.242377
0.286255
0.371849
0.380866
0.521197
0.69864
0.456325
-0.000359495
-0.0274524
0.00119018
-0.0498504
0.00717044
-0.0513233
0.0213744
-0.0328363
0.0489731
0.00877012
0.0966242
0.0672413
0.163562
0.175439
0.250468
0.284943
0.351574
0.420092
0.612073
0.438142
-0.000412801
-0.0270396
0.000511382
-0.0507746
0.0048871
-0.055699
0.0157328
-0.043682
0.0374118
-0.0129089
0.0752171
0.029436
0.132658
0.117998
0.210499
0.207102
0.311694
0.318897
0.515662
0.408105
-0.000480779
-0.0265588
-0.000132052
-0.0511233
0.00286286
-0.0586939
0.0109149
-0.051734
0.0276774
-0.0296714
0.0565816
0.000531824
0.104559
0.0700205
0.169908
0.141753
0.264271
0.224533
0.413433
0.3665
-0.000573954
-0.0259849
-0.000787201
-0.0509101
0.000988517
-0.0604696
0.00665115
-0.0573967
0.0193012
-0.0423215
0.0407377
-0.0209047
0.0798355
0.0309226
0.131968
0.0896211
0.214251
0.14225
0.312213
0.315471
-0.000703312
-0.0252816
-0.00147248
-0.0501409
-0.000831317
-0.0611108
0.00273752
-0.0609655
0.011922
-0.0515059
0.0273756
-0.0363583
0.0582692
2.90801e-05
0.098862
0.0490283
0.16639
0.0747221
0.219812
0.258791
-0.000869003
-0.0244126
-0.00220298
-0.0488069
-0.00265261
-0.0606612
-0.000942463
-0.0626757
0.00528661
-0.057735
0.0159675
-0.0470392
0.0394645
-0.0234679
0.0710399
0.0174529
0.123292
0.0224698
0.142098
0.201005
-0.00106885
-0.0233437
-0.00297975
-0.046896
-0.00447298
-0.059168
-0.00438319