/*--------------------------------*- C++ -*----------------------------------*\
  =========                 |
  \\      /  F ield         | OpenFOAM: The Open Source CFD Toolbox
   \\    /   O peration     | Website:  https://openfoam.org
    \\  /    A nd           | Version:  9
     \\/     M anipulation  |
\*---------------------------------------------------------------------------*/
FoamFile
{
    format      ascii;
    class       volVectorField;
    location    "11";
    object      U;
}
// * * * * * * * * * * * * * * * * * * * * * * * * * * * * * * * * * * * * * //

dimensions      [0 1 -1 0 0 0 0];

internalField   nonuniform List<vector> 
8500
(
(-0.00897851 0.0035241 0)
(-0.0392798 0.00601863 -7.13971e-23)
(-0.0825401 0.00686947 -3.93117e-24)
(-0.122437 0.00705688 7.50535e-37)
(-0.16385 0.00721766 -1.12105e-23)
(-0.200689 0.00712492 9.33444e-24)
(-0.243463 0.00784679 -6.46886e-23)
(-0.276511 0.00713021 -1.02523e-22)
(-0.322778 0.00912777 -9.6148e-23)
(-0.356445 0.00747968 -5.08364e-24)
(-0.00926944 0.0104711 2.05706e-22)
(-0.0392572 0.0179196 6.67274e-23)
(-0.081688 0.0204671 2.68663e-22)
(-0.120448 0.0210207 0)
(-0.160521 0.021483 0)
(-0.195226 0.021175 1.90825e-23)
(-0.23605 0.0232946 4.87555e-23)
(-0.265122 0.021093 1.09522e-22)
(-0.308441 0.0270428 7.21163e-23)
(-0.335874 0.0220058 2.03484e-23)
(-0.00983959 0.0171201 -1.82793e-22)
(-0.0392233 0.0294164 0)
(-0.0800319 0.033644 -2.52788e-22)
(-0.116558 0.0345387 0)
(-0.154015 0.0352408 -4.49189e-23)
(-0.184543 0.0346386 3.74019e-23)
(-0.221627 0.0380048 0)
(-0.242952 0.0341937 0)
(-0.280744 0.0439526 0)
(-0.296335 0.0352836 0)
(-0.0106667 0.0232906 3.68069e-22)
(-0.0392 0.0402554 -2.68167e-22)
(-0.0776642 0.0461308 -6.34681e-23)
(-0.110937 0.0473262 -3.9756e-22)
(-0.144624 0.0481607 -4.02763e-22)
(-0.169108 0.0471652 3.82855e-23)
(-0.200945 0.0514871 -3.19664e-23)
(-0.21114 0.0459492 3.80384e-22)
(-0.241475 0.059244 -1.43843e-24)
(-0.240744 0.0466349 4.09195e-22)
(-0.0117199 0.0288282 -3.68069e-22)
(-0.0392181 0.0502063 -3.47027e-22)
(-0.074715 0.0576744 9.55908e-23)
(-0.103827 0.0591165 5.31052e-22)
(-0.132749 0.0599244 -4.54126e-23)
(-0.149581 0.0584579 6.03332e-22)
(-0.175016 0.0632574 0)
(-0.171232 0.0559845 -4.36535e-22)
(-0.192938 0.0723899 -9.72024e-23)
(-0.172814 0.0555813 -5.6971e-22)
(-0.0129632 0.0336121 9.29543e-23)
(-0.0393142 0.0590695 5.76817e-22)
(-0.0713416 0.0680426 -4.47166e-22)
(-0.0955252 0.0696682 -6.99136e-25)
(-0.118858 0.0702335 -4.0695e-22)
(-0.126763 0.0682829 1.52005e-22)
(-0.144985 0.0728472 -6.41688e-23)
(-0.125005 0.064045 5.45944e-22)
(-0.13763 0.0829392 -9.43027e-23)
(-0.0964018 0.0620193 3.25249e-22)
(-0.0143581 0.0375609 4.66027e-23)
(-0.0395286 0.0666831 0)
(-0.0677147 0.077028 -1.83389e-24)
(-0.0863652 0.0787705 0)
(-0.103441 0.078818 7.20618e-22)
(-0.101531 0.0764748 -6.03323e-22)
(-0.111988 0.0798043 0)
(-0.0742878 0.0700478 -2.24416e-24)
(-0.0779202 0.0903572 0)
(-0.0145469 0.0662808 0)
(-0.0158683 0.0406356 -7.5244e-22)
(-0.0399015 0.0729275 -7.78039e-23)
(-0.0640032 0.0844556 5.77173e-22)
(-0.0766897 0.0862447 1.07901e-22)
(-0.0869575 0.085446 -7.246e-22)
(-0.074764 0.0829506 -4.50036e-22)
(-0.0769564 0.083686 -6.42884e-23)
(-0.0207002 0.0741497 5.38317e-22)
(-0.016072 0.0942077 -9.40197e-23)
(0.0718399 0.0682245 8.36621e-23)
(-0.0174626 0.0428392 8.47091e-22)
(-0.0404687 0.0777289 -6.24717e-22)
(-0.0603572 0.0901887 -1.93617e-22)
(-0.0668188 0.0919453 1.06922e-22)
(-0.0697638 0.0899154 7.23722e-22)
(-0.0472536 0.0877271 6.79296e-22)
(-0.0404565 0.0842322 -6.42615e-23)
(0.0351596 0.0761768 1.0632e-22)
(0.0452679 0.0943687 -1.90361e-22)
(0.164655 0.067989 8.12209e-23)
(-0.0191183 0.044214 7.61874e-22)
(-0.041257 0.0810595 6.25133e-22)
(-0.0568897 0.0941356 -9.07134e-22)
(-0.0570208 0.0957672 -1.07187e-22)
(-0.0520348 0.0920484 0)
(-0.0194589 0.0907659 0)
(-0.0028513 0.0816154 0)
(0.0938574 0.0762921 -1.69814e-21)
(0.104987 0.0901137 -7.84229e-22)
(0.267075 0.0668758 6.27984e-22)
(-0.0208228 0.0448362 -1.52847e-21)
(-0.0422772 0.0829364 0)
(-0.0536546 0.0962556 2.07647e-21)
(-0.0474756 0.0976551 8.60337e-22)
(-0.0338293 0.0919045 8.98572e-23)
(0.00882471 0.0918351 0)
(0.0363854 0.0761579 -1.04787e-21)
(0.156133 0.075726 8.46066e-22)
(0.16571 0.0804567 7.84218e-22)
(0.383356 0.0661636 -6.27961e-22)
(-0.0225745 0.044808 8.62762e-22)
(-0.0435172 0.0834175 -7.89332e-23)
(-0.0506246 0.0965668 -1.03976e-21)
(-0.038108 0.0975162 -9.68569e-22)
(-0.0150792 0.0897139 0)
(0.0382185 0.0908424 1.19599e-21)
(0.0794675 0.0683005 4.83914e-24)
(0.222917 0.0756719 7.24104e-22)
(0.235239 0.0665136 8.69279e-22)
(0.515927 0.0662921 -6.17021e-22)
(-0.0243818 0.0442482 -4.24564e-26)
(-0.0449339 0.0825978 1.35057e-21)
(-0.047714 0.0951553 -1.30573e-22)
(-0.0285791 0.0953023 7.53336e-22)
(0.00481796 0.0856222 4.51334e-22)
(0.0698715 0.0879103 2.99456e-22)
(0.130116 0.0592969 1.04308e-21)
(0.29558 0.0758462 -9.4071e-22)
(0.325189 0.0530062 -5.88406e-22)
(0.661549 0.0675076 4.58575e-22)
(-0.0262564 0.0432769 0)
(-0.046439 0.0806077 -1.11243e-21)
(-0.0447162 0.0921539 -1.30994e-22)
(-0.0183544 0.0911495 2.55416e-25)
(0.0270044 0.0798239 7.21068e-22)
(0.105824 0.0830673 -1.04155e-21)
(0.192669 0.051384 1.02935e-21)
(0.376629 0.0748308 -1.05949e-22)
(0.44448 0.0462993 0)
(0.810387 0.070541 0)
(-0.0282077 0.0420091 9.78692e-23)
(-0.047895 0.0775974 -1.282e-21)
(-0.0412577 0.0877168 0)
(-0.00659429 0.0853021 -1.07725e-22)
(0.0531196 0.0727374 8.95816e-23)
(0.149141 0.0764005 0)
(0.270629 0.0469821 -1.0294e-21)
(0.469967 0.0722795 -8.2571e-22)
(0.590864 0.0495226 1.84872e-22)
(0.949404 0.0761072 -1.55362e-22)
(-0.0302387 0.0405469 -9.8166e-23)
(-0.0491062 0.0737223 1.36258e-21)
(-0.0367968 0.0820418 0)
(0.0079043 0.0780842 -9.69737e-22)
(0.0853086 0.0650039 8.9472e-23)
(0.20368 0.0686267 -1.18442e-21)
(0.365282 0.0474379 -1.25288e-22)
(0.578956 0.0705236 9.30555e-22)
(0.749349 0.0607865 0)
(1.0675 0.0836872 1.20117e-21)
(-0.0323408 0.0389741 -1.4924e-21)
(-0.0498088 0.0691309 -8.10205e-23)
(-0.0306205 0.075362 -1.31025e-22)
(0.0267007 0.0699058 1.08377e-22)
(0.12619 0.0574542 -1.42717e-21)
(0.273332 0.0615059 1.18441e-21)
(0.475171 0.0526715 1.00414e-21)
(0.70172 0.0729015 8.21299e-22)
(0.90019 0.0759561 1.42569e-21)
(1.1589 0.0915737 -1.05042e-21)
(-0.0344862 0.037344 1.5911e-21)
(-0.0496711 0.0639566 0)
(-0.0218454 0.0679325 1.18912e-21)
(0.0516551 0.0612605 -1.08576e-22)
(0.1786 0.0510722 2.852e-21)
(0.36052 0.057486 0)
(0.596105 0.0620044 -1.00412e-21)
(0.829062 0.0804363 -4.20577e-24)
(1.02852 0.0917818 -1.60075e-21)
(1.2235 0.098226 1.47144e-22)
(-0.0366151 0.0356738 0)
(-0.0482957 0.0583162 1.30734e-21)
(-0.00943491 0.0600205 -1.05785e-21)
(0.0848351 0.0527481 0)
(0.245043 0.0470114 -1.42483e-21)
(0.464396 0.0586435 0)
(0.721194 0.0746671 9.84936e-22)
(0.948779 0.0915497 -8.17062e-22)
(1.12812 0.106566 -1.359e-21)
(1.26502 0.102752 -1.1255e-21)
(-0.0386317 0.0339482 -2.01305e-22)
(-0.0452239 0.0523036 -1.1421e-21)
(0.00778144 0.0519022 0)
(0.128368 0.0451489 0)
(0.326799 0.0465365 0)
(0.580019 0.0656219 -1.46551e-22)
(0.842006 0.0894825 -9.8571e-22)
(1.05174 0.104227 -1.01747e-22)
(1.1997 0.119387 1.35899e-21)
(1.28902 0.104627 1.26625e-21)
(-0.0404015 0.0321263 0)
(-0.0399428 0.0459904 -1.32492e-21)
(0.0310913 0.0438746 0)
(0.184164 0.0395181 0)
(0.422873 0.0506825 0)
(0.69948 0.0774719 1.45556e-22)
(0.951137 0.104973 -1.2051e-21)
(1.1341 0.117129 9.66548e-23)
(1.24785 0.129245 9.64552e-22)
(1.30196 0.10362 1.06841e-21)
(-0.0417752 0.0301715 0)
(-0.0318703 0.0394074 1.32492e-21)
(0.0618803 0.0363071 -1.07895e-21)
(0.253401 0.0371578 0)
(0.529401 0.0597023 -1.42099e-21)
(0.814517 0.0923862 0)
(1.04416 0.120015 9.63414e-22)
(1.19617 0.129213 -7.77876e-22)
(1.27842 0.135462 -1.29208e-21)
(1.32026 0.113608 -1.06421e-21)
(-0.0425931 0.0280349 1.68516e-21)
(-0.0203689 0.0325515 0)
(0.101572 0.0297615 9.45257e-22)
(0.335817 0.039287 1.10571e-22)
(0.64029 0.0728319 2.84224e-21)
(0.918905 0.108619 0)
(1.11975 0.134016 -9.39724e-22)
(1.24066 0.139619 -1.54122e-21)
(1.29924 0.142038 -1.07537e-21)
(1.32536 0.118711 -5.05749e-24)
(-0.0426628 0.0256521 -1.78983e-21)
(-0.0047401 0.0254306 8.59168e-23)
(0.151432 0.0251158 1.34431e-22)
(0.429144 0.0464738 -1.1119e-22)
(0.749008 0.0886973 -1.42126e-21)
(1.00928 0.124952 1.14955e-21)
(1.17875 0.146663 9.39721e-22)
(1.27162 0.148907 7.63342e-22)
(1.31048 0.147214 1.22871e-21)
(1.32543 0.124327 -1.08846e-21)
(-0.0417796 0.0229628 1.06046e-22)
(0.015815 0.0181051 1.29138e-21)
(0.212207 0.0235452 0)
(0.52926 0.0582944 -7.73484e-22)
(0.850322 0.105957 -9.0132e-23)
(1.08469 0.140674 -1.14955e-21)
(1.22329 0.158037 1.12879e-22)
(1.29179 0.156989 6.37194e-22)
(1.31576 0.152139 0)
(1.3229 0.129192 9.68435e-22)
(-0.0397263 0.0199134 -1.09355e-22)
(0.0421957 0.010793 -1.37842e-21)
(0.283664 0.0262027 0)
(0.63115 0.0736029 1.03612e-22)
(0.941026 0.123648 -9.03941e-23)
(1.14574 0.155471 0)
(1.25571 0.168241 -8.98259e-22)
(1.30403 0.164241 -7.31678e-22)
(1.31673 0.156606 -1.40576e-22)
(1.31773 0.133857 -1.1825e-22)
(-0.0362556 0.0164576 0)
(0.0753258 0.00401234 -1.58817e-21)
(0.364294 0.0337084 1.42398e-22)
(0.730144 0.0911438 -5.62097e-24)
(1.01974 0.141195 -7.09228e-22)
(1.19385 0.169245 -1.25758e-21)
(1.27838 0.177471 1.01288e-21)
(1.31038 0.170826 0)
(1.31472 0.160911 0)
(1.3118 0.138411 0)
(-0.0310582 0.0125671 2.37501e-24)
(0.115981 -0.00132408 1.33158e-21)
(0.451424 0.0458537 1.44167e-22)
(0.822748 0.109953 1.00244e-21)
(1.08633 0.158291 6.18351e-22)
(1.23075 0.182027 -1.22561e-22)
(1.29337 0.185913 8.72915e-22)
(1.3125 0.176971 -5.91545e-22)
(1.31083 0.165106 -6.66397e-22)
(1.30494 0.142928 5.35838e-22)
(-0.0237358 0.0082562 8.25927e-22)
(0.164546 -0.00398166 9.2945e-23)
(0.541729 0.0617881 -1.15222e-21)
(0.906842 0.129406 -9.03006e-22)
(1.14143 0.174791 0)
(1.25823 0.193912 1.10752e-21)
(1.30241 0.193761 -1.73439e-23)
(1.3116 0.182824 7.61874e-22)
(1.30561 0.169292 4.65988e-22)
(1.2978 0.147464 -4.24635e-22)
(-0.0138003 0.00361987 -1.90075e-21)
(0.220787 -0.00270034 0)
(0.631879 0.0804894 2.32147e-21)
(0.981448 0.149132 7.93326e-22)
(1.18607 0.190643 9.1036e-23)
(1.27793 0.205028 0)
(1.30694 0.20118 -8.48894e-22)
(1.30855 0.188515 6.44398e-22)
(1.29956 0.173512 5.01322e-22)
(1.29035 0.15204 -3.95198e-22)
(-0.00070715 -0.00112294 9.61589e-22)
(0.283767 0.00340181 7.49941e-22)
(0.719026 0.10112 -1.31181e-21)
(1.04638 0.168938 1.1791e-22)
(1.22142 0.205857 0)
(1.2913 0.215515 0)
(1.30804 0.208316 0)
(1.30399 0.19413 -1.27001e-21)
(1.29291 0.177802 -5.01326e-22)
(1.28276 0.156661 3.95179e-22)
(0.0160571 -0.00558344 8.89349e-22)
(0.351963 0.0145673 -7.4402e-22)
(0.801015 0.123113 7.63753e-23)
(1.10191 0.188731 0)
(1.2487 0.220476 6.88165e-22)
(1.29959 0.225506 4.5746e-22)
(1.30658 0.215285 5.26038e-23)
(1.29834 0.199729 -5.47796e-23)
(1.28584 0.182173 1.19766e-22)
(1.27501 0.161323 -4.84137e-23)
(0.0368479 -0.00918844 -1.00951e-21)
(0.42352 0.0304331 9.41037e-23)
(0.876389 0.146094 6.04736e-22)
(1.1486 0.20845 -1.68718e-22)
(1.26904 0.234561 -5.16195e-22)
(1.3038 0.235123 -6.50107e-22)
(1.30317 0.222173 5.1441e-23)
(1.29188 0.205346 3.13126e-22)
(1.27843 0.186629 0)
(1.26713 0.166012 -4.2937e-23)
(0.0617981 -0.011244 -6.53397e-23)
(0.496517 0.0502924 0)
(0.944307 0.169797 5.92494e-24)
(1.1871 0.228038 0)
(1.2835 0.248179 6.70609e-22)
(1.30476 0.244468 -4.98572e-22)
(1.29826 0.229036 0)
(1.28479 0.210998 1.03529e-23)
(1.27074 0.191161 0)
(1.2591 0.170708 0)
(0.0908029 -0.0110478 -1.30556e-22)
(0.569148 0.0733911 8.53925e-22)
(1.00442 0.194024 -6.88787e-22)
(1.21814 0.24743 1.13998e-22)
(1.29299 0.261397 -3.06453e-22)
(1.30311 0.253624 -5.31856e-23)
(1.29219 0.23591 0)
(1.27717 0.216686 2.16411e-22)
(1.26277 0.195755 5.56751e-23)
(1.25089 0.175388 1.59131e-22)
(0.123522 -0.00801628 -5.4894e-22)
(0.639823 0.0990914 -3.44908e-22)
(1.05672 0.218629 -1.1337e-22)
(1.24243 0.266558 4.54981e-22)
(1.29829 0.274276 3.75568e-23)
(1.29936 0.262654 4.86131e-22)
(1.28516 0.242808 0)
(1.2691 0.2224 -2.60864e-22)
(1.25454 0.20039 4.84405e-23)
(1.24248 0.180028 -3.50805e-22)
(0.159421 -0.00178846 -5.48938e-22)
(0.707188 0.126895 3.58325e-22)
(1.10146 0.243493 -4.30128e-24)
(1.26067 0.285357 -5.29694e-22)
(1.30005 0.286866 -2.80138e-22)
(1.29389 0.271596 -2.74716e-23)
(1.27733 0.249727 2.29377e-23)
(1.2606 0.228119 2.91243e-22)
(1.24604 0.20504 -2.47614e-24)
(1.23387 0.184599 1.14105e-22)
(0.197827 0.00773842 -2.82358e-22)
(0.770128 0.156397 0)
(1.13903 0.268509 -3.08759e-22)
(1.2735 0.303774 0)
(1.29882 0.299201 -3.52743e-22)
(1.28698 0.280471 3.045e-23)
(1.2688 0.256651 0)
(1.25169 0.233818 0)
(1.23724 0.20968 0)
(1.22503 0.189071 0)
(0.237979 0.0204481 2.47643e-22)
(0.827773 0.187228 1.19979e-22)
(1.16989 0.293566 3.0876e-22)
(1.28154 0.32177 0)
(1.29502 0.311301 0)
(1.27883 0.289282 -1.27145e-23)
(1.2596 0.263554 4.89661e-23)
(1.24236 0.239466 5.61145e-23)
(1.22815 0.214277 5.19627e-23)
(1.21596 0.193412 -8.60172e-24)
(0.279077 0.0360914 -4.47566e-24)
(0.879537 0.219029 -1.12295e-22)
(1.19449 0.318539 5.14204e-24)
(1.28532 0.339324 6.09812e-24)
(1.289 0.323172 -9.3306e-24)
(1.2696 0.298012 3.55437e-24)
(1.24979 0.2704 -4.2739e-23)
(1.23261 0.245027 -5.24418e-23)
(1.21875 0.218794 -3.93374e-23)
(1.20668 0.197583 1.57611e-24)
(0.320312 0.054364 0)
(0.925145 0.251466 -1.13063e-22)
(1.21322 0.343306 -3.50142e-24)
(1.28531 0.356414 7.13168e-24)
(1.28104 0.334805 1.28182e-37)
(1.25938 0.306631 -9.0294e-38)
(1.23938 0.277146 -3.84351e-23)
(1.22243 0.250464 -4.59167e-23)
(1.20902 0.223185 -3.62332e-23)
(1.1972 0.20155 0)
(0.3609 0.0749539 3.23938e-22)
(0.964528 0.284256 9.27223e-23)
(1.22646 0.367748 3.07527e-22)
(1.28193 0.373007 -1.39184e-23)
(1.27135 0.346174 0)
(1.24823 0.315097 1.09119e-23)
(1.22838 0.283744 2.51882e-23)
(1.21182 0.255735 4.93792e-23)
(1.19895 0.227401 2.80426e-23)
(1.1875 0.20529 6.88414e-24)
(0.4001 0.0975698 -2.88678e-22)
(0.997704 0.317144 0)
(1.23461 0.391737 -2.90702e-22)
(1.2755 0.38906 0)
(1.26011 0.357239 -2.96372e-23)
(1.23622 0.323357 2.46778e-23)
(1.21678 0.290144 0)
(1.20075 0.260798 0)
(1.18856 0.231402 0)
(1.17754 0.208786 0)
(0.437229 0.121943 5.71995e-22)
(1.02478 0.349892 -3.67762e-22)
(1.23804 0.415145 -7.07599e-23)
(1.26634 0.404526 -2.91233e-22)
(1.24744 0.367947 -2.71442e-22)
(1.22336 0.33135 1.90326e-23)
(1.20459 0.296292 -1.58913e-23)
(1.18924 0.265603 1.33968e-22)
(1.17789 0.235162 2.25398e-24)
(1.16725 0.212015 9.90707e-23)
(0.47168 0.147812 -5.71996e-22)
(1.0459 0.382275 -4.4395e-22)
(1.23708 0.437843 9.86597e-23)
(1.25471 0.41935 3.48392e-22)
(1.23346 0.378235 -1.68905e-23)
(1.20968 0.339012 2.93836e-22)
(1.19181 0.302132 0)
(1.17726 0.270086 -1.52692e-22)
(1.16696 0.238667 -2.38435e-23)
(1.1566 0.214976 -1.25539e-22)
(0.502933 0.174908 1.36193e-22)
(1.06125 0.414077 7.58805e-22)
(1.23205 0.459696 -4.4384e-22)
(1.24083 0.433469 -8.44595e-23)
(1.21824 0.388033 -2.04441e-22)
(1.19521 0.346273 4.49287e-23)
(1.17844 0.307608 -2.6582e-23)
(1.16484 0.274182 1.49578e-22)
(1.15576 0.241889 -2.48898e-23)
(1.14571 0.21765 6.7632e-23)
(0.530559 0.20294 6.89346e-23)
(1.07105 0.445082 0)
(1.22325 0.480569 2.73577e-23)
(1.2249 0.446811 0)
(1.20183 0.397261 4.08138e-22)
(1.17997 0.353058 -2.66973e-22)
(1.16451 0.312661 0)
(1.15208 0.277857 -1.71019e-23)
(1.1442 0.244763 0)
(1.13463 0.219975 0)
(0.554224 0.231594 -1.05901e-21)
(1.07551 0.47507 -8.22115e-23)
(1.21094 0.500324 5.4171e-22)
(1.20706 0.459295 6.26617e-23)
(1.18432 0.405833 -4.2459e-22)
(1.16403 0.359291 -1.51622e-22)
(1.15006 0.31722 -2.08699e-23)
(1.13897 0.281085 8.9058e-23)
(1.13226 0.247249 -1.79625e-23)
(1.12338 0.221913 9.82525e-24)
(0.573684 0.260531 1.17892e-21)
(1.07488 0.503817 -7.11092e-22)
(1.19538 0.518819 -1.57345e-22)
(1.18746 0.470829 7.729e-23)
(1.16579 0.413661 3.33376e-22)
(1.14743 0.364893 2.30624e-22)
(1.1351 0.321229 -1.78356e-23)
(1.12549 0.28383 -1.90009e-23)
(1.11999 0.249311 -2.51931e-23)
(1.11197 0.223427 9.10938e-24)
(0.588787 0.289398 9.77445e-22)
(1.06938 0.531098 6.90244e-22)
(1.17679 0.535902 -6.62995e-22)
(1.16626 0.481309 -7.02828e-23)
(1.1464 0.420669 0)
(1.13016 0.369786 0)
(1.11962 0.324628 0)
(1.11166 0.286047 -2.31674e-22)
(1.10743 0.250913 -5.71328e-23)
(1.1004 0.22448 2.71178e-23)
(0.599461 0.317831 -1.90322e-21)
(1.05929 0.556694 0)
(1.15537 0.551409 1.41748e-21)
(1.14368 0.490646 3.76482e-22)
(1.12612 0.426763 0)
(1.11221 0.3739 0)
(1.1037 0.327354 -1.1857e-22)
(1.0975 0.287694 9.7331e-23)
(1.09461 0.252021 5.71333e-23)
(1.08871 0.225044 -2.71167e-23)
(0.605713 0.345464 1.02629e-21)
(1.04489 0.5804 -8.25062e-23)
(1.13138 0.565168 -6.69519e-22)
(1.11985 0.498718 -4.12403e-22)
(1.10499 0.431862 2.98139e-23)
(1.09366 0.377156 1.57138e-22)
(1.08735 0.329349 5.15389e-23)
(1.08305 0.28873 1.72977e-23)
(1.08155 0.252601 1.26631e-24)
(1.07693 0.225089 1.79392e-23)
(0.607624 0.371928 -1.20034e-23)
(1.02651 0.602014 1.00782e-21)
(1.1051 0.577068 -8.83976e-23)
(1.09477 0.505361 2.21211e-22)
(1.08309 0.435894 1.09169e-22)
(1.07456 0.379489 -3.77144e-23)
(1.07064 0.330557 6.06867e-23)
(1.06834 0.289117 -2.32329e-23)
(1.06831 0.252618 -8.06011e-24)
(1.06509 0.224588 -1.26335e-23)
(0.605341 0.396862 0)
(1.0044 0.621287 -8.83475e-22)
(1.07679 0.587014 -7.65484e-23)
(1.06857 0.510456 -6.77517e-23)
(1.06051 0.438754 -1.123e-22)
(1.05497 0.380833 -8.37854e-23)
(1.0536 0.330926 -4.47399e-23)
(1.0534 0.288816 0)
(1.05489 0.252038 0)
(1.05322 0.223507 0)
(0.599067 0.419956 8.60206e-23)
(0.978683 0.637892 -7.19305e-22)
(1.04678 0.594929 0)
(1.0414 0.513927 -8.25674e-23)
(1.03732 0.440353 1.03171e-23)
(1.03497 0.381128 0)
(1.03631 0.33041 3.91938e-23)
(1.03829 0.287794 9.83147e-23)
(1.04135 0.250824 -2.06891e-23)
(1.04137 0.221802 1.73775e-23)
(0.589028 0.440984 -6.33269e-23)
(0.949633 0.651555 7.7129e-22)
(1.01532 0.600664 0)
(1.01339 0.515724 -1.15792e-22)
(1.01362 0.440606 3.38881e-24)
(1.01463 0.380318 1.3574e-22)
(1.01882 0.328967 1.63311e-23)
(1.02304 0.28602 -1.11985e-22)
(1.02769 0.248943 0)
(1.02957 0.219431 -2.16238e-22)
(0.575424 0.4597 -8.80178e-22)
(0.917722 0.662162 -4.28517e-23)
(0.982572 0.604024 -1.06233e-23)
(0.9847 0.515779 8.78732e-24)
(0.9895 0.439441 1.84308e-22)
(0.994036 0.378349 -1.35741e-22)
(1.0012 0.32656 -2.03697e-22)
(1.00769 0.283462 -1.79623e-22)
(1.01398 0.246367 -3.07986e-22)
(1.01797 0.216389 1.89234e-22)
(0.558393 0.475743 9.32385e-22)
(0.883483 0.669671 0)
(0.948771 0.604888 -2.41483e-24)
(0.955469 0.514021 1.32504e-24)
(0.965073 0.436797 -4.75358e-22)
(0.973271 0.375175 0)
(0.983507 0.323159 2.03699e-22)
(0.992271 0.280082 -4.09167e-23)
(1.00031 0.243068 3.50019e-22)
(1.00684 0.212715 -3.52988e-23)
(0.538189 0.488729 0)
(0.847295 0.673932 1.27303e-22)
(0.914121 0.603187 8.1295e-25)
(0.925855 0.510384 0)
(0.94045 0.432623 2.91051e-22)
(0.952426 0.370758 0)
(0.965795 0.318738 -3.14632e-22)
(0.976839 0.275842 2.20542e-22)
(0.986851 0.239006 4.27979e-22)
(0.996488 0.208476 3.37435e-22)
(0.51528 0.498479 -3.13671e-23)
(0.809507 0.674809 -1.01556e-22)
(0.878853 0.598863 0)
(0.896014 0.504804 0)
(0.915747 0.426877 0)
(0.931592 0.365068 5.08425e-23)
(0.948127 0.313278 2.29727e-22)
(0.961485 0.270716 3.55352e-23)
(0.973801 0.234124 -4.27982e-22)
(0.986805 0.203621 -3.78926e-22)
(0.490085 0.504824 0)
(0.770464 0.672188 1.88915e-22)
(0.843206 0.591872 0)
(0.86611 0.497233 0)
(0.891088 0.41953 0)
(0.910864 0.358084 -5.97871e-23)
(0.930579 0.306762 5.23479e-22)
(0.946331 0.264709 -1.19576e-22)
(0.96124 0.228439 -4.13825e-22)
(0.97712 0.19666 -4.1721e-22)
(0.463015 0.507634 0)
(0.730529 0.665992 -1.88916e-22)
(0.807423 0.582188 4.39254e-22)
(0.836309 0.487635 0)
(0.866598 0.41056 7.20614e-22)
(0.890336 0.349789 0)
(0.913238 0.299179 -4.2464e-22)
(0.931491 0.257834 3.80497e-22)
(0.948917 0.222404 5.41455e-22)
(0.966146 0.19166 4.15983e-22)
(0.434483 0.506816 -3.66149e-22)
(0.690065 0.656172 0)
(0.771749 0.5698 -3.74358e-22)
(0.806781 0.475988 -5.36823e-23)
(0.842405 0.399958 -1.54644e-21)
(0.870107 0.340177 0)
(0.896198 0.290514 5.31547e-22)
(0.917032 0.250015 3.79129e-23)
(0.936949 0.215303 5.75752e-22)
(0.955585 0.185211 2.3078e-24)
(0.404899 0.50232 4.03124e-22)
(0.649437 0.642714 -3.03504e-23)
(0.736427 0.554719 -7.74573e-23)
(0.777697 0.462288 -6.4071e-23)
(0.818638 0.387726 8.25829e-22)
(0.85028 0.329252 -7.40317e-22)
(0.879543 0.280786 -5.3155e-22)
(0.902958 0.24135 -4.18415e-22)
(0.925179 0.207615 -6.50495e-22)
(0.945011 0.178531 6.04099e-22)
(0.374668 0.494134 -5.01752e-23)
(0.609009 0.62563 -7.81318e-22)
(0.701697 0.53697 0)
(0.74923 0.446544 5.62183e-22)
(0.795429 0.373877 6.18302e-23)
(0.830959 0.317023 7.40321e-22)
(0.863361 0.269994 -7.35331e-23)
(0.88934 0.231791 -4.2931e-22)
(0.913754 0.199134 0)
(0.934738 0.171147 -5.38928e-22)
(0.344188 0.482283 5.84537e-23)
(0.569135 0.604965 8.22508e-22)
(0.667794 0.516599 0)
(0.721549 0.428784 -1.23437e-23)
(0.772906 0.358436 6.86749e-23)
(0.812247 0.303513 0)
(0.847731 0.258166 6.81336e-22)
(0.876213 0.22139 4.9086e-22)
(0.902692 0.189993 9.34104e-23)
(0.92482 0.163217 -7.8462e-23)
(0.313846 0.466831 0)
(0.530166 0.580791 1.25712e-21)
(0.63495 0.49367 -1.11236e-22)
(0.694824 0.40905 6.781e-23)
(0.751198 0.34144 6.1021e-22)
(0.794245 0.288753 1.05423e-21)
(0.832731 0.245327 -7.73204e-22)
(0.863637 0.210156 0)
(0.892065 0.180172 0)
(0.91534 0.1547 0)
(0.284015 0.447878 2.47633e-24)
(0.492437 0.553211 -1.0429e-21)
(0.603386 0.468266 1.24889e-22)
(0.669219 0.387399 -8.73216e-22)
(0.730432 0.322936 -5.28587e-22)
(0.777054 0.272783 1.79566e-22)
(0.818438 0.23151 -7.79304e-22)
(0.851668 0.198126 5.13633e-22)
(0.881924 0.169711 5.52843e-22)
(0.906354 0.14563 -4.30471e-22)
(0.255054 0.425562 -7.37338e-22)
(0.456268 0.522347 -8.20329e-23)
(0.573318 0.440484 1.15324e-21)
(0.644892 0.363905 9.01039e-22)
(0.710729 0.302984 0)
(0.760769 0.255652 -1.00637e-21)
(0.804925 0.216758 -4.12255e-23)
(0.840362 0.185334 -6.6107e-22)
(0.872325 0.15863 -3.8764e-22)
(0.897907 0.136028 3.42543e-22)
(0.227303 0.400064 1.7692e-21)
(0.421957 0.48834 0)
(0.54495 0.41044 -2.39162e-21)
(0.621996 0.338654 -7.88614e-22)
(0.692208 0.281653 -9.33245e-23)
(0.745484 0.237417 0)
(0.792263 0.201118 8.12442e-22)
(0.829773 0.171821 -6.45416e-22)
(0.863318 0.146963 -4.89165e-22)
(0.890039 0.125925 3.72936e-22)
(0.201074 0.371608 -9.31932e-22)
(0.389781 0.451349 -8.21882e-22)
(0.518484 0.378262 1.39319e-21)
(0.600676 0.311749 -1.28052e-22)
(0.674981 0.259025 0)
(0.731285 0.218145 0)
(0.780518 0.184643 0)
(0.819954 0.157631 1.31598e-21)
(0.854953 0.134743 4.89166e-22)
(0.882784 0.115357 -3.72935e-22)
(0.176641 0.340415 -9.69984e-22)
(0.360006 0.411585 8.18794e-22)
(0.49411 0.344093 8.62196e-23)
(0.581069 0.283304 0)
(0.659155 0.235189 -8.06213e-22)
(0.718255 0.197911 -5.36937e-22)
(0.769755 0.167394 -5.95647e-23)
(0.810956 0.142813 1.04246e-22)
(0.847276 0.122009 -1.29891e-22)
(0.876174 0.10436 5.17822e-23)
(0.154239 0.306693 1.10123e-21)
(0.332886 0.369301 -1.10517e-22)
(0.472003 0.308097 -9.04067e-22)
(0.563302 0.253448 2.00809e-22)
(0.644826 0.210247 6.00203e-22)
(0.70647 0.176794 7.6386e-22)
(0.76003 0.149437 -6.16773e-23)
(0.802826 0.12742 -3.3647e-22)
(0.84033 0.108804 0)
(0.870236 0.0929786 4.86104e-23)
(0.134093 0.270667 7.55715e-23)
(0.308648 0.324763 0)
(0.452318 0.270457 -2.86823e-23)
(0.547492 0.222319 0)
(0.632086 0.184306 -8.6246e-22)
(0.696 0.154884 6.47171e-22)
(0.751398 0.130843 0)
(0.795607 0.11151 9.01394e-24)
(0.834155 0.0951761 0)
(0.864993 0.0812558 0)
(0.116412 0.232597 1.56765e-22)
(0.287493 0.278243 -1.06851e-21)
(0.43519 0.231367 8.48236e-22)
(0.533742 0.190069 -1.45655e-22)
(0.621012 0.157485 3.73361e-22)
(0.686905 0.132273 1.02342e-22)
(0.743906 0.111687 0)
(0.789339 0.0951424 -2.77879e-22)
(0.828789 0.0811747 -7.39212e-23)
(0.860465 0.0692389 -2.13352e-22)
(0.101383 0.192766 6.70838e-22)
(0.269594 0.23002 -1.58486e-21)
(0.420734 0.191031 1.45909e-22)
(0.522143 0.156853 -6.08956e-22)
(0.611675 0.129905 -6.83817e-23)
(0.679241 0.10906 -6.62761e-22)
(0.737595 0.0920488 0)
(0.784057 0.0783844 3.80099e-22)
(0.824263 0.0668537 -6.77471e-23)
(0.856667 0.0569749 4.86907e-22)
(0.0891651 0.151472 -6.70838e-22)
(0.255096 0.180388 5.81453e-22)
(0.40905 0.149664 -1.00853e-22)
(0.51277 0.122838 7.14291e-22)
(0.604133 0.101698 3.91647e-22)
(0.673053 0.0853481 4.05209e-23)
(0.732502 0.072012 -3.38328e-23)
(0.779792 0.0613036 -4.25657e-22)
(0.820605 0.05227 3.86081e-24)
(0.853614 0.0445113 -1.61746e-22)
(0.079887 0.109025 3.51127e-22)
(0.244119 0.129647 0)
(0.400217 0.107486 4.14311e-22)
(0.505687 0.0881941 0)
(0.598435 0.0729971 5.49649e-23)
(0.668379 0.0612451 -4.57667e-23)
(0.728656 0.0516624 0)
(0.776571 0.0439701 0)
(0.81784 0.0374818 0)
(0.851316 0.0318965 0)
(0.0736468 0.0657493 -3.076e-22)
(0.236751 0.0781089 -1.18357e-22)
(0.394295 0.0647259 -4.14311e-22)
(0.500938 0.0530983 0)
(0.594616 0.0439411 0)
(0.665247 0.0368603 2.06791e-23)
(0.72608 0.0310878 -8.24654e-23)
(0.774412 0.0264549 -9.77138e-23)
(0.815986 0.0225474 -9.10185e-23)
(0.849779 0.0191777 1.46811e-23)
(0.0705102 0.0219722 -5.56913e-24)
(0.233052 0.0260899 1.27686e-22)
(0.391324 0.0216144 -5.7004e-24)
(0.498556 0.0177298 1.9671e-23)
(0.5927 0.0146709 -7.74666e-24)
(0.663676 0.0123057 0)
(0.724788 0.0103777 6.51995e-23)
(0.773329 0.00883048 9.77139e-23)
(0.815055 0.00752551 6.91547e-23)
(0.849009 0.00639905 1.03151e-23)
(0.0705102 -0.0219722 -5.56913e-24)
(0.233052 -0.0260899 1.27686e-22)
(0.391324 -0.0216144 -5.7004e-24)
(0.498556 -0.0177298 1.9671e-23)
(0.5927 -0.0146709 -7.74666e-24)
(0.663676 -0.0123057 0)
(0.724788 -0.0103777 5.74378e-23)
(0.773329 -0.00883047 1.0421e-22)
(0.815055 -0.00752551 7.35396e-23)
(0.849009 -0.00639905 0)
(0.0736468 -0.0657493 -3.94653e-22)
(0.236751 -0.0781089 -1.53517e-22)
(0.394295 -0.0647259 -4.39176e-22)
(0.500938 -0.0530983 2.05679e-23)
(0.594616 -0.0439411 0)
(0.665247 -0.0368603 -2.06791e-23)
(0.72608 -0.0310878 -4.79335e-23)
(0.774412 -0.0264549 -9.77138e-23)
(0.815986 -0.0225474 -5.60607e-23)
(0.849779 -0.0191777 -1.46811e-23)
(0.079887 -0.109025 3.51127e-22)
(0.244119 -0.129647 0)
(0.400217 -0.107486 4.14311e-22)
(0.505687 -0.0881941 0)
(0.598435 -0.0729971 5.49649e-23)
(0.668379 -0.0612451 -4.57667e-23)
(0.728656 -0.0516624 0)
(0.776571 -0.0439701 0)
(0.81784 -0.0374818 0)
(0.851316 -0.0318965 0)
(0.0891651 -0.151472 -6.70838e-22)
(0.255096 -0.180388 4.54169e-22)
(0.40905 -0.149664 1.00853e-22)
(0.51277 -0.122838 4.89123e-22)
(0.604133 -0.101698 5.12064e-22)
(0.673053 -0.0853481 -4.05209e-23)
(0.732502 -0.072012 3.38328e-23)
(0.779792 -0.0613036 -3.34542e-22)
(0.820605 -0.05227 -3.86081e-24)
(0.853614 -0.0445113 -2.71556e-22)
(0.101383 -0.192766 6.70838e-22)
(0.269594 -0.23002 5.49234e-22)
(0.420734 -0.191031 -1.45909e-22)
(0.522143 -0.156853 -5.94457e-22)
(0.611675 -0.129905 4.97092e-23)
(0.679241 -0.10906 -6.62761e-22)
(0.737595 -0.0920488 0)
(0.784057 -0.0783844 3.80099e-22)
(0.824263 -0.0668537 6.77471e-23)
(0.856667 -0.0569749 3.731e-22)
(0.116412 -0.232597 -1.56765e-22)
(0.287493 -0.278243 1.06851e-21)
(0.43519 -0.231367 6.63859e-22)
(0.533742 -0.190069 1.45655e-22)
(0.621012 -0.157485 4.66528e-22)
(0.686905 -0.132273 -1.49235e-22)
(0.743906 -0.111687 6.51838e-23)
(0.789339 -0.0951424 -4.54129e-22)
(0.828789 -0.0811747 7.39212e-23)
(0.860465 -0.0692389 -2.13352e-22)
(0.134093 -0.270667 -7.55715e-23)
(0.308648 -0.324763 0)
(0.452318 -0.270457 -2.86823e-23)
(0.547492 -0.222319 0)
(0.632086 -0.184306 -8.6246e-22)
(0.696 -0.154884 6.47171e-22)
(0.751398 -0.130843 0)
(0.795607 -0.11151 9.01394e-24)
(0.834155 -0.0951761 0)
(0.864993 -0.0812558 0)
(0.154239 -0.306693 1.10123e-21)
(0.332886 -0.369301 1.10517e-22)
(0.472003 -0.308097 -6.36305e-22)
(0.563302 -0.253448 -1.29961e-22)
(0.644826 -0.210247 1.01223e-21)
(0.70647 -0.176794 4.52696e-22)
(0.76003 -0.149437 6.16773e-23)
(0.802826 -0.12742 -4.2037e-22)
(0.84033 -0.108804 7.0377e-23)
(0.870236 -0.0929786 -4.86104e-23)
(0.176641 -0.340415 -1.23248e-21)
(0.360006 -0.411585 8.24974e-22)
(0.49411 -0.344093 7.72329e-23)
(0.581069 -0.283304 -1.35205e-22)
(0.659155 -0.235189 -8.06213e-22)
(0.718255 -0.197911 -6.79616e-22)
(0.769755 -0.167394 5.95647e-23)
(0.810956 -0.142813 -5.84605e-23)
(0.847276 -0.122009 1.29891e-22)
(0.876174 -0.10436 -5.17822e-23)
(0.201074 -0.371608 -9.31932e-22)
(0.389781 -0.451349 -8.21882e-22)
(0.518484 -0.378262 1.08357e-21)
(0.600676 -0.311749 1.28052e-22)
(0.674981 -0.259025 0)
(0.731285 -0.218145 0)
(0.780518 -0.184643 0)
(0.819954 -0.157631 1.31598e-21)
(0.854953 -0.134743 4.89166e-22)
(0.882784 -0.115357 -3.72935e-22)
(0.227303 -0.400064 1.7692e-21)
(0.421957 -0.48834 0)
(0.54495 -0.41044 -2.39162e-21)
(0.621996 -0.338654 -9.01043e-22)
(0.692208 -0.281653 0)
(0.745484 -0.237417 0)
(0.792263 -0.201118 8.12442e-22)
(0.829773 -0.171821 -6.45416e-22)
(0.863318 -0.146963 -4.89165e-22)
(0.890039 -0.125925 3.72936e-22)
(0.255054 -0.425562 -9.37208e-22)
(0.456268 -0.522347 8.20329e-23)
(0.573318 -0.440484 1.15324e-21)
(0.644892 -0.363905 1.00663e-21)
(0.710729 -0.302984 -8.76511e-23)
(0.760769 -0.255652 -1.00637e-21)
(0.804925 -0.216758 -4.12255e-23)
(0.840362 -0.185334 -5.16764e-22)
(0.872325 -0.15863 -5.08688e-22)
(0.897907 -0.136028 3.42543e-22)
(0.284015 -0.447878 -2.47633e-24)
(0.492437 -0.553211 -1.20133e-21)
(0.603386 -0.468266 -1.24889e-22)
(0.669219 -0.387399 -6.76546e-22)
(0.730432 -0.322936 -5.39103e-22)
(0.777054 -0.272783 -1.82443e-22)
(0.818438 -0.23151 -7.63116e-22)
(0.851668 -0.198126 6.64195e-22)
(0.881924 -0.169711 3.43482e-22)
(0.906354 -0.14563 -2.54616e-22)
(0.313846 -0.466831 0)
(0.530166 -0.580791 9.87103e-22)
(0.63495 -0.49367 1.11236e-22)
(0.694824 -0.40905 6.781e-23)
(0.751198 -0.34144 6.1021e-22)
(0.794245 -0.288753 8.34183e-22)
(0.832731 -0.245327 -6.74196e-22)
(0.863637 -0.210156 7.09111e-23)
(0.892065 -0.180172 0)
(0.91534 -0.1547 0)
(0.344188 -0.482283 -5.84537e-23)
(0.569135 -0.604965 8.22508e-22)
(0.667794 -0.516599 0)
(0.721549 -0.428784 1.53122e-22)
(0.772906 -0.358436 -6.86749e-23)
(0.812247 -0.303513 0)
(0.847731 -0.258166 6.81336e-22)
(0.876213 -0.22139 4.9086e-22)
(0.902692 -0.189993 -9.34104e-23)
(0.92482 -0.163217 7.8462e-23)
(0.374668 -0.494134 5.01752e-23)
(0.609009 -0.62563 -8.63692e-22)
(0.701697 -0.53697 0)
(0.74923 -0.446544 7.11158e-22)