/*--------------------------------*- C++ -*----------------------------------*\
  =========                 |
  \\      /  F ield         | OpenFOAM: The Open Source CFD Toolbox
   \\    /   O peration     | Website:  https://openfoam.org
    \\  /    A nd           | Version:  9
     \\/     M anipulation  |
\*---------------------------------------------------------------------------*/
FoamFile
{
    format      ascii;
    class       volVectorField;
    location    "56.3";
    object      U;
}
// * * * * * * * * * * * * * * * * * * * * * * * * * * * * * * * * * * * * * //

dimensions      [0 1 -1 0 0 0 0];

internalField   nonuniform List<vector> 
8500
(
(-0.00648194 0.00258547 0)
(-0.0291115 0.00445646 -6.16063e-23)
(-0.0611382 0.00491418 -3.38752e-24)
(-0.088932 0.00474676 6.42083e-37)
(-0.116325 0.00442658 -9.44915e-24)
(-0.136732 0.00382094 7.86786e-24)
(-0.160619 0.00376344 -5.32972e-23)
(-0.171468 0.00245274 -8.24842e-23)
(-0.191724 0.00347681 -7.55161e-23)
(-0.198818 0.00120112 -3.91716e-24)
(-0.00677552 0.00771581 1.77756e-22)
(-0.0293693 0.0133183 5.75647e-23)
(-0.0610182 0.0146976 2.31065e-22)
(-0.0882567 0.0142046 0)
(-0.115069 0.0132504 0)
(-0.1345 0.0114474 1.58511e-23)
(-0.157822 0.0112743 4.00623e-23)
(-0.166954 0.00735309 8.80438e-23)
(-0.1867 0.0104525 5.68612e-23)
(-0.191579 0.00352299 1.56774e-23)
(-0.00735456 0.0126923 -1.5796e-22)
(-0.0298811 0.0219592 0)
(-0.0607822 0.0242577 -2.17445e-22)
(-0.0869139 0.023453 0)
(-0.112568 0.0218682 -3.78546e-23)
(-0.130042 0.0188984 3.15197e-23)
(-0.152232 0.0185817 0)
(-0.157885 0.012087 0)
(-0.176651 0.0173324 0)
(-0.17712 0.00545918 0)
(-0.00820321 0.0174192 3.17662e-22)
(-0.0306393 0.0302376 -2.31223e-22)
(-0.0604385 0.0334478 -5.45381e-23)
(-0.0849201 0.0323527 -3.40152e-22)
(-0.108843 0.0301367 -3.41618e-22)
(-0.123373 0.0260614 3.18015e-23)
(-0.143856 0.0255257 -2.65526e-23)
(-0.144174 0.016569 3.06769e-22)
(-0.161552 0.0240675 1.94868e-26)
(-0.155414 0.00681135 3.09211e-22)
(-0.00929917 0.0218104 -3.17662e-22)
(-0.0316329 0.03802 -2.98943e-22)
(-0.059998 0.0421249 8.2062e-23)
(-0.0822989 0.0407653 4.53975e-22)
(-0.103917 0.0379051 -3.86726e-23)
(-0.114518 0.0328294 5.05418e-22)
(-0.132685 0.03191 0)
(-0.125675 0.0207421 -3.51384e-22)
(-0.1413 0.0306223 -7.49718e-23)
(-0.126237 0.00749333 -4.29553e-22)
(-0.0106152 0.0257932 8.01236e-23)
(-0.0328474 0.045184 4.97102e-22)
(-0.0594723 0.0501506 -3.84337e-22)
(-0.079079 0.0485544 -2.95922e-25)
(-0.0978087 0.0450154 -3.44621e-22)
(-0.103512 0.0391024 1.27781e-22)
(-0.118687 0.0374896 -5.33648e-23)
(-0.102185 0.024575 4.395e-22)
(-0.115675 0.0369439 -7.51453e-23)
(-0.0889283 0.00765153 2.46044e-22)
(-0.0121211 0.0293102 4.0146e-23)
(-0.034265 0.0516212 0)
(-0.0588698 0.057392 -1.56667e-24)
(-0.0752899 0.0555873 0)
(-0.0905183 0.0513048 6.11129e-22)
(-0.0903916 0.0447896 -5.05914e-22)
(-0.101767 0.041964 0)
(-0.0734433 0.0280698 -1.12476e-24)
(-0.0843286 0.0428145 0)
(-0.0420932 0.00789558 0)
(-0.0137858 0.0323218 -6.47708e-22)
(-0.035865 0.0572393 -6.69417e-23)
(-0.0581917 0.0637247 4.95981e-22)
(-0.0709547 0.0617352 9.19878e-23)
(-0.0820098 0.0566117 -6.14993e-22)
(-0.0751761 0.0498146 -3.78899e-22)
(-0.0817061 0.0449725 -5.36552e-23)
(-0.0391602 0.0313139 4.36028e-22)
(-0.0467994 0.0475087 -7.54561e-23)
(0.0166813 0.00927357 6.235e-23)
(-0.0155795 0.0348066 7.29208e-22)
(-0.0376225 0.0619635 -5.38324e-22)
(-0.057426 0.0690361 -1.66297e-22)
(-0.0660787 0.0668738 9.17457e-23)
(-0.0721855 0.0607836 6.14926e-22)
(-0.0578403 0.0541312 5.71211e-22)
(-0.0580358 0.0461043 -5.37874e-23)
(0.00103933 0.0344887 8.7271e-23)
(-0.0028804 0.0502205 -1.51281e-22)
(0.0913739 0.0123002 6.3645e-23)
(-0.0174755 0.0367613 6.55695e-22)
(-0.0395071 0.0657378 5.38644e-22)
(-0.0565407 0.073229 -7.80691e-22)
(-0.0606331 0.0708835 -9.20554e-23)
(-0.0608481 0.0636791 0)
(-0.0382709 0.057741 0)
(-0.029968 0.0451533 0)
(0.048195 0.0376146 -1.38135e-21)
(0.0471595 0.0500673 -6.35114e-22)
(0.185694 0.0175347 4.82702e-22)
(-0.0194518 0.0381996 -1.31566e-21)
(-0.0414804 0.0685259 0)
(-0.0554746 0.0762259 1.78745e-21)
(-0.0545366 0.0736532 7.39399e-22)
(-0.0476559 0.0651724 7.69657e-23)
(-0.0160748 0.06058 0)
(0.00349606 0.042327 -8.80563e-22)
(0.10365 0.0410294 6.89297e-22)
(0.10497 0.0457221 6.35105e-22)
(0.301267 0.0254599 -4.82684e-22)
(-0.0214913 0.0391499 7.4285e-22)
(-0.0434915 0.0703108 -6.80325e-23)
(-0.0541259 0.0779729 -8.95467e-22)
(-0.0476321 0.0750882 -8.32295e-22)
(-0.032174 0.0652602 0)
(0.00962748 0.0623924 1.01774e-21)
(0.0440586 0.0381198 5.16126e-25)
(0.16822 0.045537 5.94261e-22)
(0.175814 0.0374036 7.12803e-22)
(0.436509 0.0351964 -4.78409e-22)
(-0.023582 0.0396519 4.5704e-26)
(-0.0454721 0.0710935 1.16684e-21)
(-0.0523367 0.0784422 -1.12712e-22)
(-0.0396006 0.0750971 6.49939e-22)
(-0.0138791 0.0640347 3.88565e-22)
(0.0400477 0.062955 2.58816e-22)
(0.0944962 0.0333869 8.78241e-22)
(0.242323 0.0510021 -7.73255e-22)
(0.267956 0.0290317 -4.86101e-22)
(0.585346 0.0455102 3.51396e-22)
(-0.0257159 0.039753 0)
(-0.0473294 0.070892 -9.61057e-22)
(-0.0498918 0.0776393 -1.13209e-22)
(-0.02993 0.0736158 1.63089e-24)
(0.00805331 0.0615789 6.19769e-22)
(0.0767036 0.0621752 -8.89726e-22)
(0.15796 0.0297275 8.72841e-22)
(0.326536 0.055939 -8.87273e-23)
(0.387897 0.0265365 0)
(0.737464 0.0563557 0)
(-0.0278872 0.0395049 8.45149e-23)
(-0.0489363 0.0697393 -1.11e-21)
(-0.0464996 0.0756122 0)
(-0.0179261 0.0706848 -9.17278e-23)
(0.0348255 0.0580401 7.73737e-23)
(0.12171 0.0599352 0)
(0.236829 0.0291722 -8.74728e-22)
(0.422342 0.0592092 -6.84072e-22)
(0.533439 0.0333096 1.49476e-22)
(0.880688 0.0684714 -1.25617e-22)
(-0.030087 0.0389547 -8.49588e-23)
(-0.0501257 0.0676869 1.17974e-21)
(-0.0417498 0.0724313 0)
(-0.0026869 0.0664632 -8.39352e-22)
(0.0679947 0.0537454 7.7417e-23)
(0.177736 0.0565582 -1.01956e-21)
(0.331631 0.0330669 -1.0552e-22)
(0.53163 0.0621053 7.72374e-22)
(0.69168 0.0480641 0)
(1.00444 0.0816256 9.51409e-22)
(-0.0322947 0.03814 -1.29339e-21)
(-0.0506871 0.0647989 -7.02119e-23)
(-0.0350905 0.0681896 -1.13663e-22)
(0.0169537 0.0612133 9.40159e-23)
(0.109519 0.0492804 -1.23579e-21)
(0.24762 0.05329 1.01954e-21)
(0.440576 0.0414313 8.5884e-22)
(0.653294 0.0676724 6.84012e-22)
(0.844783 0.0670377 1.18579e-21)
(1.10253 0.0944417 -8.32357e-22)
(-0.0344745 0.0370887 1.37893e-21)
(-0.050354 0.0611419 0)
(-0.0258304 0.0630207 1.03315e-21)
(0.0424403 0.055287 -9.42943e-23)
(0.161642 0.0454658 2.47072e-21)
(0.333378 0.0521442 0)
(0.559787 0.053551 -8.58822e-22)
(0.780339 0.0775493 -1.83542e-24)
(0.978022 0.0869223 -1.32873e-21)
(1.17379 0.105472 1.20146e-22)
(-0.0365717 0.035817 0)
(-0.0487979 0.0567828 1.13687e-21)
(-0.0131341 0.0570993 -9.19142e-22)
(0.0754604 0.049152 0)
(0.226522 0.0433606 -1.23493e-21)
(0.434611 0.0551519 0)
(0.683361 0.0686752 8.43762e-22)
(0.902035 0.0908083 -6.8215e-22)
(1.08391 0.105755 -1.13018e-21)
(1.22109 0.113723 -9.07169e-22)
(-0.0385057 0.034326 -1.75145e-22)
(-0.045629 0.0517929 -9.93104e-22)
(0.00398391 0.0506406 0)
(0.11786 0.0434631 0)
(0.30551 0.0442091 0)
(0.547476 0.0632951 -1.26003e-22)
(0.803915 0.0858256 -8.45853e-22)
(1.00908 0.105607 -8.6287e-23)
(1.16169 0.122369 1.13017e-21)
(1.24982 0.118458 1.0205e-21)
(-0.0401675 0.0326067 0)
(-0.0403947 0.0462461 -1.15435e-21)
(0.0266606 0.0439135 0)
(0.17144 0.0391626 0)
(0.398166 0.0491493 0)
(0.665184 0.0760949 1.2511e-22)
(0.914393 0.103651 -1.03124e-21)
(1.09653 0.120574 7.95303e-23)
(1.21503 0.135545 8.02688e-22)
(1.26692 0.119057 8.73996e-22)
(-0.0414337 0.030655 0)
(-0.0325665 0.0402042 1.15434e-21)
(0.0561793 0.0372836 -9.40129e-22)
(0.237523 0.037499 0)
(0.5015 0.0586838 -1.23259e-21)
(0.780019 0.0920651 0)
(1.01001 0.120955 8.24779e-22)
(1.16362 0.134638 -6.55419e-22)
(1.24961 0.14419 -1.0745e-21)
(1.29171 0.129641 -8.69108e-22)
(-0.0421638 0.028457 1.47405e-21)
(-0.0215475 0.0337188 0)
(0.0939231 0.0313096 8.23692e-22)
(0.316283 0.0397757 9.63021e-23)
(0.610216 0.0723368 2.46511e-21)
(0.885619 0.109529 0)
(1.0888 0.137021 -8.03249e-22)
(1.21244 0.146757 -1.29923e-21)
(1.2743 0.152397 -8.96676e-22)
(1.30098 0.135724 -5.29317e-24)
(-0.0421852 0.0259855 -1.56558e-21)
(-0.00666584 0.0268562 7.5124e-23)
(0.14121 0.0268543 1.17118e-22)
(0.406102 0.0468165 -9.68707e-23)
(0.718126 0.0888976 -1.23252e-21)
(0.97813 0.127176 9.90281e-22)
(1.15108 0.151437 8.03245e-22)
(1.2471 0.157417 6.43812e-22)
(1.28858 0.158843 1.02358e-21)
(1.30424 0.141493 -8.97045e-22)
(-0.0413073 0.0232129 9.28457e-23)
(0.0128548 0.0197255 1.12933e-21)
(0.19896 0.0250949 0)
(0.50347 0.0585155 -6.73207e-22)
(0.819859 0.10702 -7.82911e-23)
(1.05609 0.144176 -9.90273e-22)
(1.19868 0.164255 9.58539e-23)
(1.27026 0.166576 5.37084e-22)
(1.29635 0.16454 0)
(1.30426 0.146502 7.9851e-22)
(-0.0393227 0.0201114 -9.60344e-23)
(0.0378961 0.0125608 -1.20553e-21)
(0.26724 0.0272679 0)
(0.603712 0.0739266 8.98546e-23)
(0.911835 0.125649 -7.85158e-23)
(1.11977 0.160124 0)
(1.2338 0.175599 -7.65924e-22)
(1.28491 0.174593 -6.17317e-22)
(1.2993 0.169535 -1.16722e-22)
(1.30105 0.151026 -9.81855e-23)
(-0.0359942 0.0166527 0)
(0.0693816 0.00584794 -1.39227e-21)
(0.344908 0.0341835 1.24617e-22)
(0.702157 0.0918102 -5.21285e-24)
(0.992292 0.144112 -6.14628e-22)
(1.17035 0.174877 -1.08121e-21)
(1.25875 0.185689 8.64118e-22)
(1.29317 0.1817 0)
(1.2989 0.174104 0)
(1.29674 0.15533 0)
(-0.0310281 0.0128173 2.28906e-24)
(0.108124 0.000429402 1.16796e-21)
(0.42961 0.0458515 1.26305e-22)
(0.795083 0.111115 8.72582e-22)
(1.06082 0.162042 5.35664e-22)
(1.20949 0.188452 -1.04129e-22)
(1.27562 0.194751 7.4364e-22)
(1.29681 0.188152 -4.9728e-22)
(1.29632 0.178398 -5.54308e-22)
(1.29123 0.159483 4.4261e-22)
(-0.0240475 0.0086163 7.30436e-22)
(0.154595 -0.00252539 8.18959e-23)
(0.518203 0.061552 -1.00904e-21)
(0.880078 0.131123 -7.87215e-22)
(1.11787 0.179258 0)
(1.2389 0.200947 9.51884e-22)
(1.28621 0.20301 -1.57947e-23)
(1.29714 0.194145 6.40721e-22)
(1.2922 0.182538 3.87565e-22)
(1.28523 0.163579 -3.50357e-22)
(-0.0145878 0.00412859 -1.68212e-21)
(0.2087 -0.00175998 0)
(0.607384 0.0802627 2.03429e-21)
(0.955917 0.15139 6.91855e-22)
(1.16436 0.195698 7.91489e-23)
(1.26026 0.212505 0)
(1.292 0.21067 -7.2119e-22)
(1.29511 0.199841 5.40183e-22)
(1.28708 0.186609 4.15522e-22)
(1.27878 0.167661 -3.24641e-22)
(-0.00212285 -0.000456261 8.51905e-22)
(0.269656 0.00368843 6.61705e-22)
(0.694215 0.101069 -1.15003e-21)
(1.02223 0.171676 1.03205e-22)
(1.2014 0.21137 0)
(1.27503 0.223282 0)
(1.29414 0.217904 0)
(1.29139 0.205357 -1.06323e-21)
(1.28124 0.190665 -4.15526e-22)
(1.27206 0.171747 3.24627e-22)
(0.0138661 -0.00479532 7.92162e-22)
(0.336071 0.0141903 -6.55975e-22)
(0.776404 0.12332 6.72989e-23)
(1.07919 0.191867 0)
(1.23019 0.226325 5.95425e-22)
(1.28448 0.233434 3.91481e-22)
(1.29352 0.224858 4.47765e-23)
(1.28645 0.210776 -4.37307e-23)
(1.27488 0.194739 9.8917e-23)
(1.26509 0.175847 -3.9758e-23)
(0.0337624 -0.00836348 -8.98663e-22)
(0.406171 0.0294944 8.3061e-23)
(0.852355 0.146582 5.32659e-22)
(1.12727 0.211897 -1.472e-22)
(1.25186 0.240631 -4.46633e-22)
(1.28967 0.243101 -5.55965e-22)
(1.29082 0.231639 4.36925e-23)
(1.28061 0.21615 2.61894e-22)
(1.26811 0.198849 0)
(1.25789 0.179956 -3.47635e-23)
(0.0577355 -0.0105023 -5.83804e-23)
(0.478062 0.0489425 0)
(0.921098 0.170555 6.1699e-24)
(1.1671 0.231715 0)
(1.26748 0.25437 5.79087e-22)
(1.29145 0.252405 -4.24562e-22)
(1.28653 0.238325 0)
(1.27407 0.221512 9.68932e-24)
(1.26099 0.202998 0)
(1.25047 0.184063 0)
(0.0857267 -0.0105216 -1.16687e-22)
(0.549936 0.0717694 7.5843e-22)
(0.982175 0.195018 -6.07926e-22)
(1.19938 0.251263 9.97002e-23)
(1.27797 0.26762 -2.6578e-22)
(1.2905 0.261444 -4.45034e-23)
(1.28098 0.244968 0)
(1.26695 0.226874 1.79311e-22)
(1.25354 0.20718 4.55741e-23)
(1.24281 0.188151 1.26978e-22)
(0.11744 -0.00782048 -4.93205e-22)
(0.620174 0.0972981 -3.05679e-22)
(1.03551 0.219809 -1.0005e-22)
(1.22482 0.270483 3.98169e-22)
(1.28414 0.280456 3.21285e-23)
(1.28735 0.270296 4.12795e-22)
(1.27443 0.251592 0)
(1.25933 0.232235 -2.12913e-22)
(1.24579 0.211383 3.87763e-23)
(1.2349 0.192199 -2.78806e-22)
(0.15238 -0.00199747 -4.93204e-22)
(0.687393 0.124992 3.18776e-22)
(1.08129 0.244805 -4.10473e-24)
(1.2441 0.289318 -4.62661e-22)
(1.28666 0.292938 -2.40794e-22)
(1.2824 0.279012 -2.30128e-23)
(1.26702 0.258207 1.92148e-23)
(1.25125 0.237582 2.37415e-22)
(1.23771 0.215589 -2.32039e-24)
(1.22673 0.196184 9.02531e-23)
(0.189904 0.00709844 -2.5457e-22)
(0.750444 0.154419 0)
(1.11986 0.269899 -2.73599e-22)
(1.25788 0.307719 0)
(1.28608 0.305112 -3.02548e-22)
(1.27595 0.287625 2.58885e-23)
(1.25887 0.264805 0)
(1.24272 0.242896 0)
(1.22932 0.219776 0)
(1.21829 0.200079 0)
(0.229273 0.0193902 2.23316e-22)
(0.808415 0.185199 1.07319e-22)
(1.15168 0.294984 2.736e-22)
(1.26678 0.325651 0)
(1.28287 0.317008 0)
(1.26822 0.296145 -1.05272e-23)
(1.25004 0.271364 3.99875e-23)
(1.23375 0.248149 4.45002e-23)
(1.22059 0.223916 4.01759e-23)
(1.20958 0.203852 -6.63825e-24)
(0.269702 0.0346498 -4.04301e-24)
(0.860657 0.216966 -1.0037e-22)
(1.1772 0.319944 4.58045e-24)
(1.27133 0.343095 5.25573e-24)
(1.27737 0.328641 -7.95863e-24)
(1.25937 0.304564 2.99423e-24)
(1.24057 0.277855 -3.47094e-23)
(1.22434 0.253311 -4.15616e-23)
(1.21153 0.227977 -3.04651e-23)
(1.20063 0.20747 1.1241e-24)
(0.310393 0.0525808 0)
(0.906833 0.249376 -1.01273e-22)
(1.1968 0.344658 -3.00421e-24)
(1.27203 0.360037 6.25911e-24)
(1.26988 0.340009 1.08833e-37)
(1.2495 0.312859 -7.47397e-38)
(1.23048 0.28424 -3.05432e-23)
(1.21449 0.258347 -3.52393e-23)
(1.20211 0.231915 -2.69448e-23)
(1.19145 0.210899 0)
(0.350565 0.0728673 2.93061e-22)
(0.946842 0.282136 8.30078e-23)
(1.21087 0.369013 2.7141e-22)
(1.26929 0.376451 -1.21892e-23)
(1.26063 0.351095 0)
(1.23869 0.320992 8.78356e-24)
(1.21979 0.290475 1.99425e-23)
(1.20418 0.263219 3.79742e-23)
(1.19234 0.235685 2.10316e-23)
(1.18203 0.214117 4.9701e-24)
(0.389477 0.0952088 -2.61224e-22)
(0.980683 0.314985 0)
(1.2198 0.392886 -2.56676e-22)
(1.26345 0.3923 0)
(1.24979 0.361863 -2.44005e-23)
(1.227 0.328916 2.03174e-23)
(1.2085 0.296512 0)
(1.19341 0.267885 0)
(1.18222 0.239244 0)
(1.17234 0.217102 0)
(0.426443 0.119327 5.17619e-22)
(1.00844 0.347682 -3.29797e-22)
(1.22397 0.416155 -6.23177e-23)
(1.25484 0.407542 -2.48479e-22)
(1.23751 0.372266 -2.2408e-22)
(1.21446 0.336573 1.48494e-23)
(1.1966 0.3023 -1.23986e-23)
(1.18217 0.2723 9.49422e-23)
(1.17179 0.242563 2.11669e-24)
(1.16231 0.219829 6.20505e-23)
(0.460848 0.144954 -5.1762e-22)
(1.03026 0.380003 -3.9646e-22)
(1.22371 0.438695 8.62481e-23)
(1.24371 0.422125 2.96044e-22)
(1.22389 0.382245 -1.19622e-23)
(1.20109 0.343901 2.26842e-22)
(1.1841 0.307785 0)
(1.17046 0.276406 -1.08146e-22)
(1.16108 0.245631 -1.4908e-23)
(1.15189 0.222318 -7.40224e-23)
(0.49216 0.171819 1.22851e-22)
(1.04631 0.41173 6.78719e-22)
(1.21935 0.460375 -3.86603e-22)
(1.2303 0.435992 -7.14572e-23)
(1.20903 0.391734 -1.58776e-22)
(1.18691 0.350834 2.87873e-23)
(1.171 0.312909 -1.9712e-23)
(1.15831 0.280139 9.47717e-23)
(1.15009 0.248434 -1.57513e-23)
(1.14116 0.224606 3.81895e-23)
(0.51994 0.199632 6.22567e-23)
(1.0568 0.442649 0)
(1.21118 0.481065 2.6605e-23)
(1.21482 0.449074 0)
(1.19297 0.400656 3.25808e-22)
(1.17196 0.3573 -2.00546e-22)
(1.15732 0.317614 0)
(1.14579 0.283457 -1.68317e-23)
(1.13875 0.250911 0)
(1.13025 0.226498 0)
(0.54384 0.228081 -9.53706e-22)
(1.06195 0.472543 -7.21476e-23)
(1.19948 0.500631 4.68904e-22)
(1.19741 0.461294 5.01959e-23)
(1.17579 0.408926 -3.23417e-22)
(1.15629 0.363224 -1.02721e-22)
(1.14314 0.321837 -1.41064e-23)
(1.1329 0.286333 3.51512e-23)
(1.12703 0.25302 -8.93215e-24)
(1.11915 0.228035 2.58835e-24)
(0.563603 0.25683 1.06082e-21)
(1.062 0.501192 -6.2935e-22)
(1.18451 0.518936 -1.33643e-22)
(1.17822 0.47257 6.44531e-23)
(1.15756 0.416453 2.52556e-22)
(1.13998 0.36853 1.57254e-22)
(1.12843 0.325522 -1.11259e-23)
(1.11964 0.288736 -2.92292e-23)
(1.11496 0.254717 -7.43674e-24)
(1.10788 0.229153 1.73746e-24)
(0.579064 0.28553 8.74595e-22)
(1.05717 0.528371 6.09068e-22)
(1.16648 0.535831 -5.54102e-22)
(1.15742 0.482809 -5.76038e-23)
(1.13845 0.423164 0)
(1.12299 0.37313 0)
(1.11321 0.328611 0)
(1.10603 0.290622 -5.95245e-23)
(1.10259 0.25597 1.3417e-23)
(1.09646 0.229835 -3.08109e-23)
(0.590138 0.313818 -1.69891e-21)
(1.04774 0.553861 0)
(1.14562 0.551152 1.17065e-21)
(1.13523 0.491914 2.78912e-22)
(1.11848 0.428981 0)
(1.10531 0.376954 0)
(1.09752 0.33104 -1.44158e-23)
(1.09208 0.291952 1.14866e-23)
(1.08994 0.256741 -1.34171e-23)
(1.0849 0.230043 3.08096e-23)
(0.596823 0.341333 9.12553e-22)
(1.03398 0.577463 -7.24313e-23)
(1.12216 0.564726 -5.46908e-22)
(1.11177 0.499768 -3.02863e-22)
(1.09766 0.433823 1.98784e-23)
(1.08703 0.379934 3.05882e-23)
(1.08141 0.33275 5.08729e-23)
(1.07782 0.292684 -5.71188e-23)
(1.07706 0.257 -7.75627e-23)
(1.07325 0.229752 7.55513e-23)
(0.599187 0.367708 -1.16837e-23)
(1.01625 0.59899 8.46413e-22)
(1.09637 0.576439 -7.29257e-23)
(1.08706 0.506207 1.37637e-22)
(1.07607 0.437613 4.12985e-23)
(1.0682 0.382004 -6.83389e-23)
(1.06493 0.333686 -4.2553e-23)
(1.0633 0.292779 7.24372e-23)
(1.06398 0.25671 -9.53386e-23)
(1.06153 0.228932 -5.57099e-23)
(0.597372 0.392575 0)
(0.994802 0.618216 -7.49424e-22)
(1.06851 0.586195 -6.13088e-23)
(1.06122 0.5111 -6.67196e-23)
(1.05379 0.440245 -3.50895e-23)
(1.04887 0.383099 2.63127e-23)
(1.04812 0.333796 -1.46742e-22)
(1.04856 0.292202 0)
(1.05072 0.255836 0)
(1.04979 0.227547 0)
(0.591578 0.415608 7.40202e-23)
(0.969746 0.634795 -5.71985e-22)
(1.03894 0.593951 0)
(1.0344 0.514372 -6.99521e-23)
(1.03089 0.441632 6.80897e-25)
(1.02912 0.38316 0)
(1.03105 0.333034 1.41429e-22)
(1.03363 0.290917 1.82097e-22)
(1.03732 0.254344 -3.78871e-23)
(1.03806 0.225553 3.18229e-23)
(0.582029 0.436592 -5.18512e-23)
(0.941297 0.648427 6.1455e-22)
(1.00791 0.599563 0)
(1.00673 0.515984 -1.0913e-23)
(1.00748 0.441688 -6.1528e-24)
(1.00904 0.38213 2.58656e-22)
(1.01378 0.331359 2.89131e-23)
(1.01856 0.288893 -2.06299e-22)
(1.02381 0.252199 0)
(1.02638 0.22291 -3.30385e-22)
(0.568938 0.455306 -7.08188e-22)
(0.909936 0.658997 -3.35952e-23)
(0.975595 0.602821 3.48138e-24)
(0.978375 0.515868 -2.87971e-24)
(0.983647 0.440341 3.33295e-22)
(0.988685 0.379957 -2.58658e-22)
(0.996363 0.328734 -3.04225e-22)
(1.00339 0.286099 -2.62691e-22)
(1.01024 0.249373 -4.45558e-22)
(1.01489 0.219611 2.89165e-22)
(0.552425 0.471397 7.49118e-22)
(0.876229 0.666492 0)
(0.942214 0.603593 -1.28476e-22)
(0.949472 0.513958 1.28537e-23)
(0.959497 0.437529 -7.72086e-22)
(0.968159 0.376593 0)
(0.97887 0.325127 3.04227e-22)
(0.98814 0.282498 -4.05778e-23)
(0.996708 0.245838 5.04652e-22)
(1.00386 0.215696 -4.96261e-23)
(0.532703 0.484442 0)
(0.840558 0.67076 -1.10026e-23)
(0.907968 0.601819 1.12938e-22)
(0.920177 0.510184 0)
(0.935143 0.433202 4.38792e-22)
(0.947545 0.372 0)
(0.961355 0.320514 -4.14131e-22)
(0.972875 0.278049 3.03273e-22)
(0.983384 0.241555 5.64724e-22)
(0.993598 0.211229 4.50963e-22)
(0.510258 0.494274 -9.97037e-24)
(0.803268 0.671661 1.91868e-23)
(0.873088 0.597437 0)
(0.890646 0.504486 0)
(0.910702 0.427318 0)
(0.926937 0.366149 6.57837e-23)
(0.943879 0.314873 3.04404e-22)
(0.957683 0.272726 4.58706e-23)
(0.970463 0.236464 -5.64727e-22)
(0.98399 0.206162 -5.06605e-22)
(0.485507 0.500724 0)
(0.764703 0.669083 3.23014e-22)
(0.837814 0.590404 0)
(0.861042 0.496815 0)
(0.886296 0.419847 0)
(0.906425 0.359016 -7.46471e-23)
(0.926514 0.308191 6.46741e-22)
(0.942686 0.266534 -1.50265e-22)
(0.958024 0.230579 -5.15822e-22)
(0.974373 0.198996 -5.30626e-22)
(0.458862 0.503657 0)
(0.725223 0.662945 -3.23016e-22)
(0.802387 0.580694 5.45931e-22)
(0.83153 0.487133 0)
(0.862051 0.410767 8.63852e-22)
(0.886106 0.350587 0)
(0.909351 0.300454 -5.23199e-22)
(0.927996 0.259487 4.62026e-22)
(0.945818 0.224356 6.77514e-22)
(0.963471 0.193815 5.29258e-22)
(0.430733 0.502981 -5.29788e-22)
(0.68519 0.6532 0)
(0.767052 0.568297 -4.67853e-22)
(0.802279 0.475418 -6.45866e-23)
(0.838093 0.40007 -1.83192e-21)
(0.866078 0.340853 0)
(0.892482 0.291646 6.29256e-22)
(0.91368 0.251507 3.76553e-23)
(0.933965 0.217078 6.94315e-22)
(0.952999 0.187185 2.43926e-24)
(0.401529 0.498642 5.76762e-22)
(0.644971 0.639831 -3.85579e-23)
(0.73205 0.553219 -9.05085e-23)
(0.77346 0.461666 -7.48666e-23)
(0.814551 0.387756 9.68071e-22)
(0.846443 0.329819 -8.57434e-22)
(0.875989 0.281787 -6.2926e-22)
(0.899741 0.242693 -4.99687e-22)
(0.922304 0.209226 -7.85948e-22)
(0.94251 0.180331 7.30935e-22)
(0.371655 0.490627 -6.0018e-23)
(0.604927 0.622851 -8.99978e-22)
(0.697623 0.535489 0)
(0.745244 0.445885 6.36447e-22)
(0.791555 0.373839 7.06543e-23)
(0.827304 0.317493 8.57439e-22)
(0.859962 0.270875 -8.56474e-23)
(0.886251 0.232995 -4.99974e-22)
(0.910984 0.200591 0)
(0.932321 0.172785 -6.51725e-22)
(0.341508 0.478961 6.82457e-23)
(0.565414 0.602303 9.49248e-22)
(0.664006 0.51515 0)
(0.717802 0.428102 -2.35441e-23)
(0.769235 0.358342 7.74372e-23)
(0.808765 0.303898 0)
(0.844477 0.258939 7.77949e-22)
(0.873245 0.222466 5.71664e-22)
(0.900022 0.191308 1.10211e-22)
(0.922484 0.164702 -9.25745e-23)
(0.311475 0.463704 0)
(0.52678 0.57826 1.39628e-21)
(0.631429 0.492266 -1.24002e-22)
(0.691301 0.408357 6.72088e-23)
(0.747718 0.3413 6.79613e-22)
(0.790926 0.289063 1.1842e-21)
(0.829615 0.246 -8.81887e-22)
(0.860784 0.211114 0)
(0.889488 0.181354 0)
(0.91308 0.156041 0)
(0.281928 0.444955 2.41586e-24)
(0.489362 0.550822 -1.15897e-21)
(0.600114 0.466918 1.37523e-22)
(0.665905 0.386709 -9.67288e-22)
(0.72713 0.322762 -5.8934e-22)
(0.773887 0.273028 1.93505e-22)
(0.81545 0.232095 -8.75324e-22)
(0.848922 0.198976 5.83795e-22)
(0.879436 0.170768 6.36682e-22)
(0.904165 0.146836 -5.0065e-22)
(0.253228 0.422852 -8.02373e-22)
(0.453479 0.520111 -8.96757e-23)
(0.570276 0.439204 1.25283e-21)
(0.641773 0.363228 9.83619e-22)
(0.707593 0.302786 0)
(0.757744 0.255842 -1.12142e-21)
(0.802056 0.217262 -4.09541e-23)
(0.837716 0.186083 -7.51284e-22)
(0.869919 0.159572 -4.46339e-22)
(0.895785 0.137107 3.98653e-22)
(0.225713 0.397575 1.91695e-21)
(0.41943 0.486266 0)
(0.54212 0.409237 -2.59007e-21)
(0.619056 0.338002 -8.60888e-22)
(0.689225 0.281441 -1.0188e-22)
(0.74259 0.23756 0)
(0.789505 0.20155 9.08173e-22)
(0.827219 0.172478 -7.25302e-22)
(0.860989 0.147796 -5.56054e-22)
(0.887978 0.126886 4.28932e-22)
(0.199698 0.369345 -1.00533e-21)
(0.38749 0.449445 -8.81293e-22)
(0.515846 0.377145 1.50439e-21)
(0.5979 0.31113 -1.38262e-22)
(0.672139 0.258806 0)
(0.728511 0.218251 0)
(0.777861 0.185011 0)
(0.817485 0.158203 1.47561e-21)
(0.852694 0.135475 5.56056e-22)
(0.88078 0.116205 -4.28931e-22)
(0.175454 0.338383 -1.03277e-21)
(0.357927 0.40986 8.78215e-22)
(0.491646 0.343071 9.23241e-23)
(0.578441 0.282727 0)
(0.656439 0.234973 -8.74109e-22)
(0.715589 0.197985 -5.86608e-22)
(0.767189 0.167704 -6.55051e-23)
(0.808563 0.143307 1.14074e-22)
(0.845081 0.122646 -1.46575e-22)
(0.874222 0.105103 5.87826e-23)
(0.153217 0.304892 1.17303e-21)
(0.330995 0.367763 -1.17877e-22)
(0.469695 0.307178 -9.64777e-22)
(0.560806 0.252921 2.16031e-22)
(0.642225 0.210039 6.51163e-22)
(0.703901 0.176844 8.34816e-22)
(0.757546 0.149696 -6.7604e-23)
(0.800502 0.127842 -3.76336e-22)
(0.838192 0.109353 0)
(0.868329 0.0936203 5.55829e-23)
(0.133215 0.269101 7.99977e-23)
(0.306922 0.323419 0)
(0.450146 0.269647 -2.84563e-23)
(0.545112 0.221849 0)
(0.629584 0.184114 -9.29955e-22)
(0.693515 0.154915 7.03698e-22)
(0.748986 0.131056 0)
(0.793343 0.111864 8.96531e-24)
(0.832068 0.0956415 0)
(0.863126 0.081802 0)
(0.115656 0.231269 1.65562e-22)
(0.285907 0.277098 -1.12999e-21)
(0.433134 0.230672 9.02605e-22)
(0.531462 0.189661 -1.55717e-22)
(0.618596 0.157312 4.02932e-22)
(0.684494 0.13229 1.09277e-22)
(0.741555 0.111859 0)
(0.787126 0.0954347 -3.07664e-22)
(0.826745 0.081561 -8.22424e-23)
(0.858632 0.0696937 -2.41253e-22)
(0.100729 0.191677 7.05671e-22)
(0.268125 0.229078 -1.67516e-21)
(0.418775 0.190455 1.54931e-22)
(0.519946 0.156512 -6.49028e-22)
(0.60933 0.129758 -7.25021e-23)
(0.676891 0.109068 -7.19188e-22)
(0.735296 0.0921838 0)
(0.781888 0.0786181 4.19729e-22)
(0.822255 0.0671646 -7.60561e-23)
(0.854864 0.0573419 5.49676e-22)
(0.0885913 0.150622 -7.05672e-22)
(0.253721 0.179651 6.13876e-22)
(0.407169 0.149212 -1.0684e-22)
(0.510641 0.122569 7.61934e-22)
(0.601846 0.101579 4.21075e-22)
(0.670752 0.0853508 4.40475e-23)
(0.730244 0.0721134 -3.67773e-23)
(0.777659 0.061482 -4.7024e-22)
(0.818626 0.0525085 3.86268e-24)
(0.851834 0.0447935 -1.82667e-22)
(0.0793736 0.108418 3.68411e-22)
(0.242813 0.129119 0)
(0.398394 0.107161 4.38191e-22)
(0.503607 0.0879994 0)
(0.59619 0.07291 5.9171e-23)
(0.666115 0.0612448 -4.9269e-23)
(0.72643 0.0517327 0)
(0.774463 0.0440955 0)
(0.815883 0.0376502 0)
(0.849553 0.0320963 0)
(0.0731735 0.065384 -3.22721e-22)
(0.235492 0.0777907 -1.24619e-22)
(0.39251 0.0645294 -4.38191e-22)
(0.498892 0.0529802 0)
(0.5924 0.0438876 0)
(0.663007 0.036859 2.24399e-23)
(0.723874 0.0311289 -8.98302e-23)
(0.772322 0.0265292 -1.07607e-22)
(0.814043 0.0226475 -1.01397e-22)
(0.848028 0.0192967 1.6424e-23)
(0.070057 0.0218498 -5.8385e-24)
(0.231816 0.0259828 1.34388e-22)
(0.389558 0.021548 -6.07978e-24)
(0.496526 0.0176896 2.09182e-23)
(0.590499 0.0146523 -8.26719e-24)
(0.661449 0.0123045 0)
(0.722592 0.0103907 7.10942e-23)
(0.771248 0.00885461 1.07607e-22)
(0.81312 0.00755831 7.69397e-23)
(0.847264 0.00643818 1.16208e-23)
(0.070057 -0.0218517 -5.8385e-24)
(0.231816 -0.0259854 1.34388e-22)
(0.389559 -0.0215504 -6.07978e-24)
(0.496526 -0.0176917 2.09182e-23)
(0.590499 -0.0146542 -8.26719e-24)
(0.661449 -0.0123063 0)
(0.722592 -0.0103924 6.25948e-23)
(0.771248 -0.00885611 1.14721e-22)
(0.81312 -0.00755968 8.18433e-23)
(0.847264 -0.00643942 0)
(0.0731736 -0.0653859 -4.141e-22)
(0.235492 -0.0777933 -1.61558e-22)
(0.39251 -0.0645318 -4.64556e-22)
(0.498892 -0.0529823 2.18088e-23)
(0.5924 -0.0438896 0)
(0.663008 -0.0368608 -2.24398e-23)
(0.723874 -0.0311306 -5.23581e-23)
(0.772322 -0.0265307 -1.07607e-22)
(0.814043 -0.0226489 -6.22893e-23)
(0.848028 -0.0192979 -1.6424e-23)
(0.0793737 -0.10842 3.68411e-22)
(0.242813 -0.129121 0)
(0.398394 -0.107163 4.38191e-22)
(0.503607 -0.0880015 0)
(0.596191 -0.072912 5.91709e-23)
(0.666115 -0.0612466 -4.92689e-23)
(0.72643 -0.0517344 0)
(0.774463 -0.044097 0)
(0.815883 -0.0376516 0)
(0.849553 -0.0320975 0)
(0.0885915 -0.150624 -7.05671e-22)
(0.253721 -0.179653 4.79366e-22)
(0.407169 -0.149214 1.0684e-22)
(0.510641 -0.122571 5.21723e-22)
(0.601846 -0.101581 5.49845e-22)
(0.670752 -0.0853526 -4.40474e-23)
(0.730245 -0.072115 3.67773e-23)
(0.777659 -0.0614835 -3.6922e-22)
(0.818627 -0.0525099 -3.86267e-24)
(0.851834 -0.0447948 -3.06414e-22)
(0.100729 -0.191678 7.05671e-22)
(0.268125 -0.22908 5.81915e-22)
(0.418775 -0.190458 -1.54931e-22)
(0.519947 -0.156515 -6.34627e-22)
(0.60933 -0.12976 5.39584e-23)
(0.676891 -0.10907 -7.19188e-22)
(0.735296 -0.0921854 0)
(0.781888 -0.0786196 4.19729e-22)
(0.822255 -0.0671659 7.60561e-23)
(0.854864 -0.0573431 4.21911e-22)
(0.115656 -0.231271 -1.65562e-22)
(0.285908 -0.2771 1.12998e-21)
(0.433134 -0.230674 7.06118e-22)
(0.531463 -0.189663 1.55717e-22)
(0.618596 -0.157314 5.04609e-22)
(0.684494 -0.132292 -1.63444e-22)
(0.741555 -0.11186 7.10881e-23)
(0.787127 -0.0954362 -5.03754e-22)
(0.826745 -0.0815623 8.22424e-23)
(0.858633 -0.0696949 -2.41253e-22)
(0.133215 -0.269103 -7.99976e-23)
(0.306923 -0.323422 0)
(0.450147 -0.26965 -2.84564e-23)
(0.545113 -0.221851 0)
(0.629584 -0.184116 -9.29955e-22)
(0.693516 -0.154917 7.03698e-22)
(0.748986 -0.131057 0)
(0.793343 -0.111866 8.96535e-24)
(0.832068 -0.0956428 0)
(0.863126 -0.0818032 0)
(0.153218 -0.304894 1.17303e-21)
(0.330996 -0.367766 1.17877e-22)
(0.469696 -0.307181 -6.78781e-22)
(0.560807 -0.252923 -1.40133e-22)
(0.642225 -0.210041 1.09706e-21)
(0.703901 -0.176846 4.95313e-22)
(0.757547 -0.149698 6.76039e-23)
(0.800502 -0.127843 -4.70177e-22)
(0.838193 -0.109354 7.8716e-23)
(0.86833 -0.0936215 -5.55828e-23)
(0.175454 -0.338385 -1.31329e-21)
(0.357928 -0.409862 8.84373e-22)
(0.491647 -0.343073 8.34007e-23)
(0.578442 -0.28273 -1.45356e-22)
(0.65644 -0.234975 -8.74109e-22)
(0.71559 -0.197987 -7.43516e-22)
(0.767189 -0.167706 6.55051e-23)
(0.808564 -0.143308 -6.85414e-23)
(0.845081 -0.122648 1.46575e-22)
(0.874222 -0.105104 -5.87826e-23)
(0.199699 -0.369347 -1.00533e-21)
(0.38749 -0.449447 -8.81291e-22)
(0.515847 -0.377147 1.17009e-21)
(0.597901 -0.311132 1.38261e-22)
(0.67214 -0.258808 0)
(0.728511 -0.218252 0)
(0.777862 -0.185012 0)
(0.817485 -0.158204 1.47561e-21)
(0.852695 -0.135476 5.56055e-22)
(0.880781 -0.116206 -4.28931e-22)
(0.225714 -0.397577 1.91695e-21)
(0.419431 -0.486268 0)
(0.542121 -0.409239 -2.59006e-21)
(0.619057 -0.338004 -9.83621e-22)
(0.689226 -0.281443 0)
(0.74259 -0.237562 0)
(0.789505 -0.201551 9.08171e-22)
(0.827219 -0.172479 -7.25301e-22)
(0.86099 -0.147797 -5.56053e-22)
(0.887979 -0.126887 4.28931e-22)
(0.253229 -0.422854 -1.02086e-21)
(0.45348 -0.520113 8.96754e-23)
(0.570277 -0.439206 1.25283e-21)
(0.641774 -0.36323 1.09957e-21)
(0.707594 -0.302788 -9.6252e-23)
(0.757745 -0.255843 -1.12142e-21)
(0.802057 -0.217264 -4.09543e-23)
(0.837716 -0.186085 -5.8697e-22)
(0.86992 -0.159573 -5.84167e-22)
(0.895785 -0.137109 3.98652e-22)
(0.281929 -0.444957 -2.41591e-24)
(0.489363 -0.550824 -1.33258e-21)
(0.600115 -0.46692 -1.37522e-22)
(0.665906 -0.386711 -7.49772e-22)
(0.72713 -0.322764 -5.99851e-22)
(0.773888 -0.27303 -2.11715e-22)
(0.815451 -0.232096 -8.59097e-22)
(0.848923 -0.198977 7.54453e-22)
(0.879437 -0.170769 3.93821e-22)
(0.904166 -0.146837 -2.96656e-22)
(0.311475 -0.463705 0)
(0.526781 -0.578262 1.09527e-21)
(0.63143 -0.492268 1.24001e-22)
(0.691302 -0.408359 6.72089e-23)
(0.747718 -0.341302 6.79612e-22)
(0.790927 -0.289065 9.35239e-22)
(0.829615 -0.246002 -7.70778e-22)
(0.860785 -0.211115 8.09878e-23)
(0.889489 -0.181355 0)
(0.913081 -0.156042 0)
(0.341509 -0.478962 -6.82451e-23)
(0.565415 -0.602305 9.49242e-22)
(0.664007 -0.515152 0)
(0.717803 -0.428104 1.63034e-22)
(0.769236 -0.358343 -7.7437e-23)
(0.808766 -0.303899 0)
(0.844478 -0.25894 7.77948e-22)
(0.873246 -0.222468 5.71662e-22)
(0.900022 -0.191309 -1.10211e-22)
(0.922484 -0.164703 9.25743e-23)
(0.371656 -0.490629 6.00175e-23)
(0.604928 -0.622853 -9.98504e-22)
(0.697624 -0.535491 0)