/*--------------------------------*- C++ -*----------------------------------*\
  =========                 |
  \\      /  F ield         | OpenFOAM: The Open Source CFD Toolbox
   \\    /   O peration     | Website:  https://openfoam.org
    \\  /    A nd           | Version:  9
     \\/     M anipulation  |
\*---------------------------------------------------------------------------*/
FoamFile
{
    format      ascii;
    class       volScalarField;
    location    "2";
    object      p;
}
// * * * * * * * * * * * * * * * * * * * * * * * * * * * * * * * * * * * * * //

dimensions      [0 2 -2 0 0 0 0];

internalField   nonuniform List<scalar> 
8500
(
-0.365953
-0.395862
-0.41949
-0.440552
-0.424827
-0.360104
-0.254672
-0.132435
-0.0382286
0.0377696
-0.369747
-0.39923
-0.423334
-0.445393
-0.43103
-0.367319
-0.262029
-0.139077
-0.0442584
0.032199
-0.377066
-0.405704
-0.430706
-0.454661
-0.442911
-0.381124
-0.276074
-0.151774
-0.0557917
0.0215391
-0.387401
-0.414786
-0.441003
-0.467574
-0.459485
-0.400369
-0.295655
-0.169734
-0.0715771
0.00666868
-0.400064
-0.425797
-0.453404
-0.483068
-0.479414
-0.423524
-0.319265
-0.191349
-0.0906247
-0.0112906
-0.414252
-0.437943
-0.466944
-0.499892
-0.501138
-0.448841
-0.344893
-0.215265
-0.111736
-0.0311316
-0.429137
-0.450399
-0.480609
-0.516726
-0.523008
-0.474452
-0.370579
-0.240068
-0.133778
-0.0517253
-0.443937
-0.46239
-0.493416
-0.53229
-0.543413
-0.49828
-0.394952
-0.264139
-0.155649
-0.0721593
-0.457984
-0.473248
-0.504509
-0.545496
-0.560943
-0.518962
-0.416606
-0.286174
-0.176384
-0.0917213
-0.470765
-0.482486
-0.513251
-0.555572
-0.574336
-0.535346
-0.434399
-0.305202
-0.195231
-0.109872
-0.481942
-0.489915
-0.519288
-0.561741
-0.582923
-0.546697
-0.447639
-0.320626
-0.211678
-0.126246
-0.491347
-0.4953
-0.522337
-0.563919
-0.58657
-0.552792
-0.456085
-0.332219
-0.22545
-0.140634
-0.49897
-0.498725
-0.522578
-0.562302
-0.585519
-0.553845
-0.459878
-0.340063
-0.236483
-0.152965
-0.504923
-0.500452
-0.520489
-0.557381
-0.580478
-0.550417
-0.459468
-0.344477
-0.244877
-0.163266
-0.509412
-0.500841
-0.516698
-0.549873
-0.572449
-0.543291
-0.4555
-0.345923
-0.250846
-0.171631
-0.51271
-0.500316
-0.511903
-0.540675
-0.562501
-0.533343
-0.44871
-0.344933
-0.254641
-0.178131
-0.515136
-0.499345
-0.506799
-0.530903
-0.551566
-0.521433
-0.439846
-0.342053
-0.256476
-0.182701
-0.517049
-0.498421
-0.50198
-0.521552
-0.540283
-0.508332
-0.429613
-0.337808
-0.256497
-0.185191
-0.518838
-0.498043
-0.497906
-0.513569
-0.529015
-0.494669
-0.418651
-0.332657
-0.254883
-0.185847
-0.520914
-0.498652
-0.494902
-0.507586
-0.517971
-0.480932
-0.407491
-0.326931
-0.252126
-0.186304
-0.523693
-0.500558
-0.493294
-0.503736
-0.507335
-0.467475
-0.396516
-0.320845
-0.249239
-0.18893
-0.527568
-0.503864
-0.493368
-0.501622
-0.497298
-0.454553
-0.385946
-0.314574
-0.246805
-0.191861
-0.532885
-0.50849
-0.495413
-0.500528
-0.487988
-0.442335
-0.375883
-0.308311
-0.244298
-0.19342
-0.539893
-0.514202
-0.499616
-0.499788
-0.479401
-0.43091
-0.366362
-0.302093
-0.241612
-0.193974
-0.548698
-0.520747
-0.505908
-0.499047
-0.471409
-0.420285
-0.357363
-0.295953
-0.238645
-0.193542
-0.559222
-0.527956
-0.513861
-0.498241
-0.463866
-0.410401
-0.348838
-0.28987
-0.235368
-0.192341
-0.57119
-0.535792
-0.522709
-0.497433
-0.456663
-0.40115
-0.34071
-0.283818
-0.231766
-0.190477
-0.58419
-0.54432
-0.531632
-0.496573
-0.449707
-0.3924
-0.332888
-0.277754
-0.227833
-0.188037
-0.597772
-0.553643
-0.539904
-0.495502
-0.442907
-0.384012
-0.325269
-0.271631
-0.223567
-0.185067
-0.61145
-0.563823
-0.54696
-0.494061
-0.436168
-0.375852
-0.317751
-0.265398
-0.21896
-0.181597
-0.624849
-0.574803
-0.552459
-0.492088
-0.429392
-0.367792
-0.310233
-0.259002
-0.214004
-0.177648
-0.637667
-0.586353
-0.556255
-0.489427
-0.422471
-0.359714
-0.30262
-0.252391
-0.208688
-0.173237
-0.649656
-0.598055
-0.558351
-0.485936
-0.415287
-0.351508
-0.29483
-0.245513
-0.202999
-0.168373
-0.660629
-0.609328
-0.558856
-0.481506
-0.407716
-0.343073
-0.28679
-0.238321
-0.196923
-0.163059
-0.670443
-0.619512
-0.557918
-0.476064
-0.399644
-0.334313
-0.278428
-0.230771
-0.190444
-0.157295
-0.678994
-0.628031
-0.555578
-0.469556
-0.390965
-0.325137
-0.269679
-0.222824
-0.183545
-0.15108
-0.686198
-0.634523
-0.551696
-0.461926
-0.381587
-0.315462
-0.260483
-0.214445
-0.176209
-0.144414
-0.691975
-0.638679
-0.546169
-0.453111
-0.371425
-0.305212
-0.250789
-0.205602
-0.168421
-0.137302
-0.696221
-0.640292
-0.538942
-0.443049
-0.360405
-0.294322
-0.240551
-0.196265
-0.160166
-0.129757
-0.698802
-0.639234
-0.52998
-0.431684
-0.348461
-0.282734
-0.229727
-0.186409
-0.151434
-0.121793
-0.69954
-0.635423
-0.519239
-0.418979
-0.335544
-0.270402
-0.21828
-0.176007
-0.142227
-0.113398
-0.698227
-0.628807
-0.506659
-0.404917
-0.321615
-0.257282
-0.206179
-0.165033
-0.132568
-0.104526
-0.694624
-0.619341
-0.492192
-0.389481
-0.306637
-0.243342
-0.193406
-0.153481
-0.122491
-0.0951553
-0.68848
-0.606991
-0.475802
-0.372646
-0.290569
-0.228569
-0.179968
-0.141385
-0.111954
-0.085364
-0.679546
-0.591735
-0.457464
-0.354387
-0.273383
-0.212989
-0.165892
-0.12883
-0.100853
-0.0751826
-0.667588
-0.573559
-0.437155
-0.334686
-0.255102
-0.196652
-0.15118
-0.11577
-0.0892299
-0.0646187
-0.6524
-0.552462
-0.414844
-0.313558
-0.235835
-0.179525
-0.135814
-0.1022
-0.0771261
-0.0536852
-0.633818
-0.528466
-0.390496
-0.291092
-0.215645
-0.161552
-0.119819
-0.0881282
-0.064578
-0.0424023
-0.611727
-0.501634
-0.364115
-0.267419
-0.19445
-0.142769
-0.103223
-0.0735766
-0.0516172
-0.0307968
-0.586064
-0.472108
-0.335813
-0.242436
-0.172297
-0.123221
-0.0860583
-0.0585736
-0.0382749
-0.0189005
-0.556819
-0.440061
-0.305741
-0.216058
-0.14923
-0.102965
-0.0683646
-0.043154
-0.0245843
-0.00675156
-0.524044
-0.405493
-0.27404
-0.188392
-0.125302
-0.0820615
-0.0501879
-0.0273578
-0.0105831
0.00560551
-0.487865
-0.368019
-0.241173
-0.15958
-0.100572
-0.0605762
-0.0315817
-0.0112302
0.00368715
0.0181205
-0.448476
-0.327964
-0.20701
-0.129769
-0.0751158
-0.0385809
-0.0126065
0.00517927
0.018185
0.0307432
-0.405992
-0.28574
-0.171557
-0.0991012
-0.0490221
-0.0161529
0.00667038
0.0218193
0.0328732
0.0434256
-0.360312
-0.242066
-0.134908
-0.0677133
-0.0223939
0.00662419
0.0261778
0.0386427
0.0477164
0.056097
-0.311865
-0.197176
-0.0972238
-0.0357386
0.00465653
0.02966
0.0458446
0.0556117
0.0626606
0.0685832
-0.261032
-0.151234
-0.0587004
-0.00331573
0.0320085
0.0528592
0.0656035
0.0726917
0.0775951
0.0805311
-0.208199
-0.104447
-0.0195538
0.0294087
0.0595346
0.0761226
0.0853891
0.0898215
0.0923329
0.0916059
-0.153767
-0.0570542
0.0199875
0.0622788
0.0871024
0.0993496
0.105128
0.106879
0.106672
0.102085
-0.0981579
-0.0093205
0.0596876
0.0951303
0.114576
0.122438
0.12473
0.123705
0.120517
0.113309
-0.0418023
0.0384742
0.0993069
0.127792
0.141817
0.145282
0.144093
0.140183
0.134124
0.125093
0.0148586
0.0860384
0.138605
0.160089
0.168685
0.167773
0.163115
0.15628
0.147539
0.136993
0.0713789
0.133073
0.17734
0.191843
0.19504
0.189798
0.181698
0.171947
0.160707
0.148813
0.127312
0.179278
0.215275
0.222874
0.220741
0.211243
0.19975
0.187138
0.173548
0.160346
0.182215
0.224352
0.252174
0.253004
0.245648
0.231997
0.217183
0.201793
0.185993
0.171488
0.235651
0.267999
0.287807
0.282057
0.269624
0.251947
0.233909
0.215847
0.197967
0.182149
0.287197
0.30993
0.321952
0.309861
0.292533
0.270985
0.249846
0.229235
0.209403
0.192266
0.33644
0.349871
0.354394
0.33625
0.314246
0.289007
0.264911
0.241891
0.220236
0.201784
0.382981
0.387567
0.384929
0.361063
0.334636
0.305913
0.279027
0.25375
0.230405
0.210657
0.426447
0.422777
0.413364
0.384147
0.353584
0.321607
0.29212
0.264751
0.239851
0.218843
0.466538
0.455236
0.439516
0.40536
0.370978
0.336
0.304118
0.274837
0.248521
0.226306
0.502992
0.484678
0.463213
0.424566
0.386715
0.349012
0.314957
0.283952
0.256363
0.233013
0.535537
0.510889
0.484301
0.441645
0.400701
0.360568
0.324578
0.292046
0.263332
0.238935
0.56392
0.53369
0.50264
0.456489
0.412851
0.3706
0.332927
0.299073
0.269385
0.24405
0.587921
0.552928
0.51811
0.469005
0.423092
0.379051
0.339958
0.304992
0.274486
0.248336
0.60735
0.568475
0.53061
0.479114
0.43136
0.385872
0.345632
0.30977
0.278604
0.251781
0.622057
0.580226
0.540058
0.486751
0.437606
0.391023
0.349916
0.313379
0.281715
0.254372
0.631927
0.588104
0.546391
0.49187
0.441792
0.394474
0.352785
0.315796
0.2838
0.256102
0.636881
0.592056
0.549568
0.494437
0.443891
0.396205
0.354224
0.317008
0.284845
0.256967
0.636881
0.592056
0.549568
0.494437
0.443891
0.396205
0.354224
0.317008
0.284845
0.256967
0.631927
0.588104
0.546391
0.49187
0.441792
0.394474
0.352785
0.315796
0.2838
0.256102
0.622057
0.580226
0.540058
0.486751
0.437606
0.391023
0.349916
0.313379
0.281715
0.254372
0.60735
0.568475
0.53061
0.479114
0.43136
0.385872
0.345632
0.30977
0.278604
0.251781
0.587921
0.552928
0.51811
0.469005
0.423092
0.379051
0.339958
0.304992
0.274486
0.248336
0.56392
0.53369
0.50264
0.456489
0.412851
0.3706
0.332927
0.299073
0.269385
0.24405
0.535537
0.510889
0.484301
0.441645
0.400701
0.360568
0.324578
0.292046
0.263332
0.238935
0.502992
0.484678
0.463213
0.424566
0.386715
0.349012
0.314957
0.283952
0.256363
0.233013
0.466538
0.455236
0.439516
0.40536
0.370978
0.336
0.304118
0.274837
0.248521
0.226306
0.426447
0.422777
0.413364
0.384148
0.353584
0.321607
0.29212
0.264751
0.239851
0.218843
0.382981
0.387567
0.384929
0.361063
0.334636
0.305913
0.279028
0.25375
0.230405
0.210657
0.33644
0.349871
0.354394
0.33625
0.314246
0.289007
0.264911
0.241891
0.220236
0.201784
0.287197
0.30993
0.321952
0.309861
0.292534
0.270985
0.249846
0.229235
0.209403
0.192266
0.235651
0.267999
0.287807
0.282057
0.269624
0.251947
0.233909
0.215848
0.197967
0.182149
0.182215
0.224352
0.252174
0.253004
0.245649
0.231997
0.217183
0.201793
0.185993
0.171488
0.127312
0.179278
0.215275
0.222874
0.220741
0.211243
0.19975
0.187138
0.173549
0.160346
0.0713789
0.133074
0.17734
0.191843
0.19504
0.189798
0.181698
0.171947
0.160707
0.148813
0.0148586
0.0860385
0.138605
0.16009
0.168685
0.167773
0.163115
0.15628
0.147539
0.136993
-0.0418022
0.0384743
0.099307
0.127792
0.141817
0.145282
0.144093
0.140184
0.134124
0.125093
-0.0981578
-0.00932043
0.0596876
0.0951303
0.114576
0.122438
0.124731
0.123705
0.120518
0.113309
-0.153767
-0.0570541
0.0199875
0.0622788
0.0871025
0.0993496
0.105128
0.106879
0.106672
0.102085
-0.208199
-0.104446
-0.0195537
0.0294088
0.0595347
0.0761227
0.0853892
0.0898216
0.092333
0.091606
-0.261032
-0.151234
-0.0587003
-0.00331564
0.0320086
0.0528593
0.0656036
0.0726918
0.0775952
0.0805312
-0.311865
-0.197176
-0.0972238
-0.0357386
0.00465661
0.0296601
0.0458447
0.0556118
0.0626607
0.0685834
-0.360312
-0.242066
-0.134908
-0.0677132
-0.0223938
0.00662428
0.0261779
0.0386428
0.0477166
0.0560971
-0.405992
-0.28574
-0.171557
-0.0991011
-0.049022
-0.0161528
0.00667048
0.0218194
0.0328733
0.0434257
-0.448476
-0.327964
-0.20701
-0.129769
-0.0751157
-0.0385808
-0.0126064
0.00517938
0.0181851
0.0307433
-0.487865
-0.368019
-0.241173
-0.15958
-0.100572
-0.0605761
-0.0315815
-0.01123
0.00368727
0.0181206
-0.524044
-0.405493
-0.27404
-0.188392
-0.125302
-0.0820614
-0.0501878
-0.0273577
-0.010583
0.00560564
-0.556819
-0.440061
-0.305741
-0.216058
-0.14923
-0.102965
-0.0683645
-0.0431539
-0.0245841
-0.00675142
-0.586064
-0.472108
-0.335813
-0.242436
-0.172297
-0.123221
-0.0860581
-0.0585735
-0.0382747
-0.0189004
-0.611727
-0.501634
-0.364115
-0.267419
-0.19445
-0.142768
-0.103223
-0.0735765
-0.0516171
-0.0307966
-0.633818
-0.528465
-0.390496
-0.291092
-0.215645
-0.161552
-0.119819
-0.0881281
-0.0645779
-0.0424022
-0.6524
-0.552462
-0.414843
-0.313558
-0.235834
-0.179525
-0.135814
-0.1022
-0.0771259
-0.0536851
-0.667587
-0.573559
-0.437155
-0.334686
-0.255101
-0.196652
-0.15118
-0.11577
-0.0892298
-0.0646185
-0.679546
-0.591735
-0.457464
-0.354387
-0.273382
-0.212989
-0.165892
-0.12883
-0.100853
-0.0751825
-0.68848
-0.606991
-0.475802
-0.372646
-0.290569
-0.228569
-0.179968
-0.141385
-0.111954
-0.0853639
-0.694624
-0.61934
-0.492192
-0.389481
-0.306637
-0.243341
-0.193406
-0.153481
-0.122491
-0.0951552
-0.698227
-0.628806
-0.506659
-0.404917
-0.321615
-0.257281
-0.206179
-0.165033
-0.132567
-0.104526
-0.69954
-0.635423
-0.519239
-0.418979
-0.335544
-0.270401
-0.21828
-0.176006
-0.142227
-0.113398
-0.698802
-0.639234
-0.529979
-0.431684
-0.348461
-0.282734
-0.229727
-0.186409
-0.151434
-0.121793
-0.696221
-0.640292
-0.538942
-0.443049
-0.360405
-0.294322
-0.240551
-0.196265
-0.160166
-0.129757
-0.691974
-0.638679
-0.546169
-0.453111
-0.371425
-0.305212
-0.250789
-0.205601
-0.168421
-0.137301
-0.686198
-0.634522
-0.551696
-0.461926
-0.381586
-0.315462
-0.260483
-0.214445
-0.176209
-0.144414
-0.678993
-0.628031
-0.555578
-0.469556
-0.390965
-0.325137
-0.269678
-0.222824
-0.183545
-0.15108
-0.670443
-0.619512
-0.557918
-0.476064
-0.399643
-0.334313
-0.278428
-0.230771
-0.190444
-0.157295
-0.660629
-0.609328
-0.558856
-0.481506
-0.407716
-0.343073
-0.28679
-0.238321
-0.196923
-0.163058
-0.649656
-0.598055
-0.558351
-0.485936
-0.415287
-0.351508
-0.29483
-0.245513
-0.202999
-0.168373
-0.637667
-0.586353
-0.556255
-0.489426
-0.422471
-0.359714
-0.302619
-0.252391
-0.208688
-0.173237
-0.624849
-0.574803
-0.552459
-0.492088
-0.429392
-0.367792
-0.310232
-0.259002
-0.214004
-0.177648
-0.61145
-0.563823
-0.54696
-0.494061
-0.436168
-0.375852
-0.317751
-0.265398
-0.21896
-0.181597
-0.597772
-0.553643
-0.539904
-0.495502
-0.442907
-0.384012
-0.325269
-0.271631
-0.223566
-0.185067
-0.58419
-0.54432
-0.531632
-0.496573
-0.449707
-0.3924
-0.332887
-0.277754
-0.227833
-0.188037
-0.57119
-0.535792
-0.522709
-0.497433
-0.456662
-0.40115
-0.34071
-0.283818
-0.231765
-0.190477
-0.559221
-0.527956
-0.513861
-0.498241
-0.463866
-0.410401
-0.348838
-0.28987
-0.235368
-0.192341
-0.548698
-0.520747
-0.505908
-0.499046
-0.471409
-0.420285
-0.357363
-0.295953
-0.238645
-0.193541
-0.539893
-0.514202
-0.499616
-0.499788
-0.479401
-0.430909
-0.366362
-0.302093
-0.241612
-0.193974
-0.532884
-0.50849
-0.495413
-0.500528
-0.487988
-0.442335
-0.375883
-0.308311
-0.244298
-0.19342
-0.527568
-0.503864
-0.493368
-0.501622
-0.497298
-0.454553
-0.385946
-0.314574
-0.246805
-0.191861
-0.523692
-0.500557
-0.493294
-0.503736
-0.507335
-0.467475
-0.396516
-0.320845
-0.249239
-0.18893
-0.520914
-0.498652
-0.494902
-0.507586
-0.517971
-0.480932
-0.407491
-0.326931
-0.252126
-0.186304
-0.518838
-0.498042
-0.497906
-0.513569
-0.529015
-0.494669
-0.418651
-0.332657
-0.254883
-0.185847
-0.517049
-0.498421
-0.50198
-0.521551
-0.540283
-0.508331
-0.429613
-0.337808
-0.256497
-0.185191
-0.515136
-0.499344
-0.506799
-0.530903
-0.551566
-0.521433
-0.439845
-0.342052
-0.256476
-0.182701
-0.51271
-0.500316
-0.511903
-0.540675
-0.562501
-0.533343
-0.44871
-0.344933
-0.254641
-0.178131
-0.509412
-0.500841
-0.516698
-0.549873
-0.572449
-0.543291
-0.4555
-0.345923
-0.250846
-0.171631
-0.504923
-0.500452
-0.520489
-0.557381
-0.580478
-0.550417
-0.459468
-0.344477
-0.244877
-0.163266
-0.49897
-0.498725
-0.522578
-0.562302
-0.585519
-0.553845
-0.459878
-0.340063
-0.236483
-0.152965
-0.491347
-0.4953
-0.522337
-0.563919
-0.586569
-0.552792
-0.456085
-0.332219
-0.22545
-0.140634
-0.481942
-0.489915
-0.519288
-0.561741
-0.582923
-0.546697
-0.447639
-0.320626
-0.211678
-0.126246
-0.470765
-0.482486
-0.513251
-0.555572
-0.574336
-0.535346
-0.434399
-0.305201
-0.195231
-0.109872
-0.457984
-0.473248
-0.504509
-0.545496
-0.560943
-0.518962
-0.416606
-0.286174
-0.176384
-0.0917213
-0.443937
-0.462389
-0.493416
-0.53229
-0.543413
-0.49828
-0.394952
-0.264139
-0.155649
-0.0721592
-0.429137
-0.450399
-0.480609
-0.516726
-0.523008
-0.474452
-0.370579
-0.240068
-0.133778
-0.0517253
-0.414252
-0.437943
-0.466944
-0.499892
-0.501138
-0.448841
-0.344893
-0.215265
-0.111736
-0.0311316
-0.400064
-0.425797
-0.453404
-0.483068
-0.479414
-0.423524
-0.319265
-0.191349
-0.0906246
-0.0112906
-0.387401
-0.414786
-0.441003
-0.467574
-0.459485
-0.400369
-0.295655
-0.169734
-0.0715771
0.00666869
-0.377066
-0.405704
-0.430705
-0.45466
-0.442911
-0.381124
-0.276074
-0.151774
-0.0557916
0.0215391
-0.369747
-0.39923
-0.423334
-0.445393
-0.43103
-0.367319
-0.262029
-0.139077
-0.0442584
0.032199
-0.365953
-0.395862
-0.41949
-0.440552
-0.424827
-0.360104
-0.254672
-0.132435
-0.0382286
0.0377696
0.0681769
0.0820105
0.0697962
0.0558566
0.0431433
0.0326432
0.0245565
0.0184658
0.0138688
0.010391
0.00775677
0.00575936
0.0042475
0.00310527
0.00225102
0.00161258
0.00114072
0.00079598
0.000547203
0.000370213
0.000246225
0.00016081
0.000103038
6.47e-05
3.97558e-05
2.38527e-05
1.38832e-05
7.72188e-06
3.80333e-06
1.17237e-06
0.0645945
0.0798225
0.0686092
0.0552106
0.042794
0.0324513
0.0244507
0.0184055
0.0138334
0.0103696
0.00774356
0.00575097
0.00424198
0.00310163
0.00224847
0.00161084
0.00113952
0.000795145
0.000546623
0.000369812
0.00024595
0.000160624
0.000102913
6.46187e-05
3.97035e-05
2.38198e-05
1.3863e-05
7.71051e-06
3.79754e-06
1.17073e-06
0.0576052
0.0755709
0.0662646
0.0539293
0.0420997
0.032069
0.0242395
0.018285
0.0137625
0.010327
0.00771712
0.00573418
0.00423092
0.00309485
0.00224337
0.00160736
0.00113711
0.000793476
0.000545462
0.000369011
0.0002454
0.000160252
0.000102665
6.44559e-05
3.95989e-05
2.37542e-05
1.38231e-05
7.68753e-06
3.78592e-06
1.16695e-06
0.0475436
0.0694617
0.0628105
0.052043
0.0410677
0.0314987
0.0239234
0.0181043
0.0136563
0.0102629
0.00767742
0.00570898
0.00421437
0.00308371
0.00223566
0.00160214
0.00113351
0.000790971
0.000543721
0.00036781
0.000244576
0.000159694
0.000102293
6.42119e-05
3.94421e-05
2.36559e-05
1.37634e-05
7.65308e-06
3.76851e-06
1.16132e-06
0.0348671
0.0617359
0.0583174
0.0495921
0.0397084
0.0307442
0.0235032
0.0178635
0.0135145
0.0101774
0.0076244
0.00567532
0.00419234
0.0030695
0.00222542
0.00159517
0.0011287
0.000787632
0.000541401
0.000366208
0.000243478
0.000158951
0.000101797
6.38869e-05
3.92332e-05
2.35248e-05
1.36838e-05
7.60722e-06
3.74532e-06
1.15384e-06
0.0201257
0.0526629
0.0528791
0.0466165
0.0380354
0.0298104
0.0229802
0.0175627
0.0133371
0.0100703
0.00755798
0.00563315
0.00416485
0.00305713
0.00221247
0.00158645
0.00112268
0.000783459
0.0005385
0.000364208
0.000242106
0.000158022
0.000101178
6.34809e-05
3.89723e-05
2.33612e-05
1.35844e-05
7.54997e-06
3.71638e-06
1.14452e-06
0.00393164
0.0425474
0.046614
0.0431538
0.036065
0.028703
0.0223555
0.017202
0.0131241
0.00994151
0.00747809
0.00558243
0.00413191
0.00303083
0.00219683
0.00157597
0.00111546
0.00077845
0.000535019
0.000361808
0.00024046
0.000156909
0.000100435
6.29942e-05
3.86597e-05
2.31652e-05
1.34653e-05
7.48138e-06
3.6817e-06
1.13339e-06
-0.0130862
0.031645
0.0396858
0.0392391
0.0338153
0.0274284
0.0216307
0.0167818
0.0128754
0.00979091
0.00738463
0.00552306
0.00409318
0.00300317
0.00217864
0.00156372
0.00110702
0.000772607
0.00053096
0.000359009
0.000238541
0.00015561
9.95698e-05
6.24271e-05
3.82955e-05
2.29369e-05
1.33267e-05
7.40152e-06
3.64133e-06
1.12046e-06
-0.0303255
0.0202165
0.0322782
0.0349078
0.031306
0.0259938
0.0208078
0.0163023
0.0125908
0.00961833
0.00727746
0.00545497
0.00404885
0.00297431
0.00215855
0.00154972
0.00109737
0.000765934
0.000526321
0.000355812
0.000236349
0.000154128
9.85818e-05
6.17798e-05
3.788e-05
2.26765e-05
1.31685e-05
7.31046e-06
3.59529e-06
1.10577e-06
-0.0472555
0.00850397
0.0245432
0.0302001
0.0285574
0.0244066
0.0198888
0.015764
0.0122703
0.00942359
0.00715648
0.0053781
0.0039989
0.00293999
0.00213585
0.00153388
0.00108649
0.00075842
0.000521103
0.000352218
0.000233885
0.000152463
9.74719e-05
6.10529e-05
3.74135e-05
2.23841e-05
1.29911e-05
7.20828e-06
3.54362e-06
1.08933e-06
-0.0634542
-0.00328529
0.0165302
0.0251731
0.0255853
0.0226742
0.0188763
0.0151673
0.0119137
0.00920649
0.00702151
0.00529235
0.00394324
0.00290291
0.00210962
0.00151624
0.00107439
0.000750069
0.000515307
0.000348227
0.00023115
0.000150614
9.62403e-05
6.02466e-05
3.68962e-05
2.20601e-05
1.27945e-05
7.09507e-06
3.48636e-06
1.07117e-06
-0.0786222
-0.01497
0.00837993
0.0199558
0.0224037
0.0208033
0.0177726
0.0145125
0.0115208
0.00896679
0.0068724
0.00519764
0.00388183
0.00286239
0.00208823
0.00149673
0.00106107
0.000740881
0.000508932
0.00034384
0.000228144
0.000148583
9.48878e-05
5.93614e-05
3.63285e-05
2.17046e-05
1.25788e-05
6.97094e-06
3.42357e-06
1.05134e-06
-0.092583
-0.0263955
0.000211218
0.0145508
0.0190318
0.0187996
0.0165798
0.0137999
0.0110913
0.00870422
0.00670896
0.00509386
0.00381459
0.0028183
0.00205521
0.00147568
0.00104647
0.000730845
0.000501977
0.000339057
0.000224868
0.000146371
9.34149e-05
5.83979e-05
3.57108e-05
2.1318e-05
1.23444e-05
6.83599e-06
3.3553e-06
1.02988e-06
-0.105273
-0.0374432
-0.00790495
0.00897881
0.0154911
0.0166657
0.015299
0.0130294
0.0106249
0.00841844
0.00653098
0.00498089
0.00374146
0.00276997
0.00202159
0.00145147
0.00103053
0.000719948
0.00049444
0.000333878
0.000221322
0.000143977
9.1822e-05
5.73563e-05
3.50434e-05
2.09004e-05
1.20913e-05
6.69035e-06
3.28161e-06
1.00681e-06
-0.116723
-0.0480351
-0.015908
0.00330855
0.0118386
0.014399
0.0139302
0.0122009
0.0101211
0.00810898
0.00633814
0.00485856
0.00366232
0.00271785
0.00198722
0.00143269
0.0010138
0.000708239
0.000486312
0.000328299
0.000217505
0.000141403
9.01093e-05
5.6237e-05
3.43266e-05
2.04522e-05
1.18198e-05
6.53413e-06
3.20256e-06
9.82195e-07
-0.12701
-0.0581392
-0.0237476
-0.00242078
0.00807841
0.0119989
0.0124686
0.0113122
0.00957948
0.00777582
0.00613043
0.00472685
0.00357719
0.00266182
0.00194931
0.00140536
0.000993042
0.000695538
0.000477619
0.000322312
0.000213415
0.000138647
8.82772e-05
5.50406e-05
3.35611e-05
1.99738e-05
1.15302e-05
6.36751e-06
3.11824e-06
9.56071e-07
-0.136235
-0.0676785
-0.0313787
-0.00819881
0.00417433
0.00948406
0.0109178
0.0103595
0.00899542
0.00741638
0.00590674
0.00458538
0.00348602
0.00260193
0.0019093
0.00137781
0.000980309
0.000681405
0.000468364
0.000315962
0.000209069
0.000135713
8.6329e-05
5.37703e-05
3.27492e-05
1.94669e-05
1.12234e-05
6.19092e-06
3.02881e-06
9.28512e-07
-0.144515
-0.0770183
-0.0388698
-0.0139859
0.000197952
0.00688229
0.00930042
0.0093691
0.00838134
0.00703351
0.00566639
0.00443264
0.00338733
0.00253699
0.00186572
0.00134846
0.000957879
0.000668381
0.000457233
0.000309166
0.000204425
0.000132591
8.4262e-05
5.24253e-05
3.18907e-05
1.89311e-05
1.08993e-05
6.00443e-06
2.93436e-06
8.99589e-07
-0.151186
-0.0848152
-0.0456741
-0.0195685
-0.00385782
0.00411665
0.0074581
0.00825818
0.00772767
0.00664108
0.005426
0.00428231
0.00329123
0.00247416
0.00182375
0.00131968
0.000938323
0.000655741
0.000449826
0.00030115
0.000199166
0.000129186
8.20224e-05
5.09674e-05
3.09609e-05
1.83531e-05
1.05516e-05
5.80555e-06
2.8341e-06
8.69213e-07
-0.159727
-0.09565
-0.0541311
-0.0263512
-0.00861373
0.00103865
0.0054919
0.0069504
0.00687192
0.00609789
0.00508235
0.00406376
0.00315083
0.00238278
0.0017634
0.00127934
0.000911013
0.00063643
0.000437094
0.000294978
0.000194464
0.000125624
7.95678e-05
4.93487e-05
2.99303e-05
1.77177e-05
1.01735e-05
5.59123e-06
2.72679e-06
8.37107e-07
-0.156403
-0.0953624
-0.0550674
-0.0279038
-0.0102193
-0.000297524
0.00451841
0.00631068
0.00646441
0.00583411
0.00490892
0.00394737
0.00307105
0.00232713
0.00172402
0.00125121
0.000890761
0.000622045
0.00042655
0.000286686
0.00018919
0.000122325
7.74533e-05
4.79869e-05
2.90579e-05
1.7167e-05
9.83592e-06
5.39398e-06
2.62567e-06
8.06518e-07
-0.149733
-0.0934471
-0.0556084
-0.0296895
-0.0122677
-0.00211767
0.00305803
0.00520933
0.00566493
0.00526759
0.0045132
0.00367301
0.00288162
0.00219672
0.00163452
0.00119005
0.000849216
0.000594084
0.000407854
0.000274327
0.000181158
0.000117183
7.42174e-05
4.59898e-05
2.78509e-05
1.6454e-05
9.42711e-06
5.16946e-06
2.5164e-06
7.7378e-07
-0.143145
-0.0915357
-0.0559917
-0.0313155
-0.0142329
-0.00392419
0.001574
0.00406897
0.00482507
0.00466466
0.00408671
0.00337385
0.00267288
0.00205169
0.00153421
0.00112107
0.00080211
0.000562224
0.000386533
0.00026033
0.000172007
0.000111309
7.05196e-05
4.37101e-05
2.64765e-05
1.56455e-05
8.96603e-06
4.91805e-06
2.3948e-06
7.37393e-07
-0.13651
-0.0894985
-0.0561645
-0.0327292
-0.0160652
-0.00566024
0.000122153
0.00293897
0.00398437
0.00405576
0.00365267
0.00306737
0.00245782
0.00190154
0.00142992
0.00104908
0.00075278
0.000528761
0.000364067
0.000245485
0.000162302
0.000105082
6.65971e-05
4.12881e-05
2.50133e-05
1.47826e-05
8.47265e-06
4.6484e-06
2.26406e-06
6.98244e-07
-0.129863
-0.0872767
-0.056112
-0.0339343
-0.0177711
-0.00733507
-0.00130936
0.00180544
0.00312912
0.0034293
0.00320207
0.00274692
0.00223169
0.00174297
0.0013194
0.000972591
0.000700256
0.000493074
0.000340074
0.000229592
0.000151916
9.84169e-05
6.23971e-05
3.86935e-05
2.34448e-05
1.38569e-05
7.94296e-06
4.35867e-06
2.12347e-06
6.56105e-07
-0.123206
-0.0848692
-0.0558436
-0.0349293
-0.0193419
-0.00894227
-0.00271733
0.000668597
0.00225765
0.00278284
0.00273235
0.00241017
0.00199252
0.00157441
0.00120147
0.00089073
0.000643927
0.00045474
0.000314274
0.000212489
0.000140736
9.12377e-05
5.78717e-05
3.58974e-05
2.17544e-05
1.28594e-05
7.37214e-06
4.04649e-06
1.97199e-06
6.10683e-07
-0.116548
-0.0822842
-0.0553672
-0.0357102
-0.0207646
-0.0104697
-0.00409171
-0.000464151
0.00137475
0.00211912
0.0022449
0.00205768
0.00174047
0.00139581
0.00107598
0.000803341
0.000583649
0.000413641
0.00028658
0.000194112
0.000128717
8.35149e-05
5.30019e-05
3.28879e-05
1.99349e-05
1.17856e-05
6.75768e-06
3.71051e-06
1.80896e-06
5.618e-07
-0.109929
-0.0795319
-0.0546895
-0.0362761
-0.0220289
-0.0119063
-0.00542283
-0.00158529
0.000485448
0.00144118
0.00174137
0.00169025
0.00147583
0.00120722
0.000942881
0.000710334
0.000519329
0.000369697
0.000256929
0.000174414
0.000115824
7.52266e-05
4.77737e-05
2.9656e-05
1.79805e-05
1.06321e-05
6.09754e-06
3.3496e-06
1.63382e-06
5.09309e-07
-0.103384
-0.0766239
-0.053817
-0.0366301
-0.0231267
-0.013242
-0.0067018
-0.00268766
-0.000405332
0.000751962
0.00122337
0.00130865
0.00119888
0.00100866
0.000802089
0.00061159
0.000450855
0.000322815
0.000225249
0.000153342
0.000102023
6.63488e-05
4.21712e-05
2.61919e-05
1.58852e-05
9.39524e-06
5.38968e-06
2.96262e-06
1.44602e-06
4.53068e-07
-0.0969406
-0.0735757
-0.0527556
-0.036778
-0.0240523
-0.0144676
-0.00792
-0.00376397
-0.00129233
5.48238e-05
0.000692831
0.000913862
0.000910046
0.000800261
0.000653578
0.00050703
0.000378136
0.000272914
0.000191476
0.000130848
8.72798e-05
5.6859e-05
3.61801e-05
2.24863e-05
1.36434e-05
8.07178e-06
4.63216e-06
2.54854e-06
1.24506e-06
3.92952e-07
-0.0906296
-0.0704049
-0.051514
-0.036728
-0.0248025
-0.0155746
-0.00906916
-0.00480687
-0.00216991
-0.000646465
0.000152047
0.000507177
0.000609972
0.000582288
0.000497424
0.000396638
0.000301122
0.000219939
0.000155563
0.000106897
7.15679e-05
4.67391e-05
2.97881e-05
1.85315e-05
1.12504e-05
6.65888e-06
3.82336e-06
2.10647e-06
1.03052e-06
3.28868e-07
-0.0844777
-0.0671312
-0.050104
-0.0364899
-0.0253762
-0.0165559
-0.0101415
-0.00580906
-0.00303215
-0.00134776
-0.000396322
9.0177e-05
0.000299528
0.000355175
0.000333815
0.000280474
0.000219815
0.000163871
0.000117483
8.14641e-05
5.48694e-05
3.59764e-05
2.29867e-05
1.4322e-05
8.7027e-06
5.15444e-06
2.96208e-06
1.63577e-06
8.02081e-07
2.60757e-07
-0.0785086
-0.0637767
-0.0485402
-0.0360753
-0.0257755
-0.0174054
-0.0111298
-0.0067635
-0.00387299
-0.00204459
-0.000949283
-0.000335259
-2.0182e-05
0.000119532
0.000163063
0.000158685
0.000134274
0.000104726
7.72378e-05
5.45449e-05
3.71773e-05
2.45649e-05
1.57716e-05
9.85497e-06
5.99846e-06
3.55734e-06
2.04767e-06
1.13609e-06
5.59585e-07
1.88609e-07
-0.0727436
-0.0603657
-0.0468393
-0.0354974
-0.0260046
-0.0181193
-0.0120278
-0.00766359
-0.0046864
-0.00273223
-0.00150353
-0.000766954
-0.000347799
-0.000123838
-1.43762e-05
3.15203e-05
4.46302e-05
4.25714e-05
3.48579e-05
2.61538e-05
1.84981e-05
1.25076e-05
8.14402e-06
5.13075e-06
3.13786e-06
1.86766e-06
1.08015e-06
6.07448e-07
3.03052e-07
1.12474e-07
-0.0672019
-0.0569243
-0.0450203
-0.0347708
-0.0260709
-0.0186957
-0.0128303
-0.00850334
-0.00546646
-0.00340581
-0.00205547
-0.00120243
-0.000681703
-0.000373917
-0.000197884
-0.000100654
-4.89027e-05
-2.24698e-05
-9.58524e-06
-3.66781e-06
-1.14432e-06
-1.81675e-07
1.12026e-07
1.54148e-07
1.23662e-07
8.69872e-08
6.04317e-08
5.03547e-08
3.27403e-08
3.24718e-08
-0.0619005
-0.0534799
-0.0431043
-0.0339117
-0.0259844
-0.0191351
-0.0135331
-0.00927752
-0.0062076
-0.00406036
-0.00260126
-0.00163894
-0.00102
-0.000629456
-0.000386663
-0.000237336
-0.000146013
-9.02051e-05
-5.59736e-05
-3.48473e-05
-2.17055e-05
-1.34757e-05
-8.30776e-06
-5.06484e-06
-3.03816e-06
-1.78118e-06
-1.00949e-06
-5.34094e-07
-2.50804e-07
-5.11886e-08
-0.0568546
-0.0500609
-0.041114
-0.0329377
-0.0257574
-0.0194409
-0.0141339
-0.00998182
-0.00690473
-0.00469098
-0.00313689
-0.00207344
-0.00136052
-0.000888965
-0.000579714
-0.000377871
-0.000246277
-0.000160362
-0.000104133
-6.72743e-05
-4.3116e-05
-2.73309e-05
-1.70884e-05
-1.05098e-05
-6.33778e-06
-3.73105e-06
-2.12631e-06
-1.14408e-06
-5.46683e-07
-1.38196e-07
-0.0520776
-0.0466961
-0.0390736
-0.031867
-0.0254048
-0.0196193
-0.0146319
-0.010613
-0.00755338
-0.00529294
-0.00365823
-0.00250268
-0.00170083
-0.00115069
-0.000775824
-0.000521433
-0.000349143
-0.000232575
-0.000153826
-0.000100794
-6.52764e-05
-4.16845e-05
-2.61908e-05
-1.61567e-05
-9.76069e-06
-5.7541e-06
-3.28513e-06
-1.77693e-06
-8.53576e-07
-2.28116e-07
-0.047582
-0.0434145
-0.0370085
-0.0307187
-0.0249436
-0.0196793
-0.0150282
-0.0111689
-0.00814988
-0.00586182
-0.0041611
-0.00292319
-0.00203822
-0.00141263
-0.000973546
-0.00066701
-0.000453914
-0.000306373
-0.000204736
-0.000135199
-8.80527e-05
-5.64509e-05
-3.5561e-05
-2.19723e-05
-1.32869e-05
-7.83851e-06
-4.47919e-06
-2.42893e-06
-1.16967e-06
-3.20375e-07
-0.04338
-0.0402448
-0.0349449
-0.0295139
-0.0243922
-0.0196326
-0.0153265
-0.0116487
-0.00869142
-0.00639366
-0.00464137
-0.00333133
-0.00236974
-0.00167249
-0.00117118
-0.000813381
-0.000559731
-0.000381164
-0.000256464
-0.000170223
-0.000111271
-7.1518e-05
-4.51285e-05
-2.7913e-05
-1.68899e-05
-9.96864e-06
-5.69953e-06
-3.09519e-06
-1.49256e-06
-4.14236e-07
-0.0394831
-0.0372149
-0.0329097
-0.0282753
-0.0237705