/*--------------------------------*- C++ -*----------------------------------*\
  =========                 |
  \\      /  F ield         | OpenFOAM: The Open Source CFD Toolbox
   \\    /   O peration     | Website:  https://openfoam.org
    \\  /    A nd           | Version:  9
     \\/     M anipulation  |
\*---------------------------------------------------------------------------*/
FoamFile
{
    format      ascii;
    class       surfaceScalarField;
    location    "2";
    object      phi;
}
// * * * * * * * * * * * * * * * * * * * * * * * * * * * * * * * * * * * * * //

dimensions      [0 3 -1 0 0 0 0];

internalField   nonuniform List<scalar> 
16735
(
-0.021161
0.021161
-7.56273e-10
-0.0527675
0.0316064
-9.54675e-10
-0.0853455
0.032578
-7.06276e-10
-0.112123
0.0267779
-1.62691e-10
-0.125201
0.0130775
5.82857e-10
-0.116496
-0.00870475
1.3936e-09
-0.0818166
-0.0346795
1.9711e-09
-0.0226088
-0.0592078
2.09418e-09
0.0519143
-0.0745232
1.8275e-09
-0.0928813
1.29421e-09
0.144796
-0.0204447
0.0416057
-0.0511736
0.0623353
-0.0827751
0.0641795
-0.108404
0.0524071
-0.120107
0.0247807
-0.109798
-0.0190145
-0.0734753
-0.071002
-0.0133548
-0.119328
0.0619019
-0.14978
-0.184976
0.153996
-0.0190448
0.0606505
-0.0480505
0.091341
-0.0777414
0.0938704
-0.101145
0.0758104
-0.110225
0.0338606
-0.0969171
-0.032322
-0.0576472
-0.110272
0.00405723
-0.181033
0.080376
-0.226099
-0.275454
0.170854
-0.0170255
0.077676
-0.043524
0.117839
-0.0704493
0.120796
-0.0906751
0.0960362
-0.0960863
0.0392718
-0.0787171
-0.0496912
-0.0356906
-0.153298
0.0280164
-0.24474
0.104991
-0.303073
-0.363388
0.192925
-0.01448
0.0921561
-0.0377757
0.141135
-0.0611863
0.144206
-0.0774369
0.112287
-0.0783585
0.0401934
-0.0561978
-0.0718519
-0.00901414
-0.200482
0.0561971
-0.309951
0.13328
-0.380156
-0.447796
0.217689
-0.0115274
0.103683
-0.031041
0.160649
-0.0503087
0.163474
-0.0619492
0.123927
-0.0577593
0.0360035
-0.0303532
-0.099258
0.0203054
-0.251141
0.0868853
-0.376531
0.163168
-0.456439
-0.52771
0.243082
-0.0083076
0.111991
-0.0235953
0.175936
-0.0382297
0.178108
-0.0447875
0.130485
-0.0350175
0.0262336
-0.00197541
-0.1323
0.0514158
-0.304532
0.118538
-0.443653
0.192964
-0.530865
-0.602346
0.2676
-0.00497609
0.116967
-0.0157472
0.186708
-0.0254115
0.187773
-0.0265783
0.131652
-0.0108685
0.0105238
0.0270207
-0.170189
0.0833383
-0.36085
0.149882
-0.510196
0.2213
-0.602283
-0.67124
0.290194
-0.00169676
0.118664
-0.00783096
0.192842
-0.0123601
0.192302
-0.00799834
0.12729
0.0137914
-0.011266
0.0566133
-0.213011
0.114906
-0.419143
0.179836
-0.575126
0.247229
-0.669676
-0.734169
0.310157
0.0013715
0.117292
-0.000232219
0.194446
0.00028516
0.191784
0.0105198
0.117056
0.0383093
-0.0390556
0.0857921
-0.260494
0.145116
-0.478466
0.207492
-0.637503
0.270079
-0.732264
-0.791137
0.327048
0.0040776
0.113215
0.0069432
0.19158
0.0126702
0.186057
0.0283511
0.101375
0.0621173
-0.0728217
0.113714
-0.312091
0.173107
-0.537859
0.232141
-0.696536
0.289414
-0.789537
-0.842361
0.340638
0.00628978
0.106925
0.0131816
0.184688
0.0236752
0.175564
0.0448773
0.0801725
0.0846642
-0.112609
0.139692
-0.367119
0.198205
-0.596371
0.253288
-0.75162
0.305018
-0.841267
-0.888215
0.350872
0.00791085
0.0990142
0.0182697
0.174329
0.0330925
0.160741
0.0598322
0.0534328
0.105588
-0.158364
0.163203
-0.424734
0.219934
-0.653102
0.270657
-0.802343
0.316863
-0.887473
-0.929182
0.35783
0.00889208
0.0901221
0.0220413
0.16118
0.040753
0.142029
0.0731637
0.0210222
0.12469
-0.209891
0.183886
-0.48393
0.23802
-0.707236
0.284172
-0.848495
0.325087
-0.928388
-0.965794
0.361699
0.0092375
0.0808846
0.0244358
0.145982
0.0467055
0.11976
0.0850626
-0.0173349
0.141887
-0.266715
0.201519
-0.543562
0.25237
-0.758086
0.293927
-0.890052
0.329952
-0.964412
-0.998576
0.362733
0.00900463
0.07188
0.0255316
0.129455
0.051268
0.0940231
0.0959015
-0.0619684
0.157144
-0.327957
0.215996
-0.602415
0.263041
-0.805132
0.300149
-0.92716
0.331766
-0.996029
-1.02804
0.361231
0.00830006
0.0635799
0.02557
0.112185
0.0549982
0.0645949
0.106103
-0.113074
0.170417
-0.392271
0.227301
-0.659299
0.27022
-0.84805
0.303154
-0.960094
0.330844
-1.02372
-1.0547
0.357506
0.00727024
0.0563097
0.0249591
0.094496
0.0585819
0.0309721
0.115966
-0.170457
0.181621
-0.457926
0.235501
-0.713179
0.274186
-0.886736
0.303314
-0.989222
0.327514
-1.04792
-1.07906
0.35187
0.00608731
0.0502224
0.0242375
0.0763458
0.0626735
-0.00746394
0.125517
-0.233301
0.190649
-0.523058
0.240735
-0.763265
0.275289
-0.92129
0.301031
-1.01496
0.322153
-1.06904
-1.10134
0.344434
0.00493069
0.0452917
0.023979
0.0572975
0.0677176
-0.0512025
0.134505
-0.300089
0.197418
-0.585971
0.243213
-0.809059
0.273901
-0.951979
0.296666
-1.03773
0.315087
-1.08746
-1.12184
0.335587
0.0039676
0.0413241
0.0246546
0.0366105
0.0738228
-0.100371
0.142508
-0.368774
0.201906
-0.645369
0.2432
-0.850354
0.270364
-0.979143
0.290536
-1.0579
0.307695
-1.10462
-1.14499
0.330846
0.00333766
0.0379864
0.0265157
0.0134325
0.0807416
-0.154597
0.149114
-0.437146
0.204169
-0.700423
0.240997
-0.887182
0.264984
-1.00313
0.282949
-1.07587
0.300459
-1.12213
-1.16773
0.323198
0.0031475
0.0348389
0.0295815
-0.0130015
0.0879525
-0.212968
0.154054
-0.503248
0.204341
-0.75071
0.236908
-0.919749
0.258058
-1.02428
0.274392
-1.0922
0.291013
-1.13875
-1.18773
0.311017
0.00346877
0.0313701
0.0336553
-0.043188
0.09483
-0.274142
0.157248
-0.565666
0.202613
-0.796074
0.231223
-0.94836
0.249897
-1.04295
0.264784
-1.10709
0.280697
-1.15467
-1.20692
0.299879
0.00433026
0.0270399
0.0384145
-0.0772722
0.100824
-0.336552
0.158758
-0.6236
0.199212
-0.836529
0.224216
-0.973363
0.240719
-1.05946
0.254402
-1.12077
0.269498
-1.16976
-1.22453
0.287114
0.00570359
0.0213363
0.0434984
-0.115067
0.105559
-0.398613
0.158661
-0.676701
0.194378
-0.872246
0.216126
-0.995112
0.230737
-1.07407
0.243324
-1.13336
0.257538
-1.18398
-1.24111
0.274118
0.00749945
0.0138368
0.048579
-0.156147
0.108827
-0.45886
0.157073
-0.724948
0.188337
-0.90351
0.207167
-1.01394
0.220107
-1.08701
0.23168
-1.14493
0.244982
-1.19728
-1.25648
0.260347
0.00958732
0.0042495
0.0533569
-0.199916
0.110728
-0.516232
0.154153
-0.768373
0.181299
-0.930656
0.197518
-1.03016
0.208961
-1.09845
0.219555
-1.15552
0.231873
-1.2096
-1.2707
0.246098
0.0118283
-0.00757884
0.0575771
-0.245665
0.111372
-0.570026
0.150071
-0.807071
0.173447
-0.954033
0.187329
-1.04404
0.197405
-1.10853
0.207026
-1.16514
0.218311
-1.22088
-1.2837
0.231313
0.0141057
-0.0216846
0.0610495
-0.292609
0.110826
-0.619802
0.14499
-0.841236
0.16494
-0.973982
0.176724
-1.05583
0.185523
-1.11732
0.194156
-1.17378
0.204344
-1.23107
-1.29544
0.21608
0.0163333
-0.0380179
0.0636588
-0.339934
0.109197
-0.66534
0.139065
-0.871104
0.155913
-0.99083
0.165801
-1.06572
0.17338
-1.1249
0.180997
-1.18139
0.190033
-1.2401
-1.30585
0.200444
0.0184495
-0.0564674
0.0653592
-0.386844
0.106606
-0.706587
0.13244
-0.896938
0.146483
-1.00487
0.154639
-1.07387
0.161029
-1.13129
0.167591
-1.18795
0.17542
-1.24793
-1.3149
0.184463
0.0204029
-0.0768703
0.0661558
-0.432597
0.103175
-0.743606
0.125242
-0.919004
0.136739
-1.01637
0.143292
-1.08042
0.148511
-1.13651
0.153971
-1.19342
0.160546
-1.25451
-1.32253
0.168175
0.022141
-0.0990113
0.0660842
-0.47654
0.0990188
-0.776541
0.117586
-0.937571
0.126757
-1.02554
0.13181
-1.08548
0.135857
-1.14056
0.140169
-1.19773
0.145443
-1.25978
-1.3287
0.151613
0.0236083
-0.12262
0.0651829
-0.518115
0.0942417
-0.8056
0.109573
-0.952902
0.116608
-1.03258
0.120235
-1.0891
0.123098
-1.14342
0.126213
-1.20084
0.13014
-1.26371
-1.33337
0.13481
0.0247539
-0.147374
0.0635407
-0.556901
0.088942
-0.831001
0.10129
-0.96525
0.106351
-1.03764
0.108602
-1.09135
0.110257
-1.14508
0.112128
-1.20271
0.114665
-1.26625
-1.3365
0.117797
0.0255416
-0.172915
0.0613725
-0.592732
0.0832177
-0.852846
0.0928092
-0.974842
0.0960328
-1.04086
0.0969371
-1.09226
0.0973578
-1.1455
0.0979384
-1.20329
0.0990456
-1.26735
-1.33806
0.100605
0.0259514
-0.198867
0.0587092
-0.62549
0.0771557
-0.871293
0.0841922
-0.981878
0.0856898
-1.04236
0.0852655
-1.09183
0.0844213
-1.14465
0.0836677
-1.20254
0.083308
-1.26699
-1.33801
0.0832649
0.0259798
-0.224846
0.0556064
-0.655117
0.0708313
-0.886518
0.0754933
-0.98654
0.0753531
-1.04222
0.0736073
-1.09009
0.071468
-1.14251
0.0693396
-1.20041
0.0674805
-1.26513
-1.33634
0.0658096
0.0256402
-0.250487
0.0521269
-0.681603
0.064313
-0.898704
0.0667569
-0.988984
0.0650481
-1.04051
0.0619808
-1.08702
0.058518
-1.13905
0.0549783
-1.19687
0.0515907
-1.26175
-1.33303
0.0482766
0.0249614
-0.275448
0.0483328
-0.704975
0.0576529
-0.908024
0.0580161
-0.989347
0.0547957
-1.03729
0.0504033
-1.08263
0.0455911
-1.13424
0.0406086
-1.19189
0.0356651
-1.2568
-1.32808
0.0307154
0.0239822
-0.29943
0.0442833
-0.725276
0.0508827
-0.914623
0.0493013
-0.987766
0.0446142
-1.0326
0.0388914
-1.07691
0.0327058
-1.12805
0.0262537
-1.18544
0.0197133
-1.25026
-1.32144
0.0130698
0.0227457
-0.322176
0.0400344
-0.742564
0.0440545
-0.918644
0.0406393
-0.984351
0.03452
-1.02648
0.0274604
-1.06985
0.0198792
-1.12047
0.011925
-1.17748
0.0038809
-1.24222
-1.31295
-0.00460917
0.0212944
-0.34347
0.0356375
-0.756907
0.0372116
-0.920218
0.0320538
-0.979193
0.0245273
-1.01896
0.0161217
-1.06144
0.00712366
-1.11148
-0.00236246
-1.168
-0.0119386
-1.23264
-1.30277
-0.0221183
0.0196684
-0.363139
0.0311391
-0.768378
0.0303892
-0.919468
0.0235651
-0.972369
0.0146447
-1.01004
0.00487257
-1.05167
-0.00549482
-1.10111
-0.0163703
-1.15712
-0.0276714
-1.22134
-1.29089
-0.0395455
0.0179041
-0.381043
0.026581
-0.777055
0.023617
-0.916504
0.0151911
-0.963943
0.00486154
-0.999708
-0.00618777
-1.04062
-0.0179454
-1.08935
-0.0303111
-1.14476
-0.0432663
-1.20839
-1.27731
-0.0568524
0.0160342
-0.397077
0.0219996
-0.78302
0.0169191
-0.911423
0.00694172
-0.953965
-0.00471347
-0.988053
-0.0170792
-1.02825
-0.0302658
-1.07616
-0.0441256
-1.1309
-0.0587067
-1.1938
-1.26201
-0.0740052
0.0140881
-0.411165
0.0174273
-0.78636
0.0103112
-0.904307
-0.00118271
-0.942472
-0.0140658
-0.97517
-0.0278322
-1.01449
-0.0424317
-1.06156
-0.0577853
-1.11554
-0.0739747
-1.17762
-1.245
-0.0909793
0.0120928
-0.423258
0.0128927
-0.78716
0.00378815
-0.895202
-0.00904263
-0.929641
-0.0232801
-0.960932
-0.03842
-0.999348
-0.0544263
-1.04556
-0.0712681
-1.0987
-0.0890519
-1.15983
-1.2263
-0.107751
0.010072
-0.43333
0.0084241
-0.785512
-0.00255789
-0.88422
-0.0167755
-0.915423
-0.0323265
-0.945381
-0.0488266
-0.982848
-0.0662331
-1.02815
-0.0845542
-1.08038
-0.10392
-1.14047
-1.20592
-0.124299
0.00804478
-0.441375
0.00405541
-0.781522
-0.00864345
-0.871522
-0.0243385
-0.899728
-0.0411915
-0.928528
-0.0590383
-0.965001
-0.0778362
-1.00935
-0.0976246
-1.06059
-0.11856
-1.11953
-1.18388
-0.140601
0.00602504
-0.4474
-0.000117044
-0.77538
-0.014612
-0.857027
-0.0317206
-0.882619
-0.0498652
-0.910384
-0.0690422
-0.945824
-0.0892191
-0.989176
-0.11046
-1.03935
-0.13295
-1.09704
-1.1602
-0.156635
0.00402639
-0.451426
-0.00457103
-0.766783
-0.0204434
-0.841154
-0.0389098
-0.864153
-0.0583367
-0.890957
-0.0788262
-0.925334
-0.100366
-0.967637
-0.123042
-1.01667
-0.14707
-1.07301
-1.1349
-0.172373
0.00208117
-0.453507
-0.00875901
-0.755943
-0.0261221
-0.823791
-0.0458979
-0.844377
-0.0665958
-0.870259
-0.0883782
-0.903552
-0.11126
-0.944755
-0.135351
-0.992584
-0.160894
-1.04747
-1.108
-0.187784
0.000262422
-0.45377
-0.0127824
-0.742898
-0.0316404
-0.804933
-0.0526812
-0.823336
-0.0746324
-0.848308
-0.0976861
-0.880498
-0.121887
-0.920553
-0.147368
-0.967104
-0.174399
-1.02044
-1.07958
-0.202827
-0.00182787
-0.451942
-0.0166624
-0.728063
-0.0369867
-0.784609
-0.0592547
-0.801068
-0.0824372
-0.825125
-0.106738
-0.856197
-0.132232
-0.89506
-0.159075
-0.940261
-0.18756
-0.991953
-1.04967
-0.217467
-0.0038069
-0.448135
-0.0204031
-0.711467
-0.0421488
-0.762863
-0.0656132
-0.777604
-0.0900015
-0.800737
-0.115524
-0.830675
-0.142281
-0.868303
-0.17046
-0.912082
-0.200357
-0.962056
-1.01832
-0.231706
-0.00569318
-0.442442
-0.0240046
-0.693156
-0.0471205
-0.739747
-0.0717512
-0.752973
-0.097317
-0.775171
-0.12403
-0.803961
-0.152024
-0.84031
-0.18152
-0.882586
-0.212784
-0.930792
-0.98559
-0.245514
-0.00750117
-0.434941
-0.0274659
-0.673191
-0.0518972
-0.715316
-0.0776635
-0.727207
-0.104375
-0.748459
-0.132249
-0.776088
-0.161451
-0.811107
-0.192255
-0.851781
-0.22481
-0.898237
-0.951741
-0.258659
-0.00923448
-0.425706
-0.0307852
-0.65164
-0.0564758
-0.689625
-0.0833451
-0.700338
-0.111169
-0.720635
-0.140169
-0.747089
-0.170552
-0.780724
-0.202611
-0.819723
-0.236444
-0.864404
-0.917245
-0.270941
-0.0108937
-0.414813
-0.0339604
-0.628574
-0.0608536
-0.662732
-0.0887909
-0.672401
-0.117691
-0.691734
-0.147783
-0.716997
-0.179312
-0.749195
-0.21252
-0.786516
-0.247034
-0.829889
-0.8806
-0.283679
-0.0124782
-0.402334
-0.0369895
-0.604062
-0.0650283
-0.634693
-0.0939964
-0.643432
-0.123935
-0.661795
-0.155084
-0.685848
-0.187708
-0.716572
-0.22196
-0.752263
-0.257719
-0.79413
-0.842335
-0.295984
-0.0139868
-0.388348
-0.0398699
-0.578179
-0.0689977
-0.605565
-0.098957
-0.613473
-0.129895
-0.630858
-0.162062
-0.65368
-0.195739
-0.682896
-0.231067
-0.716935
-0.26816
-0.757036
-0.80272
-0.307776
-0.0154182
-0.372929
-0.0425995
-0.550998
-0.0727596
-0.575405
-0.103668
-0.582565
-0.135563
-0.598963
-0.168705
-0.620538
-0.203381
-0.64822
-0.239742
-0.680574
-0.278024
-0.718753
-0.761853
-0.318891
-0.0167708
-0.356159
-0.0451761
-0.522593
-0.0763119
-0.544269
-0.108126
-0.55075
-0.140933
-0.566156
-0.175007
-0.586465
-0.21064
-0.612587
-0.24801
-0.643204
-0.287419
-0.679344
-0.719852
-0.32942
-0.0180429
-0.338116
-0.0475978
-0.493038
-0.0796523
-0.512215
-0.112326
-0.518076
-0.146
-0.532482
-0.180956
-0.551509
-0.217498
-0.576045
-0.25583
-0.604871
-0.296292
-0.638883
-0.676786
-0.339358
-0.0192324
-0.318883
-0.049863
-0.462407
-0.0827788
-0.479299
-0.116265
-0.48459
-0.150758
-0.49799
-0.186547
-0.515719
-0.223949
-0.538643
-0.263195
-0.565626
-0.304642
-0.597436
-0.632723
-0.348705
-0.0203367
-0.298547
-0.0519702
-0.430774
-0.0856893
-0.44558
-0.119939
-0.45034
-0.1552
-0.462729
-0.191772
-0.479146
-0.229983
-0.500432
-0.270087
-0.525523
-0.312453
-0.555069
-0.587726
-0.35745
-0.0213525
-0.277194
-0.0539177
-0.398208
-0.088382
-0.411116
-0.123344
-0.415378
-0.159321
-0.426752
-0.196623
-0.441844
-0.23559
-0.461465
-0.276495
-0.484618
-0.319715
-0.511849
-0.541858
-0.365582
-0.0222741
-0.25492
-0.0557039
-0.364779
-0.0908552
-0.375964
-0.126477
-0.379757
-0.163117
-0.390112
-0.201093
-0.403867
-0.240761
-0.421797
-0.282407
-0.442972
-0.326415
-0.467842
-0.495186
-0.373087
-0.0230877
-0.231832
-0.057327
-0.330539
-0.093108
-0.340183
-0.129335
-0.34353
-0.166582
-0.352865
-0.205177
-0.365272
-0.245488
-0.381486
-0.287815
-0.400646
-0.332541
-0.423115
-0.447776
-0.379951
-0.0238145
-0.208018
-0.0587882
-0.295566
-0.0951399
-0.303832
-0.131915
-0.306754
-0.169714
-0.315067
-0.208869
-0.326117
-0.249764
-0.340591
-0.292707
-0.357702
-0.338084
-0.377739
-0.399699
-0.386161
-0.0244882
-0.18353
-0.0600895
-0.259964
-0.09695
-0.266971
-0.134215
-0.269489
-0.172507
-0.276775
-0.212163
-0.286461
-0.253581
-0.299174
-0.297078
-0.314205
-0.343033
-0.331784
-0.351027
-0.391705
-0.0250882
-0.158441
-0.0612304
-0.223822
-0.0985372
-0.229664
-0.136232
-0.231794
-0.174958
-0.23805
-0.215056
-0.246363
-0.256934
-0.257295
-0.300917
-0.270222
-0.34738
-0.285321
-0.301835
-0.396572
-0.0256072
-0.132834
-0.0622101
-0.187219
-0.0999002
-0.191974
-0.137965
-0.193729
-0.177065
-0.19895
-0.217542
-0.205886
-0.259816
-0.215021
-0.304217
-0.225821
-0.351115
-0.238423
-0.252198
-0.400752
-0.0260422
-0.106792
-0.0630278
-0.150234
-0.101038
-0.153964
-0.139412
-0.155355
-0.178824
-0.159537
-0.219619
-0.165091
-0.262225
-0.172416
-0.306973
-0.181073
-0.354231
-0.191165
-0.202191
-0.404238
-0.0263915
-0.0804004
-0.0636827
-0.112942
-0.101949
-0.115698
-0.140571
-0.116734
-0.180234
-0.119873
-0.221284
-0.124042
-0.264155
-0.129544
-0.309181
-0.136047
-0.356724
-0.143622
-0.151891
-0.407024
-0.026654
-0.0537463
-0.0641743
-0.0754222
-0.102633
-0.077239
-0.141441
-0.0779259
-0.181294
-0.0800208
-0.222534
-0.0828012
-0.265605
-0.0864738
-0.310839
-0.0908137
-0.358595
-0.0958652
-0.101376
-0.40911
-0.0268293
-0.026917
-0.0645023
-0.0377493
-0.10309
-0.0386517
-0.142022
-0.038994
-0.182
-0.0400419
-0.223369
-0.0414326
-0.266573
-0.0432702
-0.311945
-0.0454414
-0.359842
-0.0479677
-0.0507223
-0.410496
-0.026917
-1.91556e-10
-0.0646663
-2.50162e-10
-0.103318
-2.43839e-10
-0.142312
-2.33071e-10
-0.182354
-2.23987e-10
-0.223786
-2.15243e-10
-0.267057
-2.0749e-10
-0.312498
-2.01061e-10
-0.360466
-1.95597e-10
-1.90486e-10
-0.411188
-0.026917
0.026917
-0.0646663
0.0377493
-0.103318
0.0386517
-0.142312
0.038994
-0.182354
0.0400419
-0.223786
0.0414326
-0.267057
0.0432702
-0.312498
0.0454414
-0.360466
0.0479677
0.0507223
-0.411188
-0.0268293
0.0537463
-0.0645023
0.0754222
-0.10309
0.077239
-0.142022
0.0779259
-0.182
0.0800208
-0.223369
0.0828012
-0.266573
0.0864738
-0.311945
0.0908137
-0.359842
0.0958652
0.101376
-0.410496
-0.026654
0.0804004
-0.0641743
0.112942
-0.102633
0.115698
-0.141441
0.116734
-0.181294
0.119873
-0.222534
0.124042
-0.265605
0.129544
-0.310839
0.136047
-0.358595
0.143622
0.151891
-0.40911
-0.0263915
0.106792
-0.0636827
0.150234
-0.101949
0.153964
-0.140571
0.155355
-0.180234
0.159537
-0.221284
0.165091
-0.264155
0.172416
-0.309181
0.181073
-0.356724
0.191165
0.202191
-0.407024
-0.0260422
0.132834
-0.0630278
0.187219
-0.101038
0.191974
-0.139412
0.193729
-0.178824
0.19895
-0.219619
0.205886
-0.262225
0.215021
-0.306973
0.225821
-0.354231
0.238423
0.252198
-0.404238
-0.0256072
0.158441
-0.0622101
0.223822
-0.0999002
0.229664
-0.137965
0.231794
-0.177065
0.23805
-0.217542
0.246363
-0.259816
0.257295
-0.304217
0.270222
-0.351115
0.285321
0.301835
-0.400752
-0.0250882
0.18353
-0.0612304
0.259964
-0.0985372
0.266971
-0.136232
0.269489
-0.174958
0.276775
-0.215056
0.286461
-0.256934
0.299174
-0.300917
0.314205
-0.34738
0.331784
0.351027
-0.396572
-0.0244882
0.208018
-0.0600895
0.295566
-0.09695
0.303832
-0.134215
0.306754
-0.172507
0.315067
-0.212163
0.326117
-0.253581
0.340591
-0.297078
0.357702
-0.343033
0.377739
0.399699
-0.391705
-0.0238145
0.231832
-0.0587882
0.330539
-0.0951399
0.340183
-0.131915
0.34353
-0.169714
0.352865
-0.208869
0.365272
-0.249764
0.381486
-0.292707
0.400646
-0.338084
0.423115
0.447776
-0.386161
-0.0230877
0.25492
-0.057327
0.364779
-0.093108
0.375964
-0.129335
0.379757
-0.166582
0.390112
-0.205177
0.403867
-0.245488
0.421797
-0.287815
0.442972
-0.332541
0.467842
0.495186
-0.379951
-0.0222741
0.277194
-0.0557039
0.398208
-0.0908552
0.411116
-0.126477
0.415378
-0.163117
0.426752
-0.201093
0.441844
-0.240761
0.461465
-0.282407
0.484618
-0.326415
0.511849
0.541858
-0.373087
-0.0213525
0.298547
-0.0539177
0.430774
-0.088382
0.44558
-0.123344
0.45034
-0.159321
0.462729
-0.196623
0.479146
-0.23559
0.500432
-0.276495
0.525523
-0.319715
0.555069
0.587726
-0.365582
-0.0203367
0.318883
-0.0519702
0.462407
-0.0856893
0.479299
-0.119939
0.48459
-0.1552
0.49799
-0.191772
0.515719
-0.229983
0.538643
-0.270087
0.565626
-0.312453
0.597436
0.632723
-0.35745
-0.0192324
0.338116
-0.049863
0.493038
-0.0827788
0.512215
-0.116265
0.518076
-0.150758
0.532482
-0.186547
0.551509
-0.223949
0.576045
-0.263195
0.604871
-0.304642
0.638883
0.676786
-0.348705
-0.0180429
0.356159
-0.0475978
0.522593
-0.0796523
0.544269
-0.112326
0.55075
-0.146
0.566156
-0.180956
0.586465
-0.217498
0.612587
-0.25583
0.643204
-0.296292
0.679344
0.719852
-0.339358
-0.0167708
0.372929
-0.0451761
0.550998
-0.0763119
0.575405
-0.108126
0.582565
-0.140933
0.598963
-0.175007
0.620538
-0.21064
0.64822
-0.24801
0.680574
-0.287419
0.718753
0.761853
-0.32942
-0.0154182
0.388348
-0.0425995
0.578179
-0.0727596
0.605565
-0.103668
0.613473
-0.135563
0.630858
-0.168705
0.65368
-0.203381
0.682896
-0.239742
0.716935
-0.278024
0.757036
0.80272
-0.318891
-0.0139868
0.402334
-0.0398699
0.604062
-0.0689977
0.634693
-0.098957
0.643432
-0.129895
0.661795
-0.162062
0.685848
-0.195739
0.716572
-0.231067
0.752263
-0.26816
0.79413
0.842335
-0.307776
-0.0124782
0.414813
-0.0369895
0.628574
-0.0650283
0.662732
-0.0939964
0.672401
-0.123935
0.691734
-0.155084
0.716997
-0.187708
0.749195
-0.22196
0.786516
-0.257719
0.829889
0.8806
-0.295984
-0.0108937
0.425706
-0.0339604
0.65164
-0.0608536
0.689625
-0.0887909
0.700338
-0.117691
0.720635
-0.147783
0.747089
-0.179312
0.780724
-0.21252
0.819723
-0.247034
0.864404
0.917245
-0.283679
-0.00923448
0.434941
-0.0307852
0.673191
-0.0564758
0.715316
-0.0833451
0.727207
-0.111169
0.748459
-0.140169
0.776088
-0.170552
0.811107
-0.202611
0.851781
-0.236444
0.898237
0.951741
-0.270941
-0.00750117
0.442442
-0.0274659
0.693156
-0.0518972
0.739747
-0.0776635
0.752973
-0.104375
0.775171
-0.132249
0.803961
-0.161451
0.84031
-0.192255
0.882586
-0.22481
0.930792
0.98559
-0.258659
-0.00569318
0.448135
-0.0240046
0.711467
-0.0471205
0.762863
-0.0717512
0.777604
-0.097317
0.800737
-0.12403
0.830675
-0.152024
0.868303
-0.18152
0.912082
-0.212784
0.962056
1.01832
-0.245514
-0.0038069
0.451942
-0.0204031
0.728063
-0.0421488
0.784609
-0.0656132
0.801068
-0.0900015
0.825125
-0.115524
0.856197
-0.142281
0.89506
-0.17046
0.940261
-0.200357
0.991953
1.04967
-0.231706
-0.00182787
0.45377
-0.0166624
0.742898
-0.0369867
0.804933
-0.0592547
0.823336
-0.0824372
0.848308
-0.106738
0.880498
-0.132232
0.920553
-0.159075
0.967104
-0.18756
1.02044
1.07958
-0.217467
0.000262422
0.453507
-0.0127824
0.755943
-0.0316404
0.823791
-0.0526812
0.844377
-0.0746324
0.870259
-0.0976861
0.903552
-0.121887
0.944755
-0.147368
0.992584
-0.174399
1.04747
1.108
-0.202827
0.00208117
0.451426
-0.00875901
0.766783
-0.0261221
0.841154
-0.0458979
0.864153
-0.0665958
0.890957
-0.0883782
0.925334
-0.11126
0.967637
-0.135351
1.01667
-0.160894
1.07301
1.1349
-0.187784
0.00402639
0.4474
-0.00457103
0.77538
-0.0204434
0.857027
-0.0389098
0.882619
-0.0583367
0.910384
-0.0788262
0.945824
-0.100366
0.989176
-0.123042
1.03935
-0.14707
1.09704
1.1602
-0.172373
0.00602504
0.441375
-0.000117044
0.781522
-0.014612
0.871522
-0.0317206
0.899728
-0.0498652
0.928528
-0.0690422
0.965001
-0.0892191
1.00935
-0.11046
1.06059
-0.13295
1.11953
1.18388
-0.156635
0.00804478
0.43333
0.00405541
0.785512
-0.00864345
0.88422
-0.0243385
0.915423
-0.0411915
0.945381
-0.0590383
0.982848
-0.0778362
1.02815
-0.0976246
1.08038
-0.11856
1.14047
1.20592
-0.140601
0.010072
0.423258
0.0084241
0.78716
-0.00255789
0.895202
-0.0167755
0.929641
-0.0323265
0.960932
-0.0488266
0.999348
-0.0662331
1.04556
-0.0845542
1.0987
-0.10392
1.15983
1.2263
-0.124299
0.0120928
0.411165
0.0128927
0.78636
0.00378815
0.904307
-0.00904263
0.942472
-0.0232801
0.97517
-0.03842
1.01449
-0.0544263
1.06156
-0.0712681
1.11554
-0.0890519
1.17762
1.245
-0.107751
0.0140881
0.397077
0.0174273
0.78302
0.0103112
0.911423
-0.00118271
0.953965
-0.0140658
0.988053
-0.0278322
1.02825
-0.0424317
1.07616
-0.0577853
1.1309
-0.0739747
1.1938
1.26201
-0.0909793
0.0160342
0.381043
0.0219996
0.777055
0.0169191
0.916504
0.00694172
0.963943
-0.00471347
0.999708
-0.0170792
1.04062
-0.0302658
1.08935
-0.0441256
1.14476
-0.0587067
1.20839
1.27731
-0.0740052
0.0179041
0.363139
0.026581
0.768378
0.023617
0.919468
0.0151911
0.972369
0.00486154
1.01004
-0.00618777
1.05167
-0.0179454
1.10111
-0.0303111
1.15712
-0.0432663
1.22134
1.29089
-0.0568524
0.0196684
0.34347
0.0311391
0.756907
0.0303892
0.920218
0.0235651
0.979193
0.0146447
1.01896
0.00487257
1.06144
-0.00549482
1.11148
-0.0163703
1.168
-0.0276714
1.23264
1.30277
-0.0395455
0.0212944
0.322176
0.0356375
0.742564
0.0372116
0.918644
0.0320538
0.984351
0.0245273
1.02648
0.0161217
1.06985
0.00712366
1.12047
-0.00236246
1.17748
-0.0119386
1.24222
1.31295
-0.0221183
0.0227457
0.29943
0.0400344
0.725276
0.0440545
0.914623
0.0406393
0.987766
0.03452
1.0326
0.0274604
1.07691
0.0198792
1.12805
0.011925
1.18544
0.0038809
1.25026
1.32144
-0.00460917
0.0239822
0.275448
0.0442833
0.704975
0.0508827
0.908024
0.0493013
0.989347
0.0446142
1.03729
0.0388914
1.08263
0.0327058
1.13424
0.0262537
1.19189
0.0197133
1.2568
1.32808
0.0130698
0.0249614
0.250487
0.0483328
0.681603
0.0576529
0.898704
0.0580161
0.988984
0.0547957
1.04051
0.0504033
1.08702
0.0455911
1.13905
0.0406086
1.19687
0.0356651
1.26175
1.33303
0.0307154
0.0256402
0.224846
0.0521269
0.655117
0.064313
0.886518
0.0667569
0.98654
0.0650481
1.04222
0.0619808
1.09009
0.058518
1.14251
0.0549783
1.20041
0.0515907
1.26513
1.33634
0.0482766
0.0259798
0.198867
0.0556064
0.62549
0.0708313
0.871293
0.0754933
0.981878
0.0753531
1.04236
0.0736073
1.09183
0.071468
1.14465
0.0693396
1.20254
0.0674805
1.26699
1.33801
0.0658096
0.0259514
0.172915
0.0587092
0.592732
0.0771557
0.852846
0.0841922
0.974842
0.0856898
1.04086
0.0852655
1.09226
0.0844213
1.1455
0.0836677
1.20329
0.083308
1.26735
1.33806
0.0832649
0.0255416
0.147374
0.0613725
0.556901
0.0832177
0.831001
0.0928092
0.96525
0.0960328
1.03764
0.0969371
1.09135
0.0973578
1.14508
0.0979384
1.20271
0.0990456
1.26625
1.3365
0.100605
0.0247539
0.12262
0.0635407
0.518115
0.088942
0.8056
0.10129
0.952902
0.106351
1.03258
0.108602
1.0891
0.110257
1.14342
0.112128
1.20084
0.114665
1.26371
1.33337
0.117797
0.0236083
0.0990113
0.0651829
0.47654
0.0942417
0.776541
0.109573
0.937571
0.116608
1.02554
0.120235
1.08548
0.123098
1.14056
0.126213
1.19773
0.13014
1.25978
1.3287
0.13481
0.022141
0.0768703
0.0660842
0.432597
0.0990188
0.743606
0.117586
0.919004
0.126757
1.01637
0.13181
1.08042
0.135857
1.13651
0.140169
1.19342
0.145443
1.25451
1.32253
0.151613
0.0204029
0.0564674
0.0661558
0.386844
0.103175
0.706587
0.125242
0.896938
0.136739
1.00487
0.143292
1.07387
0.148511
1.13129
0.153971
1.18795
0.160546
1.24793
1.3149
0.168175
0.0184495
0.0380179
0.0653592
0.339934
0.106606
0.66534
0.13244
0.871104
0.146483
0.99083
0.154639
1.06572
0.161029
1.1249
0.167591
1.18139
0.17542
1.2401
1.30585
0.184463
0.0163333
0.0216846
0.0636588
0.292609
0.109197
0.619802
0.139065
0.841236
0.155913
0.973982
0.165801
1.05583
0.17338
1.11732
0.180997
1.17378
0.190033
1.23107
1.29544
0.200444
0.0141057
0.00757884
0.0610495
0.245665
0.110826
0.570026
0.14499
0.807071
0.16494
0.954033
0.176724
1.04404
0.185523
1.10853
0.194156
1.16514
0.204344
1.22088
1.2837
0.21608
0.0118283
-0.0042495
0.0575771
0.199916
0.111372
0.516232
0.150071
0.768373
0.173447
0.930656
0.187329
1.03016
0.197405
1.09845
0.207026
1.15552
0.218311
1.2096
1.2707
0.231313
0.00958732
-0.0138368
0.0533569
0.156147
0.110728
0.45886
0.154153
0.724948
0.181299
0.90351
0.197518
1.01394
0.208961
1.08701
0.219555
1.14493
0.231873
1.19728
1.25648
0.246098
0.00749945
-0.0213363
0.048579
0.115067
0.108827
0.398613
0.157073
0.676701
0.188337
0.872246
0.207167
0.995112
0.220107
1.07407
0.23168
1.13336
0.244982
1.18398
1.24111
0.260347
0.00570359
-0.0270399
0.0434984
0.0772722
0.105559
0.336552
0.158661
0.6236
0.194378
0.836529
0.216126
0.973363
0.230737
1.05946
0.243324
1.12077
0.257538
1.16976
1.22453
0.274118
0.00433026
-0.0313701
0.0384145
0.043188
0.100824
0.274142
0.158758
0.565666
0.199212
0.796074
0.224216
0.94836
0.240719
1.04295
0.254402
1.10709
0.269498
1.15467
1.20692
0.287114
0.00346877
-0.0348389
0.0336553
0.0130015
0.09483
0.212968
0.157248
0.503248
0.202613
0.75071
0.231223
0.919749
0.249897
1.02428
0.264784
1.0922
0.280697
1.13875
1.18773
0.299879
0.0031475
-0.0379864
0.0295815
-0.0134325
0.0879525
0.154597
0.154054
0.437146
0.204341
0.700423
0.236908
0.887182
0.258058
1.00313
0.274392
1.07587
0.291013
1.12213
1.16773
0.311017
0.00333766
-0.0413241
0.0265157
-0.0366105
0.0807416
0.100371
0.149114
0.368774
0.204169
0.645369
0.240997
0.850354
0.264984
0.979143
0.282949
1.0579
0.300459
1.10462
1.14499
0.323198
0.0039676
-0.0452917
0.0246546
-0.0572975
0.0738228
0.0512025
0.142508
0.300089
0.201906
0.585971
0.2432
0.809059
0.270364
0.951979
0.290536
1.03773
0.307695
1.08746
1.12184
0.330846
0.00493069
-0.0502224
0.023979
-0.0763458
0.0677176
0.00746394
0.134505
0.233301
0.197418
0.523058
0.243213
0.763265
0.273901
0.92129
0.296666
1.01496
0.315087
1.06904
1.10134
0.335587
0.00608731
-0.0563097
0.0242375
-0.094496
0.0626735
-0.0309721
0.125517
0.170457
0.190649
0.457926
0.240735
0.713179
0.275289
0.886736
0.301031
0.989222
0.322153
1.04792
1.07906
0.344434
0.00727024
-0.0635799
0.0249591
-0.112185
0.0585819
-0.0645949
0.115966
0.113074
0.181621
0.392271
0.235501
0.659299
0.274186
0.84805
0.303314
0.960094
0.327514
1.02372
1.0547
0.35187
0.00830006
-0.07188
0.02557
-0.129455
0.0549982
-0.0940231
0.106103
0.0619684
0.170417
0.327957
0.227301
0.602415
0.27022
0.805132
0.303154
0.92716
0.330844
0.996029
1.02804
0.357506
0.00900463
-0.0808846
0.0255316
-0.145982
0.051268
-0.11976
0.0959015
0.0173349
0.157144
0.266715
0.215996
0.543562
0.263041
0.758086
0.300149
0.890052
0.331766
0.964412
0.998576
0.361231
0.0092375
-0.0901221
0.0244358
-0.16118
0.0467055
-0.142029
0.0850626
-0.0210222
0.141887
0.209891
0.201519
0.48393
0.25237
0.707236
0.293927
0.848495
0.329952
0.928388
0.965794
0.362733
0.00889208
-0.0990142
0.0220413
-0.174329
0.040753
-0.160741
0.0731637
-0.0534328
0.12469
0.158364
0.183886
0.424734
0.23802
0.653102
0.284172
0.802343
0.325087
0.887473
0.929182
0.361699
0.00791085
-0.106925
0.0182697
-0.184688
0.0330925
-0.175564
0.0598322
-0.0801725
0.105588
0.112609
0.163203
0.367119
0.219934
0.596371
0.270657
0.75162
0.316863
0.841267
0.888215
0.35783
0.00628978
-0.113215
0.0131816
-0.19158
0.0236752
-0.186057
0.0448773
-0.101375
0.0846642
0.0728217
0.139692
0.312091
0.198205
0.537859
0.253288
0.696536
0.305018
0.789537
0.842361
0.350872
0.0040776
-0.117292
0.0069432
-0.194446
0.0126702
-0.191784
0.0283511
-0.117056
0.0621173
0.0390556
0.113714
0.260494
0.173107
0.478466
0.232141
0.637503
0.289414
0.732264
0.791137
0.340638
0.0013715
-0.118664
-0.000232219
-0.192842
0.00028516
-0.192302
0.0105198
-0.12729
0.0383093
0.011266
0.0857921
0.213011
0.145116
0.419143
0.207492
0.575126
0.270079
0.669676
0.734169
0.327048
-0.00169676
-0.116967
-0.00783096
-0.186708
-0.0123601
-0.187773
-0.00799834
-0.131652
0.0137914
-0.0105238
0.0566133
0.170189
0.114906
0.36085
0.179836
0.510196
0.247229
0.602283
0.67124
0.310157
-0.00497609
-0.111991
-0.0157472
-0.175936
-0.0254115