/*--------------------------------*- C++ -*----------------------------------*\
  =========                 |
  \\      /  F ield         | OpenFOAM: The Open Source CFD Toolbox
   \\    /   O peration     | Website:  https://openfoam.org
    \\  /    A nd           | Version:  7
     \\/     M anipulation  |
\*---------------------------------------------------------------------------*/
FoamFile
{
    version     2.0;
    format      ascii;
    class       volVectorField;
    location    "2.6";
    object      U;
}
// * * * * * * * * * * * * * * * * * * * * * * * * * * * * * * * * * * * * * //

dimensions      [0 1 -1 0 0 0 0];

internalField   nonuniform List<vector> 
11050
(
(-3.34605e-11 2.94187e-11 0)
(-1.35399e-10 9.30569e-11 0)
(-2.95744e-10 1.14029e-10 0)
(-4.62802e-10 1.04936e-10 0)
(-5.7597e-10 8.18622e-11 0)
(-6.12049e-10 5.51719e-11 0)
(-5.60888e-10 3.18895e-11 0)
(-3.34965e-10 1.06708e-11 0)
(5.31957e-11 -3.22507e-11 0)
(4.74936e-10 -7.75088e-11 0)
(9.54206e-10 -1.16544e-10 0)
(1.54584e-09 -1.48758e-10 0)
(2.23508e-09 -1.74849e-10 0)
(3.00188e-09 -1.94463e-10 0)
(3.8352e-09 -2.06218e-10 0)
(4.79532e-09 -2.14072e-10 0)
(5.88598e-09 -2.39801e-10 0)
(6.97893e-09 -2.74687e-10 0)
(8.0608e-09 -2.9744e-10 0)
(9.18946e-09 -3.07763e-10 0)
(1.03633e-08 -3.1243e-10 0)
(1.15758e-08 -3.16478e-10 0)
(1.28082e-08 -3.18535e-10 0)
(1.40435e-08 -3.13698e-10 0)
(1.53556e-08 -3.0272e-10 0)
(1.67101e-08 -3.12982e-10 0)
(1.79829e-08 -3.20361e-10 0)
(1.92116e-08 -3.22745e-10 0)
(2.04409e-08 -3.20112e-10 0)
(2.16549e-08 -3.13e-10 0)
(2.28332e-08 -3.00363e-10 0)
(2.39669e-08 -2.79636e-10 0)
(2.51361e-08 -2.53839e-10 0)
(2.63165e-08 -2.51e-10 0)
(2.73741e-08 -2.48347e-10 0)
(2.83384e-08 -2.40354e-10 0)
(2.92651e-08 -2.27048e-10 0)
(3.01405e-08 -2.09314e-10 0)
(3.09456e-08 -1.86367e-10 0)
(3.16734e-08 -1.55633e-10 0)
(3.24111e-08 -1.20359e-10 0)
(3.31364e-08 -1.10609e-10 0)
(3.37077e-08 -1.01916e-10 0)
(3.41569e-08 -8.79576e-11 0)
(3.45476e-08 -6.87126e-11 0)
(-6.53599e-11 1.77226e-10 0)
(-2.53888e-10 3.88605e-10 0)
(-5.12138e-10 4.34314e-10 0)
(-7.26772e-10 3.64787e-10 0)
(-7.90346e-10 2.28662e-10 0)
(-6.46245e-10 5.94235e-11 0)
(-2.57521e-10 -1.21014e-10 0)
(4.90663e-10 -3.07974e-10 0)
(1.59613e-09 -5.27022e-10 0)
(2.89187e-09 -7.53551e-10 0)
(4.38619e-09 -9.65518e-10 0)
(6.15447e-09 -1.15755e-09 0)
(8.17895e-09 -1.32909e-09 0)
(1.04299e-08 -1.48029e-09 0)
(1.28907e-08 -1.61171e-09 0)
(1.56234e-08 -1.73377e-09 0)
(1.86166e-08 -1.8527e-09 0)
(2.17045e-08 -2.00136e-09 0)
(2.48564e-08 -2.11838e-09 0)
(2.81258e-08 -2.19782e-09 0)
(3.14983e-08 -2.25181e-09 0)
(3.49585e-08 -2.29317e-09 0)
(3.84818e-08 -2.32142e-09 0)
(4.20463e-08 -2.3299e-09 0)
(4.57238e-08 -2.32185e-09 0)
(4.94738e-08 -2.33864e-09 0)
(5.31199e-08 -2.34132e-09 0)
(5.6671e-08 -2.32826e-09 0)
(6.0191e-08 -2.29769e-09 0)
(6.36592e-08 -2.25021e-09 0)
(6.70458e-08 -2.18438e-09 0)
(7.03381e-08 -2.09767e-09 0)
(7.36188e-08 -1.99829e-09 0)
(7.68608e-08 -1.92672e-09 0)
(7.98811e-08 -1.85178e-09 0)
(8.26842e-08 -1.7631e-09 0)
(8.53474e-08 -1.65886e-09 0)
(8.78554e-08 -1.54023e-09 0)
(9.01831e-08 -1.40651e-09 0)
(9.2324e-08 -1.25557e-09 0)
(9.43725e-08 -1.09645e-09 0)
(9.6308e-08 -9.71868e-10 0)
(9.79412e-08 -8.49437e-10 0)
(9.92817e-08 -7.16654e-10 0)
(1.0042e-07 -5.7138e-10 0)
(-6.68109e-11 4.08931e-10 0)
(-2.41047e-10 7.70595e-10 0)
(-4.34986e-10 7.90975e-10 0)
(-5.09122e-10 5.745e-10 0)
(-3.36421e-10 2.03852e-10 0)
(1.5728e-10 -2.60923e-10 0)
(1.02432e-09 -7.78598e-10 0)
(2.39131e-09 -1.32672e-09 0)
(4.25814e-09 -1.89177e-09 0)
(6.45575e-09 -2.46529e-09 0)
(8.9907e-09 -3.01745e-09 0)
(1.19348e-08 -3.53634e-09 0)
(1.52661e-08 -4.0171e-09 0)
(1.89486e-08 -4.46038e-09 0)
(2.29587e-08 -4.87079e-09 0)
(2.73766e-08 -5.25935e-09 0)
(3.21383e-08 -5.56021e-09 0)
(3.70692e-08 -5.90686e-09 0)
(4.21721e-08 -6.20422e-09 0)
(4.74573e-08 -6.43792e-09 0)
(5.28913e-08 -6.6136e-09 0)
(5.84525e-08 -6.74691e-09 0)
(6.41152e-08 -6.84145e-09 0)
(6.9851e-08 -6.89682e-09 0)
(7.57159e-08 -6.91823e-09 0)
(8.16677e-08 -6.92731e-09 0)
(8.75112e-08 -6.9004e-09 0)
(9.32295e-08 -6.83947e-09 0)
(9.88868e-08 -6.74132e-09 0)
(1.04457e-07 -6.60627e-09 0)
(1.09904e-07 -6.43472e-09 0)
(1.15208e-07 -6.22845e-09 0)
(1.20441e-07 -5.99687e-09 0)
(1.25571e-07 -5.75838e-09 0)
(1.30404e-07 -5.50135e-09 0)
(1.34925e-07 -5.2189e-09 0)
(1.39212e-07 -4.90835e-09 0)
(1.43245e-07 -4.57052e-09 0)
(1.46998e-07 -4.20661e-09 0)
(1.50458e-07 -3.81938e-09 0)
(1.53715e-07 -3.41952e-09 0)
(1.56747e-07 -3.02473e-09 0)
(1.59355e-07 -2.62635e-09 0)
(1.61535e-07 -2.21442e-09 0)
(1.63381e-07 -1.7858e-09 0)
(-4.85639e-11 6.01976e-10 0)
(-1.36174e-10 1.04946e-09 0)
(-1.4853e-10 9.67603e-10 0)
(4.97558e-11 5.13258e-10 0)
(5.9041e-10 -1.96152e-10 0)
(1.5556e-09 -1.07185e-09 0)
(3.00472e-09 -2.04912e-09 0)
(5.07453e-09 -3.08362e-09 0)
(7.7603e-09 -4.13385e-09 0)
(1.08944e-08 -5.18861e-09 0)
(1.44899e-08 -6.21111e-09 0)
(1.861e-08 -7.18582e-09 0)
(2.32268e-08 -8.10309e-09 0)
(2.82972e-08 -8.96086e-09 0)
(3.37918e-08 -9.76066e-09 0)
(3.98401e-08 -1.05077e-08 0)
(4.62781e-08 -1.10733e-08 0)
(5.29213e-08 -1.1693e-08 0)
(5.98647e-08 -1.22406e-08 0)
(6.70552e-08 -1.26989e-08 0)
(7.44345e-08 -1.30487e-08 0)
(8.19709e-08 -1.33175e-08 0)
(8.96389e-08 -1.35109e-08 0)
(9.7404e-08 -1.36328e-08 0)
(1.05309e-07 -1.36873e-08 0)
(1.13309e-07 -1.36841e-08 0)
(1.21198e-07 -1.36177e-08 0)
(1.28939e-07 -1.34867e-08 0)
(1.36594e-07 -1.32897e-08 0)
(1.44127e-07 -1.30279e-08 0)
(1.51497e-07 -1.27037e-08 0)
(1.58675e-07 -1.23216e-08 0)
(1.65724e-07 -1.18891e-08 0)
(1.72608e-07 -1.14168e-08 0)
(1.79124e-07 -1.09001e-08 0)
(1.85249e-07 -1.03356e-08 0)
(1.91052e-07 -9.72443e-09 0)
(1.9651e-07 -9.06886e-09 0)
(2.01592e-07 -8.372e-09 0)
(2.06281e-07 -7.63928e-09 0)
(2.10661e-07 -6.87976e-09 0)
(2.14708e-07 -6.10183e-09 0)
(2.18217e-07 -5.30735e-09 0)
(2.21183e-07 -4.48895e-09 0)
(2.23692e-07 -3.64777e-09 0)
(-1.8205e-11 7.13735e-10 0)
(2.98875e-11 1.13341e-09 0)
(2.80843e-10 8.5306e-10 0)
(8.4388e-10 6.43207e-11 0)
(1.84761e-09 -1.08291e-09 0)
(3.37519e-09 -2.47049e-09 0)
(5.48711e-09 -4.00911e-09 0)
(8.32715e-09 -5.63153e-09 0)
(1.18833e-08 -7.27859e-09 0)
(1.59889e-08 -8.92718e-09 0)
(2.06623e-08 -1.05264e-08 0)
(2.59565e-08 -1.20635e-08 0)
(3.18403e-08 -1.35235e-08 0)
(3.82661e-08 -1.48957e-08 0)
(4.52003e-08 -1.61716e-08 0)
(5.2846e-08 -1.73375e-08 0)
(6.08906e-08 -1.82675e-08 0)
(6.91315e-08 -1.92052e-08 0)
(7.78058e-08 -2.00593e-08 0)
(8.6804e-08 -2.07961e-08 0)
(9.60347e-08 -2.136e-08 0)
(1.05437e-07 -2.17994e-08 0)
(1.14995e-07 -2.21212e-08 0)
(1.24668e-07 -2.23276e-08 0)
(1.34491e-07 -2.24209e-08 0)
(1.44408e-07 -2.23961e-08 0)
(1.54205e-07 -2.22846e-08 0)
(1.63842e-07 -2.2065e-08 0)
(1.73367e-07 -2.17417e-08 0)
(1.82739e-07 -2.13177e-08 0)
(1.91907e-07 -2.07969e-08 0)
(2.00836e-07 -2.01855e-08 0)
(2.09581e-07 -1.94905e-08 0)
(2.18101e-07 -1.87194e-08 0)
(2.2619e-07 -1.78775e-08 0)
(2.33814e-07 -1.69529e-08 0)
(2.41034e-07 -1.59569e-08 0)
(2.47825e-07 -1.48946e-08 0)
(2.54148e-07 -1.37704e-08 0)
(2.59984e-07 -1.25915e-08 0)
(2.65411e-07 -1.13657e-08 0)
(2.70402e-07 -1.00993e-08 0)
(2.74753e-07 -8.80485e-09 0)
(2.78452e-07 -7.46671e-09 0)
(2.81581e-07 -6.09726e-09 0)
(1.78968e-11 7.1593e-10 0)
(2.34923e-10 9.67812e-10 0)
(8.04966e-10 3.81414e-10 0)
(1.79306e-09 -8.43534e-10 0)
(3.32569e-09 -2.52865e-09 0)
(5.48215e-09 -4.52655e-09 0)
(8.31939e-09 -6.72323e-09 0)
(1.1982e-08 -9.03033e-09 0)
(1.64474e-08 -1.1376e-08 0)
(2.15564e-08 -1.37172e-08 0)
(2.73243e-08 -1.59814e-08 0)
(3.37878e-08 -1.81723e-08 0)
(4.0923e-08 -2.02657e-08 0)
(4.86826e-08 -2.22359e-08 0)
(5.70386e-08 -2.40507e-08 0)
(6.62321e-08 -2.56959e-08 0)
(7.583e-08 -2.70894e-08 0)
(8.55984e-08 -2.83897e-08 0)
(9.58953e-08 -2.95685e-08 0)
(1.0662e-07 -3.06104e-08 0)
(1.17619e-07 -3.13879e-08 0)
(1.28787e-07 -3.20225e-08 0)
(1.4013e-07 -3.24955e-08 0)
(1.51606e-07 -3.28056e-08 0)
(1.6325e-07 -3.29601e-08 0)
(1.74968e-07 -3.29464e-08 0)
(1.86552e-07 -3.27974e-08 0)
(1.97974e-07 -3.24679e-08 0)
(2.09258e-07 -3.19909e-08 0)
(2.20356e-07 -3.13706e-08 0)
(2.31213e-07 -3.06114e-08 0)
(2.41784e-07 -2.9722e-08 0)
(2.52119e-07 -2.87111e-08 0)
(2.62169e-07 -2.75807e-08 0)
(2.71732e-07 -2.63497e-08 0)
(2.80766e-07 -2.49849e-08 0)
(2.89314e-07 -2.35227e-08 0)
(2.97351e-07 -2.1969e-08 0)
(3.04837e-07 -2.03285e-08 0)
(3.11746e-07 -1.861e-08 0)
(3.18155e-07 -1.68231e-08 0)
(3.24025e-07 -1.49706e-08 0)
(3.29163e-07 -1.30764e-08 0)
(3.33554e-07 -1.1105e-08 0)
(3.37261e-07 -9.09598e-09 0)
(5.86034e-11 6.19626e-10 0)
(4.68914e-10 6.17235e-10 0)
(1.39206e-09 -3.90182e-10 0)
(2.83826e-09 -2.16599e-09 0)
(4.94134e-09 -4.49238e-09 0)
(7.77258e-09 -7.1957e-09 0)
(1.13791e-08 -1.01435e-08 0)
(1.59e-08 -1.32407e-08 0)
(2.13068e-08 -1.64087e-08 0)
(2.74546e-08 -1.95041e-08 0)
(3.4331e-08 -2.25019e-08 0)
(4.19529e-08 -2.53962e-08 0)
(5.0326e-08 -2.81399e-08 0)
(5.94156e-08 -3.06974e-08 0)
(6.91768e-08 -3.30611e-08 0)
(7.98594e-08 -3.52274e-08 0)
(9.09712e-08 -3.7569e-08 0)
(1.02247e-07 -3.92634e-08 0)
(1.14086e-07 -4.0719e-08 0)
(1.26469e-07 -4.19454e-08 0)
(1.39157e-07 -4.30236e-08 0)
(1.51969e-07 -4.38896e-08 0)
(1.65001e-07 -4.45285e-08 0)
(1.78174e-07 -4.49458e-08 0)
(1.9152e-07 -4.51664e-08 0)
(2.04943e-07 -4.52104e-08 0)
(2.18246e-07 -4.49698e-08 0)
(2.31374e-07 -4.44947e-08 0)
(2.44313e-07 -4.38358e-08 0)
(2.57039e-07 -4.29897e-08 0)
(2.69484e-07 -4.19573e-08 0)
(2.81599e-07 -4.07483e-08 0)
(2.93432e-07 -3.93823e-08 0)
(3.04921e-07 -3.78592e-08 0)
(3.1588e-07 -3.61312e-08 0)
(3.26247e-07 -3.42438e-08 0)
(3.36034e-07 -3.22393e-08 0)
(3.45239e-07 -3.0115e-08 0)
(3.53815e-07 -2.78751e-08 0)
(3.61729e-07 -2.55325e-08 0)
(3.69059e-07 -2.3109e-08 0)
(3.75754e-07 -2.06085e-08 0)
(3.81642e-07 -1.79744e-08 0)
(3.86688e-07 -1.52565e-08 0)
(3.90929e-07 -1.25032e-08 0)
(1.46846e-10 5.50139e-10 0)
(7.63711e-10 1.37876e-10 0)
(2.00577e-09 -1.46942e-09 0)
(3.92648e-09 -3.93453e-09 0)
(6.63402e-09 -7.01563e-09 0)
(1.01715e-08 -1.05231e-08 0)
(1.45619e-08 -1.43056e-08 0)
(1.99335e-08 -1.82482e-08 0)
(2.63421e-08 -2.22747e-08 0)
(3.3599e-08 -2.61998e-08 0)
(4.16003e-08 -3.0058e-08 0)
(5.04184e-08 -3.37697e-08 0)
(6.00695e-08 -3.72813e-08 0)
(7.04729e-08 -4.0552e-08 0)
(8.15716e-08 -4.35688e-08 0)
(9.32256e-08 -4.63231e-08 0)
(1.05817e-07 -4.92364e-08 0)
(1.19071e-07 -5.14365e-08 0)
(1.32506e-07 -5.33221e-08 0)
(1.46341e-07 -5.49181e-08 0)
(1.60488e-07 -5.63582e-08 0)
(1.74928e-07 -5.74789e-08 0)
(1.89588e-07 -5.82906e-08 0)
(2.04375e-07 -5.8805e-08 0)
(2.19297e-07 -5.90402e-08 0)
(2.34383e-07 -5.90234e-08 0)
(2.49379e-07 -5.86629e-08 0)
(2.6409e-07 -5.80561e-08 0)
(2.78577e-07 -5.71973e-08 0)
(2.92836e-07 -5.60888e-08 0)
(3.06783e-07 -5.47371e-08 0)
(3.20348e-07 -5.31509e-08 0)
(3.33578e-07 -5.13475e-08 0)
(3.4648e-07 -4.93393e-08 0)
(3.58797e-07 -4.70722e-08 0)
(3.70385e-07 -4.46415e-08 0)
(3.81327e-07 -4.20389e-08 0)
(3.91629e-07 -3.92698e-08 0)
(4.01228e-07 -3.63468e-08 0)
(4.10072e-07 -3.32842e-08 0)
(4.18243e-07 -3.01029e-08 0)
(4.25771e-07 -2.68238e-08 0)
(4.32412e-07 -2.33737e-08 0)
(4.3804e-07 -1.98648e-08 0)
(4.42767e-07 -1.62892e-08 0)
(1.72978e-10 3.72281e-10 0)
(9.44589e-10 -7.05836e-10 0)
(2.5525e-09 -3.07365e-09 0)
(5.00401e-09 -6.35372e-09 0)
(8.34961e-09 -1.03002e-08 0)
(1.26252e-08 -1.47109e-08 0)
(1.78491e-08 -1.94143e-08 0)
(2.41236e-08 -2.42645e-08 0)
(3.15221e-08 -2.91565e-08 0)
(3.98137e-08 -3.40314e-08 0)
(4.89004e-08 -3.88271e-08 0)
(5.89028e-08 -4.34396e-08 0)
(6.97995e-08 -4.78255e-08 0)
(8.15231e-08 -5.19394e-08 0)
(9.40014e-08 -5.57279e-08 0)
(1.07051e-07 -5.91633e-08 0)
(1.21044e-07 -6.22464e-08 0)
(1.35733e-07 -6.50404e-08 0)
(1.50618e-07 -6.74943e-08 0)
(1.65937e-07 -6.96194e-08 0)
(1.81633e-07 -7.13702e-08 0)
(1.97643e-07 -7.27367e-08 0)
(2.13878e-07 -7.37244e-08 0)
(2.30242e-07 -7.43374e-08 0)
(2.46742e-07 -7.45733e-08 0)
(2.63383e-07 -7.44399e-08 0)
(2.79885e-07 -7.40026e-08 0)
(2.96099e-07 -7.32568e-08 0)
(3.12094e-07 -7.21689e-08 0)
(3.27823e-07 -7.07586e-08 0)
(3.43205e-07 -6.9042e-08 0)
(3.58168e-07 -6.70274e-08 0)
(3.72747e-07 -6.47183e-08 0)
(3.86942e-07 -6.21363e-08 0)
(4.00476e-07 -5.93327e-08 0)
(4.13231e-07 -5.63098e-08 0)
(4.25301e-07 -5.30424e-08 0)
(4.36656e-07 -4.95555e-08 0)
(4.47233e-07 -4.58709e-08 0)
(4.56984e-07 -4.20028e-08 0)
(4.65975e-07 -3.79597e-08 0)
(4.74243e-07 -3.37698e-08 0)
(4.81519e-07 -2.94822e-08 0)
(4.87699e-07 -2.5109e-08 0)
(4.9292e-07 -2.06231e-08 0)
(1.69748e-10 -5.96604e-11 0)
(1.09088e-09 -1.99078e-09 0)
(3.09084e-09 -5.23414e-09 0)
(6.07809e-09 -9.44268e-09 0)
(1.00693e-08 -1.43593e-08 0)
(1.50935e-08 -1.97685e-08 0)
(2.11643e-08 -2.54873e-08 0)
(2.83819e-08 -3.13591e-08 0)
(3.67468e-08 -3.72372e-08 0)
(4.60527e-08 -4.31178e-08 0)
(5.62618e-08 -4.88522e-08 0)
(6.74449e-08 -5.43643e-08 0)
(7.95718e-08 -5.96082e-08 0)
(9.25819e-08 -6.45388e-08 0)
(1.06407e-07 -6.91106e-08 0)
(1.20856e-07 -7.32839e-08 0)
(1.36223e-07 -7.69771e-08 0)
(1.52282e-07 -8.03622e-08 0)
(1.68603e-07 -8.33227e-08 0)
(1.85396e-07 -8.58377e-08 0)
(2.02588e-07 -8.78998e-08 0)
(2.20103e-07 -8.95142e-08 0)
(2.3785e-07 -9.06884e-08 0)
(2.55735e-07 -9.1407e-08 0)
(2.73755e-07 -9.1679e-08 0)
(2.91862e-07 -9.15118e-08 0)
(3.09806e-07 -9.09714e-08 0)
(3.27481e-07 -9.00261e-08 0)
(3.44918e-07 -8.86702e-08 0)
(3.6205e-07 -8.69256e-08 0)
(3.788e-07 -8.48104e-08 0)
(3.95099e-07 -8.23366e-08 0)
(4.10974e-07 -7.95102e-08 0)
(4.26375e-07 -7.63501e-08 0)
(4.41057e-07 -7.29227e-08 0)
(4.54943e-07 -6.92008e-08 0)
(4.68088e-07 -6.51888e-08 0)
(4.80443e-07 -6.09131e-08 0)
(4.9195e-07 -5.63974e-08 0)
(5.02565e-07 -5.16609e-08 0)
(5.12348e-07 -4.67167e-08 0)
(5.21287e-07 -4.15852e-08 0)
(5.29147e-07 -3.63501e-08 0)
(5.35874e-07 -3.09786e-08 0)
(5.41563e-07 -2.54776e-08 0)
(1.85998e-10 -6.06735e-10 0)
(1.26719e-09 -3.56113e-09 0)
(3.64043e-09 -7.83959e-09 0)
(7.14941e-09 -1.31093e-08 0)
(1.17802e-08 -1.91086e-08 0)
(1.75488e-08 -2.56144e-08 0)
(2.44592e-08 -3.24368e-08 0)
(3.26144e-08 -3.94135e-08 0)
(4.19656e-08 -4.63862e-08 0)
(5.23096e-08 -5.33042e-08 0)
(6.36417e-08 -6.00356e-08 0)
(7.5997e-08 -6.65014e-08 0)
(8.93372e-08 -7.26499e-08 0)
(1.03605e-07 -7.84358e-08 0)
(1.18731e-07 -8.38139e-08 0)
(1.34574e-07 -8.875e-08 0)
(1.51296e-07 -9.31062e-08 0)
(1.68687e-07 -9.70998e-08 0)
(1.86438e-07 -1.00569e-07 0)
(2.04677e-07 -1.035e-07 0)
(2.23319e-07 -1.05894e-07 0)
(2.42281e-07 -1.07774e-07 0)
(2.61488e-07 -1.09141e-07 0)
(2.8084e-07 -1.0996e-07 0)
(3.00313e-07 -1.10266e-07 0)
(3.19848e-07 -1.10048e-07 0)
(3.39199e-07 -1.09365e-07 0)
(3.58277e-07 -1.08204e-07 0)
(3.77094e-07 -1.06558e-07 0)
(3.95571e-07 -1.04449e-07 0)
(4.13628e-07 -1.01898e-07 0)
(4.31197e-07 -9.8923e-08 0)
(4.48301e-07 -9.55401e-08 0)
(4.64872e-07 -9.17625e-08 0)
(4.8067e-07 -8.76328e-08 0)
(4.95634e-07 -8.31534e-08 0)
(5.09797e-07 -7.8336e-08 0)
(5.23104e-07 -7.32069e-08 0)
(5.35494e-07 -6.77919e-08 0)
(5.46924e-07 -6.21165e-08 0)
(5.57453e-07 -5.62043e-08 0)
(5.67045e-07 -5.00695e-08 0)
(5.75477e-07 -4.3778e-08 0)
(5.82721e-07 -3.73247e-08 0)
(5.88845e-07 -3.07256e-08 0)
(2.12952e-10 -1.23252e-09 0)
(1.45875e-09 -5.4009e-09 0)
(4.19294e-09 -1.08847e-08 0)
(8.21189e-09 -1.73528e-08 0)
(1.34722e-08 -2.45518e-08 0)
(1.99771e-08 -3.2255e-08 0)
(2.7719e-08 -4.02653e-08 0)
(3.68007e-08 -4.84131e-08 0)
(4.71404e-08 -5.65421e-08 0)
(5.85304e-08 -6.45679e-08 0)
(7.09822e-08 -7.23712e-08 0)
(8.45039e-08 -7.98536e-08 0)
(9.90463e-08 -8.69631e-08 0)
(1.14554e-07 -9.36487e-08 0)
(1.30956e-07 -9.98611e-08 0)
(1.48162e-07 -1.05559e-07 0)
(1.66218e-07 -1.10624e-07 0)
(1.84926e-07 -1.1522e-07 0)
(2.04088e-07 -1.19212e-07 0)
(2.23748e-07 -1.22577e-07 0)
(2.43798e-07 -1.2532e-07 0)
(2.64159e-07 -1.2746e-07 0)
(2.84794e-07 -1.29027e-07 0)
(3.0557e-07 -1.2993e-07 0)
(3.26456e-07 -1.30255e-07 0)
(3.47376e-07 -1.29928e-07 0)
(3.68074e-07 -1.29109e-07 0)
(3.88505e-07 -1.27734e-07 0)
(4.08658e-07 -1.25783e-07 0)
(4.28434e-07 -1.23285e-07 0)
(4.4775e-07 -1.20263e-07 0)
(4.66537e-07 -1.16742e-07 0)
(4.84821e-07 -1.12746e-07 0)
(5.0252e-07 -1.0828e-07 0)
(5.19392e-07 -1.03404e-07 0)
(5.35386e-07 -9.81249e-08 0)
(5.50526e-07 -9.24463e-08 0)
(5.64746e-07 -8.64036e-08 0)
(5.77981e-07 -8.00245e-08 0)
(5.90186e-07 -7.33382e-08 0)
(6.01429e-07 -6.63745e-08 0)
(6.1165e-07 -5.91433e-08 0)
(6.2063e-07 -5.1726e-08 0)
(6.28362e-07 -4.41263e-08 0)
(6.34901e-07 -3.63519e-08 0)
(2.42053e-10 -1.9595e-09 0)
(1.6484e-09 -7.52436e-09 0)
(4.73709e-09 -1.43734e-08 0)
(9.25907e-09 -2.21693e-08 0)
(1.51365e-08 -3.0685e-08 0)
(2.23678e-08 -3.96893e-08 0)
(3.09349e-08 -4.89767e-08 0)
(4.0931e-08 -5.83697e-08 0)
(5.22497e-08 -6.77175e-08 0)
(6.46749e-08 -7.69181e-08 0)
(7.82363e-08 -8.58584e-08 0)
(9.29195e-08 -9.44096e-08 0)
(1.08654e-07 -1.02531e-07 0)
(1.25391e-07 -1.1016e-07 0)
(1.43063e-07 -1.17233e-07 0)
(1.61605e-07 -1.23694e-07 0)
(1.80978e-07 -1.2941e-07 0)
(2.00994e-07 -1.34557e-07 0)
(2.21535e-07 -1.3906e-07 0)
(2.42588e-07 -1.42903e-07 0)
(2.64027e-07 -1.4605e-07 0)
(2.8574e-07 -1.48467e-07 0)
(3.07765e-07 -1.50138e-07 0)
(3.29939e-07 -1.51157e-07 0)
(3.5222e-07 -1.51514e-07 0)
(3.74468e-07 -1.5115e-07 0)
(3.96426e-07 -1.50195e-07 0)
(4.18179e-07 -1.48591e-07 0)
(4.39639e-07 -1.46304e-07 0)
(4.60681e-07 -1.43387e-07 0)
(4.81222e-07 -1.39863e-07 0)
(5.0119e-07 -1.35756e-07 0)
(5.2062e-07 -1.31096e-07 0)
(5.39404e-07 -1.25887e-07 0)
(5.57294e-07 -1.20218e-07 0)
(5.74281e-07 -1.14091e-07 0)
(5.90366e-07 -1.07489e-07 0)
(6.05464e-07 -1.00471e-07 0)
(6.19514e-07 -9.30656e-08 0)
(6.32469e-07 -8.53012e-08 0)
(6.44404e-07 -7.72106e-08 0)
(6.55225e-07 -6.8808e-08 0)
(6.64716e-07 -6.01958e-08 0)
(6.72916e-07 -5.138e-08 0)
(6.79855e-07 -4.23466e-08 0)
(2.68791e-10 -2.78449e-09 0)
(1.82858e-09 -9.89413e-09 0)
(5.27241e-09 -1.8205e-08 0)
(1.02913e-08 -2.74485e-08 0)
(1.6766e-08 -3.73947e-08 0)
(2.47103e-08 -4.77993e-08 0)
(3.40935e-08 -5.84554e-08 0)
(4.49922e-08 -6.91919e-08 0)
(5.72751e-08 -7.9878e-08 0)
(7.07196e-08 -9.03131e-08 0)
(8.53842e-08 -1.00404e-07 0)
(1.01222e-07 -1.10019e-07 0)
(1.18133e-07 -1.19132e-07 0)
(1.36096e-07 -1.27682e-07 0)
(1.55048e-07 -1.35626e-07 0)
(1.74972e-07 -1.42909e-07 0)
(1.9569e-07 -1.49502e-07 0)
(2.16954e-07 -1.5522e-07 0)
(2.38757e-07 -1.60234e-07 0)
(2.61109e-07 -1.64531e-07 0)
(2.83922e-07 -1.6806e-07 0)
(3.07096e-07 -1.70767e-07 0)
(3.30465e-07 -1.72619e-07 0)
(3.53888e-07 -1.73757e-07 0)
(3.77487e-07 -1.74121e-07 0)
(4.0104e-07 -1.73741e-07 0)
(4.2429e-07 -1.72587e-07 0)
(4.47348e-07 -1.70649e-07 0)
(4.7009e-07 -1.67938e-07 0)
(4.9236e-07 -1.64562e-07 0)
(5.14094e-07 -1.60516e-07 0)
(5.35213e-07 -1.55808e-07 0)
(5.55761e-07 -1.50468e-07 0)
(5.75589e-07 -1.44526e-07 0)
(5.94454e-07 -1.3801e-07 0)
(6.12409e-07 -1.30926e-07 0)
(6.29414e-07 -1.233e-07 0)
(6.45353e-07 -1.15228e-07 0)
(6.60191e-07 -1.06734e-07 0)
(6.73874e-07 -9.7842e-08 0)
(6.86479e-07 -8.85883e-08 0)
(6.97874e-07 -7.90142e-08 0)
(7.07848e-07 -6.91333e-08 0)
(7.16505e-07 -5.89817e-08 0)
(7.23835e-07 -4.85838e-08 0)
(3.02103e-10 -3.61411e-09 0)
(2.05328e-09 -1.23697e-08 0)
(5.84727e-09 -2.2294e-08 0)
(1.13122e-08 -3.3159e-08 0)
(1.83636e-08 -4.46719e-08 0)
(2.7004e-08 -5.65891e-08 0)
(3.71704e-08 -6.87061e-08 0)
(4.89062e-08 -8.08529e-08 0)
(6.21594e-08 -9.29242e-08 0)
(7.66982e-08 -1.04643e-07 0)
(9.25029e-08 -1.15918e-07 0)
(1.09508e-07 -1.26718e-07 0)
(1.2759e-07 -1.36928e-07 0)
(1.46729e-07 -1.46474e-07 0)
(1.66862e-07 -1.55315e-07 0)
(1.87919e-07 -1.63411e-07 0)
(2.09998e-07 -1.70941e-07 0)
(2.32721e-07 -1.77348e-07 0)
(2.55799e-07 -1.8291e-07 0)
(2.79445e-07 -1.87629e-07 0)
(3.03575e-07 -1.91494e-07 0)
(3.28063e-07 -1.94483e-07 0)
(3.5275e-07 -1.96602e-07 0)
(3.77503e-07 -1.97806e-07 0)
(4.02385e-07 -1.98096e-07 0)
(4.27226e-07 -1.97641e-07 0)
(4.51809e-07 -1.96181e-07 0)
(4.76173e-07 -1.93829e-07 0)
(5.00109e-07 -1.90724e-07 0)
(5.23507e-07 -1.86865e-07 0)
(5.46379e-07 -1.82249e-07 0)
(5.68614e-07 -1.76882e-07 0)
(5.90224e-07 -1.70795e-07 0)
(6.11096e-07 -1.64087e-07 0)
(6.31004e-07 -1.56649e-07 0)
(6.49938e-07 -1.48538e-07 0)
(6.67805e-07 -1.39887e-07 0)
(6.84518e-07 -1.30721e-07 0)
(7.00088e-07 -1.21072e-07 0)
(7.14449e-07 -1.10974e-07 0)
(7.27656e-07 -1.00464e-07 0)
(7.39638e-07 -8.96531e-08 0)
(7.50179e-07 -7.84076e-08 0)
(7.59307e-07 -6.68237e-08 0)
(7.66983e-07 -5.50445e-08 0)
(3.39832e-10 -4.49983e-09 0)
(2.25143e-09 -1.50762e-08 0)
(6.33972e-09 -2.68392e-08 0)
(1.2245e-08 -3.94747e-08 0)
(1.98908e-08 -5.26769e-08 0)
(2.92318e-08 -6.62162e-08 0)
(4.01918e-08 -7.98861e-08 0)
(5.27743e-08 -9.35019e-08 0)
(6.69783e-08 -1.06918e-07 0)
(8.2589e-08 -1.19987e-07 0)
(9.94379e-08 -1.32584e-07 0)
(1.17519e-07 -1.44663e-07 0)
(1.36788e-07 -1.56062e-07 0)
(1.57166e-07 -1.66691e-07 0)
(1.78566e-07 -1.76479e-07 0)
(2.00761e-07 -1.85386e-07 0)
(2.24097e-07 -1.93653e-07 0)
(2.48236e-07 -2.00794e-07 0)
(2.72616e-07 -2.06948e-07 0)
(2.97542e-07 -2.12124e-07 0)
(3.22952e-07 -2.16335e-07 0)
(3.48731e-07 -2.19581e-07 0)
(3.74735e-07 -2.21851e-07 0)
(4.00834e-07 -2.23112e-07 0)
(4.26931e-07 -2.23337e-07 0)
(4.53066e-07 -2.22725e-07 0)
(4.79038e-07 -2.20989e-07 0)
(5.04556e-07 -2.18327e-07 0)
(5.29609e-07 -2.14832e-07 0)
(5.54179e-07 -2.10443e-07 0)
(5.78194e-07 -2.05194e-07 0)
(6.01538e-07 -1.9911e-07 0)
(6.24158e-07 -1.92216e-07 0)
(6.46046e-07 -1.84593e-07 0)
(6.66995e-07 -1.76204e-07 0)
(6.86812e-07 -1.67119e-07 0)
(7.0549e-07 -1.57429e-07 0)
(7.2301e-07 -1.47117e-07 0)
(7.39324e-07 -1.36242e-07 0)
(7.5437e-07 -1.24855e-07 0)
(7.68148e-07 -1.12996e-07 0)
(7.80695e-07 -1.00763e-07 0)
(7.91809e-07 -8.81024e-08 0)
(8.0132e-07 -7.51205e-08 0)
(8.09289e-07 -6.19224e-08 0)
(3.53748e-10 -5.57062e-09 0)
(2.37995e-09 -1.81883e-08 0)
(6.76868e-09 -3.19158e-08 0)
(1.31411e-08 -4.64079e-08 0)
(2.13733e-08 -6.13948e-08 0)
(3.14022e-08 -7.66505e-08 0)
(4.31489e-08 -9.19686e-08 0)
(5.66218e-08 -1.0716e-07 0)
(7.1754e-08 -1.22008e-07 0)
(8.83134e-08 -1.36502e-07 0)
(1.06199e-07 -1.50476e-07 0)
(1.25398e-07 -1.63792e-07 0)
(1.45844e-07 -1.76345e-07 0)
(1.67442e-07 -1.88047e-07 0)
(1.90089e-07 -1.98827e-07 0)
(2.13414e-07 -2.08648e-07 0)
(2.3797e-07 -2.17642e-07 0)
(2.63487e-07 -2.25539e-07 0)
(2.8919e-07 -2.32318e-07 0)
(3.15421e-07 -2.37963e-07 0)
(3.42108e-07 -2.42496e-07 0)
(3.69154e-07 -2.45944e-07 0)
(3.96437e-07 -2.48323e-07 0)
(4.23836e-07 -2.49634e-07 0)
(4.51188e-07 -2.4987e-07 0)
(4.78581e-07 -2.49069e-07 0)
(5.05798e-07 -2.47139e-07 0)
(5.32498e-07 -2.44189e-07 0)
(5.58732e-07 -2.402e-07 0)
(5.84445e-07 -2.35213e-07 0)
(6.09561e-07 -2.29289e-07 0)
(6.33978e-07 -2.22466e-07 0)
(6.5765e-07 -2.14767e-07 0)
(6.80523e-07 -2.06162e-07 0)
(7.0238e-07 -1.96811e-07 0)
(7.23082e-07 -1.86715e-07 0)
(7.42621e-07 -1.75875e-07 0)
(7.60937e-07 -1.64335e-07 0)
(7.77973e-07 -1.52168e-07 0)
(7.9368e-07 -1.39442e-07 0)
(8.08065e-07 -1.2621e-07 0)
(8.21148e-07 -1.12488e-07 0)
(8.32703e-07 -9.83823e-08 0)
(8.42597e-07 -8.39531e-08 0)
(8.50914e-07 -6.92129e-08 0)
(3.68956e-10 -6.76025e-09 0)
(2.51735e-09 -2.15814e-08 0)
(7.20507e-09 -3.73796e-08 0)
(1.40252e-08 -5.38497e-08 0)
(2.28207e-08 -7.07329e-08 0)
(3.35147e-08 -8.78059e-08 0)
(4.60224e-08 -1.04865e-07 0)
(6.03801e-08 -1.21722e-07 0)
(7.64328e-08 -1.38133e-07 0)
(9.39337e-08 -1.54107e-07 0)
(1.12858e-07 -1.69452e-07 0)
(1.33158e-07 -1.8405e-07 0)
(1.54752e-07 -1.97804e-07 0)
(1.7754e-07 -2.10634e-07 0)
(2.01398e-07 -2.22463e-07 0)
(2.25904e-07 -2.33241e-07 0)
(2.5165e-07 -2.42905e-07 0)
(2.78455e-07 -2.51566e-07 0)
(3.05511e-07 -2.58981e-07 0)
(3.33086e-07 -2.65106e-07 0)
(3.61078e-07 -2.6996e-07 0)
(3.89386e-07 -2.73588e-07 0)
(4.17893e-07 -2.76039e-07 0)
(4.46493e-07 -2.77373e-07 0)
(4.75055e-07 -2.77618e-07 0)
(5.03705e-07 -2.76649e-07 0)
(5.32172e-07 -2.74512e-07 0)
(5.6009e-07 -2.71223e-07 0)
(5.87517e-07 -2.66753e-07 0)
(6.14357e-07 -2.6116e-07 0)
(6.40536e-07 -2.54527e-07 0)
(6.65976e-07 -2.46914e-07 0)
(6.90694e-07 -2.3836e-07 0)
(7.14541e-07 -2.28738e-07 0)
(7.37276e-07 -2.18363e-07 0)
(7.58868e-07 -2.0715e-07 0)
(7.79261e-07 -1.95121e-07 0)
(7.98365e-07 -1.82321e-07 0)
(8.16107e-07 -1.68815e-07 0)
(8.32442e-07 -1.54686e-07 0)
(8.4742e-07 -1.40012e-07 0)
(8.61026e-07 -1.2478e-07 0)
(8.73011e-07 -1.09143e-07 0)
(8.83296e-07 -9.31354e-08 0)
(8.91952e-07 -7.6785e-08 0)
(3.89597e-10 -8.01094e-09 0)
(2.66658e-09 -2.51831e-08 0)
(7.64527e-09 -4.32036e-08 0)
(1.48956e-08 -6.17916e-08 0)
(2.42365e-08 -8.06876e-08 0)
(3.55762e-08 -9.96782e-08 0)
(4.88241e-08 -1.18561e-07 0)
(6.40523e-08 -1.37148e-07 0)
(8.10184e-08 -1.55203e-07 0)
(9.94552e-08 -1.72706e-07 0)
(1.19406e-07 -1.89489e-07 0)
(1.40781e-07 -2.0544e-07 0)
(1.63489e-07 -2.20454e-07 0)
(1.87428e-07 -2.34466e-07 0)
(2.12478e-07 -2.47384e-07 0)
(2.38263e-07 -2.59122e-07 0)
(2.65185e-07 -2.69133e-07 0)
(2.93165e-07 -2.7838e-07 0)
(3.21586e-07 -2.86442e-07 0)
(3.50538e-07 -2.93249e-07 0)
(3.79865e-07 -2.98722e-07 0)
(4.09442e-07 -3.02832e-07 0)
(4.39137e-07 -3.05581e-07 0)
(4.68856e-07 -3.06978e-07 0)
(4.98619e-07 -3.07053e-07 0)
(5.28501e-07 -3.0526e-07 0)
(5.58142e-07 -3.02908e-07 0)
(5.87281e-07 -2.99301e-07 0)
(6.15927e-07 -2.94413e-07 0)
(6.43909e-07 -2.88247e-07 0)
(6.71153e-07 -2.80911e-07 0)
(6.97599e-07 -2.72466e-07 0)
(7.23389e-07 -2.62969e-07 0)
(7.48192e-07 -2.52254e-07 0)
(7.71746e-07 -2.40761e-07 0)
(7.94207e-07 -2.28391e-07 0)
(8.15434e-07 -2.15137e-07 0)
(8.35325e-07 -2.01057e-07 0)
(8.53783e-07 -1.86182e-07 0)
(8.70744e-07 -1.70587e-07 0)
(8.86311e-07 -1.54383e-07 0)
(9.00429e-07 -1.37571e-07 0)
(9.12823e-07 -1.20301e-07 0)
(9.23483e-07 -1.02632e-07 0)
(9.32466e-07 -8.46111e-08 0)
(4.13506e-10 -9.33808e-09 0)
(2.8174e-09 -2.90057e-08 0)
(8.07376e-09 -4.93945e-08 0)
(1.5744e-08 -7.0234e-08 0)
(2.56221e-08 -9.1253e-08 0)
(3.75947e-08 -1.1226e-07 0)
(5.15727e-08 -1.3305e-07 0)
(6.76475e-08 -1.53431e-07 0)
(8.55149e-08 -1.73214e-07 0)
(1.04879e-07 -1.92305e-07 0)
(1.25821e-07 -2.10596e-07 0)
(1.48246e-07 -2.27972e-07 0)
(1.72043e-07 -2.44291e-07 0)
(1.97111e-07 -2.59501e-07 0)
(2.23355e-07 -2.73483e-07 0)
(2.50824e-07 -2.86122e-07 0)
(2.79068e-07 -2.96915e-07 0)
(3.07789e-07 -3.06743e-07 0)
(3.37221e-07 -3.15323e-07 0)
(3.67296e-07 -3.22607e-07 0)
(3.97877e-07 -3.28489e-07 0)
(4.28788e-07 -3.32913e-07 0)
(4.59878e-07 -3.35877e-07 0)
(4.91016e-07 -3.37366e-07 0)
(5.22631e-07 -3.37367e-07 0)
(5.53571e-07 -3.35214e-07 0)
(5.83715e-07 -3.32483e-07 0)
(6.14038e-07 -3.28473e-07 0)
(6.439e-07 -3.23151e-07 0)
(6.73069e-07 -3.1642e-07 0)
(7.01415e-07 -3.08383e-07 0)
(7.28911e-07 -2.99079e-07 0)
(7.55801e-07 -2.8856e-07 0)
(7.81555e-07 -2.76758e-07 0)
(8.05864e-07 -2.6406e-07 0)
(8.29141e-07 -2.5046e-07 0)
(8.51178e-07 -2.35924e-07 0)
(8.71841e-07 -2.20515e-07 0)
(8.91043e-07 -2.04235e-07 0)
(9.08657e-07 -1.87124e-07 0)
(9.24807e-07 -1.69297e-07 0)
(9.39438e-07 -1.50967e-07 0)
(9.52243e-07 -1.31917e-07 0)
(9.63245e-07 -1.12483e-07 0)
(9.72521e-07 -9.27044e-08 0)
(4.39908e-10 -1.07461e-08 0)
(2.96301e-09 -3.30382e-08 0)
(8.48127e-09 -5.59117e-08 0)
(1.65708e-08 -7.90647e-08 0)
(2.69827e-08 -1.02285e-07 0)
(3.95763e-08 -1.25384e-07 0)
(5.42795e-08 -1.48159e-07 0)
(7.11669e-08 -1.70437e-07 0)
(8.9917e-08 -1.92121e-07 0)
(1.10197e-07 -2.12869e-07 0)
(1.3209e-07 -2.3271e-07 0)
(1.55553e-07 -2.51423e-07 0)
(1.80448e-07 -2.68863e-07 0)
(2.0666e-07 -2.85089e-07 0)
(2.34146e-07 -3.00065e-07 0)
(2.62926e-07 -3.13703e-07 0)
(2.92415e-07 -3.26349e-07 0)
(3.22322e-07 -3.36861e-07 0)
(3.52969e-07 -3.45901e-07 0)
(3.84276e-07 -3.53458e-07 0)
(4.161e-07 -3.59496e-07 0)
(4.48219e-07 -3.63987e-07 0)
(4.80467e-07 -3.66957e-07 0)
(5.12761e-07 -3.68419e-07 0)
(5.4578e-07 -3.6838e-07 0)
(5.7801e-07 -3.66648e-07 0)
(6.09131e-07 -3.63378e-07 0)
(6.40493e-07 -3.58792e-07 0)
(6.71501e-07 -3.52858e-07 0)
(7.01852e-07 -3.45243e-07 0)
(7.31337e-07 -3.36355e-07 0)
(7.59947e-07 -3.26177e-07 0)
(7.87932e-07 -3.14741e-07 0)
(8.14628e-07 -3.02224e-07 0)
(8.3971e-07 -2.88241e-07 0)
(8.63754e-07 -2.73469e-07 0)
(8.86554e-07 -2.57276e-07 0)
(9.07969e-07 -2.40264e-07 0)
(9.27926e-07 -2.22477e-07 0)
(9.46249e-07 -2.0389e-07 0)
(9.62865e-07 -1.84501e-07 0)
(9.78055e-07 -1.64544e-07 0)
(9.91417e-07 -1.43903e-07 0)
(1.00268e-06 -1.22673e-07 0)
(1.0122e-06 -1.01067e-07 0)
(4.69454e-10 -1.21567e-08 0)
(3.11582e-09 -3.71779e-08 0)
(8.93704e-09 -6.26218e-08 0)
(1.74608e-08 -8.82205e-08 0)
(2.83706e-08 -1.13803e-07 0)
(4.1556e-08 -1.39124e-07 0)
(5.69277e-08 -1.63985e-07 0)
(7.44913e-08 -1.88227e-07 0)
(9.41292e-08 -2.11864e-07 0)
(1.15434e-07 -2.34392e-07 0)
(1.38383e-07 -2.55779e-07 0)
(1.6307e-07 -2.75903e-07 0)
(1.89117e-07 -2.94732e-07 0)
(2.16328e-07 -3.12168e-07 0)
(2.44768e-07 -3.2818e-07 0)
(2.74111e-07 -3.42734e-07 0)
(3.04977e-07 -3.56581e-07 0)
(3.36756e-07 -3.67862e-07 0)
(3.68565e-07 -3.77521e-07 0)
(4.01037e-07 -3.85585e-07 0)
(4.34062e-07 -3.92013e-07 0)
(4.67405e-07 -3.96758e-07 0)
(5.00885e-07 -3.998e-07 0)
(5.34388e-07 -4.01139e-07 0)
(5.68558e-07 -4.00779e-07 0)
(6.02098e-07 -3.99781e-07 0)
(6.34474e-07 -3.96086e-07 0)
(6.66853e-07 -3.9063e-07 0)
(6.99152e-07 -3.83623e-07 0)
(7.30701e-07 -3.7528e-07 0)
(7.61055e-07 -3.65537e-07 0)
(7.90568e-07 -3.54402e-07 0)
(8.19286e-07 -3.4193e-07 0)
(8.47103e-07 -3.28651e-07 0)
(8.73209e-07 -3.1363e-07 0)
(8.98264e-07 -2.97116e-07 0)
(9.22134e-07 -2.79437e-07 0)
(9.44014e-07 -2.60849e-07 0)
(9.64441e-07 -2.41485e-07 0)
(9.83336e-07 -2.21309e-07 0)
(1.00056e-06 -2.00271e-07 0)
(1.01618e-06 -1.78435e-07 0)
(1.03002e-06 -1.5622e-07 0)
(1.04179e-06 -1.33169e-07 0)
(1.05157e-06 -1.09636e-07 0)
(4.86243e-10 -1.36015e-08 0)
(3.27301e-09 -4.14726e-08 0)
(9.37658e-09 -6.96382e-08 0)
(1.82557e-08 -9.78811e-08 0)
(2.96491e-08 -1.25967e-07 0)
(4.34576e-08 -1.53638e-07 0)
(5.95407e-08 -1.80696e-07 0)
(7.77802e-08 -2.0697e-07 0)
(9.82137e-08 -2.32368e-07 0)
(1.20572e-07 -2.56717e-07 0)
(1.44571e-07 -2.79784e-07 0)
(1.70184e-07 -3.01559e-07 0)
(1.9726e-07 -3.22009e-07 0)
(2.25699e-07 -3.4087e-07 0)
(2.55405e-07 -3.58037e-07 0)
(2.85625e-07 -3.73473e-07 0)
(3.17611e-07 -3.87811e-07 0)
(3.50891e-07 -4.00006e-07 0)
(3.83906e-07 -4.10401e-07 0)
(4.1757e-07 -4.18971e-07 0)
(4.51824e-07 -4.25743e-07 0)
(4.86431e-07 -4.30658e-07 0)
(5.21182e-07 -4.33737e-07 0)
(5.55975e-07 -4.35009e-07 0)
(5.90437e-07 -4.34502e-07 0)
(6.25118e-07 -4.3331e-07 0)
(6.59828e-07 -4.29304e-07 0)
(6.93653e-07 -4.23335e-07 0)
(7.26717e-07 -4.15648e-07 0)