/*--------------------------------*- C++ -*----------------------------------*\
  =========                 |
  \\      /  F ield         | OpenFOAM: The Open Source CFD Toolbox
   \\    /   O peration     | Website:  https://openfoam.org
    \\  /    A nd           | Version:  9
     \\/     M anipulation  |
\*---------------------------------------------------------------------------*/
FoamFile
{
    format      ascii;
    class       volScalarField;
    location    "26.6";
    object      p;
}
// * * * * * * * * * * * * * * * * * * * * * * * * * * * * * * * * * * * * * //

dimensions      [0 2 -2 0 0 0 0];

internalField   nonuniform List<scalar> 
8500
(
-0.305172
-0.309399
-0.310242
-0.312003
-0.314108
-0.314374
-0.318168
-0.314563
-0.320803
-0.31352
-0.305438
-0.309603
-0.31044
-0.31217
-0.314308
-0.314469
-0.318466
-0.314497
-0.321218
-0.313405
-0.305964
-0.310006
-0.310829
-0.312495
-0.314698
-0.314647
-0.319055
-0.31435
-0.322042
-0.313173
-0.306734
-0.310598
-0.311397
-0.312963
-0.315263
-0.314888
-0.319912
-0.31409
-0.323264
-0.312822
-0.307732
-0.311362
-0.312124
-0.313553
-0.315975
-0.315166
-0.321003
-0.313683
-0.324858
-0.312348
-0.308934
-0.31228
-0.312989
-0.314236
-0.316801
-0.315454
-0.322274
-0.313091
-0.326783
-0.311732
-0.310314
-0.31333
-0.313964
-0.314985
-0.317695
-0.31573
-0.323647
-0.312285
-0.328981
-0.310916
-0.311844
-0.31449
-0.315022
-0.315769
-0.318606
-0.315978
-0.325028
-0.311255
-0.331361
-0.30989
-0.3135
-0.31574
-0.316133
-0.316563
-0.319475
-0.316196
-0.326299
-0.310079
-0.333474
-0.308868
-0.315257
-0.317061
-0.31727
-0.317346
-0.320248
-0.3164
-0.327239
-0.308979
-0.33526
-0.307463
-0.317095
-0.318435
-0.318408
-0.318102
-0.320863
-0.316677
-0.327721
-0.307851
-0.336672
-0.305841
-0.319003
-0.319853
-0.319528
-0.318824
-0.321218
-0.31707
-0.327758
-0.306772
-0.337295
-0.304487
-0.320974
-0.321307
-0.320619
-0.319528
-0.321337
-0.317449
-0.32735
-0.306063
-0.336583
-0.303951
-0.323011
-0.3228
-0.321673
-0.320193
-0.321277
-0.317762
-0.326426
-0.305883
-0.334147
-0.304249
-0.325127
-0.324336
-0.322702
-0.320798
-0.321083
-0.317991
-0.325055
-0.306148
-0.329974
-0.304561
-0.327346
-0.325923
-0.323744
-0.32135
-0.320808
-0.317939
-0.323361
-0.306488
-0.32457
-0.303794
-0.329703
-0.327584
-0.324828
-0.321881
-0.320527
-0.317572
-0.321431
-0.306517
-0.318577
-0.301435
-0.332239
-0.329349
-0.325988
-0.32243
-0.3203
-0.316911
-0.319231
-0.306042
-0.312246
-0.297508
-0.335002
-0.331255
-0.327269
-0.323034
-0.320132
-0.316066
-0.31667
-0.304988
-0.305502
-0.292434
-0.33805
-0.33334
-0.328721
-0.32372
-0.319983
-0.315157
-0.313727
-0.303214
-0.298392
-0.28699
-0.341436
-0.335656
-0.330397
-0.324485
-0.319826
-0.314222
-0.310479
-0.300494
-0.291535
-0.281662
-0.345206
-0.338272
-0.332333
-0.325316
-0.319696
-0.313198
-0.307006
-0.296778
-0.285372
-0.275093
-0.349435
-0.341239
-0.334535
-0.326222
-0.319648
-0.311963
-0.30334
-0.292336
-0.279185
-0.268309
-0.354185
-0.344622
-0.336966
-0.327287
-0.319677
-0.31041
-0.29948
-0.287304
-0.272997
-0.261484
-0.359519
-0.348473
-0.339574
-0.32864
-0.319691
-0.308482
-0.295378
-0.281883
-0.266695
-0.254572
-0.365505
-0.352804
-0.342362
-0.330356
-0.319569
-0.306151
-0.291014
-0.276165
-0.260257
-0.247639
-0.372217
-0.357564
-0.345447
-0.332355
-0.319209
-0.303413
-0.286373
-0.270213
-0.253685
-0.240618
-0.379726
-0.362656
-0.349031
-0.334435
-0.318536
-0.300275
-0.281445
-0.264047
-0.246962
-0.233507
-0.388072
-0.367977
-0.353299
-0.336379
-0.317479
-0.296739
-0.276223
-0.257672
-0.240087
-0.226266
-0.397232
-0.373467
-0.358291
-0.338034
-0.315969
-0.292799
-0.270696
-0.251076
-0.233038
-0.218875
-0.407086
-0.379138
-0.363824
-0.339305
-0.313943
-0.288437
-0.264846
-0.244241
-0.2258
-0.211308
-0.417409
-0.385069
-0.369509
-0.340114
-0.311349
-0.283624
-0.258651
-0.237147
-0.218347
-0.203543
-0.427867
-0.391357
-0.374858
-0.340371
-0.308141
-0.278323
-0.252083
-0.229767
-0.210656
-0.195559
-0.438143
-0.398065
-0.37941
-0.339963
-0.304283
-0.272497
-0.245109
-0.222075
-0.202706
-0.187336
-0.447933
-0.405156
-0.382816
-0.338758
-0.299731
-0.266112
-0.237697
-0.214043
-0.194475
-0.178857
-0.45698
-0.412457
-0.384855
-0.336618
-0.29444
-0.259134
-0.229815
-0.205641
-0.185941
-0.170106
-0.465082
-0.419641
-0.385427
-0.33342
-0.288359
-0.25153
-0.221432
-0.196846
-0.177084
-0.161068
-0.472079
-0.426251
-0.384517
-0.329062
-0.281435
-0.243267
-0.212519
-0.187635
-0.167885
-0.151738
-0.477844
-0.431759
-0.382154
-0.323477
-0.273613
-0.234311
-0.203052
-0.177986
-0.158331
-0.142125
-0.482268
-0.435691
-0.378318
-0.316616
-0.264846
-0.22463
-0.193007
-0.167882
-0.148408
-0.132254
-0.485251
-0.437712
-0.372889
-0.308435
-0.255091
-0.214193
-0.182366
-0.157305
-0.138104
-0.122142
-0.486685
-0.437543
-0.365772
-0.298889
-0.244313
-0.202976
-0.171113
-0.146242
-0.127412
-0.111764
-0.486441
-0.434986
-0.356908
-0.287941
-0.232484
-0.19096
-0.159234
-0.13468
-0.116342
-0.101061
-0.48436
-0.429902
-0.346251
-0.275565
-0.219585
-0.178131
-0.146717
-0.12261
-0.104935
-0.089951
-0.480256
-0.422204
-0.333751
-0.261763
-0.205602
-0.164474
-0.133549
-0.110034
-0.093238
-0.0784153
-0.47392
-0.411833
-0.31937
-0.246538
-0.190523
-0.149985
-0.119737
-0.096991
-0.0812247
-0.0665903
-0.465137
-0.398753
-0.303088
-0.229888
-0.174332
-0.134687
-0.10532
-0.0835637
-0.0687831
-0.054562
-0.453696
-0.382949
-0.284896
-0.211812
-0.157039
-0.118642
-0.0903636
-0.0697264
-0.0559228
-0.0423356
-0.439403
-0.364419
-0.264789
-0.19233
-0.138728
-0.101908
-0.074826
-0.0554903
-0.0426901
-0.0299173
-0.422098
-0.343182
-0.242754
-0.17153
-0.119551
-0.0843879
-0.058747
-0.0408692
-0.0291325
-0.017321
-0.401664
-0.319297
-0.218794
-0.149565
-0.0994456
-0.0661367
-0.0421665
-0.0258875
-0.0152931
-0.00457356
-0.378034
-0.292891
-0.192992
-0.126404
-0.0784578
-0.0472139
-0.0251283
-0.0105779
-0.00121292
0.00828832
-0.351198
-0.264128
-0.165539
-0.101967
-0.0566464
-0.0276855
-0.00768014
0.00501994
0.0130682
0.0212203
-0.321202
-0.233038
-0.136573
-0.0763684
-0.0340785
-0.00762173
0.0101236
0.0208621
0.0275138
0.0341779
-0.288168
-0.199371
-0.106476
-0.0497531
-0.0108285
0.0129025
0.0282224
0.0369033
0.0420926
0.0471173
-0.25227
-0.163428
-0.0752024
-0.0222706
0.0130169
0.0338072
0.0465514
0.053102
0.0567725
0.059968
-0.213607
-0.125619
-0.0428062
0.00593293
0.0373576
0.0550073
0.0650453
0.0694244
0.0714981
0.0725566
-0.172152
-0.086571
-0.00941737
0.034715
0.0620826
0.076413
0.083642
0.0858369
0.0861568
0.0845465
-0.128385
-0.046445
0.0247846
0.0639327
0.0870725
0.0979314
0.102281
0.10228
0.100574
0.0956484
-0.082668
-0.00543287
0.0595954
0.0934367
0.112201
0.119467
0.120894
0.118644
0.114586
0.106181
-0.0353791
0.0362281
0.0947953
0.123071
0.137338
0.140923
0.139396
0.134787
0.128142
0.11746
0.013079
0.0782742
0.130155
0.15267
0.16235
0.162198
0.15769
0.150599
0.141442
0.12927
0.062287
0.120424
0.165441
0.182066
0.187101
0.183187
0.175682
0.166047
0.154536
0.141122
0.111814
0.162384
0.200414
0.211083
0.211453
0.203781
0.193276
0.181086
0.16737
0.15284
0.161222
0.203857
0.234837
0.239546
0.235267
0.22387
0.210384
0.195667
0.179869
0.164242
0.21007
0.24454
0.268475
0.267278
0.258406
0.243343
0.226918
0.209734
0.191969
0.175233
0.257923
0.284136
0.301094
0.294103
0.280733
0.262092
0.242797
0.223225
0.2036
0.185732
0.304351
0.322351
0.332469
0.31985
0.302113
0.280011
0.257938
0.236076
0.2147
0.195681
0.348933
0.358907
0.362379
0.34435
0.322417
0.296996
0.272261
0.248224
0.225207
0.205031
0.391259
0.393542
0.390619
0.367443
0.341519
0.312948
0.28569
0.259607
0.235064
0.213737
0.430956
0.426
0.416988
0.388973
0.359299
0.327774
0.298152
0.270167
0.244216
0.221763
0.467722
0.455992
0.441298
0.408795
0.375646
0.341385
0.309578
0.279848
0.252611
0.229073
0.501262
0.483262
0.463373
0.426771
0.390454
0.353701
0.319905
0.288597
0.260203
0.235638
0.531286
0.507594
0.483053
0.442781
0.403629
0.364646
0.329076
0.296367
0.266948
0.241432
0.55753
0.528802
0.500195
0.456713
0.415086
0.374155
0.337037
0.303113
0.272805
0.246432
0.579762
0.546724
0.514674
0.468472
0.42475
0.38217
0.343743
0.308796
0.27774
0.250621
0.597789
0.561226
0.526386
0.477978
0.432558
0.388642
0.349155
0.313383
0.281724
0.253985
0.611449
0.572199
0.535245
0.485165
0.438459
0.393531
0.353243
0.316847
0.284734
0.256515
0.620624
0.579561
0.541188
0.489984
0.442415
0.396807
0.355981
0.319168
0.28675
0.258204
0.625232
0.583256
0.54417
0.492402
0.4444
0.39845
0.357354
0.320332
0.287761
0.259049
0.625232
0.583256
0.54417
0.492402
0.4444
0.39845
0.357354
0.320332
0.287761
0.259049
0.620624
0.579561
0.541188
0.489984
0.442415
0.396807
0.355981
0.319168
0.28675
0.258204
0.611449
0.572199
0.535245
0.485165
0.438459
0.393531
0.353243
0.316847
0.284734
0.256515
0.597789
0.561226
0.526386
0.477978
0.432558
0.388642
0.349155
0.313383
0.281724
0.253985
0.579762
0.546724
0.514674
0.468472
0.42475
0.38217
0.343743
0.308796
0.27774
0.250621
0.55753
0.528802
0.500195
0.456713
0.415086
0.374155
0.337037
0.303113
0.272805
0.246432
0.531286
0.507594
0.483053
0.442781
0.403629
0.364646
0.329076
0.296367
0.266948
0.241432
0.501262
0.483262
0.463373
0.426771
0.390454
0.353701
0.319905
0.288597
0.260203
0.235638
0.467722
0.455992
0.441298
0.408795
0.375646
0.341385
0.309578
0.279848
0.252611
0.229073
0.430956
0.426
0.416988
0.388973
0.359299
0.327774
0.298152
0.270167
0.244216
0.221763
0.391259
0.393542
0.390619
0.367443
0.341519
0.312948
0.28569
0.259607
0.235064
0.213737
0.348933
0.358907
0.362379
0.34435
0.322417
0.296996
0.272261
0.248224
0.225207
0.205031
0.304351
0.322351
0.332468
0.31985
0.302113
0.280011
0.257938
0.236076
0.2147
0.195681
0.257923
0.284136
0.301094
0.294103
0.280733
0.262092
0.242797
0.223225
0.2036
0.185732
0.21007
0.24454
0.268475
0.267278
0.258406
0.243343
0.226918
0.209734
0.191969
0.175233
0.161222
0.203857
0.234837
0.239546
0.235267
0.22387
0.210384
0.195667
0.179869
0.164242
0.111814
0.162384
0.200414
0.211083
0.211453
0.203781
0.193276
0.181086
0.16737
0.15284
0.062287
0.120424
0.165441
0.182065
0.187101
0.183187
0.175682
0.166047
0.154536
0.141122
0.013079
0.0782741
0.130155
0.15267
0.16235
0.162198
0.15769
0.150599
0.141442
0.12927
-0.0353791
0.0362281
0.0947952
0.123071
0.137338
0.140923
0.139396
0.134787
0.128142
0.11746
-0.0826681
-0.00543289
0.0595953
0.0934367
0.112201
0.119467
0.120894
0.118644
0.114586
0.106181
-0.128385
-0.046445
0.0247846
0.0639326
0.0870725
0.0979314
0.102281
0.10228
0.100574
0.0956484
-0.172152
-0.086571
-0.00941739
0.034715
0.0620826
0.076413
0.083642
0.0858369
0.0861568
0.0845465
-0.213607
-0.125619
-0.0428063
0.00593291
0.0373576
0.0550072
0.0650453
0.0694243
0.0714981
0.0725566
-0.25227
-0.163428
-0.0752024
-0.0222706
0.0130169
0.0338072
0.0465514
0.053102
0.0567725
0.059968
-0.288168
-0.199371
-0.106476
-0.0497532
-0.0108285
0.0129025
0.0282224
0.0369033
0.0420926
0.0471172
-0.321202
-0.233038
-0.136573
-0.0763684
-0.0340785
-0.00762175
0.0101236
0.0208621
0.0275138
0.0341779
-0.351198
-0.264128
-0.165539
-0.101967
-0.0566464
-0.0276856
-0.00768016
0.00501993
0.0130682
0.0212203
-0.378034
-0.292891
-0.192992
-0.126404
-0.0784579
-0.0472139
-0.0251283
-0.010578
-0.00121294
0.00828831
-0.401664
-0.319297
-0.218794
-0.149565
-0.0994456
-0.0661367
-0.0421665
-0.0258875
-0.0152931
-0.00457358
-0.422098
-0.343182
-0.242754
-0.17153
-0.119551
-0.0843879
-0.058747
-0.0408692
-0.0291326
-0.0173211
-0.439403
-0.364419
-0.264789
-0.19233
-0.138728
-0.101908
-0.074826
-0.0554903
-0.0426901
-0.0299173
-0.453696
-0.382949
-0.284896
-0.211812
-0.157039
-0.118642
-0.0903637
-0.0697264
-0.0559228
-0.0423356
-0.465137
-0.398753
-0.303088
-0.229888
-0.174332
-0.134687
-0.10532
-0.0835637
-0.0687832
-0.054562
-0.47392
-0.411833
-0.31937
-0.246538
-0.190523
-0.149985
-0.119737
-0.096991
-0.0812248
-0.0665903
-0.480256
-0.422204
-0.333751
-0.261763
-0.205602
-0.164474
-0.133549
-0.110034
-0.093238
-0.0784153
-0.48436
-0.429903
-0.346251
-0.275566
-0.219585
-0.178131
-0.146717
-0.12261
-0.104935
-0.089951
-0.486441
-0.434986
-0.356908
-0.287941
-0.232484
-0.19096
-0.159234
-0.13468
-0.116342
-0.101061
-0.486686
-0.437544
-0.365772
-0.298889
-0.244313
-0.202976
-0.171113
-0.146242
-0.127412
-0.111764
-0.485251
-0.437712
-0.372889
-0.308435
-0.255091
-0.214193
-0.182366
-0.157305
-0.138104
-0.122142
-0.482268
-0.435691
-0.378319
-0.316616
-0.264846
-0.22463
-0.193007
-0.167882
-0.148408
-0.132254
-0.477844
-0.431759
-0.382155
-0.323477
-0.273613
-0.234311
-0.203052
-0.177986
-0.158331
-0.142125
-0.472079
-0.426251
-0.384517
-0.329062
-0.281435
-0.243267
-0.212519
-0.187635
-0.167885
-0.151738
-0.465082
-0.419641
-0.385427
-0.33342
-0.288359
-0.25153
-0.221432
-0.196846
-0.177084
-0.161068
-0.45698
-0.412457
-0.384855
-0.336618
-0.29444
-0.259134
-0.229815
-0.205641
-0.185941
-0.170106
-0.447933
-0.405156
-0.382816
-0.338758
-0.299731
-0.266112
-0.237697
-0.214043
-0.194475
-0.178857
-0.438144
-0.398065
-0.37941
-0.339963
-0.304283
-0.272497
-0.245109
-0.222075
-0.202706
-0.187336
-0.427867
-0.391357
-0.374858
-0.340371
-0.308141
-0.278323
-0.252083
-0.229767
-0.210657
-0.195559
-0.417409
-0.385069
-0.369509
-0.340114
-0.311349
-0.283624
-0.258651
-0.237147
-0.218347
-0.203543
-0.407086
-0.379138
-0.363824
-0.339305
-0.313943
-0.288437
-0.264846
-0.244241
-0.2258
-0.211308
-0.397232
-0.373467
-0.358291
-0.338034
-0.315969
-0.292799
-0.270696
-0.251076
-0.233039
-0.218875
-0.388072
-0.367977
-0.353299
-0.336379
-0.317479
-0.296739
-0.276223
-0.257672
-0.240087
-0.226266
-0.379726
-0.362657
-0.349031
-0.334435
-0.318536
-0.300275
-0.281445
-0.264047
-0.246963
-0.233507
-0.372217
-0.357564
-0.345447
-0.332355
-0.319209
-0.303413
-0.286373
-0.270213
-0.253685
-0.240618
-0.365505
-0.352804
-0.342362
-0.330356
-0.319569
-0.306151
-0.291014
-0.276166
-0.260257
-0.247639
-0.359519
-0.348473
-0.339574
-0.32864
-0.319691
-0.308482
-0.295378
-0.281883
-0.266695
-0.254572
-0.354185
-0.344622
-0.336966
-0.327287
-0.319677
-0.31041
-0.29948
-0.287305
-0.272997
-0.261484
-0.349435
-0.341239
-0.334535
-0.326223
-0.319648
-0.311963
-0.30334
-0.292336
-0.279185
-0.268309
-0.345206
-0.338272
-0.332333
-0.325316
-0.319696
-0.313198
-0.307006
-0.296778
-0.285372
-0.275093
-0.341436
-0.335656
-0.330397
-0.324485
-0.319826
-0.314223
-0.310479
-0.300494
-0.291535
-0.281663
-0.33805
-0.33334
-0.328721
-0.32372
-0.319983
-0.315157
-0.313727
-0.303214
-0.298392
-0.28699
-0.335002
-0.331255
-0.327269
-0.323034
-0.320132
-0.316066
-0.31667
-0.304988
-0.305502
-0.292434
-0.332239
-0.329349
-0.325988
-0.32243
-0.3203
-0.316911
-0.319231
-0.306042
-0.312246
-0.297508
-0.329703
-0.327584
-0.324828
-0.321881
-0.320527
-0.317572
-0.321431
-0.306517
-0.318577
-0.301435
-0.327346
-0.325924
-0.323744
-0.32135
-0.320808
-0.317939
-0.323361
-0.306488
-0.32457
-0.303794
-0.325127
-0.324336
-0.322702
-0.320798
-0.321083
-0.317991
-0.325055
-0.306148
-0.329974
-0.304562
-0.323011
-0.3228
-0.321673
-0.320193
-0.321277
-0.317762
-0.326426
-0.305883
-0.334147
-0.304249
-0.320974
-0.321307
-0.320619
-0.319528
-0.321337
-0.317449
-0.32735
-0.306063
-0.336583
-0.303951
-0.319003
-0.319853
-0.319528
-0.318824
-0.321218
-0.31707
-0.327758
-0.306772
-0.337295
-0.304487
-0.317095
-0.318435
-0.318408
-0.318102
-0.320863
-0.316677
-0.327721
-0.307851
-0.336672
-0.305841
-0.315257
-0.317061
-0.31727
-0.317346
-0.320248
-0.3164
-0.327239
-0.308979
-0.33526
-0.307463
-0.3135
-0.31574
-0.316133
-0.316563
-0.319475
-0.316197
-0.326299
-0.310079
-0.333474
-0.308868
-0.311844
-0.31449
-0.315022
-0.315769
-0.318606
-0.315978
-0.325028
-0.311255
-0.331361
-0.30989
-0.310314
-0.31333
-0.313964
-0.314985
-0.317695
-0.31573
-0.323647
-0.312285
-0.328981
-0.310916
-0.308934
-0.31228
-0.312989
-0.314236
-0.316801
-0.315454
-0.322274
-0.313091
-0.326783
-0.311732
-0.307732
-0.311362
-0.312124
-0.313553
-0.315975
-0.315166
-0.321004
-0.313683
-0.324858
-0.312348
-0.306734
-0.310598
-0.311397
-0.312963
-0.315263
-0.314888
-0.319912
-0.31409
-0.323264
-0.312822
-0.305964
-0.310006
-0.310829
-0.312495
-0.314698
-0.314647
-0.319055
-0.31435
-0.322042
-0.313173
-0.305438
-0.309603
-0.31044
-0.31217
-0.314308
-0.314469
-0.318466
-0.314497
-0.321218
-0.313405
-0.305172
-0.309399
-0.310242
-0.312003
-0.314108
-0.314374
-0.318168
-0.314563
-0.320803
-0.31352
-0.320968
-0.311483
-0.31259
-0.304832
-0.300951
-0.292742
-0.28566
-0.276111
-0.266567
-0.25519
-0.242766
-0.227928
-0.209666
-0.187017
-0.158392
-0.123587
-0.0852183
-0.0503592
-0.0246439
-0.00795754
0.000108506
0.00379795
0.00429745
0.00379304
0.00296729
0.00215727
0.00138541
0.00123381
0.000688193
0.000657823
-0.321208
-0.311618
-0.312686
-0.304944
-0.301039
-0.292829
-0.285746
-0.276201
-0.266659
-0.255296
-0.242894
-0.228095
-0.209879
-0.187288
-0.158725
-0.12396
-0.0855387
-0.0506291
-0.0248495
-0.0081056
1.31613e-06
0.00372196
0.00424398
0.00375506
0.00294106
0.00213944
0.00137231
0.00122531
0.000683034
0.000654919
-0.321658
-0.311868
-0.312869
-0.305159
-0.301217
-0.293031
-0.285919
-0.276377
-0.266839
-0.255502
-0.243141
-0.228416
-0.210289
-0.187808
-0.159363
-0.124632
-0.0862048
-0.0511605
-0.0252593
-0.00840362
-0.00021523
0.00356802
0.00413577
0.00367838
0.00288814
0.0021035
0.00134607
0.00120824
0.000672726
0.000649081
-0.322271
-0.312204
-0.313126
-0.30546
-0.301456
-0.293273
-0.286158
-0.27663
-0.267096
-0.255796
-0.243492
-0.22887
-0.210864
-0.188539
-0.160264
-0.125601
-0.0871449
-0.051939
-0.0258704
-0.00885497
-0.00054499
0.00333263
0.0039706
0.00356163
0.00280768
0.00204899
0.00130666
0.00118245
0.000657288
0.000640263
-0.322975
-0.312569
-0.313438
-0.305817
-0.301775
-0.293628
-0.286473
-0.276946
-0.26742
-0.256162
-0.243923
-0.229427
-0.21157
-0.189428
-0.16135
-0.126809
-0.0883299
-0.0529469
-0.0266787
-0.00946367
-0.000992655
0.00301144
0.00374564
0.00340316
0.00269861
0.00197528
0.00125402
0.00114777
0.000636749
0.000628413
-0.323686
-0.312947
-0.313764
-0.306221
-0.302088
-0.293991
-0.286817
-0.277324
-0.267795
-0.256584
-0.244417
-0.230054
-0.212355
-0.19042
-0.162584
-0.128187
-0.0897167
-0.0541646
-0.0276792
-0.0102327
-0.00156271
0.00260026
0.00345808
0.0032013
0.00255984
0.00188178
0.00118816
0.00110403
0.000611155
0.000613497
-0.32438
-0.3132
-0.31411
-0.306594
-0.302494
-0.294392
-0.287226
-0.277714
-0.268214
-0.25704
-0.244941
-0.230717
-0.213192
-0.191469
-0.163892
-0.129684
-0.0912656
-0.0555719
-0.0288656
-0.0111634
-0.00225842
0.002096
0.00310566
0.00295472
0.00239049
0.00176797
0.0011091
0.00105111
0.000580571
0.000595519
-0.32478
-0.313505
-0.314323
-0.307002
-0.302797
-0.294819
-0.287593
-0.278162
-0.268633
-0.257523
-0.245479
-0.23139
-0.214035
-0.192528
-0.165228
-0.131248
-0.0929403
-0.0571487
-0.0302293
-0.0122542
-0.00308059
0.00149724
0.00268722
0.00266272
0.00219006
0.00163358
0.00101698
0.000988993
0.00054509
0.000574536
-0.324818
-0.313752
-0.314387
-0.307366
-0.303063
-0.295222
-0.287972
-0.278588
-0.269062
-0.258
-0.246005
-0.232043
-0.214855
-0.19356
-0.166549
-0.132842
-0.0947095
-0.0588751
-0.0317591
-0.0135004
-0.00402657
0.000804652
0.00220298
0.00232546
0.00195858
0.00147862
0.000912062
0.000917782
0.000504835
0.000550662
-0.324459
-0.313855
-0.314306
-0.30762
-0.303249
-0.295563
-0.2883
-0.278993
-0.269464
-0.258456
-0.2465
-0.232653
-0.215623
-0.194534
-0.167823
-0.134431
-0.0965458
-0.0607313
-0.0334416
-0.0148934
-0.0050908
2.13543e-05
0.00165467
0.00194402
0.00169667
0.00130347
0.000794711
0.000837707
0.000459964
0.000524076
-0.323417
-0.313809
-0.314
-0.307729
-0.30331
-0.295815
-0.28856
-0.27934
-0.26982
-0.258866
-0.246941
-0.233196
-0.216317
-0.195426
-0.169024
-0.135993
-0.0984262
-0.0626974
-0.0352604
-0.0164211
-0.00626503
-0.000847286
0.00104548
0.00152042
0.00140557
0.00110884
0.000665447
0.000749134
0.00041068
0.000495009
-0.321505
-0.313506
-0.313424
-0.307633
-0.303211
-0.295913
-0.288709
-0.279595
-0.2701
-0.259204
-0.247307
-0.233653
-0.216917
-0.196218
-0.170134
-0.137508
-0.100331
-0.0647535
-0.0371975
-0.0180687
-0.00753868
-0.00179403
0.000379901
0.00105747
0.00108705
0.00089577
0.000524914
0.000652554
0.000357223
0.000463733
-0.318749
-0.312796
-0.312543
-0.307239
-0.302897
-0.295847
-0.288721
-0.27973
-0.270276
-0.259446
-0.247577
-0.234005
-0.217407
-0.196897
-0.171142
-0.138964
-0.102244
-0.0668803
-0.0392337
-0.0198198
-0.00889956
-0.00281031
-0.000336627
0.000558648
0.00074331
0.00066556
0.000373868
0.000548558
0.000299875
0.000430549
-0.315556
-0.311475
-0.311258
-0.306527
-0.3023
-0.295506
-0.28852
-0.279702
-0.270315
-0.259567
-0.247733
-0.234238
-0.217777
-0.197458
-0.172042
-0.140353
-0.104151
-0.0690593
-0.0413494
-0.0216568
-0.0103346
-0.00388673
-0.00109806
2.78693e-05
0.000376838
0.000419707
0.000213155
0.000437813
0.000238948
0.000395768
-0.312145
-0.309493
-0.309509
-0.305421
-0.301465
-0.294977
-0.288138
-0.279502
-0.2702
-0.25955
-0.247761
-0.234342
-0.218023
-0.197902
-0.172838
-0.141674
-0.106044
-0.0712731
-0.0435252
-0.0235621
-0.0118306
-0.00501378
-0.00189816
-0.000530871
-9.68127e-06
0.000159847
4.36883e-05
0.000321041
0.000174782
0.000359697
-0.308442
-0.306912
-0.307225
-0.303836
-0.300135
-0.293988
-0.287412
-0.279057
-0.269897
-0.259375
-0.247652
-0.234316
-0.218147
-0.198236
-0.173536
-0.142929
-0.107913
-0.0735063
-0.0457435
-0.0255196
-0.0133752
-0.00618213
-0.00273054
-0.00111342
-0.000413377
-0.00011227
-0.000133554
0.000198983
0.000107743
0.000322634
-0.304577
-0.303697
-0.304423
-0.301848
-0.298617
-0.29297
-0.286578
-0.27845
-0.269428
-0.259048
-0.247408
-0.234166
-0.218158
-0.198473
-0.174152
-0.144126
-0.109759
-0.0757484
-0.0479894
-0.0275134
-0.0149551
-0.00738167
-0.00358853
-0.00171563
-0.000831514
-0.000394999
-0.000317638
7.23425e-05
3.81855e-05
0.000284848
-0.300495
-0.299941
-0.301029
-0.299233
-0.29644
-0.291261
-0.285148
-0.277487
-0.268726
-0.258549
-0.24703
-0.233901
-0.21807
-0.198628
-0.1747
-0.145264
-0.111563
-0.0779721
-0.0502342
-0.0295204
-0.0165562
-0.00860442
-0.00446831
-0.00233539
-0.00126276
-0.000687429
-0.000508009
-5.83919e-05
-3.36119e-05
0.000246558
-0.296245
-0.295912
-0.297496
-0.296605
-0.294415
-0.289803
-0.284103
-0.276538
-0.267937
-0.257939
-0.246548
-0.233542
-0.217899
-0.198717
-0.175188
-0.14636
-0.113342
-0.0801949
-0.0525038
-0.0315661
-0.0181979
-0.00986148
-0.00537432
-0.00297361
-0.00170676
-0.000988841
-0.000704186
-0.00019272
-0.000107357
0.000208002
-0.292252
-0.291083
-0.292702
-0.292636
-0.291115
-0.28717
-0.281723
-0.274994
-0.266832
-0.25716
-0.245987
-0.233165
-0.217763
-0.198898
-0.175823
-0.147623
-0.115299
-0.0825839
-0.0548853
-0.0336733
-0.019864
-0.0111255
-0.00628159
-0.00361292
-0.00215243
-0.00129256
-0.000902379
-0.000328198
-0.000182074
0.000169677
-0.287059
-0.287322
-0.289148
-0.289707
-0.28868
-0.285335
-0.280692
-0.273573
-0.265516
-0.255988
-0.244923
-0.232183
-0.216887
-0.198168
-0.175327
-0.147532
-0.115746
-0.0835469
-0.0561362
-0.0349949
-0.0210463
-0.0121068
-0.00703274
-0.00416498
-0.00254693
-0.00156583
-0.00108326
-0.000452308
-0.00025116
0.000134742
-0.281372
-0.282419
-0.28444
-0.285509
-0.284832
-0.281748
-0.27688
-0.270831
-0.263132
-0.253867
-0.242991
-0.230371
-0.215196
-0.196638
-0.174068
-0.146754
-0.115666
-0.0841714
-0.0572047
-0.0362391
-0.0222062
-0.0130886
-0.00779153
-0.00472369
-0.0029452
-0.00184161
-0.00126314
-0.00057445
-0.000318017
0.000101159
-0.275409
-0.277065
-0.279335
-0.280961
-0.280752
-0.278177
-0.274089
-0.268025
-0.260584
-0.251558
-0.240861
-0.228363
-0.213319
-0.19494
-0.172665
-0.145862
-0.115498
-0.0847379
-0.0582458
-0.0374855
-0.0233878
-0.0141015
-0.00858291
-0.00531093
-0.00336572
-0.0021341
-0.00145373
-0.000703614
-0.000388495
6.6046e-05
-0.269195
-0.271489
-0.274033
-0.276189
-0.276467
-0.274391
-0.270587
-0.264996
-0.25786
-0.249094
-0.238596
-0.226242
-0.21135
-0.193177
-0.171224
-0.144956
-0.115333
-0.0853184
-0.0593084
-0.0387595
-0.0246003
-0.0151456
-0.00940271
-0.0059219
-0.00380453
-0.00244027
-0.00165375
-0.000839078
-0.000462382
2.96392e-05
-0.26268
-0.265718
-0.268553
-0.271196
-0.271957
-0.27035
-0.266953
-0.261762
-0.254948
-0.246459
-0.236183
-0.223993
-0.209277
-0.191336
-0.169732
-0.144023
-0.115158
-0.0859016
-0.0603856
-0.0400578
-0.0258427
-0.0162205
-0.0102508
-0.0065566
-0.00426169
-0.00276022
-0.00186332
-0.000980908
-0.000539695
-8.01615e-06
-0.255911
-0.259777
-0.26292
-0.266006
-0.267246
-0.266113
-0.26314
-0.258343
-0.251864
-0.243667
-0.233629
-0.221625
-0.207105
-0.18942
-0.168189
-0.143061
-0.114967
-0.0864799
-0.0614692
-0.0413735
-0.0271106
-0.0173237
-0.011126
-0.00721461
-0.00473712
-0.00309405
-0.00208254
-0.00112913
-0.000620418
-4.68531e-05
-0.248961
-0.253695
-0.257169
-0.260662
-0.262376
-0.26172
-0.259162
-0.254766
-0.248633
-0.240739
-0.230953
-0.219153
-0.204849
-0.187443
-0.166609
-0.142078
-0.114762
-0.0870512
-0.062555
-0.0427014
-0.0283995
-0.0184518
-0.0120262
-0.00789479
-0.00523022
-0.00344145
-0.00231126
-0.00128364
-0.000704482
-8.67704e-05
-0.241883
-0.2475
-0.25133
-0.255198
-0.257377
-0.257194
-0.255052
-0.251057
-0.245277
-0.237694
-0.228174
-0.216595
-0.202526
-0.185419
-0.165002
-0.141081
-0.114547
-0.0876138
-0.0636387
-0.0440366
-0.0297051
-0.0196015
-0.0129493
-0.00859578
-0.00574017
-0.00380192
-0.00254924
-0.00144426
-0.000791793
-0.000127653
-0.234726
-0.241214
-0.245426
-0.249642
-0.252271
-0.252559
-0.250832
-0.247236
-0.241815
-0.234549
-0.225308
-0.213966
-0.20015
-0.183362
-0.163379
-0.140077
-0.114324
-0.0881656
-0.0647163
-0.0453739
-0.031023
-0.0207694
-0.0138927
-0.00931601
-0.00626606
-0.00417489
-0.00279619
-0.0016108
-0.000882237
-0.000169377
-0.227539
-0.234861
-0.239477
-0.244018
-0.247079
-0.247832
-0.246521
-0.243322
-0.238263
-0.231322
-0.222369
-0.21128
-0.197734
-0.181282
-0.161747
-0.139071
-0.114093
-0.0887044
-0.0657836
-0.0467083
-0.0323487
-0.0219517
-0.0148539
-0.0100538
-0.0068068
-0.00455969
-0.00305174
-0.001783
-0.000975681
-0.000211809
-0.220368
-0.228466
-0.233504
-0.238349
-0.241821
-0.243031
-0.242135
-0.23933
-0.234636
-0.228025
-0.219371
-0.20855
-0.195288
-0.17919
-0.160116
-0.138067
-0.113856
-0.0892281
-0.0668366
-0.0480349
-0.0336774
-0.0231446
-0.01583
-0.0108072
-0.00736117
-0.00495551
-0.00331541
-0.00196054
-0.00107196
-0.000254807
-0.213257
-0.222057
-0.227526
-0.232662
-0.236516
-0.238171
-0.23769
-0.235276
-0.230947
-0.224671
-0.216325
-0.205787
-0.192824
-0.177092
-0.158489
-0.137068
-0.113613
-0.0897348
-0.0678715
-0.049349
-0.0350046
-0.0243441
-0.0168179
-0.011574
-0.00792776
-0.00536141
-0.00358664
-0.00214306
-0.00117089
-0.000298216
-0.206251
-0.215663
-0.221567
-0.226979
-0.231185
-0.233271
-0.233202
-0.231175
-0.227211
-0.221274
-0.213244
-0.203001
-0.190351
-0.174998
-0.156874
-0.136078
-0.113366
-0.0902227
-0.0688848
-0.0506458
-0.0363255
-0.0255461
-0.0178145
-0.0123519
-0.00850495
-0.00577628
-0.00386475
-0.0023301
-0.00127222
-0.000341876
-0.199389
-0.209314
-0.215647
-0.221325
-0.225853
-0.228349
-0.228687
-0.227041
-0.223442
-0.217845
-0.210138
-0.200203
-0.187877
-0.172913
-0.155275
-0.135099
-0.113114
-0.0906901
-0.0698729
-0.0519207
-0.0376353
-0.026746
-0.018816
-0.0131383
-0.00909088
-0.00619882
-0.00414892
-0.0025211
-0.00137571
-0.000385613
-0.192709
-0.203042
-0.209791
-0.215724
-0.220542
-0.223425
-0.224162
-0.222893
-0.219654
-0.2144
-0.207021
-0.197403
-0.185412
-0.170846
-0.153697
-0.134134
-0.112859
-0.0911353
-0.0708325
-0.0531691
-0.0389289
-0.0279393
-0.0198187
-0.0139301
-0.00968342
-0.00662754
-0.00443819
-0.00271542
-0.00148101
-0.000429246
-0.186243
-0.196881
-0.204021
-0.210201
-0.21528
-0.21852
-0.219646
-0.218748
-0.215864
-0.210952
-0.203904
-0.194613
-0.182965
-0.168804
-0.152144
-0.133186
-0.1126
-0.091557
-0.0717602
-0.0543864
-0.0402011
-0.0291209
-0.0208182
-0.0147239
-0.0102802
-0.00706069
-0.0047314
-0.0029123
-0.00158775
-0.000472582
-0.18002
-0.190863
-0.198364
-0.20478
-0.210092
-0.213662
-0.215161
-0.214626
-0.212091
-0.207518
-0.200804
-0.191844
-0.180547
-0.166794
-0.150623
-0.132256
-0.112339
-0.091954
-0.0726529
-0.0555678
-0.0414464
-0.0302855
-0.0218098
-0.0155161
-0.0108783
-0.00749624
-0.00502721
-0.00311082
-0.00169547
-0.000515415
-0.174066
-0.185024
-0.192849
-0.199487
-0.205009
-0.208876
-0.21073
-0.210548
-0.208355
-0.204118
-0.197736
-0.189112
-0.17817
-0.164825
-0.149138
-0.131349
-0.112076
-0.092325
-0.0735072
-0.0567087
-0.0426591
-0.0314272
-0.0227884
-0.0163024
-0.0114746
-0.00793185
-0.00532405
-0.00330993
-0.00180362
-0.000557527
-0.168408
-0.179399
-0.187504
-0.19435
-0.200062
-0.204194
-0.20638
-0.206538
-0.204679
-0.20077
-0.194719
-0.186431
-0.175844
-0.162906
-0.147696
-0.130468
-0.111814
-0.0926694
-0.07432
-0.0578039
-0.0438331
-0.0325399
-0.0237484
-0.0170781
-0.0120655
-0.00836482
-0.00562006
-0.00350841
-0.00191155
-0.000598682
-0.163067
-0.174021
-0.182362
-0.189398
-0.195281
-0.19965
-0.20214
-0.202624
-0.201088
-0.197499
-0.191772
-0.183818
-0.173585
-0.161048
-0.146304
-0.129616
-0.111554
-0.0929864
-0.0750881
-0.0588486
-0.044962
-0.0336168
-0.0246834
-0.0178378
-0.0126468
-0.00879206
-0.00591313
-0.00370481
-0.00201853
-0.000638625
-0.158067
-0.168925
-0.177457
-0.184663
-0.190702
-0.195276
-0.198043
-0.198835
-0.197609
-0.19433
-0.188918
-0.181292
-0.171408
-0.159263
-0.144969
-0.128799
-0.111297
-0.0932754
-0.0758083
-0.0598372
-0.0460389
-0.0346506
-0.0255866
-0.0185757
-0.0132138
-0.00921005
-0.00620078
-0.0038975
-0.00212365
-0.000677082
-0.15343
-0.164145
-0.172821
-0.18018
-0.186357
-0.191113
-0.194125
-0.195204
-0.194272
-0.19129
-0.186182
-0.178873
-0.169329
-0.157563
-0.143702
-0.128022
-0.111046
-0.0935363
-0.0764774
-0.0607643
-0.0470565
-0.0356334
-0.0264504
-0.0192851
-0.0137614
-0.00961477
-0.0064802
-0.00408461
-0.0022259
-0.00071375
-0.149175
-0.159715
-0.168494
-0.175984
-0.182286
-0.187197
-0.190427
-0.191766
-0.191112
-0.188411
-0.18359
-0.176586
-0.167367
-0.155963
-0.142511
-0.127291
-0.110804
-0.0937689
-0.0770921
-0.0616239
-0.048007
-0.0365567
-0.0272666
-0.0199588
-0.0142836
-0.0100017
-0.00674817
-0.00426397
-0.00232409
-0.000748299
-0.145326
-0.15567
-0.164512
-0.172115
-0.178527
-0.183573
-0.18699
-0.188563
-0.188164
-0.185725
-0.181175
-0.174456
-0.165543
-0.154479
-0.141408
-0.126612
-0.110575