/*--------------------------------*- C++ -*----------------------------------*\
  =========                 |
  \\      /  F ield         | OpenFOAM: The Open Source CFD Toolbox
   \\    /   O peration     | Website:  https://openfoam.org
    \\  /    A nd           | Version:  9
     \\/     M anipulation  |
\*---------------------------------------------------------------------------*/
FoamFile
{
    format      ascii;
    class       surfaceScalarField;
    location    "4.6";
    object      phi;
}
// * * * * * * * * * * * * * * * * * * * * * * * * * * * * * * * * * * * * * //

dimensions      [0 3 -1 0 0 0 0];

internalField   nonuniform List<scalar> 
16735
(
-0.00167976
0.00167976
-4.12114e-12
-0.00461871
0.00293895
-1.33592e-10
-0.00789398
0.00327526
-3.39386e-10
-0.0107118
0.00281786
-6.03925e-10
-0.0124524
0.00174055
-9.02783e-10
-0.0124958
4.34253e-05
-1.21486e-09
-0.0102152
-0.00228065
-1.50543e-09
-0.004835
-0.00538015
-1.74997e-09
0.00392401
-0.008759
-1.90682e-09
-0.0132447
-1.96188e-09
0.0171687
-0.00164248
0.00332224
-0.00449078
0.00578725
-0.0076202
0.00640468
-0.0102308
0.00542845
-0.0116918
0.00320155
-0.01137
-0.000278319
-0.00862187
-0.00502883
-0.00267417
-0.0113279
0.00684209
-0.0182753
-0.0274002
0.0209976
-0.00156874
0.00489098
-0.00423735
0.00845586
-0.00707753
0.00924487
-0.00927711
0.00762802
-0.0101841
0.00410851
-0.00913871
-0.00132367
-0.00546237
-0.00870517
0.00161368
-0.0184039
0.0126188
-0.0292804
-0.0433306
0.0285492
-0.00146014
0.00635112
-0.00386314
0.0108589
-0.00627546
0.0116572
-0.00786716
0.00921973
-0.00795573
0.00419707
-0.00584286
-0.00343654
-0.000770746
-0.0137773
0.00801101
-0.0271857
0.0211177
-0.0423871
-0.0618278
0.039615
-0.00131896
0.00767008
-0.00337495
0.0129148
-0.00522765
0.0135099
-0.00602451
0.0100166
-0.00504466
0.00321721
-0.00154774
-0.00693346
0.00526746
-0.0205925
0.0162863
-0.0382045
0.0321336
-0.0582345
-0.0835884
0.0538942
-0.00114806
0.00881815
-0.00278126
0.014548
-0.00395123
0.0146799
-0.00377872
0.00984408
-0.00149728
0.000935777
0.003685
-0.0121157
0.012622
-0.0295295
0.0262902
-0.0518726
0.0454123
-0.0773566
-0.109186
0.0710103
-0.000950706
0.00976885
-0.00209187
0.0156892
-0.00246605
0.015054
-0.00116405
0.00854209
0.00262855
-0.00285683
0.00976336
-0.0192506
0.02115
-0.0409161
0.0378288
-0.0685514
0.0606592
-0.100187
-0.139055
0.0905277
-0.00073042
0.0104993
-0.00131735
0.0162761
-0.000793706
0.0145304
0.00178147
0.00596692
0.00727381
-0.00834917
0.0165922
-0.028569
0.0307037
-0.0550276
0.0506857
-0.0885334
0.0775504
-0.127052
-0.173473
0.111969
-0.000490931
0.0109902
-0.000468356
0.0162536
0.00104347
0.0130186
0.00501911
0.00199128
0.0123753
-0.0157054
0.0240734
-0.040267
0.0411311
-0.0720853
0.0646325
-0.112035
0.095743
-0.158162
-0.21256
0.13483
-0.00023665
0.0112269
0.000442386
0.0155745
0.0030228
0.0104381
0.00850925
-0.00349517
0.0178681
-0.0250643
0.0321057
-0.0545045
0.0522768
-0.0922565
0.0794352
-0.139193
0.114884
-0.193611
-0.256267
0.15859
3.81196e-05
0.0111887
0.00140794
0.0142047
0.00512291
0.00672317
0.0122132
-0.0105854
0.0236884
-0.0365394
0.0405882
-0.0714044
0.0639853
-0.115653
0.0948589
-0.170067
0.134616
-0.233368
-0.304374
0.182724
0.000314325
0.0108744
0.00241691
0.0121021
0.00732363
0.00181645
0.0160942
-0.019356
0.0297742
-0.0502194
0.049422
-0.0910522
0.0761017
-0.142333
0.110671
-0.204636
0.154587
-0.277284
-0.356501
0.206714
0.000600688
0.0102737
0.00346149
0.00924132
0.0096066
-0.00432866
0.0201181
-0.0298675
0.0360667
-0.066168
0.0585103
-0.113496
0.0884729
-0.172296
0.126642
-0.242805
0.174447
-0.325089
-0.412112
0.230058
0.000893333
0.00938039
0.00453487
0.00559978
0.0119556
-0.0117494
0.0242531
-0.042165
0.0425093
-0.0844242
0.0677586
-0.138745
0.100946
-0.205484
0.142544
-0.284403
0.193855
-0.376399
-0.470534
0.252277
0.00119083
0.00818956
0.0056314
0.00115921
0.0143565
-0.0204745
0.0284701
-0.0562785
0.0490479
-0.105002
0.0770731
-0.16677
0.113369
-0.24178
0.158154
-0.329187
0.212479
-0.430725
-0.530983
0.272928
0.00149238
0.00669718
0.00674659
-0.004095
0.0167967
-0.0305246
0.0327414
-0.0722232
0.0556291
-0.12789
0.0863598
-0.197501
0.125586
-0.281005
0.173245
-0.376847
0.229997
-0.487477
-0.592606
0.29162
0.00179761
0.00489957
0.00787691
-0.0101743
0.0192648
-0.0419125
0.0370403
-0.0899988
0.0621991
-0.153049
0.0955221
-0.230824
0.137438
-0.322921
0.187597
-0.427006
0.246096
-0.545976
-0.654566
0.308056
0.00210649
0.00279308
0.00901942
-0.0170872
0.02175
-0.054643
0.0413399
-0.109589
0.0687024
-0.180411
0.104459
-0.266581
0.148766
-0.367228
0.200996
-0.479235
0.260486
-0.605466
-0.716142
0.322062
0.00241915
0.000373934
0.0101714
-0.0248395
0.0242413
-0.0687129
0.0456117
-0.130959
0.0750795
-0.209879
0.113065
-0.304567
0.15941
-0.413574
0.213248
-0.533073
0.272927
-0.665145
-0.776929
0.333715
0.00273579
-0.00236185
0.0113301
-0.0334338
0.0267267
-0.0841095
0.0498247
-0.154057
0.0812668
-0.241321
0.121227
-0.344527
0.169204
-0.46155
0.224135
-0.588003
0.283347
-0.724357
-0.8374
0.343817
0.00305649
-0.00541835
0.0124919
-0.0428692
0.0291928
-0.10081
0.0539448
-0.178809
0.0871958
-0.274572
0.128829
-0.386161
0.17797
-0.510692
0.233302
-0.643335
0.291898
-0.782953
-0.909131
0.36363
0.00338112
-0.00879947
0.0136528
-0.0531408
0.031624
-0.118782
0.0579341
-0.205119
0.0927943
-0.309432
0.135754
-0.42912
0.185547
-0.560485
0.240539
-0.698327
0.297547
-0.839961
-0.973422
0.361837
0.0037092
-0.0125087
0.0148071
-0.0642388
0.034002
-0.137977
0.0617517
-0.232869
0.0979883
-0.345669
0.141893
-0.473025
0.191806
-0.610398
0.245746
-0.752267
0.300447
-0.894661
-1.03127
0.358299
0.00403981
-0.0165485
0.0159482
-0.0761471
0.0363065
-0.158335
0.0653531
-0.261916
0.102703
-0.383019
0.147147
-0.517469
0.196655
-0.659905
0.248938
-0.804551
0.300891
-0.946614
-1.08347
0.353082
0.00437156
-0.02092
0.0170678
-0.0888433
0.0385141
-0.179781
0.0686921
-0.292094
0.106867
-0.421193
0.151431
-0.562034
0.200027
-0.7085
0.250149
-0.854673
0.298974
-0.995439
-1.13056
0.346068
0.0047025
-0.0256225
0.0181561
-0.102297
0.0405997
-0.202225
0.071721
-0.323215
0.11041
-0.459883
0.154674
-0.606297
0.201886
-0.755712
0.24943
-0.902218
0.294837
-1.04085
-1.17297
0.337249
0.0050302
-0.0306528
0.0192023
-0.116469
0.0425363
-0.225559
0.0743926
-0.355071
0.113273
-0.498763
0.156823
-0.649847
0.202223
-0.801112
0.246861
-0.946855
0.288658
-1.08264
-1.21102
0.326706
0.00535172
-0.0360045
0.0201941
-0.131311
0.0442961
-0.249661
0.0766618
-0.387437
0.115402
-0.537504
0.157845
-0.69229
0.20106
-0.844328
0.242542
-0.988336
0.280629
-1.12073
-1.24497
0.31458
0.00566367
-0.0416681
0.0211185
-0.146766
0.0458512
-0.274393
0.0784869
-0.420073
0.116756
-0.575773
0.157726
-0.73326
0.198443
-0.885045
0.236596
-1.02649
0.270947
-1.15508
-1.27506
0.301038
0.0059623
-0.0476304
0.0219621
-0.162766
0.0471742
-0.299605
0.0798312
-0.45273
0.117306
-0.613248
0.156473
-0.772426
0.194438
-0.92301
0.229158
-1.06121
0.25981
-1.18573
-1.30151
0.286258
0.00624359
-0.053874
0.0227111
-0.179234
0.0482397
-0.325134
0.0806643
-0.485154
0.117038
-0.649621
0.154112
-0.809501
0.189132
-0.95803
0.220374
-1.09245
0.247408
-1.21277
-1.32452
0.270415
0.00650332
-0.0603773
0.023352
-0.196082
0.0490244
-0.350806
0.0809633
-0.517093
0.115947
-0.684605
0.150684
-0.844238
0.182624
-0.989969
0.210392
-1.12022
0.233921
-1.2363
-1.34427
0.253676
0.00673721
-0.0671146
0.0238719
-0.213217
0.0495083
-0.376443
0.080713
-0.548298
0.114046
-0.717938
0.146245
-0.876438
0.175019
-1.01874
0.199358
-1.14456
0.219516
-1.25646
-1.36095
0.236191
0.00694099
-0.0740555
0.0242589
-0.230535
0.0496753
-0.401859
0.0799066
-0.578529
0.111356
-0.749387
0.140862
-0.905943
0.166431
-1.04431
0.187415
-1.16554
0.204347
-1.27339
-1.3747
0.218099
0.00711051
-0.0811661
0.0245024
-0.247927
0.0495133
-0.42687
0.0785451
-0.607561
0.107909
-0.778751
0.134607
-0.932641
0.156972
-1.06668
0.174698
-1.18327
0.188549
-1.28724
-1.38567
0.199521
0.00724186
-0.0884079
0.0245931
-0.265278
0.0490146
-0.451292
0.0766377
-0.635184
0.103748
-0.805861
0.127561
-0.956455
0.146753
-1.08587
0.161331
-1.19785
0.172245
-1.29815
-1.39399
0.180563
0.00733143
-0.0957393
0.0245239
-0.28247
0.0481763
-0.474944
0.0742003
-0.661208
0.0989189
-0.83058
0.119807
-0.977343
0.13588
-1.10194
0.147431
-1.2094
0.155544
-1.30626
-1.39977
0.161318
0.00737599
-0.103115
0.0242891
-0.299383
0.0469997
-0.497655
0.0712552
-0.685464
0.093476
-0.852801
0.111427
-0.995294
0.124455
-1.11497
0.1331
-1.21804
0.138539
-1.3117
-1.40309
0.141867
0.00737277
-0.110488
0.0238855
-0.315896
0.0454906
-0.51926
0.06783
-0.707803
0.0874756
-0.872446
0.102503
-1.01032
0.112573
-1.12504
0.118432
-1.2239
0.121314
-1.31459
-1.40406
0.12228
0.00731952
-0.117808
0.0233116
-0.331888
0.0436587
-0.539607
0.0639567
-0.728101
0.0809761
-0.889466
0.0931135
-1.02246
0.100321
-1.13225
0.103512
-1.22709
0.103942
-1.31502
-1.40274
0.10262
0.00721453
-0.125022
0.0225682
-0.347242
0.0415172
-0.558556
0.0596707
-0.746255
0.0740367
-0.903832
0.083335
-1.03176
0.0877805
-1.13669
0.0884148
-1.22773
0.0864867
-1.31309
-1.39919
0.0829408
0.00705669
-0.132079
0.021658
-0.361843
0.0390824
-0.57598
0.0550097
-0.762182
0.066716
-0.915538
0.0732386
-1.03828
0.0750237
-1.13848
0.0732056
-1.22591
0.0690032
-1.30889
-1.39348
0.0632892
0.00684547
-0.138924
0.0205856
-0.375583
0.0363735
-0.591768
0.050013
-0.775821
0.0590716
-0.924597
0.0628913
-1.0421
0.0621175
-1.1377
0.0579433
-1.22173
0.0515417
-1.30248
-1.38564
0.0437061
0.00658096
-0.145505
0.0193571
-0.38836
0.0334115
-0.605823
0.0447207
-0.787131
0.0511588
-0.931035
0.0523554
-1.0433
0.0491219
-1.13447
0.0426811
-1.21529
0.0341459
-1.29395
-1.37572
0.0242237
0.00626385
-0.151769
0.0179804
-0.400076
0.0302192
-0.618061
0.039173
-0.796084
0.0430306
-0.934892
0.041688
-1.04195
0.0360909
-1.12887
0.027468
-1.20667
0.0168613
-1.28334
-1.36368
0.00482153
0.0058954
-0.157665
0.0164648
-0.410645
0.0268205
-0.628417
0.0334096
-0.802673
0.0347372
-0.93622
0.0309417
-1.03816
0.0230714
-1.121
0.0123402
-1.19594
-0.000172259
-1.27083
-1.34957
-0.0142854
0.00547742
-0.163142
0.0148205
-0.419989
0.0232403
-0.636837
0.0274693
-0.806902
0.0263258
-0.935077
0.0201651
-1.032
0.0101081
-1.11095
-0.00269175
-1.18314
-0.0172352
-1.25629
-1.3336
-0.0332013
0.00501224
-0.168154
0.0130587
-0.428035
0.0195036
-0.643282
0.0213896
-0.808788
0.0178405
-0.931527
0.00940168
-1.02356
-0.00275771
-1.09879
-0.01749
-1.16841
-0.0340016
-1.23977
-1.31571
-0.0518946
0.00450265
-0.172657
0.0111916
-0.434724
0.0156356
-0.647726
0.0152067
-0.80836
0.00932207
-0.925643
-0.0013146
-1.01292
-0.0154822
-1.08462
-0.0321246
-1.15176
-0.0505257
-1.22137
-1.29591
-0.0703265
0.0039519
-0.176609
0.00923138
-0.440003
0.0116613
-0.650156
0.00895492
-0.805653
0.000809368
-0.917497
-0.0119245
-1.00019
-0.0280432
-1.0685
-0.046539
-1.13327
-0.0667854
-1.20113
-1.27422
-0.0884695
0.00336359
-0.179972
0.0071908
-0.443831
0.00760538
-0.65057
0.00266839
-0.800716
-0.00766351
-0.907165
-0.0224186
-0.985432
-0.0404082
-1.05051
-0.0607025
-1.11297
-0.0827561
-1.17907
-1.25068
-0.106298
0.00274172
-0.182714
0.00508442
-0.446173
0.00349386
-0.64898
-0.00362712
-0.793595
-0.0160649
-0.894728
-0.0327596
-0.968738
-0.0525491
-1.03072
-0.0745877
-1.09094
-0.0984123
-1.15525
-1.2253
-0.12379
0.00209079
-0.184805
0.00292849
-0.447011
-0.00064113
-0.64541
-0.00990122
-0.784335
-0.0243656
-0.880263
-0.0429196
-0.950184
-0.0644404
-1.0092
-0.0881693
-1.06721
-0.113729
-1.12969
-1.19811
-0.14092
0.00141666
-0.186221
0.00074865
-0.446343
-0.00483157
-0.63983
-0.0161282
-0.773039
-0.0325385
-0.863853
-0.0528736
-0.929849
-0.0760585
-0.986016
-0.101423
-1.04184
-0.128679
-1.10243
-1.16912
-0.157666
0.000720009
-0.186941
-0.0014778
-0.444145
-0.00899471
-0.632313
-0.0222821
-0.759751
-0.0405591
-0.845576
-0.0625989
-0.907809
-0.0873818
-0.961233
-0.114325
-1.0149
-0.143239
-1.07352
-1.13836
-0.174006
-2.65362e-05
-0.186915
-0.00372767
-0.440444
-0.0131301
-0.622911
-0.0283407
-0.744541
-0.0484053
-0.825511
-0.0720752
-0.884139
-0.0983906
-0.934918
-0.126854
-0.986435
-0.157381
-1.04299
-1.10583
-0.189912
-0.000737043
-0.186178
-0.00597306
-0.435208
-0.0172206
-0.611663
-0.0342833
-0.727478
-0.0560567
-0.803738
-0.0812841
-0.858912
-0.109067
-0.907135
-0.13899
-0.956513
-0.171079
-1.0109
-1.07154
-0.205362
-0.00147101
-0.184707
-0.00820757
-0.428472
-0.0212495
-0.598621
-0.0400908
-0.708637
-0.0634953
-0.780333
-0.0902089
-0.832198
-0.119395
-0.877949
-0.150714
-0.925194
-0.18431
-0.977308
-1.03553
-0.220326
-0.0022095
-0.182497
-0.0104208
-0.42026
-0.0252009
-0.583841
-0.0457459
-0.688092
-0.0707046
-0.755375
-0.0988346
-0.804068
-0.12936
-0.847423
-0.162011
-0.892543
-0.197033
-0.942287
-0.997854
-0.234705
-0.00294713
-0.17955
-0.0126021
-0.410605
-0.02906
-0.567383
-0.0512325
-0.665919
-0.0776696
-0.728937
-0.107148
-0.77459
-0.138951
-0.81562
-0.172867
-0.858627
-0.209199
-0.905955
-0.958536
-0.248517
-0.00367934
-0.175871
-0.0147415
-0.399543
-0.0328133
-0.549311
-0.0565363
-0.642196
-0.0843769
-0.701097
-0.115137
-0.74383
-0.148161
-0.782596
-0.183273
-0.823515
-0.220416
-0.868811
-0.919308
-0.259645
-0.00440185
-0.171469
-0.0168294
-0.387116
-0.0364479
-0.529693
-0.0616439
-0.617
-0.0908143
-0.671927
-0.122791
-0.711852
-0.15698
-0.748408
-0.193244
-0.787251
-0.231603
-0.830452
-0.878805
-0.272106
-0.00511058
-0.166358
-0.0188569
-0.373369
-0.0399518
-0.508598
-0.0665434
-0.590409
-0.0969706
-0.641499
-0.130101
-0.678723
-0.165396
-0.713112
-0.202761
-0.749886
-0.242264
-0.79095
-0.837031
-0.284038
-0.00580166
-0.160557
-0.0208156
-0.358355
-0.0433144
-0.486099
-0.0712238
-0.562499
-0.102836
-0.609887
-0.137055
-0.644503
-0.173401
-0.676766
-0.211814
-0.711473
-0.252395
-0.750369
-0.794078
-0.295347
-0.0064714
-0.154085
-0.0226976
-0.342129
-0.0465256
-0.462271
-0.0756751
-0.53335
-0.1084
-0.577162
-0.143646
-0.609258
-0.180986
-0.639426
-0.220395
-0.672065
-0.262003
-0.70876
-0.750029
-0.306052
-0.00711633
-0.146969
-0.0244956
-0.32475
-0.0495764
-0.43719
-0.0798883
-0.503038
-0.113657
-0.543394
-0.149866
-0.573048
-0.188144
-0.601149
-0.228496
-0.631713
-0.271081
-0.666175
-0.704947
-0.316163
-0.00773316
-0.139236
-0.0262029
-0.30628
-0.0524585
-0.410935
-0.0838551
-0.471641
-0.118596
-0.508653
-0.155709
-0.535936
-0.194867
-0.56199
-0.23611
-0.59047
-0.27962
-0.622665
-0.658892
-0.325675
-0.00831883
-0.130917
-0.0278131
-0.286786
-0.0551642
-0.383584
-0.0875682
-0.439237
-0.123213
-0.473008
-0.161165
-0.497983
-0.201147
-0.522009
-0.243227
-0.54839
-0.287609
-0.578283
-0.61192
-0.334581
-0.00887048
-0.122047
-0.0293207
-0.266336
-0.0576868
-0.355217
-0.0910206
-0.405903
-0.127499
-0.436529
-0.16623
-0.459252
-0.206978
-0.481261
-0.249839
-0.505529
-0.295038
-0.533084
-0.564089
-0.342869
-0.00938547
-0.112661
-0.0307204
-0.245001
-0.06002
-0.325918
-0.0942062
-0.371717
-0.13145
-0.399285
-0.170897
-0.419805
-0.212352
-0.439806
-0.255938
-0.461943
-0.301896
-0.487125
-0.515458
-0.350528
-0.00986136
-0.1028
-0.0320074
-0.222855
-0.0621582
-0.295767
-0.0971195
-0.336756
-0.135059
-0.361346
-0.17516
-0.379705
-0.217262
-0.397703
-0.261513
-0.417692
-0.308172
-0.440466
-0.466088
-0.357542
-0.010296
-0.0925038
-0.0331776
-0.199973
-0.0640965
-0.264848
-0.0997555
-0.301097
-0.138322
-0.322779
-0.179013
-0.339014
-0.221702
-0.355014
-0.266558
-0.372836
-0.313854
-0.39317
-0.416044
-0.363898
-0.0106873
-0.0818166
-0.0342271
-0.176433
-0.0658303
-0.233245
-0.10211
-0.264818
-0.141234
-0.283655
-0.182451
-0.297797
-0.225666
-0.311799
-0.271064
-0.327437
-0.318933
-0.345301
-0.365394
-0.369583
-0.0110335
-0.070783
-0.0351527
-0.152314
-0.0673558
-0.201042
-0.104178
-0.227995
-0.143791
-0.244042
-0.18547
-0.256118
-0.229147
-0.268123
-0.275024
-0.281561
-0.323399
-0.296927
-0.314208
-0.374585
-0.0113332
-0.0594498
-0.0359513
-0.127696
-0.0686695
-0.168324
-0.105957
-0.190708
-0.145989
-0.204009
-0.188066
-0.214041
-0.232141
-0.224048
-0.27843
-0.235271
-0.327243
-0.248114
-0.262557
-0.378893
-0.011585
-0.0478649
-0.0366206
-0.10266
-0.0697687
-0.135176
-0.107444
-0.153032
-0.147826
-0.163627
-0.190235
-0.171633
-0.234643
-0.179641
-0.281278
-0.188635
-0.330458
-0.198935
-0.210517
-0.382497
-0.0117877
-0.0360772
-0.0371585
-0.0772894
-0.0706508
-0.101683
-0.108637
-0.115046
-0.149299
-0.122966
-0.191974
-0.128958
-0.236649
-0.134965
-0.283563
-0.141721
-0.333037
-0.149461
-0.158164
-0.38539
-0.0119405
-0.0241367
-0.0375633
-0.0516665
-0.0713141
-0.0679325
-0.109533
-0.0768264
-0.150405
-0.0820939
-0.19328
-0.0860832
-0.238156
-0.0900889
-0.28528
-0.0945972
-0.334976
-0.0997646
-0.105574
-0.387566
-0.0120427
-0.012094
-0.0378339
-0.0258754
-0.071757
-0.0340094
-0.110131
-0.038452
-0.151143
-0.041082
-0.194152
-0.043075
-0.239162
-0.0450781
-0.286426
-0.0473337
-0.336271
-0.0499195
-0.0528267
-0.389019
-0.012094
4.74375e-11
-0.0379694
1.08331e-10
-0.0719787
1.6283e-10
-0.110431
2.01903e-10
-0.151513
2.36735e-10
-0.194588
2.62188e-10
-0.239666
2.80314e-10
-0.287
2.93149e-10
-0.336919
2.99755e-10
3.05689e-10
-0.389746
-0.012094
0.012094
-0.0379694
0.0258754
-0.0719787
0.0340094
-0.110431
0.038452
-0.151513
0.041082
-0.194588
0.043075
-0.239666
0.0450781
-0.287
0.0473337
-0.336919
0.0499195
0.0528267
-0.389746
-0.0120427
0.0241367
-0.0378339
0.0516665
-0.071757
0.0679325
-0.110131
0.0768264
-0.151143
0.0820939
-0.194152
0.0860832
-0.239162
0.0900889
-0.286426
0.0945972
-0.336271
0.0997646
0.105574
-0.389019
-0.0119405
0.0360772
-0.0375633
0.0772894
-0.0713141
0.101683
-0.109533
0.115046
-0.150405
0.122966
-0.19328
0.128958
-0.238156
0.134965
-0.28528
0.141721
-0.334976
0.149461
0.158164
-0.387566
-0.0117877
0.0478649
-0.0371585
0.10266
-0.0706508
0.135176
-0.108637
0.153032
-0.149299
0.163627
-0.191974
0.171633
-0.236649
0.179641
-0.283563
0.188635
-0.333037
0.198935
0.210517
-0.38539
-0.011585
0.0594498
-0.0366206
0.127696
-0.0697687
0.168324
-0.107444
0.190708
-0.147826
0.204009
-0.190235
0.214041
-0.234643
0.224048
-0.281278
0.235271
-0.330458
0.248114
0.262557
-0.382497
-0.0113332
0.070783
-0.0359513
0.152314
-0.0686695
0.201042
-0.105957
0.227995
-0.145989
0.244042
-0.188066
0.256118
-0.232141
0.268123
-0.27843
0.281561
-0.327243
0.296927
0.314208
-0.378893
-0.0110335
0.0818166
-0.0351527
0.176433
-0.0673558
0.233245
-0.104178
0.264818
-0.143791
0.283655
-0.18547
0.297797
-0.229147
0.311799
-0.275024
0.327437
-0.323399
0.345301
0.365394
-0.374585
-0.0106873
0.0925038
-0.0342271
0.199973
-0.0658303
0.264848
-0.10211
0.301097
-0.141234
0.322779
-0.182451
0.339014
-0.225666
0.355014
-0.271064
0.372836
-0.318933
0.39317
0.416044
-0.369583
-0.010296
0.1028
-0.0331776
0.222855
-0.0640965
0.295767
-0.0997555
0.336756
-0.138322
0.361346
-0.179013
0.379705
-0.221702
0.397703
-0.266558
0.417692
-0.313854
0.440466
0.466088
-0.363898
-0.00986136
0.112661
-0.0320074
0.245001
-0.0621582
0.325918
-0.0971195
0.371717
-0.135059
0.399285
-0.17516
0.419805
-0.217262
0.439806
-0.261513
0.461943
-0.308172
0.487125
0.515458
-0.357542
-0.00938547
0.122047
-0.0307204
0.266336
-0.06002
0.355217
-0.0942062
0.405903
-0.13145
0.436529
-0.170897
0.459252
-0.212352
0.481261
-0.255938
0.505529
-0.301896
0.533084
0.564089
-0.350528
-0.00887048
0.130917
-0.0293207
0.286786
-0.0576868
0.383584
-0.0910206
0.439237
-0.127499
0.473008
-0.16623
0.497983
-0.206978
0.522009
-0.249839
0.54839
-0.295038
0.578283
0.61192
-0.342869
-0.00831883
0.139236
-0.0278131
0.30628
-0.0551642
0.410935
-0.0875682
0.471641
-0.123213
0.508653
-0.161165
0.535936
-0.201147
0.56199
-0.243227
0.59047
-0.287609
0.622665
0.658892
-0.334581
-0.00773316
0.146969
-0.0262029
0.32475
-0.0524585
0.43719
-0.0838551
0.503038
-0.118596
0.543394
-0.155709
0.573048
-0.194867
0.601149
-0.23611
0.631713
-0.27962
0.666175
0.704947
-0.325675
-0.00711633
0.154085
-0.0244956
0.342129
-0.0495764
0.462271
-0.0798883
0.53335
-0.113657
0.577162
-0.149866
0.609258
-0.188144
0.639426
-0.228496
0.672065
-0.271081
0.70876
0.750029
-0.316163
-0.0064714
0.160557
-0.0226976
0.358355
-0.0465256
0.486099
-0.0756751
0.562499
-0.1084
0.609887
-0.143646
0.644503
-0.180986
0.676766
-0.220395
0.711473
-0.262003
0.750369
0.794078
-0.306052
-0.00580166
0.166358
-0.0208156
0.373369
-0.0433144
0.508598
-0.0712238
0.590409
-0.102836
0.641499
-0.137055
0.678723
-0.173401
0.713112
-0.211814
0.749886
-0.252395
0.79095
0.837031
-0.295347
-0.00511058
0.171469
-0.0188569
0.387116
-0.0399518
0.529693
-0.0665434
0.617
-0.0969706
0.671927
-0.130101
0.711853
-0.165396
0.748408
-0.202761
0.787251
-0.242264
0.830452
0.878805
-0.284038
-0.00440185
0.175871
-0.0168294
0.399543
-0.0364479
0.549311
-0.0616439
0.642196
-0.0908143
0.701097
-0.122791
0.74383
-0.15698
0.782596
-0.193244
0.823515
-0.231603
0.868811
0.919308
-0.272106
-0.00367934
0.17955
-0.0147415
0.410605
-0.0328133
0.567383
-0.0565363
0.665919
-0.0843769
0.728937
-0.115137
0.77459
-0.148161
0.81562
-0.183273
0.858627
-0.220416
0.905955
0.958536
-0.259645
-0.00294713
0.182497
-0.0126021
0.42026
-0.02906
0.583841
-0.0512325
0.688092
-0.0776696
0.755375
-0.107148
0.804068
-0.138951
0.847423
-0.172867
0.892543
-0.209199
0.942287
0.997854
-0.248517
-0.0022095
0.184707
-0.0104208
0.428472
-0.0252009
0.598621
-0.0457459
0.708637
-0.0707046
0.780333
-0.0988346
0.832198
-0.12936
0.877949
-0.162011
0.925194
-0.197033
0.977308
1.03553
-0.234705
-0.00147101
0.186178
-0.00820757
0.435208
-0.0212495
0.611663
-0.0400908
0.727478
-0.0634953
0.803738
-0.0902089
0.858912
-0.119395
0.907135
-0.150714
0.956513
-0.18431
1.0109
1.07154
-0.220326
-0.000737043
0.186915
-0.00597306
0.440444
-0.0172206
0.622911
-0.0342833
0.744541
-0.0560567
0.825511
-0.0812841
0.884139
-0.109067
0.934918
-0.13899
0.986435
-0.171079
1.04299
1.10583
-0.205362
-2.65362e-05
0.186941
-0.00372767
0.444145
-0.0131301
0.632313
-0.0283407
0.759751
-0.0484053
0.845576
-0.0720752
0.907809
-0.0983906
0.961233
-0.126854
1.0149
-0.157381
1.07352
1.13836
-0.189912
0.000720009
0.186221
-0.0014778
0.446343
-0.00899471
0.63983
-0.0222821
0.773039
-0.0405591
0.863853
-0.0625989
0.929849
-0.0873818
0.986016
-0.114325
1.04184
-0.143239
1.10243
1.16912
-0.174006
0.00141666
0.184805
0.00074865
0.447011
-0.00483157
0.64541
-0.0161282
0.784335
-0.0325385
0.880263
-0.0528736
0.950184
-0.0760585
1.0092
-0.101423
1.06721
-0.128679
1.12969
1.19811
-0.157666
0.00209079
0.182714
0.00292849
0.446173
-0.00064113
0.64898
-0.00990122
0.793595
-0.0243656
0.894728
-0.0429196
0.968738
-0.0644404
1.03072
-0.0881693
1.09094
-0.113729
1.15525
1.2253
-0.14092
0.00274172
0.179972
0.00508442
0.443831
0.00349386
0.65057
-0.00362712
0.800716
-0.0160649
0.907165
-0.0327596
0.985432
-0.0525491
1.05051
-0.0745877
1.11297
-0.0984123
1.17907
1.25068
-0.12379
0.00336359
0.176609
0.0071908
0.440003
0.00760538
0.650156
0.00266839
0.805653
-0.00766351
0.917497
-0.0224186
1.00019
-0.0404082
1.0685
-0.0607025
1.13327
-0.0827561
1.20113
1.27422
-0.106298
0.0039519
0.172657
0.00923138
0.434724
0.0116613
0.647726
0.00895492
0.80836
0.000809368
0.925643
-0.0119245
1.01292
-0.0280432
1.08462
-0.046539
1.15176
-0.0667854
1.22137
1.29591
-0.0884695
0.00450265
0.168154
0.0111916
0.428035
0.0156356
0.643282
0.0152067
0.808788
0.00932207
0.931527
-0.0013146
1.02356
-0.0154822
1.09879
-0.0321246
1.16841
-0.0505257
1.23977
1.31571
-0.0703265
0.00501224
0.163142
0.0130587
0.419989
0.0195036
0.636837
0.0213896
0.806902
0.0178405
0.935077
0.00940168
1.032
-0.00275771
1.11095
-0.01749
1.18314
-0.0340016
1.25629
1.3336
-0.0518946
0.00547742
0.157665
0.0148205
0.410645
0.0232403
0.628417
0.0274693
0.802673
0.0263258
0.93622
0.0201651
1.03816
0.0101081
1.121
-0.00269175
1.19594
-0.0172352
1.27083
1.34957
-0.0332013
0.0058954
0.151769
0.0164648
0.400076
0.0268205
0.618061
0.0334096
0.796084
0.0347372
0.934892
0.0309417
1.04195
0.0230714
1.12887
0.0123402
1.20667
-0.000172259
1.28334
1.36368
-0.0142854
0.00626385
0.145505
0.0179804
0.38836
0.0302192
0.605823
0.039173
0.787131
0.0430306
0.931035
0.041688
1.0433
0.0360909
1.13447
0.027468
1.21529
0.0168613
1.29395
1.37572
0.00482153
0.00658096
0.138924
0.0193571
0.375583
0.0334115
0.591768
0.0447207
0.775821
0.0511588
0.924597
0.0523554
1.0421
0.0491219
1.1377
0.0426811
1.22173
0.0341459
1.30248
1.38564
0.0242237
0.00684547
0.132079
0.0205856
0.361843
0.0363735
0.57598
0.050013
0.762182
0.0590716
0.915538
0.0628913
1.03828
0.0621175
1.13848
0.0579433
1.22591
0.0515417
1.30889
1.39348
0.0437061
0.00705669
0.125022
0.021658
0.347242
0.0390824
0.558556
0.0550097
0.746255
0.066716
0.903832
0.0732386
1.03176
0.0750237
1.13669
0.0732056
1.22773
0.0690032
1.31309
1.39919
0.0632892
0.00721453
0.117808
0.0225682
0.331888
0.0415172
0.539607
0.0596707
0.728101
0.0740367
0.889466
0.083335
1.02246
0.0877805
1.13225
0.0884148
1.22709
0.0864867
1.31502
1.40274
0.0829408
0.00731952
0.110488
0.0233116
0.315896
0.0436587
0.51926
0.0639567
0.707803
0.0809761
0.872446
0.0931135
1.01032
0.100321
1.12504
0.103512
1.2239
0.103942
1.31459
1.40406
0.10262
0.00737277
0.103115
0.0238855
0.299383
0.0454906
0.497655
0.06783
0.685464
0.0874756
0.852801
0.102503
0.995294
0.112573
1.11497
0.118432
1.21804
0.121314
1.3117
1.40309
0.12228
0.00737599
0.0957394
0.0242891
0.28247
0.0469997
0.474944
0.0712552
0.661208
0.093476
0.83058
0.111427
0.977343
0.124455
1.10194
0.1331
1.2094
0.138539
1.30626
1.39977
0.141867
0.00733143
0.0884079
0.0245239
0.265278
0.0481763
0.451292
0.0742003
0.635184
0.0989189
0.805861
0.119807
0.956455
0.13588
1.08587
0.147431
1.19785
0.155544
1.29815
1.39399
0.161318
0.00724186
0.0811661
0.0245931
0.247927
0.0490146
0.42687
0.0766377
0.607561
0.103748
0.778751
0.127561
0.932641
0.146753
1.06668
0.161331
1.18327
0.172245
1.28724
1.38567
0.180563
0.00711051
0.0740555
0.0245024
0.230535
0.0495133
0.401859
0.0785451
0.578529
0.107909
0.749387
0.134607
0.905943
0.156972
1.04431
0.174698
1.16554
0.188549
1.27339
1.3747
0.199521
0.00694099
0.0671146
0.0242589
0.213217
0.0496753
0.376443
0.0799066
0.548298
0.111356
0.717938
0.140862
0.876438
0.166431
1.01874
0.187415
1.14456
0.204347
1.25646
1.36095
0.218099
0.00673721
0.0603773
0.0238719
0.196082
0.0495083
0.350806
0.080713
0.517093
0.114046
0.684605
0.146245
0.844238
0.175019
0.989969
0.199358
1.12022
0.219516
1.2363
1.34427
0.236191
0.00650332
0.053874
0.023352
0.179234
0.0490244
0.325134
0.0809633
0.485154
0.115947
0.649621
0.150684
0.809501
0.182624
0.95803
0.210392
1.09245
0.233921
1.21277
1.32452
0.253676
0.00624359
0.0476304
0.0227111
0.162766
0.0482397
0.299605
0.0806643
0.45273
0.117038
0.613248
0.154112
0.772426
0.189132
0.92301
0.220374
1.06121
0.247408
1.18573
1.30151
0.270415
0.0059623
0.0416681
0.0219621
0.146766
0.0471742
0.274393
0.0798312
0.420073
0.117306
0.575773
0.156473
0.73326
0.194438
0.885045
0.229158
1.02649
0.25981
1.15508
1.27506
0.286258
0.00566367
0.0360045
0.0211185
0.131311
0.0458512
0.249661
0.0784869
0.387437
0.116756
0.537504
0.157726
0.69229
0.198443
0.844328
0.236596
0.988336
0.270947
1.12073
1.24497
0.301038
0.00535172
0.0306528
0.0201941
0.116469
0.0442961
0.225559
0.0766618
0.355071
0.115402
0.498763
0.157845
0.649847
0.20106
0.801112
0.242542
0.946855
0.280629
1.08264
1.21102
0.31458
0.0050302
0.0256225
0.0192023
0.102297
0.0425363
0.202225
0.0743926
0.323215
0.113273
0.459883
0.156823
0.606297
0.202223
0.755712
0.246861
0.902218
0.288658
1.04085
1.17297
0.326706
0.0047025
0.02092
0.0181561
0.0888433
0.0405997
0.179781
0.071721
0.292094
0.11041
0.421193
0.154674
0.562034
0.201886
0.7085
0.24943
0.854673
0.294837
0.995439
1.13056
0.337249
0.00437156
0.0165485
0.0170678
0.0761471
0.0385141
0.158335
0.0686921
0.261916
0.106867
0.383019
0.151431
0.517469
0.200027
0.659905
0.250149
0.804551
0.298974
0.946614
1.08347
0.346068
0.00403981
0.0125087
0.0159482
0.0642388
0.0363065
0.137977
0.0653531
0.232869
0.102703
0.345669
0.147147
0.473025
0.196655
0.610398
0.248938
0.752267
0.300891
0.894661
1.03127
0.353082
0.0037092
0.00879947
0.0148071
0.0531408
0.034002
0.118782
0.0617517
0.205119
0.0979883
0.309432
0.141893
0.42912
0.191806
0.560485
0.245746
0.698327
0.300447
0.839961
0.973422
0.358299
0.00338112
0.00541835
0.0136528
0.0428692
0.031624
0.10081
0.0579341
0.178809
0.0927943
0.274572
0.135754
0.386161
0.185547
0.510692
0.240539
0.643335
0.297547
0.782953
0.909131
0.361837
0.00305649
0.00236185
0.0124919
0.0334338
0.0291928
0.0841095
0.0539448
0.154057
0.0871958
0.241321
0.128829
0.344527
0.17797
0.46155
0.233302
0.588003
0.291898
0.724357
0.8374
0.36363
0.00273579
-0.000373934
0.0113301
0.0248395
0.0267267
0.0687129
0.0498247
0.130959
0.0812668
0.209879
0.121227
0.304567
0.169204
0.413574
0.224135
0.533073
0.283347
0.665145
0.776929
0.343817
0.00241915
-0.00279308
0.0101714
0.0170872
0.0242413
0.054643
0.0456117
0.109589
0.0750795
0.180411
0.113065
0.266581
0.15941
0.367228
0.213248
0.479235
0.272927
0.605466
0.716142
0.333715
0.00210649
-0.00489957
0.00901942
0.0101743
0.02175
0.0419125
0.0413399
0.0899988
0.0687024
0.153049
0.104459
0.230824
0.148766
0.322921
0.200996
0.427006
0.260486
0.545976
0.654566
0.322062
0.00179761
-0.00669718
0.00787691
0.004095
0.0192648
0.0305246
0.0370403
0.0722232
0.0621991
0.12789
0.0955221
0.197501
0.137438
0.281006
0.187597
0.376847
0.246096
0.487477
0.592606
0.308056
0.00149238
-0.00818956
0.00674659
-0.00115921
0.0167967
0.0204745
0.0327414
0.0562785
0.0556291
0.105002
0.0863598
0.16677
0.125586
0.24178
0.173245
0.329187
0.229997
0.430725
0.530983
0.29162
0.00119083
-0.00938039
0.0056314
-0.00559978
0.0143565
0.0117494
0.0284701
0.042165
0.0490479
0.0844242
0.0770731
0.138745
0.113369
0.205484
0.158154
0.284403
0.212479
0.376399
0.470534
0.272928
0.000893333
-0.0102737
0.00453487
-0.00924132
0.0119556
0.00432866
0.0242531
0.0298675
0.0425093
0.066168
0.0677586
0.113496
0.100946
0.172296
0.142544
0.242805
0.193855
0.325089
0.412112
0.252277
0.000600688
-0.0108744
0.00346149
-0.0121021
0.0096066
-0.00181645
0.0201181
0.019356
0.0360667
0.0502194
0.0585103
0.0910522
0.0884729
0.142333
0.126642
0.204636
0.174447
0.277284
0.356501
0.230058
0.000314325
-0.0111887
0.00241691
-0.0142047
0.00732363
-0.00672317
0.0160942
0.0105854
0.0297742
0.0365394
0.049422
0.0714044
0.0761017
0.115654
0.110671
0.170067
0.154587
0.233368
0.304374
0.206714
3.81196e-05
-0.0112269
0.00140794