/*--------------------------------*- C++ -*----------------------------------*\
  =========                 |
  \\      /  F ield         | OpenFOAM: The Open Source CFD Toolbox
   \\    /   O peration     | Website:  https://openfoam.org
    \\  /    A nd           | Version:  7
     \\/     M anipulation  |
\*---------------------------------------------------------------------------*/
FoamFile
{
    version     2.0;
    format      ascii;
    class       volScalarField;
    location    "0.6";
    object      T;
}
// * * * * * * * * * * * * * * * * * * * * * * * * * * * * * * * * * * * * * //

dimensions      [0 0 0 1 0 0 0];

internalField   nonuniform List<scalar> 
64512
(
1
1
1
1
1
1
1
1
1
1
1
1
1
1
1
1
1
1
1
1
1
1
1
1
1
1
1
1
1
1
1
1
1
1
1
1
1
1
1
1
1
1
1
1
1
1
1
1
1
1
1
1
1
1
1
1
1
1
1
2.03861
2.83715
2.82855
2.82395
2.83009
2.84167
2.84676
2.84734
2.84604
2.84893
2.8568
2.86648
2.87527
2.8821
2.88643
2.88968
2.89524
2.90341
2.91457
2.92777
2.94105
2.95434
2.9664
2.97541
2.98343
2.9924
3.00535
3.02623
3.06013
3.11228
3.18543
3.27553
3.37024
3.45258
3.50971
3.53925
3.5492
1
1
1
1
1
1
1
1
1
1
1
1
1
1
1
1
1
1
1
1
1
1
1
1
1
1
1
1
1
1
1
1
1
1
1
1
1
1
1
1
1
1
1
1
1
1
1
1
1
1
1
1
1
1
1
1
1
1
1
2.03355
2.83457
2.828
2.82399
2.83055
2.84208
2.84683
2.84705
2.84546
2.84836
2.85644
2.8664
2.87544
2.88244
2.88676
2.88985
2.89525
2.90325
2.91432
2.92747
2.94075
2.95404
2.96613
2.97521
2.98336
2.99248
3.00562
3.02673
3.06089
3.11333
3.1867
3.27681
3.37123
3.4531
3.50979
3.53909
3.54894
1
1
1
1
1
1
1
1
1
1
1
1
1
1
1
1
1
1
1
1
1
1
1
1
1
1
1
1
1
1
1
1
1
1
1
1
1
1
1
1
1
1
1
1
1
1
1
1
1
1
1
1
1
1
1
1
1
1
1
2.01906
2.83082
2.82593
2.82402
2.83152
2.84296
2.84704
2.84658
2.84441
2.84735
2.85585
2.86635
2.87574
2.88292
2.88718
2.88999
2.89516
2.90291
2.91385
2.92696
2.94027
2.9536
2.96576
2.97498
2.9833
2.99262
3.0061
3.02771
3.06259
3.11595
3.19009
3.28036
3.3741
3.45475
3.51029
3.53893
3.54854
1
1
1
1
1
1
1
1
1
1
1
1
1
1
1
1
1
1
1
1
1
1
1
1
1
1
1
1
1
1
1
1
1
1
1
1
1
1
1
1
1
1
1
1
1
1
1
1
1
1
1
1
1
1
1
1
1
1
1
1.99619
2.82487
2.82316
2.82374
2.83291
2.84391
2.84705
2.84573
2.84282
2.84589
2.85502
2.86636
2.87623
2.88358
2.88768
2.89002
2.89487
2.9023
2.91308
2.92614
2.93947
2.95285
2.9651
2.97449
2.98305
2.99261
3.0064
3.02858
3.06443
3.11915
3.19454
3.28526
3.37822
3.4572
3.51107
3.53869
3.54787
1
1
1
1
1
1
1
1
1
1
1
1
1
1
1
1
1
1
1
1
1
1
1
1
1
1
1
1
1
1
1
1
1
1
1
1
1
1
1
1
1
1
1
1
1
1
1
1
1
1
1
1
1
1
1
1
1
1
1
1.96542
2.81519
2.82021
2.82318
2.83382
2.84438
2.8468
2.84461
2.84089
2.84418
2.8541
2.86646
2.87685
2.88428
2.88816
2.88991
2.89435
2.90141
2.91205
2.92504
2.93839
2.95178
2.96412
2.97369
2.98248
2.99228
3.00628
3.02878
3.06527
3.12115
3.19789
3.28933
3.38184
3.45943
3.51174
3.53832
3.54698
1
1
1
1
1
1
1
1
1
1
1
1
1
1
1
1
1
1
1
1
1
1
1
1
1
1
1
1
1
1
1
1
1
1
1
1
1
1
1
1
1
1
1
1
1
1
1
1
1
1
1
1
1
1
1
1
1
1
1
1.92686
2.80246
2.81654
2.82165
2.83397
2.84442
2.84612
2.84308
2.83865
2.84229
2.85314
2.86665
2.87754
2.88496
2.88854
2.88961
2.89357
2.90024
2.91076
2.92368
2.93703
2.9504
2.96278
2.9725
2.98148
2.99144
3.00559
3.02823
3.06497
3.1215
3.19914
3.29134
3.38391
3.46078
3.51202
3.53771
3.54583
1
1
1
1
1
1
1
1
1
1
1
1
1
1
1
1
1
1
1
1
1
1
1
1
1
1
1
1
1
1
1
1
1
1
1
1
1
1
1
1
1
1
1
1
1
1
1
1
1
1
1
1
1
1
1
1
1
1
1
1.88052
2.78579
2.81219
2.81954
2.83361
2.84391
2.84472
2.84094
2.83634
2.8404
2.85223
2.86683
2.87816
2.88547
2.88872
2.88906
2.89251
2.89881
2.90925
2.92214
2.93546
2.94875
2.96112
2.97097
2.98008
2.99011
3.00422
3.02679
3.06361
3.1205
3.19878
3.29168
3.38459
3.46124
3.51181
3.53674
3.54434
1
1
1
1
1
1
1
1
1
1
1
1
1
1
1
1
1
1
1
1
1
1
1
1
1
1
1
1
1
1
1
1
1
1
1
1
1
1
1
1
1
1
1
1
1
1
1
1
1
1
1
1
1
1
1
1
1
1
1
1.82525
2.76317
2.80756
2.81748
2.83303
2.84294
2.84268
2.83811
2.83422
2.83851
2.85131
2.86692
2.87861
2.88571
2.88854
2.88825
2.89122
2.89715
2.90757
2.92041
2.93365
2.94681
2.95915
2.96913
2.97834
2.98834
3.00225
3.02447
3.06105
3.1181
3.19703
3.29071
3.38416
3.46085
3.51103
3.53537
3.54252
1
1
1
1
1
1
1
1
1
1
1
1
1
1
1
1
1
1
1
1
1
1
1
1
1
1
1
1
1
1
1
1
1
1
1
1
1
1
1
1
1
1
1
1
1
1
1
1
1
1
1
1
1
1
1
1
1
1
1
1.75786
2.73184
2.80265
2.81541
2.83264
2.84192
2.84039
2.83501
2.83211
2.83668
2.85039
2.86693
2.87895
2.88566
2.88779
2.88711
2.88958
2.89524
2.90572
2.9185
2.93159
2.94456
2.95685
2.96701
2.97632
2.98626
2.99979
3.02138
3.05735
3.11422
3.19356
3.28802
3.38227
3.45939
3.50954
3.53358
3.54042
1
1
1
1
1
1
1
1
1
1
1
1
1
1
1
1
1
1
1
1
1
1
1
1
1
1
1
1
1
1
1
1
1
1
1
1
1
1
1
1
1
1
1
1
1
1
1
1
1
1
1
1
1
1
1
1
1
1
1
1.66985
2.68797
2.79755
2.81309
2.8326
2.84117
2.83839
2.83213
2.82989
2.83493
2.84952
2.86686
2.87905
2.88517
2.88645
2.88558
2.88765
2.89319
2.90371
2.91636
2.92922
2.94192
2.95416
2.96458
2.97405
2.98392
2.99699
3.01771
3.05271
3.109
3.1884
3.28348
3.37865
3.45666
3.50733
3.53136
3.53803
1
1
1
1
1
1
1
1
1
1
1
1
1
1
1
1
1
1
1
1
1
1
1
1
1
1
1
1
1
1
1
1
1
1
1
1
1
1
1
1
1
1
1
1
1
1
1
1
1
1
1
1
1
1
1
1
1
1
1
1.55036
2.62688
2.79354
2.81104
2.83301
2.84084
2.83694
2.82959
2.82762
2.83335
2.84881
2.86667
2.87871
2.88408
2.88461
2.88364
2.88551
2.89104
2.9015
2.91391
2.92646
2.93882
2.95103
2.96182
2.97153
2.98136
2.99393
3.01364
3.04739
3.10271
3.18179
3.27729
3.37355
3.45284
3.5044
3.52867
3.5353
1
1
1
1
1
1
1
1
1
1
1
1
1
1
1
1
1
1
1
1
1
1
1
1
1
1
1
1
1
1
1
1
1
1
1
1
1
1
1
1
1
1
1
1
1
1
1
1
1
1
1
1
1
1
1
1
1
1
1
1.39861
2.5458
2.79142
2.81039
2.83364
2.8399
2.83519
2.82736
2.82576
2.83215
2.84829
2.86621
2.87768
2.88226
2.88235
2.88141
2.88324
2.88881
2.89905
2.91114
2.9233
2.93526
2.94743
2.95867
2.96871
2.97859
2.99067
3.00933
3.0417
3.09577
3.17415
3.26987
3.36727
3.44808
3.50079
3.52545
3.53216
1
1
1
1
1
1
1
1
1
1
1
1
1
1
1
1
1
1
1
1
1
1
1
1
1
1
1
1
1
1
1
1
1
1
1
1
1
1
1
1
1
1
1
1
1
1
1
1
1
1
1
1
1
1
1
1
1
1
1
1.22556
2.45061
2.7899
2.81227
2.83379
2.83798
2.83263
2.82556
2.82487
2.8315
2.8478
2.86525
2.87582
2.87966
2.87975
2.87902
2.88091
2.88648
2.89633
2.90799
2.91971
2.93125
2.94338
2.9551
2.96552
2.97554
2.98719
3.00484
3.03587
3.08854
3.16596
3.26164
3.3601
3.44253
3.49656
3.52169
3.52854
1
1
1
1
1
1
1
1
1
1
1
1
1
1
1
1
1
1
1
1
1
1
1
1
1
1
1
1
1
1
1
1
1
1
1
1
1
1
1
1
1
1
1
1
1
1
1
1
1
1
1
1
1
1
1
1
1
1
1
1.04965
2.3484
2.79546
2.8194
2.83342
2.83455
2.82918
2.82396
2.82465
2.83133
2.84703
2.86362
2.87311
2.87644
2.87695
2.87661
2.87859
2.88404
2.89329
2.90441
2.91568
2.92685
2.93896
2.9511
2.96192
2.97212
2.98342
3.00023
3.03003
3.08125
3.15744
3.2528
3.35216
3.43623
3.4917
3.51737
3.52439
1
1
1
1
1
1
1
1
1
1
1
1
1
1
1
1
1
1
1
1
1
1
1
1
1
1
1
1
1
1
1
1
1
1
1
1
1
1
1
1
1
1
1
1
1
1
1
1
1
1
1
1
1
1
1
1
1
1
1
1.0005
2.2614
2.80176
2.82329
2.83055
2.82948
2.82509
2.82248
2.82429
2.83136
2.84573
2.86114
2.8696
2.87275
2.87401
2.87425
2.87628
2.88141
2.88986
2.90034
2.91121
2.92215
2.93426
2.9467
2.95784
2.96823
2.9793
2.99548
3.02424
3.07394
3.14863
3.24338
3.34345
3.42917
3.48621
3.51256
3.51978
1
1
1
1
1
1
1
1
1
1
1
1
1
1
1
1
1
1
1
1
1
1
1
1
1
1
1
1
1
1
1
1
1
1
1
1
1
1
1
1
1
1
1
1
1
1
1
1
1
1
1
1
1
1
1
1
1
1
1
1
2.16938
2.80691
2.82195
2.82378
2.82176
2.82011
2.82137
2.82385
2.83131
2.84408
2.85767
2.86533
2.8687
2.87099
2.87196
2.87391
2.87854
2.88604
2.89574
2.9063
2.91719
2.92935
2.94193
2.95328
2.96384
2.97482
2.99066
3.01856
3.06666
3.13957
3.23334
3.3339
3.42126
3.48002
3.50724
3.51472
1
1
1
1
1
1
1
1
1
1
1
1
1
1
1
1
1
1
1
1
1
1
1
1
1
1
1
1
1
1
1
1
1
1
1
1
1
1
1
1
1
1
1
1
1
1
1
1
1
1
1
1
1
1
1
1
1
1
1
1
2.06362
2.80228
2.81528
2.81405
2.81296
2.81436
2.81974
2.824
2.83108
2.84171
2.8531
2.86038
2.86438
2.86793
2.86973
2.87141
2.87537
2.88182
2.89064
2.90097
2.91197
2.92421
2.9368
2.94822
2.95895
2.97003
2.98578
3.01292
3.05928
3.13013
3.22255
3.32342
3.41246
3.47315
3.50149
3.50934
1
1
1
1
1
1
1
1
1
1
1
1
1
1
1
1
1
1
1
1
1
1
1
1
1
1
1
1
1
1
1
1
1
1
1
1
1
1
1
1
1
1
1
1
1
1
1
1
1
1
1
1
1
1
1
1
1
1
1
1
1.93992
2.78084
2.80337
2.80195
2.80447
2.81073
2.81824
2.82441
2.82988
2.83808
2.84763
2.85488
2.85992
2.86492
2.86757
2.86873
2.87176
2.87716
2.88509
2.8953
2.90649
2.91876
2.93122
2.94265
2.95361
2.965
2.98086
3.00729
3.05177
3.12016
3.21096
3.31198
3.40272
3.46553
3.49524
3.50354
1
1
1
1
1
1
1
1
1
1
1
1
1
1
1
1
1
1
1
1
1
1
1
1
1
1
1
1
1
1
1
1
1
1
1
1
1
1
1
1
1
1
1
1
1
1
1
1
1
1
1
1
1
1
1
1
1
1
1
1
1.79469
2.73634
2.78603
2.79032
2.79918
2.81054
2.81881
2.82454
2.82718
2.83273
2.84109
2.8489
2.85545
2.86206
2.86542
2.86577
2.86764
2.87204
2.87922
2.8894
2.90078
2.91293
2.92508
2.93648
2.94781
2.95976
2.97581
3.00146
3.04388
3.10952
3.19846
3.29949
3.39202
3.45718
3.48848
3.49729
1
1
1
1
1
1
1
1
1
1
1
1
1
1
1
1
1
1
1
1
1
1
1
1
1
1
1
1
1
1
1
1
1
1
1
1
1
1
1
1
1
1
1
1
1
1
1
1
1
1
1
1
1
1
1
1
1
1
1
1
1.61734
2.66143
2.76759
2.78267
2.79933
2.81228
2.81958
2.82242
2.82252
2.82595
2.83342
2.84274
2.85122
2.85923
2.863
2.86252
2.86312
2.86645
2.8731
2.8833
2.8948
2.90666
2.91829
2.92967
2.94157
2.95436
2.97068
2.99535
3.03543
3.09816
3.18498
3.28591
3.38034
3.44802
3.48103
3.49037
1
1
1
1
1
1
1
1
1
1
1
1
1
1
1
1
1
1
1
1
1
1
1
1
1
1
1
1
1
1
1
1
1
1
1
1
1
1
1
1
1
1
1
1
1
1
1
1
1
1
1
1
1
1
1
1
1
1
1
1
1.41797
2.56659
2.75547
2.78138
2.80245
2.813
2.81769
2.81753
2.81615
2.81835
2.82563
2.83689
2.84741
2.85633
2.86016
2.85878
2.85798
2.86054
2.86678
2.877
2.88854
2.89995
2.91093
2.92232
2.93493
2.94869
2.96527
2.98881
3.02641
3.0859
3.17029
3.27102
3.36753
3.43802
3.4729
3.48279
1
1
1
1
1
1
1
1
1
1
1
1
1
1
1
1
1
1
1
1
1
1
1
1
1
1
1
1
1
1
1
1
1
1
1
1
1
1
1
1
1
1
1
1
1
1
1
1
1
1
1
1
1
1
1
1
1
1
1
1
1.19362
2.45161
2.75605
2.78301
2.80222
2.80971
2.81183
2.81073
2.80869
2.81073
2.81893
2.83199
2.84405
2.85306
2.85655
2.85447
2.85243
2.85445
2.8604
2.87046
2.88185
2.89275
2.90311
2.9146
2.92796
2.94261
2.95935
2.98176
3.01677
3.07282
3.1545
3.25485
3.35345
3.42691
3.46376
3.47417
1
1
1
1
1
1
1
1
1
1
1
1
1
1
1
1
1
1
1
1
1
1
1
1
1
1
1
1
1
1
1
1
1
1
1
1
1
1
1
1
1
1
1
1
1
1
1
1
1
1
1
1
1
1
1
1
1
1
1
1
1.00925
2.32811
2.76875
2.78837
2.7972
2.80161
2.80249
2.80222
2.8012
2.8043
2.81358
2.8279
2.8406
2.84898
2.85206
2.84973
2.84683
2.84837
2.85408
2.86363
2.87458
2.88501
2.89496
2.90672
2.92076
2.93598
2.95268
2.97387
3.00627
3.05874
3.13741
3.23709
3.3378
3.41448
3.45355
3.46462
1
1
1
1
1
1
1
1
1
1
1
1
1
1
1
1
1
1
1
1
1
1
1
1
1
1
1
1
1
1
1
1
1
1
1
1
1
1
1
1
1
1
1
1
1
1
1
1
1
1
1
1
1
1
1
1
1
1
1
1
1.00005
2.15905
2.77178
2.78757
2.78713
2.79075
2.79266
2.79418
2.79534
2.7998
2.80882
2.82346
2.83607
2.84375
2.84668
2.8445
2.8414
2.84253
2.84787
2.85647
2.86658
2.87666
2.88656
2.89877
2.91327
2.9287
2.94513
2.96505
2.99491
3.04379
3.11916
3.21777
3.32038
3.40037
3.4418
3.4536
1
1
1
1
1
1
1
1
1
1
1
1
1
1
1
1
1
1
1
1
1
1
1
1
1
1
1
1
1
1
1
1
1
1
1
1
1
1
1
1
1
1
1
1
1
1
1
1
1
1
1
1
1
1
1
1
1
1
1
1
1
1.92464
2.73761
2.78137
2.77636
2.78179
2.78648
2.78982
2.79181
2.7962
2.80357
2.81728
2.82949
2.83697
2.84024
2.83879
2.83621
2.83695
2.84157
2.84892
2.85794
2.86791
2.87814
2.89078
2.90535
2.92064
2.93657
2.95516
2.98246
3.02764
3.09929
3.19626
3.30057
3.38416
3.42836
3.44115
1
1
1
1
1
1
1
1
1
1
1
1
1
1
1
1
1
1
1
1
1
1
1
1
1
1
1
1
1
1
1
1
1
1
1
1
1
1
1
1
1
1
1
1
1
1
1
1
1
1
1
1
1
1
1
1
1
1
1
1
1
1.631
2.6472
2.76844
2.76724
2.77544
2.78328
2.78818
2.79066
2.79317
2.7977
2.80903
2.82037
2.82812
2.8327
2.8329
2.83101
2.83134
2.83498
2.84093
2.84893
2.85898
2.86972
2.88259
2.89677
2.91159
2.92684
2.94409
2.96892
3.01045
3.0781
3.17286
3.27838
3.36537
3.41235
3.42605
1
1
1
1
1
1
1
1
1
1
1
1
1
1
1
1
1
1
1
1
1
1
1
1
1
1
1
1
1
1
1
1
1
1
1
1
1
1
1
1
1
1
1
1
1
1
1
1
1
1
1
1
1
1
1
1
1
1
1
1
1
1.31312
2.50963
2.75595
2.76112
2.77443
2.78445
2.79042
2.79006
2.78957
2.79064
2.7984
2.80885
2.81773
2.82439
2.82668
2.8254
2.82546
2.82791
2.83258
2.83988
2.8501
2.8613
2.87404
2.88738
2.90141
2.91581
2.93175
2.95417
2.99189
3.05492
3.14644
3.25249
3.34311
3.39347
3.40866
1
1
1
1
1
1
1
1
1
1
1
1
1
1
1
1
1
1
1
1
1
1
1
1
1
1
1
1
1
1
1
1
1
1
1
1
1
1
1
1
1
1
1
1
1
1
1
1
1
1
1
1
1
1
1
1
1
1
1
1
1
1.04326
2.36949
2.74452
2.76457
2.78
2.78665
2.79004
2.78735
2.78356
2.7814
2.78676
2.79712
2.8072
2.8155
2.81975
2.81938
2.81915
2.82032
2.82411
2.83102
2.84133
2.85263
2.86489
2.87703
2.88994
2.90334
2.91797
2.93808
2.97199
3.03008
3.11769
3.22349
3.31708
3.3704
3.38621
1
1
1
1
1
1
1
1
1
1
1
1
1
1
1
1
1
1
1
1
1
1
1
1
1
1
1
1
1
1
1
1
1
1
1
1
1
1
1
1
1
1
1
1
1
1
1
1
1
1
1
1
1
1
1
1
1
1
1
1
1
1.00034
2.19104
2.73585
2.76623
2.77823
2.78397
2.7842
2.78044
2.77426
2.77255
2.77726
2.78672
2.79692
2.80621
2.81226
2.81317
2.81238
2.81224
2.81573
2.82247
2.83239
2.8434
2.85488
2.86563
2.87716
2.88943
2.90282
2.92071
2.95061
3.00283
3.08464
3.18818
3.28439
3.3414
3.35953
1
1
1
1
1
1
1
1
1
1
1
1
1
1
1
1
1
1
1
1
1
1
1
1
1
1
1
1
1
1
1
1
1
1
1
1
1
1
1
1
1
1
1
1
1
1
1
1
1
1
1
1
1
1
1
1
1
1
1
1
1
1
1.93763
2.69496
2.75515
2.76594
2.77282
2.77252
2.77022
2.76582
2.76482
2.76822
2.77735
2.78831
2.79765
2.80451
2.8064
2.80503
2.80406
2.80737
2.81399
2.82297
2.83332
2.8437
2.85313
2.86314
2.87419
2.88635
2.90198
2.9275
2.97308
3.04813
3.14864
3.2467
3.30509
3.31942
1
1
1
1
1
1
1
1
1
1
1
1
1
1
1
1
1
1
1
1
1
1
1
1
1
1
1
1
1
1
1
1
1
1
1
1
1
1
1
1
1
1
1
1
1
1
1
1
1
1
1
1
1
1
1
1
1
1
1
1
1
1
1.59172
2.59698
2.73733
2.74811
2.75889
2.76273
2.76152
2.75853
2.75871
2.7621
2.77027
2.78121
2.79013
2.79653
2.79918
2.79733
2.7961
2.79888
2.805
2.81309
2.82222
2.8314
2.83961
2.84806
2.85775
2.86863
2.88198
2.90291
2.94089
3.00651
3.09914
3.19341
3.25106
3.26379
1
1
1
1
1
1
1
1
1
1
1
1
1
1
1
1
1
1
1
1
1
1
1
1
1
1
1
1
1
1
1
1
1
1
1
1
1
1
1
1
1
1
1
1
1
1
1
1
1
1
1
1
1
1
1
1
1
1
1
1
1
1
1.23217
2.4586
2.73189
2.73235
2.7418
2.74974
2.75373
2.75346
2.75472
2.75785
2.76472
2.77496
2.78324
2.78842
2.79126
2.78981
2.78829
2.79003
2.79504
2.80231
2.81017
2.81815
2.82528
2.83217
2.84027
2.84963
2.86052
2.87643
2.90564
2.95936
3.04146
3.12994
3.18835
3.21081
1
1
1
1
1
1
1
1
1
1
1
1
1
1
1
1
1
1
1
1
1
1
1
1
1
1
1
1
1
1
1
1
1
1
1
1
1
1
1
1
1
1
1
1
1
1
1
1
1
1
1
1
1
1
1
1
1
1
1
1
1
1
1.01099
2.3013
2.71693
2.72931
2.73999
2.74786
2.752
2.75118
2.7514
2.75347
2.75832
2.76704
2.77506
2.78018
2.78353
2.78257
2.7804
2.7806
2.78409
2.79029
2.7971
2.8042
2.81056
2.81594
2.82206
2.82937
2.83758
2.8485
2.86888
2.90974
2.97532
3.03529
3.03254
2.92135
1
1
1
1
1
1
1
1
1
1
1
1
1
1
1
1
1
1
1
1
1
1
1
1
1
1
1
1
1
1
1
1
1
1
1
1
1
1
1
1
1
1
1
1
1
1
1
1
1
1
1
1
1
1
1
1
1
1
1
1
1
1
1.00005
2.07448
2.69848
2.72505
2.73375
2.74215
2.74728
2.74704
2.74624
2.74744
2.75034
2.75761
2.76586
2.7715
2.77512
2.77511
2.77277
2.7715
2.7732
2.77734
2.78301
2.7896
2.79542
2.79945
2.80335
2.80804
2.81314
2.81905
2.83009
2.85574
2.89515
2.92455
2.89993
2.72245
1
1
1
1
1
1
1
1
1
1
1
1
1
1
1
1
1
1
1
1
1
1
1
1
1
1
1
1
1
1
1
1
1
1
1
1
1
1
1
1
1
1
1
1
1
1
1
1
1
1
1
1
1
1
1
1
1
1
1
1
1
1
1
1.72907
2.62857
2.71413
2.72205
2.73178
2.7377
2.74054
2.73926
2.73989
2.74194
2.74709
2.75533
2.76188
2.76686
2.76844
2.76586
2.76302
2.76213
2.76391
2.76814
2.77417
2.77967
2.78266
2.78436
2.78613
2.78762
2.7887
2.79095
2.80152
2.81746
2.82443
2.76819
2.59709
1
1
1
1
1
1
1
1
1
1
1
1
1
1
1
1
1
1
1
1
1
1
1
1
1
1
1
1
1
1
1
1
1
1
1
1
1
1
1
1
1
1
1
1
1
1
1
1
1
1
1
1
1
1
1
1
1
1
1
1
1
1
1
1.2804
2.47786
2.71433
2.71457
2.72104
2.72733
2.72992
2.72933
2.7302
2.73283
2.73747
2.74574
2.75303
2.75904
2.76151
2.75863
2.75442
2.75093
2.75044
2.75316
2.75838
2.76335
2.76548
2.76511
2.7641
2.76173
2.75793
2.75303
2.74917
2.74869
2.73006
2.67052
2.5272
1
1
1
1
1
1
1
1
1
1
1
1
1
1
1
1
1
1
1
1
1
1
1
1
1
1
1
1
1
1
1
1
1
1
1
1
1
1
1
1
1
1
1
1
1
1
1
1
1
1
1
1
1
1
1
1
1
1
1
1
1
1
1
1.01525
2.30724
2.69374
2.7021
2.71216
2.71918
2.72252
2.72253
2.722
2.72379
2.728
2.7358
2.74407
2.75107
2.75415
2.75083
2.74552
2.74014
2.7377
2.73893
2.74245
2.7463
2.74774
2.7459
2.74222
2.73626
2.72808
2.71752
2.70413
2.68674
2.6539
2.59177
2.48283
1
1
1
1
1
1
1
1
1
1
1
1
1
1
1
1
1
1
1
1
1
1
1
1
1
1
1
1
1
1
1
1
1
1
1
1
1
1
1
1
1
1
1
1
1
1
1
1
1
1
1
1
1
1
1
1
1
1
1
1
1
1
1
1.00007
2.02067
2.65896
2.69388
2.70176
2.70928
2.71449
2.71607
2.71444
2.71497
2.71855
2.72511
2.73388
2.74187
2.74587
2.74275
2.73703
2.73053
2.72609
2.72495
2.72659
2.7287
2.72921
2.72632
2.72056
2.7118
2.70011
2.68473
2.66443
2.63585
2.5959
2.53838
2.44877
1
1
1
1
1
1
1
1
1
1
1
1
1
1
1
1
1
1
1
1
1
1
1
1
1
1
1
1
1
1
1
1
1
1
1
1
1
1
1
1
1
1
1
1
1
1
1
1
1
1
1
1
1
1
1
1
1
1
1
1
1
1
1
1
1.5676
2.56268
2.68858
2.69106
2.69821
2.70553
2.71042
2.70818
2.70676
2.70878
2.71349
2.72207
2.7309
2.73616
2.73418
2.72891
2.72179
2.71557
2.71167
2.71071
2.71064
2.70983
2.706
2.69897
2.68842
2.67423
2.65546
2.63038
2.59518
2.55165
2.4959
2.42064
1
1
1
1
1
1
1
1
1
1
1
1
1
1
1
1
1
1
1
1
1
1
1
1
1
1
1
1
1
1
1
1
1
1
1
1
1
1
1
1
1
1
1
1
1
1
1
1
1
1
1
1
1
1
1
1
1
1
1
1
1
1
1
1
1.09691
2.39518
2.68065
2.67866
2.6875
2.69685
2.7043
2.70241
2.70011
2.69946
2.70269
2.7095
2.71793
2.72404
2.72431
2.72025
2.7133
2.70603
2.69976
2.6956
2.69269
2.69004
2.68541
2.67766
2.66613
2.65031
2.62948
2.60142
2.56345
2.51977
2.46489
2.3994
1
1
1
1
1
1
1
1
1
1
1
1
1
1
1
1
1
1
1
1
1
1
1
1
1
1
1
1
1
1
1
1
1
1
1
1
1
1
1
1
1
1
1
1
1
1
1
1
1
1
1
1
1
1
1
1
1
1
1
1
1
1
1
1
1.00144
2.13347
2.64574
2.66803
2.67786
2.68848
2.69722
2.69599
2.69357
2.68998
2.69186
2.6963
2.70328
2.70983
2.7127
2.71008
2.70447
2.697
2.68904
2.68164
2.67558
2.67071
2.66518
2.6569
2.64484
2.62833
2.60649
2.57692
2.5394
2.49583
2.44182
2.38286
1
1
1
1
1
1
1
1
1
1
1
1
1
1
1
1
1
1
1
1
1
1
1
1
1
1
1
1
1
1
1
1
1
1
1
1
1
1
1
1
1
1
1
1
1
1
1
1
1
1
1
1
1
1
1
1
1
1
1
1
1
1
1
1
1
1.69134
2.5667
2.66413
2.66708
2.67579
2.68566
2.68878
2.68657
2.68137
2.68087
2.68325
2.68839
2.69485
2.69939
2.69859
2.69492
2.68787
2.67874
2.66876
2.65977
2.65251
2.64575
2.63709
2.62487
2.60854
2.58626
2.55619
2.51997
2.47686
2.42591
2.37211
1
1
1
1
1
1
1
1
1
1
1
1
1
1
1
1
1
1
1
1
1
1
1
1
1
1
1
1
1
1
1
1
1
1
1
1
1
1
1
1
1
1
1
1
1
1
1
1
1
1
1
1
1
1
1
1
1
1
1
1
1
1
1
1
1
1.15264
2.40235
2.66029
2.65678
2.66524
2.67529
2.68045
2.6785
2.67355
2.67017
2.67137
2.67498
2.68063
2.68569
2.68698
2.68447
2.67813
2.66813
2.65677
2.6455
2.63581
2.62736
2.61817
2.60607
2.59078
2.56784
2.53811
2.50337
2.46124
2.41444
2.3633
1
1
1
1
1
1
1
1
1
1
1
1
1
1
1
1
1
1
1
1
1
1
1
1
1
1
1
1
1
1
1
1
1
1
1
1
1
1
1
1
1
1
1
1
1
1
1
1
1
1
1
1
1
1
1
1
1
1
1
1
1
1
1
1
1
1.00367
2.14254
2.61913
2.64405
2.65555
2.66599
2.67193
2.67076
2.66642
2.66026
2.66002
2.66223
2.66693
2.67206
2.67508
2.67344
2.6679
2.65768
2.64559
2.63277
2.62089
2.61033
2.59999
2.58793
2.57393
2.5507
2.52241
2.48913
2.44853
2.40555
2.35694
1
1
1
1
1
1
1
1
1
1
1
1
1
1
1
1
1
1
1
1
1
1
1
1
1
1
1
1
1
1
1
1
1
1
1
1
1
1
1
1
1
1
1
1
1
1
1
1
1
1
1
1
1
1
1
1
1
1
1
1
1
1
1
1
1
1
1.66502
2.53791
2.64028
2.64239
2.64943
2.65795
2.66111
2.6581
2.65185
2.64966
2.65037
2.65338
2.65791
2.66202
2.66141
2.65715
2.64792
2.63551
2.62206
2.60834
2.59527
2.58278
2.57012
2.55634
2.53449
2.50859
2.47651
2.43868
2.39843
2.35234
1
1
1
1
1
1
1
1
1
1
1
1
1
1
1
1
1
1
1
1
1
1
1
1
1
1
1
1
1
1
1
1
1
1
1
1
1
1
1
1
1
1
1
1
1
1
1
1
1
1
1
1
1
1
1
1
1
1
1
1
1
1
1
1
1
1
1.10646
2.36846
2.63391
2.62994
2.63502
2.64474
2.65136
2.6499
2.64517
2.64047
2.63897
2.64031
2.64293
2.64703
2.64774
2.64482
2.63715
2.62565
2.61269
2.59807
2.58249
2.56703
2.55252
2.53769
2.51826
2.49477
2.46495
2.4315
2.39364
2.35118
1
1
1
1
1
1
1
1
1
1
1
1
1
1
1
1
1
1
1
1
1
1
1
1
1
1
1
1
1
1
1
1
1
1
1
1
1
1
1
1
1
1
1
1
1
1
1
1
1
1
1
1
1
1
1
1
1
1
1
1
1
1
1
1
1
1
1.00185
2.06933
2.58546
2.61577
2.62397
2.63327
2.6409
2.6415
2.63776
2.63189
2.62798
2.62692
2.62807
2.63095
2.63243
2.63033
2.62408
2.61448
2.6032
2.58929
2.57217
2.55407
2.53696
2.52017
2.50219
2.48014
2.45355
2.42415
2.38934
2.35108
1
1
1
1
1
1
1
1
1
1
1
1
1
1
1
1
1
1
1
1
1
1
1
1
1
1
1
1
1
1
1
1
1
1
1
1
1
1
1
1
1
1
1
1
1
1
1
1
1
1
1
1
1
1
1
1
1
1
1
1
1
1
1
1
1
1
1
1.52472
2.48489
2.61016
2.60896
2.61491
2.62418
2.63059
2.62831
2.62331
2.61789
2.61413
2.61507
2.61673
2.61717
2.61515
2.60921
2.60091
2.59175
2.57974
2.56308
2.54395
2.52424
2.50527
2.48668
2.46541
2.44203
2.41576
2.38478
2.35063
1
1
1
1
1
1
1
1
1
1
1
1
1
1
1
1
1
1
1
1
1
1
1
1
1
1
1
1
1
1
1
1
1
1
1
1
1
1
1
1
1
1
1
1
1
1
1
1
1
1
1
1
1
1
1
1
1
1
1
1
1
1
1
1
1
1
1
1.05498
2.29921
2.59497
2.59356
2.59843
2.60832
2.61729
2.61664
2.61315
2.60815
2.6033
2.60217
2.60333
2.60306
2.60042
2.59437
2.58639
2.57854
2.56806
2.5532
2.53518
2.51447
2.49401
2.47375
2.45316
2.43152
2.407
2.37959
2.34906
1
1
1
1
1
1
1
1
1
1
1
1
1
1
1
1
1
1
1
1
1
1
1
1
1
1
1
1
1
1
1
1
1
1
1
1
1
1
1
1
1
1
1
1
1
1
1
1
1
1
1
1
1
1
1
1
1
1
1
1
1
1
1
1
1
1
1
1.00053
1.89613
2.54001
2.58665
2.58807
2.59412
2.60209
2.60376
2.60054
2.59607
2.59196
2.58932
2.58971
2.5891
2.58688
2.58163
2.57388
2.56526
2.55539
2.542
2.52576
2.50632
2.48622
2.46503
2.44377
2.42172
2.39801
2.37289
2.34546
1
1
1
1
1
1
1
1
1
1
1
1
1
1
1
1
1
1
1
1
1
1
1
1
1
1
1
1
1
1
1
1
1
1
1
1
1
1
1
1
1
1
1
1
1
1
1
1
1
1
1
1
1
1
1
1
1
1
1
1
1
1
1
1
1
1
1
1
1.25882
2.38836
2.58122
2.57738
2.58198
2.58875
2.5929
2.59031
2.58601
2.58119
2.57727
2.57526
2.57436
2.57258
2.56905
2.56261
2.55314
2.54344
2.53058
2.51549
2.49811
2.47981
2.45963
2.4382
2.41498
2.39074
2.36602
2.34017
1
1
1
1
1
1
1
1
1
1
1
1
1
1
1
1
1
1
1
1
1
1
1
1
1
1
1
1
1
1
1
1
1
1
1
1
1
1
1
1
1
1
1
1
1
1
1
1
1
1
1
1
1
1
1
1
1
1
1
1
1
1
1
1
1
1
1
1
1.0111
2.11946
2.54162
2.55834
2.56528
2.57365
2.58164
2.58138
2.5779
2.57211
2.56638
2.56192
2.55845
2.55722
2.55523
2.55117
2.54292
2.53303
2.52057
2.50596
2.48997
2.47301
2.45393
2.43279
2.41
2.38615
2.36133
2.33575
1
1
1
1
1
1
1
1
1
1
1
1
1
1
1
1
1
1
1
1
1
1
1
1
1
1
1
1
1
1
1
1
1
1
1
1
1
1
1
1
1
1
1
1
1
1
1
1
1
1
1
1
1
1
1
1
1
1
1
1
1
1
1
1
1
1
1
1
1.00002
1.54031
2.44593
2.55631
2.55093
2.55602
2.56508
2.57248
2.57098
2.56622
2.55823
2.55059
2.54539
2.54174
2.54006
2.53752
2.53189
2.52293
2.51172
2.49763
2.48227
2.46578
2.44742
2.4274
2.40619
2.38348
2.35917
2.33364
1
1
1
1
1
1
1
1
1
1
1
1
1
1
1
1
1
1
1
1
1
1
1
1
1
1
1
1
1
1
1
1
1
1
1
1
1
1
1
1
1
1
1
1
1
1
1
1
1
1
1
1
1
1
1
1
1
1
1
1
1
1
1
1
1
1
1
1
1
1.05778
2.24206
2.53418
2.53626
2.53926
2.5476
2.55861
2.56118
2.558
2.55073
2.54162
2.53425
2.52875
2.52475
2.5221
2.51855
2.51235
2.50333
2.49039
2.47526
2.45837
2.44
2.42113
2.40186
2.38096
2.35795
2.3332
1
1
1
1
1
1
1
1
1
1
1
1
1
1
1
1
1
1
1
1
1
1
1
1
1
1
1
1
1
1
1
1
1
1
1
1
1
1
1
1
1
1
1
1
1
1
1
1
1
1
1
1
1
1
1
1
1
1
1
1
1
1
1
1
1
1
1
1
1
1.00056
1.74104
2.46822
2.53372
2.52669
2.5315
2.53969
2.54661
2.54618
2.54239
2.53489
2.5264
2.51814
2.51182
2.50692
2.50356
2.49931
2.4926
2.48201
2.46773
2.45071
2.43223
2.41425
2.39666
2.37782
2.35661
2.33323
1
1
1
1
1
1
1
1
1
1
1
1
1
1
1
1
1
1
1
1
1
1
1
1
1
1
1
1
1
1
1
1
1
1
1
1
1
1
1
1
1
1
1
1
1
1
1
1
1
1
1
1
1
1
1
1
1
1
1
1
1
1
1
1
1
1
1
1
1
1
1.12369
2.28878
2.52297
2.51539
2.51618
2.52085
2.52875
2.53335
2.53193
2.52679
2.51888
2.50989
2.50085
2.49358
2.48869
2.48465
2.47998
2.47195
2.45941
2.44288
2.42447
2.40697
2.39044
2.37335
2.35418
2.33267
1
1
1
1
1
1
1
1
1
1
1
1
1
1
1
1
1
1
1
1
1
1
1
1
1
1
1
1
1
1
1
1
1
1
1
1
1
1
1
1
1
1
1
1
1
1
1
1
1
1
1
1
1
1
1
1
1
1
1
1
1
1
1
1
1
1
1
1
1
1
1.00249
1.85085
2.46526
2.51255
2.50464
2.50618
2.51096
2.51733
2.51896
2.5166
2.51083
2.50229
2.4925
2.48305
2.47605
2.47075
2.46598
2.45931
2.44849
2.43362
2.41667
2.40006
2.38416
2.36798
2.35032
2.33042
1
1
1
1
1
1
1
1
1
1
1
1
1
1
1
1
1
1
1
1
1
1
1
1
1
1
1
1
1
1
1
1
1
1
1
1
1
1
1
1
1
1
1
1
1
1
1
1
1
1
1
1
1
1
1
1
1
1
1
1
1
1
1
1
1
1
1
1
1
1
1
1.18187
2.29983
2.50445
2.49486
2.49076
2.49325
2.49986
2.50501
2.50462
2.50105
2.49406
2.48469
2.47475
2.4658
2.45857
2.45225
2.44565
2.43624
2.42337
2.40869
2.39355
2.37826
2.3624
2.34528
2.32625
1
1
1
1
1
1
1
1
1
1
1
1
1
1
1
1
1
1
1
1
1
1
1
1
1
1
1
1
1
1
1
1
1
1
1
1
1
1
1
1
1
1
1
1
1
1
1
1
1
1
1
1
1
1
1
1
1
1
1
1
1
1
1
1
1
1
1
1
1
1
1
1.00539
1.8879
2.44612
2.49005
2.48162
2.48038
2.48318
2.48862
2.49099
2.48959
2.48487
2.47692
2.46712
2.45762
2.44874
2.44044
2.43237
2.42317
2.41207
2.39992
2.38681
2.37256
2.35708
2.33997
2.32122
1
1
1
1
1
1
1
1
1
1
1
1
1
1
1
1
1
1
1
1
1
1
1
1
1
1
1
1
1
1
1
1
1
1
1
1
1
1
1
1
1
1
1
1
1
1
1
1
1
1
1
1
1
1
1
1
1
1
1
1
1
1
1
1
1
1
1
1
1
1
1
1.00001
1.20891
2.28775
2.48086
2.47303
2.46711
2.46678
2.47041
2.47576
2.47639
2.4737
2.46781
2.45934
2.44982
2.44003
2.42997
2.42023
2.41062
2.4009
2.39085
2.37934
2.36598
2.35084
2.33403
2.31603
1
1
1
1
1
1
1
1
1
1
1
1
1
1
1
1
1
1
1
1
1
1
1
1
1
1
1
1
1
1
1
1
1
1
1
1
1
1
1
1
1
1
1
1
1
1
1
1
1
1
1
1
1
1
1
1
1
1
1
1
1
1
1
1
1
1
1
1
1
1
1
1
1.00699
1.86575
2.41995
2.46728
2.45797
2.45481
2.45603
2.4591
2.46144
2.46032
2.45698
2.45085
2.44208
2.43178
2.42087
2.4101
2.39997
2.39061
2.38125
2.37061
2.35802
2.34342
2.32739
2.31071
1
1
1
1
1
1
1
1
1
1
1
1
1
1
1
1
1
1
1
1
1
1
1
1
1
1
1
1
1
1
1
1
1
1
1
1
1
1
1
1
1
1
1
1
1
1
1
1
1
1
1
1
1
1
1
1
1
1
1
1
1
1
1
1
1
1
1
1
1
1
1
1
1.00002
1.19714
2.25433
2.45479
2.44803
2.44284
2.44085
2.44194
2.44454
2.44552
2.44412
2.44014
2.43331
2.42373
2.41255
2.40114
2.39055
2.38091
2.37149
2.36117
2.34905
2.33496
2.31977
2.30451
1
1
1
1
1
1
1
1
1
1
1
1
1
1
1
1
1
1
1
1
1
1
1
1
1
1
1
1
1
1
1
1
1
1
1
1
1
1
1
1
1
1
1
1
1
1
1
1
1
1
1
1
1
1
1
1
1
1
1
1
1
1
1
1
1
1
1
1
1
1
1
1
1
1.00601
1.78412
2.3868
2.44284
2.43482
2.43165
2.43029
2.42989
2.43006
2.42941
2.42759
2.42295
2.415
2.40446
2.39316
2.38239
2.37239
2.36247
2.35179
2.33967
2.32598
2.31166
2.29762
1
1
1
1
1
1
1
1
1
1
1
1
1
1
1
1
1
1
1
1
1
1
1
1
1
1
1
1
1
1
1
1
1
1
1
1
1
1
1
1
1
1
1
1
1
1
1
1
1
1
1
1
1
1
1
1
1
1
1
1
1
1
1
1
1
1
1
1
1
1
1
1
1
1.00001
1.15092
2.19632
2.42473
2.42312
2.42081
2.4174
2.4142
2.41403
2.41398
2.41301
2.41014
2.40435
2.39597
2.38591
2.37517
2.36441
2.35369
2.3426
2.33061
2.31752
2.304
2.2906
1
1
1
1
1
1
1
1
1
1
1
1
1
1
1
1
1
1
1
1
1
1
1
1
1
1
1
1
1
1
1
1
1
1
1
1
1
1
1
1
1
1
1
1
1
1
1
1
1
1
1
1
1
1
1
1
1
1
1
1
1
1
1
1
1
1
1
1
1
1
1
1
1
1
1.00344
1.64296
2.33408
2.42135
2.4149
2.40987
2.40512
2.40143
2.39909
2.39733
2.39528
2.39175
2.38582
2.37757
2.36767
2.35695
2.34591
2.33443
2.32223
2.30943
2.29647
2.28353
1
1
1
1
1
1
1
1
1
1
1
1
1
1
1
1
1
1
1
1
1
1
1
1
1
1
1
1
1
1
1
1
1
1
1
1
1
1
1
1
1
1
1
1
1
1
1
1
1
1
1
1
1
1
1
1
1
1
1
1
1
1
1
1
1
1
1
1
1
1
1
1
1
1
1.00001
1.08995
2.10191
2.38688
2.40175
2.39856
2.39278
2.38728
2.38432
2.3826
2.38074
2.37803
2.3737
2.3674
2.35922
2.34935
2.33831
2.32663
2.31452
2.30226
2.28992
2.27727
1
1
1
1
1
1
1
1
1
1
1
1
1
1
1
1
1
1
1
1
1
1
1
1
1
1
1
1
1
1
1
1
1
1
1
1
1
1
1
1
1
1
1
1
1
1
1
1
1
1
1
1
1
1
1
1
1
1
1
1
1
1
1
1
1
1
1
1
1
1
1
1
1
1
1
1.00126
1.47112
2.26629
2.39625
2.39011
2.38391
2.37773
2.37299
2.36906
2.36571
2.36274
2.35946
2.35474
2.34834
2.34018
2.33038
2.31949
2.30783
2.29587
2.2837
2.27107
1
1
1
1
1
1
1
1
1
1
1
1
1
1
1
1
1
1
1
1
1
1
1
1
1
1
1
1
1
1
1
1
1
1
1
1
1
1
1
1
1
1
1
1
1
1
1
1
1
1
1
1
1
1
1
1
1
1
1
1
1
1
1
1
1
1
1
1
1
1
1
1
1
1
1
1
1.04309
1.94392
2.33835
2.37405
2.36971
2.36622
2.36204
2.35837
2.35439
2.34992
2.34561
2.34109
2.33583
2.32946
2.32149
2.31187
2.30101
2.28963
2.27794
2.26555
1
1
1
1
1
1
1
1
1
1
1
1
1
1
1
1
1
1
1
1
1
1
1
1
1
1
1
1
1
1
1
1
1
1
1
1
1
1
1
1
1
1
1
1
1
1
1
1
1
1
1
1
1
1
1
1
1
1
1
1
1
1
1
1
1
1
1
1
1
1
1
1
1
1
1
1
1.00038
1.29391
2.17761
2.364
2.36103
2.3587
2.35471
2.34873
2.34174
2.33556
2.3306
2.32673
2.32281
2.31784
2.31149
2.30348
2.29398
2.2834
2.27199
2.25963
1
1
1
1
1
1
1
1
1
1
1
1
1
1
1
1
1
1
1
1
1
1
1
1
1
1
1
1
1
1
1
1
1
1
1
1
1
1
1
1
1
1
1
1
1
1
1
1
1
1
1
1
1
1
1
1
1
1
1
1
1
1
1
1
1
1
1
1
1
1
1
1
1
1
1
1
1
1.01414
1.69318
2.27604
2.35246
2.34891
2.34681
2.34158
2.33379
2.32635
2.31995
2.31435
2.30918
2.30444
2.29943
2.29305
2.28515
2.27593
2.26547
2.25373
1
1
1
1
1
1
1
1
1
1
1
1
1
1
1
1
1
1
1
1
1
1
1
1
1
1
1
1
1
1
1
1
1
1
1
1
1
1
1
1
1
1
1
1
1
1
1
1
1
1
1
1
1
1
1
1
1
1
1
1
1
1
1
1
1
1
1
1
1
1
1
1
1
1
1
1
1
1.00007
1.12278
2.0406
2.31794
2.33739
2.33492
2.33118
2.32436
2.3162
2.30887
2.30286
2.29746
2.29236
2.28734
2.28149
2.2747
2.2669
2.25784
2.24724
1
1
1
1
1
1
1
1
1
1
1
1
1
1
1
1
1
1
1
1
1
1
1
1
1
1
1
1
1
1
1
1
1
1
1
1
1
1
1
1
1
1
1
1
1
1
1
1
1
1
1
1
1
1
1
1
1
1
1
1
1
1
1
1
1
1
1
1
1
1
1
1
1
1
1
1
1
1
1.0025
1.44196
2.18565
2.33046
2.32424
2.32091
2.31597
2.30868
2.30046
2.29286
2.28578
2.27938
2.2739
2.26864
2.26305
2.25654
2.24878
2.2397
1
1
1
1
1
1
1
1
1
1
1
1
1
1
1
1
1
1
1
1
1
1
1
1
1
1
1
1
1
1
1
1
1
1
1
1
1
1
1
1
1
1
1
1
1
1
1
1
1
1
1
1
1
1
1
1
1
1
1
1
1
1
1
1
1
1
1
1
1
1
1
1
1
1
1
1
1
1
1.00001
1.03814
1.78412
2.25527
2.31231
2.30465
2.30296
2.29986
2.29396
2.28666
2.2789
2.27073
2.2632
2.25713
2.25172
2.24568
2.23858
2.23072
1
1
1
1
1
1
1
1
1
1
1
1
1
1
1
1
1
1
1
1
1
1
1
1
1
1
1
1
1
1
1
1
1
1
1
1
1
1
1
1
1
1
1
1
1
1
1
1
1
1
1
1
1
1
1
1
1
1
1
1
1
1
1
1
1
1
1
1
1
1
1
1
1
1
1
1
1
1
1
1.00035
1.18554
2.03741
2.28183
2.29148
2.28981
2.28818
2.28417
2.27761
2.26934
2.26026
2.25253
2.24682
2.24169
2.23591
2.22922
2.22189
1
1
1
1
1
1
1
1
1
1
1
1
1
1
1
1
1
1
1
1
1
1
1
1
1
1
1
1
1
1
1
1
1
1
1
1
1
1
1
1
1
1
1
1
1
1
1
1
1
1
1
1
1
1
1
1
1
1
1
1
1
1
1
1
1
1
1
1
1
1
1
1
1
1
1
1
1
1
1
1
1.00569
1.47204
2.15109
2.28571
2.28058
2.27856
2.27473
2.26874
2.26049
2.25202
2.2446
2.23822
2.23219
2.22594
2.21913
2.21179
1
1
1
1
1
1
1
1
1
1
1
1
1
1
1
1
1
1
1
1
1
1
1
1
1
1
1
1
1
1
1
1
1
1
1
1
1
1
1
1
1
1
1
1
1
1
1
1
1
1
1
1
1
1
1
1
1
1
1
1
1
1
1
1
1
1
1
1
1
1
1
1
1
1
1
1
1
1
1
1
1.00002
1.04627
1.75632
2.21712
2.26944
2.2619
2.26085
2.25765
2.25291
2.24772
2.24181
2.23459
2.22663
2.21836
2.21007
2.20191
1
1
1
1
1
1
1
1
1
1
1
1
1
1
1
1
1
1
1
1
1
1
1
1
1
1
1
1
1
1
1
1
1
1
1
1
1
1
1
1
1
1
1
1
1
1
1
1
1
1
1
1
1
1
1
1
1
1
1
1
1
1
1
1
1
1
1
1
1
1
1
1
1
1
1
1
1
1
1
1
1
1.0005
1.17733
1.97686
2.23391
2.25092
2.24557
2.24337
2.24169
2.23931
2.23519
2.22891
2.2209
2.21207
2.20334
2.19473
1
1
1
1
1
1
1
1
1
1
1
1
1
1
1
1
1
1
1
1
1
1
1
1
1
1
1
1
1
1
1
1
1
1
1
1
1
1
1
1
1
1
1
1
1
1
1
1
1
1
1
1
1
1
1
1
1
1
1
1
1
1
1
1
1
1
1
1
1
1
1
1
1
1
1
1
1
1
1
1
1
1
1.00538
1.40568
2.0869
2.24285
2.23709
2.23282
2.23018
2.22763
2.22405
2.21899
2.21216
2.20417
2.19587
2.18721
1
1
1
1
1
1
1
1
1
1
1
1
1
1
1
1
1
1
1
1
1
1
1
1
1
1
1
1
1
1
1
1
1
1
1
1
1
1
1
1
1
1
1
1
1
1
1
1
1
1
1
1
1
1
1
1
1
1
1
1
1
1
1
1
1
1
1
1
1
1
1
1
1
1
1
1
1
1
1
1
1
1
1.00002
1.03265
1.64552
2.15607
2.22995
2.22229
2.22018
2.21738
2.2136
2.20869
2.2029
2.19641
2.18887
2.18021
1
1
1
1
1
1
1
1
1
1
1
1
1
1
1
1
1
1
1
1
1
1
1
1
1
1
1
1
1
1
1
1
1
1
1
1
1
1
1
1
1
1
1
1
1
1
1
1
1
1
1
1
1
1
1
1
1
1
1
1
1
1
1
1
1
1
1
1
1
1
1
1
1
1
1
1
1
1
1
1
1
1
1
1.00031
1.11594
1.84119
2.18132
2.21657
2.20575
2.2027
2.19983
2.19635
2.19248
2.18793
2.18212
2.1749
1
1
1
1
1
1
1
1
1
1