# Probe 0 (5.5 0.5 0)
# Probe 1 (5.5 -0.5 0)
#       Probe             0             1
#        Time
            0             0             0
          0.1   -0.00166025   -0.00166025
          0.2  -5.20261e-05  -5.20262e-05
          0.3   0.000489497   0.000489499
          0.4   0.000756786   0.000756786
          0.5   0.000909535   0.000909529
          0.6    0.00101111    0.00101111
          0.7    0.00109406    0.00109407
          0.8    0.00117765    0.00117765
          0.9    0.00127137    0.00127137
            1    0.00138211    0.00138211
          1.1    0.00151324    0.00151324
          1.2    0.00166763    0.00166763
          1.3    0.00184203    0.00184203
          1.4    0.00203817    0.00203817
          1.5     0.0022525     0.0022525
          1.6    0.00248627    0.00248626
          1.7    0.00273444    0.00273443
          1.8    0.00299771    0.00299772
          1.9    0.00327177    0.00327177
            2    0.00355876    0.00355875
          2.1    0.00385374    0.00385375
          2.2    0.00415946    0.00415947
          2.3    0.00447342    0.00447343
          2.4    0.00479762    0.00479763
          2.5    0.00512549    0.00512549
          2.6     0.0054597    0.00545969
          2.7    0.00580178    0.00580179
          2.8    0.00614996    0.00614995
          2.9    0.00650512    0.00650513
            3    0.00686709    0.00686708
          3.1    0.00723415    0.00723414
          3.2    0.00761025    0.00761024
          3.3    0.00799251    0.00799252
          3.4    0.00838357    0.00838356
          3.5    0.00878139    0.00878138
          3.6    0.00918898    0.00918899
          3.7    0.00960426    0.00960425
          3.8     0.0100269     0.0100269
          3.9     0.0104609     0.0104609
            4     0.0109035     0.0109035
          4.1     0.0113549     0.0113549
          4.2     0.0118164     0.0118164
          4.3     0.0122885     0.0122884
          4.4     0.0127698     0.0127698
          4.5     0.0132699     0.0132699
          4.6     0.0137627     0.0137627
          4.7     0.0142745     0.0142745
          4.8     0.0147955     0.0147955
          4.9     0.0153269     0.0153269
            5      0.015867      0.015867
          5.1     0.0164175     0.0164175
          5.2     0.0169767     0.0169767
          5.3     0.0175439     0.0175439
          5.4     0.0181181     0.0181181
          5.5     0.0186999     0.0186999
          5.6     0.0192879     0.0192879
          5.7       0.01988       0.01988
          5.8     0.0204775     0.0204775
          5.9      0.021077      0.021077
            6     0.0216802     0.0216802
          6.1     0.0222862     0.0222862
          6.2     0.0228933     0.0228933
          6.3     0.0235008     0.0235008
          6.4     0.0241114     0.0241114
          6.5     0.0247236     0.0247236
          6.6     0.0253359     0.0253359
          6.7     0.0259498     0.0259498
          6.8     0.0265644     0.0265644
          6.9      0.027181      0.027181
            7     0.0278002     0.0278002
          7.1     0.0284227     0.0284227
          7.2      0.029044     0.0290434
          7.3     0.0296707     0.0296707
          7.4     0.0303011     0.0303011
          7.5     0.0309315     0.0309315
          7.6     0.0315667     0.0315667
          7.7     0.0322068     0.0322068
          7.8     0.0328475     0.0328475
          7.9     0.0334932     0.0334932
            8     0.0341447     0.0341446
          8.1     0.0347993     0.0347993
          8.2     0.0354576     0.0354576
          8.3     0.0361223     0.0361223
          8.4       0.03679       0.03679
          8.5     0.0374622     0.0374622
          8.6     0.0381361     0.0381361
          8.7     0.0388129     0.0388129
          8.8     0.0394867     0.0394867
          8.9     0.0401579     0.0401579
            9     0.0408217     0.0408217
          9.1     0.0414759     0.0414759
          9.2     0.0421182     0.0421182
          9.3     0.0427429     0.0427429
          9.4     0.0433513     0.0433513
          9.5     0.0439419     0.0439419
          9.6     0.0445152     0.0445152
          9.7     0.0450707     0.0450707
          9.8     0.0456104     0.0456105
          9.9     0.0461358     0.0461358
           10     0.0466486     0.0466486
         10.1     0.0471484     0.0471484
         10.2     0.0476369     0.0476369
         10.3     0.0481123     0.0481123
         10.4     0.0485755     0.0485755
         10.5     0.0490241     0.0490241
         10.6     0.0494578     0.0494578
         10.7     0.0498759     0.0498759
         10.8     0.0502788     0.0502787
         10.9     0.0506627     0.0506627
           11     0.0510317     0.0510317
         11.1     0.0513807     0.0513807
         11.2     0.0517109     0.0517109
         11.3     0.0520229     0.0520229
         11.4     0.0523158     0.0523158
         11.5     0.0525833     0.0525833
         11.6      0.052831      0.052831
         11.7     0.0530566     0.0530566
         11.8     0.0532571     0.0532571
         11.9     0.0534345     0.0534344
           12      0.053585      0.053585
         12.1     0.0537098     0.0537097
         12.2     0.0538077     0.0538076
         12.3     0.0538781     0.0538781
         12.4     0.0539183     0.0539183
         12.5     0.0539299     0.0539298
         12.6     0.0539114     0.0539114
         12.7     0.0538611     0.0538611
         12.8     0.0537779     0.0537779
         12.9     0.0536632     0.0536632
           13     0.0535141     0.0535141
         13.1     0.0533305     0.0533305
         13.2     0.0531117     0.0531117
         13.3     0.0528547     0.0528547
         13.4     0.0525623     0.0525623
         13.5     0.0522321     0.0522321
         13.6     0.0518642     0.0518642
         13.7     0.0514563     0.0514562
         13.8      0.051009     0.0510089
         13.9     0.0505212     0.0505211
           14     0.0499927     0.0499927
         14.1     0.0494243     0.0494243
         14.2     0.0488112     0.0488112
         14.3     0.0481574     0.0481574
         14.4      0.047459      0.047459
         14.5     0.0467189     0.0467189
         14.6     0.0459363     0.0459363
         14.7     0.0451063     0.0451063
         14.8     0.0442331     0.0442332
         14.9     0.0433143     0.0433144
           15     0.0423523     0.0423523
         15.1     0.0413443     0.0413444
         15.2     0.0402898     0.0402899
         15.3     0.0391912     0.0391913
         15.4     0.0380469      0.038047
         15.5     0.0368571     0.0368573
         15.6     0.0356221     0.0356223
         15.7     0.0343421     0.0343423
         15.8     0.0330165     0.0330167
         15.9     0.0316481     0.0316484
           16     0.0302348     0.0302351
         16.1     0.0287785     0.0287788
         16.2     0.0272789     0.0272793
         16.3     0.0257373     0.0257377
         16.4     0.0241536      0.024154
         16.5     0.0225286     0.0225289
         16.6      0.020863     0.0208634
         16.7      0.019159     0.0191594
         16.8     0.0174149     0.0174153
         16.9     0.0156327     0.0156331
           17     0.0138167     0.0138171
         17.1     0.0119616      0.011962
         17.2     0.0100711     0.0100714
         17.3    0.00814821    0.00814855
         17.4     0.0061926    0.00619291
         17.5     0.0042042    0.00420451
         17.6    0.00219112     0.0021913
         17.7   0.000140654     0.0001409
         17.8     -0.001934   -0.00193384
         17.9   -0.00403474   -0.00403464
           18   -0.00616114   -0.00616107
         18.1   -0.00831179   -0.00831178
         18.2    -0.0104801    -0.0104801
         18.3    -0.0126716    -0.0126718
         18.4    -0.0148795    -0.0148797
         18.5    -0.0171088    -0.0171091
         18.6    -0.0193519    -0.0193523
         18.7    -0.0216104    -0.0216109
         18.8    -0.0238783    -0.0238788
         18.9    -0.0261585    -0.0261592
           19     -0.028448    -0.0284487
         19.1     -0.030745    -0.0307459
         19.2    -0.0330474    -0.0330484
         19.3    -0.0353551    -0.0353562
         19.4    -0.0376645    -0.0376656
         19.5    -0.0399726    -0.0399739
         19.6    -0.0422856    -0.0422869
         19.7    -0.0445924    -0.0445938
         19.8    -0.0468966     -0.046898
         19.9    -0.0491943    -0.0491958
           20    -0.0514856    -0.0514872
         20.1    -0.0537675    -0.0537691
         20.2    -0.0560406    -0.0560422
         20.3    -0.0583022    -0.0583038
         20.4    -0.0605496    -0.0605513
         20.5    -0.0627831    -0.0627847
         20.6     -0.065001    -0.0650025
         20.7    -0.0672009    -0.0672024
         20.8    -0.0693831    -0.0693845
         20.9    -0.0715463    -0.0715477
           21    -0.0736863    -0.0736876
         21.1    -0.0758063    -0.0758074
         21.2    -0.0779026    -0.0779036
         21.3    -0.0799744    -0.0799753
         21.4    -0.0820195    -0.0820207
         21.5    -0.0840404    -0.0840408
         21.6    -0.0860325    -0.0860328
         21.7    -0.0879984    -0.0879985
         21.8    -0.0899329    -0.0899327
         21.9    -0.0918365    -0.0918359
           22    -0.0937129    -0.0937121
         22.1    -0.0955565    -0.0955554
         22.2    -0.0973672    -0.0973659
         22.3    -0.0991465    -0.0991449
         22.4     -0.100892      -0.10089
         22.5     -0.102605     -0.102603
         22.6     -0.104283     -0.104281
         22.7     -0.105926     -0.105923
         22.8     -0.107534     -0.107531
         22.9     -0.109108     -0.109105
           23     -0.110646     -0.110642
         23.1     -0.112148     -0.112144
         23.2     -0.113614      -0.11361
         23.3     -0.115045      -0.11504
         23.4     -0.116439     -0.116435
         23.5     -0.117797     -0.117792
         23.6     -0.119119     -0.119115
         23.7     -0.120405       -0.1204
         23.8     -0.121655      -0.12165
         23.9      -0.12287     -0.122865
           24     -0.124047     -0.124042
         24.1     -0.125189     -0.125185
         24.2     -0.126296     -0.126292
         24.3     -0.127368     -0.127364
         24.4     -0.128405     -0.128401
         24.5     -0.129407     -0.129403
         24.6     -0.130375     -0.130372
         24.7      -0.13131     -0.131307
         24.8      -0.13221     -0.132207
         24.9     -0.133078     -0.133076
           25     -0.133913     -0.133911
         25.1     -0.134714     -0.134714
         25.2     -0.135486     -0.135486
         25.3     -0.136226     -0.136226
         25.4     -0.136935     -0.136936
         25.5     -0.137613     -0.137615
         25.6     -0.138262     -0.138264
         25.7     -0.138883     -0.138886
         25.8     -0.139475     -0.139479
         25.9     -0.140038     -0.140043
           26     -0.140577     -0.140583
         26.1     -0.141085     -0.141091
         26.2     -0.141569     -0.141576
         26.3     -0.142027     -0.142035
         26.4     -0.142461     -0.142469
         26.5     -0.142871     -0.142879
         26.6     -0.143257     -0.143266
         26.7      -0.14362     -0.143629
         26.8     -0.143961     -0.143971
         26.9      -0.14428      -0.14429
           27     -0.144577     -0.144588
         27.1     -0.144856     -0.144867
         27.2     -0.145115     -0.145126
         27.3     -0.145354     -0.145365
         27.4     -0.145575     -0.145586
         27.5     -0.145778     -0.145789
         27.6     -0.145964     -0.145975
         27.7     -0.146133     -0.146143
         27.8     -0.146287     -0.146297
         27.9     -0.146425     -0.146434
           28     -0.146548     -0.146557
         28.1     -0.146658     -0.146666
         28.2     -0.146753      -0.14676
         28.3     -0.146836     -0.146842
         28.4     -0.146906     -0.146911
         28.5     -0.146965     -0.146968
         28.6     -0.147012     -0.147014
         28.7     -0.147047     -0.147049
         28.8     -0.147073     -0.147073
         28.9     -0.147088     -0.147087
           29     -0.147095     -0.147092
         29.1     -0.147092     -0.147088
         29.2     -0.147081     -0.147075
         29.3     -0.147061     -0.147054
         29.4     -0.147034     -0.147025
         29.5        -0.147     -0.146989
         29.6     -0.146959     -0.146947
         29.7     -0.146911     -0.146898
         29.8     -0.146858     -0.146843
         29.9     -0.146798     -0.146782
           30     -0.146733     -0.146716
         30.1     -0.146664     -0.146645
         30.2     -0.146589     -0.146569
         30.3      -0.14651     -0.146489
         30.4     -0.146427     -0.146405
         30.5     -0.146339     -0.146317
         30.6     -0.146249     -0.146226
         30.7     -0.146155     -0.146131
         30.8     -0.146058     -0.146034
         30.9     -0.145958     -0.145934
           31     -0.145855     -0.145832
         31.1      -0.14575     -0.145727
         31.2     -0.145643     -0.145621
         31.3     -0.145534     -0.145512
         31.4     -0.145423     -0.145402
         31.5      -0.14531     -0.145291
         31.6     -0.145196     -0.145178
         31.7     -0.145081     -0.145065
         31.8     -0.144964      -0.14495
         31.9     -0.144847     -0.144835
           32     -0.144728     -0.144718
         32.1     -0.144609     -0.144602
         32.2      -0.14449     -0.144485
         32.3      -0.14437     -0.144367
         32.4     -0.144249     -0.144249
         32.5     -0.144128     -0.144131
         32.6     -0.144007     -0.144013
         32.7     -0.143886     -0.143895
         32.8     -0.143765     -0.143777
         32.9     -0.143644     -0.143659
           33     -0.143523     -0.143541
         33.1     -0.143402     -0.143424
         33.2     -0.143282     -0.143307
         33.3     -0.143162      -0.14319
         33.4     -0.143042     -0.143073
         33.5     -0.142923     -0.142957
         33.6     -0.142805     -0.142841
         33.7     -0.142687     -0.142725
         33.8     -0.142575     -0.142615
         33.9     -0.142458       -0.1425
           34     -0.142342     -0.142386
         34.1     -0.142227     -0.142272
         34.2     -0.142112     -0.142158
         34.3     -0.141998     -0.142045
         34.4     -0.141886     -0.141933
         34.5     -0.141774     -0.141821
         34.6     -0.141662     -0.141709
         34.7     -0.141552     -0.141598
         34.8     -0.141443     -0.141487
         34.9     -0.141334     -0.141377
           35     -0.141227     -0.141268
         35.1      -0.14112     -0.141159
         35.2     -0.141015     -0.141051
         35.3      -0.14091     -0.140943
         35.4     -0.140807     -0.140836
         35.5     -0.140705      -0.14073
         35.6     -0.140604     -0.140625
         35.7     -0.140503      -0.14052
         35.8     -0.140404     -0.140415
         35.9     -0.140306     -0.140312
           36     -0.140208     -0.140209
         36.1     -0.140111     -0.140106
         36.2     -0.140016     -0.140005
         36.3     -0.139921     -0.139904
         36.4     -0.139827     -0.139804
         36.5     -0.139733     -0.139705
         36.6     -0.139641     -0.139606
         36.7      -0.13955     -0.139509
         36.8     -0.139459     -0.139412
         36.9     -0.139369     -0.139316
           37     -0.139279     -0.139221
         37.1     -0.139191     -0.139127
         37.2     -0.139103     -0.139034
         37.3     -0.139015     -0.138942
         37.4     -0.138929     -0.138851
         37.5     -0.138843     -0.138762
         37.6     -0.138757     -0.138673
         37.7     -0.138673     -0.138585
         37.8     -0.138588     -0.138499
         37.9     -0.138504     -0.138413
           38     -0.138421     -0.138329
         38.1     -0.138338     -0.138246
         38.2     -0.138256     -0.138165
         38.3     -0.138174     -0.138084
         38.4     -0.138093     -0.138005
         38.5     -0.138013     -0.137927
         38.6     -0.137932      -0.13785
         38.7     -0.137852     -0.137775
         38.8     -0.137773       -0.1377
         38.9     -0.137695     -0.137627
           39     -0.137616     -0.137556
         39.1     -0.137538     -0.137485
         39.2     -0.137461     -0.137416
         39.3     -0.137384     -0.137348
         39.4     -0.137308     -0.137281
         39.5     -0.137233     -0.137215
         39.6     -0.137158     -0.137151
         39.7     -0.137084     -0.137087
         39.8     -0.137011     -0.137025
         39.9     -0.136938     -0.136963
           40     -0.136866     -0.136903
         40.1     -0.136795     -0.136843
         40.2     -0.136724     -0.136785
         40.3     -0.136655     -0.136727
         40.4     -0.136587      -0.13667
         40.5     -0.136519     -0.136614
         40.6     -0.136452     -0.136558
         40.7     -0.136387     -0.136503
         40.8     -0.136323     -0.136449
         40.9      -0.13626     -0.136396
           41     -0.136198     -0.136342
         41.1     -0.136137      -0.13629
         41.2     -0.136078     -0.136237
         41.3      -0.13602     -0.136185
         41.4     -0.135963     -0.136133
         41.5     -0.135908     -0.136082
         41.6     -0.135854      -0.13603
         41.7     -0.135801     -0.135979
         41.8      -0.13575     -0.135928
         41.9     -0.135701     -0.135877
           42     -0.135653     -0.135826
         42.1     -0.135606     -0.135775
         42.2     -0.135561     -0.135724
         42.3     -0.135517     -0.135674
         42.4     -0.135475     -0.135623
         42.5     -0.135434     -0.135572
         42.6     -0.135395     -0.135521
         42.7     -0.135357      -0.13547
         42.8      -0.13532     -0.135419
         42.9     -0.135285     -0.135368
           43     -0.135251     -0.135317
         43.1     -0.135218     -0.135267
         43.2     -0.135186     -0.135216
         43.3     -0.135156     -0.135166
         43.4     -0.135126     -0.135116
         43.5     -0.135098     -0.135066
         43.6      -0.13507     -0.135016
         43.7     -0.135043     -0.134967
         43.8     -0.135016     -0.134918
         43.9      -0.13499      -0.13487
           44     -0.134965     -0.134823
         44.1      -0.13494     -0.134776
         44.2     -0.134916      -0.13473
         44.3     -0.134891     -0.134685
         44.4     -0.134867      -0.13464
         44.5     -0.134842     -0.134597
         44.6     -0.134818     -0.134555
         44.7     -0.134793     -0.134514
         44.8     -0.134768     -0.134474
         44.9     -0.134742     -0.134435
           45     -0.134716     -0.134398
         45.1     -0.134689     -0.134362
         45.2     -0.134662     -0.134328
         45.3     -0.134634     -0.134295
         45.4     -0.134605     -0.134264
         45.5     -0.134575     -0.134235
         45.6     -0.134545     -0.134207
         45.7     -0.134513     -0.134181
         45.8      -0.13448     -0.134157
         45.9     -0.134446     -0.134135
           46     -0.134412     -0.134114
         46.1     -0.134376     -0.134095
         46.2     -0.134339     -0.134077
         46.3     -0.134301     -0.134062
         46.4     -0.134262     -0.134048
         46.5     -0.134222     -0.134035
         46.6     -0.134181     -0.134024
         46.7     -0.134139     -0.134014
         46.8     -0.134097     -0.134006
         46.9     -0.134054     -0.133999
           47      -0.13401     -0.133993
         47.1     -0.133966     -0.133988
         47.2     -0.133921     -0.133984
         47.3     -0.133876      -0.13398
         47.4     -0.133831     -0.133977
         47.5     -0.133786     -0.133975
         47.6     -0.133741     -0.133972
         47.7     -0.133697      -0.13397
         47.8     -0.133653     -0.133968
         47.9      -0.13361     -0.133965
           48     -0.133567     -0.133963
         48.1     -0.133526     -0.133959
         48.2     -0.133486     -0.133955
         48.3     -0.133447     -0.133949
         48.4     -0.133409     -0.133943
         48.5     -0.133374     -0.133935
         48.6      -0.13334     -0.133926
         48.7     -0.133308     -0.133915
         48.8     -0.133278     -0.133902
         48.9      -0.13325     -0.133887
           49     -0.133225     -0.133871
         49.1     -0.133202     -0.133852
         49.2     -0.133182     -0.133831
         49.3     -0.133164     -0.133807
         49.4     -0.133149     -0.133781
         49.5     -0.133137     -0.133753
         49.6     -0.133127     -0.133722
         49.7      -0.13312     -0.133689
         49.8     -0.133116     -0.133653
         49.9     -0.133115     -0.133615
           50     -0.133116     -0.133574
         50.1      -0.13312     -0.133531
         50.2     -0.133127     -0.133485
         50.3     -0.133136     -0.133438
         50.4     -0.133147     -0.133388
         50.5      -0.13316     -0.133336
         50.6     -0.133175     -0.133283
         50.7     -0.133192     -0.133229
         50.8      -0.13321     -0.133173
         50.9      -0.13323     -0.133115
           51     -0.133251     -0.133058
         51.1     -0.133272     -0.132999
         51.2     -0.133294     -0.132941
         51.3     -0.133316     -0.132882
         51.4     -0.133338     -0.132823
         51.5      -0.13336     -0.132766
         51.6      -0.13338     -0.132709
         51.7       -0.1334     -0.132653
         51.8     -0.133418       -0.1326
         51.9     -0.133435     -0.132548
           52     -0.133449     -0.132498
         52.1     -0.133461     -0.132451
         52.2     -0.133471     -0.132407
         52.3     -0.133477     -0.132366
         52.4      -0.13348     -0.132328
         52.5     -0.133479     -0.132294
         52.6     -0.133475     -0.132264
         52.7     -0.133466     -0.132239
         52.8     -0.133454     -0.132218
         52.9     -0.132707     -0.131504
           53     -0.133415     -0.132189
         53.1     -0.133388     -0.132182
         53.2     -0.133357      -0.13218
         53.3     -0.133321     -0.132183
         53.4     -0.133279     -0.132191
         53.5     -0.133233     -0.132205
         53.6     -0.133182     -0.132223
         53.7     -0.133126     -0.132246
         53.8     -0.133066     -0.132274
         53.9     -0.133001     -0.132306
           54     -0.132932     -0.132343
         54.1     -0.132859     -0.132385
         54.2     -0.132782     -0.132429
         54.3     -0.132702     -0.132478
         54.4     -0.132618      -0.13253
         54.5     -0.132532     -0.132584
         54.6     -0.132445     -0.132641
         54.7     -0.132355       -0.1327
         54.8     -0.132264      -0.13276
         54.9     -0.132172     -0.132821
           55      -0.13208     -0.132883
         55.1     -0.131989     -0.132944
         55.2     -0.131899     -0.133004
         55.3     -0.131811     -0.133063
         55.4     -0.131724      -0.13312
         55.5     -0.131641     -0.133174
         55.6     -0.131561     -0.133225
         55.7     -0.131485     -0.133272
         55.8     -0.131414     -0.133314
         55.9     -0.131348     -0.133351
           56     -0.131287     -0.133383
         56.1     -0.131234     -0.133408
         56.2     -0.131187     -0.133426
         56.3     -0.131147     -0.133438
         56.4     -0.131116     -0.133441
         56.5     -0.131092     -0.133437
         56.6     -0.131078     -0.133424
         56.7     -0.131071     -0.133401
         56.8     -0.131075     -0.133371
         56.9     -0.131086     -0.133331
           57     -0.131109     -0.133282
         57.1      -0.13114     -0.133222
         57.2     -0.131181     -0.133154
         57.3     -0.131231     -0.133077
         57.4      -0.13129      -0.13299
         57.5     -0.131359     -0.132894
         57.6     -0.131436     -0.132791
         57.7     -0.131522     -0.132678
         57.8     -0.131615     -0.132558
         57.9     -0.131716     -0.132431
           58     -0.131824     -0.132297
         58.1     -0.131938     -0.132157
         58.2     -0.132057     -0.132012
         58.3      -0.13218     -0.131863
         58.4     -0.132308     -0.131711
         58.5     -0.132438     -0.131556
         58.6      -0.13257     -0.131399
         58.7     -0.132703     -0.131242
         58.8     -0.132836     -0.131085
         58.9     -0.132967     -0.130931
           59     -0.133095     -0.130779
         59.1      -0.13322      -0.13063
         59.2      -0.13334     -0.130488
         59.3     -0.133454     -0.130351
         59.4     -0.133561     -0.130222
         59.5     -0.133659     -0.130101
         59.6     -0.133748      -0.12999
         59.7     -0.133826      -0.12989
         59.8     -0.133892     -0.129801
         59.9     -0.133945     -0.129726
           60     -0.133986     -0.129663
         60.1     -0.134011     -0.129615
         60.2     -0.134021     -0.129584
         60.3     -0.134015     -0.129567
         60.4     -0.133993     -0.129567
         60.5     -0.133953     -0.129584
         60.6     -0.133896     -0.129619
         60.7     -0.133821     -0.129671
         60.8      -0.13373     -0.129743
         60.9     -0.133617     -0.129829
           61      -0.13349     -0.129933
         61.1     -0.133343     -0.130057
         61.2      -0.13318     -0.130197
         61.3     -0.133002     -0.130353
         61.4     -0.132807     -0.130525
         61.5     -0.132596     -0.130713
         61.6     -0.132373     -0.130914
         61.7     -0.132136     -0.131129
         61.8     -0.131889     -0.131356
         61.9      -0.13163     -0.131593
           62     -0.131365     -0.131839
         62.1     -0.131091     -0.132093
         62.2     -0.130812     -0.132352
         62.3     -0.130531     -0.132615
         62.4     -0.130248      -0.13288
         62.5     -0.129966     -0.133145
         62.6     -0.129686     -0.133408
         62.7     -0.129411     -0.133667
         62.8     -0.129143     -0.133919
         62.9     -0.128885     -0.134162
           63     -0.128638     -0.134394
         63.1     -0.128406     -0.134612
         63.2     -0.128186     -0.134818
         63.3     -0.127984     -0.135005
         63.4     -0.127804     -0.135171
         63.5     -0.127643     -0.135317
         63.6     -0.127509     -0.135437
         63.7     -0.127399     -0.135532
         63.8     -0.127313     -0.135602
         63.9     -0.127258      -0.13564
           64     -0.127231     -0.135651
         64.1     -0.127236     -0.135628
         64.2     -0.127271     -0.135574
         64.3     -0.127339     -0.135486
         64.4     -0.127441     -0.135364
         64.5     -0.127574     -0.135211
         64.6     -0.127743      -0.13502
         64.7     -0.127945     -0.134796
         64.8     -0.128178      -0.13454
         64.9     -0.128442     -0.134253
           65     -0.128742     -0.133931
         65.1      -0.12907     -0.133583
         65.2     -0.129431     -0.133197
         65.3     -0.129813     -0.132795
         65.4     -0.130222     -0.132365
         65.5     -0.130656     -0.131911
         65.6     -0.131109     -0.131439
         65.7     -0.131581     -0.130952
         65.8     -0.132068     -0.130449
         65.9     -0.132567     -0.129936
           66     -0.133074     -0.129417
         66.1     -0.133587     -0.128894
         66.2       -0.1341     -0.128372
         66.3     -0.134611     -0.127857
         66.4     -0.135117     -0.127345
         66.5      -0.13561      -0.12685
         66.6     -0.136546     -0.125911
         66.7     -0.136546     -0.125911
         66.8     -0.136983     -0.125473
         66.9     -0.137388      -0.12507
           67     -0.137764     -0.124694
         67.1     -0.138104     -0.124352
         67.2     -0.138403     -0.124052
         67.3     -0.138657     -0.123797
         67.4     -0.138867     -0.123582
         67.5     -0.139017     -0.123425
         67.6      -0.13912     -0.123314
         67.7     -0.139163     -0.123258
         67.8     -0.139147      -0.12326
         67.9     -0.139072     -0.123318
           68     -0.138931     -0.123437
         68.1     -0.138726     -0.123618
         68.2     -0.138456     -0.123861
         68.3     -0.138121     -0.124165
         68.4     -0.137724     -0.124531
         68.5      -0.13726     -0.124961
         68.6     -0.136742     -0.125445
         68.7     -0.136151     -0.126001
         68.8     -0.135506     -0.126609
         68.9     -0.134814     -0.127269
           69     -0.134057     -0.127988
         69.1     -0.133266      -0.12875
         69.2      -0.13243      -0.12956
         69.3     -0.131551     -0.130415
         69.4     -0.130643     -0.131303
         69.5     -0.129713     -0.132222
         69.6      -0.12876     -0.133165
         69.7     -0.127791      -0.13413
         69.8     -0.126822     -0.135103
         69.9     -0.125846     -0.136089
           70     -0.124892     -0.137067
         70.1     -0.123936     -0.138041
         70.2        -0.123     -0.138997
         70.3     -0.122104     -0.139927
         70.4     -0.121247     -0.140821
         70.5     -0.120435     -0.141674
         70.6     -0.119668     -0.142478
         70.7     -0.118969      -0.14322
         70.8     -0.118331     -0.143895
         70.9     -0.117759     -0.144502
           71     -0.117263     -0.145028