# Probe 0 (5.5 0.5 0)
# Probe 1 (5.5 -0.5 0)
#       Probe             0             1
#        Time
            0             (1 0 0)             (1 0 0)
          0.1             (0.995346 -0.0013839 2.30444e-25)             (0.995346 0.0013839 9.28748e-26)
          0.2             (0.995042 -0.00147086 7.73787e-27)             (0.995042 0.00147086 2.39905e-27)
          0.3             (0.994772 -0.00155213 -6.72489e-26)             (0.994772 0.00155213 -2.80687e-26)
          0.4             (0.994508 -0.00163313 -1.04257e-25)             (0.994508 0.00163313 -4.31115e-26)
          0.5             (0.99424 -0.00171639 -1.25392e-25)             (0.99424 0.00171639 -5.17211e-26)
          0.6             (0.993962 -0.00180314 -1.39447e-25)             (0.993962 0.00180314 -5.74476e-26)
          0.7             (0.993672 -0.00189411 -1.50907e-25)             (0.993672 0.00189411 -6.21402e-26)
          0.8             (0.99337 -0.0019896 -1.62454e-25)             (0.99337 0.0019896 -6.68699e-26)
          0.9             (0.993055 -0.00208976 -1.7541e-25)             (0.993055 0.00208976 -7.21651e-26)
            1             (0.992726 -0.00219463 -1.90705e-25)             (0.992726 0.00219463 -7.84353e-26)
          1.1             (0.992384 -0.00230416 -2.08817e-25)             (0.992384 0.00230416 -8.58581e-26)
          1.2             (0.99203 -0.00241824 -2.30145e-25)             (0.99203 0.00241824 -9.45942e-26)
          1.3             (0.991664 -0.0025368 -2.54246e-25)             (0.991664 0.0025368 -1.04455e-25)
          1.4             (0.991286 -0.00265975 -2.81355e-25)             (0.991286 0.00265975 -1.15541e-25)
          1.5             (0.990897 -0.00278701 -3.10974e-25)             (0.990897 0.00278701 -1.27659e-25)
          1.6             (0.990497 -0.00291859 -3.43273e-25)             (0.990497 0.00291859 -1.40882e-25)
          1.7             (0.990087 -0.00305449 -3.77566e-25)             (0.990087 0.00305449 -1.54916e-25)
          1.8             (0.989667 -0.00319478 -4.13931e-25)             (0.989667 0.00319478 -1.69817e-25)
          1.9             (0.989236 -0.00333946 -4.5182e-25)             (0.989236 0.00333946 -1.85296e-25)
            2             (0.988796 -0.00348876 -4.91467e-25)             (0.988796 0.00348876 -2.01535e-25)
          2.1             (0.988345 -0.0036427 -5.32263e-25)             (0.988345 0.0036427 -2.18178e-25)
          2.2             (0.987884 -0.00380214 -5.74452e-25)             (0.987884 0.00380214 -2.35526e-25)
          2.3             (0.987413 -0.00396707 -6.17839e-25)             (0.987413 0.00396708 -2.53261e-25)
          2.4             (0.986931 -0.00413971 -6.62375e-25)             (0.986931 0.00413971 -2.71598e-25)
          2.5             (0.986436 -0.00431156 -7.07836e-25)             (0.986436 0.00431156 -2.90304e-25)
          2.6             (0.98593 -0.00449223 -7.54113e-25)             (0.98593 0.00449223 -3.09065e-25)
          2.7             (0.985411 -0.00467993 -8.01338e-25)             (0.985411 0.00467993 -3.28454e-25)
          2.8             (0.984881 -0.00487527 -8.49358e-25)             (0.984881 0.00487527 -3.48234e-25)
          2.9             (0.984337 -0.00507879 -8.98414e-25)             (0.984337 0.00507879 -3.68339e-25)
            3             (0.98378 -0.00529109 -9.48388e-25)             (0.98378 0.00529109 -3.88852e-25)
          3.1             (0.983208 -0.00551302 -9.99058e-25)             (0.983208 0.00551302 -4.0966e-25)
          3.2             (0.982622 -0.00574561 -1.05099e-24)             (0.982622 0.00574561 -4.30962e-25)
          3.3             (0.98202 -0.00598995 -1.10375e-24)             (0.98202 0.00598996 -4.52641e-25)
          3.4             (0.981401 -0.00624712 -1.15773e-24)             (0.981401 0.00624712 -4.74813e-25)
          3.5             (0.980765 -0.00651804 -1.21264e-24)             (0.980765 0.00651805 -4.97369e-25)
          3.6             (0.980111 -0.00680345 -1.26889e-24)             (0.980111 0.00680345 -5.20497e-25)
          3.7             (0.979438 -0.00710377 -1.3262e-24)             (0.979438 0.00710377 -5.44051e-25)
          3.8             (0.978745 -0.00741904 -1.38452e-24)             (0.978745 0.00741904 -5.6803e-25)
          3.9             (0.978032 -0.00774903 -1.4444e-24)             (0.978032 0.00774903 -5.92656e-25)
            4             (0.977297 -0.00809341 -1.50547e-24)             (0.977297 0.00809342 -6.17773e-25)
          4.1             (0.976541 -0.00845235 -1.56775e-24)             (0.976541 0.00845235 -6.434e-25)
          4.2             (0.975763 -0.00882707 -1.63141e-24)             (0.975763 0.00882707 -6.69596e-25)
          4.3             (0.974962 -0.00922056 -1.69654e-24)             (0.974962 0.00922056 -6.96398e-25)
          4.4             (0.974139 -0.00963814 -1.76295e-24)             (0.974139 0.00963814 -7.23728e-25)
          4.5             (0.973295 -0.0100876 -1.83195e-24)             (0.973295 0.0100876 -7.52098e-25)
          4.6             (0.972429 -0.010579 -1.89991e-24)             (0.972429 0.010579 -7.80096e-25)
          4.7             (0.971542 -0.0111237 -1.97052e-24)             (0.971542 0.0111237 -8.09147e-25)
          4.8             (0.970634 -0.0117326 -2.04241e-24)             (0.970634 0.0117326 -8.3871e-25)
          4.9             (0.969705 -0.0124153 -2.11575e-24)             (0.969705 0.0124153 -8.68856e-25)
            5             (0.968759 -0.013178 -2.19031e-24)             (0.968759 0.013178 -8.99473e-25)
          5.1             (0.967795 -0.0140223 -2.26632e-24)             (0.967795 0.0140223 -9.30657e-25)
          5.2             (0.966819 -0.014945 -2.34355e-24)             (0.966819 0.014945 -9.62305e-25)
          5.3             (0.965832 -0.0159382 -2.42193e-24)             (0.965832 0.0159383 -9.94373e-25)
          5.4             (0.964841 -0.0169897 -2.50131e-24)             (0.964841 0.0169897 -1.02681e-24)
          5.5             (0.963849 -0.0180841 -2.58178e-24)             (0.963849 0.0180841 -1.05963e-24)
          5.6             (0.96286 -0.019204 -2.66314e-24)             (0.96286 0.019204 -1.09275e-24)
          5.7             (0.961877 -0.0203313 -2.74513e-24)             (0.961877 0.0203313 -1.12608e-24)
          5.8             (0.960901 -0.0214484 -2.82789e-24)             (0.960901 0.0214484 -1.15966e-24)
          5.9             (0.95993 -0.0225393 -2.91096e-24)             (0.95993 0.0225393 -1.19331e-24)
            6             (0.958962 -0.0235906 -2.9946e-24)             (0.958962 0.0235906 -1.22715e-24)
          6.1             (0.957991 -0.0245924 -3.07863e-24)             (0.957991 0.0245924 -1.26111e-24)
          6.2             (0.957013 -0.0255386 -3.16283e-24)             (0.957013 0.0255386 -1.29511e-24)
          6.3             (0.956022 -0.0264274 -3.24712e-24)             (0.956022 0.0264274 -1.32913e-24)
          6.4             (0.955014 -0.0272606 -3.33182e-24)             (0.955015 0.0272606 -1.36331e-24)
          6.5             (0.953987 -0.0280429 -3.41676e-24)             (0.953987 0.0280429 -1.39759e-24)
          6.6             (0.952938 -0.0287811 -3.5017e-24)             (0.952938 0.0287811 -1.43187e-24)
          6.7             (0.951869 -0.0294829 -3.58687e-24)             (0.951869 0.0294829 -1.46625e-24)
          6.8             (0.950783 -0.0301563 -3.67212e-24)             (0.950783 0.0301563 -1.50067e-24)
          6.9             (0.949683 -0.0308084 -3.75764e-24)             (0.949683 0.0308084 -1.5352e-24)
            7             (0.948576 -0.0314458 -3.84353e-24)             (0.948576 0.0314458 -1.56988e-24)
          7.1             (0.947466 -0.0320739 -3.92988e-24)             (0.947466 0.0320739 -1.60474e-24)
          7.2             (0.946359 -0.0326971 -4.01606e-24)             (0.946359 0.0326971 -1.6395e-24)
          7.3             (0.945262 -0.0333191 -4.103e-24)             (0.945262 0.0333191 -1.67463e-24)
          7.4             (0.944178 -0.0339429 -4.19045e-24)             (0.944178 0.0339429 -1.70992e-24)
          7.5             (0.943113 -0.0345705 -4.27792e-24)             (0.943113 0.0345705 -1.7452e-24)
          7.6             (0.942072 -0.0352036 -4.36606e-24)             (0.942072 0.0352036 -1.78074e-24)
          7.7             (0.941058 -0.0358433 -4.45489e-24)             (0.941058 0.0358433 -1.81654e-24)
          7.8             (0.940076 -0.0364907 -4.54383e-24)             (0.940076 0.0364906 -1.85235e-24)
          7.9             (0.939129 -0.0371468 -4.63348e-24)             (0.939129 0.0371468 -1.88843e-24)
            8             (0.938223 -0.0378136 -4.72393e-24)             (0.938223 0.0378136 -1.92482e-24)
          8.1             (0.937359 -0.0384943 -4.81486e-24)             (0.937359 0.0384942 -1.96136e-24)
          8.2             (0.936539 -0.0391935 -4.90633e-24)             (0.936539 0.0391934 -1.99807e-24)
          8.3             (0.935763 -0.0399179 -4.99872e-24)             (0.935763 0.0399179 -2.03509e-24)
          8.4             (0.935025 -0.0406766 -5.09159e-24)             (0.935025 0.0406765 -2.07222e-24)
          8.5             (0.934317 -0.0414802 -5.18517e-24)             (0.934317 0.0414801 -2.10952e-24)
          8.6             (0.933628 -0.0423405 -5.2791e-24)             (0.933628 0.0423404 -2.1468e-24)
          8.7             (0.932938 -0.0432692 -5.37356e-24)             (0.932938 0.0432692 -2.1841e-24)
          8.8             (0.932228 -0.044276 -5.46779e-24)             (0.932227 0.044276 -2.22106e-24)
          8.9             (0.931471 -0.0453668 -5.56185e-24)             (0.931471 0.0453667 -2.25768e-24)
            9             (0.930645 -0.0465419 -5.65511e-24)             (0.930645 0.0465418 -2.29367e-24)
          9.1             (0.929727 -0.0477949 -5.74724e-24)             (0.929727 0.0477948 -2.32891e-24)
          9.2             (0.928701 -0.0491125 -5.83792e-24)             (0.928701 0.0491124 -2.36327e-24)
          9.3             (0.927557 -0.0504759 -5.92633e-24)             (0.927557 0.0504758 -2.39648e-24)
          9.4             (0.926295 -0.0518632 -6.01262e-24)             (0.926295 0.0518632 -2.42864e-24)
          9.5             (0.924921 -0.0532526 -6.09652e-24)             (0.924921 0.0532526 -2.45973e-24)
          9.6             (0.923448 -0.0546256 -6.17805e-24)             (0.923448 0.0546256 -2.4898e-24)
          9.7             (0.921892 -0.0559698 -6.25712e-24)             (0.921892 0.0559698 -2.51888e-24)
          9.8             (0.92027 -0.0572804 -6.334e-24)             (0.92027 0.0572803 -2.54709e-24)
          9.9             (0.918597 -0.0585593 -6.40886e-24)             (0.918597 0.0585593 -2.57451e-24)
           10             (0.916881 -0.0598142 -6.48197e-24)             (0.916881 0.0598142 -2.60122e-24)
         10.1             (0.915128 -0.0610554 -6.55333e-24)             (0.915128 0.0610555 -2.62718e-24)
         10.2             (0.913339 -0.0622935 -6.62317e-24)             (0.913339 0.0622935 -2.65243e-24)
         10.3             (0.911512 -0.0635368 -6.69129e-24)             (0.911512 0.0635369 -2.67685e-24)
         10.4             (0.909645 -0.0647909 -6.75783e-24)             (0.909645 0.0647909 -2.70049e-24)
         10.5             (0.907736 -0.066058 -6.82246e-24)             (0.907736 0.0660581 -2.72317e-24)
         10.6             (0.905784 -0.0673384 -6.88516e-24)             (0.905784 0.0673384 -2.7449e-24)
         10.7             (0.903788 -0.0686309 -6.94583e-24)             (0.903788 0.068631 -2.76563e-24)
         10.8             (0.90175 -0.0699345 -7.00449e-24)             (0.90175 0.0699346 -2.78538e-24)
         10.9             (0.89967 -0.0712486 -7.06066e-24)             (0.89967 0.0712487 -2.80395e-24)
           11             (0.89755 -0.0725731 -7.11488e-24)             (0.89755 0.0725733 -2.82155e-24)
         11.1             (0.89539 -0.0739085 -7.16646e-24)             (0.89539 0.0739086 -2.83791e-24)
         11.2             (0.89319 -0.0752552 -7.21555e-24)             (0.89319 0.0752553 -2.85307e-24)
         11.3             (0.890951 -0.0766134 -7.26227e-24)             (0.890951 0.0766135 -2.86708e-24)
         11.4             (0.888672 -0.077983 -7.30648e-24)             (0.888672 0.0779832 -2.87988e-24)
         11.5             (0.886354 -0.0793638 -7.34732e-24)             (0.886354 0.079364 -2.89109e-24)
         11.6             (0.883996 -0.0807551 -7.38556e-24)             (0.883996 0.0807553 -2.90106e-24)
         11.7             (0.881599 -0.0821565 -7.42088e-24)             (0.881599 0.0821568 -2.90963e-24)
         11.8             (0.879163 -0.0835676 -7.45287e-24)             (0.879164 0.0835678 -2.91665e-24)
         11.9             (0.876689 -0.0849877 -7.48181e-24)             (0.876689 0.0849879 -2.92221e-24)
           12             (0.874176 -0.0864165 -7.5072e-24)             (0.874176 0.0864167 -2.92612e-24)
         12.1             (0.871625 -0.0878533 -7.52915e-24)             (0.871625 0.0878535 -2.92841e-24)
         12.2             (0.869034 -0.0892975 -7.54755e-24)             (0.869035 0.0892978 -2.92904e-24)
         12.3             (0.866406 -0.0907484 -7.56231e-24)             (0.866406 0.0907486 -2.92797e-24)
         12.4             (0.863738 -0.0922051 -7.57303e-24)             (0.863738 0.0922053 -2.92504e-24)
         12.5             (0.861032 -0.0936668 -7.57994e-24)             (0.861032 0.093667 -2.92035e-24)
         12.6             (0.858287 -0.0951327 -7.58285e-24)             (0.858287 0.0951329 -2.91381e-24)
         12.7             (0.855504 -0.0966018 -7.58151e-24)             (0.855504 0.096602 -2.90532e-24)
         12.8             (0.852681 -0.0980733 -7.57577e-24)             (0.852682 0.0980735 -2.89482e-24)
         12.9             (0.84982 -0.0995463 -7.56582e-24)             (0.849821 0.0995465 -2.8824e-24)
           13             (0.846921 -0.10102 -7.55126e-24)             (0.846921 0.10102 -2.86788e-24)
         13.1             (0.843982 -0.102493 -7.53208e-24)             (0.843983 0.102493 -2.85128e-24)
         13.2             (0.841005 -0.103964 -7.50817e-24)             (0.841005 0.103964 -2.83255e-24)
         13.3             (0.837989 -0.105433 -7.47912e-24)             (0.83799 0.105433 -2.81151e-24)
         13.4             (0.834935 -0.106898 -7.44532e-24)             (0.834935 0.106898 -2.78835e-24)
         13.5             (0.831842 -0.108358 -7.40642e-24)             (0.831842 0.108358 -2.76291e-24)
         13.6             (0.82871 -0.109813 -7.36244e-24)             (0.82871 0.109813 -2.73521e-24)
         13.7             (0.825541 -0.11126 -7.31306e-24)             (0.825541 0.11126 -2.70513e-24)
         13.8             (0.822332 -0.1127 -7.25835e-24)             (0.822332 0.1127 -2.6727e-24)
         13.9             (0.819086 -0.11413 -7.19816e-24)             (0.819086 0.11413 -2.63787e-24)
           14             (0.815801 -0.11555 -7.13247e-24)             (0.815801 0.11555 -2.60062e-24)
         14.1             (0.812479 -0.116959 -7.06135e-24)             (0.812479 0.116958 -2.56102e-24)
         14.2             (0.809119 -0.118354 -6.98417e-24)             (0.809119 0.118354 -2.51878e-24)
         14.3             (0.805721 -0.119736 -6.90145e-24)             (0.805721 0.119736 -2.47416e-24)
         14.4             (0.802286 -0.121104 -6.81267e-24)             (0.802286 0.121103 -2.42692e-24)
         14.5             (0.798814 -0.122454 -6.71819e-24)             (0.798814 0.122454 -2.37724e-24)
         14.6             (0.795305 -0.123788 -6.61791e-24)             (0.795305 0.123787 -2.32509e-24)
         14.7             (0.79176 -0.125103 -6.51115e-24)             (0.791759 0.125102 -2.27019e-24)
         14.8             (0.788178 -0.126398 -6.39849e-24)             (0.788178 0.126397 -2.21281e-24)
         14.9             (0.784561 -0.127672 -6.27956e-24)             (0.78456 0.127671 -2.15278e-24)
           15             (0.780908 -0.128924 -6.1547e-24)             (0.780907 0.128923 -2.09028e-24)
         15.1             (0.777219 -0.130152 -6.02353e-24)             (0.777219 0.130152 -2.02515e-24)
         15.2             (0.773496 -0.131356 -5.88594e-24)             (0.773496 0.131356 -1.95737e-24)
         15.3             (0.769739 -0.132535 -5.74227e-24)             (0.769738 0.132534 -1.88709e-24)
         15.4             (0.765948 -0.133686 -5.59229e-24)             (0.765947 0.133685 -1.81423e-24)
         15.5             (0.762124 -0.13481 -5.43601e-24)             (0.762123 0.134809 -1.7388e-24)
         15.6             (0.758267 -0.135904 -5.27345e-24)             (0.758266 0.135903 -1.66084e-24)
         15.7             (0.754378 -0.136968 -5.10465e-24)             (0.754377 0.136967 -1.58037e-24)
         15.8             (0.750457 -0.138 -4.92951e-24)             (0.750456 0.138 -1.49737e-24)
         15.9             (0.746505 -0.139001 -4.7484e-24)             (0.746504 0.139 -1.412e-24)
           16             (0.742523 -0.139967 -4.56101e-24)             (0.742522 0.139967 -1.32417e-24)
         16.1             (0.738511 -0.1409 -4.3676e-24)             (0.73851 0.140899 -1.23398e-24)
         16.2             (0.734471 -0.141797 -4.16812e-24)             (0.73447 0.141796 -1.14143e-24)
         16.3             (0.730402 -0.142657 -3.96273e-24)             (0.730402 0.142656 -1.04662e-24)
         16.4             (0.726307 -0.14348 -3.75141e-24)             (0.726306 0.14348 -9.4954e-25)
         16.5             (0.722185 -0.144265 -3.53424e-24)             (0.722184 0.144265 -8.50253e-25)
         16.6             (0.718037 -0.145011 -3.31133e-24)             (0.718037 0.145011 -7.48818e-25)
         16.7             (0.713865 -0.145718 -3.08296e-24)             (0.713864 0.145718 -6.45365e-25)
         16.8             (0.709669 -0.146384 -2.84888e-24)             (0.709669 0.146384 -5.39812e-25)
         16.9             (0.705451 -0.147008 -2.60936e-24)             (0.705451 0.147008 -4.32283e-25)
           17             (0.701211 -0.147591 -2.36497e-24)             (0.701211 0.147592 -3.23038e-25)
         17.1             (0.69695 -0.148132 -2.11498e-24)             (0.69695 0.148132 -2.11785e-25)
         17.2             (0.69267 -0.14863 -1.85988e-24)             (0.69267 0.14863 -9.87427e-26)
         17.3             (0.688371 -0.149084 -1.60008e-24)             (0.688372 0.149085 1.58967e-26)
         17.4             (0.684056 -0.149495 -1.33552e-24)             (0.684056 0.149496 1.32148e-25)
         17.5             (0.679724 -0.149862 -1.06617e-24)             (0.679725 0.149862 2.50001e-25)
         17.6             (0.675377 -0.150184 -7.93152e-25)             (0.675378 0.150185 3.68991e-25)
         17.7             (0.671017 -0.150461 -5.14704e-25)             (0.671018 0.150463 4.89818e-25)
         17.8             (0.666644 -0.150694 -2.32627e-25)             (0.666646 0.150695 6.11737e-25)
         17.9             (0.66226 -0.150882 5.33491e-26)             (0.662262 0.150883 7.34832e-25)
           18             (0.657867 -0.151024 3.43172e-25)             (0.657868 0.151026 8.59075e-25)
         18.1             (0.653464 -0.151122 6.3665e-25)             (0.653466 0.151124 9.84387e-25)
         18.2             (0.649055 -0.151175 9.32894e-25)             (0.649057 0.151177 1.11037e-24)
         18.3             (0.64464 -0.151183 1.23267e-24)             (0.644642 0.151186 1.23734e-24)
         18.4             (0.64022 -0.151147 1.53503e-24)             (0.640223 0.151149 1.36491e-24)
         18.5             (0.635797 -0.151066 1.84069e-24)             (0.6358 0.151069 1.49335e-24)
         18.6             (0.631373 -0.150941 2.14862e-24)             (0.631376 0.150944 1.62222e-24)
         18.7             (0.626948 -0.150773 2.45901e-24)             (0.626951 0.150775 1.75162e-24)
         18.8             (0.622525 -0.150561 2.77105e-24)             (0.622528 0.150564 1.88118e-24)
         18.9             (0.618104 -0.150307 3.08516e-24)             (0.618107 0.150309 2.01109e-24)
           19             (0.613686 -0.15001 3.40091e-24)             (0.61369 0.150013 2.14116e-24)
         19.1             (0.609274 -0.149672 3.71806e-24)             (0.609278 0.149674 2.2713e-24)
         19.2             (0.604869 -0.149293 4.03632e-24)             (0.604872 0.149295 2.40137e-24)
         19.3             (0.600472 -0.148873 4.35569e-24)             (0.600475 0.148875 2.53137e-24)
         19.4             (0.596084 -0.148413 4.67563e-24)             (0.596087 0.148416 2.66111e-24)
         19.5             (0.591707 -0.147915 4.9958e-24)             (0.591711 0.147917 2.7904e-24)
         19.6             (0.587343 -0.147379 5.31698e-24)             (0.587346 0.147381 2.91961e-24)
         19.7             (0.582992 -0.146806 5.63767e-24)             (0.582994 0.146807 3.0481e-24)
         19.8             (0.578655 -0.146196 5.95837e-24)             (0.578658 0.146198 3.17608e-24)
         19.9             (0.574335 -0.145551 6.27853e-24)             (0.574338 0.145552 3.30335e-24)
           20             (0.570033 -0.144872 6.59815e-24)             (0.570035 0.144872 3.42989e-24)
         20.1             (0.565749 -0.144159 6.91682e-24)             (0.565751 0.144159 3.55554e-24)
         20.2             (0.561485 -0.143413 7.23461e-24)             (0.561487 0.143414 3.68037e-24)
         20.3             (0.557243 -0.142637 7.55118e-24)             (0.557244 0.142636 3.8042e-24)
         20.4             (0.553022 -0.14183 7.8661e-24)             (0.553023 0.141829 3.9269e-24)
         20.5             (0.548826 -0.140993 8.17941e-24)             (0.548826 0.140992 4.04848e-24)
         20.6             (0.544653 -0.140129 8.49089e-24)             (0.544653 0.140127 4.16887e-24)
         20.7             (0.540507 -0.139237 8.8002e-24)             (0.540506 0.139235 4.28792e-24)
         20.8             (0.536388 -0.13832 9.10737e-24)             (0.536386 0.138318 4.40567e-24)
         20.9             (0.532296 -0.137378 9.41221e-24)             (0.532294 0.137375 4.52205e-24)
           21             (0.528233 -0.136412 9.71411e-24)             (0.528231 0.136408 4.63685e-24)
         21.1             (0.5242 -0.135423 1.00135e-23)             (0.524197 0.13542 4.75021e-24)
         21.2             (0.520197 -0.134413 1.03099e-23)             (0.520194 0.134409 4.86201e-24)
         21.3             (0.516226 -0.133383 1.06032e-23)             (0.516222 0.133379 4.97213e-24)
         21.4             (0.512288 -0.132334 1.08931e-23)             (0.512283 0.132329 5.08055e-24)
         21.5             (0.508383 -0.131267 1.11798e-23)             (0.508377 0.131262 5.18728e-24)
         21.6             (0.504511 -0.130183 1.14628e-23)             (0.504505 0.130178 5.29221e-24)
         21.7             (0.500674 -0.129084 1.17423e-23)             (0.500668 0.129078 5.39545e-24)
         21.8             (0.496873 -0.12797 1.20178e-23)             (0.496866 0.127964 5.49666e-24)
         21.9             (0.493108 -0.126842 1.22891e-23)             (0.4931 0.126836 5.59601e-24)
           22             (0.489379 -0.125703 1.25569e-23)             (0.489371 0.125696 5.69359e-24)
         22.1             (0.485687 -0.124552 1.28202e-23)             (0.485679 0.124545 5.78921e-24)
         22.2             (0.482033 -0.123391 1.30792e-23)             (0.482024 0.123384 5.88277e-24)
         22.3             (0.478417 -0.122221 1.3334e-23)             (0.478408 0.122214 5.97443e-24)
         22.4             (0.47484 -0.121043 1.35843e-23)             (0.474831 0.121036 6.06407e-24)
         22.5             (0.471301 -0.119857 1.38302e-23)             (0.471292 0.119851 6.15169e-24)
         22.6             (0.467802 -0.118666 1.40714e-23)             (0.467793 0.11866 6.23728e-24)
         22.7             (0.464343 -0.11747 1.43077e-23)             (0.464333 0.117465 6.32073e-24)
         22.8             (0.460924 -0.116271 1.45395e-23)             (0.460914 0.116265 6.40221e-24)
         22.9             (0.457545 -0.115068 1.47665e-23)             (0.457535 0.115063 6.48162e-24)
           23             (0.454206 -0.113863 1.49886e-23)             (0.454197 0.113858 6.55895e-24)
         23.1             (0.450908 -0.112656 1.52058e-23)             (0.450899 0.112652 6.63421e-24)
         23.2             (0.447651 -0.11145 1.54182e-23)             (0.447643 0.111446 6.70741e-24)
         23.3             (0.444435 -0.110244 1.56256e-23)             (0.444427 0.110241 6.77853e-24)
         23.4             (0.44126 -0.10904 1.5828e-23)             (0.441252 0.109038 6.84762e-24)
         23.5             (0.438126 -0.107838 1.60254e-23)             (0.438119 0.107836 6.91461e-24)
         23.6             (0.435033 -0.106639 1.62179e-23)             (0.435027 0.106638 6.97963e-24)
         23.7             (0.431982 -0.105444 1.64053e-23)             (0.431976 0.105444 7.04258e-24)
         23.8             (0.428971 -0.104253 1.65877e-23)             (0.428966 0.104255 7.10349e-24)
         23.9             (0.426002 -0.103068 1.67654e-23)             (0.425998 0.10307 7.16251e-24)
           24             (0.423074 -0.101889 1.69377e-23)             (0.423071 0.101893 7.2194e-24)
         24.1             (0.420186 -0.100717 1.71052e-23)             (0.420184 0.100721 7.27439e-24)
         24.2             (0.41734 -0.0995525 1.72677e-23)             (0.417339 0.0995576 7.32742e-24)
         24.3             (0.414534 -0.0983959 1.74253e-23)             (0.414534 0.0984019 7.37853e-24)
         24.4             (0.411768 -0.0972479 1.7578e-23)             (0.41177 0.097255 7.42774e-24)
         24.5             (0.409043 -0.0961092 1.77259e-23)             (0.409046 0.0961172 7.47503e-24)
         24.6             (0.406359 -0.0949803 1.78689e-23)             (0.406363 0.0949892 7.52052e-24)
         24.7             (0.403714 -0.0938619 1.80073e-23)             (0.40372 0.0938717 7.56421e-24)
         24.8             (0.401109 -0.0927545 1.81407e-23)             (0.401116 0.0927652 7.60605e-24)
         24.9             (0.398543 -0.0916584 1.82697e-23)             (0.398551 0.0916699 7.64617e-24)
           25             (0.396016 -0.0905742 1.83939e-23)             (0.396026 0.0905864 7.68452e-24)
         25.1             (0.393529 -0.0895023 1.85134e-23)             (0.39354 0.0895151 7.72114e-24)
         25.2             (0.391079 -0.0884431 1.86287e-23)             (0.391092 0.0884565 7.75616e-24)
         25.3             (0.388668 -0.0873971 1.87395e-23)             (0.388682 0.087411 7.78951e-24)
         25.4             (0.386295 -0.0863646 1.88458e-23)             (0.38631 0.0863789 7.82126e-24)
         25.5             (0.38396 -0.085346 1.89478e-23)             (0.383976 0.0853605 7.8514e-24)
         25.6             (0.381662 -0.0843417 1.90456e-23)             (0.381679 0.0843563 7.87998e-24)
         25.7             (0.3794 -0.0833517 1.91394e-23)             (0.379418 0.0833664 7.90717e-24)
         25.8             (0.377175 -0.0823764 1.9229e-23)             (0.377194 0.0823909 7.93286e-24)
         25.9             (0.374986 -0.0814161 1.93145e-23)             (0.375006 0.0814303 7.95706e-24)
           26             (0.372833 -0.0804708 1.93966e-23)             (0.372854 0.0804847 7.98002e-24)
         26.1             (0.370715 -0.0795413 1.94741e-23)             (0.370737 0.0795546 8.00139e-24)
         26.2             (0.368632 -0.0786274 1.95483e-23)             (0.368654 0.0786401 8.0216e-24)
         26.3             (0.366584 -0.0777293 1.96187e-23)             (0.366606 0.0777412 8.04048e-24)
         26.4             (0.364569 -0.0768472 1.96855e-23)             (0.364592 0.076858 8.05811e-24)
         26.5             (0.362589 -0.075981 1.97489e-23)             (0.362611 0.0759908 8.07454e-24)
         26.6             (0.360641 -0.0751311 1.98088e-23)             (0.360663 0.0751396 8.08979e-24)
         26.7             (0.358726 -0.0742973 1.98654e-23)             (0.358748 0.0743045 8.10391e-24)
         26.8             (0.356844 -0.07348 1.99188e-23)             (0.356865 0.0734857 8.11692e-24)
         26.9             (0.354993 -0.0726789 1.9969e-23)             (0.355013 0.072683 8.12888e-24)
           27             (0.353174 -0.0718942 2.00161e-23)             (0.353193 0.0718966 8.13974e-24)
         27.1             (0.351386 -0.0711258 2.00604e-23)             (0.351404 0.0711264 8.14972e-24)
         27.2             (0.349628 -0.0703737 2.01018e-23)             (0.349645 0.0703724 8.15872e-24)
         27.3             (0.347901 -0.069638 2.01403e-23)             (0.347916 0.0696348 8.16675e-24)
         27.4             (0.346203 -0.0689187 2.01762e-23)             (0.346216 0.0689133 8.17392e-24)
         27.5             (0.344534 -0.0682155 2.02094e-23)             (0.344546 0.0682081 8.18024e-24)
         27.6             (0.342894 -0.0675285 2.02401e-23)             (0.342904 0.067519 8.18575e-24)
         27.7             (0.341283 -0.0668575 2.02684e-23)             (0.34129 0.0668459 8.19043e-24)
         27.8             (0.339699 -0.0662022 2.02943e-23)             (0.339704 0.0661885 8.1944e-24)
         27.9             (0.338142 -0.0655627 2.03179e-23)             (0.338145 0.065547 8.19763e-24)
           28             (0.336613 -0.0649389 2.03394e-23)             (0.336613 0.0649211 8.20017e-24)
         28.1             (0.33511 -0.0643305 2.03587e-23)             (0.335107 0.0643108 8.20206e-24)
         28.2             (0.333633 -0.0637375 2.03761e-23)             (0.333627 0.0637159 8.20332e-24)
         28.3             (0.332181 -0.0631596 2.03915e-23)             (0.332173 0.0631363 8.20399e-24)
         28.4             (0.330755 -0.0625967 2.0405e-23)             (0.330744 0.0625717 8.20407e-24)