/*--------------------------------*- C++ -*----------------------------------*\
  =========                 |
  \\      /  F ield         | OpenFOAM: The Open Source CFD Toolbox
   \\    /   O peration     | Website:  https://openfoam.org
    \\  /    A nd           | Version:  9
     \\/     M anipulation  |
\*---------------------------------------------------------------------------*/
FoamFile
{
    format      ascii;
    class       volVectorField;
    location    "12.3";
    object      U;
}
// * * * * * * * * * * * * * * * * * * * * * * * * * * * * * * * * * * * * * //

dimensions      [0 1 -1 0 0 0 0];

internalField   nonuniform List<vector> 
8500
(
(-0.00803226 0.00317283 0)
(-0.035455 0.00544591 -7.06944e-23)
(-0.0746095 0.00617307 -3.89025e-24)
(-0.110209 0.00626075 7.40371e-37)
(-0.14687 0.00629608 -1.09936e-23)
(-0.178249 0.00608225 9.15388e-24)
(-0.215327 0.00665511 -6.29012e-23)
(-0.241856 0.00587742 -9.89056e-23)
(-0.281695 0.00783606 -9.20737e-23)
(-0.309706 0.00632853 -4.84484e-24)
(-0.00832303 0.00943509 2.0391e-22)
(-0.0355307 0.0162228 6.60621e-23)
(-0.0740101 0.018399 2.65631e-22)
(-0.108659 0.0186559 0)
(-0.144216 0.0187451 0)
(-0.173795 0.0180823 1.86102e-23)
(-0.209312 0.0197564 4.73626e-23)
(-0.232443 0.0173817 1.05632e-22)
(-0.269934 0.0232162 6.91312e-23)
(-0.292642 0.0185934 1.93863e-23)
(-0.00889425 0.0154516 -1.81201e-22)
(-0.0356889 0.0266589 0)
(-0.0728459 0.0302673 -2.49952e-22)
(-0.105624 0.0306751 0)
(-0.13902 0.0307665 -4.40407e-23)
(-0.165069 0.0295998 3.66707e-23)
(-0.197586 0.0322309 0)
(-0.214075 0.0281599 0)
(-0.24716 0.0377347 0)
(-0.25975 0.0297205 0)
(-0.0097262 0.0210727 3.646e-22)
(-0.035942 0.0365396 -2.65387e-22)
(-0.0711834 0.0415485 -6.27205e-23)
(-0.10123 0.0420778 -3.92101e-22)
(-0.1315 0.0420818 -3.95807e-22)
(-0.152424 0.0403464 3.73246e-23)
(-0.180713 0.0436619 -3.11641e-23)
(-0.187608 0.037805 3.66927e-22)
(-0.214736 0.0508693 -9.62962e-25)
(-0.213291 0.0390706 3.87219e-22)
(-0.0107916 0.0261695 -3.646e-22)
(-0.0363075 0.0456693 -3.43219e-22)
(-0.0691155 0.0520265 9.44146e-23)
(-0.0956541 0.0526383 5.2357e-22)
(-0.121948 0.0524224 -4.46383e-23)
(-0.136352 0.0500785 5.89893e-22)
(-0.159447 0.0536383 0)
(-0.15419 0.0460028 -4.20841e-22)
(-0.174417 0.062181 -9.24404e-23)
(-0.156139 0.0461709 -5.38414e-22)
(-0.0120579 0.0306395 9.19979e-23)
(-0.0368056 0.0538771 5.70641e-22)
(-0.066753 0.0615021 -4.41803e-22)
(-0.0891133 0.0621511 -5.38787e-25)
(-0.110702 0.061536 -3.99439e-22)
(-0.117444 0.0586058 1.48654e-22)
(-0.134622 0.0617608 -6.255e-23)
(-0.115111 0.0525444 5.25916e-22)
(-0.128069 0.0713201 -9.05245e-23)
(-0.0912053 0.0509008 3.07513e-22)
(-0.0134904 0.0344114 4.61087e-23)
(-0.0374575 0.0610221 0)
(-0.0642138 0.0697963 -1.71925e-24)
(-0.0818466 0.0704353 0)
(-0.0981026 0.0691935 7.07854e-22)
(-0.0963325 0.065797 -5.89965e-22)
(-0.107036 0.0676474 0)
(-0.0716403 0.0573924 -2.03716e-24)
(-0.0773679 0.0778861 0)
(-0.0205073 0.0536718 0)
(-0.0150553 0.0374473 -7.4398e-22)
(-0.038283 0.0669974 -7.68855e-23)
(-0.0616107 0.0767561 5.70102e-22)
(-0.0740928 0.0773352 1.0619e-22)
(-0.084452 0.0751965 -7.11628e-22)
(-0.0736259 0.0715875 -4.40531e-22)
(-0.0772682 0.070926 -6.27068e-23)
(-0.0248455 0.0608236 5.19195e-22)
(-0.023713 0.0813985 -9.03493e-23)
(0.0560025 0.0546062 7.86983e-23)
(-0.0167227 0.0397429 8.37548e-22)
(-0.0392969 0.0717322 -6.17576e-22)
(-0.0590372 0.0822595 -1.91141e-22)
(-0.0660646 0.0827202 1.05508e-22)
(-0.0699527 0.0793779 7.11096e-22)
(-0.0498272 0.0759884 6.64593e-22)
(-0.0454679 0.0712949 -6.27286e-23)
(0.0250816 0.062763 1.02895e-22)
(0.0311292 0.0817558 -1.82227e-22)
(0.14141 0.0541785 7.73836e-23)
(-0.018469 0.0413253 7.52841e-22)
(-0.0405054 0.0751922 6.17951e-22)
(-0.0565537 0.0862204 -8.96026e-22)
(-0.0579197 0.0864879 -1.05787e-22)
(-0.0546485 0.0816083 0)
(-0.0251898 0.079013 0)
(-0.0115443 0.0688581 0)
(0.0791975 0.0632964 -1.64075e-21)
(0.0865434 0.0783676 -7.53958e-22)
(0.23965 0.0538974 5.95441e-22)
(-0.0202784 0.0422485 -1.51022e-21)
(-0.0419005 0.0773788 0)
(-0.0541694 0.0885918 2.05103e-21)
(-0.0497263 0.0885681 8.49012e-22)
(-0.0384228 0.0818876 8.85425e-23)
(0.00061126 0.0805013 0)
(0.0252139 0.0640113 -1.02306e-21)
(0.138609 0.0635578 8.17908e-22)
(0.145195 0.0700351 7.53948e-22)
(0.354817 0.0551062 -5.9542e-22)
(-0.0221439 0.0425879 8.52411e-22)
(-0.0434541 0.0783256 -7.8001e-23)
(-0.0518244 0.0893681 -1.02711e-21)
(-0.0413738 0.088895 -9.55729e-22)
(-0.0210266 0.080351 0)
(0.0283983 0.0803087 1.17473e-21)
(0.0670123 0.0572013 3.20698e-24)
(0.20436 0.064758 7.02099e-22)
(0.214333 0.0575589 8.39441e-22)
(0.48825 0.0578999 -5.87253e-22)
(-0.0240658 0.0424333 -1.00945e-26)
(-0.0451117 0.0780946 1.3353e-21)
(-0.0493911 0.0885983 -1.29066e-22)
(-0.0325143 0.0874189 7.44357e-22)
(-0.0018598 0.0771526 4.45377e-22)
(0.0594101 0.0784781 2.95705e-22)
(0.117402 0.0495208 1.01912e-21)
(0.277578 0.0666641 -9.1231e-22)
(0.304693 0.0454542 -5.6915e-22)
(0.635587 0.0619101 4.35102e-22)
(-0.0260501 0.0418804 0)
(-0.0467791 0.0767724 -1.09984e-21)
(-0.0466536 0.0863792 -1.29517e-22)
(-0.0225826 0.0841904 8.07442e-25)
(0.0201501 0.0724674 7.11108e-22)
(0.0955574 0.0750103 -1.02453e-21)
(0.180399 0.0430154 1.00864e-21)
(0.360035 0.0677527 -1.034e-22)
(0.424476 0.0400602 0)
(0.786332 0.0673937 0)
(-0.0281017 0.041019 9.67041e-23)
(-0.0483188 0.074466 -1.26802e-21)
(-0.0432594 0.0828288 0)
(-0.0107723 0.0793846 -1.05926e-22)
(0.0465298 0.0666176 8.85271e-23)
(0.139608 0.0698938 0)
(0.259118 0.0399966 -1.00947e-21)
(0.454672 0.0672877 -8.0367e-22)
(0.571276 0.0445895 1.78314e-22)
(0.927478 0.0749768 -1.49851e-22)
(-0.0302167 0.0399264 -9.70588e-23)
(-0.0495433 0.0712918 1.34769e-21)
(-0.0387034 0.0780909 0)
(0.00402416 0.0732701 -9.59207e-22)
(0.0792298 0.0601313 8.84804e-23)
(0.194999 0.0636863 -1.16859e-21)
(0.354466 0.0418017 -1.22597e-22)
(0.564243 0.067199 9.06263e-22)
(0.730461 0.0571951 0)
(1.04797 0.0842441 1.15581e-21)
(-0.0323793 0.0386646 -1.4755e-21)
(-0.0502059 0.0673636 -8.01258e-23)
(-0.0323259 0.0723439 -1.29697e-22)
(0.0232327 0.0661972 1.07278e-22)
(0.12063 0.0537494 -1.4118e-21)
(0.265211 0.0579691 1.16857e-21)
(0.464691 0.0483123 9.87957e-22)
(0.687076 0.0707471 8.01614e-22)
(0.882652 0.073723 1.38854e-21)
(1.14187 0.0935706 -1.0107e-21)
(-0.0345557 0.0372747 1.57311e-21)
(-0.0499962 0.0627869 0)
(-0.0233123 0.0657924 1.17745e-21)
(0.0485628 0.0585974 -1.07513e-22)
(0.173334 0.0483868 2.82194e-21)
(0.352459 0.0550386 0)
(0.585566 0.0587616 -9.87936e-22)
(0.814642 0.0791657 -2.97642e-24)
(1.01294 0.0908576 -1.55852e-21)
(1.20879 0.101447 1.42871e-22)
(-0.0366872 0.0357733 0)
(-0.0485405 0.0576555 1.29407e-21)
(-0.0107004 0.0586614 -1.04746e-21)
(0.0819369 0.051012 0)
(0.239685 0.0451482 -1.41013e-21)
(0.455957 0.0569483 0)
(0.71048 0.0723581 9.70466e-22)
(0.93517 0.0910678 -7.98606e-22)
(1.11473 0.10683 -1.32721e-21)
(1.25226 0.106978 -1.09314e-21)
(-0.0386831 0.0341505 -1.99213e-22)
(-0.045405 0.0520508 -1.13055e-21)
(0.00661011 0.0511975 0)
(0.125369 0.0441689 0)
(0.320942 0.0452742 0)
(0.571051 0.0644342 -1.44639e-22)
(0.831355 0.0879997 -9.71737e-22)
(1.03947 0.104481 -9.9995e-23)
(1.18837 0.120676 1.32721e-21)
(1.27781 0.109598 1.2299e-21)
(-0.0404174 0.0323762 0)
(-0.0400997 0.0460426 -1.31171e-21)
(0.0298496 0.0436823 0)
(0.180717 0.0390821 0)
(0.41625 0.0498207 0)
(0.69016 0.0766829 1.43699e-22)
(0.940937 0.104269 -1.18828e-21)
(1.12338 0.118053 9.43498e-23)
(1.23823 0.13138 9.45099e-22)
(1.29205 0.109058 1.0439e-21)
(-0.0417506 0.0304263 0)
(-0.0320623 0.0396708 1.3117e-21)
(0.060366 0.0364824 -1.0687e-21)
(0.249196 0.0370388 0)
(0.521999 0.0591128 -1.40718e-21)
(0.805209 0.0919878 0)
(1.03473 0.120035 9.50097e-22)
(1.18695 0.130733 -7.64636e-22)
(1.27011 0.138237 -1.26566e-21)
(1.31231 0.118912 -1.03974e-21)
(-0.0425306 0.0282655 1.66806e-21)
(-0.0206696 0.0329512 0)
(0.0995697 0.0301623 9.36264e-22)
(0.330671 0.0392905 1.09537e-22)
(0.632339 0.0724764 2.81454e-21)
(0.90996 0.108634 0)
(1.11124 0.134673 -9.27414e-22)
(1.23272 0.141639 -1.51584e-21)
(1.29215 0.145203 -1.05673e-21)
(1.31864 0.124163 -4.94729e-24)
(-0.0425725 0.0258436 -1.77168e-21)
(-0.00523127 0.0259133 8.50535e-23)
(0.148747 0.0256036 1.33161e-22)
(0.42307 0.0464892 -1.1014e-22)
(0.740851 0.0885946 -1.40736e-21)
(1.00093 0.125383 1.13678e-21)
(1.17117 0.147855 9.2741e-22)
(1.26477 0.151313 7.51207e-22)
(1.30433 0.150694 1.20718e-21)
(1.31967 0.129662 -1.07011e-21)
(-0.041677 0.0231131 1.04981e-22)
(0.0150465 0.0186372 1.27842e-21)
(0.208702 0.0239927 0)
(0.522452 0.0583099 -7.66098e-22)
(0.842279 0.106134 -8.92609e-23)
(1.07704 0.141498 -1.13677e-21)
(1.21658 0.15966 1.11367e-22)
(1.28583 0.159692 6.28216e-22)
(1.31038 0.155786 0)
(1.3179 0.134449 9.5211e-22)
(-0.0396309 0.0200304 -1.08256e-22)
(0.041061 0.0113513 -1.36458e-21)
(0.279295 0.0265178 0)
(0.623902 0.0736682 1.0273e-22)
(0.933322 0.124112 -8.95103e-23)
(1.13881 0.156642 0)
(1.24977 0.1702 -8.87566e-22)
(1.29877 0.167148 -7.21434e-22)
(1.31196 0.160361 -1.38547e-22)
(1.31332 0.138968 -1.16544e-22)
(-0.03619 0.0165564 0)
(0.0737395 0.00456971 -1.57219e-21)
(0.359123 0.0338604 1.40981e-22)
(0.722752 0.0913166 -5.4796e-24)
(1.0125 0.141931 -7.02182e-22)
(1.18759 0.170708 -1.24418e-21)
(1.27308 0.179682 1.00091e-21)
(1.30569 0.173867 0)
(1.31044 0.1647 0)
(1.30786 0.143365 0)
(-0.0310493 0.0126663 2.35129e-24)
(0.113871 -0.00080981 1.31816e-21)
(0.445603 0.0458761 1.42726e-22)
(0.815445 0.11027 9.92594e-22)
(1.07961 0.159271 6.12203e-22)
(1.2251 0.183724 -1.21431e-22)
(1.2886 0.188305 8.63297e-22)
(1.30826 0.180085 -5.84556e-22)
(1.30695 0.168888 -6.58399e-22)
(1.3014 0.147707 5.29584e-22)
(-0.0238162 0.00837387 8.17616e-22)
(0.161868 -0.00356669 9.20108e-23)
(0.535458 0.0617495 -1.1406e-21)
(0.899781 0.129879 -8.94114e-22)
(1.13523 0.175977 0)
(1.25311 0.195788 1.096e-21)
(1.29808 0.19627 -1.6839e-23)
(1.30772 0.185966 7.5291e-22)
(1.30206 0.17303 4.60389e-22)
(1.29458 0.152059 -4.19739e-22)
(-0.014008 0.00376929 -1.88165e-21)
(0.217534 -0.0024387 0)
(0.62536 0.080456 2.298e-21)
(0.974717 0.149755 7.85511e-22)
(1.18036 0.191997 9.01416e-23)
(1.27326 0.207034 0)
(1.30296 0.203758 -8.39767e-22)
(1.30497 0.191647 6.3753e-22)
(1.29628 0.177181 4.96083e-22)
(1.28742 0.156448 -3.91367e-22)
(-0.00108443 -0.000937072 9.51939e-22)
(0.279974 0.0034798 7.42499e-22)
(0.712435 0.101136 -1.29853e-21)
(1.04002 0.169693 1.16733e-22)
(1.21616 0.207341 0)
(1.28701 0.217606 0)
(1.30436 0.210922 0)
(1.30066 0.197225 -1.25678e-21)
(1.28987 0.181381 -4.96087e-22)
(1.28007 0.160878 3.91349e-22)
(0.0154703 -0.00536957 8.80579e-22)
(0.3477 0.0144656 -7.36629e-22)
(0.794489 0.123199 7.5612e-23)
(1.09593 0.189594 0)
(1.24384 0.222055 6.81595e-22)
(1.29561 0.227645 4.53055e-22)
(1.30313 0.217886 5.20868e-23)
(1.29522 0.202765 -5.45134e-23)
(1.283 0.185649 1.18636e-22)
(1.27253 0.165352 -4.79734e-23)
(0.0360201 -0.00896853 -9.99543e-22)
(0.418878 0.0301836 9.31698e-23)
(0.870027 0.146257 5.98776e-22)
(1.14299 0.209398 -1.67089e-22)
(1.26454 0.236203 -5.11266e-22)
(1.30009 0.237278 -6.43843e-22)
(1.29992 0.224743 5.09471e-23)
(1.28893 0.208306 3.09963e-22)
(1.27577 0.189991 0)
(1.26483 0.169852 -4.26419e-23)
(0.0607081 -0.0110497 -6.47086e-23)
(0.491589 0.0499376 0)
(0.938173 0.170032 5.98805e-24)
(1.18185 0.229048 0)
(1.2793 0.249855 6.64364e-22)
(1.30127 0.246613 -4.93929e-22)
(1.29519 0.231557 0)
(1.282 0.213871 1.01632e-23)
(1.26824 0.194402 0)
(1.25696 0.174364 0)
(0.089442 -0.0109135 -1.29307e-22)
(0.564029 0.0729686 8.45532e-22)
(0.998547 0.194322 -6.82138e-22)
(1.21322 0.248481 1.12924e-22)
(1.28906 0.263082 -3.03555e-22)
(1.29981 0.255739 -5.27666e-23)
(1.28926 0.238365 0)
(1.27452 0.219463 2.14424e-22)
(1.26042 0.19887 5.51977e-23)
(1.24889 0.178864 1.58054e-22)
(0.121893 -0.00797168 -5.43874e-22)
(0.634598 0.0986274 -3.41477e-22)
(1.05113 0.218976 -1.12302e-22)
(1.23781 0.267634 4.50785e-22)
(1.29459 0.27595 3.72451e-23)
(1.29622 0.26472 4.81675e-22)
(1.28237 0.245187 0)
(1.26658 0.225074 -2.58639e-22)
(1.25232 0.203374 4.80875e-23)
(1.24062 0.183329 -3.48464e-22)
(0.157538 -0.00185185 -5.43873e-22)
(0.701934 0.126405 3.54807e-22)
(1.09615 0.243875 -4.24871e-24)
(1.25632 0.286442 -5.24825e-22)
(1.29655 0.28851 -2.77591e-22)
(1.29089 0.2736 -2.72268e-23)
(1.27466 0.252021 2.27333e-23)
(1.25819 0.230687 2.88773e-22)
(1.24393 0.207894 -2.43178e-24)
(1.23212 0.187729 1.13364e-22)
(0.195711 0.00756151 -2.79846e-22)
(0.764913 0.15589 0)
(1.13399 0.268911 -3.06005e-22)
(1.26941 0.304854 0)
(1.29549 0.300802 -3.49573e-22)
(1.28411 0.282404 3.01784e-23)
(1.26622 0.258855 0)
(1.24938 0.236276 0)
(1.23524 0.212402 0)
(1.22337 0.192036 0)
(0.235658 0.0201622 2.45442e-22)
(0.822652 0.18671 1.18863e-22)
(1.1651 0.293974 3.06006e-22)
(1.27767 0.322832 0)
(1.29185 0.312847 0)
(1.27607 0.291135 -1.26035e-23)
(1.25713 0.265662 4.85435e-23)
(1.24015 0.241813 5.56587e-23)
(1.22624 0.216868 5.15938e-23)
(1.21439 0.196217 -8.54489e-24)
(0.276581 0.0357061 -4.4368e-24)
(0.87455 0.218504 -1.1125e-22)
(1.18995 0.318944 5.09573e-24)
(1.28166 0.340355 6.04446e-24)
(1.28597 0.324653 -9.24849e-24)
(1.26694 0.299781 3.5231e-24)
(1.24741 0.27241 -4.23723e-23)
(1.23049 0.247262 -5.20168e-23)
(1.21693 0.221255 -3.90517e-23)
(1.20519 0.200234 1.5724e-24)
(0.317675 0.0538907 0)
(0.920314 0.250935 -1.12053e-22)
(1.20891 0.343696 -3.47218e-24)
(1.28184 0.357405 7.07003e-24)
(1.27813 0.336214 1.27054e-37)
(1.25681 0.308312 -8.95018e-38)
(1.23708 0.279057 -3.81048e-23)
(1.2204 0.252587 -4.55446e-23)
(1.20728 0.225519 -3.59736e-23)
(1.19578 0.204054 0)
(0.358156 0.0744026 3.21211e-22)
(0.959866 0.283719 9.18897e-23)
(1.22237 0.368114 3.04925e-22)
(1.27862 0.373949 -1.37993e-23)
(1.26856 0.347506 0)
(1.24576 0.316687 1.08165e-23)
(1.22616 0.285556 2.49722e-23)
(1.20986 0.257747 4.89781e-23)
(1.19729 0.22961 2.78361e-23)
(1.18616 0.207651 6.83955e-24)
(0.397283 0.096948 -2.86252e-22)
(0.993222 0.316597 0)
(1.23073 0.392072 -2.88245e-22)
(1.27236 0.389946 0)
(1.25742 0.358491 -2.93749e-23)
(1.23383 0.324856 2.44594e-23)
(1.21465 0.291856 0)
(1.19888 0.262701 0)
(1.18697 0.233489 0)
(1.17626 0.211011 0)
(0.434373 0.121255 5.67282e-22)
(1.02048 0.349332 -3.64668e-22)
(1.23435 0.415442 -7.01623e-23)
(1.26334 0.405351 -2.88716e-22)
(1.24486 0.369117 -2.69019e-22)
(1.22105 0.332758 1.8861e-23)
(1.20254 0.297906 -1.57481e-23)
(1.18743 0.267398 1.32792e-22)
(1.17636 0.237128 2.21773e-24)
(1.16602 0.214107 9.84853e-23)
(0.468816 0.147062 -5.67283e-22)
(1.04179 0.381699 -4.40321e-22)
(1.23358 0.438097 9.78295e-23)
(1.25184 0.42011 3.45366e-22)
(1.23097 0.379321 -1.6708e-23)
(1.20746 0.340329 2.91069e-22)
(1.18982 0.303649 0)
(1.17552 0.271777 -1.51363e-22)
(1.16548 0.240515 -2.36715e-23)
(1.15543 0.21694 -1.2479e-22)
(0.500088 0.174098 1.35082e-22)
(1.05733 0.413482 7.52509e-22)
(1.22873 0.459903 -4.40144e-22)
(1.23809 0.43416 -8.37248e-23)
(1.21585 0.389035 -2.02461e-22)
(1.19306 0.347501 4.43947e-23)
(1.17652 0.30903 -2.63253e-23)
(1.16318 0.275774 1.48143e-22)
(1.15433 0.243625 -2.46645e-23)
(1.14457 0.219493 6.72007e-23)
(0.527758 0.202074 6.83768e-23)
(1.06731 0.444464 0)
(1.22009 0.480727 2.71615e-23)
(1.22227 0.447431 0)
(1.19954 0.398181 4.04318e-22)
(1.1779 0.354201 -2.64354e-22)
(1.16266 0.313988 0)
(1.15048 0.279351 -1.70344e-23)
(1.14283 0.246393 0)
(1.13354 0.2217 0)
(0.551488 0.230674 -1.05049e-21)
(1.07196 0.474427 -8.15337e-23)
(1.20794 0.500432 5.37163e-22)
(1.20455 0.459843 6.20676e-23)
(1.18211 0.406671 -4.20265e-22)
(1.16203 0.360351 -1.49895e-22)
(1.14828 0.318456 -2.06406e-23)
(1.13742 0.282484 8.78462e-23)
(1.13094 0.248778 -1.77638e-23)
(1.12232 0.223528 9.75051e-24)
(0.571032 0.259563 1.16944e-21)
(1.0715 0.503148 -7.05346e-22)
(1.19254 0.518876 -1.55979e-22)
(1.18505 0.471307 7.65979e-23)
(1.16366 0.414417 3.29946e-22)
(1.1455 0.365874 2.28029e-22)
(1.13338 0.322378 -1.76201e-23)
(1.12399 0.285136 -1.91046e-23)
(1.11872 0.250741 -2.48736e-23)
(1.11094 0.224935 8.9979e-24)
(0.586231 0.288387 9.69575e-22)
(1.06618 0.530403 6.84647e-22)
(1.17409 0.535909 -6.57057e-22)
(1.16396 0.481724 -6.96332e-23)
(1.14433 0.421343 0)
(1.1283 0.370688 0)
(1.11797 0.325693 0)
(1.11022 0.287264 -2.27879e-22)
(1.10621 0.25225 -5.59724e-23)
(1.09941 0.225889 2.64899e-23)
(0.597013 0.316783 -1.88784e-21)
(1.05627 0.555971 0)
(1.15282 0.551365 1.40446e-21)
(1.14149 0.491 3.72303e-22)
(1.12414 0.427362 0)
(1.11043 0.374722 0)
(1.10211 0.328339 -1.15946e-22)
(1.09612 0.288825 9.54907e-23)
(1.09343 0.253268 5.59729e-23)
(1.08776 0.226358 -2.64889e-23)
(0.603382 0.344385 1.01795e-21)
(1.04204 0.57965 -8.18251e-23)
(1.12897 0.565074 -6.63217e-22)
(1.11775 0.499013 -4.07759e-22)
(1.10309 0.432393 2.94279e-23)
(1.09195 0.377904 1.53516e-22)
(1.08582 0.330257 5.13697e-23)
(1.08172 0.28978 1.58601e-23)
(1.08042 0.253762 9.03445e-26)
(1.07601 0.226313 1.84938e-23)
(0.605414 0.370826 -1.19192e-23)
(1.02383 0.601241 9.9882e-22)
(1.10282 0.576924 -8.75719e-23)
(1.09277 0.5056 2.18012e-22)
(1.08127 0.436361 1.06899e-22)
(1.07291 0.380165 -3.8362e-23)
(1.06917 0.331392 5.82974e-23)
(1.06705 0.290088 -2.13871e-23)
(1.06721 0.253697 -9.28709e-24)
(1.06419 0.225727 -1.30151e-23)
(0.603256 0.395744 0)
(1.00189 0.6205 -8.75764e-22)
(1.07464 0.586821 -7.57832e-23)
(1.06666 0.510641 -6.74869e-23)
(1.05877 0.439161 -1.09799e-22)
(1.0534 0.381442 -8.07771e-23)
(1.0522 0.331692 -4.68154e-23)
(1.05216 0.289713 0)
(1.05384 0.253038 0)
(1.05236 0.224565 0)
(0.59711 0.418823 8.5262e-23)
(0.976346 0.637095 -7.12027e-22)
(1.04474 0.594694 0)
(1.03958 0.514059 -8.19363e-23)
(1.03565 0.440703 1.00085e-23)
(1.03346 0.381675 0)
(1.03496 0.331109 4.13299e-23)
(1.0371 0.288621 9.96399e-23)
(1.04033 0.25175 -2.08701e-23)
(1.04053 0.222783 1.75295e-23)
(0.587199 0.43984 -6.27054e-23)
(0.947455 0.65075 7.63502e-22)
(1.01339 0.600394 0)
(1.01167 0.515807 -1.12341e-22)
(1.01203 0.440904 3.10464e-24)
(1.01319 0.380805 1.38431e-22)
(1.01753 0.329604 1.65474e-23)
(1.02189 0.28678 -1.13491e-22)
(1.02671 0.249799 0)
(1.02877 0.22034 -2.17098e-22)
(0.57373 0.458557 -8.70892e-22)
(0.915691 0.661348 -4.23844e-23)
(0.980759 0.603726 -1.01552e-23)
(0.98306 0.515816 8.40011e-24)
(0.987985 0.43969 1.87902e-22)
(0.992656 0.378781 -1.38432e-22)
(0.999959 0.327139 -2.054e-22)
(1.00659 0.284159 -1.80768e-22)
(1.01303 0.247156 -3.09444e-22)
(1.01719 0.21723 1.90001e-22)
(0.556834 0.474612 9.2253e-22)
(0.881592 0.668853 0)
(0.947067 0.604565 -6.40244e-24)
(0.953914 0.514018 1.67654e-24)
(0.963631 0.437001 -4.82224e-22)
(0.971953 0.375557 0)
(0.982316 0.323683 2.05401e-22)
(0.991215 0.28072 -4.08317e-23)
(0.999393 0.243795 3.51625e-22)
(1.00609 0.213492 -3.54226e-23)
(0.536758 0.487614 0)
(0.84554 0.673115 1.2239e-22)
(0.912522 0.602844 4.37566e-24)
(0.924383 0.510344 0)
(0.939077 0.432786 2.94323e-22)
(0.951168 0.371093 0)
(0.964654 0.31921 -3.16073e-22)
(0.975826 0.276424 2.21603e-22)
(0.985969 0.239674 4.29233e-22)
(0.995757 0.209193 3.3815e-22)
(0.513971 0.497386 -3.05309e-23)
(0.807883 0.673998 -9.73292e-23)
(0.877356 0.598503 0)
(0.894624 0.504733 0)
(0.914443 0.427003 0)
(0.930392 0.36536 5.10702e-23)
(0.947036 0.313702 2.30821e-22)
(0.960512 0.271246 3.56668e-23)
(0.972951 0.234737 -4.29235e-22)
(0.986093 0.204282 -3.79721e-22)
(0.488893 0.503759 0)
(0.768966 0.671388 1.92735e-22)
(0.841806 0.591501 0)
(0.864798 0.497135 0)
(0.889849 0.419622 0)
(0.90972 0.358336 -5.9994e-23)
(0.929535 0.307142 5.24997e-22)
(0.945398 0.26519 -1.19889e-22)
(0.96042 0.228998 -4.14626e-22)
(0.976424 0.197267 -4.17893e-22)
(0.461934 0.506602 0)
(0.729149 0.665206 -1.92736e-22)
(0.806117 0.581809 4.41408e-22)
(0.835072 0.487514 0)
(0.865423 0.410623 7.22728e-22)
(0.889246 0.350005 0)
(0.91224 0.299518 -4.25842e-22)
(0.930597 0.258269 3.81255e-22)
(0.948127 0.222914 5.42538e-22)
(0.965468 0.19222 4.1663e-22)
(0.433508 0.505821 -3.7088e-22)
(0.688798 0.655406 0)
(0.770531 0.569418 -3.76283e-22)
(0.805616 0.475849 -5.38725e-23)
(0.841291 0.399995 -1.55041e-21)
(0.869069 0.340361 0)
(0.895244 0.290815 5.32532e-22)
(0.916174 0.250407 3.78478e-23)
(0.936188 0.215766 5.76578e-22)
(0.954928 0.185723 2.34147e-24)
(0.404023 0.501366 4.08091e-22)
(0.648277 0.64197 -3.05442e-23)
(0.735292 0.554337 -7.76533e-23)
(0.776601 0.462134 -6.42331e-23)
(0.817583 0.387741 8.27686e-22)
(0.849292 0.329406 -7.41522e-22)
(0.87863 0.281051 -5.32535e-22)
(0.902135 0.241703 -4.19107e-22)
(0.924446 0.208035 -6.51427e-22)
(0.944375 0.178998 6.04681e-22)
(0.373885 0.493225 -5.03708e-23)
(0.607949 0.624913 -7.83068e-22)
(0.700641 0.536592 0)
(0.748199 0.44638 5.62981e-22)
(0.794429 0.373874 6.19293e-23)
(0.830018 0.317151 7.41527e-22)
(0.862488 0.270228 -7.36308e-23)
(0.888549 0.232107 -4.29803e-22)
(0.913047 0.199514 0)
(0.934123 0.171571 -5.3946e-22)
(0.343492 0.481422 5.86362e-23)
(0.56817 0.604278 8.24418e-22)
(0.666813 0.516229 0)
(0.72058 0.428613 -1.26099e-23)
(0.771958 0.358418 6.87581e-23)
(0.81135 0.303619 0)
(0.846895 0.258372 6.82041e-22)
(0.875453 0.221672 4.91434e-22)
(0.90201 0.190336 9.34938e-23)
(0.924225 0.163602 -7.85321e-23)
(0.313231 0.466022 0)
(0.529288 0.580139 1.25839e-21)
(0.634038 0.493311 -1.11358e-22)
(0.693914 0.408875 6.76551e-23)
(0.7503 0.341409 6.10697e-22)
(0.793391 0.288839 1.05513e-21)
(0.83193 0.245505 -7.73995e-22)
(0.862906 0.210407 0)
(0.891406 0.18048 0)
(0.914765 0.155047 0)
(0.283474 0.447122 2.46062e-24)
(0.49164 0.552595 -1.04398e-21)
(0.602539 0.467921 1.24977e-22)
(0.668363 0.387225 -8.73878e-22)
(0.72958 0.322896 -5.29019e-22)
(0.776239 0.272851 1.79537e-22)
(0.81767 0.231666 -7.79858e-22)
(0.850965 0.198349 5.13998e-22)
(0.881288 0.169986 5.53219e-22)
(0.905796 0.145942 -4.30724e-22)
(0.254581 0.424861 -7.37706e-22)
(0.455546 0.521771 -8.20803e-23)
(0.572531 0.440156 1.15356e-21)
(0.644086 0.363734 9.0136e-22)
(0.70992 0.302937 0)
(0.759991 0.255705 -1.00704e-21)
(0.804188 0.216892 -4.11562e-23)
(0.839684 0.185531 -6.6154e-22)
(0.87171 0.158875 -3.87906e-22)
(0.897365 0.136307 3.42737e-22)
(0.226891 0.39942 1.76981e-21)
(0.421303 0.487806 0)
(0.544218 0.410132 -2.39208e-21)
(0.621237 0.338489 -7.88899e-22)
(0.691439 0.281602 -9.33545e-23)
(0.744739 0.237458 0)
(0.791554 0.201232 8.12922e-22)
(0.829118 0.171993 -6.45756e-22)
(0.862722 0.14718 -4.89419e-22)
(0.889513 0.126174 3.73102e-22)
(0.200718 0.371023 -9.32113e-22)
(0.389188 0.450858 -8.21813e-22)
(0.517802 0.377975 1.39333e-21)
(0.599959 0.311592 -1.28063e-22)
(0.674248 0.258971 0)
(0.730571 0.218176 0)
(0.779836 0.184741 0)
(0.819321 0.157781 1.31662e-21)
(0.854375 0.134933 4.89421e-22)
(0.882273 0.115576 -3.73101e-22)
(0.176334 0.33989 -9.6977e-22)
(0.359468 0.41114 8.18728e-22)
(0.493473 0.343831 8.62089e-23)
(0.58039 0.283158 0)
(0.658455 0.235136 -8.06312e-22)
(0.717569 0.197933 -5.37062e-22)
(0.769096 0.167477 -5.95837e-23)
(0.810343 0.142942 1.04248e-22)
(0.846714 0.122175 -1.29945e-22)
(0.875676 0.104553 5.18032e-23)
(0.153975 0.306227 1.101e-21)
(0.332397 0.368905 -1.10492e-22)
(0.471407 0.307862 -9.03874e-22)
(0.562658 0.253314 2.00801e-22)
(0.644156 0.210196 6.00287e-22)
(0.705809 0.17681 7.64038e-22)
(0.759392 0.149506 -6.16928e-23)
(0.80223 0.127531 -3.36621e-22)
(0.839783 0.108947 0)
(0.869749 0.0931448 4.86243e-23)
(0.133866 0.270262 7.55411e-23)
(0.308202 0.324417 0)
(0.451757 0.27025 -2.86241e-23)
(0.546878 0.2222 0)
(0.631441 0.184259 -8.62456e-22)
(0.695361 0.154894 6.47252e-22)
(0.750778 0.1309 0)
(0.795026 0.111603 9.00153e-24)
(0.833621 0.0952972 0)
(0.864516 0.0813973 0)
(0.116217 0.232254 1.5669e-22)
(0.287083 0.277948 -1.06801e-21)
(0.434659 0.231189 8.47992e-22)
(0.533154 0.189965 -1.45628e-22)
(0.620389 0.157442 3.7337e-22)
(0.686285 0.132279 1.02318e-22)
(0.743302 0.111733 0)
(0.788771 0.0952191 -2.77962e-22)
(0.828265 0.0812753 -7.39429e-23)
(0.859996 0.0693568 -2.13411e-22)
(0.101214 0.192485 6.70446e-22)
(0.269214 0.229777 -1.5841e-21)
(0.420229 0.190883 1.45858e-22)
(0.521577 0.156766 -6.08802e-22)
(0.611071 0.129869 -6.83563e-23)
(0.678636 0.109063 -6.62817e-22)
(0.737005 0.0920849 0)
(0.783501 0.0784457 3.80189e-22)
(0.823748 0.0669347 -6.77657e-23)
(0.856206 0.05707 4.87036e-22)
(0.0890168 0.151253 -6.70446e-22)
(0.254741 0.180198 5.81158e-22)
(0.408565 0.149548 -1.00812e-22)
(0.512221 0.122769 7.14124e-22)
(0.603544 0.101668 3.91619e-22)
(0.672461 0.0853499 4.05244e-23)
(0.731922 0.0720392 -3.38357e-23)
(0.779245 0.0613505 -4.25758e-22)
(0.820098 0.0523322 3.86126e-24)
(0.853159 0.0445845 -1.61789e-22)
(0.0797543 0.108869 3.50896e-22)
(0.243782 0.129511 0)
(0.399747 0.107403 4.1413e-22)
(0.50515 0.0881446 0)
(0.597857 0.0729755 5.49615e-23)
(0.667797 0.0612458 -4.57639e-23)
(0.728084 0.0516813 0)
(0.77603 0.0440031 0)
(0.817339 0.0375257 0)
(0.850865 0.0319484 0)
(0.0735245 0.0656552 -3.07398e-22)
(0.236426 0.0780272 -1.18289e-22)
(0.393835 0.0646757 -4.1413e-22)
(0.50041 0.0530684 0)
(0.594045 0.0439279 0)
(0.664671 0.0368606 2.06802e-23)
(0.725513 0.031099 -8.24737e-23)
(0.773876 0.0264745 -9.77328e-23)
(0.815488 0.0225736 -9.10398e-23)
(0.849331 0.0192087 1.46845e-23)
(0.0703931 0.0219409 -5.56535e-24)
(0.232732 0.0260626 1.27611e-22)
(0.390868 0.0215977 -5.69919e-24)
(0.498032 0.0177198 1.96649e-23)
(0.592133 0.0146665 -7.74488e-24)
(0.663104 0.0123057 0)
(0.724224 0.0103814 6.52068e-23)
(0.772795 0.00883698 9.77329e-23)
(0.814559 0.00753421 6.91709e-23)
(0.848563 0.00640934 1.03173e-23)
(0.0703931 -0.0219409 -5.56535e-24)
(0.232732 -0.0260626 1.27611e-22)
(0.390868 -0.0215977 -5.69919e-24)
(0.498032 -0.0177198 1.96649e-23)
(0.592133 -0.0146665 -7.74488e-24)
(0.663104 -0.0123057 0)
(0.724224 -0.0103814 5.7444e-23)
(0.772795 -0.00883698 1.0423e-22)
(0.814559 -0.00753421 7.35568e-23)
(0.848563 -0.00640934 0)
(0.0735245 -0.0656552 -3.94395e-22)
(0.236426 -0.0780272 -1.53426e-22)
(0.393835 -0.0646757 -4.38986e-22)
(0.50041 -0.0530684 2.05602e-23)
(0.594045 -0.0439279 0)
(0.664671 -0.0368606 -2.06802e-23)
(0.725513 -0.031099 -4.79399e-23)
(0.773876 -0.0264745 -9.77328e-23)
(0.815488 -0.0225736 -5.60738e-23)
(0.849331 -0.0192087 -1.46845e-23)
(0.0797543 -0.108869 3.50896e-22)
(0.243782 -0.129511 0)
(0.399747 -0.107403 4.1413e-22)
(0.50515 -0.0881446 0)
(0.597857 -0.0729755 5.49615e-23)
(0.667797 -0.0612458 -4.57639e-23)
(0.728084 -0.0516813 0)
(0.77603 -0.0440031 0)
(0.817339 -0.0375257 0)
(0.850865 -0.0319484 0)
(0.0890168 -0.151253 -6.70446e-22)
(0.254741 -0.180198 4.53934e-22)
(0.408565 -0.149548 1.00812e-22)
(0.512221 -0.122769 4.89009e-22)
(0.603544 -0.101668 5.12015e-22)
(0.672461 -0.0853499 -4.05244e-23)
(0.731922 -0.0720392 3.38357e-23)
(0.779245 -0.0613505 -3.34621e-22)
(0.820098 -0.0523322 -3.86126e-24)
(0.853159 -0.0445845 -2.71625e-22)
(0.101214 -0.192485 6.70446e-22)
(0.269214 -0.229777 5.49005e-22)
(0.420229 -0.190883 -1.45858e-22)
(0.521577 -0.156766 -5.94329e-22)
(0.611071 -0.129869 4.97169e-23)
(0.678636 -0.109063 -6.62817e-22)
(0.737005 -0.0920849 0)
(0.783501 -0.0784457 3.80189e-22)
(0.823748 -0.0669347 6.77657e-23)
(0.856206 -0.05707 3.73199e-22)
(0.116217 -0.232254 -1.5669e-22)
(0.287083 -0.277948 1.06801e-21)
(0.434659 -0.231189 6.63663e-22)
(0.533154 -0.189965 1.45628e-22)
(0.620389 -0.157442 4.66555e-22)
(0.686285 -0.132279 -1.49275e-22)
(0.743302 -0.111733 6.51935e-23)
(0.788771 -0.0952191 -4.54264e-22)
(0.828265 -0.0812753 7.39429e-23)
(0.859996 -0.0693568 -2.13411e-22)
(0.133866 -0.270262 -7.55411e-23)
(0.308202 -0.324417 0)
(0.451757 -0.27025 -2.86241e-23)
(0.546878 -0.2222 0)
(0.631441 -0.184259 -8.62456e-22)
(0.695361 -0.154894 6.47252e-22)
(0.750778 -0.1309 0)
(0.795026 -0.111603 9.00153e-24)
(0.833621 -0.0952972 0)
(0.864516 -0.0813973 0)
(0.153975 -0.306227 1.101e-21)
(0.332397 -0.368905 1.10492e-22)
(0.471407 -0.307862 -6.36165e-22)
(0.562658 -0.253314 -1.29963e-22)
(0.644156 -0.210196 1.01234e-21)
(0.705809 -0.17681 4.52814e-22)
(0.759392 -0.149506 6.16928e-23)
(0.80223 -0.127531 -4.20552e-22)
(0.839783 -0.108947 7.04032e-23)
(0.869749 -0.0931448 -4.86243e-23)
(0.176334 -0.33989 -1.23223e-21)
(0.359468 -0.41114 8.24902e-22)
(0.493473 -0.343831 7.72387e-23)
(0.58039 -0.283158 -1.35201e-22)
(0.658455 -0.235136 -8.06312e-22)
(0.717569 -0.197933 -6.79787e-22)
(0.769096 -0.167477 5.95837e-23)
(0.810343 -0.142942 -5.85273e-23)
(0.846714 -0.122175 1.29945e-22)
(0.875676 -0.104553 -5.18032e-23)
(0.200718 -0.371023 -9.32113e-22)
(0.389188 -0.450858 -8.21813e-22)
(0.517802 -0.377975 1.0837e-21)
(0.599959 -0.311592 1.28063e-22)
(0.674248 -0.258971 0)
(0.730571 -0.218176 0)
(0.779836 -0.184741 0)
(0.819321 -0.157781 1.31662e-21)
(0.854375 -0.134933 4.89421e-22)
(0.882273 -0.115576 -3.73101e-22)
(0.226891 -0.39942 1.76981e-21)
(0.421303 -0.487806 0)
(0.544218 -0.410132 -2.39208e-21)
(0.621237 -0.338489 -9.01363e-22)
(0.691439 -0.281602 0)
(0.744739 -0.237458 0)
(0.791554 -0.201232 8.12922e-22)
(0.829118 -0.171993 -6.45756e-22)
(0.862722 -0.14718 -4.89419e-22)
(0.889513 -0.126174 3.73102e-22)
(0.254581 -0.424861 -9.37691e-22)
(0.455546 -0.521771 8.20803e-23)
(0.572531 -0.440156 1.15356e-21)
(0.644086 -0.363734 1.007e-21)
(0.70992 -0.302937 -8.76928e-23)
(0.759991 -0.255705 -1.00704e-21)
(0.804188 -0.216892 -4.11562e-23)
(0.839684 -0.185531 -5.1714e-22)
(0.87171 -0.158875 -5.09033e-22)
(0.897365 -0.136307 3.42737e-22)
(0.283474 -0.447122 -2.46062e-24)
(0.49164 -0.552595 -1.20248e-21)
(0.602539 -0.467921 -1.24977e-22)
(0.668363 -0.387225 -6.77076e-22)
(0.72958 -0.322896 -5.39534e-22)
(0.776239 -0.272851 -1.82742e-22)
(0.81767 -0.231666 -7.6366e-22)
(0.850965 -0.198349 6.64677e-22)
(0.881288 -0.169986 3.43717e-22)
(0.905796 -0.145942 -2.54751e-22)
(0.313231 -0.466022 0)
(0.529288 -0.580139 9.88069e-22)
(0.634038 -0.493311 1.11358e-22)
(0.693914 -0.408875 6.76551e-23)
(0.7503 -0.341409 6.10697e-22)
(0.793391 -0.288839 8.34874e-22)
(0.83193 -0.245505 -6.74894e-22)
(0.862906 -0.210407 7.09769e-23)
(0.891406 -0.18048 0)
(0.914765 -0.155047 0)
(0.343492 -0.481422 -5.86362e-23)
(0.56817 -0.604278 8.24418e-22)
(0.666813 -0.516229 0)
(0.72058 -0.428613 1.53057e-22)
(0.771958 -0.358418 -6.87581e-23)
(0.81135 -0.303619 0)
(0.846895 -0.258372 6.82041e-22)
(0.875453 -0.221672 4.91434e-22)
(0.90201 -0.190336 -9.34938e-23)
(0.924225 -0.163602 7.85321e-23)
(0.373885 -0.493225 5.03708e-23)
(0.607949 -0.624913 -8.65762e-22)