/*--------------------------------*- C++ -*----------------------------------*\
  =========                 |
  \\      /  F ield         | OpenFOAM: The Open Source CFD Toolbox
   \\    /   O peration     | Website:  https://openfoam.org
    \\  /    A nd           | Version:  7
     \\/     M anipulation  |
\*---------------------------------------------------------------------------*/
FoamFile
{
    version     2.0;
    format      ascii;
    class       volScalarField;
    location    "1.9";
    object      p;
}
// * * * * * * * * * * * * * * * * * * * * * * * * * * * * * * * * * * * * * //

dimensions      [0 2 -2 0 0 0 0];

internalField   nonuniform List<scalar> 
306000
(
-0.345641
-0.354386
-0.357213
-0.361363
-0.364345
-0.36748
-0.370535
-0.373775
-0.377205
-0.380861
-0.384721
-0.388747
-0.392878
-0.397042
-0.401154
-0.405125
-0.408858
-0.412254
-0.41521
-0.417623
-0.41939
-0.42041
-0.420585
-0.419822
-0.418033
-0.415137
-0.411067
-0.40576
-0.399172
-0.391269
-0.382034
-0.371467
-0.359582
-0.346415
-0.332019
-0.316464
-0.299838
-0.282246
-0.263808
-0.244658
-0.22494
-0.204808
-0.184421
-0.163941
-0.143531
-0.12335
-0.10355
-0.0842755
-0.0656601
-0.0478234
-0.0308699
-0.0148881
5.00717e-05
0.0138895
0.0265917
0.0381347
0.0485078
0.0577275
0.065778
0.0727962
-0.345753
-0.354487
-0.357311
-0.361457
-0.364437
-0.36757
-0.370624
-0.373864
-0.377293
-0.38095
-0.384811
-0.388838
-0.392971
-0.397136
-0.401252
-0.405226
-0.408962
-0.412362
-0.415323
-0.417741
-0.419513
-0.420539
-0.420721
-0.419964
-0.418181
-0.415294
-0.41123
-0.405932
-0.399351
-0.391456
-0.382228
-0.371668
-0.35979
-0.34663
-0.332239
-0.316689
-0.300068
-0.28248
-0.264045
-0.244897
-0.225181
-0.20505
-0.184662
-0.164181
-0.143769
-0.123585
-0.103782
-0.0845039
-0.0658844
-0.0480431
-0.0310847
-0.0150978
-0.000154271
0.0136907
0.0263985
0.0379474
0.0483264
0.0575528
0.0656084
0.0726378
-0.345976
-0.354688
-0.357506
-0.361645
-0.36462
-0.367749
-0.370802
-0.37404
-0.37747
-0.381127
-0.38499
-0.38902
-0.393156
-0.397326
-0.401446
-0.405426
-0.40917
-0.412578
-0.415548
-0.417975
-0.419759
-0.420797
-0.420991
-0.420247
-0.418479
-0.415606
-0.411557
-0.406274
-0.399708
-0.391828
-0.382616
-0.37207
-0.360206
-0.347058
-0.33268
-0.31714
-0.300528
-0.282948
-0.264519
-0.245376
-0.225662
-0.205532
-0.185144
-0.16466
-0.144245
-0.124055
-0.104246
-0.0849603
-0.0663324
-0.0484819
-0.0315138
-0.0155166
-0.000562423
0.0132936
0.0260127
0.0375733
0.0479641
0.0572037
0.0652697
0.0723215
-0.346312
-0.354988
-0.357799
-0.361925
-0.364894
-0.368019
-0.371068
-0.374305
-0.377734
-0.381393
-0.385258
-0.389291
-0.393433
-0.397609
-0.401737
-0.405727
-0.409481
-0.412901
-0.415884
-0.418327
-0.420127
-0.421182
-0.421395
-0.420672
-0.418924
-0.416072
-0.412046
-0.406785
-0.400243
-0.392386
-0.383196
-0.372671
-0.360828
-0.3477
-0.333339
-0.317815
-0.301217
-0.283649
-0.265229
-0.246092
-0.226383
-0.206253
-0.185864
-0.165378
-0.144956
-0.124759
-0.10494
-0.0856434
-0.0670029
-0.0491388
-0.032156
-0.0161435
-0.00117333
0.0126991
0.0254352
0.0370133
0.0474219
0.0566811
0.0647626
0.0718478
-0.346757
-0.355389
-0.358188
-0.362298
-0.365259
-0.368376
-0.371422
-0.374657
-0.378086
-0.381746
-0.385614
-0.389653
-0.393801
-0.397985
-0.402124
-0.406126
-0.409895
-0.41333
-0.416331
-0.418794
-0.420616
-0.421695
-0.421933
-0.421235
-0.419516
-0.416693
-0.412696
-0.407466
-0.400954
-0.393127
-0.383966
-0.37347
-0.361655
-0.348552
-0.334215
-0.318713
-0.302133
-0.28458
-0.266172
-0.247044
-0.22734
-0.207213
-0.186822
-0.166331
-0.145902
-0.125695
-0.105863
-0.0865514
-0.0678942
-0.050012
-0.0330096
-0.0169768
-0.00198541
0.011909
0.0246674
0.0362688
0.0467009
0.0559863
0.0640884
0.0712178
-0.347312
-0.355887
-0.358673
-0.362762
-0.365713
-0.368822
-0.371863
-0.375095
-0.378524
-0.382186
-0.386058
-0.390103
-0.394259
-0.398454
-0.402606
-0.406623
-0.410409
-0.413865
-0.416888
-0.419376
-0.421224
-0.422332
-0.422601
-0.421937
-0.420252
-0.417465
-0.413506
-0.408313
-0.401838
-0.394049
-0.384926
-0.374465
-0.362684
-0.349614
-0.335306
-0.31983
-0.303273
-0.285739
-0.267347
-0.24823
-0.228532
-0.208408
-0.188015
-0.167518
-0.14708
-0.12686
-0.107012
-0.087682
-0.0690041
-0.0510992
-0.0340726
-0.0180143
-0.00299657
0.010925
0.0237115
0.0353418
0.0458031
0.055121
0.0632486
0.0704327
-0.347976
-0.356483
-0.359253
-0.363318
-0.366256
-0.369355
-0.37239
-0.375619
-0.379047
-0.382711
-0.386588
-0.39064
-0.394806
-0.399014
-0.403181
-0.407216
-0.411023
-0.414503
-0.417553
-0.42007
-0.421951
-0.423094
-0.4234
-0.422775
-0.421131
-0.418387
-0.414472
-0.409324
-0.402895
-0.39515
-0.386071
-0.375654
-0.363913
-0.350881
-0.336608
-0.321164
-0.304635
-0.287123
-0.268749
-0.249646
-0.229956
-0.209834
-0.18944
-0.168936
-0.148486
-0.128251
-0.108384
-0.0890323
-0.0703296
-0.0523976
-0.0353422
-0.0192535
-0.00420424
0.00974989
0.0225697
0.0342345
0.0447307
0.0540873
0.0622451
0.0694943
-0.348746
-0.357174
-0.359926
-0.363962
-0.366886
-0.369973
-0.373001
-0.376226
-0.379654
-0.383321
-0.387203
-0.391263
-0.395441
-0.399663
-0.403848
-0.407904
-0.411736
-0.415243
-0.418324
-0.420876
-0.422793
-0.423977
-0.424326
-0.423747
-0.422151
-0.419457
-0.415592
-0.410496
-0.40412
-0.396427
-0.387399
-0.377032
-0.365338
-0.352351
-0.338119
-0.322711
-0.306214
-0.288729
-0.270376
-0.251288
-0.231608
-0.211489
-0.191093
-0.170581
-0.150118
-0.129865
-0.109976
-0.0905989
-0.0718674
-0.0539041
-0.0368151
-0.0206912
-0.00560534
0.00838649
0.021245
0.0329497
0.0434862
0.0528876
0.0610804
0.0684046
-0.349621
-0.35796
-0.36069
-0.364694
-0.367603
-0.370676
-0.373696
-0.376917
-0.380344
-0.384013
-0.387901
-0.391971
-0.396162
-0.400401
-0.404606
-0.408686
-0.412545
-0.416084
-0.4192
-0.421789
-0.42375
-0.424979
-0.425377
-0.42485
-0.423308
-0.42067
-0.416864
-0.411827
-0.40551
-0.397877
-0.388907
-0.378596
-0.366957
-0.35402
-0.339834
-0.324468
-0.308007
-0.290553
-0.272224
-0.253152
-0.233483
-0.213368
-0.192969
-0.172449
-0.151971
-0.131698
-0.111784
-0.0923776
-0.0736135
-0.0556146
-0.0384876
-0.0223237
-0.00719636
0.00683826
0.0197406
0.0314906
0.0420727
0.0515247
0.059757
0.0671657
-0.3506
-0.358839
-0.361545
-0.365513
-0.368403
-0.371461
-0.374472
-0.377688
-0.381114
-0.384786
-0.388681
-0.392761
-0.396966
-0.401224
-0.405451
-0.409558
-0.413448
-0.417021
-0.420177
-0.42281
-0.424817
-0.426097
-0.42655
-0.42608
-0.424599
-0.422025
-0.418283
-0.413312
-0.407062
-0.399495
-0.39059
-0.380342
-0.368763
-0.355882
-0.341749
-0.32643
-0.310009
-0.292588
-0.274286
-0.255234
-0.235577
-0.215467
-0.195065
-0.174534
-0.15404
-0.133745
-0.113803
-0.0943641
-0.0755636
-0.0575249
-0.0403555
-0.0241469
-0.0089733
0.00510904
0.0180603
0.0298607
0.0404936
0.0500019
0.0582781
0.0657803
-0.35168
-0.359809
-0.362488
-0.366416
-0.369285
-0.372326
-0.375327
-0.378538
-0.381963
-0.385638
-0.389541
-0.393632
-0.397853
-0.402131
-0.406383
-0.410519
-0.414442
-0.418054
-0.421253
-0.423933
-0.425993
-0.427328
-0.427841
-0.427436
-0.426021
-0.423516
-0.419846
-0.414948
-0.408771
-0.401277
-0.392444
-0.382266
-0.370753
-0.357935
-0.343858
-0.32859
-0.312214
-0.294831
-0.276559
-0.257529
-0.237884
-0.217779
-0.197374
-0.176833
-0.156321
-0.136
-0.116028
-0.0965533
-0.0777127
-0.0596302
-0.042414
-0.0261564
-0.0109318
0.00320309
0.0162082
0.028064
0.0387526
0.0483227
0.0566469
0.0642513
-0.352859
-0.360867
-0.363517
-0.367401
-0.370248
-0.373271
-0.376261
-0.379465
-0.382889
-0.386568
-0.390478
-0.394582
-0.39882
-0.403119
-0.407398
-0.411565
-0.415526
-0.41918
-0.422425
-0.425157
-0.427273
-0.42867
-0.429248
-0.428912
-0.42757
-0.425141
-0.421549
-0.41673
-0.410633
-0.403219
-0.394464
-0.384361
-0.372921
-0.360171
-0.346157
-0.330945
-0.314618
-0.297276
-0.279036
-0.260029
-0.240399
-0.2203
-0.199891
-0.179338
-0.158806
-0.138459
-0.118454
-0.0989398
-0.0800555
-0.0619252
-0.0446582
-0.0283471
-0.013067
0.00112505
0.0141886
0.0261048
0.0368539
0.046491
0.0548671
0.0625818
-0.354134
-0.362012
-0.36463
-0.368467
-0.37129
-0.374292
-0.37727
-0.380467
-0.38389
-0.387572
-0.39149
-0.395608
-0.399864
-0.404187
-0.408494
-0.412696
-0.416696
-0.420394
-0.42369
-0.426478
-0.428655
-0.430118
-0.430766
-0.430505
-0.429242
-0.426894
-0.423386
-0.418653
-0.412642
-0.405314
-0.396644
-0.386623
-0.375261
-0.362584
-0.348638
-0.333487
-0.317213
-0.299915
-0.28171
-0.262729
-0.243115
-0.223021
-0.202609
-0.182044
-0.161491
-0.141114
-0.121073
-0.101518
-0.0825862
-0.0644045
-0.0470825
-0.0307137
-0.0153738
-0.00112008
0.0120066
0.0239876
0.0348018
0.0445109
0.0529428
0.0607751
-0.355503
-0.363241
-0.365824
-0.36961
-0.372407
-0.375387
-0.378352
-0.381542
-0.384963
-0.388648
-0.392575
-0.396707
-0.400982
-0.40533
-0.409668
-0.413906
-0.417948
-0.421695
-0.425044
-0.427892
-0.430134
-0.431667
-0.432392
-0.43221
-0.431032
-0.428771
-0.425353
-0.420712
-0.414794
-0.407558
-0.398978
-0.389046
-0.377768
-0.36517
-0.351296
-0.33621
-0.319993
-0.302743
-0.284576
-0.265622
-0.246025
-0.225938
-0.205522
-0.184943
-0.164368
-0.14396
-0.123881
-0.10428
-0.0852985
-0.0670618
-0.049681
-0.0332505
-0.0178466
-0.00352695
0.00966709
0.0217175
0.032601
0.0423868
0.0508779
0.0588351
-0.356962
-0.364551
-0.367098
-0.370828
-0.373597
-0.376554
-0.379505
-0.382686
-0.386105
-0.389794
-0.39373
-0.397876
-0.402172
-0.406547
-0.410917
-0.415194
-0.41928
-0.423078
-0.426484
-0.429395
-0.431707
-0.433315
-0.43412
-0.434023
-0.432934
-0.430767
-0.427445
-0.422901
-0.417082
-0.409944
-0.401461
-0.391622
-0.380433
-0.36792
-0.354124
-0.339107
-0.322951
-0.305752
-0.287625
-0.268701
-0.249122
-0.229042
-0.208623
-0.188029
-0.16743
-0.14699
-0.12687
-0.107221
-0.0881859
-0.0698907
-0.0524475
-0.0359515
-0.0204795
-0.00608991
0.00717565
0.0192996
0.0302565
0.0401235
0.0486772
0.0567655
-0.358509
-0.365939
-0.368447
-0.37212
-0.374858
-0.37779
-0.380726
-0.383898
-0.387314
-0.391007
-0.394953
-0.399114
-0.403431
-0.407834
-0.412238
-0.416555
-0.420689
-0.42454
-0.428007
-0.430984
-0.433369
-0.435056
-0.435946
-0.435939
-0.434945
-0.432876
-0.429655
-0.425215
-0.419499
-0.412465
-0.404085
-0.394345
-0.383252
-0.370827
-0.357114
-0.342171
-0.326078
-0.308933
-0.29085
-0.271957
-0.252398
-0.232326
-0.211902
-0.191294
-0.17067
-0.150195
-0.130032
-0.110333
-0.0912413
-0.0728844
-0.0553754
-0.0388102
-0.0232665
-0.00880302
0.00453795
0.0167393
0.0277735
0.0377259
0.0463453
0.0545706
-0.360141
-0.367403
-0.36987
-0.373481
-0.376188
-0.379092
-0.382012
-0.385174
-0.388588
-0.392283
-0.396239
-0.400416
-0.404756
-0.409187
-0.413627
-0.417986
-0.422169
-0.426077
-0.429607
-0.432654
-0.435115
-0.436886
-0.437864
-0.437953
-0.437057
-0.435092
-0.431978
-0.427647
-0.422041
-0.415116
-0.406843
-0.397208
-0.386215
-0.373885
-0.360257
-0.345393
-0.329368
-0.31228
-0.294242
-0.275383
-0.255844
-0.23578
-0.215353
-0.19473
-0.174079
-0.153568
-0.13336
-0.113609
-0.0944576
-0.0760359
-0.0584578
-0.04182
-0.026201
-0.01166
0.00175997
0.0140426
0.0251574
0.0351991
0.043887
0.0522547
-0.361853
-0.36894
-0.371363
-0.374909
-0.377582
-0.380457
-0.38336
-0.386512
-0.389922
-0.393621
-0.397586
-0.40178
-0.406142
-0.410603
-0.41508
-0.419483
-0.423718
-0.427684
-0.43128
-0.434401
-0.436942
-0.438799
-0.439871
-0.440058
-0.439267
-0.43741
-0.434407
-0.43019
-0.424699
-0.417889
-0.409729
-0.400204
-0.389315
-0.377084
-0.363547
-0.348764
-0.332812
-0.315784
-0.297794
-0.278969
-0.259453
-0.239398
-0.218967
-0.198328
-0.17765
-0.157101
-0.136846
-0.11704
-0.0978269
-0.0793376
-0.0616874
-0.0449738
-0.0292763
-0.0146545
-0.00115209
0.0112151
0.0224141
0.0325486
0.0413076
0.0498223
-0.363643
-0.370546
-0.372923
-0.3764
-0.379038
-0.381883
-0.384767
-0.387908
-0.391314
-0.395016
-0.398991
-0.403201
-0.407588
-0.412079
-0.416594
-0.421043
-0.425331
-0.429358
-0.433022
-0.436219
-0.438843
-0.440791
-0.441959
-0.442249
-0.441566
-0.439822
-0.436936
-0.432837
-0.427466
-0.420776
-0.412734
-0.403323
-0.392544
-0.380416
-0.366975
-0.352278
-0.3364
-0.319435
-0.301495
-0.282707
-0.263214
-0.24317
-0.222735
-0.20208
-0.181373
-0.160786
-0.140482
-0.120619
-0.101341
-0.082782
-0.0650569
-0.0482646
-0.0324855
-0.0177798
-0.00419181
0.00826319
0.0195491
0.0297798
0.0386124
0.0472782
-0.365506
-0.372218
-0.374547
-0.377953
-0.380553
-0.383366
-0.386231
-0.389359
-0.392761
-0.396465
-0.40045
-0.404677
-0.409088
-0.413611
-0.418166
-0.422662
-0.427004
-0.431094
-0.434829
-0.438104
-0.440814
-0.442855
-0.444124
-0.444521
-0.44395
-0.442323
-0.439558
-0.435582
-0.430336
-0.42377
-0.41585
-0.406559
-0.395894
-0.383873
-0.370531
-0.355923
-0.340123
-0.323224
-0.305337
-0.286588
-0.26712
-0.247086
-0.226648
-0.205976
-0.18524
-0.164613
-0.144259
-0.124337
-0.104993
-0.086361
-0.0685584
-0.0516849
-0.0358214
-0.021029
-0.0073526
0.00519306
0.0165687
0.0268984
0.0358067
0.0446273
-0.367439
-0.373953
-0.376231
-0.379563
-0.382123
-0.384903
-0.387747
-0.390863
-0.394259
-0.397966
-0.40196
-0.406204
-0.41064
-0.415195
-0.41979
-0.424334
-0.428733
-0.432887
-0.436695
-0.440051
-0.44285
-0.444987
-0.44636
-0.446867
-0.446412
-0.444906
-0.442265
-0.438417
-0.4333
-0.426862
-0.41907
-0.409902
-0.399356
-0.387446
-0.374207
-0.359692
-0.343973
-0.327143
-0.30931
-0.290602
-0.27116
-0.251136
-0.230696
-0.210007
-0.189242
-0.168574
-0.148168
-0.128185
-0.108773
-0.0900665
-0.0721842
-0.0552269
-0.0392766
-0.024395
-0.0106277
0.00201119
0.013479
0.0239103
0.0328963
0.0418746
-0.369439
-0.375747
-0.377973
-0.381226
-0.383746
-0.386491
-0.389313
-0.392414
-0.395805
-0.399514
-0.403517
-0.407778
-0.412239
-0.416827
-0.421462
-0.426056
-0.430512
-0.434733
-0.438615
-0.442054
-0.444944
-0.447181
-0.44866
-0.44928
-0.448945
-0.447563
-0.445051
-0.441335
-0.43635
-0.430046
-0.422384
-0.413344
-0.40292
-0.391125
-0.377993
-0.363574
-0.347939
-0.33118
-0.313404
-0.294739
-0.275323
-0.255312
-0.234869
-0.214163
-0.193369
-0.172658
-0.1522
-0.132155
-0.112673
-0.09389
-0.0759261
-0.058883
-0.0428437
-0.0278706
-0.0140102
-0.00127582
0.0102862
0.0208216
0.0298869
0.0390253
-0.3715
-0.377596
-0.379768
-0.382941
-0.385418
-0.388126
-0.390925
-0.394011
-0.397395
-0.401105
-0.405118
-0.409396
-0.413881
-0.418502
-0.423179
-0.427823
-0.432338
-0.436626
-0.440584
-0.444108
-0.447092
-0.44943
-0.451018
-0.451754
-0.451542
-0.450288
-0.447908
-0.444327
-0.439479
-0.433311
-0.425784
-0.416875
-0.406577
-0.394902
-0.381879
-0.367559
-0.352012
-0.335326
-0.31761
-0.298988
-0.279601
-0.259603
-0.239158
-0.218435
-0.197611
-0.176857
-0.156346
-0.136237
-0.116684
-0.0978231
-0.0797758
-0.0626451
-0.046515
-0.0314485
-0.017493
-0.00466125
0.00699682
0.0176381
0.0267842
0.0360848
-0.373619
-0.379497
-0.381612
-0.384703
-0.387135
-0.389805
-0.392579
-0.395649
-0.399026
-0.402737
-0.406758
-0.411053
-0.415563
-0.420218
-0.424936
-0.42963
-0.434205
-0.438562
-0.442598
-0.446208
-0.449287
-0.451729
-0.453428
-0.454283
-0.454196
-0.453073
-0.450828
-0.447385
-0.442677
-0.436649
-0.429261
-0.420487
-0.410319
-0.398765
-0.385856
-0.371638
-0.35618
-0.339571
-0.321916
-0.30334
-0.283983
-0.263999
-0.243551
-0.222813
-0.201957
-0.181161
-0.160595
-0.140423
-0.120797
-0.101857
-0.0837248
-0.0665051
-0.0502827
-0.0351212
-0.0210691
-0.0081383
0.00361727
0.0143662
0.0235943
0.0330584
-0.375791
-0.381446
-0.383503
-0.386508
-0.388893
-0.391524
-0.394272
-0.397325
-0.400694
-0.404405
-0.408434
-0.412745
-0.41728
-0.421968
-0.426729
-0.431474
-0.436109
-0.440535
-0.44465
-0.448348
-0.451523
-0.45407
-0.455883
-0.456859
-0.4569
-0.45591
-0.453804
-0.450502
-0.445937
-0.440053
-0.432806
-0.42417
-0.414134
-0.402706
-0.389913
-0.3758
-0.360435
-0.343903
-0.326312
-0.307783
-0.288457
-0.268488
-0.24804
-0.227285
-0.206399
-0.18556
-0.164939
-0.144702
-0.125003
-0.105983
-0.0877648
-0.0704548
-0.0541388
-0.0388811
-0.0247313
-0.0117001
0.000154138
0.011012
0.0203231
0.0299515
-0.378014
-0.383439
-0.385437
-0.388353
-0.390691
-0.39328
-0.396001
-0.399036
-0.402396
-0.406105
-0.410142
-0.414469
-0.419028
-0.423749
-0.428552
-0.433349
-0.438045
-0.442541
-0.446735
-0.450522
-0.453795
-0.456449
-0.458377
-0.459476
-0.459646
-0.458792
-0.456827
-0.453669
-0.44925
-0.443512
-0.43641
-0.427915
-0.418015
-0.406715
-0.39404
-0.380035
-0.364764
-0.348314
-0.330787
-0.312307
-0.293014
-0.273061
-0.252613
-0.231842
-0.210926
-0.190043
-0.169368
-0.149065
-0.129293
-0.110191
-0.0918869
-0.0744859
-0.0580755
-0.0427208
-0.0284721
-0.0153397
-0.00338596
0.00758174
0.0169765
0.0267698
-0.380281
-0.385473
-0.387409
-0.390234
-0.392523
-0.395069
-0.397762
-0.400777
-0.404127
-0.407834
-0.411878
-0.41622
-0.420803
-0.425557
-0.430402
-0.43525
-0.440007
-0.444574
-0.448848
-0.452724
-0.456097
-0.458858
-0.460903
-0.462127
-0.462428
-0.461712
-0.459889
-0.456878
-0.452607
-0.447017
-0.440063
-0.431711
-0.42195
-0.41078
-0.398227
-0.384332
-0.369158
-0.35279
-0.335331
-0.316902
-0.297642
-0.277706
-0.257259
-0.236473
-0.215527
-0.194602
-0.173871
-0.153503
-0.133656
-0.114474
-0.0960826
-0.0785901
-0.0620848
-0.0466324
-0.0322844
-0.0190501
-0.00699638
0.00408183
0.0135608
0.0235188
-0.382589
-0.387544
-0.389416
-0.392149
-0.394385
-0.396887
-0.399551
-0.402545
-0.405884
-0.409588
-0.413638
-0.417994
-0.422601
-0.427387
-0.432274
-0.437173
-0.441991
-0.446628
-0.450982
-0.454949
-0.458421
-0.461292
-0.463454
-0.464803
-0.465238
-0.464661
-0.462983
-0.46012
-0.456
-0.450561
-0.443755
-0.43555
-0.425929
-0.414893
-0.402463
-0.388681
-0.373606
-0.357323
-0.339932
-0.321555
-0.302331
-0.282413
-0.261967
-0.241167
-0.220193
-0.199224
-0.178438
-0.158006
-0.138085
-0.118821
-0.100343
-0.0827589
-0.0661586
-0.0506083
-0.0361608
-0.0228244
-0.0106705
0.000518538
0.010082
0.020204
-0.384934
-0.389647
-0.391454
-0.394092
-0.396276
-0.398732
-0.401364
-0.404336
-0.407662
-0.411363
-0.415418
-0.419788
-0.424417
-0.429235
-0.434163
-0.439113
-0.443991
-0.448699
-0.453134
-0.457191
-0.460763
-0.463743
-0.466024
-0.4675
-0.468068
-0.467632
-0.4661
-0.463387
-0.459419
-0.454133
-0.447479
-0.439422
-0.429943
-0.419043
-0.406739
-0.39307
-0.378097
-0.3619
-0.34458
-0.326257
-0.307069
-0.287171
-0.266728
-0.245914
-0.224911
-0.203901
-0.183061
-0.162563
-0.142569
-0.123225
-0.104659
-0.086984
-0.0702888
-0.0546409
-0.040094
-0.0266555
-0.0144016
-0.00310182
0.00654608
0.0168312
-0.387311
-0.391779
-0.39352
-0.396061
-0.39819
-0.400598
-0.403198
-0.406147
-0.40946
-0.413155
-0.417213
-0.421596
-0.426247
-0.431096
-0.436064
-0.441064
-0.446003
-0.450781
-0.455296
-0.459443
-0.463116
-0.466205
-0.468605
-0.470208
-0.470912
-0.470617
-0.469232
-0.46667
-0.462855
-0.457724
-0.451223
-0.443316
-0.433982
-0.423219
-0.411042
-0.39749
-0.38262
-0.366511
-0.349263
-0.330995
-0.311846
-0.291969
-0.271529
-0.250703
-0.229673
-0.208621
-0.187728
-0.167166
-0.147099
-0.127674
-0.109023
-0.091257
-0.0744675
-0.0587224
-0.0440767
-0.0305366
-0.0181831
-0.00677296
0.00295917
0.013406
-0.389716
-0.393936
-0.395609
-0.398051
-0.400125
-0.402484
-0.40505
-0.407974
-0.411271
-0.414961
-0.419021
-0.423415
-0.428086
-0.432965
-0.437973
-0.443023
-0.448021
-0.452868
-0.457463
-0.4617
-0.465473
-0.468672
-0.471191
-0.472921
-0.47376
-0.473608
-0.472371
-0.469961
-0.466301
-0.461325
-0.454978
-0.447223
-0.438035
-0.427411
-0.415364
-0.401929
-0.387164
-0.371145
-0.353971
-0.33576
-0.316651
-0.296795
-0.27636
-0.255523
-0.234467
-0.213375
-0.192429
-0.171805
-0.151666
-0.132162
-0.113426
-0.0955695
-0.0786867
-0.0628453
-0.0481016
-0.0344606
-0.0220084
-0.0104886
-0.000672738
0.00993383
-0.392144
-0.396115
-0.397718
-0.40006
-0.402076
-0.404384
-0.406915
-0.409813
-0.413094
-0.416776
-0.420837
-0.425241
-0.429932
-0.434839
-0.439886
-0.444983
-0.45004
-0.454956
-0.45963
-0.463957
-0.467828
-0.471137
-0.473774
-0.475633
-0.476607
-0.476598
-0.475508
-0.473251
-0.469747
-0.464927
-0.458736
-0.451133
-0.442093
-0.431609
-0.419693
-0.406378
-0.391718
-0.375791
-0.358692
-0.34054
-0.321471
-0.301639
-0.281211
-0.260364
-0.239283
-0.218152
-0.197155
-0.176469
-0.15626
-0.136678
-0.117858
-0.0999133
-0.0829384
-0.067002
-0.0521615
-0.0384209
-0.0258709
-0.0142426
-0.00434369
0.00642037
-0.394591
-0.39831
-0.399844
-0.402083
-0.40404
-0.406296
-0.40879
-0.411661
-0.414924
-0.418596
-0.422657
-0.42707
-0.431778
-0.436713
-0.441796
-0.446941
-0.452055
-0.457039
-0.461791
-0.466206
-0.470177
-0.473594
-0.476349
-0.478335
-0.479445
-0.479577
-0.478636
-0.476532
-0.473184
-0.468521
-0.462487
-0.455037
-0.446145
-0.435802
-0.424018
-0.410824
-0.396273
-0.380438
-0.363416
-0.345324
-0.326298
-0.306491
-0.286071
-0.265216
-0.244111
-0.222942
-0.201896
-0.18115
-0.160872
-0.141214
-0.122311
-0.10428
-0.0872148
-0.071185
-0.0562494
-0.0424105
-0.0297643
-0.0180288
-0.00804779
0.00287107
-0.397054
-0.40052
-0.401982
-0.404117
-0.406014
-0.408217
-0.410672
-0.413514
-0.416757
-0.420418
-0.424478
-0.428897
-0.433622
-0.438582
-0.443701
-0.448892
-0.454061
-0.459111
-0.46394
-0.468443
-0.472511
-0.476036
-0.478909
-0.481021
-0.482265
-0.48254
-0.481747
-0.479796
-0.476603
-0.472098
-0.466221
-0.458925
-0.450183
-0.439982
-0.428331
-0.415259
-0.400816
-0.385076
-0.368132
-0.350101
-0.331119
-0.311339
-0.290928
-0.270066
-0.24894
-0.227736
-0.206642
-0.185838
-0.165493
-0.14576
-0.126778
-0.108662
-0.0915082
-0.0753871
-0.0603582
-0.0464229
-0.0336822
-0.0218413
-0.0117792
-0.000708623
-0.399527
-0.402739
-0.404128
-0.406159
-0.407994
-0.410142
-0.412558
-0.415368
-0.41859
-0.422239
-0.426294
-0.430719
-0.435458
-0.440443
-0.445595
-0.45083
-0.456054
-0.461168
-0.466073
-0.470661
-0.474826
-0.478457
-0.481446
-0.483684
-0.485062
-0.485478
-0.484833
-0.483034
-0.479997
-0.47565
-0.469929
-0.462788
-0.454195
-0.444138
-0.432621
-0.419672
-0.405339
-0.389693
-0.372829
-0.354861
-0.335924
-0.316172
-0.295773
-0.274907
-0.25376
-0.232523
-0.211384
-0.190524
-0.170114
-0.150309
-0.131249
-0.113051
-0.0958111
-0.0796009
-0.064481
-0.0504515
-0.0376184
-0.0256739
-0.0155324
-0.00431338
-0.402007
-0.404964
-0.40628
-0.408205
-0.409977
-0.412068
-0.414443
-0.417221
-0.42042
-0.424054
-0.428104
-0.432532
-0.437283
-0.44229
-0.447475
-0.452751
-0.458027
-0.463205
-0.468183
-0.472855
-0.477115
-0.480851
-0.483955
-0.486317
-0.487828
-0.488384
-0.487886
-0.486239
-0.483357
-0.479166
-0.473603
-0.466616
-0.458174
-0.448259
-0.436877
-0.424052
-0.40983
-0.394281
-0.377498
-0.359594
-0.340704
-0.320982
-0.300596
-0.279726
-0.258562
-0.237294
-0.216111
-0.195198
-0.174726
-0.154852
-0.135717
-0.117439
-0.100116
-0.0838194
-0.068611
-0.0544898
-0.0415666
-0.0295211
-0.0193016
-0.00793796
-0.40449
-0.407192
-0.408434
-0.410252
-0.41196
-0.413993
-0.416324
-0.419068
-0.422242
-0.42586
-0.429903
-0.434332
-0.439094
-0.44412
-0.449335
-0.454651
-0.459977
-0.465216
-0.470266
-0.47502
-0.479372
-0.483212
-0.486429
-0.488913
-0.490556
-0.491251
-0.490898
-0.489402
-0.486675
-0.482641
-0.477233
-0.470401
-0.462109
-0.452338
-0.441091
-0.42839
-0.41428
-0.398828
-0.382127
-0.364288
-0.345447
-0.325757
-0.305386
-0.284515
-0.263335
-0.242038
-0.220815
-0.199851
-0.17932
-0.15938
-0.140173
-0.121819
-0.104416
-0.0880357
-0.0727419
-0.0585317
-0.0455211
-0.033377
-0.0230814
-0.0115772
-0.406971
-0.40942
-0.410586
-0.412296
-0.413939
-0.415912
-0.418199
-0.420907
-0.424054
-0.427654
-0.431687
-0.436115
-0.440885
-0.445929
-0.451171
-0.456525
-0.461899
-0.467197
-0.472315
-0.47715
-0.481593
-0.485534
-0.488862
-0.491467
-0.493239
-0.494071
-0.493863
-0.492516
-0.489942
-0.486064
-0.480812
-0.474134
-0.465991
-0.456364
-0.445252
-0.432676
-0.418678
-0.403325
-0.386707
-0.368935
-0.350144
-0.330487
-0.310133
-0.289264
-0.268071
-0.246748
-0.225487
-0.204476
-0.183889
-0.163886
-0.144611
-0.126183
-0.108703
-0.092243
-0.076867
-0.062571
-0.0494759
-0.0372362
-0.0268666
-0.0152262
-0.409447
-0.411642
-0.412734
-0.414335
-0.415911
-0.417824
-0.420065
-0.422735
-0.425853
-0.429432
-0.433453
-0.437878
-0.442653
-0.447713
-0.45298
-0.458369
-0.463789
-0.469142
-0.474327
-0.47924
-0.483771
-0.487811
-0.491248
-0.493971
-0.49587
-0.496839
-0.496772
-0.495573
-0.493152
-0.489428
-0.484331
-0.477806
-0.469812
-0.460329
-0.449352
-0.436901
-0.423016
-0.407763
-0.391229
-0.373525
-0.354786
-0.335164
-0.314829
-0.293964
-0.27276
-0.251414
-0.230119
-0.209063
-0.188423
-0.168361
-0.149021
-0.130524
-0.112971
-0.0964349
-0.0809802
-0.0666019
-0.0534254
-0.0410934
-0.0306519
-0.0188799
-0.411914
-0.413858
-0.414873
-0.416365
-0.417873
-0.419724
-0.421917
-0.424547
-0.427635
-0.431192
-0.435198
-0.439617
-0.444396
-0.449468
-0.454757
-0.460178
-0.465641
-0.471047
-0.476297
-0.481284
-0.485901
-0.490037
-0.49358
-0.49642
-0.498444
-0.499546
-0.49962
-0.498567
-0.496296
-0.492725
-0.487781
-0.481409
-0.473564
-0.464224
-0.453382
-0.441056
-0.427285
-0.412131
-0.395682
-0.378048
-0.359362
-0.339777
-0.319464
-0.298605
-0.277394
-0.256027
-0.234701
-0.213604
-0.192916
-0.172799
-0.153398
-0.134836
-0.117214
-0.100605
-0.0850756
-0.0706185
-0.0573642
-0.0449432
-0.0344325
-0.0225337
-0.414368
-0.416062
-0.417001
-0.418384
-0.419823
-0.42161
-0.423754
-0.426343
-0.429397
-0.432929
-0.436918
-0.441329
-0.446108
-0.45119
-0.456498
-0.461949
-0.467451
-0.472909
-0.478219
-0.483278
-0.487978
-0.492207
-0.495854
-0.498807
-0.500954
-0.502186
-0.502399
-0.50149
-0.499368
-0.495948
-0.491156
-0.484935
-0.477238
-0.46804
-0.457334
-0.445133
-0.431475
-0.416422
-0.400059
-0.382496
-0.363865
-0.344319
-0.324029
-0.303179
-0.281963
-0.260579
-0.239225
-0.218092
-0.197359
-0.177191
-0.157734
-0.139111
-0.121424
-0.104747
-0.0891473
-0.0746155
-0.0612871
-0.0487808
-0.0382033
-0.026183
-0.416806
-0.418253
-0.419115
-0.420387
-0.421757
-0.42348
-0.425572
-0.428117
-0.431137
-0.434641
-0.438611
-0.44301
-0.447787
-0.452876
-0.4582
-0.463678
-0.469217
-0.474721
-0.48009
-0.485218
-0.489997
-0.494316
-0.498064
-0.501127
-0.503394
-0.504755
-0.505102
-0.504336
-0.50236
-0.499089
-0.494449
-0.488377
-0.480827
-0.471771
-0.461198
-0.449123
-0.435579
-0.420627
-0.404351
-0.38686
-0.368285
-0.34878
-0.328515
-0.307677
-0.28646
-0.265063
-0.243685
-0.222519
-0.201746
-0.181531
-0.162022
-0.143343
-0.125596
-0.108856
-0.0931898
-0.0785875
-0.0651889
-0.0526013
-0.04196
-0.0298233
-0.419224
-0.420426
-0.421211
-0.422374
-0.423673
-0.42533
-0.42737
-0.429869
-0.432852
-0.436326
-0.440273
-0.444659
-0.44943
-0.454522
-0.45986
-0.46536
-0.470932
-0.476481
-0.481904
-0.487097
-0.491953
-0.496359
-0.500204
-0.503375
-0.505759
-0.507245
-0.507725
-0.507098
-0.505266
-0.502143
-0.497651
-0.491727
-0.484323
-0.475407
-0.464969
-0.453018
-0.439588
-0.424738
-0.408549
-0.391131
-0.372614
-0.353152
-0.332916
-0.312092
-0.290876
-0.26947
-0.248072
-0.226877
-0.206069
-0.185812
-0.166256
-0.147526
-0.129725
-0.112926
-0.0971977
-0.0825295
-0.0690649
-0.0564002
-0.0456979
-0.0334505
-0.42162
-0.42258
-0.423288
-0.424341
-0.425568
-0.427158
-0.429143
-0.431596
-0.434538
-0.43798
-0.441902
-0.44627
-0.451033
-0.456125
-0.461473
-0.466993
-0.472595
-0.478184
-0.483658
-0.488913
-0.493842
-0.498331
-0.502271
-0.505545
-0.508043
-0.509651
-0.510261
-0.50977
-0.50808
-0.505102
-0.500757
-0.49498
-0.487719
-0.478943
-0.468638
-0.456811
-0.443495
-0.428746
-0.412646
-0.395302
-0.376845
-0.357428
-0.337223
-0.316416
-0.295205
-0.273793
-0.252379
-0.231161
-0.210321
-0.190028
-0.170431
-0.151654
-0.133803
-0.116951
-0.101166
-0.0864367
-0.0729104
-0.0601729
-0.049413
-0.0370604
-0.423989
-0.424711
-0.425342
-0.426286
-0.427441
-0.428962
-0.430891
-0.433294
-0.436195
-0.439601
-0.443495
-0.447843
-0.452594
-0.457683
-0.463037
-0.468573
-0.474201
-0.479826
-0.485348
-0.490662
-0.495659
-0.500228
-0.504258
-0.507633
-0.510241
-0.511968
-0.512705
-0.512348
-0.510796
-0.507961
-0.50376
-0.498127
-0.49101
-0.482372
-0.472198
-0.460495
-0.447293
-0.432646
-0.416635
-0.399366
-0.38097
-0.3616
-0.341428
-0.320642
-0.29944
-0.278025
-0.256601
-0.235363
-0.214498
-0.194174
-0.17454
-0.155723
-0.137827
-0.120926
-0.10509
-0.0903045
-0.0767211
-0.0639154
-0.053101
-0.0406491
-0.426328
-0.426817
-0.427371
-0.428206
-0.429288
-0.43074
-0.432611
-0.434962
-0.437818
-0.441186
-0.44505
-0.449374
-0.45411
-0.459192
-0.464549
-0.470097
-0.475747
-0.481405
-0.48697
-0.492338
-0.4974
-0.502046
-0.506162
-0.509634
-0.512348
-0.514191
-0.515052
-0.514825
-0.513409
-0.510713
-0.506655
-0.501165
-0.494188
-0.485687
-0.475644
-0.464064
-0.450975
-0.43643
-0.420509
-0.403316
-0.384983
-0.365662
-0.345526
-0.324763
-0.303573
-0.28216
-0.26073
-0.239478
-0.218592
-0.198242
-0.178578
-0.159726
-0.141791
-0.124848
-0.108966
-0.0941285
-0.0804928
-0.0676236
-0.0567583
-0.0442131
-0.428637
-0.428895
-0.429373
-0.430099
-0.431107
-0.432489
-0.434301
-0.436598
-0.439407
-0.442734
-0.446564
-0.450862
-0.455578
-0.46065
-0.466005
-0.471561
-0.47723
-0.482917
-0.488521
-0.493939
-0.499063
-0.50378
-0.507979
-0.511544
-0.514361
-0.516315
-0.517296
-0.517196
-0.515914
-0.513355
-0.509436
-0.504086
-0.497248
-0.488882
-0.478969
-0.467511
-0.454535
-0.440092
-0.424261
-0.407146
-0.388877
-0.369607
-0.349509
-0.328773
-0.307599
-0.286193
-0.26476
-0.2435
-0.222599
-0.202228
-0.182539
-0.163659
-0.145691
-0.128711
-0.112788
-0.0979049
-0.0842216
-0.0712938
-0.0603812
-0.0477486
-0.43091
-0.430943
-0.431346
-0.431963
-0.432897
-0.434207
-0.435958
-0.4382
-0.440959
-0.444243
-0.448035
-0.452303
-0.456996
-0.462054
-0.467404
-0.472964
-0.478647
-0.484359
-0.489998
-0.495462
-0.500642
-0.505428
-0.509705
-0.513359
-0.516274
-0.518337
-0.519434
-0.519458
-0.518305
-0.515881
-0.512099
-0.506886
-0.500185
-0.491952
-0.482168
-0.470832
-0.457968
-0.443627
-0.427886
-0.41085
-0.392646
-0.373429
-0.353372
-0.332666
-0.311512
-0.290117
-0.268687
-0.247423
-0.226513
-0.206128
-0.18642
-0.167517
-0.149523
-0.132511
-0.116553
-0.10163
-0.087904
-0.0749226
-0.0639663
-0.0512526
-0.433146
-0.432959
-0.433286
-0.433797
-0.434656
-0.435893
-0.437582
-0.439766
-0.442473
-0.44571
-0.449462
-0.453695
-0.458362
-0.463402
-0.468742
-0.474303
-0.479996
-0.485727
-0.491398
-0.496903
-0.502136
-0.506985
-0.511336
-0.515075
-0.518085
-0.520252
-0.521462
-0.521606
-0.52058
-0.518286
-0.514638
-0.509561
-0.502994
-0.494894
-0.485236
-0.47402
-0.461268
-0.447029
-0.431379
-0.414421
-0.396285
-0.377123
-0.35711
-0.336437
-0.315307
-0.293927
-0.272505
-0.251243
-0.23033
-0.209937