/*--------------------------------*- C++ -*----------------------------------*\
  =========                 |
  \\      /  F ield         | OpenFOAM: The Open Source CFD Toolbox
   \\    /   O peration     | Website:  https://openfoam.org
    \\  /    A nd           | Version:  7
     \\/     M anipulation  |
\*---------------------------------------------------------------------------*/
FoamFile
{
    version     2.0;
    format      ascii;
    class       volVectorField;
    location    "4";
    object      U;
}
// * * * * * * * * * * * * * * * * * * * * * * * * * * * * * * * * * * * * * //

dimensions      [0 1 -1 0 0 0 0];

internalField   nonuniform List<vector> 
64512
(
(3 -4.06625e-18 0)
(3 3.92521e-17 0)
(3 1.31386e-16 0)
(3 7.0458e-16 0)
(3 1.14392e-15 0)
(3 8.27043e-16 0)
(3 4.72498e-16 0)
(3 1.2116e-16 0)
(3 1.20243e-16 0)
(3 8.24167e-16 0)
(3 8.50552e-16 0)
(3 5.53913e-16 0)
(3 5.43244e-16 0)
(3 7.87761e-16 0)
(3 6.09568e-16 0)
(3 -3.49836e-16 0)
(3 -6.0606e-16 0)
(3 -4.04256e-16 0)
(3 -5.51025e-16 0)
(3 -9.21909e-16 0)
(3 -7.5445e-16 0)
(3 -7.01042e-16 0)
(3 -8.31577e-16 0)
(3 -6.32579e-16 0)
(3 -9.41107e-16 0)
(3 -7.38196e-16 0)
(3 -3.79394e-16 0)
(3 -4.87751e-16 0)
(3 -7.22012e-16 0)
(3 -1.75928e-15 0)
(3 -1.95869e-15 0)
(3 -1.89831e-15 0)
(3 -1.87724e-15 0)
(3 -1.18608e-15 0)
(3 -4.11541e-16 0)
(3 -1.04025e-16 0)
(3 3.5874e-16 0)
(3 2.73294e-16 0)
(3 3.02366e-16 0)
(3 -6.09737e-17 0)
(3 -5.49269e-16 0)
(3 -5.22093e-16 0)
(3 -4.64582e-16 0)
(3 -4.66225e-16 0)
(3 -1.72892e-16 0)
(3 6.94447e-17 0)
(3 -1.45828e-17 0)
(3 -3.32124e-16 0)
(2.93431 -0.013654 0)
(1.04966 0.00337416 0)
(0.770267 0.00363817 0)
(0.757653 0.00856582 0)
(0.739987 0.00777922 0)
(0.724128 0.00693835 0)
(0.709248 0.00673323 0)
(0.695424 0.00691745 0)
(0.681963 0.0072628 0)
(0.667926 0.00759994 0)
(0.652688 0.00779109 0)
(0.636392 0.00770974 0)
(0.619886 0.00734653 0)
(0.60408 0.00695231 0)
(0.589215 0.00679821 0)
(0.574806 0.00694331 0)
(0.560066 0.00726241 0)
(0.544434 0.00757967 0)
(0.527828 0.00777817 0)
(0.510643 0.00783075 0)
(0.493688 0.0076987 0)
(0.477725 0.007544 0)
(0.462648 0.00765872 0)
(0.447594 0.00800631 0)
(0.431865 0.00822923 0)
(0.415359 0.00818073 0)
(0.398161 0.00805881 0)
(0.380423 0.00800783 0)
(0.36259 0.00798541 0)
(0.345155 0.00795609 0)
(0.328285 0.00794068 0)
(0.311807 0.00795431 0)
(0.295419 0.00800769 0)
(0.278855 0.00811517 0)
(0.261957 0.00826933 0)
(0.244718 0.00844678 0)
(0.227212 0.00862749 0)
(0.209484 0.00880096 0)
(0.191529 0.00896683 0)
(0.173334 0.00913761 0)
(0.154887 0.00933133 0)
(0.136154 0.00955847 0)
(0.11704 0.00981955 0)
(0.0974052 0.0101113 0)
(0.0770711 0.010386 0)
(0.0558354 0.010644 0)
(0.0338599 0.0107415 0)
(0.0114769 0.0108185 0)
(3 6.43272e-17 0)
(3 4.40798e-16 0)
(3 6.59046e-16 0)
(3 1.2934e-15 0)
(3 1.45247e-15 0)
(3 1.55966e-15 0)
(3 1.09848e-15 0)
(3 6.3176e-16 0)
(3 1.35456e-15 0)
(3 1.19875e-15 0)
(3 8.42911e-16 0)
(3 2.01621e-16 0)
(3 -1.95401e-16 0)
(3 1.49012e-16 0)
(3 -6.21579e-17 0)
(3 -3.51044e-16 0)
(3 -6.83904e-16 0)
(3 -3.58298e-16 0)
(3 -7.6087e-16 0)
(3 -4.30664e-16 0)
(3 -1.71244e-16 0)
(3 -7.07618e-16 0)
(3 -1.21252e-15 0)
(3 -1.33316e-15 0)
(3 -2.12489e-15 0)
(3 -1.80714e-15 0)
(3 -9.87309e-16 0)
(3 -1.01337e-15 0)
(3 -1.5188e-15 0)
(3 -2.14859e-15 0)
(3 -2.49387e-15 0)
(3 -2.65632e-15 0)
(3 -3.46447e-15 0)
(3 -2.85813e-15 0)
(3 -1.13593e-15 0)
(3 -4.30225e-16 0)
(3 2.88171e-17 0)
(3 -3.60103e-17 0)
(3 -4.13986e-16 0)
(3 -1.07565e-15 0)
(3 -1.65761e-15 0)
(3 -1.19106e-15 0)
(3 -1.34925e-15 0)
(3 -1.38077e-15 0)
(3 -8.7968e-16 0)
(3 6.738e-18 0)
(3 -2.17283e-16 0)
(3 -6.18875e-16 0)
(2.95148 -0.00177472 0)
(1.04384 0.00925483 0)
(0.759828 0.00917932 0)
(0.746596 0.0169147 0)
(0.731655 0.0180445 0)
(0.716497 0.0175567 0)
(0.701326 0.0172491 0)
(0.686981 0.0173721 0)
(0.673292 0.0180386 0)
(0.65952 0.0190793 0)
(0.64496 0.0199935 0)
(0.629485 0.0203053 0)
(0.613594 0.0199195 0)
(0.597964 0.0191697 0)
(0.582979 0.018681 0)
(0.568523 0.01895 0)
(0.554049 0.019925 0)
(0.538946 0.0210618 0)
(0.522934 0.0219691 0)
(0.506205 0.0225164 0)
(0.489464 0.0224133 0)
(0.473575 0.0220121 0)
(0.458623 0.0223231 0)
(0.443875 0.023401 0)
(0.42855 0.0241849 0)
(0.412455 0.0242093 0)
(0.395589 0.024016 0)
(0.378065 0.0239843 0)
(0.360328 0.0239866 0)
(0.342874 0.0239336 0)
(0.325877 0.0238956 0)
(0.309195 0.023914 0)
(0.292587 0.0240182 0)
(0.275851 0.0242642 0)
(0.258874 0.0246572 0)
(0.241663 0.0251527 0)
(0.224276 0.0257013 0)
(0.206739 0.0262651 0)
(0.189035 0.0268227 0)
(0.171141 0.0273867 0)
(0.153035 0.0279968 0)
(0.134669 0.0286893 0)
(0.115924 0.0294822 0)
(0.0966378 0.0303846 0)
(0.0766093 0.0312633 0)
(0.0556306 0.0321142 0)
(0.0338218 0.0324998 0)
(0.0115056 0.0328515 0)
(3 1.25395e-16 0)
(3 7.11191e-16 0)
(3 9.94864e-16 0)
(3 6.64551e-16 0)
(3 7.91511e-16 0)
(3 8.4783e-16 0)
(3 2.94311e-16 0)
(3 -6.16019e-16 0)
(3 -4.04814e-16 0)
(3 1.7585e-16 0)
(3 -1.54644e-16 0)
(3 -4.69743e-16 0)
(3 -1.00012e-15 0)
(3 -1.51599e-15 0)
(3 -6.53111e-16 0)
(3 -4.18864e-17 0)
(3 1.66606e-16 0)
(3 -2.51961e-16 0)
(3 -1.62299e-16 0)
(3 2.31875e-16 0)
(3 2.44577e-16 0)
(3 -3.20155e-16 0)
(3 -7.83055e-16 0)
(3 -1.39795e-15 0)
(3 -1.31903e-15 0)
(3 -1.08091e-15 0)
(3 -8.06788e-16 0)
(3 2.05068e-17 0)
(3 7.25852e-17 0)
(3 7.08267e-16 0)
(3 5.95211e-16 0)
(3 2.69721e-16 0)
(3 -2.20273e-16 0)
(3 -1.01701e-15 0)
(3 -1.06374e-15 0)
(3 -9.60784e-16 0)
(3 -2.31447e-16 0)
(3 2.14246e-16 0)
(3 -5.39372e-16 0)
(3 -1.01636e-15 0)
(3 -1.77331e-15 0)
(3 -1.33149e-15 0)
(3 -1.87206e-15 0)
(3 -1.69231e-15 0)
(3 -1.28354e-15 0)
(3 -4.93389e-16 0)
(3 -1.6849e-16 0)
(3 -1.08762e-15 0)
(2.962 0.00896185 0)
(1.05028 0.029576 0)
(0.754272 0.0204861 0)
(0.738327 0.0254544 0)
(0.724504 0.0279674 0)
(0.709462 0.0289549 0)
(0.694021 0.0295628 0)
(0.679071 0.029715 0)
(0.664939 0.03008 0)
(0.651303 0.0310246 0)
(0.637455 0.0321532 0)
(0.622928 0.0328349 0)
(0.607793 0.0327441 0)
(0.592422 0.0321505 0)
(0.577215 0.0316019 0)
(0.5624 0.0317257 0)
(0.54784 0.0327583 0)
(0.533044 0.0342872 0)
(0.517571 0.0357861 0)
(0.501384 0.0369091 0)
(0.485021 0.0369774 0)
(0.469349 0.036366 0)
(0.454569 0.0367312 0)
(0.440151 0.0383533 0)
(0.425286 0.0396102 0)
(0.409734 0.0397524 0)
(0.393434 0.0396262 0)
(0.376429 0.0397785 0)
(0.359101 0.0399581 0)
(0.341885 0.040016 0)
(0.324917 0.0400738 0)
(0.308058 0.0401959 0)
(0.291113 0.0404131 0)
(0.273954 0.0407986 0)
(0.256538 0.0413565 0)
(0.238923 0.0420312 0)
(0.221202 0.0427733 0)
(0.20343 0.0435548 0)
(0.185619 0.0443651 0)
(0.167766 0.0452289 0)
(0.149856 0.0461984 0)
(0.131823 0.0473184 0)
(0.113512 0.0486123 0)
(0.0947155 0.0501091 0)
(0.0751808 0.0516108 0)
(0.0546946 0.053121 0)
(0.0333161 0.0538923 0)
(0.0113692 0.0546493 0)
(3 -9.80031e-17 0)
(3 -1.77442e-16 0)
(3 -1.18659e-16 0)
(3 -6.30207e-16 0)
(3 -7.30568e-16 0)
(3 -7.93985e-16 0)
(3 -6.4767e-16 0)
(3 -1.34464e-15 0)
(3 -1.99943e-15 0)
(3 -1.81681e-15 0)
(3 -1.51539e-15 0)
(3 -1.24696e-15 0)
(3 -1.28261e-15 0)
(3 -5.53795e-16 0)
(3 -2.60755e-16 0)
(3 -5.20164e-16 0)
(3 -5.09087e-16 0)
(3 -3.82134e-16 0)
(3 6.74912e-16 0)
(3 1.01783e-15 0)
(3 4.97707e-16 0)
(3 -6.18409e-17 0)
(3 -7.63187e-16 0)
(3 -1.01569e-15 0)
(3 -7.74875e-16 0)
(3 -9.79415e-16 0)
(3 -3.57167e-16 0)
(3 4.36037e-16 0)
(3 1.43429e-15 0)
(3 9.79572e-16 0)
(3 3.25976e-16 0)
(3 1.72737e-16 0)
(3 3.6004e-16 0)
(3 9.67434e-17 0)
(3 1.02213e-16 0)
(3 8.95786e-16 0)
(3 1.25796e-16 0)
(3 -6.90659e-16 0)
(3 -1.22605e-15 0)
(3 -1.55931e-15 0)
(3 -1.89417e-15 0)
(3 -1.86602e-15 0)
(3 -1.43687e-15 0)
(3 -8.69707e-16 0)
(3 -9.7121e-16 0)
(3 -1.49961e-15 0)
(3 -1.46551e-15 0)
(3 -1.80019e-15 0)
(2.97056 -0.00355047 0)
(1.07118 0.0521615 0)
(0.759667 0.0371261 0)
(0.739648 0.036646 0)
(0.724691 0.0397012 0)
(0.708634 0.0417572 0)
(0.692454 0.0431747 0)
(0.676783 0.0434398 0)
(0.662193 0.0432256 0)
(0.648608 0.0434637 0)
(0.635347 0.0442857 0)
(0.621609 0.045167 0)
(0.607041 0.0456582 0)
(0.591746 0.0457523 0)
(0.576129 0.0455721 0)
(0.560731 0.0455737 0)
(0.54581 0.0463112 0)
(0.531089 0.0477794 0)
(0.51603 0.0495963 0)
(0.500325 0.0512584 0)
(0.484276 0.0516252 0)
(0.468744 0.0508764 0)
(0.454018 0.0512013 0)
(0.439773 0.0531811 0)
(0.425193 0.054775 0)
(0.410006 0.0549833 0)
(0.394121 0.054928 0)
(0.377528 0.0553025 0)
(0.360534 0.0557356 0)
(0.343493 0.0560203 0)
(0.3265 0.056319 0)
(0.309429 0.0567009 0)
(0.292135 0.0571813 0)
(0.274546 0.0578349 0)
(0.256654 0.0586489 0)
(0.238525 0.059541 0)
(0.220266 0.0604515 0)
(0.201964 0.0613633 0)
(0.183685 0.0622901 0)
(0.165485 0.0632866 0)
(0.147389 0.0644355 0)
(0.129345 0.0658073 0)
(0.111184 0.0674452 0)
(0.0926784 0.0694211 0)
(0.0735227 0.0714867 0)
(0.053521 0.0736662 0)
(0.0326301 0.0748871 0)
(0.0111571 0.0761478 0)
(3 -1.44591e-16 0)
(3 -2.11307e-16 0)
(3 -5.70174e-16 0)
(3 -1.42692e-15 0)
(3 -1.63093e-15 0)
(3 -1.53783e-15 0)
(3 -1.57204e-15 0)
(3 -1.86452e-15 0)
(3 -1.68073e-15 0)
(3 -2.09869e-15 0)
(3 -1.65185e-15 0)
(3 -1.08839e-15 0)
(3 -5.46573e-16 0)
(3 -2.53277e-16 0)
(3 -3.36555e-16 0)
(3 -4.907e-16 0)
(3 -4.59842e-16 0)
(3 -4.62845e-16 0)
(3 -1.25094e-17 0)
(3 5.91195e-16 0)
(3 1.10345e-15 0)
(3 8.39878e-16 0)
(3 5.89575e-16 0)
(3 2.99581e-16 0)
(3 2.4396e-16 0)
(3 5.27406e-16 0)
(3 7.88333e-16 0)
(3 4.59664e-16 0)
(3 2.85183e-16 0)
(3 1.74967e-16 0)
(3 2.99371e-16 0)
(3 5.65675e-16 0)
(3 9.25054e-16 0)
(3 1.15338e-15 0)
(3 1.41955e-15 0)
(3 2.03577e-15 0)
(3 1.64915e-15 0)
(3 7.95593e-16 0)
(3 -1.82591e-16 0)
(3 -5.97774e-16 0)
(3 -2.40166e-16 0)
(3 -5.99972e-16 0)
(3 -1.03997e-15 0)
(3 -1.29906e-15 0)
(3 -1.32207e-15 0)
(3 -1.71359e-15 0)
(3 -9.22909e-16 0)
(3 -8.74401e-16 0)
(2.98927 0.00263607 0)
(1.09849 0.0646632 0)
(0.768836 0.0493078 0)
(0.748325 0.0463715 0)
(0.732004 0.0505135 0)
(0.714566 0.0542078 0)
(0.697371 0.0567612 0)
(0.680911 0.0571394 0)
(0.665804 0.0560891 0)
(0.651936 0.0552195 0)
(0.638653 0.0553845 0)
(0.625123 0.0563987 0)
(0.610799 0.0577384 0)
(0.595599 0.0589749 0)
(0.579823 0.0595512 0)
(0.56411 0.0594907 0)
(0.54892 0.0597343 0)
(0.534134 0.0608324 0)
(0.519226 0.0627548 0)
(0.503754 0.064918 0)
(0.487812 0.0656868 0)
(0.472261 0.0648744 0)
(0.457436 0.0651219 0)
(0.443175 0.067379 0)
(0.428641 0.0693088 0)
(0.413507 0.0696646 0)
(0.397678 0.0697958 0)
(0.381115 0.0705269 0)
(0.364047 0.0713808 0)
(0.346744 0.0720872 0)
(0.329277 0.0728217 0)
(0.311555 0.0736216 0)
(0.293524 0.0744556 0)
(0.275224 0.0753963 0)
(0.256715 0.0764383 0)
(0.23808 0.0775016 0)
(0.219402 0.0785331 0)
(0.200745 0.0795292 0)
(0.182162 0.0805225 0)
(0.163708 0.0815866 0)
(0.145419 0.0828209 0)
(0.127263 0.0843163 0)
(0.109095 0.0861397 0)
(0.090726 0.0884417 0)
(0.0718217 0.0909479 0)
(0.0522532 0.0937361 0)
(0.0318536 0.0954143 0)
(0.0109005 0.097217 0)
(3 -1.18487e-16 0)
(3 -2.63663e-16 0)
(3 -1.26025e-16 0)
(3 -5.40675e-16 0)
(3 -7.15348e-16 0)
(3 -1.11283e-15 0)
(3 -2.40827e-15 0)
(3 -2.09013e-15 0)
(3 -1.8957e-15 0)
(3 -1.77889e-15 0)
(3 -1.14534e-15 0)
(3 -1.61655e-16 0)
(3 4.60315e-16 0)
(3 -6.71885e-18 0)
(3 1.93083e-16 0)
(3 -1.35088e-16 0)
(3 -1.14145e-16 0)
(3 -1.38199e-16 0)
(3 -4.58057e-16 0)
(3 -9.96215e-16 0)
(3 -2.77905e-17 0)
(3 6.33225e-16 0)
(3 9.33596e-16 0)
(3 1.05481e-15 0)
(3 1.12641e-15 0)
(3 1.17155e-15 0)
(3 6.35983e-16 0)
(3 3.52015e-16 0)
(3 1.0368e-16 0)
(3 1.70667e-16 0)
(3 6.02989e-16 0)
(3 1.47294e-15 0)
(3 1.22458e-15 0)
(3 6.06998e-16 0)
(3 8.0634e-16 0)
(3 7.64133e-16 0)
(3 5.33815e-16 0)
(3 6.35791e-16 0)
(3 3.16166e-16 0)
(3 4.56665e-16 0)
(3 1.66701e-15 0)
(3 1.7659e-15 0)
(3 7.36947e-16 0)
(3 -2.75027e-16 0)
(3 -4.93298e-16 0)
(3 -2.76907e-16 0)
(3 3.71829e-16 0)
(3 -2.45353e-16 0)
(2.99971 0.000327059 0)
(1.1338 0.0740671 0)
(0.771977 0.0604763 0)
(0.751372 0.0592072 0)
(0.734936 0.0640729 0)
(0.717275 0.0682063 0)
(0.700306 0.0710502 0)
(0.684043 0.071144 0)
(0.668964 0.0691814 0)
(0.654811 0.0672542 0)
(0.640951 0.0668952 0)
(0.626739 0.0681846 0)
(0.611765 0.0704591 0)
(0.596034 0.072845 0)
(0.579886 0.0741366 0)
(0.564066 0.0738991 0)
(0.549071 0.0733922 0)
(0.53465 0.0739523 0)
(0.520135 0.0759693 0)
(0.504942 0.0787303 0)
(0.488978 0.0800447 0)
(0.473175 0.079248 0)
(0.457971 0.0793569 0)
(0.443382 0.0818055 0)
(0.428602 0.0840862 0)
(0.413244 0.0846773 0)
(0.397242 0.0850752 0)
(0.380589 0.0862204 0)
(0.363492 0.0875401 0)
(0.346208 0.0886893 0)
(0.328821 0.0898467 0)
(0.311249 0.0910211 0)
(0.293432 0.0921465 0)
(0.275379 0.0933083 0)
(0.2571 0.0945235 0)
(0.238618 0.0957257 0)
(0.219975 0.0968727 0)
(0.201224 0.0979712 0)
(0.182434 0.09906 0)
(0.163688 0.100211 0)
(0.145054 0.101517 0)
(0.126541 0.103073 0)
(0.108064 0.104959 0)
(0.0895185 0.107426 0)
(0.070576 0.110199 0)
(0.0512284 0.11346 0)
(0.0311695 0.11553 0)
(0.0106487 0.117838 0)
(3 -1.52037e-18 0)
(3 -1.99346e-16 0)
(3 -1.42237e-16 0)
(3 1.68716e-16 0)
(3 3.86318e-16 0)
(3 3.07187e-16 0)
(3 -4.12224e-16 0)
(3 -2.48741e-16 0)
(3 -5.51806e-16 0)
(3 -7.38577e-16 0)
(3 -9.39402e-16 0)
(3 -1.02771e-15 0)
(3 -3.89604e-16 0)
(3 -2.07581e-16 0)
(3 -3.37208e-16 0)
(3 -3.53582e-16 0)
(3 -3.37551e-16 0)
(3 -1.28889e-16 0)
(3 -9.29068e-16 0)
(3 -1.93267e-15 0)
(3 -1.93593e-15 0)
(3 -1.48777e-15 0)
(3 -8.59302e-16 0)
(3 -4.52654e-16 0)
(3 -1.71413e-16 0)
(3 1.74204e-17 0)
(3 -2.50685e-16 0)
(3 1.84767e-16 0)
(3 5.75954e-16 0)
(3 1.9799e-16 0)
(3 2.74782e-16 0)
(3 1.05114e-15 0)
(3 2.12668e-15 0)
(3 1.90506e-15 0)
(3 1.69164e-15 0)
(3 6.55716e-16 0)
(3 -6.08556e-16 0)
(3 -9.29847e-16 0)
(3 -4.17038e-16 0)
(3 5.96893e-17 0)
(3 1.20681e-15 0)
(3 1.36483e-15 0)
(3 1.26289e-15 0)
(3 1.20681e-15 0)
(3 8.37939e-16 0)
(3 4.96512e-16 0)
(3 -1.11842e-16 0)
(3 -9.22871e-16 0)
(3 9.1767e-07 0)
(1.1802 0.0862944 0)
(0.77237 0.0706746 0)
(0.750563 0.0709291 0)
(0.735525 0.0770761 0)
(0.718327 0.0817464 0)
(0.701851 0.0849563 0)
(0.685841 0.0850054 0)
(0.670838 0.0824839 0)
(0.656637 0.0796895 0)
(0.64267 0.0788085 0)
(0.628491 0.0802588 0)
(0.613766 0.0833029 0)
(0.598406 0.0866676 0)
(0.582595 0.0884916 0)
(0.567098 0.0878937 0)
(0.552378 0.0865029 0)
(0.538068 0.086512 0)
(0.523605 0.0887407 0)
(0.508441 0.0922801 0)
(0.492302 0.0943422 0)
(0.476187 0.093672 0)
(0.460615 0.0936256 0)
(0.445714 0.0961919 0)
(0.430737 0.0988147 0)
(0.415202 0.0996823 0)
(0.399078 0.100348 0)
(0.382371 0.101853 0)
(0.365256 0.103563 0)
(0.347958 0.105081 0)
(0.330564 0.106609 0)
(0.312998 0.10814 0)
(0.2952 0.109571 0)
(0.277162 0.110997 0)
(0.258872 0.112458 0)
(0.240318 0.113898 0)
(0.22152 0.115275 0)
(0.202543 0.116587 0)
(0.18348 0.117864 0)
(0.164431 0.119164 0)
(0.145473 0.120566 0)
(0.126621 0.122168 0)
(0.107822 0.124057 0)
(0.0890321 0.126577 0)
(0.0699431 0.129467 0)
(0.0506634 0.13305 0)
(0.0307461 0.135403 0)
(0.0104878 0.138133 0)
(3 1.31228e-16 0)
(3 8.5645e-17 0)
(3 1.61954e-16 0)
(3 8.65414e-16 0)
(3 1.44372e-15 0)
(3 1.42324e-15 0)
(3 1.61253e-15 0)
(3 1.52777e-15 0)
(3 1.5e-15 0)
(3 9.5731e-16 0)
(3 4.34258e-17 0)
(3 -1.08587e-15 0)
(3 -1.5229e-15 0)
(3 -1.25487e-15 0)
(3 -1.30664e-15 0)
(3 -3.77609e-16 0)
(3 -9.74539e-16 0)
(3 -1.38036e-15 0)
(3 -1.21241e-15 0)
(3 -8.20426e-16 0)
(3 -7.70429e-16 0)
(3 -7.42853e-16 0)
(3 -8.10241e-16 0)
(3 -9.9132e-16 0)
(3 -6.92321e-16 0)
(3 -5.89066e-16 0)
(3 -2.14263e-16 0)
(3 2.41241e-16 0)
(3 3.70677e-16 0)
(3 4.5652e-16 0)
(3 2.9151e-16 0)
(3 5.91577e-16 0)
(3 1.20871e-15 0)
(3 1.32623e-15 0)
(3 5.01491e-16 0)
(3 -2.55682e-16 0)
(3 -6.40863e-16 0)
(3 -2.51277e-16 0)
(3 4.32319e-17 0)
(3 -2.83784e-16 0)
(3 -2.94322e-16 0)
(3 -6.10036e-16 0)
(3 -4.87433e-16 0)
(3 8.73464e-17 0)
(3 2.97904e-16 0)
(3 -1.93313e-16 0)
(3 -1.3423e-15 0)
(3 -2.18999e-15 0)
(3 7.23108e-10 0)
(1.24061 0.0996722 0)
(0.774998 0.0817026 0)
(0.749856 0.0824508 0)
(0.735411 0.0898238 0)
(0.718099 0.0950213 0)
(0.70173 0.0985795 0)
(0.68583 0.0986285 0)
(0.671012 0.095664 0)
(0.656982 0.0921088 0)
(0.643027 0.0907245 0)
(0.628838 0.0923027 0)
(0.614214 0.0960611 0)
(0.599066 0.100353 0)
(0.583439 0.102717 0)
(0.568069 0.10192 0)
(0.553355 0.0998769 0)
(0.538823 0.0994844 0)
(0.524124 0.101963 0)
(0.508902 0.106255 0)
(0.492746 0.109006 0)
(0.476668 0.108393 0)
(0.461172 0.108078 0)
(0.44639 0.110659 0)
(0.431595 0.11362 0)
(0.416164 0.114825 0)
(0.400103 0.115788 0)
(0.383455 0.117639 0)
(0.366388 0.119714 0)
(0.349124 0.121579 0)
(0.331775 0.123463 0)
(0.314287 0.12535 0)
(0.296592 0.1271 0)
(0.278664 0.128811 0)
(0.260455 0.130549 0)
(0.241914 0.132271 0)
(0.223044 0.133926 0)
(0.203916 0.135495 0)
(0.18465 0.136988 0)
(0.16537 0.138447 0)
(0.146152 0.139938 0)
(0.127016 0.141566 0)
(0.107926 0.143419 0)
(0.0888873 0.145923 0)
(0.069612 0.148829 0)
(0.0503201 0.15263 0)
(0.0304591 0.15518 0)
(0.0103744 0.158268 0)
(3 2.1657e-16 0)
(3 7.67883e-17 0)
(3 -1.07804e-16 0)
(3 1.65959e-16 0)
(3 2.02842e-16 0)
(3 1.20614e-16 0)
(3 7.68111e-16 0)
(3 9.93893e-16 0)
(3 1.19385e-15 0)
(3 1.09197e-15 0)
(3 8.74048e-16 0)
(3 4.72085e-16 0)
(3 4.88324e-18 0)
(3 -1.09486e-15 0)
(3 -1.59044e-15 0)
(3 -1.70154e-15 0)
(3 -2.03255e-15 0)
(3 -1.84837e-15 0)
(3 -1.53703e-15 0)
(3 -9.34929e-16 0)
(3 9.43686e-17 0)
(3 1.90417e-16 0)
(3 1.63122e-16 0)
(3 -8.1576e-18 0)
(3 -2.84463e-16 0)
(3 -9.61452e-16 0)
(3 -7.32683e-16 0)
(3 -5.43975e-16 0)
(3 -6.58446e-17 0)
(3 4.94432e-16 0)
(3 3.06534e-16 0)
(3 -7.12718e-16 0)
(3 -7.80372e-16 0)
(3 -3.22875e-17 0)
(3 2.09251e-16 0)
(3 3.93317e-16 0)
(3 7.39478e-16 0)
(3 5.98215e-16 0)
(3 -1.16442e-16 0)
(3 -5.21614e-16 0)
(3 -1.59223e-15 0)
(3 -2.3566e-15 0)
(3 -2.1513e-15 0)
(3 -9.96499e-16 0)
(3 -3.71532e-16 0)
(3 -1.08061e-15 0)
(3 -1.25283e-15 0)
(3 -2.13272e-15 0)
(3 -2.15963e-14 0)
(1.316 0.113785 0)
(0.779347 0.0943361 0)
(0.749598 0.0942374 0)
(0.735689 0.102592 0)
(0.718379 0.108253 0)
(0.702145 0.112052 0)
(0.686263 0.112086 0)
(0.671332 0.108801 0)
(0.657065 0.104632 0)
(0.642782 0.10277 0)
(0.628394 0.104389 0)
(0.61389 0.108708 0)
(0.59914 0.113763 0)
(0.583931 0.116623 0)
(0.568869 0.115771 0)
(0.554311 0.11325 0)
(0.539712 0.112521 0)
(0.524915 0.115191 0)
(0.509759 0.120111 0)
(0.493663 0.123467 0)
(0.477599 0.122911 0)
(0.46207 0.122336 0)
(0.447239 0.124934 0)
(0.432489 0.128296 0)
(0.417075 0.129926 0)
(0.401067 0.131204 0)
(0.384538 0.133363 0)
(0.367628 0.135751 0)
(0.350535 0.137917 0)
(0.333383 0.140132 0)
(0.316122 0.142378 0)
(0.298669 0.144468 0)
(0.280973 0.146499 0)
(0.26295 0.148563 0)
(0.244512 0.15063 0)
(0.225635 0.152636 0)
(0.206394 0.154536 0)
(0.186934 0.15631 0)
(0.167399 0.157981 0)
(0.147877 0.159598 0)
(0.128389 0.161276 0)
(0.108921 0.163093 0)
(0.0895132 0.16555 0)
(0.0699023 0.168397 0)
(0.0504141 0.172335 0)
(0.0304272 0.175011 0)
(0.0103541 0.178401 0)
(3 -3.78145e-17 0)
(3 1.00572e-16 0)
(3 4.33137e-16 0)
(3 3.16936e-16 0)
(3 -4.00222e-16 0)
(3 -5.4472e-16 0)
(3 -3.47974e-16 0)
(3 -1.54124e-16 0)
(3 1.0091e-18 0)
(3 5.04099e-16 0)
(3 1.39836e-16 0)
(3 -1.07652e-16 0)
(3 -4.583e-17 0)
(3 -4.89652e-16 0)
(3 -1.27389e-15 0)
(3 -2.43507e-15 0)
(3 -2.24619e-15 0)
(3 -1.35083e-15 0)
(3 -9.63156e-16 0)
(3 -4.68197e-16 0)
(3 -2.09306e-16 0)
(3 -2.21777e-16 0)
(3 -7.09263e-17 0)
(3 -4.83067e-17 0)
(3 -6.92246e-16 0)
(3 -9.92632e-16 0)
(3 -9.04594e-16 0)
(3 -7.80343e-16 0)
(3 -9.36066e-16 0)
(3 -1.00922e-15 0)
(3 -5.37602e-16 0)
(3 -1.14899e-15 0)
(3 -1.122e-15 0)
(3 -9.72393e-16 0)
(3 2.39601e-16 0)
(3 1.11493e-15 0)
(3 1.26069e-15 0)
(3 6.12983e-16 0)
(3 9.96947e-17 0)
(3 -6.79054e-16 0)
(3 -1.01508e-15 0)
(3 -1.07593e-15 0)
(3 -9.35389e-16 0)
(3 -1.07634e-15 0)
(3 -1.11738e-15 0)
(3 -6.96758e-16 0)
(3 -1.26895e-15 0)
(3 -2.06409e-15 0)
(3 -2.80099e-15 0)
(1.40874 0.128181 0)
(0.785599 0.108756 0)
(0.749537 0.106091 0)
(0.7359 0.114986 0)
(0.718787 0.121111 0)
(0.702847 0.125242 0)
(0.687088 0.125477 0)
(0.672051 0.122148 0)
(0.657535 0.117546 0)
(0.64292 0.115136 0)
(0.6283 0.116559 0)
(0.61389 0.121152 0)
(0.599531 0.126761 0)
(0.584727 0.130113 0)
(0.569919 0.129423 0)
(0.55551 0.126621 0)
(0.540927 0.125626 0)
(0.526153 0.128461 0)
(0.511177 0.133937 0)
(0.495221 0.137891 0)
(0.479158 0.137479 0)
(0.463538 0.136699 0)
(0.448568 0.139303 0)
(0.433796 0.143056 0)
(0.418362 0.145116 0)
(0.402365 0.146675 0)
(0.385872 0.149079 0)
(0.368986 0.15173 0)
(0.351878 0.154171 0)
(0.334704 0.15671 0)
(0.317459 0.159332 0)
(0.30008 0.1618 0)
(0.282517 0.164192 0)
(0.26466 0.166627 0)
(0.246375 0.169084 0)
(0.22759 0.171488 0)
(0.208353 0.173768 0)
(0.188813 0.175876 0)
(0.16913 0.17781 0)
(0.149401 0.179597 0)
(0.129654 0.181355 0)
(0.109886 0.183141 0)
(0.0901626 0.185527 0)
(0.0702394 0.188254 0)
(0.0505416 0.192264 0)
(0.030407 0.195016 0)
(0.0103507 0.198678 0)
(3 -3.54101e-16 0)
(3 -1.74205e-16 0)
(3 2.60644e-16 0)
(3 2.07741e-16 0)
(3 -3.81162e-16 0)
(3 -3.85995e-16 0)
(3 -5.05672e-16 0)
(3 -9.60945e-16 0)
(3 -1.3394e-15 0)
(3 -1.29099e-15 0)
(3 -1.01425e-15 0)
(3 -5.87409e-16 0)
(3 -1.03336e-15 0)
(3 -7.60405e-16 0)
(3 -1.53077e-16 0)
(3 -2.72234e-16 0)
(3 2.35195e-16 0)
(3 7.96404e-16 0)
(3 4.427e-16 0)
(3 5.1834e-16 0)
(3 4.57066e-16 0)
(3 2.09164e-16 0)
(3 -2.34188e-16 0)
(3 -4.77759e-16 0)
(3 -6.79901e-16 0)
(3 -5.57186e-16 0)
(3 -5.14181e-16 0)
(3 -7.43291e-16 0)
(3 -1.00457e-15 0)
(3 -1.92132e-15 0)
(3 -1.15287e-16 0)
(3 1.06156e-15 0)
(3 9.14097e-16 0)
(3 4.12578e-16 0)
(3 4.78832e-17 0)
(3 3.55811e-16 0)
(3 5.97579e-16 0)
(3 9.63681e-16 0)
(3 8.35751e-16 0)
(3 -1.58319e-17 0)
(3 6.51693e-17 0)
(3 1.61182e-16 0)
(3 -4.42863e-16 0)
(3 -1.67819e-15 0)
(3 -2.80526e-15 0)
(3 -2.93339e-15 0)
(3 -3.16997e-15 0)
(3 -2.8368e-15 0)
(3 -8.37119e-15 0)
(1.5218 0.142778 0)
(0.793883 0.124897 0)
(0.750239 0.118743 0)
(0.735982 0.127426 0)
(0.718708 0.133663 0)
(0.702869 0.138085 0)
(0.687223 0.138663 0)
(0.672187 0.135511 0)
(0.657584 0.130693 0)
(0.642782 0.127753 0)
(0.627949 0.128807 0)
(0.613519 0.13343 0)
(0.599396 0.139418 0)
(0.584866 0.143267 0)
(0.570192 0.142895 0)
(0.5559 0.139916 0)
(0.541438 0.138606 0)
(0.526918 0.141518 0)
(0.512458 0.147491 0)
(0.496983 0.152083 0)
(0.481186 0.151955 0)
(0.46571 0.151049 0)
(0.450798 0.153642 0)
(0.436174 0.157762 0)
(0.420864 0.160263 0)
(0.404978 0.16211 0)
(0.388573 0.164769 0)
(0.371706 0.167708 0)
(0.354521 0.170445 0)
(0.337219 0.173312 0)
(0.319855 0.176305 0)
(0.302406 0.179143 0)
(0.284838 0.181889 0)
(0.267034 0.184685 0)
(0.248826 0.187529 0)
(0.230098 0.190341 0)
(0.210862 0.193029 0)
(0.191257 0.195517 0)
(0.171448 0.197778 0)
(0.151535 0.199804 0)
(0.131543 0.201709 0)
(0.111461 0.203509 0)
(0.0913709 0.205839 0)
(0.071053 0.208419 0)
(0.0510188 0.212463 0)
(0.030598 0.215277 0)
(0.0104339 0.219201 0)
(3 3.0736e-16 0)
(3 1.71738e-17 0)
(3 -6.58072e-16 0)
(3 -8.92563e-16 0)
(3 -1.1895e-15 0)
(3 -6.41353e-16 0)
(3 -3.6303e-16 0)
(3 -1.13081e-15 0)
(3 -1.66451e-15 0)
(3 -1.02458e-15 0)
(3 -9.46064e-16 0)
(3 -2.2192e-16 0)
(3 2.41366e-16 0)
(3 9.66167e-16 0)
(3 1.28872e-15 0)
(3 1.53902e-15 0)
(3 1.91266e-15 0)
(3 1.64596e-15 0)
(3 1.03446e-15 0)
(3 5.14089e-16 0)
(3 -7.86609e-17 0)
(3 -5.26101e-16 0)
(3 -9.62509e-16 0)
(3 -1.29096e-15 0)
(3 -1.16523e-15 0)
(3 -8.82022e-16 0)
(3 -7.57265e-16 0)
(3 -3.45864e-16 0)
(3 2.56051e-16 0)
(3 4.98119e-16 0)
(3 -2.91782e-16 0)
(3 -2.35815e-16 0)
(3 -4.83158e-16 0)
(3 -2.99767e-16 0)
(3 1.60688e-16 0)
(3 3.70242e-16 0)
(3 6.93307e-16 0)
(3 5.63438e-16 0)
(3 7.04636e-16 0)
(3 4.8788e-16 0)
(3 1.87609e-16 0)
(3 -3.93945e-17 0)
(3 -5.8385e-16 0)
(3 -1.08632e-15 0)
(3 -1.87295e-15 0)
(3 -1.98863e-15 0)
(3 -1.63174e-15 0)
(3 -1.29541e-15 0)
(3 -3.03704e-15 0)
(1.65926 0.156945 0)
(0.805605 0.142371 0)
(0.75204 0.131991 0)
(0.736941 0.140418 0)
(0.719283 0.146677 0)
(0.703159 0.151007 0)
(0.68743 0.151837 0)
(0.672279 0.148918 0)
(0.65756 0.144021 0)
(0.642641 0.140598 0)
(0.627664 0.141186 0)
(0.613209 0.145669 0)
(0.59925 0.151911 0)
(0.584893 0.156272 0)
(0.570167 0.156344 0)
(0.555721 0.153259 0)
(0.541093 0.151492 0)
(0.526504 0.154269 0)
(0.512331 0.16064 0)
(0.497255 0.165919 0)
(0.481706 0.166229 0)
(0.466456 0.165271 0)
(0.451749 0.167835 0)
(0.437491 0.172295 0)
(0.422566 0.175255 0)
(0.407067 0.177422 0)
(0.391034 0.180376 0)
(0.374443 0.183662 0)
(0.357384 0.18675 0)
(0.340088 0.189982 0)
(0.322669 0.193375 0)
(0.305148 0.196614 0)
(0.287526 0.199737 0)
(0.269706 0.2029 0)
(0.251511 0.206122 0)
(0.232795 0.209325 0)
(0.213539 0.212412 0)
(0.193864 0.215295 0)
(0.173932 0.217927 0)
(0.153838 0.220259 0)
(0.133602 0.222385 0)
(0.113198 0.224254 0)
(0.0927205 0.226561 0)
(0.071991 0.228994 0)
(0.0515819 0.233044 0)
(0.0308471 0.235918 0)
(0.0105465 0.240099 0)
(3 -8.35854e-17 0)
(3 -7.46082e-17 0)
(3 -4.94646e-16 0)
(3 -9.50351e-16 0)
(3 -5.49512e-16 0)
(3 9.88662e-17 0)
(3 -7.21862e-17 0)
(3 -6.40151e-16 0)
(3 -1.51117e-15 0)
(3 -1.55731e-15 0)
(3 -1.50719e-15 0)
(3 -1.35748e-15 0)
(3 -6.59869e-16 0)
(3 4.54019e-16 0)
(3 6.36055e-16 0)
(3 1.16081e-15 0)
(3 1.01943e-15 0)
(3 3.85141e-16 0)
(3 2.12589e-16 0)
(3 -2.30656e-17 0)
(3 -1.46098e-15 0)
(3 -2.26189e-15 0)
(3 -2.40582e-15 0)
(3 -1.91251e-15 0)
(3 -1.71231e-15 0)
(3 -1.30726e-15 0)
(3 -1.00117e-15 0)
(3 -8.94728e-16 0)
(3 4.71521e-16 0)
(3 1.24878e-15 0)
(3 7.92216e-17 0)
(3 -1.10795e-15 0)
(3 -1.13327e-15 0)
(3 -9.15711e-16 0)
(3 3.48932e-18 0)
(3 1.03455e-15 0)
(3 1.13967e-15 0)
(3 5.4737e-16 0)
(3 2.64102e-17 0)
(3 -1.59663e-16 0)
(3 -4.29993e-16 0)
(3 -8.08407e-16 0)
(3 -5.94215e-16 0)
(3 -5.86363e-18 0)
(3 -3.06808e-16 0)
(3 -1.17395e-15 0)
(3 -1.29385e-15 0)
(3 -1.01191e-15 0)
(3 -4.2864e-15 0)
(1.8238 0.168694 0)
(0.822107 0.160554 0)
(0.755279 0.145882 0)
(0.739241 0.153524 0)
(0.72158 0.15966 0)
(0.705404 0.164143 0)
(0.689645 0.165019 0)
(0.674463 0.162373 0)
(0.65978 0.157479 0)
(0.644862 0.153644 0)
(0.629773 0.153693 0)
(0.615231 0.157912 0)
(0.601313 0.164309 0)
(0.587033 0.169218 0)
(0.572144 0.169911 0)
(0.557359 0.166914 0)
(0.542362 0.164677 0)
(0.527405 0.167147 0)
(0.513173 0.173739 0)
(0.498231 0.17964 0)
(0.482677 0.180445 0)
(0.467405 0.179427 0)
(0.452634 0.181865 0)
(0.438473 0.186571 0)
(0.423727 0.189963 0)
(0.408474 0.192455 0)
(0.392772 0.195741 0)
(0.376528 0.199448 0)
(0.359748 0.202964 0)
(0.342656 0.206614 0)
(0.325389 0.210453 0)
(0.307979 0.214144 0)
(0.29044 0.217689 0)
(0.272688 0.22125 0)
(0.254546 0.224858 0)
(0.235858 0.228445 0)
(0.216585 0.231926 0)
(0.196835 0.235212 0)
(0.17677 0.238249 0)
(0.156484 0.240946 0)
(0.135989 0.243362 0)
(0.115244 0.245365 0)
(0.094348 0.247701 0)
(0.0731924 0.250013 0)
(0.0523462 0.254065 0)
(0.0312473 0.256997 0)
(0.0107186 0.261426 0)
(3 -4.53145e-16 0)
(3 -2.38694e-16 0)
(3 -2.10471e-16 0)
(3 1.86938e-16 0)
(3 3.91013e-16 0)
(3 8.23569e-16 0)
(3 1.01444e-15 0)
(3 5.56897e-16 0)
(3 -1.46005e-16 0)
(3 -1.46653e-15 0)
(3 -1.81208e-15 0)
(3 -1.65067e-15 0)
(3 -1.01666e-15 0)
(3 -4.13924e-16 0)
(3 1.17144e-16 0)
(3 2.39859e-16 0)
(3 -4.15305e-17 0)
(3 -6.20927e-16 0)
(3 -6.03166e-16 0)
(3 -9.83933e-16 0)
(3 -1.01446e-15 0)
(3 -7.08927e-16 0)
(3 -8.86359e-16 0)
(3 -1.04029e-15 0)
(3 -1.05303e-15 0)
(3 -1.32607e-15 0)
(3 -9.9224e-16 0)
(3 2.14621e-17 0)
(3 7.74415e-16 0)
(3 1.22687e-15 0)
(3 7.96489e-16 0)
(3 -7.35104e-16 0)
(3 -1.19924e-16 0)
(3 1.35256e-15 0)
(3 1.32942e-15 0)
(3 1.52556e-15 0)
(3 1.21147e-15 0)
(3 -3.25698e-16 0)
(3 -1.43245e-15 0)
(3 -1.21781e-15 0)
(3 -1.41299e-15 0)
(3 -5.60082e-16 0)
(3 1.08047e-16 0)
(3 2.33809e-16 0)
(3 1.23611e-16 0)
(3 1.83682e-17 0)
(3 -4.54095e-16 0)
(3 -8.75171e-16 0)
(3 -4.30056e-15 0)
(2.01299 0.176566 0)
(0.842795 0.179384 0)
(0.758118 0.160683 0)
(0.740694 0.167072 0)
(0.722994 0.172679 0)
(0.707021 0.177036 0)
(0.691606 0.178322 0)
(0.677081 0.175624 0)
(0.662917 0.170602 0)
(0.648266 0.16654 0)
(0.633183 0.166072 0)
(0.618569 0.170013 0)
(0.604634 0.176575 0)
(0.590352 0.182119 0)
(0.575237 0.183601 0)
(0.560061 0.180902 0)
(0.544773 0.178176 0)
(0.529586 0.180143 0)
(0.515471 0.186778 0)
(0.50089 0.193254 0)
(0.485462 0.194671 0)
(0.47016 0.193662 0)
(0.455188 0.195961 0)
(0.440857 0.200857 0)
(0.425981 0.204644 0)
(0.410652 0.207406 0)
(0.395007 0.21096 0)
(0.378939 0.215055 0)
(0.362373 0.218994 0)
(0.345509 0.223062 0)
(0.328476 0.227366 0)
(0.311272 0.23156 0)
(0.293876 0.235602 0)
(0.2762 0.239641 0)
(0.258074 0.243707 0)
(0.239346 0.247733 0)
(0.219984 0.251643 0)
(0.200095 0.255358 0)
(0.179845 0.258827 0)
(0.159327 0.261923 0)
(0.13855 0.26468 0)
(0.117452 0.266879 0)
(0.096136 0.269303 0)
(0.0745563 0.271537 0)
(0.0532445 0.275613 0)
(0.0317735 0.278599 0)
(0.0109309 0.283269 0)
(3 2.25505e-16 0)
(3 1.84444e-16 0)
(3 3.118e-16 0)
(3 1.09145e-15 0)
(3 1.09568e-15 0)
(3 1.10172e-15 0)
(3 8.44436e-16 0)
(3 5.14776e-16 0)
(3 6.37583e-16 0)
(3 7.64296e-16 0)
(3 6.04149e-16 0)
(3 6.54963e-16 0)
(3 3.4165e-16 0)
(3 2.79594e-16 0)
(3 5.0601e-16 0)
(3 3.51284e-16 0)
(3 1.83478e-16 0)
(3 -3.49565e-17 0)
(3 -3.19049e-16 0)
(3 -1.54889e-16 0)
(3 5.42189e-16 0)
(3 6.67449e-16 0)
(3 4.42165e-16 0)
(3 -4.44842e-16 0)
(3 -3.25233e-16 0)
(3 -4.45033e-16 0)
(3 -3.38119e-16 0)
(3 -2.63415e-16 0)
(3 1.5371e-16 0)
(3 1.15892e-15 0)
(3 1.50185e-15 0)
(3 1.58931e-15 0)
(3 1.82441e-15 0)
(3 1.86884e-15 0)
(3 2.14812e-15 0)
(3 1.561e-15 0)
(3 5.8689e-16 0)
(3 1.1026e-16 0)
(3 -3.71507e-16 0)
(3 -5.96748e-16 0)
(3 -2.8748e-17 0)
(3 1.10748e-17 0)
(3 -6.70268e-16 0)
(3 -1.12852e-15 0)
(3 -5.62404e-16 0)
(3 4.37409e-16 0)
(3 4.01856e-16 0)
(3 2.83152e-16 0)
(3 7.12851e-16 0)
(2.22513 0.17716 0)
(0.869798 0.198431 0)
(0.760028 0.17864 0)
(0.740924 0.181796 0)
(0.723878 0.186174 0)
(0.709331 0.19002 0)
(0.69549 0.19095 0)
(0.68171 0.18866 0)
(0.667186 0.184492 0)
(0.65174 0.180289 0)
(0.635555 0.179377 0)
(0.619862 0.182835 0)
(0.605354 0.189312 0)
(0.591181 0.195308 0)
(0.576464 0.197444 0)
(0.561728 0.195062 0)
(0.54692 0.191755 0)
(0.532021 0.192951 0)
(0.518309 0.199439 0)
(0.504265 0.206532 0)
(0.488986 0.208835 0)
(0.473576 0.208045 0)
(0.458339 0.21028 0)
(0.443802 0.215364 0)
(0.428835 0.219515 0)
(0.413506 0.22247 0)
(0.397991 0.226179 0)
(0.38215 0.230574 0)
(0.365805 0.234888 0)
(0.349116 0.239351 0)
(0.332224 0.244133 0)
(0.315108 0.248888 0)
(0.297733 0.253513 0)
(0.280021 0.258124 0)
(0.261832 0.262732 0)
(0.243037 0.267258 0)
(0.223608 0.271631 0)
(0.203636 0.275782 0)
(0.183271 0.27968 0)
(0.162579 0.283185 0)
(0.141557 0.286319 0)
(0.120122 0.288782 0)
(0.0983808 0.291383 0)