/*--------------------------------*- C++ -*----------------------------------*\
  =========                 |
  \\      /  F ield         | OpenFOAM: The Open Source CFD Toolbox
   \\    /   O peration     | Website:  https://openfoam.org
    \\  /    A nd           | Version:  7
     \\/     M anipulation  |
\*---------------------------------------------------------------------------*/
FoamFile
{
    version     2.0;
    format      ascii;
    class       volScalarField;
    location    "3";
    object      p;
}
// * * * * * * * * * * * * * * * * * * * * * * * * * * * * * * * * * * * * * //

dimensions      [1 -1 -2 0 0 0 0];

internalField   nonuniform List<scalar> 
64512
(
1
1
1
1
1
1
1
1
1
1
1
1
1
1
1
1
1
1
1
1
1
1
1
1
1
1
1
1
1
1
1
1
1
1
1
1
1
1
1
1
1
1
1
1
1
1
1
1
1
5.57554
10.3715
10.4608
10.5154
10.5806
10.642
10.7002
10.7565
10.8121
10.8659
10.9171
10.9661
11.013
11.0603
11.1102
11.161
11.2111
11.2585
11.3021
11.3426
11.3821
11.4224
11.4623
11.5014
11.5407
11.5794
11.6157
11.6495
11.6829
11.7171
11.7511
11.7828
11.8119
11.8388
11.8646
11.89
11.9144
11.9359
11.9535
11.9668
11.9775
11.9878
11.9996
12.0126
12.0244
12.0339
12.041
1
1
1
1
1
1
1
1
1
1
1
1
1
1
1
1
1
1
1
1
1
1
1
1
1
1
1
1
1
1
1
1
1
1
1
1
1
1
1
1
1
1
1
1
1
1
1
1
1
5.52768
10.3465
10.4621
10.5164
10.581
10.6421
10.7003
10.7564
10.8118
10.8654
10.9164
10.9655
11.0127
11.0597
11.1093
11.1599
11.2095
11.2564
11.3001
11.3407
11.3807
11.4212
11.4615
11.5007
11.5395
11.5779
11.6139
11.6478
11.6812
11.7152
11.7485
11.7796
11.8083
11.8354
11.8617
11.8877
11.9122
11.9335
11.9506
11.9636
11.9744
11.9847
11.9966
12.0094
12.0209
12.0301
12.0369
1
1
1
1
1
1
1
1
1
1
1
1
1
1
1
1
1
1
1
1
1
1
1
1
1
1
1
1
1
1
1
1
1
1
1
1
1
1
1
1
1
1
1
1
1
1
1
1
1
5.4307
10.3235
10.4611
10.5149
10.5781
10.6384
10.6972
10.7539
10.8095
10.8632
10.9141
10.9632
11.0107
11.0575
11.1069
11.1574
11.2067
11.253
11.2965
11.337
11.3775
11.4184
11.4591
11.4987
11.5371
11.5753
11.611
11.6449
11.6784
11.712
11.7445
11.7747
11.8029
11.8301
11.8571
11.8837
11.9084
11.9294
11.946
11.9587
11.9694
11.9799
11.9919
12.0043
12.0153
12.024
12.0305
1
1
1
1
1
1
1
1
1
1
1
1
1
1
1
1
1
1
1
1
1
1
1
1
1
1
1
1
1
1
1
1
1
1
1
1
1
1
1
1
1
1
1
1
1
1
1
1
1
5.28936
10.2939
10.4589
10.5126
10.5746
10.6339
10.6928
10.7502
10.8063
10.8602
10.9111
10.9601
11.0072
11.0536
11.1027
11.1532
11.2023
11.2482
11.2916
11.3322
11.373
11.4142
11.4551
11.495
11.5331
11.5711
11.6066
11.6406
11.6738
11.7066
11.7381
11.7673
11.7952
11.8228
11.8506
11.8777
11.9025
11.923
11.9391
11.9514
11.9621
11.9727
11.9846
11.9966
12.0067
12.0147
12.0207
1
1
1
1
1
1
1
1
1
1
1
1
1
1
1
1
1
1
1
1
1
1
1
1
1
1
1
1
1
1
1
1
1
1
1
1
1
1
1
1
1
1
1
1
1
1
1
1
1
5.10626
10.2559
10.4553
10.5083
10.57
10.6279
10.6862
10.7442
10.8009
10.8556
10.9072
10.9561
11.0025
11.0483
11.097
11.1477
11.1968
11.2426
11.2861
11.3267
11.3672
11.4084
11.4493
11.4893
11.5272
11.5652
11.6005
11.6344
11.6671
11.699
11.7294
11.7581
11.7859
11.814
11.8423
11.8697
11.8943
11.9145
11.9301
11.9423
11.9531
11.9638
11.9753
11.9865
11.9957
12.0028
12.0082
1
1
1
1
1
1
1
1
1
1
1
1
1
1
1
1
1
1
1
1
1
1
1
1
1
1
1
1
1
1
1
1
1
1
1
1
1
1
1
1
1
1
1
1
1
1
1
1
1
4.88522
10.2046
10.4502
10.502
10.564
10.6208
10.6784
10.7367
10.794
10.8494
10.9019
10.9508
10.9967
11.042
11.0897
11.1404
11.1897
11.2359
11.2797
11.3203
11.3602
11.4009
11.4413
11.4814
11.5192
11.5571
11.5922
11.6258
11.6578
11.6888
11.7185
11.7469
11.7749
11.8033
11.8316
11.8589
11.8832
11.9031
11.9186
11.9309
11.9419
11.9528
11.9641
11.9745
11.9828
11.989
11.9938
1
1
1
1
1
1
1
1
1
1
1
1
1
1
1
1
1
1
1
1
1
1
1
1
1
1
1
1
1
1
1
1
1
1
1
1
1
1
1
1
1
1
1
1
1
1
1
1
1
4.62992
10.1365
10.444
10.4931
10.5563
10.6129
10.6699
10.7279
10.7857
10.8416
10.8944
10.9434
10.9894
11.0346
11.0812
11.1314
11.1811
11.2279
11.2723
11.3131
11.352
11.3919
11.4314
11.4715
11.5091
11.5468
11.5813
11.6143
11.6455
11.6759
11.7054
11.734
11.7624
11.7909
11.8191
11.8459
11.8698
11.8895
11.9052
11.9178
11.9292
11.9401
11.9508
11.9603
11.9676
11.9729
11.9772
1
1
1
1
1
1
1
1
1
1
1
1
1
1
1
1
1
1
1
1
1
1
1
1
1
1
1
1
1
1
1
1
1
1
1
1
1
1
1
1
1
1
1
1
1
1
1
1
1
4.3424
10.0486
10.4374
10.4814
10.5466
10.6035
10.6606
10.7185
10.7767
10.8325
10.8849
10.934
10.9804
11.0259
11.0715
11.1209
11.1708
11.2182
11.2631
11.3039
11.3419
11.3808
11.4196
11.4596
11.4969
11.534
11.5678
11.6
11.6307
11.6609
11.6906
11.7197
11.7483
11.7766
11.804
11.8298
11.853
11.8726
11.8887
11.9019
11.9137
11.9247
11.9349
11.9435
11.9501
11.9546
11.9585
1
1
1
1
1
1
1
1
1
1
1
1
1
1
1
1
1
1
1
1
1
1
1
1
1
1
1
1
1
1
1
1
1
1
1
1
1
1
1
1
1
1
1
1
1
1
1
1
1
4.0235
9.93806
10.4308
10.4688
10.5365
10.5933
10.6506
10.7088
10.767
10.8228
10.875
10.924
10.9709
11.0165
11.0617
11.1099
11.1598
11.2074
11.2526
11.2934
11.3308
11.369
11.4069
11.4465
11.4831
11.5195
11.5524
11.5839
11.6142
11.6443
11.6742
11.7037
11.7324
11.7601
11.7864
11.811
11.8333
11.8527
11.8693
11.8833
11.8957
11.9068
11.9167
11.9247
11.9307
11.9349
11.9388
1
1
1
1
1
1
1
1
1
1
1
1
1
1
1
1
1
1
1
1
1
1
1
1
1
1
1
1
1
1
1
1
1
1
1
1
1
1
1
1
1
1
1
1
1
1
1
1
1
3.6742
9.80086
10.4212
10.4556
10.5261
10.5824
10.6395
10.6974
10.7555
10.8114
10.8631
10.9115
10.9584
11.0041
11.0496
11.0964
11.146
11.1933
11.2385
11.2793
11.3166
11.3545
11.3915
11.4305
11.4666
11.5024
11.5349
11.5661
11.5961
11.6261
11.6561
11.6856
11.7142
11.7414
11.7666
11.7898
11.811
11.8301
11.8473
11.8622
11.8754
11.8866
11.8961
11.9035
11.9092
11.9132
11.917
1
1
1
1
1
1
1
1
1
1
1
1
1
1
1
1
1
1
1
1
1
1
1
1
1
1
1
1
1
1
1
1
1
1
1
1
1
1
1
1
1
1
1
1
1
1
1
1
1
3.30385
9.62694
10.4102
10.4457
10.5177
10.5728
10.6289
10.6855
10.7426
10.7982
10.8498
10.8973
10.9437
10.9898
11.0355
11.0815
11.1303
11.1772
11.2219
11.2627
11.2998
11.3375
11.3734
11.4118
11.4476
11.4831
11.5156
11.5468
11.5766
11.6061
11.6356
11.6648
11.6931
11.7198
11.7442
11.7661
11.7862
11.8048
11.8224
11.8383
11.8522
11.8636
11.8728
11.8797
11.8853
11.8893
11.8931
1
1
1
1
1
1
1
1
1
1
1
1
1
1
1
1
1
1
1
1
1
1
1
1
1
1
1
1
1
1
1
1
1
1
1
1
1
1
1
1
1
1
1
1
1
1
1
1
1
2.92297
9.40839
10.3979
10.4366
10.5076
10.5614
10.6167
10.672
10.7284
10.7838
10.8358
10.883
10.9285
10.974
11.0191
11.0645
11.1125
11.1589
11.2031
11.244
11.2811
11.3182
11.3531
11.3908
11.4264
11.4618
11.4946
11.526
11.5557
11.5844
11.6128
11.6412
11.6691
11.6955
11.7192
11.7402
11.7591
11.7772
11.795
11.8115
11.8261
11.8377
11.8466
11.8532
11.8586
11.8627
11.8665
1
1
1
1
1
1
1
1
1
1
1
1
1
1
1
1
1
1
1
1
1
1
1
1
1
1
1
1
1
1
1
1
1
1
1
1
1
1
1
1
1
1
1
1
1
1
1
1
1
2.53577
9.12525
10.3909
10.4338
10.4987
10.5506
10.6047
10.6588
10.7141
10.7688
10.8206
10.8678
10.9125
10.9573
11.0017
11.0463
11.0933
11.1395
11.1831
11.224
11.2605
11.2967
11.3305
11.3675
11.403
11.4385
11.4717
11.5032
11.5326
11.5603
11.5874
11.6148
11.6421
11.6681
11.6914
11.7117
11.7298
11.7472
11.7649
11.7818
11.7968
11.8085
11.8174
11.8237
11.8289
11.833
11.8366
1
1
1
1
1
1
1
1
1
1
1
1
1
1
1
1
1
1
1
1
1
1
1
1
1
1
1
1
1
1
1
1
1
1
1
1
1
1
1
1
1
1
1
1
1
1
1
1
1
2.15858
8.76804
10.3944
10.4304
10.4889
10.5381
10.5904
10.6432
10.6975
10.7516
10.8035
10.8511
10.8953
10.9393
10.9831
11.0269
11.0728
11.1188
11.1617
11.2025
11.2385
11.2737
11.3068
11.343
11.3784
11.4138
11.447
11.4783
11.507
11.5337
11.5596
11.5859
11.6124
11.6379
11.6608
11.6806
11.6981
11.7149
11.7322
11.749
11.764
11.7757
11.7847
11.7911
11.796
11.7999
11.803
1
1
1
1
1
1
1
1
1
1
1
1
1
1
1
1
1
1
1
1
1
1
1
1
1
1
1
1
1
1
1
1
1
1
1
1
1
1
1
1
1
1
1
1
1
1
1
1
1
1.79817
8.33522
10.4054
10.4294
10.4793
10.5249
10.5749
10.6256
10.6782
10.7314
10.7835
10.8319
10.8762
10.9193
10.9624
11.0055
11.0501
11.0959
11.1383
11.1792
11.2149
11.2492
11.2822
11.3176
11.3525
11.3873
11.4201
11.4506
11.4786
11.5045
11.5295
11.5548
11.5804
11.605
11.6272
11.6465
11.6635
11.6798
11.6963
11.7125
11.7273
11.7391
11.7485
11.7552
11.7599
11.7632
11.7654
1
1
1
1
1
1
1
1
1
1
1
1
1
1
1
1
1
1
1
1
1
1
1
1
1
1
1
1
1
1
1
1
1
1
1
1
1
1
1
1
1
1
1
1
1
1
1
1
1
1.47764
7.8374
10.4151
10.4151
10.4609
10.5032
10.5518
10.6026
10.6557
10.7095
10.7619
10.8106
10.855
10.8975
10.9401
10.9827
11.0259
11.0709
11.1131
11.1539
11.1898
11.2233
11.2566
11.2909
11.3252
11.3589
11.3908
11.4203
11.4476
11.473
11.4973
11.5216
11.546
11.5693
11.5905
11.6091
11.6257
11.6414
11.6572
11.6725
11.6868
11.6987
11.7086
11.7156
11.7198
11.722
11.7233
1
1
1
1
1
1
1
1
1
1
1
1
1
1
1
1
1
1
1
1
1
1
1
1
1
1
1
1
1
1
1
1
1
1
1
1
1
1
1
1
1
1
1
1
1
1
1
1
1
1.19582
7.26399
10.4157
10.4093
10.4466
10.488
10.5342
10.5823
10.6325
10.6845
10.7364
10.7856
10.8305
10.8727
10.9149
10.9571
10.9991
11.0432
11.0852
11.1257
11.1622
11.1953
11.2288
11.2621
11.2957
11.328
11.3588
11.3874
11.414
11.439
11.4627
11.4861
11.509
11.5307
11.5506
11.5684
11.5844
11.5994
11.614
11.6283
11.6421
11.6541
11.6644
11.6717
11.6754
11.6765
11.6768
1
1
1
1
1
1
1
1
1
1
1
1
1
1
1
1
1
1
1
1
1
1
1
1
1
1
1
1
1
1
1
1
1
1
1
1
1
1
1
1
1
1
1
1
1
1
1
1
1
1.01006
6.63351
10.32
10.356
10.4036
10.4518
10.5008
10.5527
10.6055
10.6586
10.7106
10.7592
10.8036
10.845
10.8865
10.9283
10.9695
11.0124
11.0544
11.0946
11.132
11.1651
11.1986
11.2308
11.2635
11.2943
11.3241
11.3518
11.3779
11.4025
11.4256
11.4478
11.4691
11.489
11.5074
11.5242
11.5394
11.5532
11.5665
11.5797
11.5931
11.6054
11.6158
11.623
11.626
11.6257
11.6251
1
1
1
1
1
1
1
1
1
1
1
1
1
1
1
1
1
1
1
1
1
1
1
1
1
1
1
1
1
1
1
1
1
1
1
1
1
1
1
1
1
1
1
1
1
1
1
1
1
1.00006
5.9079
10.1969
10.3072
10.3691
10.4271
10.4788
10.5296
10.5797
10.6305
10.681
10.729
10.7731
10.8141
10.8549
10.8958
10.9364
10.9785
11.0204
11.0603
11.0987
11.1321
11.1651
11.1962
11.2279
11.2573
11.2862
11.3133
11.339
11.3631
11.3855
11.4064
11.4259
11.4441
11.4609
11.4764
11.4901
11.5024
11.5141
11.5262
11.5391
11.5514
11.5618
11.5686
11.5709
11.5694
11.5685
1
1
1
1
1
1
1
1
1
1
1
1
1
1
1
1
1
1
1
1
1
1
1
1
1
1
1
1
1
1
1
1
1
1
1
1
1
1
1
1
1
1
1
1
1
1
1
1
1
1
5.0872
10.0396
10.2668
10.3341
10.3959
10.4528
10.507
10.5582
10.6085
10.6581
10.7048
10.7475
10.7866
10.8247
10.8639
10.9025
10.9427
10.9839
11.0233
11.0619
11.0957
11.1278
11.1579
11.1883
11.2167
11.2448
11.2716
11.2971
11.3206
11.342
11.3614
11.3791
11.3955
11.4107
11.4245
11.4365
11.4469
11.4568
11.4677
11.4799
11.492
11.5018
11.5077
11.5091
11.5066
11.5054
1
1
1
1
1
1
1
1
1
1
1
1
1
1
1
1
1
1
1
1
1
1
1
1
1
1
1
1
1
1
1
1
1
1
1
1
1
1
1
1
1
1
1
1
1
1
1
1
1
1
4.23434
9.82674
10.2339
10.3089
10.3754
10.4308
10.4817
10.5315
10.5806
10.6298
10.6768
10.7201
10.759
10.7958
10.8332
10.8704
10.9074
10.9463
10.9841
11.0216
11.056
11.087
11.116
11.1449
11.1725
11.2
11.2264
11.2515
11.2744
11.2946
11.3124
11.3284
11.3431
11.3565
11.3684
11.3782
11.3862
11.3939
11.403
11.414
11.4254
11.4342
11.4392
11.4399
11.4371
11.4362
1
1
1
1
1
1
1
1
1
1
1
1
1
1
1
1
1
1
1
1
1
1
1
1
1
1
1
1
1
1
1
1
1
1
1
1
1
1
1
1
1
1
1
1
1
1
1
1
1
1
3.4007
9.49974
10.2306
10.2957
10.3595
10.4146
10.4667
10.5139
10.5595
10.6054
10.6497
10.6904
10.7273
10.7626
10.7988
10.8355
10.8721
10.9093
10.9447
10.9801
11.013
11.0427
11.0709
11.0979
11.1247
11.1512
11.1772
11.2018
11.2238
11.2428
11.2591
11.2734
11.2862
11.2976
11.3071
11.3143
11.3199
11.3254
11.3326
11.3417
11.3514
11.3586
11.3621
11.3619
11.3587
11.3579
1
1
1
1
1
1
1
1
1
1
1
1
1
1
1
1
1
1
1
1
1
1
1
1
1
1
1
1
1
1
1
1
1
1
1
1
1
1
1
1
1
1
1
1
1
1
1
1
1
1
2.62686
9.02152
10.2464
10.2952
10.3535
10.3973
10.4413
10.486
10.5334
10.58
10.6247
10.6651
10.7005
10.7332
10.7664
10.8006
10.8354
10.8704
10.9045
10.9361
10.969
10.9965
11.0228
11.0479
11.0736
11.0988
11.1238
11.1475
11.1686
11.1865
11.2013
11.2139
11.2246
11.2336
11.2405
11.2448
11.2476
11.2502
11.2545
11.2605
11.2673
11.2722
11.2743
11.274
11.2711
11.2708
1
1
1
1
1
1
1
1
1
1
1
1
1
1
1
1
1
1
1
1
1
1
1
1
1
1
1
1
1
1
1
1
1
1
1
1
1
1
1
1
1
1
1
1
1
1
1
1
1
1
1.89325
8.3975
10.3286
10.2853
10.337
10.3771
10.4215
10.4654
10.509
10.5515
10.594
10.6342
10.6702
10.7033
10.7356
10.7677
10.7998
10.8319
10.8631
10.8919
10.9199
10.9491
10.9733
10.9954
11.0189
11.0426
11.0661
11.0884
11.1083
11.125
11.1385
11.1493
11.1579
11.1641
11.1676
11.1687
11.1683
11.1677
11.1687
11.171
11.1741
11.1756
11.1755
11.1734
11.1699
11.1693
1
1
1
1
1
1
1
1
1
1
1
1
1
1
1
1
1
1
1
1
1
1
1
1
1
1
1
1
1
1
1
1
1
1
1
1
1
1
1
1
1
1
1
1
1
1
1
1
1
1
1.27198
7.61655
10.3984
10.2985
10.3137
10.3446
10.3865
10.4317
10.478
10.5216
10.5631
10.6031
10.6395
10.6723
10.7033
10.7335
10.7637
10.7938
10.8225
10.8491
10.8736
10.8987
10.9213
10.941
10.9616
10.9828
11.0042
11.0247
11.0432
11.0585
11.0705
11.0795
11.0858
11.0885
11.0886
11.086
11.0818
11.0771
11.073
11.0694
11.0666
11.0638
11.061
11.058
11.0547
11.0547
1
1
1
1
1
1
1
1
1
1
1
1
1
1
1
1
1
1
1
1
1
1
1
1
1
1
1
1
1
1
1
1
1
1
1
1
1
1
1
1
1
1
1
1
1
1
1
1
1
1
1.01081
6.73963
10.2451
10.1833
10.2546
10.3072
10.3534
10.3955
10.4382
10.4843
10.5288
10.5692
10.6056
10.6385
10.6692
10.6981
10.7263
10.7542
10.7812
10.8061
10.8283
10.8504
10.8706
10.887
10.9026
10.9208
10.9392
10.957
10.9733
10.9868
10.9969
11.0039
11.0072
11.0063
11.0025
10.9956
10.9867
10.9767
10.9664
10.9566
10.9478
10.9398
10.9321
10.9243
10.9176
10.9147
1
1
1
1
1
1
1
1
1
1
1
1
1
1
1
1
1
1
1
1
1
1
1
1
1
1
1
1
1
1
1
1
1
1
1
1
1
1
1
1
1
1
1
1
1
1
1
1
1
1
1.00003
5.60851
9.99363
10.1388
10.2233
10.2778
10.3252
10.3694
10.4127
10.4514
10.4893
10.5291
10.5671
10.6011
10.6319
10.6601
10.6869
10.7131
10.7383
10.7617
10.782
10.8013
10.8193
10.8333
10.8448
10.8574
10.872
10.8866
10.8999
10.9106
10.9182
10.9225
10.9221
10.9175
10.9094
10.8974
10.8828
10.8659
10.8477
10.829
10.8102
10.7928
10.7774
10.765
10.7561
10.7536
1
1
1
1
1
1
1
1
1
1
1
1
1
1
1
1
1
1
1
1
1
1
1
1
1
1
1
1
1
1
1
1
1
1
1
1
1
1
1
1
1
1
1
1
1
1
1
1
1
1
1
4.52517
9.74588
10.0685
10.171
10.2458
10.2942
10.3348
10.3727
10.4128
10.4521
10.4901
10.5252
10.5584
10.5901
10.6188
10.645
10.6696
10.6932
10.7152
10.7341
10.7511
10.7665
10.7783
10.7866
10.7946
10.8042
10.8145
10.8239
10.8309
10.835
10.8353
10.8304
10.8216
10.8084
10.7905
10.7686
10.7429
10.7148
10.6858
10.6569
10.6298
10.6041
10.5784
10.5561
10.5417
1
1
1
1
1
1
1
1
1
1
1
1
1
1
1
1
1
1
1
1
1
1
1
1
1
1
1
1
1
1
1
1
1
1
1
1
1
1
1
1
1
1
1
1
1
1
1
1
1
1
1
3.45584
9.28694
10.073
10.1755
10.2379
10.2801
10.3131
10.3425
10.3772
10.4121
10.4471
10.4814
10.5145
10.5439
10.5722
10.5985
10.6224
10.6447
10.6652
10.6833
10.6986
10.7117
10.7214
10.7269
10.7309
10.7358
10.741
10.7457
10.7482
10.7479
10.7427
10.733
10.7191
10.6998
10.6746
10.6439
10.6081
10.5683
10.5259
10.4806
10.4326
10.3836
10.3379
10.3016
10.2888
1
1
1
1
1
1
1
1
1
1
1
1
1
1
1
1
1
1
1
1
1
1
1
1
1
1
1
1
1
1
1
1
1
1
1
1
1
1
1
1
1
1
1
1
1
1
1
1
1
1
1
2.38184
8.59807
10.1548
10.1718
10.2066
10.2395
10.2756
10.3103
10.3441
10.3776
10.4104
10.4404
10.4684
10.4968
10.5244
10.5489
10.5715
10.5925
10.6116
10.6285
10.643
10.6545
10.6624
10.6657
10.6662
10.6661
10.666
10.6654
10.6631
10.657
10.646
10.6304
10.61
10.5834
10.5496
10.5085
10.4604
10.4059
10.3457
10.2794
10.209
10.1358
10.0619
9.98144
9.91226
1
1
1
1
1
1
1
1
1
1
1
1
1
1
1
1
1
1
1
1
1
1
1
1
1
1
1
1
1
1
1
1
1
1
1
1
1
1
1
1
1
1
1
1
1
1
1
1
1
1
1
1.44321
7.85509
10.2935
10.1586
10.1687
10.2019
10.2403
10.2741
10.3066
10.3395
10.3721
10.4022
10.4286
10.4525
10.4756
10.4985
10.5187
10.5375
10.5546
10.5701
10.5838
10.5942
10.6006
10.6019
10.5997
10.5947
10.5889
10.5825
10.5744
10.5625
10.5454
10.5232
10.4953
10.46
10.4162
10.3629
10.3005
10.2287
10.1477
10.0551
9.94733
9.81528
9.65749
9.50106
9.38903
1
1
1
1
1
1
1
1
1
1
1
1
1
1
1
1
1
1
1
1
1
1
1
1
1
1
1
1
1
1
1
1
1
1
1
1
1
1
1
1
1
1
1
1
1
1
1
1
1
1
1
1.02441
6.78764
10.1265
10.0777
10.124
10.1619
10.1985
10.2357
10.2689
10.3006
10.3314
10.3612
10.3874
10.4102
10.4311
10.4501
10.467
10.4824
10.4964
10.5092
10.5214
10.5303
10.5355
10.5352
10.5306
10.5216
10.5102
10.4974
10.4831
10.4653
10.4418
10.4123
10.3757
10.3305
10.2752
10.2083
10.1296
10.0375
9.93007
9.79998
9.63956
9.44315
9.20769
8.95281
8.78576
1
1
1
1
1
1
1
1
1
1
1
1
1
1
1
1
1
1
1
1
1
1
1
1
1
1
1
1
1
1
1
1
1
1
1
1
1
1
1
1
1
1
1
1
1
1
1
1
1
1
1
1.00003
5.37729
9.78657
9.99784
10.0755
10.1234
10.1606
10.1948
10.2273
10.2579
10.2876
10.3171
10.3435
10.3656
10.3849
10.4022
10.4165
10.4278
10.438
10.4473
10.4569
10.4631
10.4671
10.4651
10.458
10.4459
10.4292
10.41
10.389
10.3649
10.3348
10.2975
10.2517
10.1959
10.1281
10.0464
9.94955
9.83423
9.69628
9.52571
9.31084
9.02193
8.58772
7.74798
5.77965
1
1
1
1
1
1
1
1
1
1
1
1
1
1
1
1
1
1
1
1
1
1
1
1
1
1
1
1
1
1
1
1
1
1
1
1
1
1
1
1
1
1
1
1
1
1
1
1
1
1
1
1
4.07257
9.46503
9.97493
10.0483
10.1033
10.1339
10.1539
10.181
10.2105
10.2403
10.2697
10.2965
10.3188
10.3374
10.3535
10.3662
10.3746
10.3807
10.3859
10.3914
10.3945
10.3965
10.3924
10.3825
10.3671
10.3457
10.3207
10.2931
10.2625
10.2256
10.1801
10.1247
10.0575
9.97688
9.87961
9.76351
9.62332
9.45222
9.23619
8.94932
8.54688
7.90797
6.94593
4.74515
1
1
1
1
1
1
1
1
1
1
1
1
1
1
1
1
1
1
1
1
1
1
1
1
1
1
1
1
1
1
1
1
1
1
1
1
1
1
1
1
1
1
1
1
1
1
1
1
1
1
1
1
2.77111
8.76813
10.0047
10.0372
10.0734
10.1002
10.124
10.1464
10.1704
10.1967
10.2238
10.2492
10.2706
10.2882
10.3029
10.3141
10.3208
10.3235
10.3249
10.3254
10.3247
10.3239
10.3171
10.3042
10.2854
10.2596
10.2295
10.1957
10.1582
10.1142
10.0602
9.99478
9.9162
9.82285
9.71009
9.57459
9.40916
9.20498
8.94351
8.59902
8.10835
7.45922
6.20188
4.35747
1
1
1
1
1
1
1
1
1
1
1
1
1
1
1
1
1
1
1
1
1
1
1
1
1
1
1
1
1
1
1
1
1
1
1
1
1
1
1
1
1
1
1
1
1
1
1
1
1
1
1
1
1.63857
8.01876
10.1012
10.0109
10.0247
10.0591
10.0886
10.1116
10.1329
10.1548
10.1779
10.2006
10.2205
10.2372
10.2506
10.2602
10.2658
10.2663
10.2646
10.2603
10.2557
10.2511
10.2413
10.225
10.202
10.1719
10.1366
10.0969
10.0526
10.0012
9.93914
9.86415
9.77423
9.66838
9.54072
9.38697
9.19744
8.96409
8.66415
8.27789
7.73826
7.00197
5.76284
4.29092
1
1
1
1
1
1
1
1
1
1
1
1
1
1
1
1
1
1
1
1
1
1
1
1
1
1
1
1
1
1
1
1
1
1
1
1
1
1
1
1
1
1
1
1
1
1
1
1
1
1
1
1
1.04945
6.78161
10.0427
9.96753
9.98192
10.0151
10.0493
10.073
10.0935
10.1133
10.1335
10.1532
10.1706
10.1856
10.1974
10.2049
10.2087
10.2074
10.2028
10.1948
10.1857
10.1761
10.1633
10.144
10.1172
10.0831
10.0426
9.99719
9.94639
9.88769
9.81755
9.7335
9.63271
9.51456
9.37296
9.20328
8.99282
8.73483
8.40675
7.98566
7.4301
6.65122
5.56295
4.3659
1
1
1
1
1
1
1
1
1
1
1
1
1
1
1
1
1
1
1
1
1
1
1
1
1
1
1
1
1
1
1
1
1
1
1
1
1
1
1
1
1
1
1
1
1
1
1
1
1
1
1
1
1.00015
5.19336
9.59226
9.84277
9.92689
9.97501
10.0067
10.0299
10.05
10.0687
10.0873
10.1051
10.1204
10.1337
10.1441
10.1491
10.1507
10.1476
10.1406
10.1297
10.1165
10.1017
10.0849
10.0632
10.0331
9.99495
9.94925
9.89751
9.83985
9.77389
9.69604
9.60388
9.49358
9.3641
9.20976
9.02615
8.7996
8.52247
8.17608
7.73601
7.17609
6.42159
5.50685
4.50885
1
1
1
1
1
1
1
1
1
1
1
1
1
1
1
1
1
1
1
1
1
1
1
1
1
1
1
1
1
1
1
1
1
1
1
1
1
1
1
1
1
1
1
1
1
1
1
1
1
1
1
1
0.999998
3.66338
9.18189
9.8495
9.90668
9.95443
9.97228
9.98791
10.0046
10.0217
10.0387
10.0549
10.0686
10.0801
10.0891
10.0917
10.091
10.0859
10.0769
10.0636
10.0468
10.027
10.0053
9.98003
9.94771
9.90642
9.85634
9.7986
9.734
9.66099
9.57599
9.47643
9.35782
9.21819
9.05274
8.85667
8.61885
8.3294
7.97327
7.53079
6.97518
6.28995
5.51017
4.64183
1
1
1
1
1
1
1
1
1
1
1
1
1
1
1
1
1
1
1
1
1
1
1
1
1
1
1
1
1
1
1
1
1
1
1
1
1
1
1
1
1
1
1
1
1
1
1
1
1
1
1
1
1
2.20662
8.38996
9.92348
9.89184
9.91206
9.93244
9.95147
9.96559
9.97906
9.99287
10.0064
10.0183
10.0281
10.0353
10.036
10.0328
10.0252
10.0135
9.99752
9.97733
9.95318
9.92662
9.8974
9.86289
9.81941
9.7654
9.70205
9.63002
9.54955
9.45757
9.35119
9.2256
9.07784
8.90371
8.69793
8.45243
8.15665
7.79864
7.36453
6.82974
6.2135
5.53186
4.77374
1
1
1
1
1
1
1
1
1
1
1
1
1
1
1
1
1
1
1
1
1
1
1
1
1
1
1
1
1
1
1
1
1
1
1
1
1
1
1
1
1
1
1
1
1
1
1
1
1
1
1
1
1
1.15479
7.25051
10.0048
9.89501
9.86531
9.88801
9.91081
9.9249
9.93641
9.94692
9.9571
9.96674
9.97452
9.97966
9.97883
9.97335
9.96335
9.94924
9.9308
9.90765
9.88025
9.84929
9.81552
9.77723
9.73116
9.67387
9.60605
9.52795
9.44064
9.34221
9.22965
9.09812
8.944
8.76322
8.55088
8.30087
8.00326
7.65045
7.22982
6.72852
6.17295
5.56497
4.90076
1
1
1
1
1
1
1
1
1
1
1
1
1
1
1
1
1
1
1
1
1
1
1
1
1
1
1
1
1
1
1
1
1
1
1
1
1
1
1
1
1
1
1
1
1
1
1
1
1
1
1
1
1
1.00216
5.68218
9.5801
9.72678
9.79723
9.83155
9.86064
9.8794
9.89199
9.90062
9.90792
9.9152
9.9212
9.92442
9.92221
9.91505
9.90285
9.8861
9.86497
9.83863
9.80787
9.77281
9.73464
9.69219
9.64314
9.58332
9.51196
9.42909
9.33581
9.23049
9.11182
8.97498
8.81619
8.63117
8.41542
8.16422
7.86869
7.52707
7.12027
6.65405
6.15858
5.60838
5.02108
1
1
1
1
1
1
1
1
1
1
1
1
1
1
1
1
1
1
1
1
1
1
1
1
1
1
1
1
1
1
1
1
1
1
1
1
1
1
1
1
1
1
1
1
1
1
1
1
1
1
1
1
1
0.999975
3.9464
9.1619
9.69622
9.76248
9.80486
9.82374
9.83675
9.8471
9.85321
9.85785
9.86262
9.86661
9.8678
9.86422
9.85556
9.84144
9.8224
9.79889
9.77034
9.73682
9.6984
9.65612
9.60902
9.55576
9.49282
9.4184
9.33154
9.23384
9.12302
8.99886
8.85754
8.69539
8.50799
8.2912
8.0415
7.75119
7.42394
7.0295
6.60182
6.16046
5.64859
5.12539
1
1
1
1
1
1
1
1
1
1
1
1
1
1
1
1
1
1
1
1
1
1
1
1
1
1
1
1
1
1
1
1
1
1
1
1
1
1
1
1
1
1
1
1
1
1
1
1
1
1
1
1
1
0.999994
2.28331
8.40474
9.77728
9.75237
9.76881
9.78825
9.80117
9.8071
9.80937
9.81053
9.81197
9.81313
9.81196
9.80685
9.79669
9.78079
9.75979
9.73379
9.70317
9.66687
9.62483
9.57806
9.52624
9.46867
9.40272
9.32625
9.23704
9.13529
9.02045
8.89178
8.74576
8.58092
8.39274
8.17704
7.93129
7.64865
7.33305
6.95831
6.57137
6.16016
5.67954
5.22054
1
1
1
1
1
1
1
1
1
1
1
1
1
1
1
1
1
1
1
1
1
1
1
1
1
1
1
1
1
1
1
1
1
1
1
1
1
1
1
1
1
1
1
1
1
1
1
1
1
1
1
1
1
0.999999
1.16261
7.14664
9.84746
9.7425
9.7222
9.74159
9.75499
9.76024
9.7617
9.76101
9.75996
9.75876
9.75565
9.74924
9.73761
9.72007
9.69731
9.66907
9.63615
9.59785
9.55294
9.50227
9.44619
9.38443
9.31514
9.23635
9.14519
9.04033
8.92156
8.78957
8.64071
8.47409
8.28601
8.07309
7.8326
7.55768
7.25318
6.90776
6.54995
6.15412
5.71526
5.30935
1
1
1
1
1
1
1
1
1
1
1
1
1
1
1
1
1
1
1
1
1
1
1
1
1
1
1
1
1
1
1
1
1
1
1
1
1
1
1
1
1
1
1
1
1
1
1
1
1
1
1
1
1
1
1.00227
5.393
9.38293
9.59468
9.67302
9.69926
9.70797
9.71263
9.71346
9.71115
9.70787
9.70423
9.69896
9.69113
9.67818
9.65929
9.63488
9.60473
9.56952
9.52938
9.48211
9.42765
9.36719
9.30118
9.22851
9.14752
9.05499
8.9486
8.82766
8.69243
8.54157
8.37446
8.18688
7.97725
7.74363
7.47748
7.18707
6.86377
6.52656
6.15148
5.76316
5.38628
1
1
1
1
1
1
1
1
1
1
1
1
1
1
1
1
1
1
1
1
1
1
1
1
1
1
1
1
1
1
1
1
1
1
1
1
1
1
1
1
1
1
1
1
1
1
1
1
1
1
1
1
1
1
0.999975
3.41443
8.91909
9.63776
9.65232
9.65515
9.66678
9.67179
9.67084
9.66603
9.65971
9.65284
9.64477
9.63483
9.6203
9.59991
9.57374
9.54171
9.5041
9.46142
9.41214
9.35513
9.29123
9.22158
9.14573
9.06224
8.96809
8.86067
8.73873
8.60174
8.44943
8.28173
8.09584
7.88973
7.66359
7.40862
7.12826
6.82107
6.51246
6.16092
5.8067
5.44258
1
1
1
1
1
1
1
1
1
1
1
1
1
1
1
1
1
1
1
1
1
1
1
1
1
1
1
1
1
1
1
1
1
1
1
1
1
1
1
1
1
1
1
1
1
1
1
1
1
1
1
1
1
1
0.999994
1.73528
8.09677
9.73294
9.61878
9.59604
9.61448
9.62333
9.62302
9.61774
9.60981
9.6004
9.58962
9.57726
9.5612
9.53955
9.5119
9.4782
9.43844
9.39339
9.34231
9.28392
9.21746
9.14441
9.06509
8.9787
8.88275
8.77484
8.65306
8.51609
8.36387
8.19624
8.01188
7.80898
7.59169
7.34594
7.0745
6.79328
6.50297
6.16129
5.83288
5.48944
1
1
1
1
1
1
1
1
1
1
1
1
1
1
1
1
1
1
1
1
1
1
1
1
1
1
1
1
1
1
1
1
1
1
1
1
1
1
1
1
1
1
1
1
1
1
1
1
1
1
1
1
1
1
0.999999
1.05259
6.53588
9.52479
9.50365
9.53586
9.56025
9.5731
9.57489
9.57084
9.56224
9.55067
9.53714
9.52199
9.50409
9.48103
9.45188
9.41656
9.37478
9.32744
9.27424
9.21447
9.1465
9.07107
8.98874
8.89946
8.8015
8.69296
8.57169
8.43587
8.28505
8.1186
7.93643
7.73661
7.52558
7.28833
7.03249
6.77363
6.4802
6.15765
5.86523
5.54445
1
1
1
1
1
1
1
1
1
1
1
1
1
1
1
1
1
1
1
1
1
1
1
1
1
1
1
1
1
1
1
1
1
1
1
1
1
1
1
1
1
1
1
1
1
1
1
1
1
1
1
1
1
1
1
1.00011
4.41795
9.05043
9.43498
9.5012
9.52827
9.5359
9.53264
9.5269
9.51632
9.50196
9.4852
9.46673
9.44638
9.42178
9.39119
9.35441
9.31091
9.2617
9.20669
9.14558
9.0767
8.99983
8.91505
8.82298
8.72281
8.61347
8.49284
8.35892
8.2107
8.04671
7.86822
7.67105
7.46491
7.23631
6.99753
6.74664
6.45657
6.1736
5.89949
5.59092
1
1
1
1
1
1
1
1
1
1
1
1
1
1
1
1
1
1
1
1
1
1
1
1
1
1
1
1
1
1
1
1
1
1
1
1
1
1
1
1
1
1
1
1
1
1
1
1
1
1
1
1
1
1
1
0.999999
2.37223
8.38859
9.54086
9.49984
9.48924
9.49413
9.49149
9.48436
9.4718
9.45479
9.43499
9.41326
9.39014
9.36384
9.33187
9.29388
9.2491
9.19841
9.14172
9.07912
9.00924
8.93143
8.84507
8.75101
8.64897
8.53875
8.41843
8.28632
8.14119
7.98058
7.80618
7.61186
7.41249
7.19129
6.96107
6.71846
6.45198
6.19619
5.92157
5.62759
1
1
1
1
1
1
1
1
1
1
1
1
1
1
1
1
1
1
1
1
1
1
1
1
1
1
1
1
1
1
1
1
1
1
1
1
1
1
1
1
1
1
1
1
1
1
1
1
1
1
1
1
1
1
1
1
1.16576
6.97448
9.57243
9.46204
9.43504
9.44133
9.44393
9.43865
9.42626
9.40783
9.38551
9.36064
9.33443
9.30599
9.27252
9.23344
9.18768
9.13581
9.0776
9.01352
8.94259
8.86408
8.77686
8.6816
8.57831
8.46727
8.34705
8.2164
8.07449
7.91777
7.74746
7.55939
7.36585
7.14726
6.92766
6.70067
6.45375
6.20344
5.93496
5.66993
1
1
1
1
1
1
1
1
1
1
1
1
1
1
1
1
1
1
1
1
1
1
1
1
1
1
1
1
1
1
1
1
1
1
1
1
1
1
1
1
1
1
1
1
1
1
1
1
1
1
1
1
1
1
1
1
1.00212
4.94252
9.05731
9.31015
9.37614
9.40114
9.40286
9.39486
9.38134
9.36145
9.33714
9.3096
9.28041
9.24966
9.21468
9.1747
9.12828
9.07554
9.01611
8.9507
8.87871
8.79959
8.71206
8.61632
8.51257
8.40093
8.28078
8.15104
8.01195
7.85851
7.69326
7.51312
7.32004
7.10957
6.90752
6.68688
6.44625
6.2018
5.95672
5.71749
1
1
1
1
1
1
1
1
1
1
1
1
1
1
1
1
1
1
1
1
1
1
1
1
1
1
1
1
1
1
1
1
1
1
1
1
1
1
1
1
1
1
1
1
1
1
1
1
1
1
1
1
1
1
1
1
0.99998
2.67056
8.44075
9.41273
9.3769
9.36263
9.36391
9.35613
9.34009
9.31772
9.29098
9.2606
9.22822
9.19449
9.15758
9.11666
9.06976
9.01639
8.95608
8.88949
8.81639
8.73663
8.64902
8.55331
8.44977
8.33804
8.2181
8.08897
7.95209
7.80149
7.64237
7.46806
7.27808
7.08396
6.88969
6.66414
6.43664
6.21101
5.98431
5.75379
1
1
1
1
1
1
1
1
1
1
1
1
1
1
1
1
1
1
1
1
1
1
1
1
1
1
1
1
1
1
1
1
1
1
1
1
1
1
1
1
1
1
1
1
1
1
1
1
1
1
1
1
1
1
1
1
0.999995
1.22367
7.10903
9.46886
9.34803
9.31673
9.31175
9.30791
9.29229
9.27046
9.24369
9.21222
9.17789
9.14157
9.1028
9.06075
9.01329
8.95935
8.89845
8.83103
8.75711
8.67685
8.58929
8.49397
8.39101
8.27982
8.16047
8.0319
7.89656
7.74825
7.59418
7.42501
7.24381
7.06211
6.86304
6.64511
6.44078
6.22543
6.0036
5.77508
1
1
1
1
1
1
1
1
1
1
1
1
1
1
1
1
1
1
1
1
1
1
1
1
1
1
1
1
1
1
1
1
1
1
1
1
1
1
1
1
1
1
1
1
1
1
1
1
1
1
1
1
1
1
1
1
0.999999
1.00414
5.03063
8.96853
9.18436
9.2472
9.27325
9.26335
9.24445
9.2224
9.19578
9.16411
9.1284
9.08982
9.04899
9.00545
8.95729
8.90303
8.84202
8.77425
8.69984
8.61907
8.53157
8.4367
8.33464
8.22471
8.10636
7.97839
7.84416
7.69754
7.5478
7.38501
7.21326
7.03515
6.83746
6.63959
6.44798
6.23202
6.01292
5.79504
1
1
1
1
1
1
1
1
1
1
1
1
1
1
1
1
1
1
1
1
1
1
1
1
1
1
1
1
1
1
1
1
1
1
1
1
1
1
1
1
1
1
1
1
1
1
1
1
1
1
1
1
1
1
1
1
1
0.999967
2.62575
8.33825
9.28795
9.25577
9.24573
9.22396
9.20383
9.18034
9.15262
9.11973
9.08248
9.04167
8.9984
8.9528
8.90335
8.84858
8.78744
8.71962
8.64505
8.56417
8.4765
8.3825
8.28078
8.17276
8.05579
7.92879
7.79552
7.65107
7.50535
7.34775
7.18194
7.00808
6.82102
6.63675
6.44477
6.22796
6.02551
5.82566
1
1
1
1
1
1
1
1
1
1
1
1
1
1
1
1
1
1
1
1
1
1
1
1
1
1
1
1
1
1
1
1
1
1
1
1
1
1
1
1
1
1
1
1
1
1
1
1
1
1
1
1
1
1
1
1
1
0.999992
1.20762
6.92426
9.32112
9.22791
9.18421
9.16842
9.1516
9.12968
9.10382
9.07228
9.03553
8.9938
8.94859
8.90087
8.84969
8.7944
8.73334
8.66605
8.59181
8.51106
8.4235
8.32989
8.22889
8.12272
8.00665
7.88153
7.74994
7.60907
7.46622
7.31139
7.15108
6.98569
6.80829
6.62733
6.43494
6.231
6.04653
5.85565
1
1
1
1
1
1
1
1
1
1
1
1
1
1
1
1
1
1
1
1
1
1
1
1
1
1
1
1
1
1
1
1
1
1
1
1
1
1
1
1
1
1
1
1
1
1
1
1
1
1
1
1
1
1
1
1
1
0.999999
1.00337
4.66001
8.82815
9.08549
9.12592
9.12913
9.113
9.08941
9.06222
9.03056
8.99281
8.94954
8.9019
8.85175
8.79849
8.74223
8.68107
8.61431
8.5405
8.46007
8.37302
8.27951
8.1791
8.07356
7.95902
7.83676
7.70772
7.57109
7.42951
7.27699
7.1234
6.96512
6.79104
6.61351
6.43045
6.24268
6.06486
5.87308
1
1
1
1
1
1
1
1
1
1
1
1
1
1
1
1
1
1
1
1
1
1
1
1
1
1
1
1
1
1
1
1
1
1
1
1
1
1
1
1
1
1
1
1
1
1
1
1
1
1
1
1
1
1
1
1
1
1
0.999978
2.20083
8.17626
9.18999
9.12672
9.09424
9.06539
9.0412
9.01677
8.98769
8.95058
8.90665
8.85756
8.80533
8.74993
8.69217
8.63026
8.56369
8.49039
8.41054
8.32422
8.23109
8.13183
8.02574
7.91358
7.79435
7.66834
7.53552
7.39525
7.2466
7.09907
6.94337
6.77187
6.60371
6.43295
6.25381
6.07514
5.88471
1
1
1
1
1
1
1
1
1
1
1
1
1
1
1
1
1
1
1
1
1
1
1
1
1
1
1
1
1
1
1
1
1
1
1
1
1
1
1
1
1
1
1
1
1
1
1
1
1
1
1
1
1
1
1
1
1
1
0.999995
1.11498
6.49545
9.06461
9.04727
9.03757
9.01444
8.99438
8.97071
8.94212
8.90565
8.86172
8.81253
8.75938
8.70259
8.64376
8.58105
8.51463
8.44187
8.36281
8.27728
8.18502
8.0865
7.98095
7.87015
7.75333
7.6304
7.50089
7.36327
7.21954
7.07565
6.92033
6.75496
6.59746
6.43378
6.25701
6.07869
5.89961
1
1
1
1
1
1
1
1
1
1
1
1
1
1
1
1
1
1
1
1
1
1
1
1
1
1
1
1
1
1
1
1
1
1
1
1
1
1
1
1
1
1
1
1
1
1
1
1
1
1
1
1
1
1
1
1
1
1
0.999999
1.00081
3.84078
8.55548
9.00523
8.9941
8.97477
8.96133
8.9419
8.90937
8.8692
8.82375
8.77344
8.71893
8.66027
8.59943
8.53507
8.46788
8.39493
8.31657
8.23198
8.14093
8.04335
7.93923
7.82979
7.71489
7.59467
7.46851
7.33466
7.19557
7.05375
6.90045
6.74333
6.59198
6.43061
6.25729
6.08662
5.9212
1
1
1
1
1
1
1
1
1
1
1
1
1
1
1
1
1
1
1
1
1
1
1
1
1
1
1
1
1
1
1
1
1
1
1
1
1
1
1
1
1
1
1
1
1
1
1
1
1
1
1
1
1
1
1
1
1
1
1
0.999995
1.53986
7.64388
9.16777
9.00375
8.96288
8.93021
8.90069
8.86352
8.82271
8.77983
8.73142
8.67773
8.61832
8.5558
8.48994
8.42158
8.34871
8.27127
8.18774
8.09814
8.00198
7.89941
7.79138
7.67797
7.5599
7.43717
7.30718
7.17172
7.03235
6.88452
6.73412
6.58348
6.42447
6.25915
6.09992
5.94215
1
1
1
1
1
1
1
1
1
1
1
1
1
1
1
1
1
1
1
1
1
1
1
1
1
1
1
1
1
1
1
1
1
1
1
1
1
1
1
1
1
1
1
1
1
1
1
1
1
1
1
1
1
1
1
1
1
1
1
0.999999
1.02502
5.62685
8.75638
8.82184
8.86548
8.88174
8.86085
8.82182
8.78162
8.74032
8.69308
8.63946
8.57938
8.51559
8.44822
8.37815
8.30474
8.22751
8.14506
8.05708
7.96287
7.86237
7.75617
7.64437
7.52837
7.40853
7.28158
7.14927
7.01387
6.87269
6.72555
6.57518
6.42173
6.26513
6.11345
5.95717
1
1
1
1
1
1
1
1
1
1
1
1
1
1
1
1
1
1
1
1
1
1
1
1
1
1
1
1
1
1
1
1
1
1
1
1
1
1
1
1
1
1
1
1
1
1
1
1
1
1
1
1
1
1
1
1
1
1
1
1
0.999943
2.85271
8.15715
8.88317
8.8876
8.8727
8.82559
8.78228
8.74451
8.70311
8.65554
8.60156
8.54152
8.47679
8.40797
8.33615
8.26173
8.18414
8.1026
8.01621
7.9242
7.8261
7.72199
7.61194
7.49794
7.38023
7.25572
7.12686
6.99635
6.85998
6.71453
6.56811
6.42257
6.27244
6.12217
5.96498
1
1
1
1
1
1
1
1
1
1
1
1
1