/*--------------------------------*- C++ -*----------------------------------*\
  =========                 |
  \\      /  F ield         | OpenFOAM: The Open Source CFD Toolbox
   \\    /   O peration     | Website:  https://openfoam.org
    \\  /    A nd           | Version:  9
     \\/     M anipulation  |
\*---------------------------------------------------------------------------*/
FoamFile
{
    format      ascii;
    class       volVectorField;
    location    "48.9";
    object      U;
}
// * * * * * * * * * * * * * * * * * * * * * * * * * * * * * * * * * * * * * //

dimensions      [0 1 -1 0 0 0 0];

internalField   nonuniform List<vector> 
8500
(
(-0.00648289 0.00258982 0)
(-0.0291151 0.00446548 -6.20807e-23)
(-0.0611455 0.00492604 -3.41357e-24)
(-0.0889429 0.00476058 6.46984e-37)
(-0.11634 0.00444259 -9.52076e-24)
(-0.136751 0.0038392 7.92748e-24)
(-0.160643 0.00378471 -5.36959e-23)
(-0.171497 0.00247604 -8.31098e-23)
(-0.19176 0.00350239 -7.60768e-23)
(-0.198861 0.00122673 -3.94661e-24)
(-0.00677654 0.00772075 1.79142e-22)
(-0.0293728 0.0133282 5.80074e-23)
(-0.061025 0.0147106 2.32837e-22)
(-0.0882667 0.0142196 0)
(-0.115083 0.0132679 0)
(-0.134517 0.0114672 1.59705e-23)
(-0.157844 0.0112977 4.03614e-23)
(-0.166979 0.00737835 8.87111e-23)
(-0.186732 0.0104812 5.72817e-23)
(-0.191615 0.00355134 1.57953e-23)
(-0.00735565 0.0126977 -1.59192e-22)
(-0.0298845 0.02197 0)
(-0.0607885 0.0242717 -2.19113e-22)
(-0.0869226 0.0234691 0)
(-0.11258 0.021887 -3.81411e-23)
(-0.130056 0.0189196 3.17582e-23)
(-0.152251 0.0186069 0)
(-0.157905 0.0121139 0)
(-0.176676 0.017364 0)
(-0.177147 0.00548991 0)
(-0.00820438 0.0174249 3.20128e-22)
(-0.0306425 0.030249 -2.32994e-22)
(-0.060444 0.0334625 -5.4955e-23)
(-0.0849273 0.0323698 -3.42739e-22)
(-0.108853 0.0301565 -3.44196e-22)
(-0.123383 0.0260837 3.20402e-23)
(-0.143869 0.0255524 -2.67519e-23)
(-0.144186 0.0165972 3.09105e-22)
(-0.161567 0.0241013 1.90658e-26)
(-0.155427 0.00684388 3.11572e-22)
(-0.0093004 0.0218164 -3.20128e-22)
(-0.0316358 0.0380318 -3.0122e-22)
(-0.0600027 0.0421403 8.26874e-23)
(-0.0823044 0.040783 4.57425e-22)
(-0.103924 0.0379256 -3.89591e-23)
(-0.114524 0.0328524 5.09235e-22)
(-0.132694 0.0319376 0)
(-0.125678 0.0207709 -3.54055e-22)
(-0.141304 0.0306576 -7.55336e-23)
(-0.126235 0.00752693 -4.32859e-22)
(-0.0106165 0.0257992 8.07402e-23)
(-0.03285 0.045196 5.00897e-22)
(-0.059476 0.0501663 -3.87256e-22)
(-0.0790826 0.0485725 -2.96032e-25)
(-0.097813 0.0450363 -3.47199e-22)
(-0.103514 0.0391258 1.28735e-22)
(-0.118689 0.0375174 -5.37635e-23)
(-0.102178 0.0246039 4.42839e-22)
(-0.115668 0.03698 -7.57063e-23)
(-0.08891 0.0076855 2.47934e-22)
(-0.0121224 0.0293161 4.04543e-23)
(-0.0342673 0.0516333 0)
(-0.0588725 0.0574077 -1.56677e-24)
(-0.0752916 0.0556054 0)
(-0.0905196 0.0513256 6.15713e-22)
(-0.0903882 0.0448129 -5.0973e-22)
(-0.101763 0.0419913 0)
(-0.0734272 0.028098 -1.125e-24)
(-0.0843092 0.0428502 0)
(-0.0420577 0.00792947 0)
(-0.0137871 0.0323275 -6.52641e-22)
(-0.035867 0.0572511 -6.74478e-23)
(-0.0581935 0.0637402 4.99734e-22)
(-0.0709545 0.0617531 9.26779e-23)
(-0.0820082 0.056632 -6.19577e-22)
(-0.0751681 0.0498375 -3.81761e-22)
(-0.0816961 0.0449984 -5.40539e-23)
(-0.0391347 0.031341 4.39367e-22)
(-0.0467685 0.047542 -7.60171e-23)
(0.0167341 0.00930709 6.28238e-23)
(-0.0155808 0.0348119 7.34758e-22)
(-0.0376242 0.0619748 -5.42373e-22)
(-0.057427 0.0690511 -1.67548e-22)
(-0.0660768 0.0668912 9.24356e-23)
(-0.0721811 0.0608031 6.19509e-22)
(-0.057828 0.0541534 5.75504e-22)
(-0.05802 0.0461279 -5.4186e-23)
(0.00107385 0.0345137 8.79393e-23)
(-0.00283968 0.0502501 -1.52405e-22)
(0.0914457 0.0123319 6.41176e-23)
(-0.0174768 0.0367662 6.60628e-22)
(-0.0395086 0.0657486 5.42693e-22)
(-0.0565408 0.0732433 -7.86528e-22)
(-0.0606295 0.0709001 -9.27452e-23)
(-0.060841 0.0636972 0)
(-0.0382548 0.0577621 0)
(-0.0299468 0.0451739 0)
(0.0482386 0.0376367 -1.39203e-21)
(0.0472074 0.0500919 -6.3961e-22)
(0.185785 0.0175629 4.86484e-22)
(-0.019453 0.0382041 -1.32553e-21)
(-0.0414817 0.0685359 0)
(-0.055474 0.0762392 1.80079e-21)
(-0.0545317 0.0736687 7.44916e-22)
(-0.0476463 0.0651887 7.75383e-23)
(-0.0160553 0.0605997 0)
(0.00352204 0.0423444 -8.86945e-22)
(0.103703 0.0410485 6.94636e-22)
(0.105025 0.0457397 6.39601e-22)
(0.301375 0.0254828 -4.86466e-22)
(-0.0214925 0.0391538 7.484e-22)
(-0.0434926 0.0703198 -6.85386e-23)
(-0.0541248 0.077985 -9.02138e-22)
(-0.0476261 0.0751023 -8.38502e-22)
(-0.032162 0.0652743 0)
(0.00965031 0.06241 1.02537e-21)
(0.0440896 0.0381337 5.17751e-25)
(0.16828 0.0455534 5.9893e-22)
(0.175878 0.037414 7.17855e-22)
(0.436633 0.0352118 -4.82191e-22)
(-0.0235832 0.0396552 4.56273e-26)
(-0.0454731 0.0711016 1.17544e-21)
(-0.0523351 0.0784529 -1.13546e-22)
(-0.0395937 0.0751095 6.54766e-22)
(-0.0138651 0.0640465 3.91427e-22)
(0.0400738 0.0629702 2.60722e-22)
(0.0945334 0.0333973 8.84621e-22)
(0.24239 0.0510148 -7.7926e-22)
(0.268034 0.0290375 -4.89468e-22)
(0.58548 0.0455166 3.54234e-22)
(-0.0257171 0.0397558 0)
(-0.0473303 0.0708989 -9.68143e-22)
(-0.0498898 0.0776486 -1.14042e-22)
(-0.0299222 0.0736263 1.63034e-24)
(0.00806946 0.0615882 6.24349e-22)
(0.0767331 0.0621875 -8.96399e-22)
(0.158005 0.029735 8.79217e-22)
(0.32661 0.0559465 -8.93944e-23)
(0.387992 0.0265408 0)
(0.7376 0.0563535 0)
(-0.0278884 0.0395072 8.51317e-23)
(-0.0489371 0.0697451 -1.1181e-21)
(-0.0464972 0.0756199 0)
(-0.0179173 0.0706932 -9.24178e-23)
(0.0348442 0.0580468 7.7946e-23)
(0.121744 0.0599441 0)
(0.236884 0.0291778 -8.81104e-22)
(0.422425 0.0592108 -6.89408e-22)
(0.533549 0.0333127 1.50599e-22)
(0.880818 0.0684617 -1.26561e-22)
(-0.0300881 0.0389565 -8.55754e-23)
(-0.0501265 0.0676915 1.18834e-21)
(-0.0417469 0.0724374 0)
(-0.00267689 0.0664695 -8.45556e-22)
(0.0680165 0.0537496 7.79893e-23)
(0.177775 0.0565633 -1.02718e-21)
(0.331696 0.033071 -1.06317e-22)
(0.531722 0.0621023 7.78378e-22)
(0.691795 0.0480641 0)
(1.00456 0.0816091 9.58963e-22)
(-0.0322958 0.0381415 -1.30264e-21)
(-0.0506878 0.0648026 -7.07181e-23)
(-0.035087 0.0681941 -1.14496e-22)
(0.0169655 0.0612175 9.47053e-23)
(0.109546 0.0492824 -1.24494e-21)
(0.247667 0.0532919 1.02716e-21)
(0.44065 0.0414335 8.6521e-22)
(0.653393 0.0676666 6.89347e-22)
(0.844894 0.0670326 1.19474e-21)
(1.10264 0.0944189 -8.38967e-22)
(-0.0344757 0.0370899 1.3888e-21)
(-0.0503546 0.0611446 0)
(-0.0258261 0.0630237 1.04065e-21)
(0.0424546 0.0552892 -9.49837e-23)
(0.161674 0.045466 2.48902e-21)
(0.333434 0.0521437 0)
(0.559869 0.0535511 -8.65192e-22)
(0.780439 0.077541 -1.83679e-24)
(0.978119 0.0869111 -1.3388e-21)
(1.17387 0.105444 1.21088e-22)
(-0.036573 0.0358179 0)
(-0.0487982 0.0567846 1.14497e-21)
(-0.0131284 0.0571008 -9.25811e-22)
(0.0754783 0.0491524 0)
(0.226561 0.0433595 -1.24408e-21)
(0.434677 0.05515 0)
(0.683447 0.0686729 8.50127e-22)
(0.90213 0.0907968 -6.87483e-22)
(1.08399 0.105738 -1.13912e-21)
(1.22116 0.11369 -9.14691e-22)
(-0.038507 0.0343268 -1.76378e-22)
(-0.0456287 0.0517938 -1.00019e-21)
(0.00399143 0.0506408 0)
(0.117883 0.043462 0)
(0.305558 0.0442073 0)
(0.547549 0.0632923 -1.26956e-22)
(0.804 0.0858204 -8.52218e-22)
(1.00916 0.105592 -8.6953e-23)
(1.16176 0.122347 1.13911e-21)
(1.24988 0.118422 1.02896e-21)
(-0.0401689 0.0326073 0)
(-0.0403938 0.0462464 -1.16245e-21)
(0.0266707 0.0439125 0)
(0.171469 0.0391605 0)
(0.398222 0.0491473 0)
(0.665261 0.0760909 1.26063e-22)
(0.914473 0.103642 -1.03919e-21)
(1.0966 0.120555 8.01957e-23)
(1.21508 0.135519 8.0938e-22)
(1.26697 0.119018 8.81505e-22)
(-0.0414351 0.0306555 0)
(-0.0325646 0.0402038 1.16244e-21)
(0.0561928 0.0372815 -9.46799e-22)
(0.237559 0.0374964 0)
(0.501563 0.0586817 -1.24175e-21)
(0.780096 0.0920593 0)
(1.01008 0.120943 8.31139e-22)
(1.16368 0.134616 -6.6074e-22)
(1.24966 0.144161 -1.08343e-21)
(1.29175 0.129603 -8.76615e-22)
(-0.0421651 0.0284575 1.48393e-21)
(-0.0215443 0.0337178 0)
(0.0939411 0.0313068 8.29528e-22)
(0.316328 0.0397734 9.69916e-23)
(0.610283 0.0723341 2.48342e-21)
(0.885691 0.109521 0)
(1.08886 0.137006 -8.09605e-22)
(1.21249 0.146733 -1.30987e-21)
(1.27434 0.152367 -9.04474e-22)
(1.30102 0.135685 -5.29444e-24)
(-0.0421864 0.0259859 -1.57607e-21)
(-0.00666092 0.0268545 7.56304e-23)
(0.141233 0.0268512 1.17952e-22)
(0.406153 0.0468146 -9.75602e-23)
(0.718194 0.0888937 -1.24167e-21)
(0.978197 0.127166 9.97897e-22)
(1.15113 0.151419 8.09601e-22)
(1.24714 0.157392 6.49129e-22)
(1.28862 0.158812 1.03249e-21)
(1.30427 0.141455 -9.05464e-22)
(-0.0413083 0.0232132 9.34627e-23)
(0.0128619 0.0197232 1.13692e-21)
(0.198989 0.025092 0)
(0.503526 0.0585139 -6.78034e-22)
(0.819925 0.107015 -7.88633e-23)
(1.05615 0.144164 -9.97889e-22)
(1.19873 0.164235 9.66477e-23)
(1.2703 0.166549 5.41731e-22)
(1.29638 0.164509 0)
(1.30428 0.146464 8.05993e-22)
(-0.0393234 0.0201115 -9.66516e-23)
(0.0379059 0.0125579 -1.21363e-21)
(0.267276 0.0272658 0)
(0.603771 0.0739246 9.05433e-23)
(0.911898 0.125641 -7.90879e-23)
(1.11982 0.160109 0)
(1.23384 0.175577 -7.72272e-22)
(1.28494 0.174566 -6.22628e-22)
(1.29933 0.169503 -1.17833e-22)
(1.30107 0.150989 -9.91205e-23)
(-0.0359945 0.0166527 0)
(0.0693947 0.00584465 -1.40139e-21)
(0.344949 0.0341823 1.25451e-22)
(0.702216 0.0918074 -5.21324e-24)
(0.99235 0.144103 -6.19202e-22)
(1.1704 0.174861 -1.08977e-21)
(1.25878 0.185667 8.71261e-22)
(1.2932 0.181673 0)
(1.29893 0.174073 0)
(1.29676 0.155294 0)
(-0.0310278 0.012817 2.28924e-24)
(0.108141 0.000426011 1.17556e-21)
(0.429656 0.0458512 1.2714e-22)
(0.795141 0.111112 8.78788e-22)
(1.06088 0.162031 5.39667e-22)
(1.20953 0.188434 -1.05077e-22)
(1.27565 0.194729 7.49985e-22)
(1.29684 0.188124 -5.0192e-22)
(1.29634 0.178368 -5.5986e-22)
(1.29125 0.159449 4.47275e-22)
(-0.0240465 0.00861563 7.34761e-22)
(0.154616 -0.00252839 8.24027e-23)
(0.518253 0.0615519 -1.01572e-21)
(0.880135 0.131117 -7.92731e-22)
(1.11792 0.179246 0)
(1.23894 0.200929 9.59491e-22)
(1.28624 0.202987 -1.57971e-23)
(1.29717 0.194119 6.46686e-22)
(1.29222 0.182509 3.91452e-22)
(1.28525 0.163546 -3.54088e-22)
(-0.0145858 0.00412754 -1.692e-21)
(0.208726 -0.00176209 0)
(0.607435 0.0802625 2.04765e-21)
(0.955971 0.151384 6.96683e-22)
(1.1644 0.195685 7.97209e-23)
(1.26029 0.212486 0)
(1.29202 0.210647 -7.27531e-22)
(1.29513 0.199815 5.45482e-22)
(1.2871 0.18658 4.1996e-22)
(1.2788 0.16763 -3.28369e-22)
(-0.00211953 -0.000457679 8.5685e-22)
(0.269685 0.00368755 6.6576e-22)
(0.694266 0.101069 -1.15754e-21)
(1.02228 0.171669 1.03895e-22)
(1.20144 0.211357 0)
(1.27506 0.223264 0)
(1.29416 0.217882 0)
(1.29141 0.205332 -1.07382e-21)
(1.28126 0.190637 -4.19964e-22)
(1.27207 0.171716 3.28354e-22)
(0.013871 -0.00479701 7.9649e-22)
(0.336104 0.0141907 -6.6003e-22)
(0.776455 0.123319 6.77165e-23)
(1.07924 0.191859 0)
(1.23023 0.22631 5.99994e-22)
(1.28451 0.233416 3.94805e-22)
(1.29355 0.224836 4.51728e-23)
(1.28647 0.210751 -4.43903e-23)
(1.2749 0.194712 1.00026e-22)
(1.2651 0.175819 -4.0224e-23)
(0.0337691 -0.00836525 -9.03609e-22)
(0.406207 0.029496 8.35678e-23)
(0.852405 0.146581 5.35998e-22)
(1.12731 0.211888 -1.48234e-22)
(1.2519 0.240617 -4.50061e-22)
(1.2897 0.243083 -5.60713e-22)
(1.29085 0.231617 4.40886e-23)
(1.28063 0.216127 2.64542e-22)
(1.26812 0.198823 0)
(1.2579 0.179929 -3.52286e-23)
(0.0577442 -0.0105039 -5.86896e-23)
(0.4781 0.0489448 0)
(0.921145 0.170553 6.16934e-24)
(1.16714 0.231706 0)
(1.26751 0.254356 5.83655e-22)
(1.29148 0.252387 -4.28359e-22)
(1.28655 0.238305 0)
(1.27408 0.22149 9.69015e-24)
(1.261 0.202973 0)
(1.25048 0.184037 0)
(0.0857374 -0.0105227 -1.17305e-22)
(0.549975 0.0717723 7.62741e-22)
(0.982221 0.195015 -6.11682e-22)
(1.19942 0.251254 1.00389e-22)
(1.278 0.267606 -2.6778e-22)
(1.29053 0.261427 -4.49772e-23)
(1.281 0.244948 0)
(1.26697 0.226853 1.81296e-22)
(1.25356 0.207157 4.61284e-23)
(1.24282 0.188126 1.28838e-22)
(0.117453 -0.007821 -4.95679e-22)
(0.620214 0.0973014 -3.07454e-22)
(1.03555 0.219806 -1.00676e-22)
(1.22486 0.270474 4.00924e-22)
(1.28417 0.280442 3.24135e-23)
(1.28737 0.270279 4.16591e-22)
(1.27444 0.251573 0)
(1.25935 0.232215 -2.15557e-22)
(1.2458 0.211361 3.93298e-23)
(1.23491 0.192176 -2.82992e-22)
(0.152395 -0.00199717 -4.95678e-22)
(0.687434 0.124995 3.20552e-22)
(1.08133 0.244801 -4.10516e-24)
(1.24413 0.289309 -4.65932e-22)
(1.28668 0.292924 -2.42791e-22)
(1.28242 0.278996 -2.32498e-23)
(1.26704 0.258189 1.94126e-23)
(1.25126 0.237563 2.4039e-22)
(1.23773 0.215568 -2.32075e-24)
(1.22674 0.196162 9.16481e-23)
(0.18992 0.00709961 -2.55807e-22)
(0.750484 0.154423 0)
(1.1199 0.269895 -2.75266e-22)
(1.25792 0.30771 0)
(1.28611 0.305099 -3.05115e-22)
(1.27597 0.287609 2.61258e-23)
(1.25889 0.264787 0)
(1.24273 0.242877 0)
(1.22933 0.219756 0)
(1.2183 0.200058 0)
(0.229291 0.0193922 2.24398e-22)
(0.808454 0.185203 1.0789e-22)
(1.15172 0.29498 2.75268e-22)
(1.26681 0.325642 0)
(1.28289 0.316996 0)
(1.26824 0.29613 -1.06456e-23)
(1.25006 0.271348 4.04816e-23)
(1.23377 0.248132 4.51608e-23)
(1.22061 0.223897 4.08677e-23)
(1.20959 0.203832 -6.75451e-24)
(0.269721 0.0346526 -4.06234e-24)
(0.860695 0.21697 -1.00909e-22)
(1.17723 0.31994 4.60653e-24)
(1.27136 0.343087 5.29868e-24)
(1.27739 0.328629 -8.02989e-24)
(1.25939 0.30455 3.02387e-24)
(1.24059 0.27784 -3.51539e-23)
(1.22436 0.253295 -4.21809e-23)
(1.21154 0.227959 -3.0984e-23)
(1.20064 0.207452 1.15308e-24)
(0.310413 0.0525842 0)
(0.90687 0.24938 -1.01812e-22)
(1.19683 0.344654 -3.03016e-24)
(1.27206 0.360029 6.30213e-24)
(1.2699 0.339998 1.09845e-37)
(1.24952 0.312846 -7.55812e-38)
(1.2305 0.284226 -3.09875e-23)
(1.2145 0.258331 -3.58583e-23)
(1.20212 0.231898 -2.74981e-23)
(1.19146 0.210882 0)
(0.350586 0.0728714 2.94451e-22)
(0.946878 0.28214 8.34513e-23)
(1.2109 0.36901 2.73179e-22)
(1.26931 0.376444 -1.22752e-23)
(1.26065 0.351084 0)
(1.23871 0.32098 8.90188e-24)
(1.21981 0.290461 2.02387e-23)
(1.20419 0.263204 3.86345e-23)
(1.19235 0.235669 2.14467e-23)
(1.18204 0.2141 5.08629e-24)
(0.389498 0.0952135 -2.6246e-22)
(0.980718 0.314989 0)
(1.21983 0.392884 -2.58341e-22)
(1.26348 0.392293 0)
(1.24981 0.361853 -2.4685e-23)
(1.22702 0.328904 2.05543e-23)
(1.20851 0.296499 0)
(1.19342 0.267871 0)
(1.18223 0.239228 0)
(1.17235 0.217086 0)
(0.426464 0.119332 5.2009e-22)
(1.00847 0.347687 -3.3157e-22)
(1.224 0.416153 -6.27339e-23)
(1.25486 0.407535 -2.50711e-22)
(1.23753 0.372257 -2.26642e-22)
(1.21447 0.336562 1.50859e-23)
(1.19662 0.302288 -1.25961e-23)
(1.18218 0.272287 9.72523e-23)
(1.1718 0.242548 2.11699e-24)
(1.16232 0.219815 6.43719e-23)
(0.460869 0.14496 -5.20091e-22)
(1.03029 0.380008 -3.98736e-22)
(1.22374 0.438693 8.68719e-23)
(1.24373 0.42212 2.9879e-22)
(1.22391 0.382237 -1.22462e-23)
(1.2011 0.343891 2.30627e-22)
(1.18411 0.307773 0)
(1.17047 0.276394 -1.10786e-22)
(1.16109 0.245618 -1.54608e-23)
(1.1519 0.222305 -7.72717e-23)
(0.492182 0.171825 1.23469e-22)
(1.04634 0.411735 6.82515e-22)
(1.21938 0.460374 -3.89512e-22)
(1.23033 0.435987 -7.21437e-23)
(1.20904 0.391726 -1.61334e-22)
(1.18693 0.350824 2.97325e-23)
(1.17101 0.312899 -2.01068e-23)
(1.15832 0.280128 9.80704e-23)
(1.1501 0.248421 -1.63045e-23)
(1.14117 0.224593 4.00463e-23)
(0.519961 0.199639 6.25653e-23)
(1.05683 0.442653 0)
(1.2112 0.481064 2.66065e-23)
(1.21484 0.449069 0)
(1.19299 0.400649 3.30359e-22)
(1.17197 0.357291 -2.0433e-22)
(1.15734 0.317604 0)
(1.1458 0.283446 -1.68321e-23)
(1.13876 0.250899 0)
(1.13025 0.226486 0)
(0.54386 0.228088 -9.58641e-22)
(1.06198 0.472548 -7.26524e-23)
(1.1995 0.50063 4.72643e-22)
(1.19743 0.46129 5.08813e-23)
(1.1758 0.40892 -3.29102e-22)
(1.1563 0.363217 -1.05557e-22)
(1.14315 0.321828 -1.45011e-23)
(1.13292 0.286323 3.84487e-23)
(1.12704 0.253009 -9.4853e-24)
(1.11915 0.228024 3.05238e-24)
(0.563623 0.256838 1.06637e-21)
(1.06202 0.501197 -6.33392e-22)
(1.18453 0.518935 -1.34888e-22)
(1.17824 0.472567 6.51394e-23)
(1.15758 0.416447 2.57103e-22)
(1.13999 0.368523 1.61509e-22)
(1.12845 0.325513 -1.15204e-23)
(1.11965 0.288726 -2.85706e-23)
(1.11497 0.254707 -8.54245e-24)
(1.10789 0.229142 2.20177e-24)
(0.579083 0.285537 8.79525e-22)
(1.0572 0.528376 6.13109e-22)
(1.1665 0.535831 -5.59911e-22)
(1.15744 0.482806 -5.82898e-23)
(1.13847 0.423159 0)
(1.123 0.373124 0)
(1.11322 0.328603 0)
(1.10604 0.290613 -7.00765e-23)
(1.1026 0.25596 8.99478e-24)
(1.09646 0.229825 -2.70984e-23)
(0.590157 0.313826 -1.70876e-21)
(1.04776 0.553867 0)
(1.14564 0.551152 1.18392e-21)
(1.13525 0.491912 2.84392e-22)
(1.1185 0.428977 0)
(1.10533 0.376948 0)
(1.09754 0.331033 -2.07224e-23)
(1.09209 0.291944 1.67622e-23)
(1.08995 0.256733 -8.99485e-24)
(1.08491 0.230034 2.70973e-23)
(0.59684 0.341341 9.18096e-22)
(1.03401 0.577469 -7.29362e-23)
(1.12218 0.564727 -5.53543e-22)
(1.11178 0.499766 -3.09027e-22)
(1.09768 0.433819 2.04466e-23)
(1.08705 0.379929 3.81459e-23)
(1.08143 0.332743 5.0874e-23)
(1.07783 0.292676 -5.25037e-23)
(1.07707 0.256992 -7.25883e-23)
(1.07326 0.229743 7.18394e-23)
(0.599204 0.367716 -1.16844e-23)
(1.01627 0.598996 8.54977e-22)
(1.09639 0.57644 -7.37554e-23)
(1.08708 0.506205 1.42429e-22)
(1.07608 0.437609 4.52728e-23)
(1.06821 0.381999 -6.64512e-23)
(1.06494 0.33368 -3.62479e-23)
(1.06331 0.292773 6.65034e-23)
(1.06398 0.256702 -8.98121e-23)
(1.06154 0.228924 -5.29264e-23)
(0.597388 0.392584 0)
(0.994822 0.618222 -7.56479e-22)
(1.06853 0.586197 -6.21381e-23)
(1.06123 0.511099 -6.67216e-23)
(1.0538 0.440243 -3.96307e-23)
(1.04888 0.383095 1.97007e-23)
(1.04813 0.333791 -1.40439e-22)
(1.04857 0.292195 0)
(1.05073 0.25583 0)
(1.0498 0.227539 0)
(0.591593 0.415617 7.46348e-23)
(0.969764 0.634801 -5.80036e-22)
(1.03895 0.593954 0)
(1.03441 0.514371 -7.06379e-23)
(1.0309 0.44163 1.24856e-24)
(1.02914 0.383157 0)
(1.03106 0.333029 1.35125e-22)
(1.03364 0.290911 1.76825e-22)
(1.03733 0.254338 -3.67822e-23)
(1.03806 0.225546 3.08948e-23)
(0.582043 0.436601 -5.24648e-23)
(0.941313 0.648434 6.23104e-22)
(1.00793 0.599566 0)
(1.00675 0.515984 -1.70689e-23)
(1.00749 0.441686 -5.58531e-24)
(1.00905 0.382127 2.51104e-22)
(1.01379 0.331354 2.81255e-23)
(1.01857 0.288888 -2.00367e-22)
(1.02382 0.252193 0)
(1.02638 0.222904 -3.22964e-22)
(0.568951 0.455315 -7.17391e-22)
(0.909951 0.659004 -3.40985e-23)
(0.975609 0.602823 2.65438e-24)
(0.978388 0.515868 -2.19564e-24)
(0.983658 0.440339 3.24222e-22)
(0.988696 0.379954 -2.51106e-22)
(0.996373 0.32873 -2.97924e-22)
(1.00339 0.286095 -2.5742e-22)
(1.01025 0.249367 -4.36718e-22)
(1.01489 0.219606 2.82671e-22)
(0.552437 0.471406 7.58934e-22)
(0.876243 0.666499 0)
(0.942227 0.603596 -1.21035e-22)
(0.949484 0.513958 1.21699e-23)
(0.959508 0.437528 -7.53943e-22)
(0.968169 0.37659 0)
(0.978879 0.325124 2.97926e-22)
(0.988148 0.282494 -4.05784e-23)
(0.996714 0.245833 4.94707e-22)
(1.00386 0.21569 -4.86983e-23)
(0.532714 0.484451 0)
(0.840572 0.670766 -2.96893e-24)
(0.90798 0.601822 1.06323e-22)
(0.920188 0.510185 0)
(0.935154 0.433201 4.29721e-22)
(0.947555 0.371998 0)
(0.961364 0.320511 -4.07832e-22)
(0.972883 0.278045 2.98002e-22)
(0.983391 0.24155 5.55885e-22)
(0.993603 0.211225 4.43544e-22)
(0.510268 0.494283 -1.11945e-23)
(0.80328 0.671668 1.21579e-23)
(0.8731 0.59744 0)
(0.890657 0.504487 0)
(0.910712 0.427318 0)
(0.926946 0.366147 6.48405e-23)
(0.943887 0.314871 2.9968e-22)
(0.95769 0.272723 4.52117e-23)
(0.970469 0.23646 -5.55889e-22)
(0.983996 0.206158 -4.98258e-22)
(0.485517 0.500732 0)
(0.764715 0.669089 3.14989e-22)
(0.837825 0.590408 0)
(0.861052 0.496816 0)
(0.886306 0.419847 0)
(0.906434 0.359015 -7.37041e-23)
(0.926522 0.308189 6.38869e-22)
(0.942693 0.266531 -1.48289e-22)
(0.95803 0.230576 -5.09195e-22)
(0.974378 0.198992 -5.23204e-22)
(0.45887 0.503665 0)
(0.725233 0.662951 -3.1499e-22)
(0.802397 0.580698 5.39326e-22)
(0.83154 0.487134 0)
(0.86206 0.410767 8.5479e-22)
(0.886114 0.350586 0)
(0.909359 0.300452 -5.16902e-22)
(0.928003 0.259484 4.56757e-22)
(0.945824 0.224353 6.68677e-22)
(0.963477 0.193812 5.21836e-22)
(0.430741 0.502989 -5.2001e-22)
(0.6852 0.653206 0)
(0.767061 0.5683 -4.62074e-22)
(0.802288 0.47542 -6.3904e-23)
(0.838101 0.40007 -1.8138e-21)
(0.866086 0.340853 0)
(0.892489 0.291645 6.22961e-22)
(0.913686 0.251505 3.76558e-23)
(0.933971 0.217075 6.86583e-22)
(0.953004 0.187181 2.43898e-24)
(0.401536 0.49865 5.66373e-22)
(0.64498 0.639837 -3.80566e-23)
(0.732059 0.553223 -8.96835e-23)
(0.773468 0.461668 -7.41842e-23)
(0.814559 0.387757 9.59011e-22)
(0.84645 0.329818 -8.49893e-22)
(0.875996 0.281785 -6.22964e-22)
(0.899747 0.242691 -4.94418e-22)
(0.92231 0.209223 -7.77112e-22)
(0.942514 0.180328 7.22588e-22)
(0.371661 0.490634 -5.94076e-23)
(0.604935 0.622857 -8.92468e-22)
(0.697631 0.535493 0)
(0.745252 0.445887 6.31673e-22)
(0.791563 0.373839 7.00882e-23)
(0.827312 0.317493 8.49898e-22)
(0.859968 0.270874 -8.48606e-23)
(0.886257 0.232993 -4.95365e-22)
(0.910989 0.200589 0)
(0.932326 0.172782 -6.44305e-22)
(0.341513 0.478967 6.76354e-23)
(0.565421 0.602309 9.41237e-22)
(0.664014 0.515154 0)
(0.71781 0.428104 -2.2861e-23)
(0.769242 0.358342 7.68712e-23)
(0.808772 0.303898 0)
(0.844483 0.258938 7.71656e-22)
(0.873251 0.222465 5.66396e-22)
(0.900027 0.191306 1.09107e-22)
(0.922488 0.164699 -9.16469e-23)
(0.311479 0.46371 0)
(0.526787 0.578266 1.38728e-21)
(0.631436 0.49227 -1.23177e-22)
(0.691308 0.408359 6.721e-23)
(0.747724 0.341301 6.75086e-22)
(0.790933 0.289063 1.17572e-21)
(0.829621 0.245999 -8.74806e-22)
(0.86079 0.211113 0)
(0.889493 0.181352 0)
(0.913085 0.156039 0)
(0.281933 0.444962 2.41599e-24)
(0.489368 0.550827 -1.15147e-21)
(0.60012 0.466921 1.36699e-22)
(0.665912 0.386711 -9.61152e-22)
(0.727136 0.322763 -5.85379e-22)
(0.773893 0.273028 1.92564e-22)
(0.815456 0.232094 -8.69032e-22)
(0.848928 0.198975 5.79187e-22)
(0.879441 0.170766 6.31161e-22)
(0.904169 0.146834 -4.96013e-22)
(0.253232 0.422858 -7.98108e-22)
(0.453485 0.520116 -8.91756e-23)
(0.570282 0.439207 1.24624e-21)
(0.641779 0.36323 9.78168e-22)
(0.707599 0.302787 0)
(0.75775 0.255842 -1.11388e-21)
(0.802062 0.217262 -4.09547e-23)
(0.837721 0.186082 -7.45359e-22)
(0.869924 0.15957 -4.42474e-22)
(0.895789 0.137106 3.94943e-22)
(0.225717 0.39758 1.90721e-21)
(0.419435 0.48627 0)
(0.542126 0.40924 -2.57689e-21)
(0.619062 0.338004 -8.56118e-22)
(0.689231 0.281442 -1.01314e-22)
(0.742595 0.237561 0)
(0.78951 0.201549 9.01881e-22)
(0.827224 0.172477 -7.20036e-22)
(0.860994 0.147795 -5.51637e-22)
(0.887982 0.126884 4.25222e-22)
(0.199701 0.36935 -1.00046e-21)
(0.387494 0.449449 -8.77295e-22)
(0.515851 0.377148 1.49697e-21)
(0.597905 0.311132 -1.3758e-22)
(0.672144 0.258807 0)
(0.728516 0.218251 0)
(0.777866 0.18501 0)
(0.81749 0.158202 1.46508e-21)
(0.852699 0.135474 5.51639e-22)
(0.880784 0.116204 -4.25222e-22)
(0.175456 0.338387 -1.02851e-21)
(0.357931 0.409864 8.74217e-22)
(0.491651 0.343074 9.19125e-23)
(0.578446 0.282729 0)
(0.656445 0.234974 -8.69586e-22)
(0.715594 0.197985 -5.83312e-22)
(0.767194 0.167704 -6.51119e-23)
(0.808568 0.143306 1.13416e-22)
(0.845085 0.122646 -1.45471e-22)
(0.874225 0.105102 5.8319e-23)
(0.153219 0.304896 1.16816e-21)
(0.330999 0.367767 -1.17378e-22)
(0.4697 0.307181 -9.60661e-22)
(0.560811 0.252923 2.15009e-22)
(0.64223 0.21004 6.47771e-22)
(0.703906 0.176845 8.30107e-22)
(0.757551 0.149696 -6.72108e-23)
(0.800506 0.127842 -3.73703e-22)
(0.838196 0.109353 0)
(0.868333 0.0936196 5.51192e-23)
(0.133216 0.269105 7.96935e-23)
(0.306926 0.323423 0)
(0.45015 0.26965 -2.84568e-23)
(0.545117 0.221851 0)
(0.629588 0.184115 -9.25433e-22)
(0.69352 0.154916 6.99932e-22)
(0.74899 0.131056 0)
(0.793347 0.111864 8.96541e-24)
(0.832072 0.0956411 0)
(0.86313 0.0818014 0)
(0.115658 0.231272 1.64954e-22)
(0.285911 0.277101 -1.12574e-21)
(0.433138 0.230674 8.98901e-22)
(0.531467 0.189662 -1.55036e-22)
(0.6186 0.157313 4.00953e-22)
(0.684498 0.132291 1.08806e-22)
(0.741559 0.111859 0)
(0.787131 0.0954347 -3.05689e-22)
(0.826749 0.0815607 -8.16904e-23)
(0.858636 0.0696933 -2.39399e-22)
(0.10073 0.191679 7.03239e-22)
(0.268128 0.22908 -1.66891e-21)
(0.418779 0.190457 1.54314e-22)
(0.519951 0.156514 -6.46304e-22)
(0.609335 0.129759 -7.22197e-23)
(0.676895 0.109069 -7.15422e-22)
(0.7353 0.0921841 0)
(0.781892 0.0786182 4.17097e-22)
(0.822259 0.0671645 -7.55041e-23)
(0.854867 0.0573416 5.45503e-22)
(0.0885924 0.150625 -7.03239e-22)
(0.253724 0.179653 6.11629e-22)
(0.407172 0.149213 -1.06428e-22)
(0.510645 0.12257 7.587e-22)
(0.60185 0.10158 4.19096e-22)
(0.670756 0.0853515 4.38121e-23)
(0.730249 0.0721138 -3.65808e-23)
(0.777663 0.0614822 -4.67279e-22)
(0.81863 0.0525085 3.86267e-24)
(0.851838 0.0447934 -1.81276e-22)
(0.0793746 0.10842 3.67195e-22)
(0.242816 0.129121 0)
(0.398397 0.107162 4.36546e-22)
(0.503611 0.0880005 0)
(0.596195 0.0729109 5.88883e-23)
(0.666119 0.0612455 -4.90336e-23)
(0.726434 0.0517332 0)
(0.774467 0.0440958 0)
(0.815887 0.0376504 0)
(0.849556 0.0320963 0)
(0.0731745 0.0653853 -3.21658e-22)
(0.235494 0.0777922 -1.24182e-22)
(0.392514 0.0645306 -4.36546e-22)
(0.498895 0.0529812 0)
(0.592404 0.0438884 0)
(0.663012 0.0368597 2.23222e-23)
(0.723878 0.0311295 -8.93389e-23)
(0.772326 0.0265296 -1.06949e-22)
(0.814047 0.0226478 -1.00707e-22)
(0.848031 0.0192969 1.63081e-23)
(0.0700579 0.0218507 -5.81951e-24)
(0.231818 0.025984 1.3392e-22)
(0.389562 0.021549 -6.05406e-24)
(0.49653 0.0176904 2.08331e-23)
(0.590503 0.014653 -8.23187e-24)
(0.661453 0.0123052 0)
(0.722596 0.0103913 7.07011e-23)
(0.771252 0.00885511 1.06949e-22)
(0.813124 0.00755875 7.64223e-23)
(0.847267 0.00643856 1.15338e-23)
(0.0700579 -0.0218513 -5.81951e-24)
(0.231818 -0.0259847 1.3392e-22)
(0.389562 -0.0215497 -6.05406e-24)
(0.49653 -0.017691 2.08331e-23)
(0.590503 -0.0146536 -8.23187e-24)
(0.661453 -0.0123057 0)
(0.722596 -0.0103918 6.22509e-23)
(0.771252 -0.00885551 1.14022e-22)
(0.813124 -0.00755911 8.12913e-23)
(0.847267 -0.00643889 0)
(0.0731745 -0.0653859 -4.12732e-22)
(0.235494 -0.077793 -1.60996e-22)
(0.392514 -0.0645313 -4.62808e-22)
(0.498896 -0.0529818 2.17237e-23)
(0.592404 -0.043889 0)
(0.663012 -0.0368602 -2.23222e-23)
(0.723878 -0.0311299 -5.20632e-23)
(0.772326 -0.02653 -1.06949e-22)
(0.814047 -0.0226482 -6.18754e-23)
(0.848031 -0.0192972 -1.63081e-23)
(0.0793746 -0.10842 3.67195e-22)
(0.242816 -0.129121 0)
(0.398397 -0.107163 4.36546e-22)
(0.503611 -0.0880011 0)
(0.596195 -0.0729114 5.88883e-23)
(0.666119 -0.0612459 -4.90336e-23)
(0.726434 -0.0517336 0)
(0.774467 -0.0440962 0)
(0.815887 -0.0376507 0)
(0.849556 -0.0320967 0)
(0.0885925 -0.150625 -7.03239e-22)
(0.253724 -0.179654 4.77618e-22)
(0.407172 -0.149214 1.06428e-22)
(0.510645 -0.12257 5.1951e-22)
(0.60185 -0.101581 5.47302e-22)
(0.670756 -0.085352 -4.38121e-23)
(0.730249 -0.0721142 3.65807e-23)
(0.777663 -0.0614826 -3.66917e-22)
(0.81863 -0.0525089 -3.86267e-24)
(0.851838 -0.0447938 -3.04096e-22)
(0.10073 -0.19168 7.03239e-22)
(0.268128 -0.229081 5.79668e-22)
(0.418779 -0.190458 -1.54314e-22)
(0.519951 -0.156514 -6.31904e-22)
(0.609335 -0.12976 5.36757e-23)
(0.676895 -0.109069 -7.15421e-22)
(0.7353 -0.0921845 0)
(0.781892 -0.0786186 4.17097e-22)
(0.822259 -0.0671648 7.55041e-23)
(0.854868 -0.057342 4.18666e-22)
(0.115658 -0.231272 -1.64954e-22)
(0.285911 -0.277101 1.12574e-21)
(0.433138 -0.230674 7.03238e-22)
(0.531467 -0.189663 1.55036e-22)
(0.6186 -0.157314 5.02065e-22)
(0.684499 -0.132291 -1.62503e-22)
(0.74156 -0.111859 7.0695e-23)
(0.787131 -0.0954351 -5.00463e-22)
(0.826749 -0.0815611 8.16904e-23)
(0.858636 -0.0696936 -2.39399e-22)
(0.133217 -0.269105 -7.96935e-23)
(0.306926 -0.323424 0)
(0.45015 -0.26965 -2.84568e-23)
(0.545117 -0.221852 0)
(0.629589 -0.184115 -9.25432e-22)
(0.69352 -0.154916 6.99932e-22)
(0.74899 -0.131056 0)
(0.793347 -0.111864 8.96543e-24)
(0.832072 -0.0956414 0)
(0.86313 -0.0818017 0)
(0.15322 -0.304897 1.16816e-21)
(0.330999 -0.367768 1.17378e-22)
(0.4697 -0.307181 -6.759e-22)
(0.560812 -0.252923 -1.39452e-22)
(0.64223 -0.210041 1.09141e-21)
(0.703906 -0.176845 4.92488e-22)
(0.757551 -0.149697 6.72108e-23)
(0.800506 -0.127842 -4.66886e-22)
(0.838196 -0.109353 7.8164e-23)
(0.868333 -0.0936199 -5.51192e-23)
(0.175456 -0.338388 -1.30781e-21)
(0.357932 -0.409865 8.80377e-22)
(0.491652 -0.343074 8.2989e-23)
(0.578446 -0.28273 -1.44675e-22)
(0.656445 -0.234974 -8.69585e-22)
(0.715595 -0.197986 -7.39278e-22)
(0.767194 -0.167705 6.51119e-23)
(0.808568 -0.143307 -6.7883e-23)
(0.845085 -0.122646 1.45471e-22)
(0.874226 -0.105102 -5.83189e-23)
(0.199701 -0.369351 -1.00046e-21)
(0.387494 -0.44945 -8.77295e-22)
(0.515852 -0.377149 1.16432e-21)
(0.597906 -0.311133 1.3758e-22)
(0.672145 -0.258808 0)
(0.728516 -0.218251 0)
(0.777867 -0.185011 0)
(0.81749 -0.158203 1.46508e-21)
(0.852699 -0.135474 5.51639e-22)
(0.880784 -0.116204 -4.25221e-22)
(0.225717 -0.397581 1.9072e-21)
(0.419435 -0.486271 0)
(0.542126 -0.409241 -2.57689e-21)
(0.619062 -0.338004 -9.78171e-22)
(0.689231 -0.281442 0)
(0.742596 -0.237561 0)
(0.78951 -0.20155 9.0188e-22)
(0.827224 -0.172478 -7.20036e-22)
(0.860994 -0.147795 -5.51637e-22)
(0.887982 -0.126885 4.25222e-22)
(0.253232 -0.422858 -1.01538e-21)
(0.453485 -0.520116 8.91755e-23)
(0.570282 -0.439208 1.24624e-21)
(0.64178 -0.363231 1.09344e-21)
(0.707599 -0.302788 -9.56864e-23)
(0.757751 -0.255842 -1.11388e-21)
(0.802062 -0.217262 -4.09547e-23)
(0.837721 -0.186083 -5.82363e-22)
(0.869924 -0.159571 -5.79199e-22)
(0.895789 -0.137106 3.94943e-22)
(0.281933 -0.444962 -2.41601e-24)
(0.489369 -0.550828 -1.32408e-21)
(0.600121 -0.466922 -1.36698e-22)
(0.665912 -0.386712 -7.45001e-22)
(0.727136 -0.322764 -5.95891e-22)
(0.773894 -0.273029 -2.0983e-22)
(0.815456 -0.232095 -8.52805e-22)
(0.848928 -0.198975 7.48529e-22)
(0.879441 -0.170767 3.90508e-22)
(0.90417 -0.146835 -2.93874e-22)
(0.31148 -0.463711 0)
(0.526788 -0.578267 1.08827e-21)
(0.631436 -0.49227 1.23177e-22)
(0.691309 -0.40836 6.721e-23)
(0.747725 -0.341302 6.75086e-22)
(0.790933 -0.289063 9.28644e-22)
(0.829621 -0.246 -7.64485e-22)
(0.86079 -0.211113 8.03294e-23)
(0.889493 -0.181352 0)
(0.913085 -0.156039 0)
(0.341514 -0.478968 -6.76352e-23)
(0.565422 -0.60231 9.41234e-22)
(0.664014 -0.515154 0)
(0.71781 -0.428104 1.62353e-22)
(0.769242 -0.358343 -7.68711e-23)
(0.808772 -0.303898 0)
(0.844483 -0.258938 7.71655e-22)
(0.873252 -0.222465 5.66395e-22)
(0.900027 -0.191306 -1.09107e-22)
(0.922488 -0.1647 9.16468e-23)
(0.371662 -0.490635 5.94074e-23)
(0.604935 -0.622857 -9.89995e-22)
(0.697632 -0.535493 0)