/*--------------------------------*- C++ -*----------------------------------*\
  =========                 |
  \\      /  F ield         | OpenFOAM: The Open Source CFD Toolbox
   \\    /   O peration     | Website:  https://openfoam.org
    \\  /    A nd           | Version:  7
     \\/     M anipulation  |
\*---------------------------------------------------------------------------*/
FoamFile
{
    version     2.0;
    format      ascii;
    class       volVectorField;
    location    "3.9";
    object      U;
}
// * * * * * * * * * * * * * * * * * * * * * * * * * * * * * * * * * * * * * //

dimensions      [0 1 -1 0 0 0 0];

internalField   nonuniform List<vector> 
11050
(
(-3.28981e-11 2.98125e-11 0)
(-1.38653e-10 8.94411e-11 0)
(-3.04475e-10 1.08053e-10 0)
(-4.71745e-10 9.8319e-11 0)
(-5.81953e-10 7.53192e-11 0)
(-6.10967e-10 4.82595e-11 0)
(-5.4724e-10 2.28523e-11 0)
(-3.17608e-10 -1.95705e-12 0)
(5.95485e-11 -4.79996e-11 0)
(4.77183e-10 -8.84263e-11 0)
(9.61363e-10 -1.21664e-10 0)
(1.55759e-09 -1.50047e-10 0)
(2.25453e-09 -1.75195e-10 0)
(3.03578e-09 -1.96209e-10 0)
(3.89302e-09 -2.10882e-10 0)
(4.89389e-09 -2.22259e-10 0)
(5.97309e-09 -2.56451e-10 0)
(7.01345e-09 -2.63965e-10 0)
(8.09016e-09 -2.69578e-10 0)
(9.2551e-09 -2.88272e-10 0)
(1.04763e-08 -3.14558e-10 0)
(1.1714e-08 -3.34631e-10 0)
(1.29463e-08 -3.40513e-10 0)
(1.41732e-08 -3.31944e-10 0)
(1.54647e-08 -3.16431e-10 0)
(1.6821e-08 -3.18411e-10 0)
(1.81226e-08 -3.27132e-10 0)
(1.93673e-08 -3.32135e-10 0)
(2.06052e-08 -3.30853e-10 0)
(2.18248e-08 -3.23459e-10 0)
(2.30107e-08 -3.10151e-10 0)
(2.41554e-08 -2.89972e-10 0)
(2.5323e-08 -2.66009e-10 0)
(2.64967e-08 -2.61264e-10 0)
(2.75627e-08 -2.57569e-10 0)
(2.85392e-08 -2.49256e-10 0)
(2.94742e-08 -2.35893e-10 0)
(3.03566e-08 -2.18261e-10 0)
(3.1171e-08 -1.96051e-10 0)
(3.19114e-08 -1.67551e-10 0)
(3.26463e-08 -1.35539e-10 0)
(3.3358e-08 -1.23563e-10 0)
(3.39327e-08 -1.12375e-10 0)
(3.43944e-08 -9.71995e-11 0)
(3.47942e-08 -7.80142e-11 0)
(-6.76754e-11 1.72048e-10 0)
(-2.64347e-10 3.70749e-10 0)
(-5.29563e-10 4.08091e-10 0)
(-7.43379e-10 3.34224e-10 0)
(-8.01284e-10 1.96292e-10 0)
(-6.46635e-10 2.59999e-11 0)
(-2.4187e-10 -1.57236e-10 0)
(5.08914e-10 -3.50304e-10 0)
(1.60615e-09 -5.83093e-10 0)
(2.90873e-09 -8.02783e-10 0)
(4.41735e-09 -1.00418e-09 0)
(6.19751e-09 -1.18797e-09 0)
(8.23749e-09 -1.3547e-09 0)
(1.05135e-08 -1.502e-09 0)
(1.30116e-08 -1.63039e-09 0)
(1.57963e-08 -1.75511e-09 0)
(1.8812e-08 -1.93629e-09 0)
(2.18692e-08 -2.02383e-09 0)
(2.4991e-08 -2.08525e-09 0)
(2.82795e-08 -2.16501e-09 0)
(3.17161e-08 -2.25979e-09 0)
(3.52396e-08 -2.34007e-09 0)
(3.87976e-08 -2.385e-09 0)
(4.23741e-08 -2.39148e-09 0)
(4.60397e-08 -2.37439e-09 0)
(4.97925e-08 -2.36794e-09 0)
(5.34733e-08 -2.37269e-09 0)
(5.70574e-08 -2.3661e-09 0)
(6.0605e-08 -2.34032e-09 0)
(6.40965e-08 -2.29405e-09 0)
(6.75057e-08 -2.22776e-09 0)
(7.0821e-08 -2.14182e-09 0)
(7.4108e-08 -2.04466e-09 0)
(7.73474e-08 -1.96848e-09 0)
(8.03836e-08 -1.89185e-09 0)
(8.32121e-08 -1.80304e-09 0)
(8.58975e-08 -1.69939e-09 0)
(8.84257e-08 -1.58173e-09 0)
(9.0775e-08 -1.45006e-09 0)
(9.29385e-08 -1.30343e-09 0)
(9.499e-08 -1.14955e-09 0)
(9.69127e-08 -1.02186e-09 0)
(9.85526e-08 -8.95034e-10 0)
(9.99154e-08 -7.59775e-10 0)
(1.01074e-07 -6.14667e-10 0)
(-7.1118e-11 3.94488e-10 0)
(-2.56521e-10 7.34582e-10 0)
(-4.58506e-10 7.3897e-10 0)
(-5.31044e-10 5.11268e-10 0)
(-3.50411e-10 1.33639e-10 0)
(1.56102e-10 -3.33965e-10 0)
(1.03865e-09 -8.52785e-10 0)
(2.39761e-09 -1.40507e-09 0)
(4.25905e-09 -1.99625e-09 0)
(6.48073e-09 -2.57009e-09 0)
(9.03877e-09 -3.11538e-09 0)
(1.20025e-08 -3.62346e-09 0)
(1.53595e-08 -4.08848e-09 0)
(1.90782e-08 -4.50767e-09 0)
(2.31293e-08 -4.89362e-09 0)
(2.75465e-08 -5.28059e-09 0)
(3.23684e-08 -5.76057e-09 0)
(3.73677e-08 -6.05341e-09 0)
(4.2428e-08 -6.26055e-09 0)
(4.76889e-08 -6.45119e-09 0)
(5.31687e-08 -6.64451e-09 0)
(5.88105e-08 -6.81548e-09 0)
(6.45404e-08 -6.93896e-09 0)
(7.0317e-08 -7.00511e-09 0)
(7.61961e-08 -7.02252e-09 0)
(8.21543e-08 -7.00182e-09 0)
(8.8024e-08 -6.97428e-09 0)
(9.37843e-08 -6.9192e-09 0)
(9.94843e-08 -6.82807e-09 0)
(1.05094e-07 -6.69795e-09 0)
(1.10577e-07 -6.52896e-09 0)
(1.15915e-07 -6.32396e-09 0)
(1.21164e-07 -6.09243e-09 0)
(1.26299e-07 -5.84684e-09 0)
(1.31153e-07 -5.58816e-09 0)
(1.35709e-07 -5.30598e-09 0)
(1.40028e-07 -4.99694e-09 0)
(1.44093e-07 -4.66139e-09 0)
(1.47876e-07 -4.30059e-09 0)
(1.51367e-07 -3.91731e-09 0)
(1.54634e-07 -3.52077e-09 0)
(1.57659e-07 -3.12517e-09 0)
(1.60278e-07 -2.72359e-09 0)
(1.62487e-07 -2.30908e-09 0)
(1.6436e-07 -1.88023e-09 0)
(-5.40236e-11 5.8222e-10 0)
(-1.55416e-10 1.00037e-09 0)
(-1.77705e-10 8.94748e-10 0)
(2.23444e-11 4.22007e-10 0)
(5.73555e-10 -3.00502e-10 0)
(1.55462e-09 -1.18315e-09 0)
(3.01846e-09 -2.16317e-09 0)
(5.06363e-09 -3.20215e-09 0)
(7.74264e-09 -4.2846e-09 0)
(1.09199e-08 -5.34818e-09 0)
(1.45508e-08 -6.36872e-09 0)
(1.87049e-08 -7.32647e-09 0)
(2.33652e-08 -8.20802e-09 0)
(2.84841e-08 -9.01152e-09 0)
(3.40065e-08 -9.76239e-09 0)
(3.99148e-08 -1.05144e-08 0)
(4.64389e-08 -1.13979e-08 0)
(5.33359e-08 -1.20056e-08 0)
(6.02582e-08 -1.24513e-08 0)
(6.738e-08 -1.28155e-08 0)
(7.47627e-08 -1.31418e-08 0)
(8.23717e-08 -1.34253e-08 0)
(9.01232e-08 -1.3645e-08 0)
(9.79547e-08 -1.37858e-08 0)
(1.05906e-07 -1.38445e-08 0)
(1.13921e-07 -1.38188e-08 0)
(1.21827e-07 -1.37474e-08 0)
(1.29614e-07 -1.3617e-08 0)
(1.37319e-07 -1.34252e-08 0)
(1.44904e-07 -1.31707e-08 0)
(1.52322e-07 -1.28532e-08 0)
(1.59545e-07 -1.24747e-08 0)
(1.66623e-07 -1.20419e-08 0)
(1.73518e-07 -1.15603e-08 0)
(1.80058e-07 -1.10408e-08 0)
(1.86224e-07 -1.04754e-08 0)
(1.92067e-07 -9.86526e-09 0)
(1.97564e-07 -9.21223e-09 0)
(2.02684e-07 -8.519e-09 0)
(2.07411e-07 -7.79015e-09 0)
(2.11807e-07 -7.03349e-09 0)
(2.15853e-07 -6.25696e-09 0)
(2.19381e-07 -5.4601e-09 0)
(2.2238e-07 -4.63891e-09 0)
(2.2492e-07 -3.79628e-09 0)
(-2.45571e-11 6.9107e-10 0)
(6.99472e-12 1.07549e-09 0)
(2.45811e-10 7.63633e-10 0)
(8.10738e-10 -5.02491e-11 0)
(1.827e-09 -1.21693e-09 0)
(3.37322e-09 -2.61822e-09 0)
(5.49961e-09 -4.16566e-09 0)
(8.29877e-09 -5.79616e-09 0)
(1.18429e-08 -7.47004e-09 0)
(1.60077e-08 -9.1328e-09 0)
(2.07345e-08 -1.07365e-08 0)
(2.60891e-08 -1.22543e-08 0)
(3.20442e-08 -1.36658e-08 0)
(3.85284e-08 -1.49665e-08 0)
(4.5453e-08 -1.61839e-08 0)
(5.27392e-08 -1.73672e-08 0)
(6.08697e-08 -1.86497e-08 0)
(6.96102e-08 -1.96404e-08 0)
(7.83371e-08 -2.04274e-08 0)
(8.72463e-08 -2.10461e-08 0)
(9.64284e-08 -2.15596e-08 0)
(1.05877e-07 -2.19818e-08 0)
(1.15513e-07 -2.2308e-08 0)
(1.25265e-07 -2.2527e-08 0)
(1.35157e-07 -2.26291e-08 0)
(1.45103e-07 -2.26026e-08 0)
(1.54917e-07 -2.24831e-08 0)
(1.64601e-07 -2.2257e-08 0)
(1.74179e-07 -2.1933e-08 0)
(1.83606e-07 -2.15146e-08 0)
(1.92831e-07 -2.10022e-08 0)
(2.01816e-07 -2.03973e-08 0)
(2.10603e-07 -1.97037e-08 0)
(2.19143e-07 -1.89257e-08 0)
(2.27257e-07 -1.80789e-08 0)
(2.34926e-07 -1.71513e-08 0)
(2.42192e-07 -1.61541e-08 0)
(2.49025e-07 -1.50929e-08 0)
(2.55393e-07 -1.39718e-08 0)
(2.61272e-07 -1.27968e-08 0)
(2.66721e-07 -1.15745e-08 0)
(2.71719e-07 -1.03119e-08 0)
(2.76095e-07 -9.01497e-09 0)
(2.79832e-07 -7.67429e-09 0)
(2.82997e-07 -6.30216e-09 0)
(1.08861e-11 6.9417e-10 0)
(2.07998e-10 9.05982e-10 0)
(7.63379e-10 2.79484e-10 0)
(1.75372e-09 -9.78807e-10 0)
(3.29934e-09 -2.69074e-09 0)
(5.47523e-09 -4.71121e-09 0)
(8.32702e-09 -6.92654e-09 0)
(1.19422e-08 -9.24738e-09 0)
(1.63912e-08 -1.16e-08 0)
(2.15642e-08 -1.39514e-08 0)
(2.74014e-08 -1.62284e-08 0)
(3.39544e-08 -1.84152e-08 0)
(4.11892e-08 -2.04843e-08 0)
(4.90118e-08 -2.24188e-08 0)
(5.73116e-08 -2.42108e-08 0)
(6.59589e-08 -2.58601e-08 0)
(7.56132e-08 -2.73998e-08 0)
(8.60621e-08 -2.87839e-08 0)
(9.65172e-08 -2.99822e-08 0)
(1.07165e-07 -3.08871e-08 0)
(1.18077e-07 -3.1671e-08 0)
(1.29273e-07 -3.22853e-08 0)
(1.40681e-07 -3.274e-08 0)
(1.5223e-07 -3.3048e-08 0)
(1.63944e-07 -3.32145e-08 0)
(1.75705e-07 -3.32304e-08 0)
(1.8732e-07 -3.30742e-08 0)
(1.98793e-07 -3.27363e-08 0)
(2.10127e-07 -3.22532e-08 0)
(2.2128e-07 -3.16325e-08 0)
(2.32196e-07 -3.08775e-08 0)
(2.42831e-07 -2.99932e-08 0)
(2.53219e-07 -2.89848e-08 0)
(2.63298e-07 -2.78543e-08 0)
(2.72891e-07 -2.66173e-08 0)
(2.81974e-07 -2.52498e-08 0)
(2.90569e-07 -2.3785e-08 0)
(2.98652e-07 -2.22301e-08 0)
(3.06185e-07 -2.05904e-08 0)
(3.13141e-07 -1.88739e-08 0)
(3.19576e-07 -1.7089e-08 0)
(3.25459e-07 -1.524e-08 0)
(3.3063e-07 -1.3342e-08 0)
(3.35063e-07 -1.13713e-08 0)
(3.3881e-07 -9.36078e-09 0)
(5.09765e-11 5.9834e-10 0)
(4.37168e-10 5.36208e-10 0)
(1.34186e-09 -5.24023e-10 0)
(2.79062e-09 -2.34261e-09 0)
(4.90605e-09 -4.70752e-09 0)
(7.75493e-09 -7.44885e-09 0)
(1.13771e-08 -1.04292e-08 0)
(1.58623e-08 -1.35392e-08 0)
(2.12554e-08 -1.66689e-08 0)
(2.74529e-08 -1.97418e-08 0)
(3.43949e-08 -2.27711e-08 0)
(4.21134e-08 -2.57528e-08 0)
(5.059e-08 -2.86499e-08 0)
(5.97376e-08 -3.14089e-08 0)
(6.94509e-08 -3.39236e-08 0)
(7.96073e-08 -3.60437e-08 0)
(9.07283e-08 -3.73866e-08 0)
(1.02634e-07 -3.91294e-08 0)
(1.14751e-07 -4.08274e-08 0)
(1.27064e-07 -4.226e-08 0)
(1.39593e-07 -4.33934e-08 0)
(1.52483e-07 -4.42471e-08 0)
(1.65582e-07 -4.48631e-08 0)
(1.7881e-07 -4.52729e-08 0)
(1.92201e-07 -4.55018e-08 0)
(2.05679e-07 -4.55714e-08 0)
(2.19045e-07 -4.53437e-08 0)
(2.32227e-07 -4.48798e-08 0)
(2.45219e-07 -4.42177e-08 0)
(2.57998e-07 -4.33576e-08 0)
(2.70504e-07 -4.23097e-08 0)
(2.82685e-07 -4.1092e-08 0)
(2.94574e-07 -3.97245e-08 0)
(3.06099e-07 -3.82091e-08 0)
(3.17095e-07 -3.64877e-08 0)
(3.27512e-07 -3.46082e-08 0)
(3.37352e-07 -3.26057e-08 0)
(3.46607e-07 -3.04789e-08 0)
(3.55232e-07 -2.8234e-08 0)
(3.63195e-07 -2.58854e-08 0)
(3.70553e-07 -2.34538e-08 0)
(3.77268e-07 -2.09425e-08 0)
(3.83191e-07 -1.83079e-08 0)
(3.8828e-07 -1.56012e-08 0)
(3.92566e-07 -1.28554e-08 0)
(1.28887e-10 5.01197e-10 0)
(7.15617e-10 4.49574e-12 0)
(1.94522e-09 -1.66064e-09 0)
(3.86655e-09 -4.17078e-09 0)
(6.57805e-09 -7.29297e-09 0)
(1.01295e-08 -1.08414e-08 0)
(1.45501e-08 -1.4661e-08 0)
(1.99372e-08 -1.86232e-08 0)
(2.63581e-08 -2.2603e-08 0)
(3.36037e-08 -2.65172e-08 0)
(4.15601e-08 -3.03796e-08 0)
(5.03428e-08 -3.41526e-08 0)
(5.99771e-08 -3.78127e-08 0)
(7.04446e-08 -4.13144e-08 0)
(8.17339e-08 -4.45357e-08 0)
(9.39912e-08 -4.72911e-08 0)
(1.06545e-07 -4.91482e-08 0)
(1.1924e-07 -5.13547e-08 0)
(1.32678e-07 -5.34783e-08 0)
(1.46627e-07 -5.53878e-08 0)
(1.60908e-07 -5.68458e-08 0)
(1.75458e-07 -5.7947e-08 0)
(1.90182e-07 -5.87399e-08 0)
(2.05015e-07 -5.92465e-08 0)
(2.19979e-07 -5.94816e-08 0)
(2.35107e-07 -5.94632e-08 0)
(2.50155e-07 -5.9122e-08 0)
(2.64937e-07 -5.8536e-08 0)
(2.79506e-07 -5.76857e-08 0)
(2.93837e-07 -5.65682e-08 0)
(3.07846e-07 -5.51984e-08 0)
(3.21466e-07 -5.35985e-08 0)
(3.3474e-07 -5.1792e-08 0)
(3.47668e-07 -4.979e-08 0)
(3.60022e-07 -4.75322e-08 0)
(3.71669e-07 -4.51089e-08 0)
(3.82676e-07 -4.25114e-08 0)
(3.93038e-07 -3.97427e-08 0)
(4.02694e-07 -3.68151e-08 0)
(4.11595e-07 -3.37451e-08 0)
(4.19801e-07 -3.05542e-08 0)
(4.27341e-07 -2.72529e-08 0)
(4.33998e-07 -2.38077e-08 0)
(4.39667e-07 -2.03061e-08 0)
(4.44448e-07 -1.67388e-08 0)
(1.56381e-10 2.95321e-10 0)
(9.03824e-10 -8.75957e-10 0)
(2.5013e-09 -3.30456e-09 0)
(4.94834e-09 -6.6308e-09 0)
(8.29236e-09 -1.0613e-08 0)
(1.25757e-08 -1.50534e-08 0)
(1.78255e-08 -1.97861e-08 0)
(2.41388e-08 -2.46698e-08 0)
(3.15461e-08 -2.95943e-08 0)
(3.98296e-08 -3.44925e-08 0)
(4.89038e-08 -3.92542e-08 0)
(5.88537e-08 -4.3809e-08 0)
(6.96801e-08 -4.81484e-08 0)
(8.14023e-08 -5.22705e-08 0)
(9.40601e-08 -5.61382e-08 0)
(1.07843e-07 -5.96722e-08 0)
(1.21838e-07 -6.27896e-08 0)
(1.35862e-07 -6.55786e-08 0)
(1.50718e-07 -6.80413e-08 0)
(1.66188e-07 -7.01864e-08 0)
(1.8206e-07 -7.19361e-08 0)
(1.98186e-07 -7.32981e-08 0)
(2.14478e-07 -7.42797e-08 0)
(2.30881e-07 -7.48846e-08 0)
(2.47423e-07 -7.5111e-08 0)
(2.64101e-07 -7.49532e-08 0)
(2.80647e-07 -7.4513e-08 0)
(2.96929e-07 -7.37776e-08 0)
(3.13011e-07 -7.27113e-08 0)
(3.28825e-07 -7.13176e-08 0)
(3.44276e-07 -6.9605e-08 0)
(3.59294e-07 -6.75854e-08 0)
(3.73914e-07 -6.52721e-08 0)
(3.88138e-07 -6.26848e-08 0)
(4.01712e-07 -5.98749e-08 0)
(4.14526e-07 -5.68473e-08 0)
(4.26661e-07 -5.35835e-08 0)
(4.3808e-07 -5.01024e-08 0)
(4.48718e-07 -4.64207e-08 0)
(4.58529e-07 -4.25512e-08 0)
(4.67568e-07 -3.85053e-08 0)
(4.75845e-07 -3.43028e-08 0)
(4.83131e-07 -3.00103e-08 0)
(4.89355e-07 -2.56279e-08 0)
(4.94628e-07 -2.11414e-08 0)
(1.60142e-10 -1.33053e-10 0)
(1.06262e-09 -2.16363e-09 0)
(3.04938e-09 -5.48047e-09 0)
(6.03108e-09 -9.74413e-09 0)
(1.0021e-08 -1.46995e-08 0)
(1.50496e-08 -2.01343e-08 0)
(2.11342e-08 -2.5875e-08 0)
(2.83538e-08 -3.17809e-08 0)
(3.67323e-08 -3.77608e-08 0)
(4.60857e-08 -4.36727e-08 0)
(5.63241e-08 -4.93954e-08 0)
(6.74779e-08 -5.48502e-08 0)
(7.95168e-08 -6.00086e-08 0)
(9.24606e-08 -6.48724e-08 0)
(1.06382e-07 -6.94503e-08 0)
(1.21476e-07 -7.37201e-08 0)
(1.36906e-07 -7.76943e-08 0)
(1.5243e-07 -8.10552e-08 0)
(1.68728e-07 -8.39419e-08 0)
(1.85643e-07 -8.64266e-08 0)
(2.02994e-07 -8.85082e-08 0)
(2.20625e-07 -9.01576e-08 0)
(2.3844e-07 -9.13474e-08 0)
(2.56375e-07 -9.2065e-08 0)
(2.74454e-07 -9.23155e-08 0)
(2.92598e-07 -9.21037e-08 0)
(3.10561e-07 -9.15413e-08 0)
(3.28284e-07 -9.05915e-08 0)
(3.45799e-07 -8.92567e-08 0)
(3.63024e-07 -8.75432e-08 0)
(3.79859e-07 -8.54502e-08 0)
(3.96225e-07 -8.29813e-08 0)
(4.12146e-07 -8.01485e-08 0)
(4.27579e-07 -7.69776e-08 0)
(4.423e-07 -7.35374e-08 0)
(4.5624e-07 -6.98045e-08 0)
(4.69443e-07 -6.57908e-08 0)
(4.81862e-07 -6.15207e-08 0)
(4.93436e-07 -5.70117e-08 0)
(5.04117e-07 -5.22772e-08 0)
(5.13952e-07 -4.73306e-08 0)
(5.22908e-07 -4.22034e-08 0)
(5.30784e-07 -3.69521e-08 0)
(5.37551e-07 -3.15628e-08 0)
(5.43284e-07 -2.60537e-08 0)
(1.78255e-10 -6.73477e-10 0)
(1.24196e-09 -3.73453e-09 0)
(3.60175e-09 -8.09683e-09 0)
(7.10793e-09 -1.34316e-08 0)
(1.17433e-08 -1.94778e-08 0)
(1.75194e-08 -2.6013e-08 0)
(2.4434e-08 -3.28557e-08 0)
(3.25373e-08 -3.98623e-08 0)
(4.18905e-08 -4.69397e-08 0)
(5.23314e-08 -5.39055e-08 0)
(6.37321e-08 -6.06577e-08 0)
(7.61018e-08 -6.70989e-08 0)
(8.9375e-08 -7.31712e-08 0)
(1.03545e-07 -7.88606e-08 0)
(1.18682e-07 -8.4192e-08 0)
(1.34978e-07 -8.91882e-08 0)
(1.5182e-07 -9.38976e-08 0)
(1.68898e-07 -9.78481e-08 0)
(1.86624e-07 -1.01217e-07 0)
(2.04919e-07 -1.04104e-07 0)
(2.2367e-07 -1.06534e-07 0)
(2.4275e-07 -1.08472e-07 0)
(2.62051e-07 -1.09857e-07 0)
(2.81478e-07 -1.1069e-07 0)
(3.01036e-07 -1.10984e-07 0)
(3.2061e-07 -1.10755e-07 0)
(3.39964e-07 -1.10038e-07 0)
(3.59069e-07 -1.08836e-07 0)
(3.77938e-07 -1.07181e-07 0)
(3.965e-07 -1.05095e-07 0)
(4.14653e-07 -1.02577e-07 0)
(4.32309e-07 -9.96248e-08 0)
(4.49471e-07 -9.62474e-08 0)
(4.66078e-07 -9.24784e-08 0)
(4.81919e-07 -8.83372e-08 0)
(4.96933e-07 -8.38355e-08 0)
(5.11147e-07 -7.90002e-08 0)
(5.24513e-07 -7.38643e-08 0)
(5.36971e-07 -6.84525e-08 0)
(5.48472e-07 -6.27831e-08 0)
(5.59049e-07 -5.68755e-08 0)
(5.68666e-07 -5.07717e-08 0)
(5.77134e-07 -4.44668e-08 0)
(5.84417e-07 -3.79878e-08 0)
(5.90578e-07 -3.13683e-08 0)
(2.04876e-10 -1.29812e-09 0)
(1.4323e-09 -5.57575e-09 0)
(4.15264e-09 -1.11477e-08 0)
(8.17115e-09 -1.7688e-08 0)
(1.34427e-08 -2.49432e-08 0)
(1.99613e-08 -3.26868e-08 0)
(2.77031e-08 -4.07267e-08 0)
(3.66913e-08 -4.8906e-08 0)
(4.70171e-08 -5.71067e-08 0)
(5.85296e-08 -6.51798e-08 0)
(7.1075e-08 -7.30179e-08 0)
(8.46572e-08 -8.05036e-08 0)
(9.91767e-08 -8.75598e-08 0)
(1.14582e-07 -9.4148e-08 0)
(1.30919e-07 -1.00288e-07 0)
(1.48365e-07 -1.06025e-07 0)
(1.66584e-07 -1.11425e-07 0)
(1.85206e-07 -1.16006e-07 0)
(2.04341e-07 -1.19922e-07 0)
(2.23986e-07 -1.2324e-07 0)
(2.44091e-07 -1.25995e-07 0)
(2.64583e-07 -1.28163e-07 0)
(2.85329e-07 -1.29616e-07 0)
(3.06184e-07 -1.30543e-07 0)
(3.27153e-07 -1.30927e-07 0)
(3.48132e-07 -1.3078e-07 0)
(3.68878e-07 -1.29933e-07 0)
(3.89332e-07 -1.28475e-07 0)
(4.09499e-07 -1.26469e-07 0)
(4.29326e-07 -1.23959e-07 0)
(4.48728e-07 -1.20961e-07 0)
(4.67611e-07 -1.17475e-07 0)
(4.85957e-07 -1.13507e-07 0)
(5.03706e-07 -1.0909e-07 0)
(5.20649e-07 -1.0421e-07 0)
(5.36704e-07 -9.88983e-08 0)
(5.51889e-07 -9.31844e-08 0)
(5.66153e-07 -8.71151e-08 0)
(5.79445e-07 -8.07264e-08 0)
(5.91717e-07 -7.40461e-08 0)
(6.02988e-07 -6.70987e-08 0)
(6.13246e-07 -5.99293e-08 0)
(6.22301e-07 -5.2507e-08 0)
(6.30082e-07 -4.48769e-08 0)
(6.36652e-07 -3.70723e-08 0)
(2.34047e-10 -2.02496e-09 0)
(1.62228e-09 -7.69955e-09 0)
(4.69576e-09 -1.46376e-08 0)
(9.21645e-09 -2.25115e-08 0)
(1.51077e-08 -3.10924e-08 0)
(2.2356e-08 -4.01522e-08 0)
(3.09229e-08 -4.94866e-08 0)
(4.0814e-08 -5.89184e-08 0)
(5.21093e-08 -6.82898e-08 0)
(6.46593e-08 -7.75274e-08 0)
(7.83252e-08 -8.65002e-08 0)
(9.31033e-08 -9.50846e-08 0)
(1.08864e-07 -1.03201e-07 0)
(1.25516e-07 -1.10771e-07 0)
(1.43057e-07 -1.17771e-07 0)
(1.61639e-07 -1.24233e-07 0)
(1.81181e-07 -1.30234e-07 0)
(2.01292e-07 -1.35527e-07 0)
(2.21836e-07 -1.40069e-07 0)
(2.42854e-07 -1.43813e-07 0)
(2.64323e-07 -1.46801e-07 0)
(2.86279e-07 -1.49099e-07 0)
(3.08399e-07 -1.50742e-07 0)
(3.30474e-07 -1.5179e-07 0)
(3.52682e-07 -1.52226e-07 0)
(3.75056e-07 -1.52107e-07 0)
(3.97279e-07 -1.51149e-07 0)
(4.19084e-07 -1.49462e-07 0)
(4.40525e-07 -1.47112e-07 0)
(4.61572e-07 -1.44156e-07 0)
(4.82163e-07 -1.40626e-07 0)
(5.02214e-07 -1.36542e-07 0)
(5.21689e-07 -1.31917e-07 0)
(5.40541e-07 -1.26774e-07 0)
(5.58556e-07 -1.21111e-07 0)
(5.75626e-07 -1.14955e-07 0)
(5.91757e-07 -1.08324e-07 0)
(6.06887e-07 -1.01275e-07 0)
(6.20975e-07 -9.38481e-08 0)
(6.33977e-07 -8.60804e-08 0)
(6.45905e-07 -7.80049e-08 0)
(6.56775e-07 -6.96585e-08 0)
(6.66394e-07 -6.10489e-08 0)
(6.7466e-07 -5.22053e-08 0)
(6.81629e-07 -4.31504e-08 0)
(2.62019e-10 -2.84955e-09 0)
(1.806e-09 -1.00742e-08 0)
(5.23146e-09 -1.84844e-08 0)
(1.02442e-08 -2.78187e-08 0)
(1.67304e-08 -3.78504e-08 0)
(2.46896e-08 -4.83395e-08 0)
(3.40761e-08 -5.90678e-08 0)
(4.48939e-08 -6.98418e-08 0)
(5.71552e-08 -8.04692e-08 0)
(7.07046e-08 -9.09282e-08 0)
(8.54584e-08 -1.01044e-07 0)
(1.01387e-07 -1.10824e-07 0)
(1.1836e-07 -1.2015e-07 0)
(1.36282e-07 -1.28859e-07 0)
(1.55101e-07 -1.36808e-07 0)
(1.74903e-07 -1.43935e-07 0)
(1.95634e-07 -1.50215e-07 0)
(2.17052e-07 -1.56146e-07 0)
(2.3907e-07 -1.61346e-07 0)
(2.61603e-07 -1.65631e-07 0)
(2.84487e-07 -1.68995e-07 0)
(3.07658e-07 -1.71545e-07 0)
(3.30987e-07 -1.73468e-07 0)
(3.54381e-07 -1.74616e-07 0)
(3.77844e-07 -1.75008e-07 0)
(4.01536e-07 -1.747e-07 0)
(4.25161e-07 -1.7358e-07 0)
(4.483e-07 -1.71665e-07 0)
(4.71013e-07 -1.69039e-07 0)
(4.93275e-07 -1.65655e-07 0)
(5.15032e-07 -1.61547e-07 0)
(5.36207e-07 -1.56783e-07 0)
(5.56773e-07 -1.51417e-07 0)
(5.76679e-07 -1.45463e-07 0)
(5.95711e-07 -1.38956e-07 0)
(6.13762e-07 -1.31877e-07 0)
(6.30814e-07 -1.24324e-07 0)
(6.46792e-07 -1.16289e-07 0)
(6.61659e-07 -1.07782e-07 0)
(6.75372e-07 -9.88468e-08 0)
(6.87947e-07 -8.95457e-08 0)
(6.99393e-07 -7.99109e-08 0)
(7.09526e-07 -7.00278e-08 0)
(7.18258e-07 -5.98538e-08 0)
(7.25616e-07 -4.94981e-08 0)
(2.95384e-10 -3.69251e-09 0)
(2.02698e-09 -1.25794e-08 0)
(5.79431e-09 -2.26153e-08 0)
(1.12416e-08 -3.35702e-08 0)
(1.82901e-08 -4.51684e-08 0)
(2.69435e-08 -5.71726e-08 0)
(3.71433e-08 -6.93672e-08 0)
(4.88943e-08 -8.15559e-08 0)
(6.21282e-08 -9.35362e-08 0)
(7.66991e-08 -1.05244e-07 0)
(9.24594e-08 -1.16572e-07 0)
(1.09365e-07 -1.2752e-07 0)
(1.27472e-07 -1.37972e-07 0)
(1.46726e-07 -1.47779e-07 0)
(1.67036e-07 -1.56756e-07 0)
(1.88446e-07 -1.64736e-07 0)
(2.10322e-07 -1.71494e-07 0)
(2.32635e-07 -1.77971e-07 0)
(2.55935e-07 -1.83774e-07 0)
(2.79893e-07 -1.88698e-07 0)
(3.04196e-07 -1.92641e-07 0)
(3.28687e-07 -1.95612e-07 0)
(3.533e-07 -1.97692e-07 0)
(3.77993e-07 -1.98861e-07 0)
(4.02738e-07 -1.99134e-07 0)
(4.27698e-07 -1.98395e-07 0)
(4.52593e-07 -1.97013e-07 0)
(4.76956e-07 -1.94886e-07 0)
(5.00903e-07 -1.91954e-07 0)
(5.24451e-07 -1.88137e-07 0)
(5.4742e-07 -1.83464e-07 0)
(5.69701e-07 -1.78017e-07 0)
(5.91311e-07 -1.71871e-07 0)
(6.12216e-07 -1.65011e-07 0)
(6.32232e-07 -1.5756e-07 0)
(6.51185e-07 -1.49532e-07 0)
(6.69065e-07 -1.40995e-07 0)
(6.85899e-07 -1.31911e-07 0)
(7.01585e-07 -1.2228e-07 0)
(7.16027e-07 -1.12143e-07 0)
(7.29246e-07 -1.01563e-07 0)
(7.41231e-07 -9.0554e-08 0)
(7.51863e-07 -7.92925e-08 0)
(7.61013e-07 -6.77647e-08 0)
(7.68681e-07 -5.60478e-08 0)
(3.33232e-10 -4.59645e-09 0)
(2.22549e-09 -1.53211e-08 0)
(6.29335e-09 -2.71962e-08 0)
(1.21846e-08 -3.99112e-08 0)
(1.98196e-08 -5.31773e-08 0)
(2.91649e-08 -6.67743e-08 0)
(4.01598e-08 -8.05034e-08 0)
(5.28191e-08 -9.41787e-08 0)
(6.70449e-08 -1.07628e-07 0)
(8.26082e-08 -1.20678e-07 0)
(9.93796e-08 -1.33294e-07 0)
(1.17354e-07 -1.45346e-07 0)
(1.36565e-07 -1.56786e-07 0)
(1.57002e-07 -1.6757e-07 0)
(1.7864e-07 -1.77573e-07 0)
(2.01614e-07 -1.86586e-07 0)
(2.24774e-07 -1.94256e-07 0)
(2.48049e-07 -2.01301e-07 0)
(2.72504e-07 -2.07608e-07 0)
(2.97769e-07 -2.13077e-07 0)
(3.23469e-07 -2.17566e-07 0)
(3.49358e-07 -2.20977e-07 0)
(3.75338e-07 -2.23282e-07 0)
(4.01381e-07 -2.24479e-07 0)
(4.27589e-07 -2.24587e-07 0)
(4.53767e-07 -2.23464e-07 0)
(4.79602e-07 -2.21735e-07 0)
(5.05103e-07 -2.19277e-07 0)
(5.30308e-07 -2.15918e-07 0)
(5.55099e-07 -2.11633e-07 0)
(5.79257e-07 -2.06417e-07 0)
(6.02658e-07 -2.00312e-07 0)
(6.25368e-07 -1.93374e-07 0)
(6.47285e-07 -1.85621e-07 0)
(6.68166e-07 -1.77174e-07 0)
(6.87953e-07 -1.68127e-07 0)
(7.06677e-07 -1.58467e-07 0)
(7.24331e-07 -1.48222e-07 0)
(7.40796e-07 -1.3741e-07 0)
(7.5596e-07 -1.26045e-07 0)
(7.69867e-07 -1.14161e-07 0)
(7.8241e-07 -1.0178e-07 0)
(7.9343e-07 -8.90831e-08 0)
(8.02937e-07 -7.61474e-08 0)
(8.10954e-07 -6.29544e-08 0)
(3.48338e-10 -5.66715e-09 0)
(2.36176e-09 -1.84419e-08 0)
(6.73894e-09 -3.22869e-08 0)
(1.3103e-08 -4.68642e-08 0)
(2.13262e-08 -6.19088e-08 0)
(3.13535e-08 -7.72024e-08 0)
(4.31179e-08 -9.2558e-08 0)
(5.66211e-08 -1.07813e-07 0)
(7.18037e-08 -1.22858e-07 0)
(8.8401e-08 -1.37375e-07 0)
(1.06241e-07 -1.51301e-07 0)
(1.25311e-07 -1.64518e-07 0)
(1.45594e-07 -1.77004e-07 0)
(1.67126e-07 -1.88762e-07 0)
(1.89994e-07 -1.99735e-07 0)
(2.14479e-07 -2.09747e-07 0)
(2.39027e-07 -2.18468e-07 0)
(2.63379e-07 -2.26134e-07 0)
(2.88911e-07 -2.32869e-07 0)
(3.15324e-07 -2.38737e-07 0)
(3.4231e-07 -2.43654e-07 0)
(3.69598e-07 -2.47467e-07 0)
(3.97031e-07 -2.5005e-07 0)
(4.2452e-07 -2.51336e-07 0)
(4.52179e-07 -2.5135e-07 0)
(4.79563e-07 -2.5013e-07 0)
(5.06374e-07 -2.48045e-07 0)
(5.32943e-07 -2.4504e-07 0)
(5.59284e-07 -2.41127e-07 0)
(5.85248e-07 -2.36293e-07 0)
(6.10585e-07 -2.30484e-07 0)
(6.35124e-07 -2.23692e-07 0)
(6.58902e-07 -2.15972e-07 0)
(6.81821e-07 -2.07458e-07 0)
(7.03618e-07 -1.98024e-07 0)
(7.24249e-07 -1.87812e-07 0)
(7.4377e-07 -1.76901e-07 0)
(7.62174e-07 -1.65386e-07 0)
(7.79371e-07 -1.53302e-07 0)
(7.95246e-07 -1.40645e-07 0)
(8.09814e-07 -1.27428e-07 0)
(8.22911e-07 -1.13737e-07 0)
(8.34362e-07 -9.95837e-08 0)
(8.44237e-07 -8.50764e-08 0)
(8.52574e-07 -7.02818e-08 0)
(3.62084e-10 -6.84764e-09 0)
(2.49926e-09 -2.18284e-08 0)
(7.18402e-09 -3.77554e-08 0)
(1.40092e-08 -5.43216e-08 0)
(2.28123e-08 -7.12649e-08 0)
(3.35108e-08 -8.83652e-08 0)
(4.6013e-08 -1.05443e-07 0)
(6.02785e-08 -1.22357e-07 0)
(7.63838e-08 -1.39046e-07 0)
(9.40738e-08 -1.55092e-07 0)
(1.13036e-07 -1.70404e-07 0)
(1.3324e-07 -1.84865e-07 0)
(1.54614e-07 -1.98429e-07 0)
(1.77195e-07 -2.11122e-07 0)
(2.01151e-07 -2.22993e-07 0)
(2.26897e-07 -2.34013e-07 0)
(2.52881e-07 -2.44078e-07 0)
(2.78588e-07 -2.52547e-07 0)
(3.0526e-07 -2.59748e-07 0)
(3.32743e-07 -2.65868e-07 0)
(3.60881e-07 -2.70952e-07 0)
(3.89473e-07 -2.74922e-07 0)
(4.18341e-07 -2.77659e-07 0)
(4.47309e-07 -2.79077e-07 0)
(4.76372e-07 -2.79182e-07 0)
(5.04993e-07 -2.78186e-07 0)
(5.32956e-07 -2.75825e-07 0)
(5.60624e-07 -2.7221e-07 0)
(5.87994e-07 -2.6757e-07 0)
(6.15011e-07 -2.62013e-07 0)
(6.41453e-07 -2.55491e-07 0)
(6.67086e-07 -2.4797e-07 0)
(6.91832e-07 -2.39492e-07 0)
(7.15767e-07 -2.30288e-07 0)
(7.3864e-07 -2.19882e-07 0)
(7.60188e-07 -2.08472e-07 0)
(7.80486e-07 -1.96229e-07 0)
(7.99569e-07 -1.83314e-07 0)
(8.17415e-07 -1.69827e-07 0)
(8.33935e-07 -1.55787e-07 0)
(8.49081e-07 -1.41201e-07 0)
(8.62745e-07 -1.262e-07 0)
(8.74744e-07 -1.10553e-07 0)
(8.85031e-07 -9.44265e-08 0)
(8.93662e-07 -7.79585e-08 0)
(3.80236e-10 -8.0919e-09 0)
(2.64452e-09 -2.54203e-08 0)
(7.62671e-09 -4.35732e-08 0)
(1.48977e-08 -6.22647e-08 0)
(2.42695e-08 -8.12307e-08 0)
(3.56287e-08 -1.00258e-07 0)
(4.88503e-08 -1.19164e-07 0)
(6.38392e-08 -1.37806e-07 0)
(8.08311e-08 -1.56115e-07 0)
(9.96085e-08 -1.73733e-07 0)
(1.19718e-07 -1.90529e-07 0)
(1.41114e-07 -2.0635e-07 0)
(1.6365e-07 -2.21103e-07 0)
(1.87285e-07 -2.34792e-07 0)
(2.12171e-07 -2.47536e-07 0)
(2.3875e-07 -2.59503e-07 0)
(2.66094e-07 -2.71141e-07 0)
(2.93519e-07 -2.80725e-07 0)
(3.21577e-07 -2.88519e-07 0)
(3.50262e-07 -2.94673e-07 0)
(3.79535e-07 -2.99425e-07 0)
(4.09296e-07 -3.02954e-07 0)
(4.39395e-07 -3.05369e-07 0)
(4.69624e-07 -3.06784e-07 0)
(4.99803e-07 -3.07324e-07 0)
(5.29755e-07 -3.07425e-07 0)
(5.59287e-07 -3.05001e-07 0)
(5.88238e-07 -3.0085e-07 0)
(6.16624e-07 -2.95426e-07 0)
(6.44574e-07 -2.89019e-07 0)
(6.71981e-07 -2.81645e-07 0)
(6.98583e-07 -2.7329e-07 0)
(7.24149e-07 -2.63981e-07 0)
(7.49102e-07 -2.53967e-07 0)
(7.7321e-07 -2.42579e-07 0)
(7.95781e-07 -2.30014e-07 0)
(8.16907e-07 -2.16461e-07 0)
(8.36652e-07 -2.02105e-07 0)
(8.55065e-07 -1.87108e-07 0)
(8.72123e-07 -1.71555e-07 0)
(8.8773e-07 -1.55485e-07 0)
(9.01959e-07 -1.39039e-07 0)
(9.14597e-07 -1.21867e-07 0)
(9.25346e-07 -1.04123e-07 0)
(9.34287e-07 -8.59646e-08 0)
(4.03979e-10 -9.41635e-09 0)
(2.79552e-09 -2.92333e-08 0)
(8.05854e-09 -4.97511e-08 0)
(1.57586e-08 -7.06996e-08 0)
(2.56828e-08 -9.18083e-08 0)
(3.76866e-08 -1.12888e-07 0)
(5.16273e-08 -1.33738e-07 0)
(6.73686e-08 -1.5418e-07 0)
(8.52192e-08 -1.74071e-07 0)
(1.05004e-07 -1.93286e-07 0)
(1.26222e-07 -2.11648e-07 0)
(1.4882e-07 -2.28991e-07 0)
(1.72583e-07 -2.45177e-07 0)
(1.97349e-07 -2.60121e-07 0)
(2.23134e-07 -2.73858e-07 0)
(2.50036e-07 -2.86544e-07 0)
(2.78404e-07 -2.98607e-07 0)
(3.07917e-07 -3.09038e-07 0)
(3.3795e-07 -3.17716e-07 0)
(3.68381e-07 -3.24535e-07 0)
(3.99032e-07 -3.29652e-07 0)
(4.29836e-07 -3.33287e-07 0)
(4.60683e-07 -3.3562e-07 0)
(4.91386e-07 -3.36873e-07 0)
(5.21621e-07 -3.37295e-07 0)
(5.53065e-07 -3.37518e-07 0)
(5.8514e-07 -3.3503e-07 0)
(6.15675e-07 -3.3061e-07 0)
(6.45172e-07 -3.24647e-07 0)
(6.74016e-07 -3.17544e-07 0)
(7.02291e-07 -3.09324e-07 0)
(7.29751e-07 -3.00023e-07 0)
(7.56057e-07 -2.89671e-07 0)
(7.81978e-07 -2.78414e-07 0)
(8.07318e-07 -2.65931e-07 0)
(8.30954e-07 -2.52214e-07 0)
(8.52973e-07 -2.37518e-07 0)
(8.73439e-07 -2.21858e-07 0)
(8.92425e-07 -2.05369e-07 0)
(9.09965e-07 -1.88185e-07 0)
(9.25958e-07 -1.70402e-07 0)
(9.40682e-07 -1.5211e-07 0)
(9.5394e-07 -1.33425e-07 0)
(9.65179e-07 -1.14063e-07 0)
(9.74468e-07 -9.42208e-08 0)
(4.33504e-10 -1.08249e-08 0)
(2.94856e-09 -3.32628e-08 0)
(8.47206e-09 -5.62656e-08 0)
(1.65858e-08 -7.95591e-08 0)
(2.70376e-08 -1.02943e-07 0)
(3.96601e-08 -1.26219e-07 0)
(5.4335e-08 -1.49133e-07 0)
(7.09247e-08 -1.71447e-07 0)
(8.96271e-08 -1.92909e-07 0)
(1.10278e-07 -2.13742e-07 0)
(1.32479e-07 -2.33725e-07 0)
(1.5616e-07 -2.52783e-07 0)
(1.81109e-07 -2.70856e-07 0)
(2.07123e-07 -2.87561e-07 0)
(2.34127e-07 -3.02572e-07 0)
(2.62179e-07 -3.15719e-07 0)
(2.91527e-07 -3.26704e-07 0)
(3.22047e-07 -3.3749e-07 0)
(3.53394e-07 -3.47127e-07 0)
(3.85291e-07 -3.55175e-07 0)
(4.17381e-07 -3.61483e-07 0)
(4.49546e-07 -3.66061e-07 0)
(4.8164e-07 -3.68917e-07 0)
(5.13388e-07 -3.70103e-07 0)
(5.44204e-07 -3.69774e-07 0)
(5.7668e-07 -3.68268e-07 0)
(6.10473e-07 -3.65391e-07 0)
(6.42526e-07 -3.60937e-07 0)
(6.73234e-07 -3.54891e-07 0)
(7.03091e-07 -3.477e-07 0)
(7.3236e-07 -3.38944e-07 0)
(7.60771e-07 -3.28634e-07 0)
(7.87989e-07 -3.1686e-07 0)
(8.14783e-07 -3.03621e-07 0)
(8.41078e-07 -2.89745e-07 0)
(8.65606e-07 -2.74636e-07 0)
(8.88435e-07 -2.59195e-07 0)
(9.09752e-07 -2.42697e-07 0)
(9.29484e-07 -2.24918e-07 0)
(9.47648e-07 -2.06028e-07 0)
(9.64194e-07 -1.86316e-07 0)
(9.79169e-07 -1.65942e-07 0)
(9.9274e-07 -1.45293e-07 0)
(1.00452e-06 -1.24184e-07 0)
(1.01419e-06 -1.02624e-07 0)
(4.66544e-10 -1.22434e-08 0)
(3.1078e-09 -3.74107e-08 0)
(8.9059e-09 -6.29829e-08 0)
(1.73917e-08 -8.87109e-08 0)
(2.82836e-08 -1.14455e-07 0)
(4.15036e-08 -1.3997e-07 0)
(5.6966e-08 -1.65003e-07 0)
(7.45462e-08 -1.89293e-07 0)
(9.41077e-08 -2.12491e-07 0)
(1.15462e-07 -2.34914e-07 0)
(1.38419e-07 -2.56459e-07 0)
(1.62782e-07 -2.77056e-07 0)
(1.88654e-07 -2.96628e-07 0)
(2.16154e-07 -3.14855e-07 0)
(2.45099e-07 -3.31283e-07 0)
(2.75567e-07 -3.45473e-07 0)
(3.05784e-07 -3.56641e-07 0)
(3.36093e-07 -3.67859e-07 0)
(3.6828e-07 -3.78107e-07 0)
(4.0143e-07 -3.86943e-07 0)
(4.34922e-07 -3.94078e-07 0)
(4.68539e-07 -3.99421e-07 0)
(5.02132e-07 -4.02849e-07 0)
(5.35374e-07 -4.042e-07 0)
(5.67657e-07 -4.03306e-07 0)
(6.01012e-07 -3.99337e-07 0)
(6.35408e-07 -3.95569e-07 0)
(6.68499e-07 -3.91162e-07 0)
(7.00137e-07 -3.85434e-07 0)
(7.31114e-07 -3.77928e-07 0)
(7.61949e-07 -3.68541e-07 0)
(7.91891e-07 -3.5733e-07 0)
(8.20613e-07 -3.44375e-07 0)
(8.48148e-07 -3.29378e-07 0)
(8.74896e-07 -3.13726e-07 0)
(8.99662e-07 -2.97616e-07 0)
(9.22662e-07 -2.81009e-07 0)
(9.45084e-07 -2.63367e-07 0)
(9.6611e-07 -2.44296e-07 0)
(9.85261e-07 -2.23879e-07 0)
(1.00244e-06 -2.02464e-07 0)
(1.01784e-06 -1.80297e-07 0)
(1.03159e-06 -1.574e-07 0)
(1.04353e-06 -1.34394e-07 0)
(1.05349e-06 -1.11049e-07 0)
(4.8964e-10 -1.36896e-08 0)
(3.28064e-09 -4.17155e-08 0)
(9.37252e-09 -7.00107e-08 0)
(1.821e-08 -9.83426e-08 0)
(2.95505e-08 -1.26501e-07 0)
(4.33571e-08 -1.54255e-07 0)
(5.95432e-08 -1.81428e-07 0)
(7.80828e-08 -2.07818e-07 0)
(9.86125e-08 -2.33172e-07 0)
(1.20737e-07 -2.57329e-07 0)
(1.44459e-07 -2.80337e-07 0)
(1.69698e-07 -3.02153e-07 0)
(1.96503e-07 -3.22672e-07 0)
(2.25064e-07 -3.41923e-07 0)
(2.55436e-07 -3.59671e-07 0)
(2.88018e-07 -3.75424e-07 0)
(3.19558e-07 -3.88274e-07 0)
(3.50175e-07 -4.00069e-07 0)
(3.8305e-07 -4.10651e-07 0)
(4.17183e-07 -4.19903e-07 0)
(4.5187e-07 -4.27493e-07 0)
(4.86837e-07 -4.33321e-07 0)
(5.22016e-07 -4.37183e-07 0)
(5.57179e-07 -4.38751e-07 0)
(5.92414e-07 -4.37706e-07 0)
(6.26875e-07 -4.33094e-07 0)
(6.60232e-07 -4.28537e-07 0)
(6.93389e-07 -4.23304e-07 0)