/*--------------------------------*- C++ -*----------------------------------*\
  =========                 |
  \\      /  F ield         | OpenFOAM: The Open Source CFD Toolbox
   \\    /   O peration     | Website:  https://openfoam.org
    \\  /    A nd           | Version:  7
     \\/     M anipulation  |
\*---------------------------------------------------------------------------*/
FoamFile
{
    version     2.0;
    format      ascii;
    class       volScalarField;
    location    "1.2";
    object      T;
}
// * * * * * * * * * * * * * * * * * * * * * * * * * * * * * * * * * * * * * //

dimensions      [0 0 0 1 0 0 0];

internalField   nonuniform List<scalar> 
64512
(
1
1
1
1
1
1
1
1
1
1
1
1
1
1
1
1
1
1
1
1
1
1
1
1
1
1
1
1
1
1
1
1
1
1
1
1
1
1
1
1
1
1
1
1
1
1
1
1
1
1
1
1
1.29945
2.50408
2.71905
2.71499
2.71656
2.72244
2.73258
2.74513
2.75908
2.77303
2.78462
2.79266
2.79654
2.79673
2.7952
2.79241
2.7903
2.79088
2.79551
2.8053
2.81698
2.82659
2.83094
2.83132
2.83109
2.83184
2.83486
2.84015
2.84598
2.85076
2.85418
2.85717
2.86012
2.86312
2.86658
2.86992
2.87331
2.87837
2.88906
2.91236
2.95395
3.00632
3.04742
3.06296
1
1
1
1
1
1
1
1
1
1
1
1
1
1
1
1
1
1
1
1
1
1
1
1
1
1
1
1
1
1
1
1
1
1
1
1
1
1
1
1
1
1
1
1
1
1
1
1
1
1
1
1
1.29281
2.50071
2.71777
2.71415
2.71639
2.72261
2.73281
2.74565
2.75979
2.77358
2.78492
2.79271
2.79634
2.79641
2.79484
2.79204
2.78999
2.79062
2.79531
2.80509
2.81677
2.82643
2.83086
2.83131
2.83105
2.83169
2.83459
2.83986
2.84581
2.85073
2.85421
2.85704
2.85972
2.86256
2.86601
2.86957
2.87331
2.87868
2.88944
2.91261
2.95398
3.00616
3.04711
3.06278
1
1
1
1
1
1
1
1
1
1
1
1
1
1
1
1
1
1
1
1
1
1
1
1
1
1
1
1
1
1
1
1
1
1
1
1
1
1
1
1
1
1
1
1
1
1
1
1
1
1
1
1
1.27655
2.49115
2.71517
2.71222
2.7158
2.72327
2.73406
2.74727
2.76133
2.77451
2.78522
2.79249
2.79578
2.79574
2.7941
2.7913
2.78933
2.79004
2.79486
2.80469
2.81638
2.82611
2.83063
2.83116
2.83085
2.83138
2.83417
2.83949
2.84564
2.85079
2.85435
2.85699
2.85921
2.86175
2.86507
2.86887
2.87317
2.87911
2.89014
2.91336
2.9546
3.00643
3.04692
3.06248
1
1
1
1
1
1
1
1
1
1
1
1
1
1
1
1
1
1
1
1
1
1
1
1
1
1
1
1
1
1
1
1
1
1
1
1
1
1
1
1
1
1
1
1
1
1
1
1
1
1
1
1
1.25143
2.47313
2.71099
2.70982
2.71518
2.72434
2.73632
2.75008
2.76376
2.77589
2.78548
2.7919
2.79474
2.79463
2.79298
2.79023
2.78837
2.78921
2.7942
2.80412
2.81582
2.82559
2.83018
2.83079
2.83041
2.83085
2.83358
2.83897
2.84535
2.85076
2.85445
2.85693
2.85871
2.86085
2.86393
2.86786
2.87277
2.87936
2.89084
2.91435
2.95561
3.00706
3.04699
3.06236
1
1
1
1
1
1
1
1
1
1
1
1
1
1
1
1
1
1
1
1
1
1
1
1
1
1
1
1
1
1
1
1
1
1
1
1
1
1
1
1
1
1
1
1
1
1
1
1
1
1
1
1
1.21315
2.44415
2.70713
2.70814
2.71549
2.72629
2.73963
2.7537
2.76661
2.77736
2.78554
2.79089
2.79324
2.79308
2.7915
2.78885
2.78715
2.78817
2.79342
2.80347
2.81515
2.82489
2.82952
2.83015
2.82971
2.83008
2.83279
2.83827
2.8449
2.85059
2.85446
2.85685
2.85829
2.86006
2.86279
2.86667
2.87203
2.87919
2.89118
2.91529
2.95688
3.00814
3.04747
3.06252
1
1
1
1
1
1
1
1
1
1
1
1
1
1
1
1
1
1
1
1
1
1
1
1
1
1
1
1
1
1
1
1
1
1
1
1
1
1
1
1
1
1
1
1
1
1
1
1
1
1
1
1
1.1523
2.40068
2.70528
2.70758
2.71696
2.72956
2.74376
2.75753
2.76932
2.77851
2.78523
2.78953
2.79142
2.79121
2.78968
2.78715
2.78569
2.78694
2.79255
2.80274
2.81442
2.82405
2.82864
2.82926
2.82877
2.8291
2.83182
2.83739
2.84422
2.85016
2.85423
2.85663
2.85789
2.85943
2.86186
2.86551
2.87095
2.87849
2.89103
2.91585
2.95814
3.0095
3.04843
3.06308
1
1
1
1
1
1
1
1
1
1
1
1
1
1
1
1
1
1
1
1
1
1
1
1
1
1
1
1
1
1
1
1
1
1
1
1
1
1
1
1
1
1
1
1
1
1
1
1
1
1
1
1
1.07213
2.35037
2.70579
2.7099
2.72004
2.73351
2.74765
2.76068
2.77128
2.77908
2.78455
2.78796
2.78938
2.78906
2.78746
2.78505
2.7839
2.78549
2.79162
2.80204
2.81372
2.82315
2.82761
2.82818
2.82766
2.82797
2.83071
2.83632
2.84327
2.84938
2.85357
2.85609
2.85739
2.85887
2.86116
2.86452
2.86963
2.87723
2.89025
2.91585
2.95902
3.01086
3.0497
3.064
1
1
1
1
1
1
1
1
1
1
1
1
1
1
1
1
1
1
1
1
1
1
1
1
1
1
1
1
1
1
1
1
1
1
1
1
1
1
1
1
1
1
1
1
1
1
1
1
1
1
1
1
1.00244
2.30464
2.70493
2.71327
2.72383
2.73706
2.7506
2.76275
2.77232
2.77908
2.78355
2.78621
2.78714
2.78663
2.78483
2.78251
2.78176
2.78383
2.79069
2.80142
2.81307
2.82218
2.82636
2.82687
2.82637
2.8267
2.82949
2.83512
2.84209
2.84827
2.85246
2.85513
2.85667
2.85821
2.86058
2.86372
2.86829
2.87561
2.88884
2.91519
2.95925
3.01187
3.05103
3.06513
1
1
1
1
1
1
1
1
1
1
1
1
1
1
1
1
1
1
1
1
1
1
1
1
1
1
1
1
1
1
1
1
1
1
1
1
1
1
1
1
1
1
1
1
1
1
1
1
1
1
1
1
1.00001
2.25736
2.70484
2.71588
2.7264
2.73927
2.75229
2.76372
2.77256
2.77856
2.78218
2.78421
2.78466
2.78388
2.78174
2.77952
2.77924
2.78196
2.7898
2.80092
2.81248
2.82113
2.82486
2.82527
2.82486
2.82528
2.82819
2.83382
2.84073
2.84689
2.85096
2.85373
2.85557
2.85727
2.85985
2.86295
2.86706
2.87386
2.88705
2.9139
2.95879
3.01226
3.05211
3.0663
1
1
1
1
1
1
1
1
1
1
1
1
1
1
1
1
1
1
1
1
1
1
1
1
1
1
1
1
1
1
1
1
1
1
1
1
1
1
1
1
1
1
1
1
1
1
1
1
1
1
1
1
1
2.20477
2.70544
2.71683
2.72749
2.74015
2.75286
2.76395
2.77222
2.77741
2.78031
2.78177
2.7818
2.7807
2.77817
2.77613
2.77632
2.77996
2.78901
2.80057
2.81194
2.81997
2.82308
2.82333
2.82303
2.82359
2.82669
2.83238
2.83921
2.84533
2.84923
2.852
2.85406
2.85596
2.85879
2.862
2.86583
2.87217
2.88519
2.9122
2.9577
3.01201
3.05271
3.06729
1
1
1
1
1
1
1
1
1
1
1
1
1
1
1
1
1
1
1
1
1
1
1
1
1
1
1
1
1
1
1
1
1
1
1
1
1
1
1
1
1
1
1
1
1
1
1
1
1
1
1
1
1
2.14381
2.70454
2.71658
2.72749
2.74016
2.75282
2.76369
2.77125
2.77558
2.77776
2.77865
2.77843
2.7769
2.7742
2.77248
2.77324
2.778
2.78827
2.80034
2.81137
2.81863
2.82097
2.82102
2.82081
2.82152
2.82485
2.83074
2.83757
2.84364
2.84745
2.85009
2.85221
2.85431
2.85728
2.86062
2.86443
2.87055
2.88335
2.91026
2.95609
3.0112
3.05276
3.06791
1
1
1
1
1
1
1
1
1
1
1
1
1
1
1
1
1
1
1
1
1
1
1
1
1
1
1
1
1
1
1
1
1
1
1
1
1
1
1
1
1
1
1
1
1
1
1
1
1
1
1
1
1
2.07338
2.70106
2.71504
2.72641
2.73932
2.75203
2.76264
2.76949
2.77306
2.77453
2.77483
2.77435
2.77241
2.76993
2.76884
2.77036
2.77639
2.78765
2.80022
2.81071
2.81707
2.81855
2.81841
2.81823
2.81905
2.82262
2.82879
2.83569
2.84174
2.8456
2.84813
2.85022
2.85238
2.85525
2.85867
2.86268
2.86886
2.88148
2.90816
2.9541
3.00986
3.05228
3.06801
1
1
1
1
1
1
1
1
1
1
1
1
1
1
1
1
1
1
1
1
1
1
1
1
1
1
1
1
1
1
1
1
1
1
1
1
1
1
1
1
1
1
1
1
1
1
1
1
1
1
1
1
1
1.99307
2.69455
2.7126
2.72433
2.73733
2.74999
2.76037
2.76675
2.7697
2.77048
2.77036
2.7694
2.76731
2.76548
2.76535
2.7679
2.77553
2.78734
2.80011
2.80986
2.81519
2.81587
2.8156
2.81541
2.81634
2.82011
2.82649
2.83348
2.83957
2.84356
2.84612
2.84821
2.85022
2.8528
2.85616
2.86043
2.86687
2.87946
2.90592
2.95184
3.00808
3.05117
3.06747
1
1
1
1
1
1
1
1
1
1
1
1
1
1
1
1
1
1
1
1
1
1
1
1
1
1
1
1
1
1
1
1
1
1
1
1
1
1
1
1
1
1
1
1
1
1
1
1
1
1
1
1
1
1.90394
2.68462
2.70979
2.72119
2.73361
2.74597
2.75633
2.76279
2.76547
2.76568
2.76534
2.7638
2.76216
2.76112
2.76198
2.76627
2.77554
2.78764
2.80009
2.80885
2.81297
2.81297
2.81251
2.81232
2.81342
2.81743
2.82397
2.831
2.83709
2.84121
2.84391
2.84605
2.84785
2.85009
2.85325
2.85767
2.86442
2.87713
2.90347
2.94935
3.00591
3.04945
3.06618
1
1
1
1
1
1
1
1
1
1
1
1
1
1
1
1
1
1
1
1
1
1
1
1
1
1
1
1
1
1
1
1
1
1
1
1
1
1
1
1
1
1
1
1
1
1
1
1
1
1
1
1
1
1.80767
2.66867
2.70771
2.71713
2.7283
2.74012
2.75075
2.75781
2.7604
2.76042
2.75987
2.75831
2.75724
2.75716
2.75918
2.76542
2.77603
2.78834
2.79995
2.80758
2.8104
2.80997
2.80926
2.80906
2.8104
2.81475
2.82148
2.82842
2.8344
2.83849
2.84132
2.84356
2.84526
2.8472
2.85009
2.85446
2.86142
2.87432
2.90064
2.94652
3.00332
3.04716
3.06413
1
1
1
1
1
1
1
1
1
1
1
1
1
1
1
1
1
1
1
1
1
1
1
1
1
1
1
1
1
1
1
1
1
1
1
1
1
1
1
1
1
1
1
1
1
1
1
1
1
1
1
1
1
1.69567
2.64066
2.70605
2.7114
2.72071
2.73237
2.74392
2.75195
2.75479
2.75493
2.7545
2.7535
2.75318
2.75407
2.75774
2.76551
2.77692
2.78909
2.79951
2.80581
2.80742
2.80667
2.80574
2.80555
2.80719
2.81203
2.819
2.8259
2.83166
2.83551
2.83828
2.8406
2.84232
2.84412
2.84678
2.85097
2.85796
2.87098
2.89731
2.94318
3.00021
3.04429
3.06133
1
1
1
1
1
1
1
1
1
1
1
1
1
1
1
1
1
1
1
1
1
1
1
1
1
1
1
1
1
1
1
1
1
1
1
1
1
1
1
1
1
1
1
1
1
1
1
1
1
1
1
1
1
1.55394
2.5927
2.70493
2.70418
2.71178
2.72394
2.73664
2.74574
2.74924
2.74966
2.74956
2.74956
2.75021
2.75247
2.7577
2.76638
2.77773
2.78917
2.79825
2.80304
2.80386
2.80302
2.80201
2.80184
2.8038
2.80918
2.81644
2.82338
2.82892
2.83238
2.83488
2.83715
2.83896
2.84077
2.84332
2.84732
2.85415
2.86713
2.89335
2.93919
2.99646
3.04085
3.05793
1
1
1
1
1
1
1
1
1
1
1
1
1
1
1
1
1
1
1
1
1
1
1
1
1
1
1
1
1
1
1
1
1
1
1
1
1
1
1
1
1
1
1
1
1
1
1
1
1
1
1
1
1
1.39012
2.5266
2.70213
2.69808
2.70571
2.71816
2.73149
2.74099
2.74466
2.7448
2.74506
2.74607
2.74799
2.75173
2.75828
2.76758
2.77828
2.78876
2.79623
2.79947
2.79976
2.79884
2.79783
2.79779
2.80014
2.80609
2.81365
2.8207
2.82606
2.82912
2.83125
2.83334
2.83519
2.83712
2.83971
2.84353
2.85009
2.86279
2.88871
2.93441
2.99194
3.03675
3.0539
1
1
1
1
1
1
1
1
1
1
1
1
1
1
1
1
1
1
1
1
1
1
1
1
1
1
1
1
1
1
1
1
1
1
1
1
1
1
1
1
1
1
1
1
1
1
1
1
1
1
1
1
1
1.22577
2.44505
2.70025
2.69619
2.70314
2.71536
2.72872
2.73819
2.74129
2.74131
2.74164
2.74319
2.74617
2.75139
2.75907
2.76841
2.77827
2.78727
2.79287
2.79479
2.79483
2.79394
2.79315
2.79342
2.79632
2.80279
2.81054
2.81768
2.82287
2.8256
2.8274
2.82923
2.83104
2.83312
2.8358
2.83948
2.8457
2.85795
2.88339
2.92881
2.9866
3.03199
3.04932
1
1
1
1
1
1
1
1
1
1
1
1
1
1
1
1
1
1
1
1
1
1
1
1
1
1
1
1
1
1
1
1
1
1
1
1
1
1
1
1
1
1
1
1
1
1
1
1
1
1
1
1
1
1.07045
2.35951
2.697
2.69865
2.70726
2.71947
2.73115
2.73795
2.73933
2.73901
2.73924
2.7408
2.74426
2.75034
2.75873
2.76805
2.77713
2.78451
2.78832
2.78935
2.78926
2.78853
2.78804
2.78874
2.79233
2.79925
2.80711
2.81418
2.81918
2.82168
2.82326
2.82485
2.82656
2.82879
2.83157
2.83512
2.84096
2.85264
2.87741
2.9224
2.98037
3.02637
3.04397
1
1
1
1
1
1
1
1
1
1
1
1
1
1
1
1
1
1
1
1
1
1
1
1
1
1
1
1
1
1
1
1
1
1
1
1
1
1
1
1
1
1
1
1
1
1
1
1
1
1
1
1
1
1.00178
2.25285
2.69179
2.70582
2.71567
2.72606
2.73418
2.73808
2.73803
2.73723
2.7373
2.73876
2.74245
2.74889
2.75758
2.76657
2.77454
2.78042
2.7828
2.78333
2.7832
2.78268
2.78257
2.78389
2.78829
2.7955
2.80344
2.81025
2.81492
2.81718
2.81866
2.82012
2.82174
2.82409
2.82688
2.83026
2.83567
2.84672
2.87075
2.91519
2.97328
3.01993
3.03785
1
1
1
1
1
1
1
1
1
1
1
1
1
1
1
1
1
1
1
1
1
1
1
1
1
1
1
1
1
1
1
1
1
1
1
1
1
1
1
1
1
1
1
1
1
1
1
1
1
1
1
1
1
1
2.11492
2.68136
2.70994
2.72016
2.72995
2.73635
2.73848
2.73746
2.73577
2.73529
2.73642
2.73981
2.74601
2.75439
2.76287
2.77003
2.77494
2.77659
2.77698
2.77686
2.7766
2.77693
2.7791
2.78432
2.79167
2.79951
2.80591
2.81007
2.81207
2.81349
2.81491
2.81656
2.81898
2.82172
2.82485
2.82981
2.84021
2.86343
2.90719
2.96527
3.01247
3.03071
1
1
1
1
1
1
1
1
1
1
1
1
1
1
1
1
1
1
1
1
1
1
1
1
1
1
1
1
1
1
1
1
1
1
1
1
1
1
1
1
1
1
1
1
1
1
1
1
1
1
1
1
1
1
1.95844
2.65897
2.70564
2.71756
2.72739
2.73341
2.73582
2.735
2.73326
2.73246
2.73328
2.73606
2.74141
2.7489
2.7568
2.7636
2.76828
2.76997
2.77053
2.77055
2.77061
2.77155
2.77468
2.78046
2.78793
2.79538
2.80116
2.80466
2.80633
2.80766
2.8091
2.81092
2.8134
2.81597
2.81873
2.82315
2.83284
2.85521
2.89824
2.95627
3.00401
3.02259
1
1
1
1
1
1
1
1
1
1
1
1
1
1
1
1
1
1
1
1
1
1
1
1
1
1
1
1
1
1
1
1
1
1
1
1
1
1
1
1
1
1
1
1
1
1
1
1
1
1
1
1
1
1
1.77354
2.61521
2.69432
2.70797
2.71817
2.72494
2.72894
2.73017
2.72978
2.72932
2.72972
2.73154
2.73546
2.74165
2.74894
2.75567
2.76066
2.76291
2.76391
2.76428
2.76485
2.7667
2.77084
2.77696
2.78435
2.7911
2.79597
2.79866
2.8
2.80123
2.80274
2.80482
2.80737
2.80971
2.81199
2.81576
2.82469
2.84613
2.88823
2.94602
2.99418
3.01302
1
1
1
1
1
1
1
1
1
1
1
1
1
1
1
1
1
1
1
1
1
1
1
1
1
1
1
1
1
1
1
1
1
1
1
1
1
1
1
1
1
1
1
1
1
1
1
1
1
1
1
1
1
1
1.53379
2.53857
2.68557
2.69001
2.69884
2.70824
2.71671
2.7223
2.72454
2.72487
2.72515
2.72628
2.72895
2.73372
2.7402
2.74694
2.75243
2.75561
2.75737
2.75837
2.75974
2.76253
2.76736
2.77379
2.78075
2.78649
2.79023
2.79206
2.79306
2.79423
2.79587
2.79823
2.80084
2.80284
2.80447
2.80739
2.81534
2.83567
2.87672
2.93425
2.98293
3.00214
1
1
1
1
1
1
1
1
1
1
1
1
1
1
1
1
1
1
1
1
1
1
1
1
1
1
1
1
1
1
1
1
1
1
1
1
1
1
1
1
1
1
1
1
1
1
1
1
1
1
1
1
1
1
1.24977
2.4371
2.68446
2.68088
2.68666
2.69596
2.70642
2.71506
2.7195
2.72043
2.72084
2.72186
2.72392
2.72765
2.73317
2.7395
2.74504
2.74882
2.75118
2.75277
2.75491
2.75857
2.76381
2.77051
2.77696
2.78158
2.78406
2.78501
2.78559
2.7866
2.78843
2.79109
2.79375
2.79539
2.79629
2.79827
2.80507
2.82405
2.86367
2.92054
2.9695
2.98889
1
1
1
1
1
1
1
1
1
1
1
1
1
1
1
1
1
1
1
1
1
1
1
1
1
1
1
1
1
1
1
1
1
1
1
1
1
1
1
1
1
1
1
1
1
1
1
1
1
1
1
1
1
1
1.03537
2.35057
2.68172
2.67643
2.68246
2.69091
2.70116
2.70966
2.71437
2.71586
2.71644
2.71741
2.71917
2.72236
2.72732
2.73326
2.7386
2.74256
2.74521
2.74725
2.75007
2.75453
2.76018
2.76696
2.77285
2.77632
2.77754
2.77755
2.77756
2.7783
2.78029
2.78325
2.78603
2.7873
2.78736
2.78815
2.79331
2.81035
2.84809
2.90421
2.95368
2.97363
1
1
1
1
1
1
1
1
1
1
1
1
1
1
1
1
1
1
1
1
1
1
1
1
1
1
1
1
1
1
1
1
1
1
1
1
1
1
1
1
1
1
1
1
1
1
1
1
1
1
1
1
1
1
1.00034
2.21836
2.68066
2.68152
2.68579
2.69264
2.70107
2.70806
2.7123
2.71377
2.71409
2.71474
2.71623
2.71919
2.72383
2.72925
2.73406
2.7376
2.74007
2.74223
2.74535
2.75023
2.75613
2.76279
2.76806
2.7704
2.77063
2.76985
2.76898
2.76942
2.77134
2.77453
2.7774
2.77833
2.77755
2.77713
2.78057
2.79526
2.83048
2.88499
2.93418
2.95382
1
1
1
1
1
1
1
1
1
1
1
1
1
1
1
1
1
1
1
1
1
1
1
1
1
1
1
1
1
1
1
1
1
1
1
1
1
1
1
1
1
1
1
1
1
1
1
1
1
1
1
1
1
1
1
2.04314
2.67067
2.68586
2.69075
2.69712
2.70331
2.70837
2.71146
2.71239
2.71243
2.71285
2.71425
2.71722
2.72166
2.72655
2.73072
2.73359
2.73564
2.73763
2.74068
2.74549
2.75128
2.75755
2.7622
2.76371
2.76328
2.76182
2.76008
2.75996
2.76156
2.76475
2.7676
2.76826
2.76666
2.76489
2.76634
2.77735
2.80847
2.86057
2.90956
2.93014
1
1
1
1
1
1
1
1
1
1
1
1
1
1
1
1
1
1
1
1
1
1
1
1
1
1
1
1
1
1
1
1
1
1
1
1
1
1
1
1
1
1
1
1
1
1
1
1
1
1
1
1
1
1
1
1.80353
2.61142
2.67844
2.68747
2.69475
2.70105
2.70635
2.70901
2.70947
2.70945
2.70998
2.71171
2.71499
2.71943
2.72383
2.72739
2.7297
2.73135
2.7331
2.73588
2.74026
2.74547
2.75105
2.75502
2.75604
2.7553
2.75329
2.75086
2.74997
2.75111
2.75392
2.7565
2.75681
2.75447
2.75101
2.75022
2.7575
2.784
2.83238
2.87848
2.89483
1
1
1
1
1
1
1
1
1
1
1
1
1
1
1
1
1
1
1
1
1
1
1
1
1
1
1
1
1
1
1
1
1
1
1
1
1
1
1
1
1
1
1
1
1
1
1
1
1
1
1
1
1
1
1
1.47657
2.49654
2.67521
2.67801
2.68416
2.69193
2.69903
2.70289
2.70383
2.70412
2.70508
2.70742
2.71117
2.71571
2.71992
2.72317
2.7251
2.72655
2.72815
2.73065
2.73444
2.73873
2.74332
2.74649
2.74718
2.74638
2.74415
2.7413
2.73969
2.74021
2.74223
2.74413
2.74383
2.74071
2.73523
2.73162
2.73467
2.75304
2.79198
2.83215
2.8458
1
1
1
1
1
1
1
1
1
1
1
1
1
1
1
1
1
1
1
1
1
1
1
1
1
1
1
1
1
1
1
1
1
1
1
1
1
1
1
1
1
1
1
1
1
1
1
1
1
1
1
1
1
1
1
1.12391
2.37348
2.67133
2.66868
2.67235
2.67937
2.68744
2.69268
2.69476
2.69574
2.69731
2.7004
2.70469
2.70953
2.71395
2.71727
2.71919
2.72053
2.72222
2.72459
2.72785
2.73119
2.7347
2.73696
2.73727
2.73645
2.73423
2.73123
2.72904
2.72882
2.72976
2.73068
2.72959
2.72529
2.71771
2.71006
2.7076
2.71707
2.74532
2.77942
2.79819
1
1
1
1
1
1
1
1
1
1
1
1
1
1
1
1
1
1
1
1
1
1
1
1
1
1
1
1
1
1
1
1
1
1
1
1
1
1
1
1
1
1
1
1
1
1
1
1
1
1
1
1
1
1
1
1.00344
2.25329
2.65817
2.65706
2.66142
2.66847
2.67658
2.68243
2.68538
2.68677
2.68839
2.69147
2.69584
2.70088
2.70569
2.70945
2.71173
2.71326
2.71517
2.7176
2.72038
2.72285
2.7253
2.72662
2.72647
2.72551
2.7234
2.72051
2.718
2.71694
2.71683
2.71647
2.71426
2.70842
2.69854
2.68617
2.67663
2.67415
2.67643
2.65435
2.54003
1
1
1
1
1
1
1
1
1
1
1
1
1
1
1
1
1
1
1
1
1
1
1
1
1
1
1
1
1
1
1
1
1
1
1
1
1
1
1
1
1
1
1
1
1
1
1
1
1
1
1
1
1
1
1
1
2.06335
2.64844
2.65927
2.66254
2.66847
2.67396
2.678
2.68027
2.681
2.68183
2.68384
2.68718
2.69152
2.69618
2.70021
2.7031
2.70503
2.70712
2.70955
2.71179
2.71354
2.71505
2.71561
2.71518
2.71406
2.71207
2.70934
2.70668
2.70486
2.70361
2.70187
2.69806
2.69038
2.67802
2.66132
2.64296
2.62403
2.59795
2.54851
2.37179
1
1
1
1
1
1
1
1
1
1
1
1
1
1
1
1
1
1
1
1
1
1
1
1
1
1
1
1
1
1
1
1
1
1
1
1
1
1
1
1
1
1
1
1
1
1
1
1
1
1
1
1
1
1
1
1
1.77981
2.58873
2.65372
2.6588
2.66448
2.67043
2.67546
2.67807
2.67829
2.678
2.67829
2.67999
2.68305
2.68702
2.69093
2.69434
2.69684
2.69913
2.70139
2.70298
2.70401
2.70463
2.70458
2.70387
2.70263
2.70072
2.69808
2.69524
2.69273
2.69033
2.68704
2.6814
2.67158
2.65663
2.63562
2.60981
2.57667
2.5377
2.44478
2.26677
1
1
1
1
1
1
1
1
1
1
1
1
1
1
1
1
1
1
1
1
1
1
1
1
1
1
1
1
1
1
1
1
1
1
1
1
1
1
1
1
1
1
1
1
1
1
1
1
1
1
1
1
1
1
1
1
1.39357
2.47115
2.64874
2.64789
2.65351
2.66313
2.67086
2.67501
2.67582
2.67516
2.67433
2.67472
2.67627
2.67908
2.68241
2.68606
2.68919
2.69172
2.69364
2.69458
2.69483
2.6947
2.69412
2.69303
2.69165
2.68975
2.68708
2.68392
2.68069
2.67712
2.67219
2.66461
2.65257
2.63519
2.61068
2.57897
2.53728
2.47848
2.37481
2.21646
1
1
1
1
1
1
1
1
1
1
1
1
1
1
1
1
1
1
1
1
1
1
1
1
1
1
1
1
1
1
1
1
1
1
1
1
1
1
1
1
1
1
1
1
1
1
1
1
1
1
1
1
1
1
1
1
1.03775
2.33147
2.6491
2.64363
2.64621
2.65431
2.66371
2.6697
2.67212
2.67179
2.67072
2.67005
2.6705
2.67216
2.67486
2.67861
2.68232
2.68513
2.68675
2.68701
2.68653
2.68551
2.68415
2.68266
2.6811
2.67914
2.67638
2.67288
2.66889
2.66413
2.65749
2.64795
2.63385
2.61423
2.5872
2.55076
2.50328
2.43361
2.3356
2.20457
1
1
1
1
1
1
1
1
1
1
1
1
1
1
1
1
1
1
1
1
1
1
1
1
1
1
1
1
1
1
1
1
1
1
1
1
1
1
1
1
1
1
1
1
1
1
1
1
1
1
1
1
1
1
1
1
1.00031
2.14254
2.62455
2.63341
2.64113
2.64888
2.65629
2.66268
2.66658
2.66725
2.66654
2.66534
2.66511
2.666
2.66817
2.6718
2.67576
2.67877
2.6802
2.68003
2.67898
2.6771
2.67495
2.67294
2.67101
2.66885
2.66594
2.66211
2.65739
2.65148
2.64323
2.63176
2.6158
2.59426
2.56544
2.5266
2.47566
2.40436
2.31355
2.20305
1
1
1
1
1
1
1
1
1
1
1
1
1
1
1
1
1
1
1
1
1
1
1
1
1
1
1
1
1
1
1
1
1
1
1
1
1
1
1
1
1
1
1
1
1
1
1
1
1
1
1
1
1
1
1
1
0.999999
1.85246
2.58166
2.63033
2.63606
2.64127
2.64822
2.65511
2.6599
2.66162
2.66127
2.65987
2.65926
2.65984
2.66173
2.66524
2.66929
2.67238
2.67369
2.67341
2.672
2.66949
2.6666
2.66391
2.66134
2.65867
2.65545
2.65135
2.64607
2.63916
2.62952
2.61634
2.59876
2.57568
2.54564
2.50594
2.4545
2.38611
2.30501
2.20725
1
1
1
1
1
1
1
1
1
1
1
1
1
1
1
1
1
1
1
1
1
1
1
1
1
1
1
1
1
1
1
1
1
1
1
1
1
1
1
1
1
1
1
1
1
1
1
1
1
1
1
1
1
1
1
1
1
1.43506
2.47378
2.62468
2.62303
2.62877
2.63804
2.6465
2.65236
2.6549
2.65477
2.65357
2.65285
2.65337
2.65522
2.65871
2.66278
2.66582
2.66685
2.66644
2.66484
2.66201
2.65869
2.65542
2.65214
2.64872
2.64488
2.64042
2.63467
2.62698
2.61629
2.60185
2.58301
2.55873
2.52792
2.48851
2.43824
2.37523
2.30268
2.21489
1
1
1
1
1
1
1
1
1
1
1
1
1
1
1
1
1
1
1
1
1
1
1
1
1
1
1
1
1
1
1
1
1
1
1
1
1
1
1
1
1
1
1
1
1
1
1
1
1
1
1
1
1
1
1
1
1
1.04506
2.33
2.6264
2.61765
2.62059
2.62881
2.63801
2.64476
2.6478
2.64767
2.64652
2.64563
2.64612
2.64799
2.65159
2.65586
2.65896
2.65967
2.65905
2.65719
2.65417
2.65062
2.64696
2.64309
2.63892
2.63433
2.62928
2.62303
2.6147
2.60324
2.58799
2.5684
2.54346
2.5125
2.47352
2.42543
2.36923
2.30376
2.22491
1
1
1
1
1
1
1
1
1
1
1
1
1
1
1
1
1
1
1
1
1
1
1
1
1
1
1
1
1
1
1
1
1
1
1
1
1
1
1
1
1
1
1
1
1
1
1
1
1
1
1
1
1
1
1
1
1
1.00042
2.11839
2.60033
2.60599
2.6137
2.62273
2.63076
2.63755
2.64103
2.64115
2.63987
2.63846
2.63859
2.64013
2.64372
2.64829
2.65154
2.65199
2.65113
2.64888
2.64561
2.6419
2.63803
2.63379
2.62907
2.6238
2.61801
2.61112
2.60219
2.59013
2.57442
2.55453
2.52952
2.49905
2.46056
2.41578
2.3655
2.30505
2.23571
1
1
1
1
1
1
1
1
1
1
1
1
1
1
1
1
1
1
1
1
1
1
1
1
1
1
1
1
1
1
1
1
1
1
1
1
1
1
1
1
1
1
1
1
1
1
1
1
1
1
1
1
1
1
1
1
1
0.999999
1.7572
2.53873
2.60539
2.60872
2.615
2.62253
2.6296
2.63389
2.6348
2.63334
2.6313
2.63061
2.6317
2.63504
2.63976
2.64326
2.64378
2.64279
2.64019
2.6365
2.63243
2.62824
2.62373
2.61875
2.61311
2.60669
2.59907
2.58944
2.57687
2.56088
2.54102
2.51635
2.48717
2.44977
2.40837
2.36182
2.30554
2.24542
1
1
1
1
1
1
1
1
1
1
1
1
1
1
1
1
1
1
1
1
1
1
1
1
1
1
1
1
1
1
1
1
1
1
1
1
1
1
1
1
1
1
1
1
1
1
1
1
1
1
1
1
1
1
1
1
1
1
1.26303
2.40307
2.60668
2.60199
2.60545
2.61234
2.62014
2.62584
2.62794
2.62678
2.62451
2.623
2.62351
2.62611
2.63043
2.63397
2.63473
2.63384
2.63114
2.6271
2.62255
2.6179
2.61307
2.6079
2.60206
2.59524
2.58695
2.57661
2.56358
2.5474
2.52771
2.50364
2.47594
2.44017
2.40187
2.35752
2.30619
2.25352
1
1
1
1
1
1
1
1
1
1
1
1
1
1
1
1
1
1
1
1
1
1
1
1
1
1
1
1
1
1
1
1
1
1
1
1
1
1
1
1
1
1
1
1
1
1
1
1
1
1
1
1
1
1
1
1
1
1
1.01506
2.24683
2.58775
2.59053
2.59658
2.60336
2.61113
2.61744
2.62033
2.61971
2.61757
2.61565
2.61572
2.61744
2.62092
2.62418
2.62515
2.62445
2.62189
2.61765
2.61259
2.60734
2.60207
2.59669
2.59075
2.58369
2.57486
2.56384
2.5504
2.53406
2.51453
2.49137
2.46455
2.43124
2.39596
2.35388
2.30816
2.25973
1
1
1
1
1
1
1
1
1
1
1
1
1
1
1
1
1
1
1
1
1
1
1
1
1
1
1
1
1
1
1
1
1
1
1
1
1
1
1
1
1
1
1
1
1
1
1
1
1
1
1
1
1
1
1
1
1
1
1.00004
1.93564
2.55106
2.58291
2.59023
2.59594
2.60322
2.60948
2.61271
2.61249
2.61076
2.60875
2.60837
2.60935
2.61179
2.61442
2.61536
2.61477
2.61243
2.60825
2.6029
2.5971
2.5913
2.58561
2.57951
2.57223
2.56295
2.55131
2.53744
2.52092
2.50164
2.47946
2.45328
2.42319
2.39046
2.35102
2.30935
2.2635
1
1
1
1
1
1
1
1
1
1
1
1
1
1
1
1
1
1
1
1
1
1
1
1
1
1
1
1
1
1
1
1
1
1
1
1
1
1
1
1
1
1
1
1
1
1
1
1
1
1
1
1
1
1
1
1
1
1
1
1.45882
2.4491
2.5797
2.57948
2.58534
2.59336
2.60025
2.60426
2.60494
2.60359
2.60165
2.60079
2.6013
2.60292
2.60493
2.60577
2.60523
2.60309
2.59911
2.59366
2.58739
2.581
2.57489
2.56853
2.56102
2.55141
2.53932
2.52514
2.5085
2.48982
2.46828
2.4432
2.41612
2.38492
2.34823
2.30953
2.26658
1
1
1
1
1
1
1
1
1
1
1
1
1
1
1
1
1
1
1
1
1
1
1
1
1
1
1
1
1
1
1
1
1
1
1
1
1
1
1
1
1
1
1
1
1
1
1
1
1
1
1
1
1
1
1
1
1
1
1
1.04851
2.29473
2.57705
2.57329
2.57671
2.58326
2.59029
2.59549
2.5976
2.59665
2.59481
2.5933
2.59309
2.59388
2.59526
2.59611
2.59572
2.59395
2.59034
2.58491
2.57826
2.57126
2.56462
2.5579
2.55018
2.54051
2.52832
2.51411
2.4974
2.47939
2.45801
2.4344
2.40918
2.37879
2.34508
2.30895
2.26968
1
1
1
1
1
1
1
1
1
1
1
1
1
1
1
1
1
1
1
1
1
1
1
1
1
1
1
1
1
1
1
1
1
1
1
1
1
1
1
1
1
1
1
1
1
1
1
1
1
1
1
1
1
1
1
1
1
1
1
1.00044
2.01807
2.54659
2.56214
2.56926
2.57509
2.58153
2.58715
2.59039
2.58991
2.58822
2.58605
2.58475
2.58485
2.58555
2.58631
2.58612
2.5848
2.58164
2.57637
2.56949
2.56197
2.55479
2.54766
2.53973
2.5302
2.5183
2.5044
2.48776
2.47017
2.44889
2.42671
2.40204
2.37278
2.34224
2.30868
2.27347
1
1
1
1
1
1
1
1
1
1
1
1
1
1
1
1
1
1
1
1
1
1
1
1
1
1
1
1
1
1
1
1
1
1
1
1
1
1
1
1
1
1
1
1
1
1
1
1
1
1
1
1
1
1
1
1
1
1
1
0.999999
1.54015
2.46069
2.56144
2.56066
2.56445
2.57042
2.57674
2.58141
2.5824
2.58117
2.57875
2.57646
2.57533
2.57549
2.57601
2.57613
2.57525
2.5726
2.56758
2.56065
2.55285
2.54526
2.53774
2.52961
2.52026
2.50889
2.49554
2.47931
2.46176
2.44091
2.41968
2.3949
2.36775
2.33978
2.30867
2.27677
1
1
1
1
1
1
1
1
1
1
1
1
1
1
1
1
1
1
1
1
1
1
1
1
1
1
1
1
1
1
1
1
1
1
1
1
1
1
1
1
1
1
1
1
1
1
1
1
1
1
1
1
1
1
1
1
1
1
1
1
1.06881
2.2984
2.55966
2.5541
2.55522
2.55946
2.56577
2.57143
2.57417
2.57351
2.57122
2.56831
2.56607
2.56542
2.56564
2.56588
2.56526
2.56296
2.55821
2.55144
2.54369
2.53596
2.52817
2.5198
2.51053
2.49966
2.48703
2.47149
2.45398
2.43405
2.41316
2.38895
2.3644
2.33811
2.30954
2.27991
1
1
1
1
1
1
1
1
1
1
1
1
1
1
1
1
1
1
1
1
1
1
1
1
1
1
1
1
1
1
1
1
1
1
1
1
1
1
1
1
1
1
1
1
1
1
1
1
1
1
1
1
1
1
1
1
1
1
1
1
1.0009
2.01253
2.52585
2.54058
2.54504
2.55022
2.55673
2.56242
2.56596
2.56576
2.56378
2.56057
2.55756
2.55582
2.55564
2.5557
2.55508
2.55282
2.54824
2.5418
2.53439
2.52668
2.51872
2.51017
2.50093
2.49043
2.47859
2.46382
2.44677
2.42792
2.40743
2.3849
2.36214
2.33717
2.31091
2.28275
1
1
1
1
1
1
1
1
1
1
1
1
1
1
1
1
1
1
1
1
1
1
1
1
1
1
1
1
1
1
1
1
1
1
1
1
1
1
1
1
1
1
1
1
1
1
1
1
1
1
1
1
1
1
1
1
1
1
1
1
0.999998
1.49734
2.43379
2.54166
2.53854
2.54151
2.54671
2.55213
2.55638
2.55744
2.55603
2.5531
2.54992
2.54743
2.54644
2.54601
2.54503
2.54263
2.53821
2.53227
2.52525
2.51752
2.50944
2.50074
2.49161
2.48132
2.47003
2.45619
2.44026
2.42259
2.40306
2.38239
2.36062
2.33705
2.31216
2.28502
1
1
1
1
1
1
1
1
1
1
1
1
1
1
1
1
1
1
1
1
1
1
1
1
1
1
1
1
1
1
1
1
1
1
1
1
1
1
1
1
1
1
1
1
1
1
1
1
1
1
1
1
1
1
1
1
1
1
1
1
1
1.056
2.27079
2.53212
2.52976
2.53198
2.53557
2.54076
2.54594
2.54855
2.54794
2.54589
2.54298
2.53999
2.53794
2.53667
2.53528
2.53269
2.52856
2.52321
2.51641
2.50855
2.50027
2.49152
2.48227
2.47228
2.4615
2.44871
2.43419
2.41776
2.39956
2.38042
2.35943
2.33701
2.31257
2.28627
1
1
1
1
1
1
1
1
1
1
1
1
1
1
1
1
1
1
1
1
1
1
1
1
1
1
1
1
1
1
1
1
1
1
1
1
1
1
1
1
1
1
1
1
1
1
1
1
1
1
1
1
1
1
1
1
1
1
1
1
1
1.00056
1.92109
2.49089
2.51891
2.52314
2.52645
2.53119
2.53636
2.53968
2.54014
2.53889
2.53626
2.53297
2.52991
2.52745
2.52553
2.52292
2.51932
2.51459
2.50803
2.50007
2.49147
2.48256
2.47319
2.46331
2.45304
2.44123
2.42816
2.41311
2.39648
2.37843
2.3582
2.33649
2.31238
2.28731
1
1
1
1
1
1
1
1
1
1
1
1
1
1
1
1
1
1
1
1
1
1
1
1
1
1
1
1
1
1
1
1
1
1
1
1
1
1
1
1
1
1
1
1
1
1
1
1
1
1
1
1
1
1
1
1
1
1
1
1
1
0.999999
1.33058
2.37311
2.52464
2.51566
2.51643
2.52046
2.5256
2.52968
2.5315
2.53099
2.52899
2.52577
2.52199
2.51845
2.51571
2.51317
2.51016
2.50604
2.49992
2.49208
2.48318
2.47395
2.46444
2.45475
2.44472
2.43372
2.42191
2.40836
2.39326
2.37596
2.35645
2.33509
2.31157
2.28783
1
1
1
1
1
1
1
1
1
1
1
1
1
1
1
1
1
1
1
1
1
1
1
1
1
1
1
1
1
1
1
1
1
1
1
1
1
1
1
1
1
1
1
1
1
1
1
1
1
1
1
1
1
1
1
1
1
1
1
1
1
1
1.02296
2.19494
2.5039
2.50087
2.5047
2.50932
2.51473
2.51961
2.5226
2.52284
2.52144
2.51839
2.51423
2.50986
2.50616
2.50342
2.50074
2.49722
2.49173
2.48432
2.47539
2.46584
2.45613
2.44662
2.43676
2.42642
2.41544
2.40311
2.38907
2.37247
2.35383
2.33302
2.31058
2.28785
1
1
1
1
1
1
1
1
1
1
1
1
1
1
1
1
1
1
1
1
1
1
1
1
1
1
1
1
1
1
1
1
1
1
1
1
1
1
1
1
1
1
1
1
1
1
1
1
1
1
1
1
1
1
1
1
1
1
1
1
1
1
1.00008
1.74247
2.43948
2.49801
2.4988
2.50055
2.50426
2.50899
2.51269
2.51386
2.51294
2.51029
2.50621
2.50151
2.49719
2.49395
2.49116
2.48801
2.48323
2.4765
2.46797
2.45835
2.4485
2.43895
2.42934
2.41956
2.40901
2.39734
2.3838
2.36792
2.3501
2.33002
2.30889
2.28733
1
1
1
1
1
1
1
1
1
1
1
1
1
1
1
1
1
1
1
1
1
1
1
1
1
1
1
1
1
1
1
1
1
1
1
1
1
1
1
1
1
1
1
1
1
1
1
1
1
1
1
1
1
1
1
1
1
1
1
1
1
1
1
1.14251
2.28519
2.49763
2.49107
2.4911
2.49356
2.49801
2.50226
2.5042
2.50369
2.50158
2.49785
2.49322
2.48861
2.48484
2.48164
2.4784
2.47412
2.46813
2.46037
2.45118
2.44134
2.43156
2.42217
2.41275
2.40247
2.39107
2.37781
2.36261
2.34555
2.32666
2.30696
2.28667
1
1
1
1
1
1
1
1
1
1
1
1
1
1
1
1
1
1
1
1
1
1
1
1
1
1
1
1
1
1
1
1
1
1
1
1
1
1
1
1
1
1
1
1
1
1
1
1
1
1
1
1
1
1
1
1
1
1
1
1
1
1
1
1.00413
1.99054
2.45786
2.47518
2.47981
2.48364
2.48854
2.4929
2.49541
2.49537
2.49381
2.49028
2.48563
2.48079
2.4765
2.47274
2.46908
2.46491
2.45949
2.45261
2.44424
2.43469
2.42472
2.41526
2.40582
2.39571
2.3845
2.37167
2.35719
2.34096
2.32342
2.30513
2.28636
1
1
1
1
1
1
1
1
1
1
1
1
1
1
1
1
1
1
1
1
1
1
1
1
1
1
1
1
1
1
1
1
1
1
1
1
1
1
1
1
1
1
1
1
1
1
1
1
1
1
1
1
1
1
1
1
1
1
1
1
1
1
1
0.999999
1.37684
2.34191
2.4822
2.47466
2.47605
2.47941
2.48325
2.48586
2.48622
2.48527
2.48236
2.4779
2.47298
2.46832
2.46411
2.45998
2.45558
2.45041
2.44423
2.43685
2.42796
2.41814
2.40839
2.39859
2.38846
2.37755
2.36538
2.35181
2.33672
2.32063
2.30366
2.2861
1
1
1
1
1
1
1
1
1
1
1
1
1
1
1
1
1
1
1
1
1
1
1
1
1
1
1
1
1
1
1
1
1
1
1
1
1
1
1
1
1
1
1
1
1
1
1
1
1
1
1
1
1
1
1
1
1
1
1
1
1
1
1
0.999999
1.02994
2.15868
2.46189
2.46117
2.46463
2.46912
2.47355
2.47645
2.47692
2.47639
2.47422
2.47033
2.46568
2.46091
2.45625
2.45157
2.4467
2.44149
2.43577
2.42927
2.42132
2.41202
2.40208
2.39182
2.3814
2.37053
2.35885
2.34616
2.33247
2.31785
2.30212
2.28534
1
1
1
1
1
1
1
1
1
1
1
1
1
1
1
1
1
1
1
1
1
1
1
1
1
1
1
1
1
1
1
1
1
1
1
1
1
1
1
1
1
1
1
1
1
1
1
1
1
1
1
1
1
1
1
1
1
1
1
1
1
1
1
1
1.00014
1.66043
2.38836
2.46036
2.45958
2.46107
2.46415
2.46675
2.46718
2.46685
2.46525
2.46216
2.458
2.4533
2.44835
2.44329
2.43814
2.43281
2.42723
2.42122
2.41409
2.40554
2.39585
2.38539
2.37459
2.36344
2.35197
2.34016
2.32792
2.31473
2.30022
2.28423
1
1
1
1
1
1
1
1
1
1
1
1
1
1
1
1
1
1
1
1
1
1
1
1
1
1
1
1
1
1
1
1
1
1
1
1
1
1
1
1
1
1
1
1
1
1
1
1
1
1
1
1
1
1
1
1
1
1
1
1
1
1
1
1
1
1.10734
2.22804
2.4588
2.45291
2.45298
2.45473
2.45616
2.45676
2.45682
2.45594
2.4538
2.45034
2.44598
2.44099
2.43568
2.4302
2.42458
2.41888
2.41294
2.40632
2.39856
2.38954
2.37944
2.36853
2.35727
2.34585
2.33451
2.32313
2.31088
2.29731
2.28234
1
1
1
1
1
1
1
1
1
1
1
1
1
1
1
1
1
1
1
1
1
1
1
1
1
1
1
1
1
1
1
1
1
1
1
1
1
1
1
1
1
1
1
1
1
1
1
1
1
1
1
1
1
1
1
1
1
1
1
1
1
1
1
1
1
1.00213
1.83632
2.40085
2.43654
2.44238
2.44569
2.44719
2.44774
2.4477
2.44709
2.44562
2.44285
2.43893
2.43398
2.42844
2.42258
2.41672
2.41078
2.40477
2.39829
2.39094
2.38254
2.37297
2.36244
2.35139
2.34016
2.32917
2.31825
2.30653
2.29366
2.27979
1
1
1
1
1
1
1
1
1
1
1
1
1
1
1
1
1
1
1
1
1
1
1
1
1
1
1
1
1
1
1
1
1
1
1
1
1
1
1
1
1
1
1
1
1
1
1
1
1
1
1
1
1
1
1
1
1
1
1
1
1
1
1
1
1
1
1.19859
2.2568
2.44347
2.43506
2.43589
2.43708
2.43778
2.43778
2.43748
2.4365
2.43451
2.43128
2.42677
2.42127
2.41535
2.40928
2.40323
2.39703
2.39041
2.38317
2.37516
2.36614
2.35623
2.34574
2.3351
2.3245
2.31381
2.30232
2.28981
2.27678
1
1
1
1
1
1
1
1
1
1
1
1
1
1
1
1
1
1
1
1
1
1
1
1
1
1
1
1
1
1
1
1
1
1
1
1
1
1
1
1
1
1
1
1
1
1
1
1
1
1
1
1
1
1
1
1
1
1
1
1
1
1
1
1
1
1
1.00781
1.95109
2.40281
2.41543
2.42271
2.42562
2.42826
2.4288
2.42859
2.42772
2.42605
2.42325
2.41911
2.41381
2.40784
2.40167
2.3955
2.38929
2.38279
2.37568
2.36793
2.35927
2.34967
2.33973
2.32972
2.31956
2.3092
2.29809
2.28599
2.27361
1
1
1
1
1
1
1
1
1
1
1
1
1
1
1
1
1
1
1
1
1
1
1
1
1
1
1
1
1
1
1
1
1
1
1
1
1
1
1
1
1
1
1
1
1
1
1
1
1
1
1
1
1
1
1
1
1
1
1
1
1
1
1
1
1
1
1.00001
1.28838
2.26762
2.42271
2.41624
2.41734
2.41986
2.42035
2.42003
2.41895
2.41699
2.41396
2.40991
2.40498
2.39956
2.39369
2.38761
2.38148
2.37526
2.36864
2.36127
2.35283
2.34341
2.33377
2.32423
2.31448
2.30454
2.29395
2.28235
2.27041
1
1
1
1
1
1
1
1
1
1
1
1
1
1
1
1
1
1
1
1
1
1
1
1
1
1
1
1
1
1
1
1
1
1
1
1
1
1
1
1
1
1
1
1
1
1
1
1
1
1
1
1
1
1
1
1
1
1
1
1
1
1
1
1
1
1
1
1.01711
2.00707
2.39169
2.39846
2.40422
2.40868
2.41084
2.41109
2.41042
2.40849
2.40514
2.40085
2.39603
2.39085
2.38524
2.37936
2.37347
2.36762
2.36159
2.35489
2.34703
2.33789
2.3283
2.31872
2.309
2.29926
2.28918
2.27825
2.26689
1
1
1
1
1
1
1
1
1
1
1
1
1
1
1
1
1
1
1
1
1
1
1
1
1
1
1
1
1
1
1
1
1
1
1
1
1
1
1
1
1
1
1
1
1
1
1
1
1
1
1
1
1
1
1
1
1
1
1
1
1
1
1
1
1
1
1
1.00006
1.34974