/*--------------------------------*- C++ -*----------------------------------*\
  =========                 |
  \\      /  F ield         | OpenFOAM: The Open Source CFD Toolbox
   \\    /   O peration     | Website:  https://openfoam.org
    \\  /    A nd           | Version:  7
     \\/     M anipulation  |
\*---------------------------------------------------------------------------*/
FoamFile
{
    version     2.0;
    format      ascii;
    class       volScalarField;
    location    "2.2";
    object      T;
}
// * * * * * * * * * * * * * * * * * * * * * * * * * * * * * * * * * * * * * //

dimensions      [0 0 0 1 0 0 0];

internalField   nonuniform List<scalar> 
64512
(
1
1
1
1
1
1
1
1
1
1
1
1
1
1
1
1
1
1
1
1
1
1
1
1
1
1
1
1
1
1
1
1
1
1
1
1
1
1
1
1
1
1
1
1
1
1
1
1
1
1.36195
2.50456
2.69682
2.70128
2.70921
2.71456
2.71842
2.7203
2.72121
2.7224
2.72499
2.7295
2.73558
2.7422
2.74796
2.75167
2.75315
2.75348
2.75383
2.75495
2.75775
2.76295
2.77022
2.7779
2.78398
2.78719
2.78819
2.78873
2.78991
2.79255
2.79682
2.80174
2.80575
2.80789
2.80839
2.80828
2.80829
2.80883
2.81023
2.81265
2.81632
2.82104
2.82674
2.83365
2.83996
2.8436
2.84425
1
1
1
1
1
1
1
1
1
1
1
1
1
1
1
1
1
1
1
1
1
1
1
1
1
1
1
1
1
1
1
1
1
1
1
1
1
1
1
1
1
1
1
1
1
1
1
1
1
1.35571
2.50119
2.69634
2.70152
2.70908
2.7145
2.71831
2.72012
2.72098
2.72223
2.72492
2.72951
2.73564
2.74226
2.74802
2.75173
2.75324
2.75359
2.75393
2.75498
2.75768
2.76279
2.77004
2.77775
2.78388
2.78714
2.78815
2.7887
2.78985
2.79241
2.79663
2.80151
2.80552
2.80769
2.80824
2.80816
2.80816
2.80868
2.81004
2.81243
2.8161
2.82082
2.82653
2.83343
2.83974
2.8434
2.84407
1
1
1
1
1
1
1
1
1
1
1
1
1
1
1
1
1
1
1
1
1
1
1
1
1
1
1
1
1
1
1
1
1
1
1
1
1
1
1
1
1
1
1
1
1
1
1
1
1
1.34006
2.49321
2.69574
2.70105
2.70894
2.71435
2.71792
2.71957
2.72041
2.72174
2.72458
2.72935
2.7356
2.74228
2.74807
2.7518
2.75332
2.7537
2.75406
2.75503
2.75761
2.76261
2.76982
2.77756
2.78373
2.78702
2.78808
2.78865
2.78975
2.79223
2.79635
2.80118
2.80517
2.80738
2.80798
2.80792
2.80794
2.80842
2.80974
2.81211
2.8158
2.82053
2.82624
2.83312
2.83941
2.84309
2.8438
1
1
1
1
1
1
1
1
1
1
1
1
1
1
1
1
1
1
1
1
1
1
1
1
1
1
1
1
1
1
1
1
1
1
1
1
1
1
1
1
1
1
1
1
1
1
1
1
1
1.31654
2.48097
2.69508
2.70085
2.70884
2.714
2.71721
2.71867
2.71952
2.72097
2.72401
2.72905
2.73555
2.74233
2.74815
2.75191
2.75347
2.75386
2.75421
2.75503
2.75741
2.76224
2.7694
2.7772
2.78345
2.78682
2.78795
2.78855
2.7896
2.79195
2.79597
2.80072
2.80469
2.80693
2.80759
2.80757
2.80759
2.80803
2.80929
2.81165
2.81536
2.8201
2.82581
2.83267
2.83894
2.84263
2.84338
1
1
1
1
1
1
1
1
1
1
1
1
1
1
1
1
1
1
1
1
1
1
1
1
1
1
1
1
1
1
1
1
1
1
1
1
1
1
1
1
1
1
1
1
1
1
1
1
1
1.28517
2.46415
2.69487
2.70067
2.70839
2.71329
2.71626
2.71752
2.71833
2.7199
2.72317
2.72854
2.73529
2.74221
2.74819
2.75209
2.75371
2.75411
2.75442
2.75509
2.75721
2.76181
2.76888
2.77672
2.78305
2.78649
2.7877
2.78832
2.78932
2.79156
2.79545
2.80011
2.80405
2.80633
2.80707
2.80711
2.80712
2.80752
2.80873
2.81109
2.8148
2.81954
2.82527
2.8321
2.83835
2.84205
2.84283
1
1
1
1
1
1
1
1
1
1
1
1
1
1
1
1
1
1
1
1
1
1
1
1
1
1
1
1
1
1
1
1
1
1
1
1
1
1
1
1
1
1
1
1
1
1
1
1
1
1.24523
2.44169
2.69495
2.70069
2.70785
2.71237
2.71502
2.71615
2.71697
2.71862
2.72212
2.72777
2.73485
2.74209
2.74825
2.75226
2.75388
2.7542
2.75443
2.75494
2.75684
2.7612
2.76815
2.77602
2.78244
2.78601
2.7873
2.78797
2.78894
2.79108
2.79483
2.79938
2.80328
2.8056
2.80642
2.80651
2.80651
2.80686
2.80804
2.81042
2.8141
2.81881
2.82458
2.83139
2.83763
2.84133
2.84217
1
1
1
1
1
1
1
1
1
1
1
1
1
1
1
1
1
1
1
1
1
1
1
1
1
1
1
1
1
1
1
1
1
1
1
1
1
1
1
1
1
1
1
1
1
1
1
1
1
1.19649
2.41229
2.69439
2.70058
2.70719
2.71131
2.71376
2.71487
2.71571
2.71742
2.72107
2.72696
2.73431
2.74178
2.7481
2.75222
2.75388
2.75419
2.7544
2.7548
2.75652
2.76064
2.7674
2.77523
2.78168
2.78534
2.78669
2.78738
2.78836
2.79044
2.79407
2.79851
2.80236
2.80471
2.8056
2.80573
2.80573
2.80605
2.8072
2.80959
2.81322
2.81787
2.82367
2.83049
2.83675
2.8405
2.84141
1
1
1
1
1
1
1
1
1
1
1
1
1
1
1
1
1
1
1
1
1
1
1
1
1
1
1
1
1
1
1
1
1
1
1
1
1
1
1
1
1
1
1
1
1
1
1
1
1
1.13988
2.37546
2.6925
2.70022
2.70646
2.7104
2.71283
2.71404
2.71497
2.7167
2.72028
2.72614
2.73364
2.74136
2.7479
2.75219
2.75386
2.75409
2.75423
2.75456
2.75615
2.76003
2.76651
2.77419
2.78065
2.78442
2.78585
2.7866
2.78761
2.78966
2.79319
2.79751
2.8013
2.80365
2.80457
2.80474
2.80475
2.80507
2.80622
2.8086
2.81215
2.81669
2.82251
2.82936
2.8357
2.83953
2.84055
1
1
1
1
1
1
1
1
1
1
1
1
1
1
1
1
1
1
1
1
1
1
1
1
1
1
1
1
1
1
1
1
1
1
1
1
1
1
1
1
1
1
1
1
1
1
1
1
1
1.07319
2.3354
2.68993
2.69944
2.70601
2.7104
2.71309
2.71435
2.71513
2.71653
2.71965
2.72521
2.73266
2.74048
2.7472
2.75173
2.75355
2.75383
2.75399
2.75435
2.75585
2.75946
2.76556
2.77298
2.77939
2.78327
2.78482
2.78562
2.78668
2.78873
2.79216
2.79635
2.80005
2.80238
2.80331
2.80351
2.80356
2.80392
2.80507
2.80743
2.81086
2.81527
2.8211
2.828
2.83447
2.83842
2.83959
1
1
1
1
1
1
1
1
1
1
1
1
1
1
1
1
1
1
1
1
1
1
1
1
1
1
1
1
1
1
1
1
1
1
1
1
1
1
1
1
1
1
1
1
1
1
1
1
1
1.00356
2.29158
2.68681
2.6989
2.70543
2.71009
2.71275
2.71395
2.71469
2.71598
2.71889
2.72417
2.73145
2.73929
2.74619
2.75106
2.75323
2.75366
2.75383
2.75416
2.75552
2.7588
2.76443
2.77147
2.77779
2.78183
2.7836
2.7845
2.78561
2.78763
2.79094
2.79498
2.79857
2.80085
2.80179
2.80203
2.80216
2.8026
2.80377
2.80608
2.80936
2.81361
2.81942
2.82639
2.83303
2.83715
2.8385
1
1
1
1
1
1
1
1
1
1
1
1
1
1
1
1
1
1
1
1
1
1
1
1
1
1
1
1
1
1
1
1
1
1
1
1
1
1
1
1
1
1
1
1
1
1
1
1
1
1.00002
2.23738
2.68329
2.69873
2.70506
2.71026
2.71318
2.71445
2.71511
2.71622
2.71877
2.72353
2.73032
2.73789
2.74478
2.74991
2.75251
2.75323
2.75353
2.75392
2.75519
2.75813
2.7632
2.76973
2.77586
2.78006
2.78212
2.7832
2.78439
2.78637
2.78951
2.79335
2.79682
2.79907
2.80004
2.80035
2.80056
2.8011
2.80229
2.80449
2.8076
2.81169
2.81745
2.82451
2.83139
2.83571
2.83728
1
1
1
1
1
1
1
1
1
1
1
1
1
1
1
1
1
1
1
1
1
1
1
1
1
1
1
1
1
1
1
1
1
1
1
1
1
1
1
1
1
1
1
1
1
1
1
1
1
1
2.17041
2.6781
2.69852
2.70489
2.71057
2.71376
2.71519
2.71579
2.71667
2.71874
2.72281
2.72889
2.73594
2.74267
2.74806
2.75125
2.75254
2.75316
2.7537
2.75489
2.75745
2.76183
2.76773
2.77359
2.77797
2.78043
2.7818
2.78311
2.78504
2.78792
2.79149
2.7948
2.79703
2.79807
2.79846
2.79877
2.79936
2.80053
2.80264
2.80558
2.80953
2.81523
2.8224
2.82953
2.83408
2.8359
1
1
1
1
1
1
1
1
1
1
1
1
1
1
1
1
1
1
1
1
1
1
1
1
1
1
1
1
1
1
1
1
1
1
1
1
1
1
1
1
1
1
1
1
1
1
1
1
1
1
2.09057
2.66863
2.69666
2.70377
2.71028
2.71396
2.71577
2.71645
2.71716
2.71879
2.72213
2.72734
2.73368
2.74005
2.74559
2.74943
2.75148
2.75264
2.75346
2.75459
2.75673
2.76034
2.76545
2.77093
2.77544
2.77837
2.78014
2.78165
2.78355
2.78619
2.78944
2.79255
2.79476
2.79588
2.79635
2.79671
2.79732
2.79845
2.80051
2.80336
2.80717
2.81284
2.8201
2.82741
2.8322
2.83425
1
1
1
1
1
1
1
1
1
1
1
1
1
1
1
1
1
1
1
1
1
1
1
1
1
1
1
1
1
1
1
1
1
1
1
1
1
1
1
1
1
1
1
1
1
1
1
1
1
1
1.99949
2.65389
2.6917
2.70085
2.70897
2.71372
2.71605
2.71685
2.71745
2.71868
2.72125
2.72545
2.73085
2.73665
2.74221
2.74671
2.74968
2.75164
2.75294
2.75411
2.75591
2.75876
2.76305
2.76809
2.77272
2.77614
2.77837
2.78008
2.78189
2.78418
2.78703
2.78991
2.79213
2.7934
2.79401
2.79443
2.79504
2.79612
2.79814
2.80093
2.80462
2.81025
2.81757
2.82502
2.83003
2.83225
1
1
1
1
1
1
1
1
1
1
1
1
1
1
1
1
1
1
1
1
1
1
1
1
1
1
1
1
1
1
1
1
1
1
1
1
1
1
1
1
1
1
1
1
1
1
1
1
1
1
1.89787
2.6349
2.68369
2.69573
2.70593
2.71204
2.71545
2.71687
2.71759
2.71856
2.72046
2.72363
2.72796
2.73296
2.73823
2.74315
2.74695
2.74985
2.7518
2.75315
2.7547
2.75687
2.76031
2.76484
2.76954
2.77343
2.77618
2.77814
2.77992
2.78194
2.78443
2.78709
2.78933
2.79075
2.79148
2.7919
2.79246
2.79346
2.79544
2.79822
2.80185
2.80747
2.81486
2.82242
2.82761
2.82995
1
1
1
1
1
1
1
1
1
1
1
1
1
1
1
1
1
1
1
1
1
1
1
1
1
1
1
1
1
1
1
1
1
1
1
1
1
1
1
1
1
1
1
1
1
1
1
1
1
1
1.78329
2.61249
2.67637
2.6894
2.70082
2.70818
2.71306
2.71571
2.7169
2.7178
2.71917
2.7215
2.72486
2.72903
2.73385
2.73897
2.74351
2.74735
2.75008
2.75179
2.75329
2.75497
2.75771
2.76171
2.76636
2.77058
2.77374
2.77591
2.77762
2.77939
2.78157
2.78403
2.78627
2.78782
2.78864
2.78908
2.7896
2.79053
2.7925
2.79527
2.79889
2.80449
2.8119
2.81955
2.82484
2.82722
1
1
1
1
1
1
1
1
1
1
1
1
1
1
1
1
1
1
1
1
1
1
1
1
1
1
1
1
1
1
1
1
1
1
1
1
1
1
1
1
1
1
1
1
1
1
1
1
1
1
1.6572
2.58254
2.67326
2.68295
2.69334
2.70175
2.70837
2.71259
2.7149
2.71619
2.71746
2.71928
2.72188
2.72525
2.72943
2.73442
2.73942
2.74401
2.74754
2.74977
2.7514
2.75283
2.75505
2.75855
2.76301
2.7674
2.77087
2.77322
2.77494
2.77656
2.77852
2.78081
2.78303
2.78464
2.78552
2.78597
2.78645
2.78734
2.78924
2.792
2.79563
2.80123
2.80865
2.81638
2.82175
2.82412
1
1
1
1
1
1
1
1
1
1
1
1
1
1
1
1
1
1
1
1
1
1
1
1
1
1
1
1
1
1
1
1
1
1
1
1
1
1
1
1
1
1
1
1
1
1
1
1
1
1
1.50927
2.5353
2.67336
2.67853
2.68646
2.69429
2.70178
2.70745
2.7111
2.71326
2.71488
2.71665
2.71886
2.72162
2.72514
2.7297
2.73478
2.73981
2.74405
2.74692
2.74891
2.75037
2.75233
2.75541
2.75959
2.76397
2.76762
2.77015
2.77192
2.77348
2.77528
2.77741
2.77953
2.78113
2.78205
2.78253
2.78301
2.7839
2.78574
2.78845
2.79209
2.79767
2.80506
2.81284
2.81826
2.82057
1
1
1
1
1
1
1
1
1
1
1
1
1
1
1
1
1
1
1
1
1
1
1
1
1
1
1
1
1
1
1
1
1
1
1
1
1
1
1
1
1
1
1
1
1
1
1
1
1
1
1.33515
2.46738
2.67592
2.67584
2.68109
2.68761
2.69482
2.70113
2.70582
2.70893
2.71127
2.71343
2.71567
2.71817
2.72116
2.7251
2.72989
2.73494
2.73964
2.74316
2.74569
2.74745
2.74939
2.7522
2.75603
2.76024
2.76396
2.76665
2.76853
2.77011
2.77182
2.77378
2.77574
2.77729
2.77825
2.77878
2.7793
2.78021
2.78195
2.78451
2.78814
2.79369
2.80108
2.80887
2.81436
2.81661
1
1
1
1
1
1
1
1
1
1
1
1
1
1
1
1
1
1
1
1
1
1
1
1
1
1
1
1
1
1
1
1
1
1
1
1
1
1
1
1
1
1
1
1
1
1
1
1
1
1
1.15392
2.388
2.67882
2.67739
2.68023
2.6845
2.68988
2.69528
2.69987
2.70356
2.70672
2.70961
2.71233
2.71496
2.71765
2.72092
2.72506
2.72972
2.73451
2.73854
2.74169
2.74397
2.74613
2.7488
2.7523
2.75623
2.75989
2.76273
2.76477
2.76643
2.76809
2.76988
2.77165
2.7731
2.77409
2.77471
2.7753
2.77625
2.77786
2.7802
2.78377
2.78926
2.79663
2.80444
2.80995
2.81213
1
1
1
1
1
1
1
1
1
1
1
1
1
1
1
1
1
1
1
1
1
1
1
1
1
1
1
1
1
1
1
1
1
1
1
1
1
1
1
1
1
1
1
1
1
1
1
1
1
1
1.01098
2.31711
2.6779
2.67695
2.67965
2.68335
2.68747
2.69159
2.69553
2.69923
2.70276
2.70617
2.70937
2.71229
2.71489
2.71755
2.72082
2.7247
2.72913
2.73338
2.73704
2.73993
2.74245
2.74512
2.74831
2.75192
2.75545
2.75839
2.76062
2.76239
2.76401
2.76565
2.76721
2.76855
2.76957
2.77029
2.77095
2.77193
2.77337
2.7754
2.77884
2.78426
2.79164
2.79948
2.80502
2.80714
1
1
1
1
1
1
1
1
1
1
1
1
1
1
1
1
1
1
1
1
1
1
1
1
1
1
1
1
1
1
1
1
1
1
1
1
1
1
1
1
1
1
1
1
1
1
1
1
1
1
1.00006
2.21814
2.67832
2.68051
2.68307
2.68608
2.68898
2.69204
2.695
2.69792
2.70103
2.7044
2.70773
2.71079
2.7132
2.71522
2.71757
2.72047
2.72412
2.72815
2.73202
2.73544
2.73834
2.74109
2.74405
2.74732
2.75066
2.75365
2.75604
2.75794
2.75955
2.76106
2.76243
2.76365
2.76469
2.76549
2.7662
2.76716
2.76842
2.77015
2.7734
2.7787
2.78604
2.79387
2.7994
2.80144
1
1
1
1
1
1
1
1
1
1
1
1
1
1
1
1
1
1
1
1
1
1
1
1
1
1
1
1
1
1
1
1
1
1
1
1
1
1
1
1
1
1
1
1
1
1
1
1
1
1
1
2.09181
2.66763
2.68094
2.68394
2.68741
2.69016
2.69262
2.69507
2.6976
2.70043
2.70367
2.70701
2.71004
2.71234
2.7138
2.71522
2.71707
2.71974
2.72328
2.72711
2.73077
2.73393
2.73675
2.7395
2.74244
2.74555
2.74852
2.75105
2.75306
2.75466
2.75605
2.75728
2.7584
2.75943
2.76026
2.761
2.76183
2.76278
2.76425
2.76724
2.77238
2.77967
2.78751
2.79305
2.79506
1
1
1
1
1
1
1
1
1
1
1
1
1
1
1
1
1
1
1
1
1
1
1
1
1
1
1
1
1
1
1
1
1
1
1
1
1
1
1
1
1
1
1
1
1
1
1
1
1
1
1
1.93322
2.63398
2.67777
2.68351
2.68761
2.69053
2.69267
2.69461
2.6967
2.69934
2.70258
2.70608
2.70927
2.71163
2.71294
2.71382
2.7148
2.71647
2.71919
2.7226
2.72624
2.72947
2.73226
2.73478
2.73738
2.74019
2.74306
2.74563
2.74772
2.74933
2.75064
2.75176
2.7528
2.75378
2.75457
2.75525
2.75586
2.75647
2.75774
2.76046
2.76536
2.77248
2.78021
2.78566
2.78757
1
1
1
1
1
1
1
1
1
1
1
1
1
1
1
1
1
1
1
1
1
1
1
1
1
1
1
1
1
1
1
1
1
1
1
1
1
1
1
1
1
1
1
1
1
1
1
1
1
1
1
1.75226
2.57768
2.66572
2.6759
2.68284
2.6873
2.69041
2.69266
2.69493
2.69774
2.70115
2.70485
2.70819
2.71062
2.71186
2.71238
2.71283
2.71381
2.71585
2.71886
2.72207
2.7251
2.72774
2.73002
2.73224
2.73469
2.73731
2.73982
2.74192
2.74352
2.74479
2.74586
2.74682
2.74769
2.74836
2.74882
2.7491
2.7494
2.75033
2.75266
2.75724
2.76413
2.77177
2.77718
2.77908
1
1
1
1
1
1
1
1
1
1
1
1
1
1
1
1
1
1
1
1
1
1
1
1
1
1
1
1
1
1
1
1
1
1
1
1
1
1
1
1
1
1
1
1
1
1
1
1
1
1
1
1.50617
2.48459
2.65203
2.66395
2.67296
2.67897
2.68316
2.6864
2.68958
2.6933
2.69772
2.70234
2.70637
2.70916
2.71048
2.71089
2.71102
2.71159
2.713
2.71546
2.71836
2.72106
2.72336
2.72531
2.72717
2.72919
2.73144
2.73372
2.73571
2.73728
2.73853
2.73957
2.74042
2.74112
2.74152
2.74162
2.74155
2.74154
2.74208
2.74402
2.74816
2.7546
2.76186
2.767
2.76869
1
1
1
1
1
1
1
1
1
1
1
1
1
1
1
1
1
1
1
1
1
1
1
1
1
1
1
1
1
1
1
1
1
1
1
1
1
1
1
1
1
1
1
1
1
1
1
1
1
1
1
1.21174
2.38851
2.65056
2.64821
2.65571
2.66475
2.67199
2.67719
2.68151
2.68612
2.69152
2.69725
2.7024
2.70612
2.70801
2.70865
2.70886
2.70934
2.71048
2.71245
2.71489
2.71718
2.71911
2.72077
2.72224
2.72378
2.72555
2.72743
2.72917
2.73064
2.73183
2.73278
2.73347
2.73391
2.73396
2.73367
2.73314
2.73271
2.73278
2.73396
2.73727
2.74304
2.74993
2.75495
2.75668
1
1
1
1
1
1
1
1
1
1
1
1
1
1
1
1
1
1
1
1
1
1
1
1
1
1
1
1
1
1
1
1
1
1
1
1
1
1
1
1
1
1
1
1
1
1
1
1
1
1
1
1.01223
2.31594
2.65237
2.64602
2.65098
2.65709
2.66239
2.66733
2.67216
2.67729
2.68317
2.68966
2.69588
2.70072
2.70356
2.70485
2.70555
2.70634
2.70754
2.70935
2.71158
2.71362
2.71521
2.71647
2.71754
2.7186
2.7198
2.72116
2.72253
2.72373
2.72471
2.72545
2.7259
2.72604
2.72572
2.72492
2.7238
2.72277
2.72224
2.72272
2.72504
2.7298
2.73572
2.73985
2.74076
1
1
1
1
1
1
1
1
1
1
1
1
1
1
1
1
1
1
1
1
1
1
1
1
1
1
1
1
1
1
1
1
1
1
1
1
1
1
1
1
1
1
1
1
1
1
1
1
1
1
1
1.00004
2.1942
2.6515
2.65013
2.6517
2.6542
2.65787
2.66171
2.66531
2.66917
2.67427
2.68064
2.68725
2.69288
2.69674
2.69901
2.70054
2.70198
2.70361
2.70563
2.70791
2.70991
2.71136
2.71238
2.71308
2.71365
2.71431
2.71513
2.71593
2.71664
2.71721
2.71761
2.71772
2.71748
2.71666
2.71524
2.71348
2.71171
2.71025
2.70952
2.71012
2.71278
2.71711
2.72044
2.7216
1
1
1
1
1
1
1
1
1
1
1
1
1
1
1
1
1
1
1
1
1
1
1
1
1
1
1
1
1
1
1
1
1
1
1
1
1
1
1
1
1
1
1
1
1
1
1
1
1
1
1
1
2.0296
2.64806
2.6546
2.65617
2.6578
2.65883
2.66013
2.66174
2.66418
2.6678
2.67261
2.67832
2.68385
2.68821
2.69128
2.69365
2.69591
2.69828
2.70084
2.70346
2.70566
2.70714
2.70805
2.70857
2.70887
2.70914
2.7094
2.70956
2.70957
2.70956
2.70946
2.70906
2.70823
2.70675
2.70465
2.70213
2.69937
2.69653
2.69404
2.69282
2.69342
2.69509
2.69519
2.69232
1
1
1
1
1
1
1
1
1
1
1
1
1
1
1
1
1
1
1
1
1
1
1
1
1
1
1
1
1
1
1
1
1
1
1
1
1
1
1
1
1
1
1
1
1
1
1
1
1
1
1
1
1.81159
2.59451
2.6564
2.65776
2.65974
2.66106
2.66164
2.6622
2.6631
2.6646
2.66735
2.67125
2.67557
2.67951
2.68275
2.68555
2.6884
2.69148
2.69469
2.69783
2.70044
2.70216
2.70316
2.70367
2.70389
2.70394
2.70381
2.70343
2.70272
2.70196
2.70109
2.69991
2.69827
2.69603
2.69315
2.68971
2.68573
2.68127
2.67653
2.67204
2.66761
2.6625
2.65654
2.65009
1
1
1
1
1
1
1
1
1
1
1
1
1
1
1
1
1
1
1
1
1
1
1
1
1
1
1
1
1
1
1
1
1
1
1
1
1
1
1
1
1
1
1
1
1
1
1
1
1
1
1
1
1.51288
2.47962
2.64915
2.65147
2.65558
2.65852
2.66049
2.66197
2.6629
2.66374
2.66502
2.66699
2.66955
2.67227
2.67488
2.67745
2.68033
2.68368
2.68726
2.69084
2.69392
2.69609
2.69742
2.69815
2.69846
2.69847
2.69819
2.69742
2.6961
2.69447
2.69264
2.69046
2.68784
2.68469
2.68087
2.6763
2.67081
2.66421
2.65626
2.64702
2.63661
2.62479
2.6132
2.60882
1
1
1
1
1
1
1
1
1
1
1
1
1
1
1
1
1
1
1
1
1
1
1
1
1
1
1
1
1
1
1
1
1
1
1
1
1
1
1
1
1
1
1
1
1
1
1
1
1
1
1
1
1.15231
2.35408
2.64036
2.63735
2.64231
2.64904
2.65509
2.65896
2.66111
2.66224
2.66323
2.66445
2.66587
2.66737
2.66898
2.67074
2.67298
2.6759
2.67925
2.68284
2.68614
2.68875
2.69056
2.69172
2.69232
2.69248
2.69217
2.69124
2.68945
2.68696
2.68408
2.6808
2.67709
2.67289
2.66795
2.662
2.65466
2.64552
2.634
2.61959
2.60026
2.57019
2.50985
2.3734
1
1
1
1
1
1
1
1
1
1
1
1
1
1
1
1
1
1
1
1
1
1
1
1
1
1
1
1
1
1
1
1
1
1
1
1
1
1
1
1
1
1
1
1
1
1
1
1
1
1
1
1
1.00593
2.25589
2.62503
2.62424
2.6307
2.63825
2.64609
2.65217
2.65627
2.65873
2.66038
2.66169
2.66288
2.66393
2.66486
2.66581
2.66712
2.66906
2.67161
2.67462
2.67766
2.68039
2.68256
2.6842
2.68527
2.68574
2.68553
2.68459
2.68252
2.67934
2.67547
2.67112
2.66628
2.66088
2.65462
2.64706
2.63761
2.62559
2.60996
2.58875
2.5581
2.50781
2.43111
2.22107
1
1
1
1
1
1
1
1
1
1
1
1
1
1
1
1
1
1
1
1
1
1
1
1
1
1
1
1
1
1
1
1
1
1
1
1
1
1
1
1
1
1
1
1
1
1
1
1
1
1
1
1
1
2.08189
2.6141
2.6262
2.63054
2.63433
2.63901
2.64432
2.64902
2.65266
2.65541
2.6575
2.65915
2.66048
2.66142
2.66207
2.6627
2.66363
2.66512
2.66709
2.66937
2.67167
2.67378
2.67566
2.67715
2.67799
2.67795
2.67713
2.67496
2.67135
2.66672
2.66141
2.65548
2.64882
2.64108
2.63174
2.62001
2.60502
2.58514
2.55822
2.51809
2.46381
2.34508
2.13836
1
1
1
1
1
1
1
1
1
1
1
1
1
1
1
1
1
1
1
1
1
1
1
1
1
1
1
1
1
1
1
1
1
1
1
1
1
1
1
1
1
1
1
1
1
1
1
1
1
1
1
1
0.999999
1.84011
2.57652
2.62978
2.63048
2.63266
2.63537
2.63822
2.64169
2.64528
2.64863
2.65153
2.65397
2.65603
2.6575
2.65837
2.65883
2.65921
2.65976
2.66065
2.66193
2.66336
2.66489
2.66652
2.66809
2.66915
2.66933
2.66865
2.66656
2.66282
2.65773
2.65169
2.64478
2.63687
2.62758
2.61639
2.60232
2.58454
2.56088
2.52947
2.48369
2.41617
2.29034
2.1048
1
1
1
1
1
1
1
1
1
1
1
1
1
1
1
1
1
1
1
1
1
1
1
1
1
1
1
1
1
1
1
1
1
1
1
1
1
1
1
1
1
1
1
1
1
1
1
1
1
1
1
1
1
1.49415
2.46497
2.62682
2.62629
2.62851
2.63092
2.63357
2.63637
2.63916
2.64204
2.64493
2.64771
2.65032
2.65247
2.65397
2.65483
2.65522
2.65519
2.65526
2.65562
2.65605
2.65661
2.65743
2.65851
2.65941
2.65965
2.65908
2.65716
2.65354
2.64832
2.64183
2.63412
2.62509
2.61429
2.60133
2.58507
2.56473
2.53808
2.50255
2.45377
2.37909
2.26372
2.11459
1
1
1
1
1
1
1
1
1
1
1
1
1
1
1
1
1
1
1
1
1
1
1
1
1
1
1
1
1
1
1
1
1
1
1
1
1
1
1
1
1
1
1
1
1
1
1
1
1
1
1
1
1
1.08753
2.32854
2.62287
2.61894
2.62033
2.62391
2.62809
2.63119
2.63372
2.63606
2.63846
2.64101
2.64368
2.64619
2.64832
2.64983
2.65068
2.65063
2.65034
2.65007
2.64971
2.64927
2.64898
2.64908
2.6493
2.64927
2.64863
2.64681
2.64341
2.63831
2.63165
2.62338
2.61341
2.6013
2.58671
2.56862
2.54607
2.51714
2.47892
2.42865
2.35371
2.25349
2.1302
1
1
1
1
1
1
1
1
1
1
1
1
1
1
1
1
1
1
1
1
1
1
1
1
1
1
1
1
1
1
1
1
1
1
1
1
1
1
1
1
1
1
1
1
1
1
1
1
1
1
1
1
1
1.00182
2.19435
2.59975
2.60323
2.60983
2.61573
2.62138
2.6254
2.62839
2.63065
2.63263
2.63468
2.63698
2.63928
2.64164
2.64369
2.64521
2.64565
2.64539
2.64483
2.64399
2.6428
2.64144
2.6403
2.63946
2.63872
2.63767
2.63576
2.63254
2.62766
2.62101
2.61243
2.60178
2.58867
2.57274
2.55321
2.52903
2.49853
2.45929
2.40778
2.33816
2.25327
2.14662
1
1
1
1
1
1
1
1
1
1
1
1
1
1
1
1
1
1
1
1
1
1
1
1
1
1
1
1
1
1
1
1
1
1
1
1
1
1
1
1
1
1
1
1
1
1
1
1
1
1
1
1
1
0.999992
1.96588
2.57443
2.60242
2.60799
2.61242
2.61627
2.61994
2.62316
2.62551
2.62725
2.62881
2.63055
2.63229
2.63438
2.63655
2.63858
2.63973
2.63975
2.6393
2.63832
2.63674
2.63463
2.63239
2.63036
2.62859
2.62679
2.62448
2.62116
2.61635
2.60974
2.60103
2.58998
2.57622
2.55937
2.53883
2.51362
2.48238
2.44311
2.39177
2.32913
2.2549
2.16225
1
1
1
1
1
1
1
1
1
1
1
1
1
1
1
1
1
1
1
1
1
1
1
1
1
1
1
1
1
1
1
1
1
1
1
1
1
1
1
1
1
1
1
1
1
1
1
1
1
1
1
1
1
0.999998
1.60868
2.48777
2.60138
2.60457
2.60741
2.61064
2.61447
2.61772
2.62023
2.62199
2.62334
2.62464
2.62577
2.6273
2.62919
2.63126
2.63287
2.6334
2.63312
2.63224
2.63059
2.62815
2.62518
2.62213
2.61926
2.6165
2.61347
2.60973
2.60472
2.59804
2.58926
2.57803
2.56395
2.54661
2.52552
2.49984
2.46853
2.42981
2.381
2.3244
2.25778
2.1765
1
1
1
1
1
1
1
1
1
1
1
1
1
1
1
1
1
1
1
1
1
1
1
1
1
1
1
1
1
1
1
1
1
1
1
1
1
1
1
1
1
1
1
1
1
1
1
1
1
1
1
1
1
1
1.16164
2.34947
2.60285
2.59725
2.59886
2.60299
2.6079
2.61164
2.61449
2.61648
2.61787
2.61901
2.61964
2.62062
2.62199
2.62372
2.62539
2.62629
2.6262
2.62552
2.62399
2.62154
2.61829
2.61462
2.61084
2.6071
2.60313
2.59863
2.59309
2.58609
2.57713
2.5658
2.55163
2.5342
2.51304
2.48739
2.45661
2.41906
2.37381
2.32191
2.26031
2.18995
1
1
1
1
1
1
1
1
1
1
1
1
1
1
1
1
1
1
1
1
1
1
1
1
1
1
1
1
1
1
1
1
1
1
1
1
1
1
1
1
1
1
1
1
1
1
1
1
1
1
1
1
1
1
1.00631
2.21369
2.58318
2.58286
2.58818
2.59432
2.60022
2.60466
2.60807
2.61049
2.61218
2.61332
2.61376
2.61434
2.61517
2.61639
2.61778
2.61867
2.61863
2.61805
2.61668
2.61441
2.61124
2.60737
2.60304
2.59848
2.59359
2.58822
2.58194
2.5744
2.5651
2.55358
2.53938
2.52209
2.50125
2.47602
2.44646
2.41025
2.36813
2.32061
2.26409
2.20381
1
1
1
1
1
1
1
1
1
1
1
1
1
1
1
1
1
1
1
1
1
1
1
1
1
1
1
1
1
1
1
1
1
1
1
1
1
1
1
1
1
1
1
1
1
1
1
1
1
1
1
1
1
1
0.999994
1.95871
2.55491
2.58024
2.58518
2.58958
2.59386
2.59773
2.60125
2.60404
2.6061
2.60735
2.60789
2.60827
2.6087
2.60944
2.61038
2.61098
2.61086
2.6102
2.60884
2.60672
2.60375
2.59996
2.59544
2.59036
2.58476
2.57859
2.57152
2.5633
2.55344
2.54157
2.52728
2.51019
2.48987
2.46541
2.43741
2.40234
2.36348
2.32084
2.26892
2.21523
1
1
1
1
1
1
1
1
1
1
1
1
1
1
1
1
1
1
1
1
1
1
1
1
1
1
1
1
1
1
1
1
1
1
1
1
1
1
1
1
1
1
1
1
1
1
1
1
1
1
1
1
1
1
0.999997
1.55223
2.45948
2.58181
2.58234
2.58451
2.58773
2.59114
2.59442
2.5973
2.59956
2.60107
2.60186
2.6022
2.60238
2.60273
2.60319
2.60333
2.60298
2.60206
2.60052
2.59842
2.59562
2.59204
2.58759
2.58235
2.57638
2.56964
2.56195
2.55306
2.54259
2.53024
2.51569
2.49868
2.4789
2.45548
2.4285
2.39534
2.36057
2.32104
2.27252
2.22403
1
1
1
1
1
1
1
1
1
1
1
1
1
1
1
1
1
1
1
1
1
1
1
1
1
1
1
1
1
1
1
1
1
1
1
1
1
1
1
1
1
1
1
1
1
1
1
1
1
1
1
1
1
1
0.999999
1.0839
2.31149
2.58371
2.57741
2.57811
2.58096
2.5841
2.58714
2.59004
2.59251
2.59431
2.5954
2.59589
2.59603
2.59612
2.59616
2.59596
2.59525
2.59395
2.59212
2.58986
2.58707
2.58361
2.57929
2.57411
2.56807
2.5611
2.55302
2.54359
2.53256
2.51975
2.50492
2.48783
2.46843
2.44582
2.41974
2.38953
2.35814
2.31952
2.27506
2.23186
1
1
1
1
1
1
1
1
1
1
1
1
1
1
1
1
1
1
1
1
1
1
1
1
1
1
1
1
1
1
1
1
1
1
1
1
1
1
1
1
1
1
1
1
1
1
1
1
1
1
1
1
1
1
1
1.00163
2.13318
2.55558
2.56329
2.57069
2.57479
2.5773
2.57999
2.58268
2.58512
2.58707
2.58841
2.58914
2.58939
2.58934
2.58911
2.58858
2.5875
2.58583
2.58368
2.58118
2.57827
2.57479
2.57056
2.56552
2.5596
2.55266
2.54447
2.53479
2.52344
2.5103
2.49525
2.47813
2.45882
2.43665
2.41174
2.38431
2.35434
2.3166
2.27875
2.23923
1
1
1
1
1
1
1
1
1
1
1
1
1
1
1
1
1
1
1
1
1
1
1
1
1
1
1
1
1
1
1
1
1
1
1
1
1
1
1
1
1
1
1
1
1
1
1
1
1
1
1
1
1
1
1
0.999989
1.78448
2.50005
2.55948
2.56526
2.56781
2.57058
2.57315
2.57564
2.57791
2.57979
2.58118
2.58205
2.58246
2.58236
2.58197
2.58118
2.57979
2.57782
2.57539
2.57264
2.56952
2.56591
2.56164
2.55665
2.55087
2.54408
2.53599
2.52634
2.51497
2.50177
2.48665
2.46949
2.45029
2.42871
2.40456
2.37856
2.34922
2.31499
2.28242
2.24452
1
1
1
1
1
1
1
1
1
1
1
1
1
1
1
1
1
1
1
1
1
1
1
1
1
1
1
1
1
1
1
1
1
1
1
1
1
1
1
1
1
1
1
1
1
1
1
1
1
1
1
1
1
1
1
0.999997
1.29302
2.37579
2.55974
2.55538
2.55753
2.5614
2.56477
2.56774
2.57022
2.57216
2.5736
2.57459
2.57515
2.57505
2.57456
2.57357
2.57196
2.56979
2.56718
2.56424
2.56092
2.55714
2.55275
2.54774
2.54201
2.53531
2.52735
2.51792
2.50679
2.49383
2.47894
2.46183
2.44306
2.42185
2.39794
2.373
2.34495
2.31444
2.28345
2.24728
1
1
1
1
1
1
1
1
1
1
1
1
1
1
1
1
1
1
1
1
1
1
1
1
1
1
1
1
1
1
1
1
1
1
1
1
1
1
1
1
1
1
1
1
1
1
1
1
1
1
1
1
1
1
1
1
1.02048
2.23321
2.54639
2.54386
2.54672
2.55148
2.55559
2.55935
2.56229
2.56443
2.56596
2.56704
2.5677
2.56759
2.56701
2.56586
2.56409
2.5618
2.55909
2.55605
2.55258
2.54864
2.54413
2.53903
2.53322
2.52648
2.51856
2.50935
2.49862
2.48611
2.47172
2.45495
2.43699
2.41566
2.39223
2.36886
2.34212
2.31327
2.28302
2.25013
1
1
1
1
1
1
1
1
1
1
1
1
1
1
1
1
1
1
1
1
1
1
1
1
1
1
1
1
1
1
1
1
1
1
1
1
1
1
1
1
1
1
1
1
1
1
1
1
1
1
1
1
1
1
1
1
1.00005
1.9356
2.51614
2.53615
2.54064
2.54475
2.54772
2.55128
2.5544
2.55671
2.55835
2.55948
2.56018
2.56006
2.55939
2.55809
2.55619
2.55382
2.55107
2.54796
2.54441
2.54039
2.53581
2.53065
2.52471
2.51779
2.50977
2.50066
2.49026
2.47825
2.4645
2.44849
2.43115
2.41008
2.3882
2.36579
2.3392
2.31172
2.28327
2.25397
1
1
1
1
1
1
1
1
1
1
1
1
1
1
1
1
1
1
1
1
1
1
1
1
1
1
1
1
1
1
1
1
1
1
1
1
1
1
1
1
1
1
1
1
1
1
1
1
1
1
1
1
1
1
1
1
1
1.45194
2.41518
2.53858
2.53583
2.53748
2.5402
2.54324
2.54618
2.54864
2.5505
2.55179
2.55257
2.55246
2.55176
2.55037
2.54838
2.54593
2.5431
2.53993
2.53633
2.53229
2.52772
2.52257
2.51654
2.50944
2.50124
2.49208
2.48185
2.47023
2.45715
2.44201
2.42507
2.40529
2.38543
2.36268
2.33658
2.31162
2.28479
2.25727
1
1
1
1
1
1
1
1
1
1
1
1
1
1
1
1
1
1
1
1
1
1
1
1
1
1
1
1
1
1
1
1
1
1
1
1
1
1
1
1
1
1
1
1
1
1
1
1
1
1
1
1
1
1
1
1
1
1.05115
2.25846
2.5398
2.532
2.53126
2.53335
2.5354
2.53797
2.54041
2.54244
2.54391
2.54484
2.5448
2.54416
2.5428
2.54077
2.53824
2.53529
2.53199
2.52832
2.52427
2.51976
2.51467
2.50863
2.50142
2.4931
2.4838
2.47357
2.46212
2.44961
2.43512
2.4189
2.40099
2.38205
2.35917
2.33575
2.31225
2.28638
2.25924
1
1
1
1
1
1
1
1
1
1
1
1
1
1
1
1
1
1
1
1
1
1
1
1
1
1
1
1
1
1
1
1
1
1
1
1
1
1
1
1
1
1
1
1
1
1
1
1
1
1
1
1
1
1
1
1
1
1.00047
1.97466
2.50282
2.52076
2.52589
2.52886
2.52921
2.53068
2.53256
2.5344
2.53592
2.53701
2.53723
2.5367
2.53543
2.53343
2.53081
2.52769
2.52419
2.52037
2.51627
2.5118
2.50677
2.50078
2.49362
2.48538
2.47601
2.46572
2.45428
2.44209
2.42816
2.41284
2.39626
2.37755
2.3564
2.33552
2.31259
2.28721
2.2607
1
1
1
1
1
1
1
1
1
1
1
1
1
1
1
1
1
1
1
1
1
1
1
1
1
1
1
1
1
1
1
1
1
1
1
1
1
1
1
1
1
1
1
1
1
1
1
1
1
1
1
1
1
1
1
1
1
0.999998
1.47295
2.40121
2.52177
2.52038
2.52213
2.52282
2.52385
2.5249
2.52613
2.52741
2.52864
2.52934
2.52906
2.52806
2.52624
2.52364
2.52038
2.51666
2.51265
2.5084
2.50387
2.49882
2.49287
2.48587
2.47786
2.46858
2.45835
2.4468
2.4348
2.42134
2.40663
2.39075
2.37295
2.35422
2.33429
2.31154
2.28752
2.26323
1
1
1
1
1
1
1
1
1
1
1
1
1
1
1
1
1
1
1
1
1
1
1
1
1
1
1
1
1
1
1
1
1
1
1
1
1
1
1
1
1
1
1
1
1
1
1
1
1
1
1
1
1
1
1
1
1
0.999999
1.05542
2.24109
2.51905
2.51414
2.51444
2.51584
2.51695
2.51743
2.51796
2.51876
2.5199
2.52101
2.52119
2.52057
2.51907
2.51664
2.51337
2.50949
2.50525
2.50076
2.49601
2.49081
2.48485
2.47806
2.47038
2.46135
2.45135
2.43985
2.42811
2.41481
2.40045
2.38529
2.36879
2.35108
2.33114
2.31016
2.28858
2.26621
1
1
1
1
1
1
1
1
1
1
1
1
1
1
1
1
1
1
1
1
1
1
1
1
1
1
1
1
1
1
1
1
1
1
1
1
1
1
1
1
1
1
1
1
1
1
1
1
1
1
1
1
1
1
1
1
1
1
1.00055
1.93149
2.47558
2.50113
2.50709
2.50994
2.51108
2.51081
2.51057
2.51072
2.51137
2.51243
2.51313
2.51283
2.51177
2.50968
2.50655
2.50264
2.49821
2.49342
2.48834
2.48288
2.4768
2.4702
2.46277
2.45409
2.44442
2.43332
2.4218
2.40848
2.39461
2.38018
2.36434
2.34673
2.32784
2.30933
2.28914
2.26757
1
1
1
1
1
1
1
1
1
1
1
1
1
1
1
1
1
1
1
1
1
1
1
1
1
1
1
1
1
1
1
1
1
1
1
1
1
1
1
1
1
1
1
1
1
1
1
1
1
1
1
1
1
1
1
1
1
1
0.999998
1.38489
2.36319
2.50603
2.50271
2.50372
2.5037
2.50329
2.50272
2.50251
2.50277
2.50355
2.50452
2.5046
2.50401
2.50241
2.49967
2.49591
2.49144
2.48636
2.48093
2.47512
2.46883
2.46236
2.45506
2.44679
2.43755
2.4271
2.41568
2.40265
2.38942
2.37525
2.35954
2.34248
2.32554
2.3082
2.28863
2.26758
1
1
1
1
1
1
1
1
1
1
1
1
1
1
1
1
1
1
1
1
1
1
1
1
1
1
1
1
1
1
1
1
1
1
1
1
1
1
1
1
1
1
1
1
1
1
1
1
1
1
1
1
1
1
1
1
1
1
0.999999
1.0349
2.20397
2.48973
2.49227
2.49501
2.49495
2.49495
2.49457
2.49449
2.49459
2.49506
2.49591
2.49632
2.49601
2.49484
2.49254
2.48909
2.48468
2.47946
2.47374
2.46761
2.46112
2.45451
2.44735
2.43943
2.43058
2.42072
2.40953
2.3972
2.38437
2.37022
2.35493
2.33911
2.32327
2.30591
2.28685
2.26716
1
1
1
1
1
1
1
1
1
1
1
1
1
1
1
1
1
1
1
1
1
1
1
1
1
1
1
1
1
1
1
1
1
1
1
1
1
1
1
1
1
1
1
1
1
1
1
1
1
1
1
1
1
1
1
1
1
1
1
1.00018
1.82078
2.44081
2.48477
2.48703
2.48716
2.48772
2.48785
2.48763
2.48733
2.48736
2.48768
2.48792
2.48769
2.48679
2.48489
2.48185
2.47768
2.47252
2.46667
2.46033
2.45368
2.44684
2.43976
2.43207
2.42358
2.41417
2.4035
2.39194
2.37936
2.36561
2.35109
2.33617
2.32052
2.30311
2.28536
2.26706
1
1
1
1
1
1
1
1
1
1
1
1
1
1
1
1
1
1
1
1
1
1
1
1
1
1
1
1
1
1
1
1
1
1
1
1
1
1
1
1
1
1
1
1
1
1
1
1
1
1
1
1
1
1
1
1
1
1
1
0.999999
1.2172
2.30874
2.49162
2.48154
2.48047
2.48019
2.48059
2.48042
2.48014
2.47996
2.47987
2.47977
2.47941
2.47853
2.47682
2.4741
2.47023
2.4653
2.45953
2.45319
2.44645
2.43945
2.43228
2.42466
2.41644
2.40738
2.39732
2.38637
2.37428
2.36133
2.34749
2.33304
2.31744
2.30073
2.28438
2.26696
1
1
1
1
1
1
1
1
1
1
1
1
1
1
1
1
1
1
1
1
1
1
1
1
1
1
1
1
1
1
1
1
1
1
1
1
1
1
1
1
1
1
1
1
1
1
1
1
1
1
1
1
1
1
1
1
1
1
1
1
1.01043
2.12028
2.46477
2.46456
2.46765
2.47216
2.47329
2.47322
2.4732
2.47305
2.47261
2.47201
2.47121
2.47009
2.46836
2.46583
2.46227
2.45769
2.45223
2.44612
2.43945
2.43239
2.42509
2.41744
2.40936
2.40057
2.39105
2.38061
2.36926
2.35715
2.34385
2.32981
2.31468
2.29898
2.28344
2.26649
1
1
1
1
1
1
1
1
1
1
1
1
1
1
1
1
1
1
1
1
1
1
1
1
1
1
1
1
1
1
1
1
1
1
1
1
1
1
1
1
1
1
1
1
1
1
1
1
1
1
1
1
1
1
1
1
1
1
1
1
1
1.63382
2.38519
2.46069
2.46596
2.46748
2.46688
2.46691
2.46706
2.46677
2.46598
2.46486
2.4635
2.46194
2.45995
2.45738
2.45399
2.44977
2.44472
2.43897
2.43255
2.42558
2.41819
2.41046
2.40237
2.39375
2.38454
2.37455
2.36402
2.35259
2.33979
2.32637
2.31204
2.29726
2.28204
2.26549
1
1
1
1
1
1
1
1
1
1
1
1
1
1
1
1
1
1
1
1
1
1
1
1
1
1
1
1
1
1
1
1
1
1
1
1
1
1
1
1
1
1
1
1
1
1
1
1
1
1
1
1
1
1
1
1
1
1
1
1
0.999997
1.10457
2.22544
2.46149
2.45874
2.45957
2.45918
2.45963
2.46015
2.45982
2.45891
2.45755
2.45584
2.4539
2.45162
2.44894
2.44565
2.44173
2.43711
2.43182
2.42577
2.41903
2.4117
2.40392
2.39577
2.38721
2.37814
2.36851
2.35861
2.34764
2.33545
2.32285
2.30941
2.2953
2.28031
2.26446
1
1
1
1
1
1
1
1
1
1
1
1
1
1
1
1
1
1
1
1
1
1
1
1
1
1
1
1
1
1
1
1
1
1
1
1
1
1
1
1
1
1
1
1
1
1
1
1
1
1
1
1
1
1
1
1
1
1
1
1
0.999999
1.00221
1.88795
2.41463
2.44352
2.44837
2.44984
2.45227
2.45315
2.45281
2.45187
2.45042
2.44854
2.4463
2.44371
2.4408
2.43749
2.43373
2.42943
2.42454
2.41891
2.4125
2.40537
2.39765
2.38947
2.38091
2.37188
2.36251
2.35295
2.34234
2.33084
2.31898
2.30635
2.29275
2.27826
2.26333
1
1
1
1
1
1
1
1
1
1
1
1
1
1
1
1
1
1
1
1
1
1
1
1
1
1
1
1
1
1
1
1
1
1
1
1
1
1
1
1
1
1
1
1
1
1
1
1
1
1
1
1
1
1
1
1
1
1
1
1
1
0.999996
1.2436
2.27722
2.45033
2.44257
2.4436
2.44525
2.44544
2.44497
2.44405
2.44272
2.44093
2.43866
2.43601
2.43302
2.42969
2.426
2.42191
2.41731
2.41204
2.40599
2.39918