/*--------------------------------*- C++ -*----------------------------------*\
  =========                 |
  \\      /  F ield         | OpenFOAM: The Open Source CFD Toolbox
   \\    /   O peration     | Website:  https://openfoam.org
    \\  /    A nd           | Version:  9
     \\/     M anipulation  |
\*---------------------------------------------------------------------------*/
FoamFile
{
    format      ascii;
    class       volVectorField;
    location    "9.4";
    object      U;
}
// * * * * * * * * * * * * * * * * * * * * * * * * * * * * * * * * * * * * * //

dimensions      [0 1 -1 0 0 0 0];

internalField   nonuniform List<vector> 
8500
(
(-0.00375027 0.00129368 0)
(-0.014231 0.00192342 -6.6616e-23)
(-0.0268728 0.00170988 -3.68751e-24)
(-0.034974 0.00103868 6.84638e-37)
(-0.0384279 0.000147178 -9.61255e-24)
(-0.0362432 -0.000850836 8.06217e-24)
(-0.0289423 -0.00187979 -5.0705e-23)
(-0.0155046 -0.00291483 -7.54684e-23)
(0.000767119 -0.00370243 -6.46392e-23)
(0.0233147 -0.00452106 -3.26196e-24)
(-0.00389955 0.00385003 1.86521e-22)
(-0.0142345 0.00571444 6.22523e-23)
(-0.0264069 0.00506917 2.4975e-22)
(-0.0338821 0.00306002 0)
(-0.0365785 0.000396453 0)
(-0.0335371 -0.00258203 1.54743e-23)
(-0.0253152 -0.00565052 3.77096e-23)
(-0.0108291 -0.00872096 8.03741e-23)
(0.00639985 -0.0110972 4.88942e-23)
(0.0304535 -0.013498 1.30486e-23)
(-0.00419047 0.00631411 -1.6574e-22)
(-0.014228 0.00933928 0)
(-0.0254616 0.00824847 -2.35198e-22)
(-0.0316867 0.00491466 0)
(-0.0328717 0.000511789 -3.8578e-23)
(-0.0281217 -0.00440148 3.23558e-23)
(-0.0180596 -0.00946278 0)
(-0.00149834 -0.0144757 0)
(0.0176307 -0.0184372 0)
(0.0446873 -0.0222738 0)
(-0.00460795 0.00862705 3.36774e-22)
(-0.0141855 0.0126914 -2.52214e-22)
(-0.0240102 0.0111324 -5.91072e-23)
(-0.0283645 0.00649606 -3.66034e-22)
(-0.0272916 0.00040843 -3.56248e-22)
(-0.0199936 -0.00636484 3.11088e-23)
(-0.00717719 -0.0133597 -2.61251e-23)
(0.0124608 -0.0201587 2.83603e-22)
(0.0343991 -0.025655 2.24369e-24)
(0.0659146 -0.030704 2.48281e-22)
(-0.00512982 0.0107338 -3.36774e-22)
(-0.0140677 0.0156707 -3.28103e-22)
(-0.0220124 0.0136125 8.89378e-23)
(-0.0238806 0.00770461 4.86767e-22)
(-0.0198138 8.47629e-06 -4.18307e-23)
(-0.00915215 -0.00851694 5.11647e-22)
(0.00732119 -0.0173292 0)
(0.0310223 -0.0257672 -3.23044e-22)
(0.0566179 -0.0326999 -6.19265e-23)
(0.0939745 -0.0386379 -3.41819e-22)
(-0.00572742 0.0125845 8.59482e-23)
(-0.0138237 0.0181856 5.43906e-22)
(-0.0194151 0.0155897 -4.22426e-22)
(-0.0181876 0.00845024 1.30869e-24)
(-0.0104035 -0.000756905 -3.59024e-22)
(0.00442103 -0.0108949 1.3091e-22)
(0.0254057 -0.0213448 -5.26882e-23)
(0.0541224 -0.0312784 4.04558e-22)
(0.0841873 -0.039524 -6.69152e-23)
(0.128648 -0.0459169 1.96419e-22)
(-0.00636627 0.0141356 4.3488e-23)
(-0.013391 0.0201553 0)
(-0.0161523 0.0169774 -4.42456e-24)
(-0.0112266 0.00865524 0)
(0.000982267 -0.00194391 6.39114e-22)
(0.0207472 -0.01353 -5.14286e-22)
(0.0470569 -0.025415 0)
(0.0816764 -0.0366168 1.18481e-24)
(0.116971 -0.046062 0)
(0.169647 -0.0523718 0)
(-0.00700687 0.0153509 -7.13883e-22)
(-0.0126964 0.0215113 -7.37249e-23)
(-0.0121457 0.0177031 5.4785e-22)
(-0.00292626 0.00825742 9.80799e-23)
(0.0143955 -0.00359289 -6.44929e-22)
(0.0398483 -0.0164342 -3.9078e-22)
(0.0722545 -0.0295257 -5.32814e-23)
(0.113584 -0.0417046 4.09054e-22)
(0.1548 -0.0522324 -6.7551e-23)
(0.21661 -0.0578254 5.01207e-23)
(-0.00760581 0.0162024 8.03739e-22)
(-0.0116574 0.022199 -6.06921e-22)
(-0.00730533 0.0177114 -1.84238e-22)
(0.00679635 0.00721256 1.01987e-22)
(0.0298976 -0.00572692 6.47981e-22)
(0.0617489 -0.0195998 5.84419e-22)
(0.100972 -0.0336368 -5.36204e-23)
(0.149725 -0.0464538 8.3367e-23)
(0.197469 -0.0579349 -1.29787e-22)
(0.26908 -0.0620964 5.21503e-23)
(-0.00811633 0.0166699 7.4229e-22)
(-0.0101837 0.0221806 6.06061e-22)
(-0.00153002 0.016965 -8.82065e-22)
(0.0180351 0.00549648 -1.03063e-22)
(0.0475589 -0.00834813 0)
(0.0864761 -0.0229984 0)
(0.133176 -0.0376852 0)
(0.189949 -0.050758 -1.31846e-21)
(0.244734 -0.0630451 -5.38114e-22)
(0.326494 -0.0650056 3.76356e-22)
(-0.00848648 0.0167363 -1.5005e-21)
(-0.00817991 0.0214389 0)
(0.00528999 0.0154478 2.02319e-21)
(0.0308934 0.003108 8.23848e-22)
(0.0674564 -0.0114343 8.43297e-23)
(0.114057 -0.0265785 0)
(0.168819 -0.0415843 -8.50023e-22)
(0.234073 -0.0544913 6.60649e-22)
(0.296308 -0.0674099 5.38109e-22)
(0.388177 -0.0663805 -3.76367e-22)
(-0.00866269 0.0164005 8.52932e-22)
(-0.00554028 0.0199683 -7.95179e-23)
(0.0132708 0.0131655 -1.01797e-21)
(0.0454821 7.10384e-05 -9.25489e-22)
(0.0896708 -0.0149366 0)
(0.144513 -0.0302629 1.07171e-21)
(0.207839 -0.0452221 -5.66074e-24)
(0.281871 -0.0575114 5.84741e-22)
(0.351844 -0.0708447 6.13855e-22)
(0.453331 -0.0660649 -3.69531e-22)
(-0.00859557 0.0156722 -1.41967e-24)
(-0.00215616 0.0177767 1.3622e-21)
(0.0225364 0.0101468 -1.3167e-22)
(0.0619166 -0.00356399 7.39032e-22)
(0.114283 -0.0187782 4.25842e-22)
(0.177857 -0.0339469 2.77697e-22)
(0.250146 -0.0484613 8.48938e-22)
(0.333069 -0.0596642 -7.53777e-22)
(0.410935 -0.073134 -4.21216e-22)
(0.521041 -0.0639297 2.65348e-22)
(-0.00823213 0.0145621 0)
(0.00208091 0.014896 -1.12596e-21)
(0.0332135 0.00644434 -1.33667e-22)
(0.0803132 -0.00771916 9.50665e-24)
(0.141367 -0.022853 6.76388e-22)
(0.214085 -0.037499 -9.4779e-22)
(0.295615 -0.0511409 8.59992e-22)
(0.387334 -0.0607912 -8.75797e-23)
(0.473091 -0.0740361 0)
(0.590271 -0.0598877 0)
(-0.00751915 0.0130889 1.02643e-22)
(0.00728038 0.011375 -1.32883e-21)
(0.0454285 0.00213451 0)
(0.100785 -0.0122887 -9.49633e-23)
(0.170988 -0.0270261 8.78075e-23)
(0.253166 -0.0407614 0)
(0.344074 -0.0530801 -8.66918e-22)
(0.444268 -0.0607393 -6.76775e-22)
(0.53774 -0.0732933 1.23543e-22)
(0.659889 -0.0539181 -1.0414e-22)
(-0.00640442 0.0112789 -1.02597e-22)
(0.0135508 0.00727872 1.41496e-21)
(0.0593044 -0.00268296 0)
(0.123435 -0.0171396 -9.67005e-22)
(0.203186 -0.0311349 8.87566e-23)
(0.295032 -0.0435535 -1.10626e-21)
(0.395292 -0.0540848 -1.05365e-22)
(0.503408 -0.0593705 7.6537e-22)
(0.604214 -0.0706486 0)
(0.7287 -0.046095 7.23831e-22)
(-0.00483703 0.00916458 -1.63887e-21)
(0.0209971 0.0026882 -8.79469e-23)
(0.0749567 -0.00788577 -1.34415e-22)
(0.148351 -0.022113 1.12481e-22)
(0.237977 -0.0349924 -1.40626e-21)
(0.339573 -0.0456765 1.10625e-21)
(0.448968 -0.0539565 8.82861e-22)
(0.564222 -0.0565731 6.8426e-22)
(0.671744 -0.0658543 1.10236e-21)
(0.795456 -0.0365645 -6.19441e-22)
(-0.00276769 0.00678452 1.74363e-21)
(0.0297186 -0.0023002 0)
(0.092489 -0.0133305 1.262e-21)
(0.175601 -0.0270269 -1.14039e-22)
(0.275338 -0.0383916 2.82672e-21)
(0.386621 -0.0469207 0)
(0.504725 -0.0525057 -8.82855e-22)
(0.626132 -0.0522729 4.03907e-24)
(0.739466 -0.0586561 -1.22561e-21)
(0.858779 -0.0254557 1.03912e-22)
(-0.000149246 0.00418234 0)
(0.0398065 -0.00757594 1.42394e-21)
(0.111988 -0.0188546 -1.12572e-21)
(0.20522 -0.0316794 0)
(0.315198 -0.041111 -1.42046e-21)
(0.435945 -0.0470732 0)
(0.562108 -0.0495708 8.92573e-22)
(0.688536 -0.0464407 -6.88289e-22)
(0.806504 -0.0487904 -1.09168e-21)
(0.917505 -0.0131558 -7.38264e-22)
(0.00306272 0.00140665 -2.2316e-22)
(0.0513412 -0.0130155 -1.2366e-21)
(0.133521 -0.024279 0)
(0.237211 -0.0358536 0)
(0.357434 -0.0429221 0)
(0.487241 -0.0459285 -1.37983e-22)
(0.620578 -0.0450329 -9.00651e-22)
(0.750817 -0.0390732 -9.06427e-23)
(0.872041 -0.0362072 1.09167e-21)
(0.972278 -0.00217139 8.43388e-22)
(0.00690928 -0.00148933 0)
(0.0643901 -0.0184839 -1.47479e-21)
(0.157128 -0.0294115 0)
(0.271532 -0.0393225 0)
(0.401863 -0.0435965 0)
(0.540133 -0.0432969 1.38881e-22)
(0.679518 -0.0388164 -1.12613e-21)
(0.812243 -0.0301591 7.69031e-23)
(0.934886 -0.0217615 8.09157e-22)
(1.02649 0.00192964 8.34345e-22)
(0.0114274 -0.00444804 0)
(0.0790047 -0.0238362 1.47479e-21)
(0.182818 -0.0340497 -1.19784e-21)
(0.308097 -0.0418551 0)
(0.44824 -0.0429147 -1.4793e-21)
(0.594175 -0.0390126 0)
(0.738264 -0.0308734 9.01164e-22)
(0.871932 -0.0197127 -7.01001e-22)
(0.992781 -0.00733216 -1.07938e-21)
(1.08032 0.00493132 -8.28759e-22)
(0.016649 -0.00740783 2.00754e-21)
(0.0952181 -0.0289195 0)
(0.210569 -0.0379857 1.05158e-21)
(0.346767 -0.0432235 1.22387e-22)
(0.496259 -0.0406742 2.97321e-21)
(0.648864 -0.0329425 0)
(0.796139 -0.0211861 -9.07373e-22)
(0.929077 -0.00772983 -1.40222e-21)
(1.04544 0.00733041 -9.35713e-22)
(1.12812 0.0136092 -1.3097e-23)
(0.0226003 -0.0103032 -2.12866e-21)
(0.113043 -0.0335745 1.01681e-22)
(0.24032 -0.0410101 1.48321e-22)
(0.387353 -0.0432092 -1.24117e-22)
(0.545556 -0.0366986 -1.49391e-21)
(0.703657 -0.024996 1.17471e-21)
(0.852489 -0.0097779 9.07369e-22)
(0.982988 0.00571915 7.01215e-22)
(1.09288 0.0223891 1.06506e-21)
(1.16914 0.025778 -9.24256e-22)
(0.0293003 -0.0130652 1.23502e-22)
(0.132468 -0.0376384 1.47506e-21)
(0.271971 -0.0429168 0)
(0.429613 -0.0416105 -8.5623e-22)
(0.595717 -0.0308455 -9.81999e-23)
(0.757988 -0.0151312 -1.17471e-21)
(0.906696 0.00327833 1.09066e-22)
(1.03311 0.0204683 6.05277e-22)
(1.1351 0.0377961 0)
(1.20382 0.0396603 8.30075e-22)
(0.0367601 -0.0156216 -1.32382e-22)
(0.153459 -0.0409467 -1.57874e-21)
(0.305383 -0.0435077 0)
(0.473259 -0.0382489 1.07238e-22)
(0.64629 -0.0230121 -9.92157e-23)
(0.811284 -0.00335804 0)
(0.958201 0.017863 -9.08488e-22)
(1.07901 0.036299 -6.9699e-22)
(1.17211 0.0534575 -1.25353e-22)
(1.23254 0.0543368 -1.05681e-22)
(0.0449817 -0.0178979 0)
(0.175953 -0.043336 -1.8261e-21)
(0.340375 -0.0425976 1.64826e-22)
(0.517954 -0.032975 -1.06309e-23)
(0.696793 -0.01314 -7.7243e-22)
(0.862991 0.0102639 -1.33013e-21)
(1.00652 0.0338176 1.02783e-21)
(1.12042 0.0529716 0)
(1.20399 0.0692543 0)
(1.25576 0.0692373 0)
(0.0539568 -0.0198176 7.2534e-24)
(0.19986 -0.0446471 1.53848e-21)
(0.376728 -0.0400186 1.67197e-22)
(0.563328 -0.0256731 1.1159e-21)
(0.746729 -0.00121644 6.71391e-22)
(0.912586 0.0256295 -1.42779e-22)
(1.05125 0.0509546 9.12696e-22)
(1.15717 0.0702455 -5.87631e-22)
(1.23091 0.0850524 -6.20934e-22)
(1.27399 0.0839898 4.8292e-22)
(0.0636659 -0.0213033 9.96948e-22)
(0.225063 -0.0447279 1.11198e-22)
(0.414187 -0.0356245 -1.32241e-21)
(0.608979 -0.016265 -1.01384e-21)
(0.795605 0.0127257 0)
(0.959597 0.0425949 1.18883e-21)
(1.09208 0.0690681 -6.90032e-24)
(1.18923 0.0878921 7.57233e-22)
(1.25312 0.100719 4.33523e-22)
(1.28779 0.0983626 -3.8111e-22)
(0.0740774 -0.0222779 -2.27617e-21)
(0.251416 -0.0434362 0)
(0.452463 -0.0292951 2.65914e-21)
(0.654485 -0.00471212 8.91595e-22)
(0.842942 0.0286106 1.024e-22)
(1.00361 0.0609858 0)
(1.12881 0.0879441 -8.94112e-22)
(1.21667 0.105704 6.56267e-22)
(1.27091 0.116133 4.78377e-22)
(1.29768 0.112222 -3.57399e-22)
(0.085147 -0.0226657 1.14677e-21)
(0.278747 -0.0406434 8.5738e-22)
(0.491239 -0.020939 -1.49765e-21)
(0.699415 0.00898341 1.34656e-22)
(0.888286 0.0463234 0)
(1.04429 0.0806058 0)
(1.16132 0.10737 0)
(1.23964 0.123499 -1.29869e-21)
(1.28464 0.131195 -4.78379e-22)
(1.30415 0.125501 3.57387e-22)
(0.0968175 -0.0223938 1.0381e-21)
(0.306855 -0.0362371 -8.46384e-22)
(0.530176 -0.0104967 8.75398e-23)
(0.743339 0.0247795 0)
(0.931227 0.0657158 7.8092e-22)
(1.08138 0.101245 5.13364e-22)
(1.18958 0.127141 5.80138e-23)
(1.25833 0.141123 -5.81472e-23)
(1.29466 0.145828 1.16197e-22)
(1.30766 0.138173 -4.54036e-23)
(0.109018 -0.0213938 -1.1759e-21)
(0.33552 -0.0301248 1.05489e-22)
(0.568919 0.00205724 6.76727e-22)
(0.785836 0.0425957 -1.91124e-22)
(0.9714 0.0866117 -5.85665e-22)
(1.11467 0.122688 -7.2789e-22)
(1.21363 0.147067 5.71966e-23)
(1.27301 0.158446 3.22252e-22)
(1.30133 0.159973 0)
(1.30861 0.150241 -3.63831e-23)
(0.121666 -0.0196034 -7.44944e-23)
(0.364499 -0.022236 0)
(0.607104 0.0167138 2.25156e-24)
(0.826509 0.0623159 0)
(1.00849 0.108814 7.70939e-22)
(1.14406 0.144718 -5.66112e-22)
(1.23357 0.166973 0)
(1.28395 0.175365 1.00285e-23)
(1.30502 0.17359 0)
(1.30738 0.161721 0)
(0.134664 -0.0169683 -1.45374e-22)
(0.393531 -0.0125253 9.38597e-22)
(0.644366 0.0334284 -7.67388e-22)
(0.864983 0.0837921 1.29252e-22)
(1.04225 0.13211 -3.50849e-22)
(1.16948 0.167125 -6.43492e-23)
(1.24956 0.186703 0)
(1.29144 0.191794 2.27539e-22)
(1.30605 0.186653 5.61925e-23)
(1.30426 0.172635 1.41228e-22)
(0.147906 -0.0134432 -6.01137e-22)
(0.422344 -0.000973956 -3.86269e-22)
(0.680344 0.052122 -1.25877e-22)
(0.900923 0.106848 5.16647e-22)
(1.07248 0.156279 4.47942e-23)
(1.19095 0.189707 5.54893e-22)
(1.26178 0.206119 0)
(1.29579 0.207669 -2.71029e-22)
(1.30474 0.199147 4.47939e-23)
(1.29953 0.183006 -3.11316e-22)
(0.161272 -0.00899426 -6.01137e-22)
(0.450657 0.0124083 3.86793e-22)
(0.714689 0.0726823 -4.01843e-24)
(0.934029 0.131286 -6.02454e-22)
(1.09904 0.181092 -3.25294e-22)
(1.20851 0.212274 -3.09133e-23)
(1.27043 0.225099 2.59611e-23)
(1.29726 0.222935 3.01359e-22)
(1.30135 0.211062 -4.47808e-24)
(1.29339 0.192854 1.00265e-22)
(0.174637 -0.00359982 -2.98459e-22)
(0.478183 0.0275825 0)
(0.747071 0.0949657 -3.37376e-22)
(0.964047 0.156885 0)
(1.12184 0.206325 -4.10156e-22)
(1.22226 0.234649 3.54101e-23)
(1.27574 0.243538 0)
(1.29613 0.237552 0)
(1.29615 0.222391 0)
(1.28605 0.202195 0)
(0.187866 0.00274792 2.62416e-22)
(0.504639 0.0444797 1.22714e-22)
(0.777182 0.1188 3.37376e-22)
(0.990765 0.183416 0)
(1.14084 0.231752 0)
(1.23232 0.256666 -1.42853e-23)
(1.27794 0.261344 5.39615e-23)
(1.29266 0.251484 5.70468e-23)
(1.28933 0.23313 4.75148e-23)
(1.27765 0.211037 -7.64197e-24)
(0.200819 0.010042 -4.5953e-24)
(0.529746 0.0630017 -1.1452e-22)
(0.804745 0.143987 5.40221e-24)
(1.01402 0.210634 6.97886e-24)
(1.15604 0.257156 -1.07716e-23)
(1.23885 0.278173 4.13103e-24)
(1.27725 0.278435 -4.65882e-23)
(1.28708 0.264702 -5.31596e-23)
(1.2811 0.243271 -3.63759e-23)
(1.26832 0.219382 9.62239e-25)
(0.213355 0.01826 0)
(0.553237 0.0830219 -1.11072e-22)
(0.829512 0.170308 -4.14887e-24)
(1.03369 0.238291 7.91349e-24)
(1.16749 0.282325 1.4935e-37)
(1.24201 0.299032 -1.03254e-37)
(1.2739 0.29474 -4.1159e-23)
(1.2796 0.277179 -4.49856e-23)
(1.27161 0.252805 -3.17221e-23)
(1.25818 0.227227 0)
(0.225331 0.0273635 3.14452e-22)
(0.574858 0.104386 9.07465e-23)
(0.851272 0.197523 3.29123e-22)
(1.04969 0.266135 -1.53711e-23)
(1.17525 0.307058 0)
(1.24198 0.319115 1.20293e-23)
(1.26811 0.310194 2.67506e-23)
(1.27041 0.288889 4.86073e-23)
(1.26101 0.26172 2.51373e-23)
(1.24731 0.234564 5.54787e-24)
(0.236607 0.037298 -2.80071e-22)
(0.594378 0.126916 0)
(0.869849 0.225381 -3.10756e-22)
(1.06199 0.293915 0)
(1.17945 0.331163 -3.37152e-23)
(1.23896 0.338304 2.82775e-23)
(1.26008 0.324741 0)
(1.25969 0.299809 0)
(1.24941 0.269999 0)
(1.23579 0.241378 0)
(0.247044 0.0479932 5.25434e-22)
(0.611585 0.150411 -3.3771e-22)
(0.885108 0.253616 -7.29705e-23)
(1.07059 0.321382 -3.25474e-22)
(1.18019 0.354458 -3.09591e-22)
(1.23314 0.356493 2.04e-23)
(1.25 0.338327 -1.71321e-23)
(1.24759 0.309913 1.2047e-22)
(1.23692 0.277624 3.95869e-24)
(1.22368 0.247647 5.80443e-23)
(0.256515 0.0593633 -5.25435e-22)
(0.626296 0.174648 -3.97623e-22)
(0.89695 0.281958 1.02008e-22)
(1.07553 0.348295 3.90846e-22)
(1.17763 0.376774 -1.61167e-23)
(1.2247 0.373583 3.17176e-22)
(1.23807 0.350902 0)
(1.23425 0.319174 -1.36439e-22)
(1.22364 0.284575 -1.50768e-23)
(1.21101 0.253342 -6.35834e-23)
(0.264899 0.0713082 1.1931e-22)
(0.638356 0.19939 6.88701e-22)
(0.905316 0.310131 -4.55535e-22)
(1.07687 0.374416 -9.1743e-23)
(1.17194 0.39795 -2.23067e-22)
(1.21385 0.389483 4.04908e-23)
(1.22444 0.36242 -2.72968e-23)
(1.21979 0.327562 1.15039e-22)
(1.20967 0.290844 -1.83556e-23)
(1.19782 0.258433 3.16623e-23)
(0.272085 0.0837145 5.82234e-23)
(0.647641 0.224387 0)
(0.910183 0.33786 3.4851e-23)
(1.07471 0.39952 0)
(1.16328 0.417837 4.54174e-22)
(1.20078 0.404111 -2.81062e-22)
(1.20928 0.372836 0)
(1.20432 0.335036 -2.27697e-23)
(1.19509 0.296409 0)
(1.18422 0.262882 0)
(0.277978 0.0964568 -8.40763e-22)
(0.654059 0.249377 -7.49306e-23)
(0.911565 0.364873 5.44187e-22)
(1.06918 0.423391 6.72319e-23)
(1.15184 0.436298 -4.5252e-22)
(1.18566 0.417391 -1.45371e-22)
(1.19275 0.382113 -1.95735e-23)
(1.18798 0.34157 3.45205e-23)
(1.17991 0.30122 -9.20054e-24)
(1.17027 0.266696 -1.32735e-24)
(0.282496 0.1094 9.35823e-22)
(0.657552 0.274094 -5.7819e-22)
(0.909511 0.390901 -1.52142e-22)
(1.06041 0.445824 7.90166e-23)
(1.13781 0.453206 3.55304e-22)
(1.16869 0.429251 2.2139e-22)
(1.17498 0.390206 -1.5459e-23)
(1.17086 0.347147 -4.29768e-23)
(1.16419 0.305248 -2.76893e-24)
(1.15599 0.269833 -1.38932e-24)
(0.285575 0.122399 7.00114e-22)
(0.658095 0.298268 5.67409e-22)
(0.904102 0.415686 -6.30372e-22)
(1.04859 0.466628 -7.01594e-23)
(1.1214 0.468445 0)
(1.15005 0.439627 0)
(1.15614 0.397074 0)
(1.15306 0.351736 -4.22673e-23)
(1.14801 0.30847 4.71515e-23)
(1.14143 0.272259 -7.44179e-23)
(0.287168 0.135306 -1.32147e-21)
(0.655695 0.32163 0)
(0.895452 0.43898 1.33312e-21)
(1.0339 0.485625 3.64961e-22)
(1.1028 0.48191 0)
(1.12992 0.448463 0)
(1.13633 0.402681 -1.56691e-23)
(1.13464 0.355307 -3.57414e-24)
(1.13143 0.31086 -4.71519e-23)
(1.12662 0.273941 7.44149e-23)
(0.287245 0.147965 6.89687e-22)
(0.650394 0.343915 -5.73686e-23)
(0.883711 0.460551 -6.18908e-22)
(1.01652 0.50265 -3.9753e-22)
(1.08222 0.493504 2.7281e-23)
(1.10847 0.455705 5.4722e-23)
(1.11569 0.406993 6.88422e-23)
(1.1157 0.357834 -9.27994e-23)
(1.1145 0.312391 -1.34382e-22)
(1.11159 0.274848 1.3239e-22)
(0.285797 0.160222 -3.5809e-24)
(0.642269 0.364864 6.92447e-22)
(0.869053 0.480184 -6.76665e-23)
(0.996654 0.517549 1.80935e-22)
(1.05987 0.503141 6.87599e-23)
(1.08587 0.461306 -8.87708e-23)
(1.09435 0.40998 -6.34511e-23)
(1.09633 0.359291 1.17988e-22)
(1.09726 0.31304 -1.63315e-22)
(1.09639 0.274948 -9.91152e-23)
(0.282837 0.171922 0)
(0.631434 0.384233 -5.95968e-22)
(0.851628 0.49766 -5.38533e-23)
(0.97455 0.530206 -8.48412e-23)
(1.03596 0.510745 -6.26561e-23)
(1.06229 0.465225 2.24847e-23)
(1.07242 0.411617 -2.03457e-22)
(1.0766 0.359655 0)
(1.07978 0.312785 0)
(1.08106 0.274212 0)
(0.278392 0.182909 3.83479e-23)
(0.618023 0.401799 -3.80468e-22)
(0.831625 0.512776 0)
(0.95046 0.540501 -8.99261e-23)
(1.01071 0.516259 2.17261e-24)
(1.03789 0.467429 0)
(1.05003 0.411879 1.94283e-22)
(1.0566 0.35891 2.62893e-22)
(1.0621 0.31161 -5.81065e-23)
(1.06563 0.272609 4.89233e-23)
(0.272497 0.193023 -2.44636e-23)
(0.602191 0.41735 4.01006e-22)
(0.809306 0.525386 0)
(0.92461 0.548322 -2.37152e-23)
(0.984306 0.519632 -6.63441e-24)
(1.01283 0.46789 3.30696e-22)
(1.02729 0.410748 4.02406e-23)
(1.03641 0.35704 -2.96734e-22)
(1.04426 0.3095 0)
(1.05014 0.270105 -4.97826e-22)
(0.265221 0.202115 -8.92989e-23)
(0.584113 0.430671 -1.03583e-23)
(0.784926 0.535351 6.8254e-24)
(0.89724 0.553584 -5.7118e-24)
(0.956971 0.520824 4.03685e-22)
(0.987283 0.466588 -3.30698e-22)
(1.00433 0.408209 -4.10424e-22)
(1.01613 0.354036 -3.68999e-22)
(1.02632 0.306444 -6.42225e-22)
(1.0346 0.266665 4.34897e-22)
(0.256664 0.210065 1.01637e-22)
(0.563988 0.441578 0)
(0.758736 0.54254 -2.00358e-22)
(0.868597 0.55622 1.79024e-23)
(0.928908 0.519804 -9.43126e-22)
(0.961396 0.463508 0)
(0.98127 0.404254 4.10427e-22)
(0.995843 0.349893 -5.284e-23)
(1.00832 0.30243 7.28055e-22)
(1.01909 0.262246 -7.22514e-23)
(0.246921 0.216749 0)
(0.542046 0.449918 -2.39235e-22)
(0.731002 0.546848 1.78966e-22)
(0.838933 0.556181 0)
(0.900323 0.516555 5.39442e-22)
(0.935327 0.458643 0)
(0.958217 0.398878 -5.54114e-22)
(0.975631 0.344612 4.21845e-22)
(0.990341 0.29745 7.99335e-22)
(1.00374 0.2568 6.60783e-22)
(0.236105 0.222055 5.1561e-23)
(0.518531 0.45556 1.95949e-22)
(0.701997 0.548191 0)
(0.808501 0.553433 0)
(0.871417 0.511068 0)
(0.909229 0.451994 8.60528e-23)
(0.935291 0.392085 4.07816e-22)
(0.955589 0.338203 6.2256e-23)
(0.972525 0.291532 -7.99339e-22)
(0.988648 0.250453 -7.43614e-22)
(0.224341 0.225886 0)
(0.493698 0.458394 5.64549e-22)
(0.672002 0.546513 0)
(0.777551 0.547961 0)
(0.84239 0.503347 0)
(0.883252 0.443569 -9.7417e-23)
(0.912605 0.383881 8.58818e-22)
(0.935826 0.330667 -2.05962e-22)
(0.955157 0.284762 -7.22305e-22)
(0.973806 0.243225 -7.59124e-22)
(0.211769 0.228157 0)
(0.467816 0.458338 -5.64551e-22)
(0.6413 0.541776 6.8201e-22)
(0.746334 0.539765 0)
(0.813437 0.493409 1.07679e-21)
(0.857542 0.433385 0)
(0.890266 0.374276 -6.94724e-22)
(0.916466 0.321982 6.26738e-22)
(0.938394 0.277124 9.49086e-22)
(0.959585 0.236685 7.60559e-22)
(0.198538 0.228803 -1.21501e-21)
(0.441157 0.455332 0)
(0.610175 0.533969 -5.86717e-22)
(0.715096 0.528862 -7.97491e-23)
(0.784749 0.48128 -2.28313e-21)
(0.832241 0.421464 0)
(0.868379 0.363287 8.29826e-22)
(0.897566 0.312163 4.83275e-23)
(0.922065 0.268501 9.63198e-22)
(0.945324 0.229549 9.51475e-25)
(0.184805 0.227773 1.29283e-21)
(0.414003 0.449347 -6.53293e-23)
(0.578913 0.523101 -1.09697e-22)
(0.684078 0.515288 -9.17998e-23)
(0.756512 0.466999 1.20635e-21)
(0.807488 0.40784 -1.09903e-21)
(0.847051 0.350939 -8.2983e-22)
(0.879205 0.301236 -6.75072e-22)
(0.906236 0.258937 -1.09188e-21)
(0.931393 0.221576 1.03118e-21)
(0.170733 0.225035 -9.04924e-23)
(0.386635 0.440378 -1.12977e-21)
(0.547792 0.509207 0)
(0.653516 0.499093 7.68712e-22)
(0.728906 0.450616 8.70732e-23)
(0.783419 0.392553 1.09904e-21)
(0.826385 0.337261 -1.13398e-22)
(0.861465 0.289225 -6.71497e-22)
(0.890979 0.248471 0)
(0.917945 0.212781 -9.18036e-22)
(0.156489 0.220576 1.09395e-22)
(0.359334 0.428446 1.20574e-21)
(0.517089 0.492341 0)
(0.623639 0.480343 -3.12166e-23)
(0.702105 0.432191 9.52728e-23)
(0.760163 0.375651 0)
(0.80648 0.32229 1.01696e-21)
(0.844424 0.276156 7.66859e-22)
(0.876355 0.237125 1.52358e-22)
(0.905057 0.203201 -1.28325e-22)
(0.142242 0.214398 0)
(0.332379 0.413601 1.68529e-21)
(0.487073 0.472581 -1.50959e-22)
(0.594667 0.459122 7.91092e-23)
(0.676277 0.411797 8.42839e-22)
(0.737845 0.357193 1.51004e-21)
(0.787433 0.306069 -1.15136e-21)
(0.828157 0.262061 0)
(0.862422 0.224924 0)
(0.892798 0.192859 0)
(0.12816 0.206525 -7.9921e-24)
(0.306043 0.395915 -1.41323e-21)
(0.458002 0.450025 1.65296e-22)
(0.566811 0.435526 -1.1664e-21)
(0.651581 0.389516 -7.32169e-22)
(0.716586 0.337242 2.44862e-22)
(0.769336 0.288649 -1.13628e-21)
(0.812735 0.24698 7.77141e-22)
(0.849235 0.211899 8.67409e-22)
(0.881221 0.18178 -6.90221e-22)
(0.114409 0.196996 -1.075e-21)
(0.280591 0.375488 -1.15323e-22)
(0.430125 0.424791 1.47784e-21)
(0.540273 0.409668 1.18051e-21)
(0.628167 0.365441 0)
(0.696498 0.315873 -1.42579e-21)
(0.752275 0.270087 -5.07055e-23)
(0.798224 0.230959 -9.99705e-22)
(0.836846 0.198088 -6.08381e-22)
(0.870373 0.17 5.50079e-22)
(0.101153 0.185871 2.50985e-21)
(0.256275 0.352443 0)
(0.403679 0.397017 -3.04908e-21)
(0.515242 0.381673 -1.03194e-21)
(0.606178 0.339676 -1.24463e-22)
(0.677689 0.293166 0)
(0.736331 0.250447 1.17882e-21)
(0.784687 0.21405 -9.59685e-22)
(0.825305 0.183531 -7.51488e-22)
(0.860293 0.157558 5.8766e-22)
(0.0885457 0.173223 -1.29749e-21)
(0.233338 0.326925 -1.00973e-21)
(0.378886 0.366859 1.76808e-21)
(0.491894 0.351681 -1.64721e-22)
(0.585747 0.312332 0)
(0.660257 0.26921 0)
(0.721582 0.2298 0)
(0.772184 0.19631 1.95035e-21)
(0.814658 0.168277 7.5149e-22)
(0.851016 0.144498 -5.8766e-22)
(0.0767368 0.159144 -1.28237e-21)
(0.212005 0.299101 9.98529e-22)
(0.355952 0.33449 1.0739e-22)
(0.470395 0.319842 0)
(0.566996 0.283532 -1.07623e-21)
(0.644295 0.244101 -7.4002e-22)
(0.708098 0.208221 -8.38806e-23)
(0.760769 0.177802 1.4943e-22)
(0.804947 0.152377 -1.96804e-22)
(0.842575 0.13087 7.97168e-23)
(0.0658642 0.143741 1.44867e-21)
(0.192485 0.269157 -1.34387e-22)
(0.335068 0.300098 -1.12359e-21)
(0.450894 0.28632 2.58877e-22)
(0.550037 0.253405 8.02497e-22)
(0.629887 0.217942 1.05377e-21)
(0.695943 0.185794 -8.64407e-23)
(0.750492 0.158593 -4.96831e-22)
(0.796211 0.135888 0)
(0.834998 0.116724 7.60701e-23)
(0.0560554 0.127134 9.65179e-23)
(0.174971 0.237298 0)
(0.316406 0.263887 -3.11538e-23)
(0.433526 0.251287 0)
(0.534972 0.222089 -1.14243e-21)
(0.617109 0.190841 8.86493e-22)
(0.685177 0.162606 0)
(0.741397 0.138755 1.10015e-23)
(0.788487 0.118871 0)
(0.828311 0.102116 0)
(0.0474249 0.109457 1.93778e-22)
(0.159631 0.203745 -1.2674e-21)
(0.300118 0.226071 1.04958e-21)
(0.418412 0.214926 -1.85555e-22)
(0.521889 0.189727 4.93544e-22)
(0.606029 0.162912 1.35552e-22)
(0.675849 0.138747 0)
(0.733525 0.118365 -4.03393e-22)
(0.781805 0.101388 -1.09084e-22)
(0.822535 0.0871034 -3.27088e-22)
(0.0400735 0.090854 8.30448e-22)
(0.146614 0.168734 -1.87188e-21)
(0.286338 0.18688 1.79573e-22)
(0.405656 0.177426 -7.70058e-22)
(0.510867 0.15647 -8.75834e-23)
(0.596704 0.134273 -9.05111e-22)
(0.668007 0.114316 0)
(0.726911 0.0975002 5.50094e-22)
(0.776193 0.0835063 -1.02091e-22)
(0.817691 0.0717441 7.4426e-22)
(0.0340869 0.0714798 -8.30448e-22)
(0.136047 0.132512 6.84909e-22)
(0.275178 0.146548 -1.2324e-22)
(0.395344 0.138985 9.0642e-22)
(0.50197 0.122474 5.17389e-22)
(0.589185 0.105049 5.57648e-23)
(0.661687 0.0894094 -4.68317e-23)
(0.721584 0.0762442 -6.16677e-22)
(0.771675 0.065295 4.43187e-24)
(0.813796 0.0560994 -2.47518e-22)
(0.029535 0.0514972 4.28977e-22)
(0.128032 0.0953388 0)
(0.266728 0.105322 5.06696e-22)
(0.387549 0.0998061 0)
(0.495252 0.0878985 7.30857e-23)
(0.583511 0.0753656 -6.12989e-23)
(0.65692 0.0641314 0)
(0.717568 0.0546811 0)
(0.76827 0.0468253 0)
(0.810862 0.0402314 0)
(0.0264706 0.0310753 -3.76667e-22)
(0.122645 0.0574793 -1.3733e-22)
(0.261056 0.0634519 -5.06697e-22)
(0.382322 0.0600968 0)
(0.49075 0.0529064 0)
(0.579711 0.045352 2.83823e-23)
(0.653729 0.0385862 -1.15061e-22)
(0.714881 0.0328973 -1.40783e-22)
(0.765992 0.0281698 -1.35124e-22)
(0.808901 0.0242031 2.20522e-23)
(0.0249294 0.010388 -6.7751e-24)
(0.119939 0.0192059 1.48855e-22)
(0.258209 0.0211939 -7.25277e-24)
(0.3797 0.0200678 2.4843e-23)
(0.488493 0.0176634 -1.00039e-23)
(0.577806 0.0151395 0)
(0.652129 0.01288 9.12255e-23)
(0.713534 0.0109806 1.40783e-22)
(0.76485 0.00940239 1.02376e-22)
(0.807919 0.00807845 1.57241e-23)
(0.0249294 -0.010388 -6.7751e-24)
(0.119939 -0.0192059 1.48855e-22)
(0.258209 -0.0211939 -7.25277e-24)
(0.3797 -0.0200678 2.4843e-23)
(0.488493 -0.0176634 -1.00039e-23)
(0.577806 -0.0151395 0)
(0.652129 -0.01288 8.02482e-23)
(0.713534 -0.0109806 1.50014e-22)
(0.76485 -0.00940238 1.0894e-22)
(0.807919 -0.00807845 0)
(0.0264706 -0.0310753 -4.81288e-22)
(0.122645 -0.0574793 -1.79904e-22)
(0.261056 -0.0634519 -5.37384e-22)
(0.382322 -0.0600968 2.5681e-23)
(0.49075 -0.0529064 0)
(0.579711 -0.045352 -2.83823e-23)
(0.653729 -0.0385862 -6.73897e-23)
(0.714881 -0.0328973 -1.40783e-22)
(0.765992 -0.0281698 -8.27571e-23)
(0.808901 -0.0242031 -2.20522e-23)
(0.029535 -0.0514972 4.28977e-22)
(0.128032 -0.0953388 0)
(0.266728 -0.105322 5.06696e-22)
(0.387549 -0.0998061 0)
(0.495252 -0.0878985 7.30857e-23)
(0.583511 -0.0753656 -6.12989e-23)
(0.65692 -0.0641314 0)
(0.717568 -0.0546811 0)
(0.76827 -0.0468253 0)
(0.810862 -0.0402314 0)
(0.0340869 -0.0714798 -8.30448e-22)
(0.136047 -0.132512 5.33515e-22)
(0.275178 -0.146548 1.2324e-22)
(0.395344 -0.138985 6.19893e-22)
(0.50197 -0.122474 6.73382e-22)
(0.589185 -0.105049 -5.57648e-23)
(0.661687 -0.0894094 4.68317e-23)
(0.721584 -0.0762442 -4.83512e-22)
(0.771675 -0.065295 -4.43187e-24)
(0.813796 -0.0560994 -4.14857e-22)
(0.0400735 -0.090854 8.30448e-22)
(0.146614 -0.168734 6.53454e-22)
(0.286338 -0.18688 -1.79573e-22)
(0.405656 -0.177426 -7.56253e-22)
(0.510867 -0.15647 6.57226e-23)
(0.596704 -0.134273 -9.05111e-22)
(0.668007 -0.114316 0)
(0.726911 -0.0975002 5.50094e-22)
(0.776193 -0.0835063 1.02091e-22)
(0.817691 -0.0717441 5.72292e-22)
(0.0474249 -0.109457 -1.93778e-22)
(0.159631 -0.203745 1.2674e-21)
(0.300118 -0.226071 8.2005e-22)
(0.418412 -0.214926 1.85555e-22)
(0.521889 -0.189727 6.22414e-22)
(0.606029 -0.162912 -2.06295e-22)
(0.675849 -0.138747 9.06759e-23)
(0.733525 -0.118365 -6.62501e-22)
(0.781805 -0.101388 1.09084e-22)
(0.822535 -0.0871034 -3.27088e-22)
(0.0560554 -0.127134 -9.65179e-23)
(0.174971 -0.237298 0)
(0.316406 -0.263887 -3.11538e-23)
(0.433526 -0.251287 0)
(0.534972 -0.222089 -1.14243e-21)
(0.617109 -0.190841 8.86493e-22)
(0.685177 -0.162606 0)
(0.741397 -0.138755 1.10015e-23)
(0.788487 -0.118871 0)
(0.828311 -0.102116 0)
(0.0658642 -0.143741 1.44867e-21)
(0.192485 -0.269157 1.34387e-22)
(0.335068 -0.300098 -7.91271e-22)
(0.450894 -0.28632 -1.68871e-22)
(0.550037 -0.253405 1.34998e-21)
(0.629887 -0.217942 6.26032e-22)
(0.695943 -0.185794 8.64407e-23)
(0.750492 -0.158593 -6.21259e-22)
(0.796211 -0.135888 1.04768e-22)
(0.834998 -0.116724 -7.60701e-23)
(0.0767368 -0.159144 -1.61496e-21)
(0.212005 -0.299101 1.02093e-21)
(0.355952 -0.33449 9.90346e-23)
(0.470395 -0.319842 -1.72748e-22)
(0.566996 -0.283532 -1.07623e-21)
(0.644295 -0.244101 -9.39781e-22)
(0.708098 -0.208221 8.38806e-23)
(0.760769 -0.177802 -9.32185e-23)
(0.804947 -0.152377 1.96804e-22)
(0.842575 -0.13087 -7.97168e-23)
(0.0885457 -0.173223 -1.29749e-21)
(0.233338 -0.326925 -1.00973e-21)
(0.378886 -0.366859 1.37441e-21)
(0.491894 -0.351681 1.64721e-22)
(0.585747 -0.312332 0)
(0.660257 -0.26921 0)
(0.721582 -0.2298 0)
(0.772184 -0.19631 1.95035e-21)
(0.814658 -0.168277 7.5149e-22)
(0.851016 -0.144498 -5.8766e-22)
(0.101153 -0.185871 2.50985e-21)
(0.256275 -0.352443 0)
(0.403679 -0.397017 -3.04908e-21)
(0.515242 -0.381673 -1.18051e-21)
(0.606178 -0.339676 0)
(0.677689 -0.293166 0)
(0.736331 -0.250447 1.17882e-21)
(0.784687 -0.21405 -9.59685e-22)
(0.825305 -0.183531 -7.51488e-22)
(0.860293 -0.157558 5.8766e-22)
(0.114409 -0.196996 -1.34973e-21)
(0.280591 -0.375488 1.15323e-22)
(0.430125 -0.424791 1.47784e-21)
(0.540273 -0.409668 1.32112e-21)
(0.628167 -0.365441 -1.1779e-22)
(0.696498 -0.315873 -1.42579e-21)
(0.752275 -0.270087 -5.07054e-23)
(0.798224 -0.230959 -7.79656e-22)
(0.836846 -0.198088 -7.93663e-22)
(0.870373 -0.17 5.50079e-22)
(0.12816 -0.206525 7.9921e-24)
(0.306043 -0.395915 -1.59633e-21)
(0.458002 -0.450025 -1.65296e-22)
(0.566811 -0.435526 -9.02175e-22)
(0.651581 -0.389516 -7.4092e-22)
(0.716586 -0.337242 -2.71619e-22)
(0.769336 -0.288649 -1.11993e-21)
(0.812735 -0.24698 1.00221e-21)
(0.849235 -0.211899 5.34629e-22)
(0.881221 -0.18178 -4.09938e-22)
(0.142242 -0.214398 0)
(0.332379 -0.413601 1.32427e-21)
(0.487073 -0.472581 1.50959e-22)
(0.594667 -0.459122 7.91092e-23)
(0.676277 -0.411797 8.42839e-22)
(0.737845 -0.357193 1.18997e-21)
(0.787433 -0.306069 -1.00993e-21)
(0.828157 -0.262061 1.07094e-22)
(0.862422 -0.224924 0)
(0.892798 -0.192859 0)