/*--------------------------------*- C++ -*----------------------------------*\
  =========                 |
  \\      /  F ield         | OpenFOAM: The Open Source CFD Toolbox
   \\    /   O peration     | Website:  https://openfoam.org
    \\  /    A nd           | Version:  7
     \\/     M anipulation  |
\*---------------------------------------------------------------------------*/
FoamFile
{
    version     2.0;
    format      ascii;
    class       volScalarField;
    location    "1.7";
    object      rho;
}
// * * * * * * * * * * * * * * * * * * * * * * * * * * * * * * * * * * * * * //

dimensions      [1 -3 0 0 0 0 0];

internalField   nonuniform List<scalar> 
64512
(
1.40001
1.40001
1.40001
1.40001
1.40001
1.40001
1.40001
1.40001
1.40001
1.40001
1.40001
1.40001
1.40001
1.40001
1.40001
1.40001
1.40001
1.40001
1.40001
1.40001
1.40001
1.40001
1.40001
1.40001
1.40001
1.40001
1.40001
1.40001
1.40001
1.40001
1.40001
1.40001
1.40001
1.40001
1.40001
1.40001
1.40001
1.40001
1.40001
1.40001
1.40001
1.40001
1.40001
1.40001
1.40001
1.40001
1.40001
1.40001
1.40001
1.40001
1.94721
4.79914
5.42816
5.43611
5.46675
5.49335
5.52286
5.54982
5.57301
5.59094
5.6053
5.61975
5.6364
5.65506
5.6746
5.69416
5.71285
5.72926
5.74294
5.75417
5.76347
5.77273
5.78476
5.80156
5.8202
5.83704
5.85299
5.86743
5.88163
5.89494
5.90511
5.91201
5.91596
5.91822
5.92064
5.92477
5.93069
5.93796
5.94501
5.94873
5.94513
5.93029
5.90228
5.86832
5.8425
5.83334
1.40001
1.40001
1.40001
1.40001
1.40001
1.40001
1.40001
1.40001
1.40001
1.40001
1.40001
1.40001
1.40001
1.40001
1.40001
1.40001
1.40001
1.40001
1.40001
1.40001
1.40001
1.40001
1.40001
1.40001
1.40001
1.40001
1.40001
1.40001
1.40001
1.40001
1.40001
1.40001
1.40001
1.40001
1.40001
1.40001
1.40001
1.40001
1.40001
1.40001
1.40001
1.40001
1.40001
1.40001
1.40001
1.40001
1.40001
1.40001
1.40001
1.40001
1.93692
4.78483
5.42478
5.43762
5.46694
5.49422
5.52351
5.54965
5.57213
5.59006
5.6049
5.61979
5.63663
5.65526
5.67453
5.69364
5.71204
5.72844
5.74225
5.75346
5.76256
5.77147
5.78303
5.79951
5.81823
5.83535
5.8517
5.86654
5.88091
5.89415
5.90416
5.9109
5.91483
5.91725
5.91999
5.92438
5.93044
5.93771
5.94462
5.94812
5.94427
5.9291
5.90077
5.86659
5.84081
5.83141
1.40001
1.40001
1.40001
1.40001
1.40001
1.40001
1.40001
1.40001
1.40001
1.40001
1.40001
1.40001
1.40001
1.40001
1.40001
1.40001
1.40001
1.40001
1.40001
1.40001
1.40001
1.40001
1.40001
1.40001
1.40001
1.40001
1.40001
1.40001
1.40001
1.40001
1.40001
1.40001
1.40001
1.40001
1.40001
1.40001
1.40001
1.40001
1.40001
1.40001
1.40001
1.40001
1.40001
1.40001
1.40001
1.40001
1.40001
1.40001
1.40001
1.40001
1.91266
4.76263
5.42361
5.43587
5.46578
5.49427
5.52355
5.54899
5.5709
5.58878
5.60382
5.61903
5.63616
5.65502
5.67425
5.69301
5.71104
5.72724
5.74101
5.75216
5.76106
5.76965
5.78073
5.79677
5.81532
5.83251
5.84937
5.86498
5.87985
5.89312
5.90279
5.90895
5.91265
5.91543
5.91884
5.92376
5.93009
5.93734
5.94384
5.94678
5.94237
5.92658
5.89782
5.86361
5.83831
5.82898
1.40001
1.40001
1.40001
1.40001
1.40001
1.40001
1.40001
1.40001
1.40001
1.40001
1.40001
1.40001
1.40001
1.40001
1.40001
1.40001
1.40001
1.40001
1.40001
1.40001
1.40001
1.40001
1.40001
1.40001
1.40001
1.40001
1.40001
1.40001
1.40001
1.40001
1.40001
1.40001
1.40001
1.40001
1.40001
1.40001
1.40001
1.40001
1.40001
1.40001
1.40001
1.40001
1.40001
1.40001
1.40001
1.40001
1.40001
1.40001
1.40001
1.40001
1.87351
4.73296
5.42375
5.43571
5.46565
5.4949
5.52369
5.54871
5.57012
5.58755
5.60234
5.61759
5.63481
5.65382
5.67313
5.69183
5.70963
5.72554
5.73908
5.75004
5.75866
5.76694
5.77755
5.79312
5.81141
5.82865
5.84606
5.86256
5.87814
5.89156
5.90087
5.9063
5.90964
5.91281
5.91706
5.92272
5.92942
5.93658
5.94254
5.94479
5.93967
5.92309
5.8937
5.8593
5.83426
5.82482
1.40001
1.40001
1.40001
1.40001
1.40001
1.40001
1.40001
1.40001
1.40001
1.40001
1.40001
1.40001
1.40001
1.40001
1.40001
1.40001
1.40001
1.40001
1.40001
1.40001
1.40001
1.40001
1.40001
1.40001
1.40001
1.40001
1.40001
1.40001
1.40001
1.40001
1.40001
1.40001
1.40001
1.40001
1.40001
1.40001
1.40001
1.40001
1.40001
1.40001
1.40001
1.40001
1.40001
1.40001
1.40001
1.40001
1.40001
1.40001
1.40001
1.40001
1.81904
4.68939
5.42418
5.43569
5.46447
5.49341
5.52229
5.54773
5.5695
5.58649
5.6012
5.61635
5.63323
5.65195
5.67111
5.68983
5.70759
5.72331
5.73653
5.74725
5.75564
5.76378
5.77404
5.78917
5.80703
5.82423
5.84206
5.85946
5.87596
5.88966
5.8986
5.9032
5.906
5.90943
5.91455
5.92112
5.92831
5.93533
5.94063
5.9421
5.93618
5.91877
5.88871
5.85399
5.82898
5.81928
1.40001
1.40001
1.40001
1.40001
1.40001
1.40001
1.40001
1.40001
1.40001
1.40001
1.40001
1.40001
1.40001
1.40001
1.40001
1.40001
1.40001
1.40001
1.40001
1.40001
1.40001
1.40001
1.40001
1.40001
1.40001
1.40001
1.40001
1.40001
1.40001
1.40001
1.40001
1.40001
1.40001
1.40001
1.40001
1.40001
1.40001
1.40001
1.40001
1.40001
1.40001
1.40001
1.40001
1.40001
1.40001
1.40001
1.40001
1.40001
1.40001
1.40001
1.75605
4.62566
5.42143
5.43633
5.46469
5.4922
5.52057
5.54657
5.56803
5.58499
5.60005
5.61507
5.63137
5.64937
5.668
5.68665
5.7045
5.72024
5.73333
5.744
5.75231
5.76044
5.77036
5.78494
5.80222
5.81928
5.83742
5.85563
5.87304
5.88707
5.89569
5.89951
5.9017
5.90521
5.91111
5.91867
5.92648
5.93344
5.93808
5.93871
5.93195
5.91378
5.88308
5.84789
5.82257
5.81251
1.40001
1.40001
1.40001
1.40001
1.40001
1.40001
1.40001
1.40001
1.40001
1.40001
1.40001
1.40001
1.40001
1.40001
1.40001
1.40001
1.40001
1.40001
1.40001
1.40001
1.40001
1.40001
1.40001
1.40001
1.40001
1.40001
1.40001
1.40001
1.40001
1.40001
1.40001
1.40001
1.40001
1.40001
1.40001
1.40001
1.40001
1.40001
1.40001
1.40001
1.40001
1.40001
1.40001
1.40001
1.40001
1.40001
1.40001
1.40001
1.40001
1.40001
1.69107
4.54088
5.41405
5.44084
5.46587
5.49243
5.51911
5.54374
5.56482
5.58248
5.59822
5.61335
5.62924
5.6466
5.66454
5.68272
5.70033
5.71602
5.72912
5.74012
5.74877
5.75704
5.76657
5.7804
5.79693
5.81385
5.83231
5.85128
5.86956
5.88387
5.8922
5.89533
5.89696
5.90041
5.90692
5.91544
5.92395
5.93091
5.93494
5.93465
5.92699
5.90814
5.87676
5.84099
5.81516
5.80478
1.40001
1.40001
1.40001
1.40001
1.40001
1.40001
1.40001
1.40001
1.40001
1.40001
1.40001
1.40001
1.40001
1.40001
1.40001
1.40001
1.40001
1.40001
1.40001
1.40001
1.40001
1.40001
1.40001
1.40001
1.40001
1.40001
1.40001
1.40001
1.40001
1.40001
1.40001
1.40001
1.40001
1.40001
1.40001
1.40001
1.40001
1.40001
1.40001
1.40001
1.40001
1.40001
1.40001
1.40001
1.40001
1.40001
1.40001
1.40001
1.40001
1.40001
1.62484
4.44084
5.41281
5.44221
5.46715
5.49165
5.51678
5.54047
5.56135
5.57955
5.59593
5.61121
5.62661
5.64307
5.6601
5.67774
5.69506
5.71068
5.72412
5.73585
5.74516
5.75363
5.76264
5.7754
5.79104
5.80795
5.82687
5.84662
5.86566
5.88008
5.88801
5.89048
5.89155
5.89484
5.90179
5.91117
5.92042
5.92747
5.93117
5.92995
5.92123
5.90173
5.86971
5.83338
5.80707
5.79656
1.40001
1.40001
1.40001
1.40001
1.40001
1.40001
1.40001
1.40001
1.40001
1.40001
1.40001
1.40001
1.40001
1.40001
1.40001
1.40001
1.40001
1.40001
1.40001
1.40001
1.40001
1.40001
1.40001
1.40001
1.40001
1.40001
1.40001
1.40001
1.40001
1.40001
1.40001
1.40001
1.40001
1.40001
1.40001
1.40001
1.40001
1.40001
1.40001
1.40001
1.40001
1.40001
1.40001
1.40001
1.40001
1.40001
1.40001
1.40001
1.40001
1.40001
1.55484
4.32578
5.41524
5.44074
5.46278
5.48765
5.51355
5.53735
5.55816
5.57635
5.59278
5.60803
5.62318
5.63893
5.65509
5.67211
5.68893
5.7043
5.71814
5.73084
5.74109
5.74986
5.75829
5.76976
5.7845
5.80159
5.82126
5.84186
5.86135
5.87562
5.88291
5.88467
5.88529
5.88848
5.89579
5.90593
5.91589
5.92318
5.92663
5.92449
5.91468
5.89435
5.86172
5.82501
5.79845
5.78806
1.40001
1.40001
1.40001
1.40001
1.40001
1.40001
1.40001
1.40001
1.40001
1.40001
1.40001
1.40001
1.40001
1.40001
1.40001
1.40001
1.40001
1.40001
1.40001
1.40001
1.40001
1.40001
1.40001
1.40001
1.40001
1.40001
1.40001
1.40001
1.40001
1.40001
1.40001
1.40001
1.40001
1.40001
1.40001
1.40001
1.40001
1.40001
1.40001
1.40001
1.40001
1.40001
1.40001
1.40001
1.40001
1.40001
1.40001
1.40001
1.40001
1.40001
1.46296
4.18196
5.43334
5.44014
5.45756
5.47999
5.5044
5.52849
5.55098
5.57123
5.5895
5.60569
5.62055
5.63504
5.64978
5.66574
5.682
5.69737
5.71187
5.72575
5.73703
5.74604
5.75375
5.76372
5.77765
5.79499
5.81542
5.83674
5.85628
5.87012
5.87668
5.87784
5.87821
5.88145
5.88905
5.89976
5.9103
5.91787
5.92102
5.91802
5.90717
5.88594
5.85278
5.81596
5.78948
5.77943
1.40001
1.40001
1.40001
1.40001
1.40001
1.40001
1.40001
1.40001
1.40001
1.40001
1.40001
1.40001
1.40001
1.40001
1.40001
1.40001
1.40001
1.40001
1.40001
1.40001
1.40001
1.40001
1.40001
1.40001
1.40001
1.40001
1.40001
1.40001
1.40001
1.40001
1.40001
1.40001
1.40001
1.40001
1.40001
1.40001
1.40001
1.40001
1.40001
1.40001
1.40001
1.40001
1.40001
1.40001
1.40001
1.40001
1.40001
1.40001
1.40001
1.40001
1.40325
4.00198
5.4319
5.43099
5.44354
5.46604
5.49131
5.51768
5.54305
5.56552
5.58517
5.60208
5.61726
5.63118
5.64479
5.65953
5.67503
5.6903
5.70549
5.72046
5.73267
5.74179
5.74874
5.75741
5.77092
5.7886
5.8095
5.83114
5.85034
5.86349
5.86926
5.86998
5.87029
5.87369
5.88153
5.89257
5.90347
5.91125
5.91418
5.91049
5.89869
5.87661
5.84306
5.80632
5.7802
5.7706
1.40001
1.40001
1.40001
1.40001
1.40001
1.40001
1.40001
1.40001
1.40001
1.40001
1.40001
1.40001
1.40001
1.40001
1.40001
1.40001
1.40001
1.40001
1.40001
1.40001
1.40001
1.40001
1.40001
1.40001
1.40001
1.40001
1.40001
1.40001
1.40001
1.40001
1.40001
1.40001
1.40001
1.40001
1.40001
1.40001
1.40001
1.40001
1.40001
1.40001
1.40001
1.40001
1.40001
1.40001
1.40001
1.40001
1.40001
1.40001
1.40001
1.40001
1.40003
3.76625
5.41126
5.42481
5.4352
5.45752
5.48133
5.50706
5.53304
5.557
5.57828
5.59714
5.61396
5.62808
5.64056
5.65355
5.66777
5.68277
5.69885
5.71503
5.72818
5.73737
5.74358
5.75129
5.76477
5.78265
5.80347
5.82469
5.84314
5.85539
5.86051
5.86108
5.8616
5.86533
5.87336
5.88448
5.89537
5.90313
5.90578
5.90155
5.88904
5.86632
5.83251
5.79599
5.7704
5.76124
1.40001
1.40001
1.40001
1.40001
1.40001
1.40001
1.40001
1.40001
1.40001
1.40001
1.40001
1.40001
1.40001
1.40001
1.40001
1.40001
1.40001
1.40001
1.40001
1.40001
1.40001
1.40001
1.40001
1.40001
1.40001
1.40001
1.40001
1.40001
1.40001
1.40001
1.40001
1.40001
1.40001
1.40001
1.40001
1.40001
1.40001
1.40001
1.40001
1.40001
1.40001
1.40001
1.40001
1.40001
1.40001
1.40001
1.40001
1.40001
1.40001
1.40001
1.40001
3.51208
5.37971
5.42403
5.43075
5.4514
5.47297
5.49715
5.52288
5.54777
5.57034
5.5911
5.61
5.62518
5.63719
5.64851
5.66101
5.67535
5.69189
5.70866
5.72225
5.7315
5.7375
5.74535
5.75945
5.77745
5.79768
5.81779
5.83499
5.84598
5.85044
5.85105
5.85203
5.85628
5.86445
5.87536
5.88581
5.89319
5.89551
5.89103
5.87829
5.85534
5.82154
5.7853
5.76027
5.75153
1.40001
1.40001
1.40001
1.40001
1.40001
1.40001
1.40001
1.40001
1.40001
1.40001
1.40001
1.40001
1.40001
1.40001
1.40001
1.40001
1.40001
1.40001
1.40001
1.40001
1.40001
1.40001
1.40001
1.40001
1.40001
1.40001
1.40001
1.40001
1.40001
1.40001
1.40001
1.40001
1.40001
1.40001
1.40001
1.40001
1.40001
1.40001
1.40001
1.40001
1.40001
1.40001
1.40001
1.40001
1.40001
1.40001
1.40001
1.40001
1.40001
1.40001
1.40001
3.24268
5.33423
5.42849
5.43022
5.4481
5.46625
5.48817
5.51284
5.53826
5.56228
5.58517
5.60638
5.6229
5.63457
5.64415
5.65465
5.66791
5.68424
5.70097
5.7149
5.7247
5.73141
5.74034
5.7551
5.77269
5.79175
5.81017
5.8257
5.83514
5.83882
5.83956
5.84122
5.84623
5.85462
5.86514
5.87479
5.88148
5.88344
5.879
5.86649
5.84374
5.81013
5.77409
5.74943
5.74093
1.40001
1.40001
1.40001
1.40001
1.40001
1.40001
1.40001
1.40001
1.40001
1.40001
1.40001
1.40001
1.40001
1.40001
1.40001
1.40001
1.40001
1.40001
1.40001
1.40001
1.40001
1.40001
1.40001
1.40001
1.40001
1.40001
1.40001
1.40001
1.40001
1.40001
1.40001
1.40001
1.40001
1.40001
1.40001
1.40001
1.40001
1.40001
1.40001
1.40001
1.40001
1.40001
1.40001
1.40001
1.40001
1.40001
1.40001
1.40001
1.40001
1.40001
1.40001
2.96062
5.27311
5.43471
5.43308
5.44834
5.46288
5.482
5.50464
5.52935
5.55325
5.57654
5.59913
5.61765
5.63071
5.64026
5.64964
5.66151
5.67648
5.69221
5.70617
5.71702
5.72535
5.7358
5.75085
5.76759
5.78541
5.80229
5.8162
5.82391
5.82644
5.8269
5.82904
5.83483
5.8435
5.85355
5.8622
5.86796
5.86956
5.86536
5.85343
5.83124
5.79801
5.76211
5.73759
5.72915
1.40001
1.40001
1.40001
1.40001
1.40001
1.40001
1.40001
1.40001
1.40001
1.40001
1.40001
1.40001
1.40001
1.40001
1.40001
1.40001
1.40001
1.40001
1.40001
1.40001
1.40001
1.40001
1.40001
1.40001
1.40001
1.40001
1.40001
1.40001
1.40001
1.40001
1.40001
1.40001
1.40001
1.40001
1.40001
1.40001
1.40001
1.40001
1.40001
1.40001
1.40001
1.40001
1.40001
1.40001
1.40001
1.40001
1.40001
1.40001
1.40001
1.40001
1.40001
2.67124
5.18353
5.44169
5.43988
5.4525
5.46333
5.47875
5.49847
5.52174
5.54542
5.56852
5.59118
5.61131
5.62636
5.63694
5.6458
5.65588
5.66853
5.68273
5.69663
5.70891
5.71928
5.73105
5.74587
5.76169
5.77841
5.79413
5.80646
5.81223
5.81314
5.81275
5.81505
5.82164
5.83093
5.84082
5.84856
5.85329
5.8544
5.85035
5.83901
5.81751
5.78477
5.74899
5.7244
5.71588
1.40001
1.40001
1.40001
1.40001
1.40001
1.40001
1.40001
1.40001
1.40001
1.40001
1.40001
1.40001
1.40001
1.40001
1.40001
1.40001
1.40001
1.40001
1.40001
1.40001
1.40001
1.40001
1.40001
1.40001
1.40001
1.40001
1.40001
1.40001
1.40001
1.40001
1.40001
1.40001
1.40001
1.40001
1.40001
1.40001
1.40001
1.40001
1.40001
1.40001
1.40001
1.40001
1.40001
1.40001
1.40001
1.40001
1.40001
1.40001
1.40001
1.40001
1.40001
2.3876
5.05325
5.44258
5.44533
5.45768
5.46734
5.48091
5.49713
5.51693
5.53881
5.56081
5.58287
5.60382
5.62077
5.63316
5.64241
5.65112
5.66146
5.67387
5.68737
5.70074
5.71252
5.72479
5.73863
5.75343
5.7693
5.78454
5.79581
5.80024
5.7997
5.7983
5.8001
5.80668
5.81613
5.82584
5.8329
5.83682
5.83753
5.83363
5.82291
5.80223
5.77013
5.73457
5.70985
5.70126
1.40001
1.40001
1.40001
1.40001
1.40001
1.40001
1.40001
1.40001
1.40001
1.40001
1.40001
1.40001
1.40001
1.40001
1.40001
1.40001
1.40001
1.40001
1.40001
1.40001
1.40001
1.40001
1.40001
1.40001
1.40001
1.40001
1.40001
1.40001
1.40001
1.40001
1.40001
1.40001
1.40001
1.40001
1.40001
1.40001
1.40001
1.40001
1.40001
1.40001
1.40001
1.40001
1.40001
1.40001
1.40001
1.40001
1.40001
1.40001
1.40001
1.40001
1.40001
2.11636
4.89226
5.44535
5.45144
5.46498
5.47523
5.48779
5.50191
5.51834
5.5365
5.55575
5.57601
5.59643
5.61426
5.6282
5.63831
5.64643
5.65521
5.66621
5.67902
5.69235
5.70407
5.71572
5.72843
5.74265
5.75825
5.77331
5.78376
5.78725
5.78517
5.78244
5.7832
5.78945
5.79905
5.809
5.816
5.81953
5.81987
5.81584
5.80543
5.78528
5.75373
5.71835
5.6935
5.6849
1.40001
1.40001
1.40001
1.40001
1.40001
1.40001
1.40001
1.40001
1.40001
1.40001
1.40001
1.40001
1.40001
1.40001
1.40001
1.40001
1.40001
1.40001
1.40001
1.40001
1.40001
1.40001
1.40001
1.40001
1.40001
1.40001
1.40001
1.40001
1.40001
1.40001
1.40001
1.40001
1.40001
1.40001
1.40001
1.40001
1.40001
1.40001
1.40001
1.40001
1.40001
1.40001
1.40001
1.40001
1.40001
1.40001
1.40001
1.40001
1.40001
1.40001
1.40001
1.8618
4.71281
5.4558
5.45135
5.46321
5.47608
5.49092
5.5053
5.5199
5.53491
5.55117
5.56914
5.58828
5.60593
5.6206
5.63172
5.64039
5.64913
5.65978
5.67211
5.68455
5.69492
5.70474
5.71558
5.7287
5.74409
5.7592
5.76962
5.77291
5.76999
5.76623
5.76566
5.77119
5.78045
5.79046
5.79755
5.80091
5.80082
5.79637
5.78601
5.76618
5.73512
5.70005
5.67523
5.66684
1.40001
1.40001
1.40001
1.40001
1.40001
1.40001
1.40001
1.40001
1.40001
1.40001
1.40001
1.40001
1.40001
1.40001
1.40001
1.40001
1.40001
1.40001
1.40001
1.40001
1.40001
1.40001
1.40001
1.40001
1.40001
1.40001
1.40001
1.40001
1.40001
1.40001
1.40001
1.40001
1.40001
1.40001
1.40001
1.40001
1.40001
1.40001
1.40001
1.40001
1.40001
1.40001
1.40001
1.40001
1.40001
1.40001
1.40001
1.40001
1.40001
1.40001
1.40001
1.63382
4.49626
5.46484
5.44821
5.45947
5.47533
5.49258
5.5081
5.52245
5.53566
5.54893
5.5637
5.58034
5.59647
5.61068
5.62253
5.63265
5.64279
5.65412
5.66603
5.67673
5.68473
5.69212
5.7011
5.71318
5.72818
5.74313
5.75364
5.75692
5.75352
5.7487
5.74695
5.75159
5.76025
5.77011
5.7774
5.781
5.78059
5.77548
5.76485
5.7449
5.71397
5.67901
5.65423
5.64612
1.40001
1.40001
1.40001
1.40001
1.40001
1.40001
1.40001
1.40001
1.40001
1.40001
1.40001
1.40001
1.40001
1.40001
1.40001
1.40001
1.40001
1.40001
1.40001
1.40001
1.40001
1.40001
1.40001
1.40001
1.40001
1.40001
1.40001
1.40001
1.40001
1.40001
1.40001
1.40001
1.40001
1.40001
1.40001
1.40001
1.40001
1.40001
1.40001
1.40001
1.40001
1.40001
1.40001
1.40001
1.40001
1.40001
1.40001
1.40001
1.40001
1.40001
1.40001
1.4492
4.21152
5.41698
5.41488
5.43162
5.4545
5.47648
5.49602
5.5121
5.52536
5.53713
5.54989
5.56512
5.58095
5.59596
5.60975
5.62258
5.63512
5.64754
5.65888
5.6675
5.67303
5.67805
5.6853
5.69612
5.71023
5.72461
5.73511
5.73845
5.73489
5.72946
5.72684
5.73053
5.73855
5.74813
5.7555
5.75924
5.75837
5.75255
5.74127
5.72085
5.6899
5.6551
5.63055
5.62294
1.40001
1.40001
1.40001
1.40001
1.40001
1.40001
1.40001
1.40001
1.40001
1.40001
1.40001
1.40001
1.40001
1.40001
1.40001
1.40001
1.40001
1.40001
1.40001
1.40001
1.40001
1.40001
1.40001
1.40001
1.40001
1.40001
1.40001
1.40001
1.40001
1.40001
1.40001
1.40001
1.40001
1.40001
1.40001
1.40001
1.40001
1.40001
1.40001
1.40001
1.40001
1.40001
1.40001
1.40001
1.40001
1.40001
1.40001
1.40001
1.40001
1.40001
1.40001
1.40134
3.83212
5.34036
5.38385
5.41121
5.43913
5.46336
5.48488
5.50219
5.51609
5.52735
5.53841
5.55187
5.56681
5.58209
5.59721
5.61201
5.62616
5.63881
5.64889
5.65525
5.65865
5.66181
5.66793
5.67792
5.69119
5.7048
5.71493
5.71805
5.71424
5.70828
5.70493
5.70774
5.71517
5.72444
5.73169
5.73531
5.73396
5.72753
5.71537
5.69411
5.66269
5.62769
5.60314
5.59589
1.40001
1.40001
1.40001
1.40001
1.40001
1.40001
1.40001
1.40001
1.40001
1.40001
1.40001
1.40001
1.40001
1.40001
1.40001
1.40001
1.40001
1.40001
1.40001
1.40001
1.40001
1.40001
1.40001
1.40001
1.40001
1.40001
1.40001
1.40001
1.40001
1.40001
1.40001
1.40001
1.40001
1.40001
1.40001
1.40001
1.40001
1.40001
1.40001
1.40001
1.40001
1.40001
1.40001
1.40001
1.40001
1.40001
1.40001
1.40001
1.40001
1.40001
1.40001
1.40001
3.42813
5.25428
5.35462
5.38778
5.41942
5.44593
5.46909
5.48736
5.50159
5.51253
5.52267
5.53541
5.55036
5.56631
5.58258
5.59883
5.61405
5.62681
5.63598
5.64055
5.64218
5.64373
5.64903
5.65851
5.67107
5.68389
5.69343
5.69604
5.69165
5.68499
5.68094
5.68303
5.69005
5.69895
5.70572
5.70875
5.70659
5.6993
5.6861
5.66394
5.63202
5.59676
5.57216
5.56527
1.40001
1.40001
1.40001
1.40001
1.40001
1.40001
1.40001
1.40001
1.40001
1.40001
1.40001
1.40001
1.40001
1.40001
1.40001
1.40001
1.40001
1.40001
1.40001
1.40001
1.40001
1.40001
1.40001
1.40001
1.40001
1.40001
1.40001
1.40001
1.40001
1.40001
1.40001
1.40001
1.40001
1.40001
1.40001
1.40001
1.40001
1.40001
1.40001
1.40001
1.40001
1.40001
1.40001
1.40001
1.40001
1.40001
1.40001
1.40001
1.40001
1.40001
1.40001
1.40001
3.01463
5.1598
5.34636
5.38446
5.41339
5.43582
5.45643
5.47387
5.48812
5.49936
5.50945
5.52154
5.53586
5.55142
5.56751
5.58379
5.59902
5.61152
5.61984
5.62306
5.62331
5.62356
5.62846
5.63777
5.65005
5.66238
5.6714
5.67345
5.66808
5.66025
5.65521
5.65641
5.66293
5.6713
5.67727
5.67937
5.67633
5.6682
5.6539
5.63069
5.59776
5.56149
5.53603
5.52878
1.40001
1.40001
1.40001
1.40001
1.40001
1.40001
1.40001
1.40001
1.40001
1.40001
1.40001
1.40001
1.40001
1.40001
1.40001
1.40001
1.40001
1.40001
1.40001
1.40001
1.40001
1.40001
1.40001
1.40001
1.40001
1.40001
1.40001
1.40001
1.40001
1.40001
1.40001
1.40001
1.40001
1.40001
1.40001
1.40001
1.40001
1.40001
1.40001
1.40001
1.40001
1.40001
1.40001
1.40001
1.40001
1.40001
1.40001
1.40001
1.40001
1.40001
1.40001
1.40001
2.6021
5.03303
5.36194
5.38541
5.40933
5.42796
5.44639
5.46252
5.4762
5.48831
5.4993
5.51091
5.52396
5.53805
5.55283
5.56831
5.58307
5.59518
5.60279
5.60502
5.60382
5.60285
5.60732
5.61636
5.62848
5.64027
5.64887
5.65041
5.64382
5.63446
5.62805
5.62801
5.63372
5.64119
5.64619
5.6469
5.64231
5.63272
5.61677
5.59234
5.55847
5.52121
5.49475
5.48712
1.40001
1.40001
1.40001
1.40001
1.40001
1.40001
1.40001
1.40001
1.40001
1.40001
1.40001
1.40001
1.40001
1.40001
1.40001
1.40001
1.40001
1.40001
1.40001
1.40001
1.40001
1.40001
1.40001
1.40001
1.40001
1.40001
1.40001
1.40001
1.40001
1.40001
1.40001
1.40001
1.40001
1.40001
1.40001
1.40001
1.40001
1.40001
1.40001
1.40001
1.40001
1.40001
1.40001
1.40001
1.40001
1.40001
1.40001
1.40001
1.40001
1.40001
1.40001
1.40001
2.15644
4.85928
5.42294
5.41396
5.43004
5.43966
5.45075
5.4619
5.47263
5.48348
5.49357
5.50359
5.51444
5.5262
5.53897
5.55301
5.56702
5.5787
5.58573
5.58704
5.58413
5.58186
5.58545
5.594
5.60599
5.6175
5.62545
5.62673
5.61927
5.60855
5.60001
5.59816
5.60259
5.60843
5.61198
5.61074
5.60438
5.59311
5.57567
5.54988
5.5143
5.4746
5.4456
5.43609
1.40001
1.40001
1.40001
1.40001
1.40001
1.40001
1.40001
1.40001
1.40001
1.40001
1.40001
1.40001
1.40001
1.40001
1.40001
1.40001
1.40001
1.40001
1.40001
1.40001
1.40001
1.40001
1.40001
1.40001
1.40001
1.40001
1.40001
1.40001
1.40001
1.40001
1.40001
1.40001
1.40001
1.40001
1.40001
1.40001
1.40001
1.40001
1.40001
1.40001
1.40001
1.40001
1.40001
1.40001
1.40001
1.40001
1.40001
1.40001
1.40001
1.40001
1.40001
1.40001
1.72082
4.65829
5.49783
5.43763
5.43712
5.4418
5.45099
5.46232
5.47381
5.48414
5.49281
5.50063
5.50866
5.51733
5.52732
5.53916
5.55183
5.56298
5.56938
5.5696
5.5652
5.5615
5.56346
5.57102
5.58231
5.59342
5.60078
5.60201
5.59422
5.58225
5.57142
5.56737
5.56922
5.57273
5.57428
5.57085
5.56186
5.54755
5.52748
5.49922
5.46132
5.41923
5.38785
5.37727
1.40001
1.40001
1.40001
1.40001
1.40001
1.40001
1.40001
1.40001
1.40001
1.40001
1.40001
1.40001
1.40001
1.40001
1.40001
1.40001
1.40001
1.40001
1.40001
1.40001
1.40001
1.40001
1.40001
1.40001
1.40001
1.40001
1.40001
1.40001
1.40001
1.40001
1.40001
1.40001
1.40001
1.40001
1.40001
1.40001
1.40001
1.40001
1.40001
1.40001
1.40001
1.40001
1.40001
1.40001
1.40001
1.40001
1.40001
1.40001
1.40001
1.40001
1.40001
1.40001
1.42709
4.25376
5.44796
5.40819
5.4243
5.43861
5.45358
5.46433
5.47289
5.48192
5.49056
5.49802
5.50463
5.51079
5.51789
5.52718
5.5379
5.54803
5.55377
5.55322
5.54761
5.54243
5.54227
5.54807
5.55761
5.56775
5.57454
5.5757
5.56824
5.55567
5.543
5.53601
5.53418
5.53438
5.53296
5.52664
5.51408
5.496
5.47293
5.44264
5.40172
5.35421
5.31645
5.30044
1.40001
1.40001
1.40001
1.40001
1.40001
1.40001
1.40001
1.40001
1.40001
1.40001
1.40001
1.40001
1.40001
1.40001
1.40001
1.40001
1.40001
1.40001
1.40001
1.40001
1.40001
1.40001
1.40001
1.40001
1.40001
1.40001
1.40001
1.40001
1.40001
1.40001
1.40001
1.40001
1.40001
1.40001
1.40001
1.40001
1.40001
1.40001
1.40001
1.40001
1.40001
1.40001
1.40001
1.40001
1.40001
1.40001
1.40001
1.40001
1.40001
1.40001
1.40001
1.40001
1.40013
3.69888
5.29112
5.35538
5.38949
5.41478
5.43687
5.45421
5.467
5.47706
5.48536
5.4918
5.49709
5.50259
5.50865
5.51636
5.52521
5.53385
5.53879
5.53802
5.53174
5.5248
5.52242
5.52599
5.53288
5.54117
5.54696
5.54758
5.54077
5.52818
5.51432
5.50407
5.49743
5.4932
5.48768
5.4776
5.46116
5.43806
5.40917
5.37307
5.32511
5.27027
5.22578
5.2089
1.40001
1.40001
1.40001
1.40001
1.40001
1.40001
1.40001
1.40001
1.40001
1.40001
1.40001
1.40001
1.40001
1.40001
1.40001
1.40001
1.40001
1.40001
1.40001
1.40001
1.40001
1.40001
1.40001
1.40001
1.40001
1.40001
1.40001
1.40001
1.40001
1.40001
1.40001
1.40001
1.40001
1.40001
1.40001
1.40001
1.40001
1.40001
1.40001
1.40001
1.40001
1.40001
1.40001
1.40001
1.40001
1.40001
1.40001
1.40001
1.40001
1.40001
1.40001
1.40001
1.4
3.18444
5.1667
5.31226
5.35913
5.39554
5.42004
5.43742
5.44978
5.46008
5.46971
5.47743
5.48438
5.49093
5.49686
5.50412
5.51198
5.51941
5.52387
5.52345
5.51682
5.50858
5.50367
5.50427
5.50836
5.51394
5.51808
5.51769
5.51123
5.49901
5.48444
5.47117
5.45947
5.44997
5.4393
5.42412
5.40221
5.37285
5.33643
5.29272
5.23809
5.17271
5.11145
5.07368
1.40001
1.40001
1.40001
1.40001
1.40001
1.40001
1.40001
1.40001
1.40001
1.40001
1.40001
1.40001
1.40001
1.40001
1.40001
1.40001
1.40001
1.40001
1.40001
1.40001
1.40001
1.40001
1.40001
1.40001
1.40001
1.40001
1.40001
1.40001
1.40001
1.40001
1.40001
1.40001
1.40001
1.40001
1.40001
1.40001
1.40001
1.40001
1.40001
1.40001
1.40001
1.40001
1.40001
1.40001
1.40001
1.40001
1.40001
1.40001
1.40001
1.40001
1.40001
1.40001
1.4
2.65917
4.99608
5.30326
5.35142
5.38478
5.40572
5.41978
5.43095
5.44127
5.45096
5.45914
5.46639
5.47421
5.48138
5.48881
5.49607
5.50277
5.50757
5.50823
5.50196
5.49295
5.48519
5.48241
5.48385
5.48654
5.48871
5.48698
5.47997
5.46774
5.45266
5.43657
5.41997
5.40461
5.38777
5.3662
5.33752
5.30095
5.2554
5.19834
5.12316
5.02858
4.93825
4.88279
1.40001
1.40001
1.40001
1.40001
1.40001
1.40001
1.40001
1.40001
1.40001
1.40001
1.40001
1.40001
1.40001
1.40001
1.40001
1.40001
1.40001
1.40001
1.40001
1.40001
1.40001
1.40001
1.40001
1.40001
1.40001
1.40001
1.40001
1.40001
1.40001
1.40001
1.40001
1.40001
1.40001
1.40001
1.40001
1.40001
1.40001
1.40001
1.40001
1.40001
1.40001
1.40001
1.40001
1.40001
1.40001
1.40001
1.40001
1.40001
1.40001
1.40001
1.40001
1.40001
1.40001
2.1084
4.82286
5.38426
5.37061
5.37999
5.39006
5.40063
5.41169
5.42229
5.43181
5.44024
5.44807
5.45652
5.46408
5.47072
5.477
5.48315
5.48846
5.49032
5.48539
5.47625
5.46641
5.4602
5.45873
5.45843
5.45835
5.4551
5.44704
5.43407
5.41821
5.39951
5.37856
5.35727
5.3336
5.3046
5.26773
5.2215
5.16301
5.0878
4.98972
4.86569
4.73097
4.64282
1.40001
1.40001
1.40001
1.40001
1.40001
1.40001
1.40001
1.40001
1.40001
1.40001
1.40001
1.40001
1.40001
1.40001
1.40001
1.40001
1.40001
1.40001
1.40001
1.40001
1.40001
1.40001
1.40001
1.40001
1.40001
1.40001
1.40001
1.40001
1.40001
1.40001
1.40001
1.40001
1.40001
1.40001
1.40001
1.40001
1.40001
1.40001
1.40001
1.40001
1.40001
1.40001
1.40001
1.40001
1.40001
1.40001
1.40001
1.40001
1.40001
1.40001
1.40001
1.40001
1.40001
1.59201
4.53498
5.46697
5.40638
5.38245
5.38357
5.39126
5.39923
5.40733
5.41508
5.42254
5.42981
5.43789
5.44549
5.45125
5.45641
5.46173
5.46676
5.46904
5.46584
5.45714
5.44636
5.43731
5.43273
5.42967
5.4268
5.42171
5.4126
5.3987
5.38116
5.35983
5.33503
5.30787
5.27697
5.23975
5.19349
5.13584
5.0627
4.96785
4.83711
4.64031
4.27128
3.37249
1.40001
1.40001
1.40001
1.40001
1.40001
1.40001
1.40001
1.40001
1.40001
1.40001
1.40001
1.40001
1.40001
1.40001
1.40001
1.40001
1.40001
1.40001
1.40001
1.40001
1.40001
1.40001
1.40001
1.40001
1.40001
1.40001
1.40001
1.40001
1.40001
1.40001
1.40001
1.40001
1.40001
1.40001
1.40001
1.40001
1.40001
1.40001
1.40001
1.40001
1.40001
1.40001
1.40001
1.40001
1.40001
1.40001
1.40001
1.40001
1.40001
1.40001
1.40001
1.40001
1.40001
1.40716
3.9893
5.34777
5.34806
5.36569
5.37561
5.38512
5.392
5.39791
5.40306
5.40807
5.4134
5.4199
5.42621
5.43075
5.43493
5.4394
5.44359
5.44547
5.44316
5.43516
5.42425
5.41324
5.40562
5.39949
5.39385
5.38682
5.37639
5.36118
5.34166
5.31765
5.28912
5.25626
5.21808
5.1723
5.11602
5.04584
4.95578
4.8343
4.66106
4.38657
3.95845
2.9476
1.40001
1.40001
1.40001
1.40001
1.40001
1.40001
1.40001
1.40001
1.40001
1.40001
1.40001
1.40001
1.40001
1.40001
1.40001
1.40001
1.40001
1.40001
1.40001
1.40001
1.40001
1.40001
1.40001
1.40001
1.40001
1.40001
1.40001
1.40001
1.40001
1.40001
1.40001
1.40001
1.40001
1.40001
1.40001
1.40001
1.40001
1.40001
1.40001
1.40001
1.40001
1.40001
1.40001
1.40001
1.40001
1.40001
1.40001
1.40001
1.40001
1.40001
1.40001
1.40001
1.40001
1.39999
3.31032
5.16566
5.31651
5.35328
5.36799
5.37631
5.38457
5.39064
5.39433
5.39693
5.39981
5.40379
5.40783
5.4107
5.41325
5.4163
5.41911
5.42038
5.41827
5.41099
5.4001
5.38792
5.3777
5.36841
5.36
5.35076
5.33873
5.32188
5.30018
5.27338
5.24104
5.20276
5.15756
5.10334
5.03689
4.95422
4.8472
4.70446
4.49626
4.21513
3.65771
2.82438
1.40001
1.40001
1.40001
1.40001
1.40001
1.40001
1.40001
1.40001
1.40001
1.40001
1.40001
1.40001
1.40001
1.40001
1.40001
1.40001
1.40001
1.40001
1.40001
1.40001
1.40001
1.40001
1.40001
1.40001
1.40001
1.40001
1.40001
1.40001
1.40001
1.40001
1.40001
1.40001
1.40001
1.40001
1.40001
1.40001
1.40001
1.40001
1.40001
1.40001
1.40001
1.40001
1.40001
1.40001
1.40001
1.40001
1.40001
1.40001
1.40001
1.40001
1.40001
1.40001
1.40001
1.4
2.66857
4.9941
5.31759
5.34239
5.35731
5.36918
5.37809
5.38381
5.38657
5.38774
5.3889
5.39069
5.39231
5.39303
5.39353
5.39462
5.39554
5.39552
5.39264
5.38534
5.37409
5.36106
5.34853
5.33661
5.32562
5.31378
5.29965
5.28099
5.25707
5.22739
5.1912
5.14773
5.09586
5.03376
4.95754
4.86366
4.74195
4.5833
4.35705
4.03552
3.49532
2.81127
1.40001
1.40001
1.40001
1.40001
1.40001
1.40001
1.40001
1.40001
1.40001
1.40001
1.40001
1.40001
1.40001
1.40001
1.40001
1.40001
1.40001
1.40001
1.40001
1.40001
1.40001
1.40001
1.40001
1.40001
1.40001
1.40001
1.40001
1.40001
1.40001
1.40001
1.40001
1.40001
1.40001
1.40001
1.40001
1.40001
1.40001
1.40001
1.40001
1.40001
1.40001
1.40001
1.40001
1.40001
1.40001
1.40001
1.40001
1.40001
1.40001
1.40001
1.40001
1.40001
1.40001
1.4
2.03451
4.81014
5.3663
5.34176
5.3463
5.35776
5.36786
5.37472
5.37767
5.37842
5.37873
5.37904
5.37868
5.37731
5.37554
5.37444
5.37333
5.37154
5.36712
5.35901
5.34706
5.33301
5.3183
5.3043
5.29089
5.27643
5.25978
5.23903
5.21273
5.18013
5.1401
5.09182
5.03385
4.96482
4.8801
4.7765
4.64393
4.47098
4.2382
3.90319
3.42334
2.87011
1.40001
1.40001
1.40001
1.40001
1.40001
1.40001
1.40001
1.40001
1.40001
1.40001
1.40001
1.40001
1.40001
1.40001
1.40001
1.40001
1.40001
1.40001
1.40001
1.40001
1.40001
1.40001
1.40001
1.40001
1.40001
1.40001
1.40001
1.40001
1.40001
1.40001
1.40001
1.40001
1.40001
1.40001
1.40001
1.40001
1.40001
1.40001
1.40001
1.40001
1.40001
1.40001
1.40001
1.40001
1.40001
1.40001
1.40001
1.40001
1.40001
1.40001
1.40001
1.40001
1.40001
1.40001
1.4991
4.37288
5.39749
5.3511
5.34226
5.34849
5.3567
5.36282
5.36558
5.36641
5.36666
5.36665
5.36547
5.363
5.35969
5.35675
5.3536
5.34977
5.3434
5.33371
5.32022
5.30436
5.28758
5.27137
5.25545
5.23834
5.21889
5.19583
5.16724
5.13196
5.08833
5.03566
4.97226
4.8972
4.80576
4.69429
4.55432
4.37358
4.13865
3.81621
3.40661
2.94515
1.40001
1.40001
1.40001
1.40001
1.40001
1.40001
1.40001
1.40001
1.40001
1.40001
1.40001
1.40001
1.40001
1.40001
1.40001
1.40001
1.40001
1.40001
1.40001
1.40001
1.40001
1.40001
1.40001
1.40001
1.40001
1.40001
1.40001
1.40001
1.40001
1.40001
1.40001
1.40001
1.40001
1.40001
1.40001
1.40001
1.40001
1.40001
1.40001
1.40001
1.40001
1.40001
1.40001
1.40001