/*--------------------------------*- C++ -*----------------------------------*\
  =========                 |
  \\      /  F ield         | OpenFOAM: The Open Source CFD Toolbox
   \\    /   O peration     | Website:  https://openfoam.org
    \\  /    A nd           | Version:  7
     \\/     M anipulation  |
\*---------------------------------------------------------------------------*/
FoamFile
{
    version     2.0;
    format      ascii;
    class       surfaceScalarField;
    location    "3.6";
    object      phi;
}
// * * * * * * * * * * * * * * * * * * * * * * * * * * * * * * * * * * * * * //

dimensions      [0 3 -1 0 0 0 0];

internalField   nonuniform List<scalar> 
21785
(
-1.51238e-13
1.51201e-13
-4.25889e-13
4.09479e-13
-7.75776e-13
4.71117e-13
-1.05762e-12
3.96993e-13
-1.19482e-12
2.51373e-13
-1.15538e-12
7.43386e-14
-9.36723e-13
-1.04905e-13
-2.5208e-13
-2.76546e-13
5.56479e-13
-5.23383e-13
1.42154e-12
-7.62372e-13
2.52091e-12
-9.82343e-13
3.82121e-12
-1.18232e-12
5.29771e-12
-1.36365e-12
6.92675e-12
-1.52329e-12
8.67633e-12
-1.64879e-12
1.08417e-11
-1.73264e-12
1.29885e-11
-1.87705e-12
1.51095e-11
-2.00464e-12
1.73758e-11
-2.12902e-12
1.97387e-11
-2.23534e-12
2.21584e-11
-2.31097e-12
2.46155e-11
-2.35525e-12
2.70959e-11
-2.37103e-12
2.95744e-11
-2.35708e-12
3.23189e-11
-2.31997e-12
3.49969e-11
-2.35228e-12
3.74774e-11
-2.37585e-12
3.99655e-11
-2.37142e-12
4.24269e-11
-2.34156e-12
4.4841e-11
-2.291e-12
4.71857e-11
-2.21933e-12
4.94317e-11
-2.11952e-12
5.18631e-11
-1.99512e-12
5.41214e-11
-1.94343e-12
5.61129e-11
-1.88274e-12
5.80346e-11
-1.80012e-12
5.98554e-11
-1.69702e-12
6.1557e-11
-1.57717e-12
6.31215e-11
-1.43974e-12
6.4524e-11
-1.27765e-12
6.6052e-11
-1.09471e-12
6.73509e-11
-9.87756e-13
6.83358e-11
-8.767e-13
6.92052e-11
-7.48822e-13
-6.05049e-13
6.99321e-11
-2.95432e-13
5.81778e-13
-7.78048e-13
1.13461e-12
-1.27015e-12
1.18561e-12
-1.54455e-12
8.87296e-13
-1.44714e-12
3.68625e-13
-8.80814e-13
-2.77187e-13
2.17607e-13
-9.87284e-13
2.11146e-12
-1.73237e-12
4.54856e-12
-2.52403e-12
7.30716e-12
-3.31446e-12
1.06198e-11
-4.07882e-12
1.44508e-11
-4.8007e-12
1.87639e-11
-5.47302e-12
2.35252e-11
-6.08739e-12
2.87071e-11
-6.62976e-12
3.45366e-11
-7.09556e-12
4.06581e-11
-7.5681e-12
4.68463e-11
-7.98387e-12
5.3331e-11
-8.37956e-12
6.00549e-11
-8.71951e-12
6.69562e-11
-8.98041e-12
7.39916e-11
-9.16577e-12
8.11312e-11
-9.28419e-12
8.83485e-11
-9.34301e-12
9.58508e-11
-9.36467e-12
1.03342e-10
-9.36833e-12
1.10534e-10
-9.35012e-12
1.17671e-10
-9.27827e-12
1.2471e-10
-9.14852e-12
1.31617e-10
-8.96393e-12
1.38359e-10
-8.7261e-12
1.44913e-10
-8.43744e-12
1.51508e-10
-8.11933e-12
1.57837e-10
-7.80018e-12
1.63641e-10
-7.46523e-12
1.69167e-10
-7.0927e-12
1.74382e-10
-6.6775e-12
1.79262e-10
-6.2221e-12
1.83784e-10
-5.72807e-12
1.87939e-10
-5.1979e-12
1.91964e-10
-4.65291e-12
1.95566e-10
-4.12402e-12
1.98505e-10
-3.59575e-12
2.01033e-10
-3.04768e-12
-2.47409e-12
2.03132e-10
-2.89764e-13
9.92666e-13
-6.97318e-13
1.7646e-12
-9.81964e-13
1.67452e-12
-8.76504e-13
9.80921e-13
-1.89315e-13
-1.19573e-13
1.21145e-12
-1.47744e-12
3.41225e-12
-2.98515e-12
6.68037e-12
-4.57259e-12
1.07985e-11
-6.20916e-12
1.55075e-11
-7.83486e-12
2.10419e-11
-9.41601e-12
2.73643e-11
-1.09274e-11
3.44353e-11
-1.2352e-11
4.22154e-11
-1.3673e-11
5.06597e-11
-1.48674e-11
5.99087e-11
-1.5912e-11
6.97239e-11
-1.69293e-11
7.97136e-11
-1.77919e-11
9.01472e-11
-1.85931e-11
1.00957e-10
-1.92909e-11
1.12054e-10
-1.98464e-11
1.23366e-10
-2.02655e-11
1.34845e-10
-2.056e-11
1.46448e-10
-2.074e-11
1.5836e-10
-2.08218e-11
1.70258e-10
-2.08108e-11
1.81837e-10
-2.07241e-11
1.93306e-10
-2.05346e-11
2.04611e-10
-2.02401e-11
2.15703e-10
-1.98431e-11
2.26538e-10
-1.93477e-11
2.37078e-10
-1.87617e-11
2.47528e-10
-1.81029e-11
2.57576e-10
-1.73867e-11
2.6693e-10
-1.66132e-11
2.75819e-10
-1.57661e-11
2.84202e-10
-1.4845e-11
2.92048e-10
-1.38536e-11
2.99332e-10
-1.27964e-11
3.0603e-10
-1.16816e-11
3.12365e-10
-1.0527e-11
3.1805e-10
-9.35254e-12
3.22813e-10
-8.15587e-12
3.26901e-10
-6.92374e-12
-5.65536e-12
3.30294e-10
-1.81298e-13
1.28866e-12
-3.09212e-13
2.10843e-12
-1.40373e-13
1.70408e-12
6.05772e-13
4.28442e-13
2.13655e-12
-1.45528e-12
4.59889e-12
-3.7406e-12
8.08906e-12
-6.27194e-12
1.28714e-11
-8.93578e-12
1.8759e-11
-1.16615e-11
2.54675e-11
-1.43691e-11
3.32352e-11
-1.70025e-11
4.20217e-11
-1.9528e-11
5.17891e-11
-2.19174e-11
6.24953e-11
-2.41443e-11
7.40763e-11
-2.61805e-11
8.65375e-11
-2.79989e-11
9.98702e-11
-2.97586e-11
1.13427e-10
-3.12324e-11
1.27568e-10
-3.25669e-11
1.4222e-10
-3.37181e-11
1.57258e-10
-3.46527e-11
1.7258e-10
-3.53742e-11
1.88119e-10
-3.58999e-11
2.03809e-10
-3.62357e-11
2.19836e-10
-3.63889e-11
2.35828e-10
-3.63622e-11
2.51491e-10
-3.61836e-11
2.67001e-10
-3.58332e-11
2.82285e-10
-3.5314e-11
2.97281e-10
-3.46307e-11
3.11929e-10
-3.37888e-11
3.26174e-10
-3.27982e-11
3.4021e-10
-3.16739e-11
3.53706e-10
-3.04272e-11
3.66362e-10
-2.90663e-11
3.78385e-10
-2.75781e-11
3.89724e-10
-2.59726e-11
4.00338e-10
-2.42578e-11
4.10193e-10
-2.2441e-11
4.19254e-10
-2.05337e-11
4.27737e-10
-1.85514e-11
4.35347e-10
-1.65112e-11
4.41806e-10
-1.44175e-11
4.4735e-10
-1.22615e-11
-1.00535e-11
4.51954e-10
-7.09882e-15
1.4095e-12
2.84484e-13
2.0315e-12
1.07976e-12
1.10598e-12
2.65332e-12
-9.52371e-13
5.213e-12
-3.81902e-12
8.90733e-12
-7.23229e-12
1.3834e-11
-1.09904e-11
2.0247e-11
-1.49391e-11
2.79854e-11
-1.89632e-11
3.6745e-11
-2.29652e-11
4.67628e-11
-2.68493e-11
5.79971e-11
-3.05735e-11
7.04144e-11
-3.40977e-11
8.3969e-11
-3.73895e-11
9.85803e-11
-4.04307e-11
1.14079e-10
-4.32359e-11
1.30794e-10
-4.58642e-11
1.47728e-10
-4.81322e-11
1.65369e-10
-5.01105e-11
1.83661e-10
-5.18325e-11
2.02418e-10
-5.3184e-11
2.21512e-10
-5.42597e-11
2.40865e-10
-5.50574e-11
2.60399e-10
-5.55765e-11
2.80286e-10
-5.58147e-11
3.00102e-10
-5.57443e-11
3.19581e-10
-5.54574e-11
3.38868e-10
-5.49059e-11
3.57873e-10
-5.41052e-11
3.76519e-10
-5.30652e-11
3.94729e-10
-5.17915e-11
4.12433e-10
-5.02955e-11
4.29815e-10
-4.85903e-11
4.46526e-10
-4.66876e-11
4.62265e-10
-4.46014e-11
4.77216e-10
-4.23156e-11
4.91314e-10
-3.98586e-11
5.04513e-10
-3.72446e-11
5.16766e-10
-3.44833e-11
5.28032e-10
-3.15891e-11
5.38514e-10
-2.85777e-11
5.47917e-10
-2.54654e-11
5.55959e-10
-2.22634e-11
5.62861e-10
-1.89595e-11
-1.5583e-11
5.68597e-10
2.02111e-13
1.32077e-12
1.01483e-12
1.43298e-12
2.54831e-12
-2.30557e-13
5.07683e-12
-3.28796e-12
8.79682e-12
-7.34206e-12
1.38475e-11
-1.20785e-11
2.03216e-11
-1.72551e-11
2.84668e-11
-2.26817e-11
3.81056e-11
-2.81675e-11
4.898e-11
-3.36801e-11
6.1273e-11
-3.89688e-11
7.49508e-11
-4.40479e-11
8.99802e-11
-4.88522e-11
1.06303e-10
-5.33447e-11
1.23812e-10
-5.75437e-11
1.42239e-10
-6.1476e-11
1.62199e-10
-6.51408e-11
1.82388e-10
-6.83026e-11
2.03357e-10
-7.1027e-11
2.25166e-10
-7.30867e-11
2.47416e-10
-7.49399e-11
2.70069e-10
-7.64339e-11
2.93018e-10
-7.75416e-11
3.16174e-10
-7.8271e-11
3.39737e-10
-7.86553e-11
3.63104e-10
-7.86778e-11
3.86181e-10
-7.83295e-11
4.09013e-10
-7.7523e-11
4.31508e-10
-7.63836e-11
4.53576e-10
-7.49185e-11
4.75126e-10
-7.31314e-11
4.96075e-10
-7.10358e-11
5.16596e-10
-6.86453e-11
5.36304e-10
-6.59463e-11
5.54945e-10
-6.30386e-11
5.72634e-10
-5.97915e-11
5.89314e-10
-5.6324e-11
6.0493e-10
-5.2646e-11
6.19427e-10
-4.87665e-11
6.32755e-10
-4.47051e-11
6.45111e-10
-4.04806e-11
6.56175e-10
-3.60807e-11
6.65712e-10
-3.16056e-11
6.73884e-10
-2.69278e-11
-2.2167e-11
6.80675e-10
4.22378e-13
1.01127e-12
1.85339e-12
5.49666e-13
4.17115e-12
-2.11989e-12
7.73367e-12
-6.42375e-12
1.27018e-11
-1.18857e-11
1.91918e-11
-1.8147e-11
2.7283e-11
-2.49278e-11
3.72636e-11
-3.2036e-11
4.88119e-11
-3.92857e-11
6.1916e-11
-4.62476e-11
7.64974e-11
-5.31008e-11
9.26234e-11
-5.9761e-11
1.10226e-10
-6.61107e-11
1.29196e-10
-7.20874e-11
1.49467e-10
-7.76572e-11
1.70752e-10
-8.28367e-11
1.93867e-10
-8.67746e-11
2.17213e-10
-9.09521e-11
2.41691e-10
-9.44723e-11
2.66595e-10
-9.75422e-11
2.92152e-10
-1.00025e-10
3.18165e-10
-1.0199e-10
3.44507e-10
-1.03442e-10
3.71049e-10
-1.0438e-10
3.98026e-10
-1.04847e-10
4.24811e-10
-1.05003e-10
4.51376e-10
-1.04355e-10
4.77537e-10
-1.03245e-10
5.03315e-10
-1.01721e-10
5.28602e-10
-9.97539e-11
5.53293e-10
-9.73585e-11
5.77289e-10
-9.4562e-11
6.0079e-10
-9.14221e-11
6.23271e-10
-8.79773e-11
6.4471e-10
-8.39247e-11
6.64948e-10
-7.95761e-11
6.84043e-10
-7.49676e-11
7.01922e-10
-7.0073e-11
7.18518e-10
-6.49083e-11
7.33773e-10
-5.95048e-11
7.47915e-10
-5.39256e-11
7.60491e-10
-4.82084e-11
7.715e-10
-4.20693e-11
7.8084e-10
-3.58192e-11
-2.94933e-11
7.88609e-10
8.10624e-13
9.11833e-13
2.72936e-12
-7.28889e-13
5.8555e-12
-4.83193e-12
1.05039e-11
-1.06535e-11
1.67783e-11
-1.77394e-11
2.47647e-11
-2.57084e-11
3.4509e-11
-3.42403e-11
4.62966e-11
-4.30652e-11
6.0097e-11
-5.19674e-11
7.5299e-11
-6.08258e-11
9.21243e-11
-6.95225e-11
1.10651e-10
-7.78348e-11
1.30758e-10
-8.56996e-11
1.52366e-10
-9.30703e-11
1.75333e-10
-9.99393e-11
2.00267e-10
-1.06312e-10
2.25573e-10
-1.12157e-10
2.52101e-10
-1.17295e-10
2.79611e-10
-1.21689e-10
3.07757e-10
-1.25458e-10
3.36504e-10
-1.28566e-10
3.65732e-10
-1.3102e-10
3.95309e-10
-1.32819e-10
4.25093e-10
-1.33956e-10
4.55136e-10
-1.3443e-10
4.85486e-10
-1.34197e-10
5.15238e-10
-1.334e-10
5.44537e-10
-1.32091e-10
5.73425e-10
-1.30152e-10
6.01753e-10
-1.2763e-10
6.29401e-10
-1.24557e-10
6.56241e-10
-1.20953e-10
6.82452e-10
-1.16828e-10
7.07861e-10
-1.12219e-10
7.31807e-10
-1.07152e-10
7.54424e-10
-1.01739e-10
7.75791e-10
-9.58772e-11
7.95798e-10
-8.9624e-11
8.14363e-10
-8.30192e-11
8.314e-10
-7.60914e-11
8.47127e-10
-6.88587e-11
8.61428e-10
-6.13566e-11
8.73687e-10
-5.36352e-11
8.84097e-10
-4.57913e-11
-3.77352e-11
8.92783e-10
9.98127e-13
2.00484e-13
3.44499e-12
-2.99149e-12
7.50204e-12
-8.70186e-12
1.33032e-11
-1.62711e-11
2.09452e-11
-2.52016e-11
3.0492e-11
-3.50781e-11
4.19786e-11
-4.55494e-11
5.56683e-11
-5.63119e-11
7.14806e-11
-6.71415e-11
8.88029e-11
-7.79684e-11
1.07991e-10
-8.85141e-11
1.28966e-10
-9.86393e-11
1.51607e-10
-1.08244e-10
1.75788e-10
-1.17249e-10
2.01416e-10
-1.25597e-10
2.29099e-10
-1.33277e-10
2.5734e-10
-1.40285e-10
2.86886e-10
-1.46466e-10
3.17376e-10
-1.51825e-10
3.48585e-10
-1.56409e-10
3.80407e-10
-1.60193e-10
4.12737e-10
-1.63171e-10
4.45446e-10
-1.65336e-10
4.78373e-10
-1.66678e-10
5.11602e-10
-1.67198e-10
5.44996e-10
-1.66876e-10
5.77717e-10
-1.65944e-10
6.10075e-10
-1.64259e-10
6.41935e-10
-1.61827e-10
6.73167e-10
-1.58679e-10
7.03643e-10
-1.54846e-10
7.33238e-10
-1.50354e-10
7.62087e-10
-1.45217e-10
7.90041e-10
-1.39451e-10
8.1632e-10
-1.33253e-10
8.41277e-10
-1.26503e-10
8.64818e-10
-1.19227e-10
8.86853e-10
-1.11472e-10
9.07297e-10
-1.03277e-10
9.26072e-10
-9.46775e-11
9.43365e-10
-8.56952e-11
9.5906e-10
-7.6356e-11
9.72465e-10
-6.686e-11
9.8397e-10
-5.71004e-11
-4.711e-11
9.93539e-10
1.09846e-12
-7.97973e-13
4.15567e-12
-5.83704e-12
9.12749e-12
-1.34758e-11
1.60988e-11
-2.30499e-11
2.51328e-11
-3.40458e-11
3.62703e-11
-4.6027e-11
4.95307e-11
-5.86194e-11
6.51441e-11
-7.15042e-11
8.2888e-11
-8.44638e-11
1.02405e-10
-9.7286e-11
1.23908e-10
-1.09797e-10
1.47308e-10
-1.2183e-10
1.72473e-10
-1.33261e-10
1.99259e-10
-1.43984e-10
2.27552e-10
-1.53908e-10
2.57914e-10
-1.62963e-10
2.89038e-10
-1.71245e-10
3.2146e-10
-1.78511e-10
3.54841e-10
-1.84885e-10
3.89001e-10
-1.90333e-10
4.23808e-10
-1.94828e-10
4.59149e-10
-1.98357e-10
4.94882e-10
-2.00903e-10
5.30837e-10
-2.02456e-10
5.67126e-10
-2.03025e-10
6.0333e-10
-2.02639e-10
6.38999e-10
-2.01409e-10
6.74261e-10
-1.99312e-10
7.08968e-10
-1.96333e-10
7.42978e-10
-1.92497e-10
7.76158e-10
-1.87836e-10
8.08378e-10
-1.82382e-10
8.39781e-10
-1.76164e-10
8.70007e-10
-1.69231e-10
8.98613e-10
-1.61661e-10
9.25774e-10
-1.53458e-10
9.51385e-10
-1.44637e-10
9.75354e-10
-1.35243e-10
9.9759e-10
-1.2532e-10
1.01802e-09
-1.14909e-10
1.03683e-09
-1.04049e-10
1.05371e-09
-9.28024e-11
1.0683e-09
-8.12479e-11
1.08081e-09
-6.94088e-11
-5.73078e-11
1.09122e-09
1.2654e-12
-1.95172e-12
4.89019e-12
-9.24604e-12
1.07505e-11
-1.91378e-11
1.88771e-11
-3.09828e-11
2.92977e-11
-4.42708e-11
4.20263e-11
-5.8555e-11
5.70585e-11
-7.34467e-11
7.45616e-11
-8.86118e-11
9.4339e-11
-1.03802e-10
1.16014e-10
-1.18781e-10
1.39799e-10
-1.33371e-10
1.65593e-10
-1.47389e-10
1.93259e-10
-1.60707e-10
2.22639e-10
-1.73207e-10
2.53602e-10
-1.84782e-10
2.86577e-10
-1.95339e-10
3.20555e-10
-2.04957e-10
3.55743e-10
-2.13397e-10
3.91938e-10
-2.20803e-10
4.28962e-10
-2.27136e-10
4.66667e-10
-2.32361e-10
5.0492e-10
-2.36464e-10
5.436e-10
-2.39444e-10
5.82483e-10
-2.41181e-10
6.21675e-10
-2.4177e-10
6.60674e-10
-2.41219e-10
6.9915e-10
-2.39682e-10
7.37191e-10
-2.37131e-10
7.74626e-10
-2.33547e-10
8.11301e-10
-2.2896e-10
8.47069e-10
-2.23403e-10
8.81794e-10
-2.1691e-10
9.156e-10
-2.09517e-10
9.48093e-10
-2.01284e-10
9.78897e-10
-1.92269e-10
1.00815e-09
-1.82502e-10
1.03573e-09
-1.72008e-10
1.06154e-09
-1.60842e-10
1.08548e-09
-1.49055e-10
1.10747e-09
-1.36695e-10
1.12769e-09
-1.23807e-10
1.14579e-09
-1.10469e-10
1.16148e-09
-9.67355e-11
1.17494e-09
-8.26641e-11
-6.82855e-11
1.18613e-09
1.45961e-12
-3.29827e-12
5.6362e-12
-1.32067e-11
1.23638e-11
-2.56681e-11
2.16248e-11
-4.00498e-11
3.34141e-11
-5.58591e-11
4.77195e-11
-7.26469e-11
6.45105e-11
-9.0016e-11
8.39022e-11
-1.07622e-10
1.05725e-10
-1.25177e-10
1.29547e-10
-1.42454e-10
1.55597e-10
-1.59231e-10
1.8376e-10
-1.75309e-10
2.13895e-10
-1.90563e-10
2.4584e-10
-2.04882e-10
2.7944e-10
-2.18157e-10
3.14983e-10
-2.30309e-10
3.51792e-10
-2.41383e-10
3.89683e-10
-2.51049e-10
4.28618e-10
-2.59496e-10
4.6842e-10
-2.66716e-10
5.08935e-10
-2.72679e-10
5.5001e-10
-2.77366e-10
5.91635e-10
-2.80439e-10
6.3335e-10
-2.82348e-10
6.75384e-10
-2.83031e-10
7.17066e-10
-2.82515e-10
7.58234e-10
-2.80672e-10
7.98942e-10
-2.77622e-10
8.39004e-10
-2.73368e-10
8.78244e-10
-2.67957e-10
9.16506e-10
-2.61432e-10
9.53641e-10
-2.53827e-10
9.89747e-10
-2.45175e-10
1.02444e-09
-2.35545e-10
1.05735e-09
-2.24988e-10
1.0886e-09
-2.13549e-10
1.11807e-09
-2.01254e-10
1.14564e-09
-1.88181e-10
1.17121e-09
-1.74396e-10
1.1947e-09
-1.59952e-10
1.21624e-09
-1.449e-10
1.23555e-09
-1.29322e-10
1.25227e-09
-1.13274e-10
1.26663e-09
-9.68219e-11
-8.00033e-11
1.27856e-09
1.65757e-12
-4.84226e-12
6.36632e-12
-1.76993e-11
1.39589e-11
-3.30634e-11
2.43321e-11
-5.02282e-11
3.7466e-11
-6.87887e-11
5.33241e-11
-8.82851e-11
7.1852e-11
-1.08314e-10
9.31382e-11
-1.28526e-10
1.16973e-10
-1.48565e-10
1.4293e-10
-1.6827e-10
1.71256e-10
-1.87379e-10
2.01773e-10
-2.05579e-10
2.34348e-10
-2.22826e-10
2.68812e-10
-2.39005e-10
3.04991e-10
-2.54023e-10
3.43045e-10
-2.67788e-10
3.82703e-10
-2.80235e-10
4.23252e-10
-2.91291e-10
4.64856e-10
-3.00856e-10
5.07373e-10
-3.08904e-10
5.50608e-10
-3.15444e-10
5.9475e-10
-3.20441e-10
6.38988e-10
-3.24133e-10
6.83387e-10
-3.2634e-10
7.28061e-10
-3.27045e-10
7.72501e-10
-3.26439e-10
8.16285e-10
-3.24301e-10
8.596e-10
-3.20738e-10
9.02202e-10
-3.1572e-10
9.43919e-10
-3.09406e-10
9.8459e-10
-3.01839e-10
1.02406e-09
-2.93048e-10
1.06239e-09
-2.83067e-10
1.09921e-09
-2.71921e-10
1.13413e-09
-2.59732e-10
1.16733e-09
-2.46547e-10
1.19861e-09
-2.32306e-10
1.22787e-09
-2.17191e-10
1.255e-09
-2.01275e-10
1.27993e-09
-1.8462e-10
1.30275e-09
-1.67284e-10
1.3232e-09
-1.493e-10
1.34091e-09
-1.30806e-10
1.35614e-09
-1.11864e-10
-9.24276e-11
1.36877e-09
1.85198e-12
-6.57989e-12
7.05297e-12
-2.26826e-11
1.55563e-11
-4.10261e-11
2.69962e-11
-6.12375e-11
4.14416e-11
-8.28102e-11
5.88164e-11
-1.05243e-10
7.90431e-11
-1.28127e-10
1.02245e-10
-1.51133e-10
1.28037e-10
-1.73912e-10
1.56113e-10
-1.96189e-10
1.8679e-10
-2.17516e-10
2.19633e-10
-2.38017e-10
2.54612e-10
-2.57484e-10
2.91533e-10
-2.75719e-10
3.30242e-10
-2.92586e-10
3.70864e-10
-3.08005e-10
4.13127e-10
-3.21607e-10
4.56379e-10
-3.34006e-10
5.00725e-10
-3.44704e-10
5.45957e-10
-3.53711e-10
5.91945e-10
-3.61039e-10
6.38606e-10
-3.66696e-10
6.85534e-10
-3.70747e-10
7.32641e-10
-3.73118e-10
7.79815e-10
-3.73864e-10
8.2698e-10
-3.73067e-10
8.73352e-10
-3.70537e-10
9.19285e-10
-3.66203e-10
9.6433e-10
-3.60415e-10
1.00843e-09
-3.53142e-10
1.05142e-09
-3.44422e-10
1.09315e-09
-3.34326e-10
1.13367e-09
-3.22943e-10
1.17253e-09
-3.10312e-10
1.2094e-09
-2.9642e-10
1.24456e-09
-2.81169e-10
1.27756e-09
-2.64915e-10
1.30842e-09
-2.47682e-10
1.33705e-09
-2.2951e-10
1.36334e-09
-2.10491e-10
1.38744e-09
-1.90745e-10
1.40895e-09
-1.70327e-10
1.4276e-09
-1.4927e-10
1.44374e-09
-1.27458e-10
-1.05281e-10
1.45703e-09
2.05068e-12
-8.22144e-12
7.89295e-12
-2.77393e-11
1.71384e-11
-4.95963e-11
2.95878e-11
-7.32673e-11
4.53073e-11
-9.81009e-11
6.41644e-11
-1.23661e-10
8.60363e-11
-1.49549e-10
1.11092e-10
-1.75408e-10
1.38878e-10
-2.00933e-10
1.69287e-10
-2.25731e-10
2.02081e-10
-2.49704e-10
2.37177e-10
-2.72632e-10
2.74526e-10
-2.94254e-10
3.13918e-10
-3.14471e-10
3.55153e-10
-3.33224e-10
3.98647e-10
-3.5047e-10
4.43108e-10
-3.65922e-10
4.8905e-10
-3.79697e-10
5.36074e-10
-3.91554e-10
5.83973e-10
-4.01498e-10
6.32604e-10
-4.09538e-10
6.81829e-10
-4.1569e-10
7.31399e-10
-4.20002e-10
7.81108e-10
-4.22491e-10
8.30794e-10
-4.23197e-10
8.80629e-10
-4.21829e-10
9.29726e-10
-4.18775e-10
9.78036e-10
-4.13947e-10
1.02548e-09
-4.07366e-10
1.07192e-09
-3.99077e-10
1.11715e-09
-3.89171e-10
1.161e-09
-3.77717e-10
1.20361e-09
-3.64772e-10
1.24452e-09
-3.50361e-10
1.28351e-09
-3.34512e-10
1.32038e-09
-3.17398e-10
1.35505e-09
-2.99104e-10
1.38749e-09
-2.79627e-10
1.41755e-09
-2.59082e-10
1.44512e-09
-2.37581e-10
1.47039e-09
-2.15226e-10
1.49299e-09
-1.92072e-10
1.51278e-09
-1.68157e-10
1.52963e-09
-1.43671e-10
-1.18722e-10
1.54353e-09
2.26831e-12
-1.01952e-11
8.6079e-12
-3.36367e-11
1.85394e-11
-5.93504e-11
3.20707e-11
-8.66161e-11
4.90702e-11
-1.14926e-10
6.9405e-11
-1.43829e-10
9.29378e-11
-1.72913e-10
1.19794e-10
-2.01797e-10
1.49645e-10
-2.30163e-10
1.82105e-10
-2.57784e-10
2.17068e-10
-2.84471e-10
2.54504e-10
-3.09895e-10
2.94203e-10
-3.3387e-10
3.35951e-10
-3.56255e-10
3.79575e-10
-3.76956e-10
4.25709e-10
-3.95924e-10
4.72636e-10
-4.12848e-10
5.21251e-10
-4.27925e-10
5.70958e-10
-4.40936e-10
6.21509e-10
-4.51853e-10
6.72756e-10
-4.60657e-10
7.24545e-10
-4.67352e-10
7.76667e-10
-4.71971e-10
8.28889e-10
-4.74548e-10
8.81368e-10
-4.7509e-10
9.33587e-10
-4.73425e-10
9.85148e-10
-4.69917e-10
1.03589e-09
-4.64475e-10
1.08572e-09
-4.57053e-10
1.13443e-09
-4.47716e-10
1.18185e-09
-4.36542e-10
1.22783e-09
-4.23606e-10
1.27251e-09
-4.08962e-10
1.31546e-09
-3.92668e-10
1.35629e-09
-3.74904e-10
1.39489e-09
-3.55786e-10
1.43125e-09
-3.35277e-10
1.46523e-09
-3.13463e-10
1.49668e-09
-2.90442e-10
1.52553e-09
-2.66319e-10
1.55197e-09
-2.41194e-10
1.57567e-09
-2.15147e-10
1.59633e-09
-1.88382e-10
1.6139e-09
-1.61018e-10
-1.33062e-10
1.62845e-09
2.40063e-12
-1.24932e-11
9.15134e-12
-4.01784e-11
1.98845e-11
-6.98838e-11
3.4462e-11
-1.01001e-10
5.27304e-11
-1.33008e-10
7.4538e-11
-1.65454e-10
9.97317e-11
-1.97918e-10
1.284e-10
-2.30013e-10
1.60159e-10
-2.61495e-10
1.94589e-10
-2.92009e-10
2.31753e-10
-3.21399e-10
2.7148e-10
-3.49406e-10
3.13525e-10
-3.75804e-10
3.57645e-10
-4.00422e-10
4.03659e-10
-4.23117e-10
4.52442e-10
-4.43771e-10
5.01804e-10
-4.62294e-10
5.53031e-10
-4.78611e-10
6.05366e-10
-4.92779e-10
6.58548e-10
-5.04725e-10
7.12396e-10
-5.14384e-10
7.66738e-10
-5.21721e-10
8.21369e-10
-5.26731e-10
8.76084e-10
-5.29397e-10
9.31215e-10
-5.29666e-10
9.85766e-10
-5.27611e-10
1.03972e-09
-5.23492e-10
1.0929e-09
-5.17303e-10
1.14509e-09
-5.09001e-10
1.19607e-09
-4.98582e-10
1.24568e-09
-4.86098e-10
1.29378e-09
-4.71623e-10
1.34051e-09
-4.55214e-10
1.38533e-09
-4.37082e-10
1.4279e-09
-4.17244e-10
1.46826e-09
-3.95892e-10
1.50627e-09
-3.73052e-10
1.54177e-09
-3.48788e-10
1.57464e-09
-3.23183e-10
1.60476e-09
-2.96333e-10
1.63238e-09
-2.68346e-10
1.65701e-09
-2.39421e-10
1.67847e-09
-2.09606e-10
1.6968e-09
-1.79097e-10
-1.47988e-10
1.71197e-09
2.533e-12
-1.49125e-11
9.72545e-12
-4.71512e-11
2.12089e-11
-8.11667e-11
3.67933e-11
-1.16389e-10
5.62992e-11
-1.52314e-10
7.95565e-11
-1.88497e-10
1.0639e-10
-2.24522e-10
1.36776e-10
-2.60002e-10
1.70466e-10
-2.947e-10
2.0687e-10
-3.28238e-10
2.46155e-10
-3.6046e-10
2.88121e-10
-3.91116e-10
3.32498e-10
-4.19968e-10
3.79012e-10
-4.46837e-10
4.27465e-10
-4.71542e-10
4.7877e-10
-4.93949e-10
5.30683e-10
-5.14195e-10
5.84398e-10
-5.31759e-10
6.39257e-10
-5.47079e-10
6.95005e-10
-5.60092e-10
7.51429e-10
-5.70676e-10
8.08331e-10
-5.78737e-10
8.6552e-10
-5.84207e-10
9.22802e-10
-5.86983e-10
9.80448e-10
-5.86934e-10
1.0373e-09
-5.84339e-10
1.0936e-09
-5.79477e-10
1.14913e-09
-5.72446e-10
1.20363e-09
-5.63169e-10
1.25689e-09
-5.51573e-10
1.30871e-09
-5.37706e-10
1.35894e-09
-5.21639e-10
1.40757e-09
-5.03423e-10
1.45431e-09
-4.83387e-10
1.49861e-09
-4.61384e-10
1.54065e-09
-4.37719e-10
1.58025e-09
-4.12405e-10
1.61726e-09
-3.85534e-10
1.65153e-09
-3.57214e-10
1.68293e-09
-3.27536e-10
1.71163e-09
-2.96611e-10
1.73724e-09
-2.64675e-10
1.75951e-09
-2.31685e-10
1.77854e-09
-1.97906e-10
-1.63492e-10
1.79428e-09
2.68161e-12
-1.74804e-11
1.0315e-11
-5.45645e-11
2.25169e-11
-9.3169e-11
3.90766e-11
-1.32749e-10
5.97881e-11
-1.72803e-10
8.44644e-11
-2.12914e-10
1.12908e-10
-2.52682e-10
1.4497e-10
-2.91731e-10
1.80575e-10
-3.29774e-10
2.18929e-10
-3.6648e-10
2.60287e-10
-4.01633e-10
3.04456e-10
-4.34976e-10
3.51155e-10
-4.66281e-10
4.00106e-10
-4.95386e-10
4.51042e-10
-5.22133e-10
5.04639e-10
-5.46361e-10
5.59322e-10
-5.68785e-10
6.15361e-10
-5.88016e-10
6.72557e-10
-6.04449e-10
7.30744e-10
-6.1809e-10
7.89703e-10
-6.28981e-10
8.49216e-10
-6.37153e-10
9.09118e-10
-6.42625e-10
9.69143e-10
-6.45407e-10
1.02928e-09
-6.45447e-10
1.0884e-09
-6.43628e-10
1.14691e-09
-6.38016e-10
1.20464e-09
-6.30034e-10
1.26141e-09
-6.19585e-10
1.31695e-09
-6.06651e-10
1.37099e-09
-5.91266e-10
1.42335e-09
-5.73541e-10
1.47379e-09
-5.53533e-10
1.5225e-09
-5.31538e-10
1.56851e-09
-5.07387e-10
1.61217e-09
-4.81278e-10
1.65334e-09
-4.53334e-10
1.69182e-09
-4.23662e-10
1.72747e-09
-3.92459e-10
1.76014e-09
-3.59834e-10
1.78985e-09
-3.2589e-10
1.81654e-09
-2.90917e-10
1.83959e-09
-2.54604e-10
1.85927e-09
-2.17446e-10
-1.79575e-10
1.87555e-09
2.83951e-12
-2.02056e-11
1.09007e-11
-6.24037e-11
2.37944e-11
-1.0586e-10
4.13254e-11
-1.50071e-10
6.3213e-11
-1.94449e-10
8.92679e-11
-2.38679e-10
1.19278e-10
-2.82376e-10
1.53019e-10
-3.25181e-10
1.9048e-10
-3.66687e-10
2.30772e-10
-4.067e-10
2.74191e-10
-4.44887e-10
3.20569e-10
-4.80998e-10
3.69589e-10
-5.1474e-10
4.20943e-10
-5.46101e-10
4.74386e-10
-5.75015e-10
5.2967e-10
-6.01386e-10
5.87386e-10
-6.24911e-10
6.45981e-10
-6.45602e-10
7.05729e-10
-6.63385e-10
7.664e-10
-6.7826e-10
8.27832e-10
-6.90217e-10
8.89839e-10
-6.99195e-10
9.52214e-10
-7.05117e-10
1.01473e-09
-7.0792e-10
1.07645e-09
-7.07657e-10
1.13909e-09
-7.04903e-10
1.19971e-09
-6.9894e-10
1.2596e-09
-6.90044e-10
1.31858e-09
-6.78335e-10
1.37635e-09
-6.63847e-10
1.43255e-09
-6.46805e-10
1.48701e-09
-6.27351e-10
1.53925e-09
-6.05571e-10
1.58994e-09
-5.81507e-10
1.63766e-09
-5.55189e-10
1.68299e-09
-5.26637e-10
1.72571e-09
-4.95848e-10
1.76561e-09
-4.63184e-10
1.80257e-09
-4.2892e-10
1.83647e-09
-3.93197e-10
1.86711e-09
-3.56052e-10
1.89505e-09
-3.17625e-10
1.91884e-09
-2.78324e-10
1.93916e-09
-2.37664e-10
-1.96212e-10
1.95594e-09
3.00828e-12
-2.30957e-11
1.14751e-11
-7.06432e-11
2.50271e-11
-1.19203e-10
4.35839e-11
-1.68088e-10
6.6593e-11
-2.17048e-10
9.39635e-11
-2.65665e-10
1.25469e-10
-3.13507e-10
1.6094e-10
-3.60238e-10
2.00174e-10
-4.05398e-10
2.42442e-10
-4.48875e-10
2.87959e-10
-4.90239e-10
3.36618e-10
-5.29192e-10
3.87847e-10
-5.65882e-10
4.41426e-10
-5.99953e-10
4.97151e-10
-6.31201e-10
5.54945e-10
-6.59577e-10
6.1504e-10
-6.84057e-10
6.76073e-10
-7.06576e-10
7.38257e-10
-7.25666e-10
8.01336e-10
-7.41399e-10
8.65224e-10
-7.53872e-10
9.2979e-10
-7.6312e-10
9.94802e-10
-7.6916e-10
1.05991e-09
-7.72068e-10
1.12357e-09
-7.71935e-10
1.18893e-09
-7.68721e-10
1.25195e-09
-7.62355e-10
1.31413e-09
-7.52543e-10
1.37538e-09
-7.39316e-10
1.43526e-09
-7.23694e-10
1.49346e-09
-7.05155e-10
1.54986e-09
-6.8386e-10
1.60396e-09
-6.59955e-10
1.65655e-09
-6.33263e-10
1.70614e-09
-6.04769e-10
1.75332e-09
-5.73101e-10
1.79758e-09
-5.39941e-10
1.83882e-09
-5.04599e-10
1.87698e-09
-4.67228e-10
1.91205e-09
-4.28119e-10
1.94377e-09
-3.87552e-10
1.97239e-09
-3.45671e-10
1.99734e-09
-3.02651e-10
2.01829e-09
-2.58505e-10
-2.13366e-10
2.03558e-09
3.19956e-12
-2.58739e-11
1.20329e-11
-7.90133e-11
2.64079e-11
-1.32781e-10
4.58062e-11
-1.86778e-10
6.98656e-11
-2.40641e-10
9.85133e-11
-2.93801e-10
1.31459e-10
-3.45908e-10
1.68677e-10
-3.96633e-10
2.09639e-10
-4.45535e-10
2.53917e-10
-4.92431e-10
3.01627e-10
-5.37019e-10
3.52203e-10
-5.79049e-10
4.05579e-10
-6.18288e-10
4.61446e-10
-6.54641e-10
5.19478e-10
-6.88138e-10
5.806e-10
-7.18852e-10
6.41945e-10
-7.45958e-10
7.05693e-10
-7.70013e-10
7.70518e-10
-7.90344e-10
8.36147e-10
-8.06995e-10
9.02472e-10
-8.20118e-10
9.6943e-10
-8.29767e-10
1.03675e-09
-8.36002e-10
1.10416e-09
-8.38966e-10
1.17018e-09
-8.38828e-10
1.23792e-09
-8.33547e-10
1.30361e-09
-8.26411e-10
1.36852e-09
-8.15973e-10
1.43147e-09
-8.02274e-10
1.49356e-09
-7.84859e-10
1.55382e-09
-7.64552e-10
1.61215e-09
-7.41436e-10
1.66845e-09
-7.15474e-10
1.72233e-09
-6.86218e-10
1.77459e-09
-6.54552e-10
1.8227e-09
-6.21407e-10
1.86868e-09
-5.85208e-10
1.91147e-09
-5.46653e-10
1.95096e-09
-5.06007e-10
1.98709e-09
-4.63572e-10
2.0198e-09
-4.19593e-10
2.04924e-09
-3.74255e-10
2.07505e-09
-3.27459e-10
2.09676e-09
-2.79591e-10
-2.30658e-10
2.11457e-09
3.3356e-12
-2.8897e-11
1.26789e-11
-8.78914e-11
2.77008e-11
-1.47346e-10
4.78802e-11
-2.06795e-10
7.3065e-11
-2.65686e-10
1.02982e-10
-3.23604e-10
1.37356e-10
-3.8016e-10
1.76287e-10
-4.34971e-10
2.19014e-10
-4.87807e-10
2.65232e-10
-5.38321e-10
3.15012e-10
-5.86335e-10
3.67767e-10
-6.3166e-10
4.23282e-10
-6.73945e-10
4.81162e-10
-7.13033e-10
5.41175e-10
-7.48859e-10
6.0505e-10
-7.81448e-10
6.68484e-10
-8.10239e-10
7.34932e-10
-8.35639e-10
8.02466e-10
-8.57196e-10
8.70677e-10
-8.75022e-10
9.39437e-10
-8.89033e-10
1.00868e-09
-8.99367e-10
1.07818e-09
-9.05944e-10
1.14763e-09
-9.08778e-10
1.21775e-09
-9.0783e-10
1.2864e-09
-9.02954e-10
1.35444e-09
-8.94841e-10
1.42166e-09
-8.83062e-10
1.48744e-09
-8.67799e-10
1.55149e-09
-8.49176e-10
1.61365e-09
-8.27303e-10
1.67385e-09
-8.02132e-10
1.73253e-09
-7.73409e-10
1.78822e-09
-7.42087e-10
1.84135e-09
-7.07588e-10
1.8918e-09
-6.71044e-10
1.93944e-09
-6.32115e-10
1.98373e-09
-5.90711e-10
2.02442e-09
-5.46946e-10
2.06157e-09
-5.01067e-10
2.0952e-09
-4.53386e-10
2.1257e-09
-4.04178e-10
2.15219e-09
-3.53473e-10
2.17465e-09
-3.01659e-10
-2.4871e-10
2.1931e-09
3.44235e-12
-3.22321e-11
1.31953e-11
-9.74263e-11
2.87919e-11
-1.62746e-10
4.98808e-11
-2.27702e-10
7.61759e-11
-2.91827e-10
1.07394e-10
-3.54681e-10
1.4325e-10
-4.15848e-10
1.83734e-10
-4.74915e-10
2.2824e-10
-5.31873e-10
2.76293e-10
-5.86094e-10
3.27966e-10
-6.37634e-10
3.82877e-10
-6.86256e-10
4.40576e-10
-7.31653e-10
5.00615e-10
-7.73564e-10
5.6275e-10
-8.11788e-10
6.29253e-10
-8.4618e-10
6.94872e-10
-8.76811e-10
7.6386e-10
-9.03359e-10
8.33904e-10
-9.26198e-10
9.04655e-10
-9.45323e-10
9.75833e-10
-9.60523e-10
1.04747e-09
-9.71821e-10
1.11931e-09
-9.79004e-10
1.19114e-09
-9.81773e-10
1.26391e-09
-9.79901e-10
1.33453e-09
-9.73966e-10
1.40504e-09
-9.64485e-10
1.47457e-09
-9.51606e-10
1.54259e-09
-9.35318e-10
1.60879e-09
-9.15488e-10
1.67315e-09
-8.92042e-10
1.73563e-09
-8.64721e-10
1.79575e-09
-8.33101e-10
1.85382e-09
-7.99641e-10
1.90826e-09
-7.61871e-10
1.96021e-09
-7.22207e-10
2.00946e-09
-6.80277e-10
2.05533e-09
-6.35865e-10
2.09745e-09
-5.88902e-10
2.13577e-09
-5.39563e-10
2.17036e-09
-4.88169e-10
2.20184e-09
-4.35027e-10
2.22896e-09
-3.80336e-10
2.25213e-09
-3.24415e-10
-2.67367e-10
2.27113e-09
3.5516e-12
-3.56681e-11
1.36842e-11
-1.07332e-10
2.98892e-11
-1.78755e-10
5.18385e-11
-2.49466e-10
7.92239e-11
-3.19009e-10
1.11757e-10
-3.86959e-10
1.49133e-10
-4.52906e-10
1.9098e-10
-5.16433e-10
2.37362e-10
-5.77603e-10
2.87127e-10
-6.35688e-10
3.4063e-10
-6.90825e-10
3.97579e-10
-7.42784e-10
4.57475e-10
-7.91246e-10
5.19806e-10
-8.35911e-10
5.84284e-10
-8.76528e-10
6.53102e-10
-9.12935e-10
7.21283e-10
-9.45637e-10
7.92421e-10
-9.73375e-10
8.64571e-10
-9.97341e-10
9.37742e-10
-1.0181e-09
1.01126e-09
-1.03316e-09
1.08543e-09
-1.04412e-09
1.16015e-09
-1.05093e-09
1.23494e-09
-1.05352e-09
1.3101e-09
-1.05165e-09
1.38282e-09
-1.04779e-09
1.4553e-09
-1.03682e-09
1.5267e-09
-1.02264e-09
1.59684e-09
-1.00502e-09
1.6654e-09
-9.83618e-10
1.73238e-09
-9.5822e-10
1.79765e-09
-9.28587e-10
1.85817e-09
-8.94386e-10
1.91953e-09
-8.59272e-10
1.97502e-09
-8.18549e-10
2.02813e-09
-7.75575e-10
2.0788e-09
-7.3024e-10
2.1263e-09
-6.8238e-10
2.16997e-09
-6.31948e-10
2.20961e-09
-5.79035e-10
2.24525e-09
-5.23881e-10
2.27765e-09
-4.66753e-10
2.30544e-09
-4.08001e-10
2.32924e-09
-3.4782e-10
-2.86512e-10
2.34873e-09
3.67587e-12
-3.92344e-11
1.41816e-11
-1.17617e-10
3.09871e-11
-1.95372e-10
5.37686e-11
-2.72037e-10
8.22267e-11
-3.47179e-10
1.16066e-10
-4.20369e-10
1.54961e-10
-4.91267e-10
1.98094e-10
-5.59508e-10
2.46364e-10
-6.25002e-10
2.97778e-10
-6.87202e-10
3.53047e-10
-7.46043e-10
4.11962e-10
-8.01273e-10
4.7406e-10
-8.52635e-10
5.38808e-10
-8.99886e-10
6.0577e-10
-9.42879e-10
6.76544e-10
-9.81583e-10
7.47758e-10
-1.01745e-09
8.20802e-10
-1.04771e-09
8.94202e-10
-1.07293e-09
9.71147e-10
-1.0925e-09
1.04689e-09
-1.1094e-09
1.12352e-09
-1.12173e-09
1.20066e-09
-1.12935e-09
1.27803e-09
-1.13192e-09
1.35326e-09
-1.12915e-09
1.43135e-09
-1.12294e-09
1.5053e-09
-1.11155e-09
1.57839e-09
-1.09627e-09
1.65049e-09
-1.07692e-09
1.7215e-09
-1.05333e-09
1.79133e-09
-1.02541e-09
1.8596e-09
-9.93328e-10
1.91977e-09
-9.57794e-10
1.98513e-09
-9.20594e-10
2.04166e-09
-8.78063e-10
2.09583e-09
-8.318e-10
2.14778e-09
-7.82598e-10
2.19677e-09
-7.30767e-10
2.24198e-09
-6.76484e-10
2.28301e-09
-6.19696e-10
2.31983e-09
-5.60612e-10
2.35313e-09
-4.99398e-10
2.38169e-09
-4.36431e-10
2.40607e-09
-3.71879e-10
-3.06158e-10
2.42601e-09
3.81654e-12
-4.29414e-11
1.46898e-11
-1.28266e-10
3.20907e-11
-2.12563e-10
5.5692e-11
-2.95392e-10
8.52222e-11
-3.76332e-10
1.20311e-10
-4.54907e-10
1.60654e-10
-5.30948e-10
2.05137e-10
-6.04166e-10
2.5517e-10
-6.74098e-10
3.08261e-10
-7.40652e-10
3.65338e-10
-8.03324e-10
4.26239e-10
-8.61833e-10
4.9057e-10