/*--------------------------------*- C++ -*----------------------------------*\
  =========                 |
  \\      /  F ield         | OpenFOAM: The Open Source CFD Toolbox
   \\    /   O peration     | Website:  https://openfoam.org
    \\  /    A nd           | Version:  7
     \\/     M anipulation  |
\*---------------------------------------------------------------------------*/
FoamFile
{
    version     2.0;
    format      ascii;
    class       volVectorField;
    location    "3.6";
    object      U;
}
// * * * * * * * * * * * * * * * * * * * * * * * * * * * * * * * * * * * * * //

dimensions      [0 1 -1 0 0 0 0];

internalField   nonuniform List<vector> 
11050
(
(-3.32536e-11 2.97733e-11 0)
(-1.38231e-10 9.0737e-11 0)
(-3.02677e-10 1.09979e-10 0)
(-4.69941e-10 1.00039e-10 0)
(-5.80977e-10 7.62821e-11 0)
(-6.12312e-10 4.84371e-11 0)
(-5.5312e-10 2.32247e-11 0)
(-3.25445e-10 5.82487e-13 0)
(5.50909e-11 -4.23144e-11 0)
(4.76282e-10 -8.44065e-11 0)
(9.63694e-10 -1.21661e-10 0)
(1.56343e-09 -1.53689e-10 0)
(2.2605e-09 -1.81063e-10 0)
(3.03524e-09 -2.03116e-10 0)
(3.87788e-09 -2.17184e-10 0)
(4.86027e-09 -2.23493e-10 0)
(5.94634e-09 -2.49235e-10 0)
(7.01775e-09 -2.7323e-10 0)
(8.11275e-09 -2.96199e-10 0)
(9.27011e-09 -3.13674e-10 0)
(1.04676e-08 -3.23911e-10 0)
(1.16883e-08 -3.27995e-10 0)
(1.29208e-08 -3.26761e-10 0)
(1.41594e-08 -3.19202e-10 0)
(1.547e-08 -3.08314e-10 0)
(1.68341e-08 -3.17162e-10 0)
(1.81272e-08 -3.26133e-10 0)
(1.93655e-08 -3.28567e-10 0)
(2.06023e-08 -3.25275e-10 0)
(2.18239e-08 -3.17537e-10 0)
(2.30117e-08 -3.04935e-10 0)
(2.41573e-08 -2.85333e-10 0)
(2.53304e-08 -2.61433e-10 0)
(2.6511e-08 -2.5806e-10 0)
(2.75769e-08 -2.547e-10 0)
(2.85511e-08 -2.46162e-10 0)
(2.94857e-08 -2.32635e-10 0)
(3.03684e-08 -2.15117e-10 0)
(3.11826e-08 -1.93142e-10 0)
(3.19217e-08 -1.64645e-10 0)
(3.26575e-08 -1.32355e-10 0)
(3.33719e-08 -1.21121e-10 0)
(3.39458e-08 -1.10622e-10 0)
(3.44048e-08 -9.5699e-11 0)
(3.48023e-08 -7.63821e-11 0)
(-6.71242e-11 1.73736e-10 0)
(-2.61715e-10 3.765e-10 0)
(-5.25154e-10 4.16307e-10 0)
(-7.39213e-10 3.42951e-10 0)
(-7.98465e-10 2.0369e-10 0)
(-6.46365e-10 3.10236e-11 0)
(-2.45342e-10 -1.53066e-10 0)
(5.06087e-10 -3.41751e-10 0)
(1.60584e-09 -5.6368e-10 0)
(2.90804e-09 -7.84305e-10 0)
(4.41983e-09 -9.93677e-10 0)
(6.2062e-09 -1.18751e-09 0)
(8.24789e-09 -1.36473e-09 0)
(1.05158e-08 -1.52288e-09 0)
(1.29963e-08 -1.65619e-09 0)
(1.57598e-08 -1.7638e-09 0)
(1.8767e-08 -1.89634e-09 0)
(2.18502e-08 -2.01426e-09 0)
(2.50173e-08 -2.12659e-09 0)
(2.83227e-08 -2.22006e-09 0)
(3.1734e-08 -2.28783e-09 0)
(3.52217e-08 -2.33187e-09 0)
(3.87645e-08 -2.35527e-09 0)
(4.23499e-08 -2.35894e-09 0)
(4.6041e-08 -2.35102e-09 0)
(4.9811e-08 -2.3622e-09 0)
(5.34879e-08 -2.36884e-09 0)
(5.70645e-08 -2.35663e-09 0)
(6.06086e-08 -2.32522e-09 0)
(6.41006e-08 -2.27666e-09 0)
(6.7512e-08 -2.21089e-09 0)
(7.08302e-08 -2.12631e-09 0)
(7.41264e-08 -2.0305e-09 0)
(7.73776e-08 -1.9582e-09 0)
(8.04163e-08 -1.88265e-09 0)
(8.32423e-08 -1.79334e-09 0)
(8.59265e-08 -1.68905e-09 0)
(8.84542e-08 -1.57126e-09 0)
(9.08026e-08 -1.43985e-09 0)
(9.29645e-08 -1.29329e-09 0)
(9.50168e-08 -1.13921e-09 0)
(9.69424e-08 -1.01299e-09 0)
(9.85815e-08 -8.87853e-10 0)
(9.99401e-08 -7.53636e-10 0)
(1.01094e-07 -6.08762e-10 0)
(-6.96478e-11 3.98626e-10 0)
(-2.51506e-10 7.45148e-10 0)
(-4.51107e-10 7.54382e-10 0)
(-5.24314e-10 5.29343e-10 0)
(-3.46026e-10 1.51387e-10 0)
(1.5827e-10 -3.19481e-10 0)
(1.04163e-09 -8.41235e-10 0)
(2.41132e-09 -1.38929e-09 0)
(4.27575e-09 -1.96208e-09 0)
(6.48675e-09 -2.53145e-09 0)
(9.0411e-09 -3.08404e-09 0)
(1.20064e-08 -3.60937e-09 0)
(1.53612e-08 -4.10164e-09 0)
(1.90739e-08 -4.55508e-09 0)
(2.31279e-08 -4.96082e-09 0)
(2.75679e-08 -5.31123e-09 0)
(3.23571e-08 -5.66082e-09 0)
(3.73127e-08 -5.96127e-09 0)
(4.2418e-08 -6.24384e-09 0)
(4.77379e-08 -6.48778e-09 0)
(5.3224e-08 -6.67826e-09 0)
(5.88316e-08 -6.81775e-09 0)
(6.45297e-08 -6.91191e-09 0)
(7.02975e-08 -6.96578e-09 0)
(7.61901e-08 -6.98874e-09 0)
(8.21696e-08 -6.989e-09 0)
(8.80489e-08 -6.96648e-09 0)
(9.38066e-08 -6.90693e-09 0)
(9.95017e-08 -6.80871e-09 0)
(1.05108e-07 -6.67325e-09 0)
(1.10591e-07 -6.50195e-09 0)
(1.1593e-07 -6.29737e-09 0)
(1.21188e-07 -6.06869e-09 0)
(1.26338e-07 -5.82924e-09 0)
(1.31197e-07 -5.57288e-09 0)
(1.35751e-07 -5.29065e-09 0)
(1.40069e-07 -4.98073e-09 0)
(1.44132e-07 -4.64435e-09 0)
(1.47913e-07 -4.28304e-09 0)
(1.51401e-07 -3.89945e-09 0)
(1.54668e-07 -3.50277e-09 0)
(1.57695e-07 -3.10813e-09 0)
(1.60313e-07 -2.70859e-09 0)
(1.62517e-07 -2.29624e-09 0)
(1.64385e-07 -1.86889e-09 0)
(-5.18087e-11 5.87153e-10 0)
(-1.4805e-10 1.01309e-09 0)
(-1.66833e-10 9.14217e-10 0)
(3.21955e-11 4.46302e-10 0)
(5.79442e-10 -2.7466e-10 0)
(1.55795e-09 -1.15966e-09 0)
(3.02807e-09 -2.14289e-09 0)
(5.09846e-09 -3.17806e-09 0)
(7.78392e-09 -4.23965e-09 0)
(1.09376e-08 -5.29425e-09 0)
(1.45504e-08 -6.32079e-09 0)
(1.86902e-08 -7.30464e-09 0)
(2.33346e-08 -8.23477e-09 0)
(2.84525e-08 -9.10015e-09 0)
(3.40277e-08 -9.88642e-09 0)
(4.00638e-08 -1.0578e-08 0)
(4.65372e-08 -1.12445e-08 0)
(5.3258e-08 -1.18089e-08 0)
(6.01799e-08 -1.23304e-08 0)
(6.73939e-08 -1.27872e-08 0)
(7.48326e-08 -1.31507e-08 0)
(8.24305e-08 -1.34282e-08 0)
(9.01468e-08 -1.36266e-08 0)
(9.79526e-08 -1.3751e-08 0)
(1.05898e-07 -1.38076e-08 0)
(1.13932e-07 -1.37964e-08 0)
(1.21859e-07 -1.37324e-08 0)
(1.29651e-07 -1.36025e-08 0)
(1.37353e-07 -1.34061e-08 0)
(1.44932e-07 -1.31449e-08 0)
(1.52345e-07 -1.28214e-08 0)
(1.59566e-07 -1.24403e-08 0)
(1.66648e-07 -1.20096e-08 0)
(1.73558e-07 -1.15351e-08 0)
(1.80107e-07 -1.10195e-08 0)
(1.86273e-07 -1.04557e-08 0)
(1.92114e-07 -9.8456e-09 0)
(1.97609e-07 -9.19165e-09 0)
(2.02726e-07 -8.49703e-09 0)
(2.07449e-07 -7.76671e-09 0)
(2.11844e-07 -7.00869e-09 0)
(2.15891e-07 -6.2315e-09 0)
(2.19415e-07 -5.43648e-09 0)
(2.22408e-07 -4.61838e-09 0)
(2.24943e-07 -3.77887e-09 0)
(-2.18307e-11 6.95847e-10 0)
(1.63724e-11 1.08821e-09 0)
(2.60091e-10 7.84327e-10 0)
(8.24013e-10 -2.29828e-11 0)
(1.83502e-09 -1.18546e-09 0)
(3.37814e-09 -2.58551e-09 0)
(5.51527e-09 -4.13327e-09 0)
(8.35302e-09 -5.76089e-09 0)
(1.19088e-08 -7.42133e-09 0)
(1.60383e-08 -9.07645e-09 0)
(2.07273e-08 -1.06834e-08 0)
(2.60412e-08 -1.22262e-08 0)
(3.19586e-08 -1.36877e-08 0)
(3.84505e-08 -1.50521e-08 0)
(4.55012e-08 -1.63039e-08 0)
(5.30636e-08 -1.74313e-08 0)
(6.11448e-08 -1.85071e-08 0)
(6.95483e-08 -1.94173e-08 0)
(7.81835e-08 -2.02409e-08 0)
(8.71897e-08 -2.09528e-08 0)
(9.64763e-08 -2.15231e-08 0)
(1.05948e-07 -2.19666e-08 0)
(1.15562e-07 -2.22926e-08 0)
(1.25284e-07 -2.25022e-08 0)
(1.35158e-07 -2.25958e-08 0)
(1.45115e-07 -2.25682e-08 0)
(1.54953e-07 -2.24544e-08 0)
(1.64646e-07 -2.22337e-08 0)
(1.74225e-07 -2.19109e-08 0)
(1.83648e-07 -2.14885e-08 0)
(1.92867e-07 -2.09696e-08 0)
(2.01844e-07 -2.03597e-08 0)
(2.1063e-07 -1.96654e-08 0)
(2.19181e-07 -1.88915e-08 0)
(2.27306e-07 -1.80493e-08 0)
(2.34977e-07 -1.71249e-08 0)
(2.42241e-07 -1.61297e-08 0)
(2.49072e-07 -1.50687e-08 0)
(2.55436e-07 -1.39463e-08 0)
(2.61311e-07 -1.2769e-08 0)
(2.66759e-07 -1.15438e-08 0)
(2.71754e-07 -1.02786e-08 0)
(2.76123e-07 -8.98277e-09 0)
(2.79853e-07 -7.64503e-09 0)
(2.8301e-07 -6.27676e-09 0)
(1.37302e-11 6.97415e-10 0)
(2.18771e-10 9.16705e-10 0)
(7.80688e-10 2.99715e-10 0)
(1.77083e-09 -9.4984e-10 0)
(3.31168e-09 -2.65353e-09 0)
(5.48479e-09 -4.66626e-09 0)
(8.34857e-09 -6.87617e-09 0)
(1.20065e-08 -9.19713e-09 0)
(1.647e-08 -1.15564e-08 0)
(2.1605e-08 -1.39113e-08 0)
(2.73932e-08 -1.61841e-08 0)
(3.38862e-08 -1.83653e-08 0)
(4.10668e-08 -2.04294e-08 0)
(4.89048e-08 -2.23592e-08 0)
(5.73778e-08 -2.41508e-08 0)
(6.63949e-08 -2.58267e-08 0)
(7.60233e-08 -2.73758e-08 0)
(8.60525e-08 -2.87271e-08 0)
(9.63333e-08 -2.98849e-08 0)
(1.07053e-07 -3.08223e-08 0)
(1.18092e-07 -3.16147e-08 0)
(1.29333e-07 -3.22517e-08 0)
(1.40736e-07 -3.27242e-08 0)
(1.52266e-07 -3.30344e-08 0)
(1.63965e-07 -3.31886e-08 0)
(1.75729e-07 -3.31836e-08 0)
(1.87359e-07 -3.30258e-08 0)
(1.98839e-07 -3.26917e-08 0)
(2.10177e-07 -3.22137e-08 0)
(2.21331e-07 -3.15961e-08 0)
(2.32242e-07 -3.0841e-08 0)
(2.42867e-07 -2.99543e-08 0)
(2.5325e-07 -2.89432e-08 0)
(2.63335e-07 -2.78109e-08 0)
(2.72938e-07 -2.65762e-08 0)
(2.82021e-07 -2.52106e-08 0)
(2.90616e-07 -2.37481e-08 0)
(2.98698e-07 -2.2195e-08 0)
(3.06228e-07 -2.05558e-08 0)
(3.13181e-07 -1.88385e-08 0)
(3.19613e-07 -1.70519e-08 0)
(3.25491e-07 -1.52008e-08 0)
(3.30651e-07 -1.33035e-08 0)
(3.35074e-07 -1.13332e-08 0)
(3.38812e-07 -9.32432e-09 0)
(5.37562e-11 5.99773e-10 0)
(4.49369e-10 5.49324e-10 0)
(1.36271e-09 -4.98572e-10 0)
(2.81319e-09 -2.30528e-09 0)
(4.92689e-09 -4.65607e-09 0)
(7.77434e-09 -7.3809e-09 0)
(1.14035e-08 -1.03493e-08 0)
(1.5919e-08 -1.34658e-08 0)
(2.13234e-08 -1.66318e-08 0)
(2.74988e-08 -1.97308e-08 0)
(3.44138e-08 -2.27438e-08 0)
(4.20936e-08 -2.56538e-08 0)
(5.05323e-08 -2.84179e-08 0)
(5.96837e-08 -3.10129e-08 0)
(6.94926e-08 -3.34429e-08 0)
(7.9916e-08 -3.57147e-08 0)
(9.10476e-08 -3.76224e-08 0)
(1.02666e-07 -3.94483e-08 0)
(1.14626e-07 -4.09935e-08 0)
(1.26987e-07 -4.22588e-08 0)
(1.3963e-07 -4.33277e-08 0)
(1.52533e-07 -4.41857e-08 0)
(1.6563e-07 -4.48236e-08 0)
(1.78857e-07 -4.52427e-08 0)
(1.92252e-07 -4.54632e-08 0)
(2.05729e-07 -4.55126e-08 0)
(2.19092e-07 -4.527e-08 0)
(2.32275e-07 -4.47961e-08 0)
(2.45268e-07 -4.41353e-08 0)
(2.58048e-07 -4.32859e-08 0)
(2.70551e-07 -4.22515e-08 0)
(2.82725e-07 -4.10421e-08 0)
(2.9461e-07 -3.96753e-08 0)
(3.0614e-07 -3.81544e-08 0)
(3.17142e-07 -3.64278e-08 0)
(3.27558e-07 -3.45432e-08 0)
(3.37396e-07 -3.25391e-08 0)
(3.46648e-07 -3.04142e-08 0)
(3.5527e-07 -2.81737e-08 0)
(3.6323e-07 -2.58305e-08 0)
(3.70586e-07 -2.34045e-08 0)
(3.77294e-07 -2.0899e-08 0)
(3.83206e-07 -1.8267e-08 0)
(3.88285e-07 -1.55563e-08 0)
(3.9256e-07 -1.28058e-08 0)
(1.34614e-10 5.09563e-10 0)
(7.32469e-10 3.05336e-11 0)
(1.97017e-09 -1.62212e-09 0)
(3.89711e-09 -4.12093e-09 0)
(6.61328e-09 -7.22998e-09 0)
(1.01645e-08 -1.07629e-08 0)
(1.45785e-08 -1.45701e-08 0)
(1.99636e-08 -1.85362e-08 0)
(2.63823e-08 -2.25545e-08 0)
(3.36447e-08 -2.64952e-08 0)
(4.16514e-08 -3.0362e-08 0)
(5.04921e-08 -3.40847e-08 0)
(6.01654e-08 -3.76162e-08 0)
(7.06005e-08 -4.09309e-08 0)
(8.1748e-08 -4.40277e-08 0)
(9.37261e-08 -4.691e-08 0)
(1.06323e-07 -4.93653e-08 0)
(1.19316e-07 -5.16868e-08 0)
(1.3283e-07 -5.36577e-08 0)
(1.46762e-07 -5.53492e-08 0)
(1.60999e-07 -5.674e-08 0)
(1.75507e-07 -5.78414e-08 0)
(1.9022e-07 -5.86532e-08 0)
(2.05063e-07 -5.91731e-08 0)
(2.20041e-07 -5.94126e-08 0)
(2.35179e-07 -5.93942e-08 0)
(2.50229e-07 -5.90391e-08 0)
(2.65001e-07 -5.84363e-08 0)
(2.79554e-07 -5.75764e-08 0)
(2.93872e-07 -5.6463e-08 0)
(3.07876e-07 -5.51069e-08 0)
(3.21498e-07 -5.35198e-08 0)
(3.34778e-07 -5.17185e-08 0)
(3.47718e-07 -4.97156e-08 0)
(3.60078e-07 -4.74524e-08 0)
(3.71722e-07 -4.50239e-08 0)
(3.8272e-07 -4.24224e-08 0)
(3.93073e-07 -3.96534e-08 0)
(4.02721e-07 -3.67306e-08 0)
(4.11615e-07 -3.36692e-08 0)
(4.19818e-07 -3.04898e-08 0)
(4.27354e-07 -2.72041e-08 0)
(4.34009e-07 -2.37631e-08 0)
(4.39673e-07 -2.02584e-08 0)
(4.44442e-07 -1.66846e-08 0)
(1.6137e-10 3.11246e-10 0)
(9.17502e-10 -8.40671e-10 0)
(2.52229e-09 -3.25675e-09 0)
(4.97736e-09 -6.57415e-09 0)
(8.32955e-09 -1.0551e-08 0)
(1.26157e-08 -1.49875e-08 0)
(1.78576e-08 -1.97145e-08 0)
(2.4154e-08 -2.45889e-08 0)
(3.15527e-08 -2.95055e-08 0)
(3.98503e-08 -3.4409e-08 0)
(4.89759e-08 -3.92082e-08 0)
(5.9021e-08 -4.38077e-08 0)
(6.99469e-08 -4.81636e-08 0)
(8.16696e-08 -5.2244e-08 0)
(9.41096e-08 -5.60308e-08 0)
(1.07437e-07 -5.95386e-08 0)
(1.21455e-07 -6.27344e-08 0)
(1.35943e-07 -6.55647e-08 0)
(1.50975e-07 -6.79925e-08 0)
(1.66408e-07 -7.00794e-08 0)
(1.82175e-07 -7.18006e-08 0)
(1.98228e-07 -7.31579e-08 0)
(2.14504e-07 -7.41469e-08 0)
(2.3092e-07 -7.47652e-08 0)
(2.47479e-07 -7.5011e-08 0)
(2.64175e-07 -7.48771e-08 0)
(2.80734e-07 -7.44444e-08 0)
(2.97012e-07 -7.3701e-08 0)
(3.13072e-07 -7.26161e-08 0)
(3.28862e-07 -7.12067e-08 0)
(3.443e-07 -6.94894e-08 0)
(3.59319e-07 -6.74749e-08 0)
(3.73948e-07 -6.51692e-08 0)
(3.88186e-07 -6.25901e-08 0)
(4.01768e-07 -5.9786e-08 0)
(4.14579e-07 -5.6762e-08 0)
(4.26705e-07 -5.34963e-08 0)
(4.38112e-07 -5.00117e-08 0)
(4.48738e-07 -4.63295e-08 0)
(4.58537e-07 -4.2465e-08 0)
(4.67565e-07 -3.84289e-08 0)
(4.75842e-07 -3.42407e-08 0)
(4.83134e-07 -2.99553e-08 0)
(4.89357e-07 -2.55777e-08 0)
(4.9462e-07 -2.10903e-08 0)
(1.63105e-10 -1.19334e-10 0)
(1.07216e-09 -2.12926e-09 0)
(3.0654e-09 -5.42953e-09 0)
(6.0529e-09 -9.68279e-09 0)
(1.00491e-08 -1.46363e-08 0)
(1.50832e-08 -2.00761e-08 0)
(2.11713e-08 -2.58191e-08 0)
(2.8395e-08 -3.17081e-08 0)
(3.67592e-08 -3.7635e-08 0)
(4.60858e-08 -4.35316e-08 0)
(5.63364e-08 -4.92858e-08 0)
(6.75702e-08 -5.48169e-08 0)
(7.97353e-08 -6.00694e-08 0)
(9.27446e-08 -6.49951e-08 0)
(1.06509e-07 -6.95529e-08 0)
(1.21165e-07 -7.37159e-08 0)
(1.36571e-07 -7.75281e-08 0)
(1.52507e-07 -8.08765e-08 0)
(1.6898e-07 -8.38091e-08 0)
(1.85873e-07 -8.63175e-08 0)
(2.03126e-07 -8.83854e-08 0)
(2.20679e-07 -9.0008e-08 0)
(2.38465e-07 -9.11871e-08 0)
(2.56398e-07 -9.19108e-08 0)
(2.7448e-07 -9.2185e-08 0)
(2.92645e-07 -9.20086e-08 0)
(3.10641e-07 -9.14739e-08 0)
(3.28381e-07 -9.05363e-08 0)
(3.45885e-07 -8.91894e-08 0)
(3.63082e-07 -8.74499e-08 0)
(3.79891e-07 -8.53344e-08 0)
(3.96246e-07 -8.28573e-08 0)
(4.1217e-07 -8.00283e-08 0)
(4.27615e-07 -7.68661e-08 0)
(4.42346e-07 -7.34389e-08 0)
(4.56289e-07 -6.97186e-08 0)
(4.69488e-07 -6.57105e-08 0)
(4.81896e-07 -6.14392e-08 0)
(4.93454e-07 -5.69265e-08 0)
(5.04117e-07 -5.2191e-08 0)
(5.13937e-07 -4.72468e-08 0)
(5.22891e-07 -4.21192e-08 0)
(5.30773e-07 -3.68774e-08 0)
(5.37543e-07 -3.15016e-08 0)
(5.43272e-07 -2.60006e-08 0)
(1.81371e-10 -6.63191e-10 0)
(1.2517e-09 -3.70272e-09 0)
(3.61612e-09 -8.04521e-09 0)
(7.12285e-09 -1.3366e-08 0)
(1.17577e-08 -1.94083e-08 0)
(1.75384e-08 -2.59501e-08 0)
(2.44717e-08 -3.27994e-08 0)
(3.26168e-08 -3.97918e-08 0)
(4.19628e-08 -4.68094e-08 0)
(5.23351e-08 -5.37433e-08 0)
(6.36965e-08 -6.05037e-08 0)
(7.60998e-08 -6.7006e-08 0)
(8.94875e-08 -7.31869e-08 0)
(1.03772e-07 -7.89884e-08 0)
(1.18861e-07 -8.43568e-08 0)
(1.34844e-07 -8.92489e-08 0)
(1.51615e-07 -9.37108e-08 0)
(1.68949e-07 -9.76315e-08 0)
(1.86816e-07 -1.01077e-07 0)
(2.05133e-07 -1.04021e-07 0)
(2.2383e-07 -1.06447e-07 0)
(2.42835e-07 -1.08358e-07 0)
(2.62086e-07 -1.09736e-07 0)
(2.81492e-07 -1.10562e-07 0)
(3.01037e-07 -1.10852e-07 0)
(3.20624e-07 -1.10619e-07 0)
(3.40015e-07 -1.09931e-07 0)
(3.59155e-07 -1.08774e-07 0)
(3.7804e-07 -1.0714e-07 0)
(3.96587e-07 -1.05041e-07 0)
(4.1471e-07 -1.02494e-07 0)
(4.32339e-07 -9.95166e-08 0)
(4.49493e-07 -9.61252e-08 0)
(4.66105e-07 -9.23455e-08 0)
(4.81949e-07 -8.82142e-08 0)
(4.96967e-07 -8.37357e-08 0)
(5.11185e-07 -7.89222e-08 0)
(5.24546e-07 -7.37984e-08 0)
(5.3699e-07 -6.83876e-08 0)
(5.48473e-07 -6.2712e-08 0)
(5.59038e-07 -5.67925e-08 0)
(5.68647e-07 -5.06638e-08 0)
(5.77107e-07 -4.43621e-08 0)
(5.84389e-07 -3.79037e-08 0)
(5.90553e-07 -3.13041e-08 0)
(2.08868e-10 -1.28945e-09 0)
(1.44396e-09 -5.54695e-09 0)
(4.16789e-09 -1.1099e-08 0)
(8.18249e-09 -1.76225e-08 0)
(1.34462e-08 -2.48681e-08 0)
(1.99656e-08 -3.26109e-08 0)
(2.77365e-08 -4.06539e-08 0)
(3.67989e-08 -4.88263e-08 0)
(4.71306e-08 -5.69922e-08 0)
(5.85502e-08 -6.50385e-08 0)
(7.1016e-08 -7.2869e-08 0)
(8.45783e-08 -8.03834e-08 0)
(9.91735e-08 -8.75211e-08 0)
(1.14717e-07 -9.42227e-08 0)
(1.31113e-07 -1.00431e-07 0)
(1.48406e-07 -1.06099e-07 0)
(1.66527e-07 -1.11263e-07 0)
(1.85238e-07 -1.15783e-07 0)
(2.04462e-07 -1.19746e-07 0)
(2.24164e-07 -1.23135e-07 0)
(2.44256e-07 -1.25935e-07 0)
(2.64674e-07 -1.2813e-07 0)
(2.8537e-07 -1.29644e-07 0)
(3.0622e-07 -1.30553e-07 0)
(3.2719e-07 -1.30866e-07 0)
(3.48156e-07 -1.30598e-07 0)
(3.68886e-07 -1.29754e-07 0)
(3.89365e-07 -1.28365e-07 0)
(4.0958e-07 -1.26415e-07 0)
(4.29427e-07 -1.23925e-07 0)
(4.48816e-07 -1.20913e-07 0)
(4.67672e-07 -1.17397e-07 0)
(4.86006e-07 -1.13394e-07 0)
(5.03742e-07 -1.08937e-07 0)
(5.20661e-07 -1.04055e-07 0)
(5.36706e-07 -9.87714e-08 0)
(5.51898e-07 -9.30911e-08 0)
(5.66172e-07 -8.70489e-08 0)
(5.79465e-07 -8.06728e-08 0)
(5.91731e-07 -7.39877e-08 0)
(6.03005e-07 -6.70177e-08 0)
(6.13245e-07 -5.98026e-08 0)
(6.22261e-07 -5.23737e-08 0)
(6.30027e-07 -4.47648e-08 0)
(6.36603e-07 -3.69861e-08 0)
(2.38183e-10 -2.01709e-09 0)
(1.63425e-09 -7.67359e-09 0)
(4.71179e-09 -1.45934e-08 0)
(9.22815e-09 -2.24477e-08 0)
(1.51089e-08 -3.10103e-08 0)
(2.2355e-08 -4.00549e-08 0)
(3.09514e-08 -4.93809e-08 0)
(4.09259e-08 -5.88145e-08 0)
(5.22363e-08 -6.81952e-08 0)
(6.46922e-08 -7.74279e-08 0)
(7.82644e-08 -8.63841e-08 0)
(9.29877e-08 -9.49433e-08 0)
(1.08779e-07 -1.0306e-07 0)
(1.25559e-07 -1.10678e-07 0)
(1.43234e-07 -1.17745e-07 0)
(1.61808e-07 -1.24218e-07 0)
(1.81273e-07 -1.30082e-07 0)
(2.01357e-07 -1.35253e-07 0)
(2.21908e-07 -1.39751e-07 0)
(2.42951e-07 -1.4357e-07 0)
(2.64412e-07 -1.467e-07 0)
(2.86277e-07 -1.49122e-07 0)
(3.08392e-07 -1.50815e-07 0)
(3.30577e-07 -1.5184e-07 0)
(3.52876e-07 -1.52185e-07 0)
(3.75189e-07 -1.51908e-07 0)
(3.97259e-07 -1.50922e-07 0)
(4.19046e-07 -1.49278e-07 0)
(4.40551e-07 -1.46974e-07 0)
(4.61654e-07 -1.44054e-07 0)
(4.82265e-07 -1.40541e-07 0)
(5.02309e-07 -1.36451e-07 0)
(5.21785e-07 -1.31799e-07 0)
(5.40608e-07 -1.26615e-07 0)
(5.58559e-07 -1.20942e-07 0)
(5.75597e-07 -1.14799e-07 0)
(5.91732e-07 -1.08183e-07 0)
(6.0688e-07 -1.01152e-07 0)
(6.20985e-07 -9.37438e-08 0)
(6.34003e-07 -8.59847e-08 0)
(6.45959e-07 -7.79014e-08 0)
(6.56805e-07 -6.95261e-08 0)
(6.66349e-07 -6.09097e-08 0)
(6.74581e-07 -5.20782e-08 0)
(6.81555e-07 -4.30356e-08 0)
(2.65199e-10 -2.84183e-09 0)
(1.81598e-09 -1.00478e-08 0)
(5.24842e-09 -1.84374e-08 0)
(1.02624e-08 -2.77464e-08 0)
(1.67424e-08 -3.77468e-08 0)
(2.46982e-08 -4.82014e-08 0)
(3.41017e-08 -5.89072e-08 0)
(4.49796e-08 -6.96945e-08 0)
(5.72559e-08 -8.03878e-08 0)
(7.07398e-08 -9.08676e-08 0)
(8.54354e-08 -1.00959e-07 0)
(1.01328e-07 -1.10615e-07 0)
(1.18303e-07 -1.19775e-07 0)
(1.36297e-07 -1.28365e-07 0)
(1.55214e-07 -1.36328e-07 0)
(1.75067e-07 -1.43618e-07 0)
(1.95832e-07 -1.50126e-07 0)
(2.17247e-07 -1.55978e-07 0)
(2.39158e-07 -1.61036e-07 0)
(2.61561e-07 -1.65299e-07 0)
(2.84385e-07 -1.6877e-07 0)
(3.07575e-07 -1.71443e-07 0)
(3.31e-07 -1.7338e-07 0)
(3.5453e-07 -1.7453e-07 0)
(3.7813e-07 -1.74901e-07 0)
(4.01746e-07 -1.74557e-07 0)
(4.25152e-07 -1.73397e-07 0)
(4.48244e-07 -1.71428e-07 0)
(4.71012e-07 -1.68733e-07 0)
(4.93323e-07 -1.65345e-07 0)
(5.15109e-07 -1.61285e-07 0)
(5.363e-07 -1.56576e-07 0)
(5.56888e-07 -1.51249e-07 0)
(5.76767e-07 -1.45321e-07 0)
(5.9572e-07 -1.38811e-07 0)
(6.13736e-07 -1.31712e-07 0)
(6.30789e-07 -1.24098e-07 0)
(6.46772e-07 -1.16023e-07 0)
(6.6165e-07 -1.07517e-07 0)
(6.75384e-07 -9.86173e-08 0)
(6.87999e-07 -8.9367e-08 0)
(6.99426e-07 -7.97887e-08 0)
(7.09478e-07 -6.99179e-08 0)
(7.18176e-07 -5.97445e-08 0)
(7.25539e-07 -4.93557e-08 0)
(2.97712e-10 -3.67941e-09 0)
(2.03729e-09 -1.2542e-08 0)
(5.81758e-09 -2.25546e-08 0)
(1.12766e-08 -3.34875e-08 0)
(1.83302e-08 -4.5058e-08 0)
(2.69786e-08 -5.70293e-08 0)
(3.71651e-08 -6.92007e-08 0)
(4.89147e-08 -8.14023e-08 0)
(6.21588e-08 -9.34647e-08 0)
(7.67276e-08 -1.05219e-07 0)
(9.254e-08 -1.16528e-07 0)
(1.09533e-07 -1.27362e-07 0)
(1.27665e-07 -1.37614e-07 0)
(1.46868e-07 -1.47209e-07 0)
(1.67031e-07 -1.56107e-07 0)
(1.8822e-07 -1.64275e-07 0)
(2.1026e-07 -1.71546e-07 0)
(2.32916e-07 -1.78089e-07 0)
(2.56168e-07 -1.83721e-07 0)
(2.79903e-07 -1.88452e-07 0)
(3.04053e-07 -1.92295e-07 0)
(3.28546e-07 -1.95251e-07 0)
(3.53275e-07 -1.97352e-07 0)
(3.78113e-07 -1.98577e-07 0)
(4.02987e-07 -1.98948e-07 0)
(4.27906e-07 -1.98414e-07 0)
(4.52665e-07 -1.97017e-07 0)
(4.77041e-07 -1.94723e-07 0)
(5.01002e-07 -1.91627e-07 0)
(5.24489e-07 -1.87742e-07 0)
(5.47418e-07 -1.83097e-07 0)
(5.69702e-07 -1.77726e-07 0)
(5.91342e-07 -1.71664e-07 0)
(6.1226e-07 -1.6492e-07 0)
(6.32258e-07 -1.57497e-07 0)
(6.51237e-07 -1.49415e-07 0)
(6.6914e-07 -1.40782e-07 0)
(6.85928e-07 -1.31614e-07 0)
(7.01557e-07 -1.2195e-07 0)
(7.15966e-07 -1.1184e-07 0)
(7.29192e-07 -1.0134e-07 0)
(7.41191e-07 -9.04685e-08 0)
(7.51804e-07 -7.92435e-08 0)
(7.60966e-07 -6.76841e-08 0)
(7.68658e-07 -5.59127e-08 0)
(3.34717e-10 -4.57597e-09 0)
(2.23355e-09 -1.52692e-08 0)
(6.31213e-09 -2.71223e-08 0)
(1.22163e-08 -3.98257e-08 0)
(1.98632e-08 -5.3085e-08 0)
(2.92072e-08 -6.66753e-08 0)
(4.01784e-08 -8.03948e-08 0)
(5.27963e-08 -9.40603e-08 0)
(6.70067e-08 -1.07516e-07 0)
(8.26068e-08 -1.20608e-07 0)
(9.94802e-08 -1.33259e-07 0)
(1.17601e-07 -1.45336e-07 0)
(1.36914e-07 -1.56722e-07 0)
(1.57301e-07 -1.67357e-07 0)
(1.78637e-07 -1.7721e-07 0)
(2.01072e-07 -1.86269e-07 0)
(2.24387e-07 -1.94374e-07 0)
(2.48343e-07 -2.016e-07 0)
(2.72951e-07 -2.07811e-07 0)
(2.98016e-07 -2.13012e-07 0)
(3.23478e-07 -2.1721e-07 0)
(3.49266e-07 -2.20415e-07 0)
(3.75272e-07 -2.22647e-07 0)
(4.01374e-07 -2.2392e-07 0)
(4.2757e-07 -2.24244e-07 0)
(4.53785e-07 -2.23505e-07 0)
(4.79774e-07 -2.21869e-07 0)
(5.05377e-07 -2.19295e-07 0)
(5.30538e-07 -2.15793e-07 0)
(5.55186e-07 -2.11389e-07 0)
(5.7923e-07 -2.06126e-07 0)
(6.02591e-07 -2.00041e-07 0)
(6.25283e-07 -1.9316e-07 0)
(6.4723e-07 -1.85501e-07 0)
(6.68201e-07 -1.77114e-07 0)
(6.88076e-07 -1.68065e-07 0)
(7.06832e-07 -1.58375e-07 0)
(7.24428e-07 -1.48064e-07 0)
(7.40792e-07 -1.37185e-07 0)
(7.55865e-07 -1.25794e-07 0)
(7.69701e-07 -1.13942e-07 0)
(7.82268e-07 -1.01662e-07 0)
(7.93377e-07 -8.90127e-08 0)
(8.0294e-07 -7.60645e-08 0)
(8.10971e-07 -6.28557e-08 0)
(3.4954e-10 -5.64636e-09 0)
(2.36602e-09 -1.83849e-08 0)
(6.74698e-09 -3.2205e-08 0)
(1.31169e-08 -4.67728e-08 0)
(2.13488e-08 -6.18255e-08 0)
(3.13809e-08 -7.71381e-08 0)
(4.31406e-08 -9.25017e-08 0)
(5.66301e-08 -1.07722e-07 0)
(7.17731e-08 -1.22665e-07 0)
(8.83425e-08 -1.37182e-07 0)
(1.06254e-07 -1.51193e-07 0)
(1.25499e-07 -1.64545e-07 0)
(1.45981e-07 -1.77131e-07 0)
(1.67558e-07 -1.88871e-07 0)
(1.90084e-07 -1.9971e-07 0)
(2.13762e-07 -2.09616e-07 0)
(2.38342e-07 -2.18489e-07 0)
(2.6357e-07 -2.26349e-07 0)
(2.89502e-07 -2.33145e-07 0)
(3.15888e-07 -2.38846e-07 0)
(3.42658e-07 -2.43436e-07 0)
(3.69731e-07 -2.46918e-07 0)
(3.96999e-07 -2.4931e-07 0)
(4.24344e-07 -2.50622e-07 0)
(4.51825e-07 -2.5085e-07 0)
(4.79292e-07 -2.4994e-07 0)
(5.06468e-07 -2.48061e-07 0)
(5.33285e-07 -2.45161e-07 0)
(5.59644e-07 -2.41231e-07 0)
(5.8545e-07 -2.36292e-07 0)
(6.10609e-07 -2.30379e-07 0)
(6.35047e-07 -2.23533e-07 0)
(6.58782e-07 -2.1578e-07 0)
(6.8171e-07 -2.07188e-07 0)
(7.03585e-07 -1.97804e-07 0)
(7.24333e-07 -1.87704e-07 0)
(7.43942e-07 -1.76883e-07 0)
(7.62337e-07 -1.65376e-07 0)
(7.79436e-07 -1.53229e-07 0)
(7.95179e-07 -1.40497e-07 0)
(8.09626e-07 -1.27231e-07 0)
(8.22722e-07 -1.13503e-07 0)
(8.34267e-07 -9.93776e-08 0)
(8.44217e-07 -8.49326e-08 0)
(8.52593e-07 -7.01882e-08 0)
(3.65258e-10 -6.83119e-09 0)
(2.50505e-09 -2.17747e-08 0)
(7.18481e-09 -3.76713e-08 0)
(1.40002e-08 -5.42245e-08 0)
(2.27959e-08 -7.11805e-08 0)
(3.35008e-08 -8.83145e-08 0)
(4.60383e-08 -1.05415e-07 0)
(6.03766e-08 -1.22287e-07 0)
(7.64352e-08 -1.38808e-07 0)
(9.39756e-08 -1.54805e-07 0)
(1.12905e-07 -1.70198e-07 0)
(1.33242e-07 -1.84859e-07 0)
(1.54871e-07 -1.98672e-07 0)
(1.77637e-07 -2.11544e-07 0)
(2.01378e-07 -2.23391e-07 0)
(2.26299e-07 -2.34139e-07 0)
(2.5214e-07 -2.43821e-07 0)
(2.78619e-07 -2.5229e-07 0)
(3.05807e-07 -2.59672e-07 0)
(3.33477e-07 -2.65916e-07 0)
(3.6154e-07 -2.70971e-07 0)
(3.89897e-07 -2.74808e-07 0)
(4.18436e-07 -2.77416e-07 0)
(4.47057e-07 -2.78775e-07 0)
(4.75825e-07 -2.78826e-07 0)
(5.04494e-07 -2.77681e-07 0)
(5.32813e-07 -2.75445e-07 0)
(5.60807e-07 -2.72163e-07 0)
(5.88343e-07 -2.6778e-07 0)
(6.15305e-07 -2.62284e-07 0)
(6.41583e-07 -2.55701e-07 0)
(6.67104e-07 -2.48069e-07 0)
(6.91855e-07 -2.39415e-07 0)
(7.15738e-07 -2.29875e-07 0)
(7.38513e-07 -2.19427e-07 0)
(7.60108e-07 -2.08191e-07 0)
(7.80542e-07 -1.96175e-07 0)
(7.9972e-07 -1.83412e-07 0)
(8.17549e-07 -1.69945e-07 0)
(8.33965e-07 -1.55822e-07 0)
(8.49001e-07 -1.41101e-07 0)
(8.62611e-07 -1.25898e-07 0)
(8.746e-07 -1.10208e-07 0)
(8.84922e-07 -9.41608e-08 0)
(8.93619e-07 -7.78022e-08 0)
(3.85982e-10 -8.08005e-09 0)
(2.6542e-09 -2.53751e-08 0)
(7.62412e-09 -4.34965e-08 0)
(1.48681e-08 -6.21692e-08 0)
(2.42114e-08 -8.11381e-08 0)
(3.55726e-08 -1.00189e-07 0)
(4.88722e-08 -1.19116e-07 0)
(6.40415e-08 -1.37725e-07 0)
(8.10032e-08 -1.55886e-07 0)
(9.95064e-08 -1.73426e-07 0)
(1.19436e-07 -1.9026e-07 0)
(1.4084e-07 -2.06264e-07 0)
(1.63599e-07 -2.21313e-07 0)
(1.87552e-07 -2.35319e-07 0)
(2.12546e-07 -2.48175e-07 0)
(2.38679e-07 -2.598e-07 0)
(2.65782e-07 -2.70422e-07 0)
(2.93519e-07 -2.7959e-07 0)
(3.21854e-07 -2.87537e-07 0)
(3.50724e-07 -2.94233e-07 0)
(3.80039e-07 -2.99639e-07 0)
(4.09684e-07 -3.03728e-07 0)
(4.39546e-07 -3.06481e-07 0)
(4.69557e-07 -3.07864e-07 0)
(4.99647e-07 -3.07831e-07 0)
(5.29504e-07 -3.06684e-07 0)
(5.58919e-07 -3.04052e-07 0)
(5.87986e-07 -3.00319e-07 0)
(6.16663e-07 -2.95428e-07 0)
(6.44774e-07 -2.89322e-07 0)
(6.72174e-07 -2.82027e-07 0)
(6.9879e-07 -2.73583e-07 0)
(7.24539e-07 -2.64017e-07 0)
(7.49368e-07 -2.53496e-07 0)
(7.73044e-07 -2.41949e-07 0)
(7.95462e-07 -2.29533e-07 0)
(8.16699e-07 -2.16246e-07 0)
(8.36641e-07 -2.02144e-07 0)
(8.55191e-07 -1.87288e-07 0)
(8.72274e-07 -1.71725e-07 0)
(8.87879e-07 -1.55515e-07 0)
(9.02014e-07 -1.38786e-07 0)
(9.14465e-07 -1.21471e-07 0)
(9.25136e-07 -1.03744e-07 0)
(9.34132e-07 -8.56939e-08 0)
(4.10189e-10 -9.4071e-09 0)
(2.80601e-09 -2.91965e-08 0)
(8.05471e-09 -4.96845e-08 0)
(1.57205e-08 -7.06029e-08 0)
(2.56043e-08 -9.16843e-08 0)
(3.76045e-08 -1.12745e-07 0)
(5.16429e-08 -1.33587e-07 0)
(6.76297e-08 -1.54028e-07 0)
(8.54814e-08 -1.73893e-07 0)
(1.04932e-07 -1.93054e-07 0)
(1.25857e-07 -2.11378e-07 0)
(1.4833e-07 -2.28733e-07 0)
(1.72215e-07 -2.44997e-07 0)
(1.9735e-07 -2.60118e-07 0)
(2.23579e-07 -2.74026e-07 0)
(2.50785e-07 -2.86658e-07 0)
(2.79084e-07 -2.98092e-07 0)
(3.08201e-07 -3.08043e-07 0)
(3.37793e-07 -3.16585e-07 0)
(3.67911e-07 -3.23738e-07 0)
(3.98469e-07 -3.29493e-07 0)
(4.29354e-07 -3.33826e-07 0)
(4.60464e-07 -3.3671e-07 0)
(4.91733e-07 -3.38107e-07 0)
(5.2289e-07 -3.38009e-07 0)
(5.54016e-07 -3.36815e-07 0)
(5.84783e-07 -3.33893e-07 0)
(6.14903e-07 -3.29691e-07 0)
(6.44683e-07 -3.24186e-07 0)
(6.73926e-07 -3.17375e-07 0)
(7.02427e-07 -3.09289e-07 0)
(7.30113e-07 -3.00003e-07 0)
(7.56842e-07 -2.89553e-07 0)
(7.82615e-07 -2.78028e-07 0)
(8.072e-07 -2.65422e-07 0)
(8.30458e-07 -2.51749e-07 0)
(8.52509e-07 -2.37101e-07 0)
(8.73192e-07 -2.21544e-07 0)
(8.92426e-07 -2.05206e-07 0)
(9.10144e-07 -1.88142e-07 0)
(9.26299e-07 -1.70385e-07 0)
(9.40974e-07 -1.52041e-07 0)
(9.53922e-07 -1.33143e-07 0)
(9.64944e-07 -1.13695e-07 0)
(9.7421e-07 -9.38792e-08 0)
(4.37448e-10 -1.08144e-08 0)
(2.9562e-09 -3.32265e-08 0)
(8.47349e-09 -5.61988e-08 0)
(1.65674e-08 -7.94397e-08 0)
(2.699e-08 -1.02742e-07 0)
(3.96027e-08 -1.25923e-07 0)
(5.43426e-08 -1.48784e-07 0)
(7.11348e-08 -1.71153e-07 0)
(8.98631e-08 -1.9281e-07 0)
(1.10254e-07 -2.13669e-07 0)
(1.32209e-07 -2.33531e-07 0)
(1.55782e-07 -2.52265e-07 0)
(1.80789e-07 -2.6984e-07 0)
(2.07029e-07 -2.86178e-07 0)
(2.34372e-07 -3.01221e-07 0)
(2.62779e-07 -3.14915e-07 0)
(2.92313e-07 -3.26938e-07 0)
(3.22652e-07 -3.37727e-07 0)
(3.53462e-07 -3.4693e-07 0)
(3.84771e-07 -3.54568e-07 0)
(4.16539e-07 -3.60674e-07 0)
(4.48676e-07 -3.65242e-07 0)
(4.81087e-07 -3.68249e-07 0)
(5.13688e-07 -3.69687e-07 0)
(5.45979e-07 -3.69603e-07 0)
(5.78273e-07 -3.68107e-07 0)
(6.10315e-07 -3.65021e-07 0)
(6.41593e-07 -3.60334e-07 0)
(6.72518e-07 -3.54101e-07 0)
(7.0286e-07 -3.46569e-07 0)
(7.32401e-07 -3.37683e-07 0)
(7.6106e-07 -3.2751e-07 0)
(7.88742e-07 -3.16125e-07 0)
(8.15437e-07 -3.0348e-07 0)
(8.40988e-07 -2.89786e-07 0)
(8.65192e-07 -2.74735e-07 0)
(8.88075e-07 -2.58726e-07 0)
(9.09486e-07 -2.4173e-07 0)
(9.29338e-07 -2.23839e-07 0)
(9.47652e-07 -2.05161e-07 0)
(9.64367e-07 -1.85764e-07 0)
(9.79489e-07 -1.6572e-07 0)
(9.92906e-07 -1.45157e-07 0)
(1.00437e-06 -1.23976e-07 0)
(1.01392e-06 -1.02343e-07 0)
(4.67491e-10 -1.22271e-08 0)
(3.11275e-09 -3.73668e-08 0)
(8.92797e-09 -6.29129e-08 0)
(1.744e-08 -8.86009e-08 0)
(2.83436e-08 -1.14271e-07 0)
(4.15405e-08 -1.39685e-07 0)
(5.6956e-08 -1.64651e-07 0)
(7.45376e-08 -1.89007e-07 0)
(9.41322e-08 -2.1252e-07 0)
(1.15469e-07 -2.35106e-07 0)
(1.38485e-07 -2.56568e-07 0)
(1.63098e-07 -2.76775e-07 0)
(1.89137e-07 -2.95708e-07 0)
(2.16477e-07 -3.13276e-07 0)
(2.4495e-07 -3.29457e-07 0)
(2.74717e-07 -3.44265e-07 0)
(3.05411e-07 -3.57211e-07 0)
(3.36795e-07 -3.68879e-07 0)
(3.68955e-07 -3.78724e-07 0)
(4.0156e-07 -3.86787e-07 0)
(4.34561e-07 -3.93142e-07 0)
(4.67906e-07 -3.97828e-07 0)
(5.01502e-07 -4.00878e-07 0)
(5.35215e-07 -4.0237e-07 0)
(5.68663e-07 -4.02365e-07 0)
(6.02154e-07 -4.00329e-07 0)
(6.35487e-07 -3.96982e-07 0)
(6.68142e-07 -3.91888e-07 0)
(7.0017e-07 -3.85104e-07 0)
(7.31488e-07 -3.768e-07 0)
(7.62073e-07 -3.67068e-07 0)
(7.91723e-07 -3.55984e-07 0)
(8.20411e-07 -3.4358e-07 0)
(8.48006e-07 -3.29675e-07 0)
(8.74535e-07 -3.14678e-07 0)
(8.99673e-07 -2.98466e-07 0)
(9.23262e-07 -2.81083e-07 0)
(9.45447e-07 -2.6258e-07 0)
(9.66009e-07 -2.43077e-07 0)
(9.84911e-07 -2.22715e-07 0)
(1.00214e-06 -2.01617e-07 0)
(1.01771e-06 -1.7985e-07 0)
(1.03156e-06 -1.57436e-07 0)
(1.04344e-06 -1.34455e-07 0)
(1.05331e-06 -1.10952e-07 0)
(4.86103e-10 -1.367e-08 0)
(3.27449e-09 -4.16615e-08 0)
(9.38026e-09 -6.99352e-08 0)
(1.82562e-08 -9.82664e-08 0)
(2.96386e-08 -1.26429e-07 0)
(4.34367e-08 -1.54175e-07 0)
(5.95281e-08 -1.81318e-07 0)
(7.78923e-08 -2.07687e-07 0)
(9.83523e-08 -2.33113e-07 0)
(1.20616e-07 -2.5746e-07 0)
(1.44646e-07 -2.80601e-07 0)
(1.70331e-07 -3.02419e-07 0)
(1.97465e-07 -3.22775e-07 0)
(2.25861e-07 -3.41604e-07 0)
(2.55296e-07 -3.58913e-07 0)
(2.86206e-07 -3.74757e-07 0)
(3.181e-07 -3.88767e-07 0)
(3.5072e-07 -4.01173e-07 0)
(3.84282e-07 -4.11645e-07 0)
(4.18204e-07 -4.20217e-07 0)
(4.52454e-07 -4.2695e-07 0)
(4.86991e-07 -4.31879e-07 0)
(5.2169e-07 -4.3503e-07 0)
(5.56439e-07 -4.36487e-07 0)
(5.91358e-07 -4.36296e-07 0)
(6.26106e-07 -4.33855e-07 0)
(6.60331e-07 -4.30115e-07 0)
(6.94191e-07 -4.24554e-07 0)