/*--------------------------------*- C++ -*----------------------------------*\
  =========                 |
  \\      /  F ield         | OpenFOAM: The Open Source CFD Toolbox
   \\    /   O peration     | Website:  https://openfoam.org
    \\  /    A nd           | Version:  9
     \\/     M anipulation  |
\*---------------------------------------------------------------------------*/
FoamFile
{
    format      ascii;
    class       surfaceScalarField;
    location    "4";
    object      phi;
}
// * * * * * * * * * * * * * * * * * * * * * * * * * * * * * * * * * * * * * //

dimensions      [0 3 -1 0 0 0 0];

internalField   nonuniform List<scalar> 
16735
(
-0.00177035
0.00177035
-1.95829e-10
-0.00487458
0.00310424
-6.09013e-10
-0.00835073
0.00347615
-9.99081e-10
-0.0113633
0.00301252
-1.33359e-09
-0.0132436
0.00188033
-1.59056e-09
-0.0133
5.63776e-05
-1.77609e-09
-0.0107976
-0.00250232
-1.86408e-09
-0.00480458
-0.00599306
-1.83997e-09
0.00516147
-0.00996604
-1.68351e-09
-0.0152974
-1.39345e-09
0.0204588
-0.00172996
0.00350031
-0.00473696
0.00611124
-0.00805698
0.00679617
-0.0108476
0.00580312
-0.0124284
0.00346112
-0.0120934
-0.000278551
-0.00909135
-0.00550441
-0.00249653
-0.0125879
0.00827144
-0.020734
-0.0315371
0.0245112
-0.00165016
0.00515046
-0.00446458
0.00892566
-0.00747525
0.00980684
-0.00982626
0.00815413
-0.0108141
0.00444898
-0.00970498
-0.00138769
-0.00571237
-0.00949702
0.00208997
-0.0203902
0.0144142
-0.0330583
-0.0496114
0.0324885
-0.00153281
0.00668327
-0.00406301
0.0114559
-0.00661678
0.0123606
-0.00831885
0.0098562
-0.00843273
0.00456286
-0.00618418
-0.00363624
-0.000706072
-0.0149751
0.00889316
-0.0299894
0.0234242
-0.0475893
-0.0703291
0.0441419
-0.00138059
0.00806386
-0.00354022
0.0136155
-0.00549772
0.0143181
-0.00635336
0.0107118
-0.00532958
0.00353908
-0.00160862
-0.00735721
0.00571553
-0.0222993
0.0176697
-0.0419436
0.0350571
-0.0649767
-0.0943873
0.0591153
-0.00119684
0.00926071
-0.00290617
0.0153248
-0.00413826
0.0155502
-0.00396487
0.0105385
-0.0015603
0.00113451
0.00394596
-0.0128635
0.0135094
-0.0318627
0.0282348
-0.056669
0.0490111
-0.085753
-0.122343
0.076967
-0.000985368
0.0102461
-0.00217229
0.0165117
-0.00256166
0.0159396
-0.00119381
0.00917061
0.00280707
-0.00286637
0.0103709
-0.0204273
0.0225039
-0.0439956
0.0403582
-0.0745233
0.0649402
-0.110335
-0.154595
0.0971922
-0.000750256
0.0109963
-0.00135089
0.0171124
-0.000793161
0.0153818
0.00191532
0.00646213
0.00770277
-0.00865383
0.0175545
-0.0302791
0.0325263
-0.0589674
0.0537871
-0.0957841
0.0824689
-0.139017
-0.191372
0.119246
-0.000495793
0.0114921
-0.00045427
0.0170709
0.00114133
0.0137862
0.00531739
0.00228606
0.013053
-0.0163894
0.025382
-0.0426081
0.0434004
-0.0769858
0.0682588
-0.120643
0.101207
-0.171965
-0.232728
0.142563
-0.000226882
0.011719
0.000502966
0.016341
0.00321578
0.0110734
0.00896678
-0.00346493
0.0187831
-0.0262057
0.0337374
-0.0575624
0.0549488
-0.0981973
0.0835095
-0.149203
0.120763
-0.209218
-0.278544
0.166579
6.0958e-05
0.011658
0.00151284
0.0148891
0.00540583
0.00718043
0.0128195
-0.0108786
0.0248205
-0.0382067
0.0425067
-0.0752486
0.0669975
-0.122688
0.0992801
-0.181486
0.140749
-0.250687
-0.328531
0.190736
0.000350383
0.0113077
0.00256258
0.0126769
0.0076888
0.00205421
0.0168345
-0.0200243
0.0310967
-0.0524689
0.0515806
-0.0957325
0.0793773
-0.150485
0.11532
-0.217429
0.160794
-0.296161
-0.382239
0.214502
0.000647941
0.0106597
0.0036435
0.00968137
0.0100444
-0.00434673
0.0209741
-0.0309539
0.0375472
-0.0690421
0.060855
-0.11904
0.0919253
-0.181555
0.131389
-0.256893
0.180541
-0.345313
-0.439075
0.237378
0.000950151
0.00970957
0.00474817
0.00588335
0.0124552
-0.0120538
0.0252044
-0.0437031
0.0441124
-0.0879501
0.0702307
-0.145159
0.104484
-0.215808
0.147257
-0.299666
0.199653
-0.397709
-0.498327
0.258905
0.00125553
0.00845404
0.00587063
0.00126826
0.0149062
-0.0210894
0.029495
-0.0582918
0.0507362
-0.109191
0.0796123
-0.174035
0.116899
-0.253095
0.162699
-0.345466
0.217811
-0.452822
-0.559188
0.278672
0.0015633
0.00689073
0.00700632
-0.00417476
0.0173846
-0.0314677
0.0338179
-0.0747251
0.0573652
-0.132739
0.0889062
-0.205576
0.129018
-0.293206
0.177499
-0.393947
0.234714
-0.510036
-0.620806
0.296332
0.00187318
0.00501755
0.00815184
-0.0104534
0.0198793
-0.0431952
0.0381469
-0.0929927
0.0639466
-0.158538
0.0980185
-0.239648
0.14069
-0.335878
0.191449
-0.444706
0.250077
-0.568664
-0.682363
0.311634
0.00218525
0.0028323
0.00930456
-0.0175727
0.02238
-0.0562706
0.0424559
-0.113069
0.0704268
-0.186509
0.106853
-0.276074
0.151764
-0.380789
0.204353
-0.497295
0.263642
-0.627953
-0.743172
0.324451
0.00249982
0.00033248
0.0104622
-0.0255351
0.0248765
-0.0706849
0.046718
-0.13491
0.0767494
-0.216541
0.115309
-0.314633
0.162091
-0.427571
0.216036
-0.55124
0.275203
-0.68712
-0.802865
0.334895
0.00281726
-0.00248478
0.0116223
-0.0343402
0.0273578
-0.0864204
0.050904
-0.158456
0.0828539
-0.248491
0.123281
-0.35506
0.17152
-0.47581
0.226303
-0.606023
0.284723
-0.74554
-0.861867
0.343725
0.00313782
-0.0056226
0.0127821
-0.0439845
0.0298113
-0.10345
0.0549814
-0.183626
0.0886755
-0.282185
0.130659
-0.397044
0.179886
-0.525037
0.234833
-0.660971
0.292392
-0.803099
-0.931355
0.36188
0.00346153
-0.00908413
0.0139376
-0.0544606
0.0322223
-0.121734
0.0589145
-0.210319
0.094146
-0.317416
0.137336
-0.440234
0.187043
-0.574744
0.241443
-0.71537
0.297227
-0.858883
-0.993439
0.359311
0.00378805
-0.0128722
0.0150839
-0.0657565
0.0345738
-0.141224
0.0626641
-0.238409
0.0991953
-0.353947
0.14321
-0.484248
0.192879
-0.624413
0.246054
-0.768545
0.299397
-0.912226
-1.04915
0.355108
0.00411657
-0.0169887
0.0162146
-0.0778545
0.0368461
-0.161856
0.0661879
-0.267751
0.103753
-0.391512
0.14819
-0.528685
0.197311
-0.673534
0.248696
-0.819931
0.299206
-0.962737
-1.0993
0.349351
0.00444578
-0.0214345
0.0173217
-0.0907304
0.0390167
-0.183551
0.0694413
-0.298175
0.107751
-0.429822
0.152198
-0.573132
0.200285
-0.721622
0.249412
-0.869058
0.296759
-1.01008
-1.14446
0.341927
0.00477381
-0.0262083
0.0183958
-0.104352
0.0410613
-0.206216
0.0723787
-0.329493
0.111124
-0.468567
0.15517
-0.617178
0.201775
-0.768226
0.248264
-0.915547
0.292202
-1.05402
-1.18508
0.332822
0.00509826
-0.0313066
0.0194262
-0.11868
0.0429536
-0.229743
0.074955
-0.361494
0.113816
-0.507429
0.157061
-0.660422
0.201779
-0.812945
0.245334
-0.959102
0.285708
-1.0944
-1.22149
0.322112
0.00541622
-0.0367228
0.020401
-0.133665
0.0446667
-0.254009
0.0771267
-0.393954
0.115778
-0.54608
0.157841
-0.702485
0.200324
-0.855427
0.240725
-0.999502
0.277461
-1.13113
-1.25395
0.309922
0.00572433
-0.0424471
0.0213073
-0.149248
0.0461733
-0.278875
0.078854
-0.426635
0.116972
-0.584198
0.157503
-0.743016
0.197458
-0.895383
0.234557
-1.0366
0.26765
-1.16422
-1.2827
0.296406
0.00601887
-0.048466
0.0221318
-0.165361
0.0474469
-0.30419
0.080102
-0.45929
0.117371
-0.621467
0.156056
-0.781701
0.19325
-0.932577
0.226962
-1.07031
0.25646
-1.19372
-1.30797
0.281727
0.00629583
-0.0547618
0.0228611
-0.181926
0.0484626
-0.329792
0.0808421
-0.491669
0.116963
-0.657588
0.153526
-0.818264
0.187785
-0.966836
0.218079
-1.10061
0.244071
-1.21971
-1.32995
0.266044
0.00655103
-0.0613129
0.0234819
-0.198857
0.0491981
-0.355508
0.0810526
-0.523524
0.115747
-0.692282
0.149957
-0.852475
0.181159
-0.998038
0.208049
-1.1275
0.23065
-1.24232
-1.34881
0.24951
0.00678021
-0.0680931
0.0239816
-0.216059
0.0496341
-0.38116
0.0807196
-0.554609
0.113735
-0.725297
0.145404
-0.884144
0.173475
-1.02611
0.197012
-1.15103
0.216354
-1.26166
-1.36472
0.232264
0.00697915
-0.0750722
0.0243484
-0.233428
0.0497549
-0.406567
0.0798372
-0.584692
0.110949
-0.756409
0.139931
-0.913126
0.164841
-1.05102
0.185103
-1.1713
0.201325
-1.27788
-1.37782
0.214432
0.00714375
-0.082216
0.024572
-0.250856
0.0495491
-0.431544
0.0784074
-0.61355
0.107423
-0.785425
0.133612
-0.939315
0.155365
-1.07277
0.172448
-1.18838
0.185689
-1.29112
-1.38826
0.196125
0.00727014
-0.0894861
0.0246434
-0.268229
0.0490096
-0.45591
0.0764394
-0.64098
0.103196
-0.812181
0.126523
-0.962642
0.145154
-1.0914
0.159165
-1.20239
0.169562
-1.30152
-1.39614
0.177441
0.00735475
-0.0968409
0.0245554
-0.28543
0.0481336
-0.479488
0.0739495
-0.666796
0.0983164
-0.836548
0.118744
-0.98307
0.134309
-1.10697
0.145365
-1.21345
0.153045
-1.3092
-1.40156
0.158466
0.00739441
-0.104235
0.024303
-0.302339
0.0469228
-0.502108
0.0709598
-0.690833
0.0928356
-0.858424
0.110356
-1.00059
0.122927
-1.11954
0.131144
-1.22166
0.136225
-1.31428
-1.40461
0.139275
0.00738641
-0.111622
0.0238826
-0.318835
0.0453831
-0.523609
0.0674977
-0.712947
0.0868088
-0.877735
0.101437
-1.01522
0.1111
-1.1292
0.116593
-1.22716
0.119183
-1.31687
-1.40536
0.119935
0.00732852
-0.11895
0.0232933
-0.3348
0.0435242
-0.54384
0.0635947
-0.733018
0.0802931
-0.894434
0.0920633
-1.02699
0.0989111
-1.13605
0.101791
-1.23004
0.101985
-1.31706
-1.40388
0.100505
0.00721908
-0.126169
0.0225357
-0.350116
0.0413594
-0.562663
0.0592856
-0.750944
0.0733463
-0.908494
0.0823091
-1.03595
0.0864379
-1.14018
0.08681
-1.23041
0.084695
-1.31495
-1.40022
0.0810371
0.00705701
-0.133226
0.0216125
-0.364672
0.0389048
-0.579956
0.0546074
-0.766647
0.0660255
-0.919913
0.0722431
-1.04217
0.0737509
-1.14169
0.071713
-1.22837
0.0673645
-1.3106
-1.39443
0.0615759
0.0068418
-0.140068
0.0205284
-0.378358
0.0361792
-0.595607
0.0495989
-0.780066
0.0583869
-0.928701
0.0619306
-1.04571
0.0609146
-1.14067
0.056557
-1.22401
0.0500431
-1.30409
-1.38655
0.0421627
0.00657357
-0.146642
0.0192896
-0.391074
0.0332037
-0.609521
0.0442992
-0.791162
0.0504845
-0.934886
0.0514318
-1.04666
0.0479872
-1.13723
0.0413937
-1.21742
0.0327742
-1.29547
-1.37661
0.0228301
0.00625301
-0.152895
0.0179038
-0.402725
0.0300006
-0.621617
0.0387481
-0.799909
0.0423703
-0.938508
0.0408028
-1.04509
0.0350213
-1.13144
0.0262704
-1.20867
0.0156048
-1.2848
-1.36455
0.00354744
0.00588138
-0.158776
0.0163803
-0.413224
0.0265937
-0.631831
0.0329844
-0.8063
0.0340933
-0.939617
0.030095
-1.04109
0.0220635
-1.12341
0.0112215
-1.19783
-0.0013662
-1.27221
-1.35047
-0.0154468
0.00546049
-0.164237
0.0147292
-0.422493
0.0230074
-0.640109
0.0270464
-0.810339
0.0257
-0.938271
0.019356
-1.03475
0.00915763
-1.11321
-0.00372737
-1.18494
-0.0183123
-1.25763
-1.33451
-0.0342757
0.00499268
-0.169229
0.0129618
-0.430462
0.0192665
-0.646414
0.0209711
-0.812044
0.0172336
-0.934533
0.00862858
-1.02614
-0.00365489
-1.10093
-0.0184669
-1.17013
-0.0350081
-1.24109
-1.31662
-0.0528967
0.00448071
-0.17371
0.0110898
-0.437071
0.0153959
-0.65072
0.0147941
-0.811442
0.00873452
-0.928473
-0.00205109
-1.01536
-0.0163327
-1.08665
-0.0330453
-1.15342
-0.0514732
-1.22266
-1.29682
-0.071271
0.00392782
-0.177638
0.00912563
-0.442269
0.0114204
-0.653015
0.00854936
-0.808571
0.000240824
-0.920165
-0.0126312
-1.00249
-0.0288513
-1.07043
-0.0474108
-1.13486
-0.0676842
-1.20238
-1.27514
-0.0893692
0.00333759
-0.180975
0.00708178
-0.446013
0.00736454
-0.653297
0.00227117
-0.803477
-0.00821332
-0.90968
-0.0230958
-0.987605
-0.0411785
-1.05235
-0.0615324
-1.1145
-0.0836147
-1.1803
-1.25159
-0.107164
0.00271403
-0.183689
0.00497305
-0.448272
0.00325446
-0.651579
-0.00401688
-0.796206
-0.0165968
-0.8971
-0.0334095
-0.970792
-0.053286
-1.03247
-0.0753819
-1.09241
-0.0992381
-1.15645
-1.2262
-0.12463
0.00206168
-0.185751
0.0028155
-0.449026
-0.000883872
-0.647879
-0.0102826
-0.786807
-0.0248804
-0.882503
-0.0435447
-0.952128
-0.0651477
-1.01087
-0.0889331
-1.06862
-0.114528
-1.13085
-1.19898
-0.141741
0.00138654
-0.187138
0.000637119
-0.448276
-0.00506836
-0.642174
-0.0165008
-0.775375
-0.033037
-0.865966
-0.0534761
-0.931689
-0.0767397
-0.987603
-0.102161
-1.0432
-0.129457
-1.10356
-1.16997
-0.158474
0.000687872
-0.187825
-0.0015939
-0.445995
-0.00922903
-0.634539
-0.0226462
-0.761958
-0.0410424
-0.84757
-0.0631809
-0.90955
-0.08804
-0.962744
-0.115041
-1.0162
-0.143999
-1.0746
-1.13916
-0.174803
-5.59997e-05
-0.187769
-0.00384371
-0.442207
-0.0133617
-0.625021
-0.0286964
-0.746623
-0.0488743
-0.827392
-0.0726385
-0.885786
-0.0990284
-0.936354
-0.127551
-0.987677
-0.158125
-1.04402
-1.10659
-0.1907
-0.000770467
-0.186999
-0.0060893
-0.436888
-0.0174493
-0.613661
-0.0346308
-0.729442
-0.0565124
-0.805511
-0.0818302
-0.860468
-0.109687
-0.908498
-0.139669
-0.957695
-0.171809
-1.01188
-1.07225
-0.206142
-0.00150507
-0.185494
-0.00832377
-0.430069
-0.021475
-0.60051
-0.0404305
-0.710486
-0.0639385
-0.782003
-0.0907394
-0.833667
-0.119998
-0.879239
-0.151378
-0.926314
-0.185028
-0.978234
-1.03619
-0.221096
-0.00224406
-0.18325
-0.0105367
-0.421777
-0.0254232
-0.585623
-0.046078
-0.689831
-0.0711361
-0.756944
-0.0993507
-0.805453
-0.129948
-0.848641
-0.162662
-0.893601
-0.19774
-0.943155
-0.99846
-0.235466
-0.00298211
-0.180268
-0.0127176
-0.412041
-0.0292791
-0.569062
-0.0515573
-0.667553
-0.0780901
-0.730412
-0.107651
-0.775892
-0.139525
-0.816767
-0.173504
-0.859621
-0.209895
-0.906764
-0.959092
-0.249264
-0.00371466
-0.176553
-0.0148564
-0.400899
-0.0330291
-0.550889
-0.0568541
-0.643728
-0.0847871
-0.702479
-0.115627
-0.745052
-0.148721
-0.783673
-0.183897
-0.824446
-0.221098
-0.869563
-0.91982
-0.26037
-0.00443743
-0.172116
-0.0169437
-0.388393
-0.0366603
-0.531172
-0.0619551
-0.618433
-0.0912147
-0.673219
-0.12327
-0.712997
-0.157527
-0.749416
-0.193855
-0.788118
-0.232272
-0.831146
-0.87927
-0.272821
-0.00514637
-0.166969
-0.0189705
-0.374569
-0.0401611
-0.509982
-0.0668483
-0.591746
-0.0973619
-0.642706
-0.130568
-0.679791
-0.165931
-0.714052
-0.203359
-0.750691
-0.242918
-0.791587
-0.837448
-0.28474
-0.00583761
-0.161132
-0.0209283
-0.359478
-0.0435205
-0.48739
-0.0715226
-0.563744
-0.103218
-0.61101
-0.137512
-0.645498
-0.173924
-0.67764
-0.212398
-0.712217
-0.253034
-0.75095
-0.794448
-0.296034
-0.00650746
-0.154624
-0.0228095
-0.343176
-0.0467287
-0.46347
-0.0759682
-0.534504
-0.108775
-0.578203
-0.144093
-0.61018
-0.181498
-0.640235
-0.220966
-0.672749
-0.262628
-0.709288
-0.750354
-0.306722
-0.00715246
-0.147472
-0.0246066
-0.325722
-0.0497765
-0.4383
-0.080176
-0.504105
-0.114024
-0.544355
-0.150304
-0.5739
-0.188645
-0.601894
-0.229054
-0.63234
-0.271691
-0.666652
-0.70523
-0.316815
-0.00776933
-0.139702
-0.0263129
-0.307179
-0.0526558
-0.411957
-0.0841378
-0.472623
-0.118956
-0.509537
-0.156137
-0.536719
-0.195357
-0.562674
-0.236656
-0.591041
-0.280214
-0.623093
-0.659135
-0.326309
-0.00835501
-0.131347
-0.0279222
-0.287612
-0.0553588
-0.384521
-0.0878461
-0.440136
-0.123566
-0.473817
-0.161586
-0.498699
-0.201627
-0.522633
-0.243761
-0.548907
-0.288189
-0.578665
-0.612128
-0.335197
-0.00890664
-0.122441
-0.0294289
-0.267089
-0.0578789
-0.356071
-0.0912941
-0.40672
-0.127846
-0.437265
-0.166643
-0.459903
-0.207449
-0.481826
-0.250362
-0.505994
-0.295605
-0.533422
-0.564264
-0.343468
-0.00942158
-0.113019
-0.0308277
-0.245683
-0.0602098
-0.326689
-0.0944757
-0.372454
-0.131791
-0.399949
-0.171302
-0.420392
-0.212815
-0.440314
-0.25645
-0.462359
-0.302449
-0.487423
-0.515604
-0.35111
-0.00989742
-0.103122
-0.032114
-0.223467
-0.0623458
-0.296457
-0.0973853
-0.337415
-0.135396
-0.361939
-0.175559
-0.380229
-0.217717
-0.398156
-0.262016
-0.41806
-0.308713
-0.440726
-0.466209
-0.358108
-0.010332
-0.0927898
-0.0332834
-0.200515
-0.0642821
-0.265458
-0.100018
-0.301679
-0.138654
-0.323303
-0.179406
-0.339476
-0.22215
-0.355412
-0.267052
-0.373158
-0.314383
-0.393394
-0.416143
-0.364449
-0.0107232
-0.0820666
-0.0343323
-0.176906
-0.0660141
-0.233776
-0.102369
-0.265324
-0.141561
-0.28411
-0.182839
-0.298199
-0.226106
-0.312145
-0.271549
-0.327715
-0.319451
-0.345492
-0.365474
-0.370121
-0.0110694
-0.0709972
-0.0352572
-0.152718
-0.067538
-0.201496
-0.104435
-0.228428
-0.144115
-0.24443
-0.185853
-0.25646
-0.229582
-0.268417
-0.275501
-0.281796
-0.323907
-0.297086
-0.31427
-0.375111
-0.011369
-0.0596282
-0.0360553
-0.128032
-0.0688504
-0.168701
-0.106212
-0.191067
-0.14631
-0.204332
-0.188445
-0.214325
-0.23257
-0.224292
-0.278901
-0.235464
-0.327743
-0.248244
-0.262606
-0.379408
-0.0116207
-0.0480075
-0.0367241
-0.102929
-0.0699484
-0.135476
-0.107697
-0.153318
-0.148144
-0.163885
-0.19061
-0.171859
-0.235068
-0.179834
-0.281744
-0.188788
-0.330951
-0.199037
-0.210554
-0.383003
-0.0118234
-0.0361841
-0.0372616
-0.0774904
-0.0708296
-0.101908
-0.108888
-0.11526
-0.149614
-0.123158
-0.192346
-0.129127
-0.237071
-0.13511
-0.284024
-0.141835
-0.333525
-0.149536
-0.15819
-0.385889
-0.0119762
-0.024208
-0.0376661
-0.0518004
-0.0714921
-0.0680823
-0.109783
-0.076969
-0.150719
-0.0822219
-0.19365
-0.0861957
-0.238575
-0.0901849
-0.285737
-0.094673
-0.335459
-0.0998142
-0.105591
-0.388058
-0.0120784
-0.0121296
-0.0379365
-0.0259423
-0.0719346
-0.0340842
-0.11038
-0.0385232
-0.151456
-0.0411459
-0.194521
-0.0431312
-0.23958
-0.045126
-0.286881
-0.0473714
-0.336751
-0.0499441
-0.0528347
-0.389507
-0.0121296
-8.765e-11
-0.0380719
-1.77365e-10
-0.0721561
-1.73539e-10
-0.110679
-1.01086e-10
-0.151825
1.64362e-12
-0.194956
9.39691e-11
-0.240082
1.63041e-10
-0.287454
2.08249e-10
-0.337398
2.33463e-10
2.49226e-10
-0.390233
-0.0121296
0.0121296
-0.0380719
0.0259423
-0.0721561
0.0340842
-0.110679
0.0385232
-0.151825
0.0411459
-0.194956
0.0431312
-0.240082
0.045126
-0.287454
0.0473714
-0.337398
0.0499441
0.0528347
-0.390233
-0.0120784
0.024208
-0.0379365
0.0518004
-0.0719346
0.0680823
-0.11038
0.076969
-0.151456
0.0822219
-0.194521
0.0861957
-0.23958
0.0901849
-0.286881
0.094673
-0.336751
0.0998142
0.105591
-0.389507
-0.0119762
0.0361841
-0.0376661
0.0774904
-0.0714921
0.101908
-0.109783
0.11526
-0.150719
0.123158
-0.19365
0.129127
-0.238575
0.13511
-0.285737
0.141835
-0.335459
0.149536
0.15819
-0.388058
-0.0118234
0.0480075
-0.0372616
0.102929
-0.0708296
0.135476
-0.108888
0.153318
-0.149614
0.163885
-0.192346
0.171859
-0.237071
0.179834
-0.284024
0.188788
-0.333525
0.199037
0.210554
-0.385889
-0.0116207
0.0596282
-0.0367241
0.128032
-0.0699484
0.168701
-0.107697
0.191067
-0.148144
0.204332
-0.19061
0.214325
-0.235068
0.224292
-0.281744
0.235464
-0.330951
0.248244
0.262606
-0.383003
-0.011369
0.0709972
-0.0360553
0.152718
-0.0688504
0.201496
-0.106212
0.228428
-0.14631
0.24443
-0.188445
0.25646
-0.23257
0.268417
-0.278901
0.281796
-0.327743
0.297086
0.31427
-0.379408
-0.0110694
0.0820666
-0.0352572
0.176906
-0.067538
0.233776
-0.104435
0.265324
-0.144115
0.28411
-0.185853
0.298199
-0.229582
0.312145
-0.275501
0.327715
-0.323907
0.345492
0.365474
-0.375111
-0.0107232
0.0927898
-0.0343323
0.200515
-0.0660141
0.265458
-0.102369
0.301679
-0.141561
0.323303
-0.182839
0.339476
-0.226106
0.355412
-0.271549
0.373158
-0.319451
0.393394
0.416143
-0.370121
-0.010332
0.103122
-0.0332834
0.223467
-0.0642821
0.296457
-0.100018
0.337415
-0.138654
0.361939
-0.179406
0.380229
-0.22215
0.398156
-0.267052
0.41806
-0.314383
0.440726
0.466209
-0.364449
-0.00989742
0.113019
-0.032114
0.245683
-0.0623458
0.326689
-0.0973853
0.372454
-0.135396
0.399949
-0.175559
0.420392
-0.217717
0.440314
-0.262016
0.462359
-0.308713
0.487423
0.515604
-0.358108
-0.00942158
0.122441
-0.0308277
0.267089
-0.0602098
0.356071
-0.0944757
0.40672
-0.131791
0.437265
-0.171302
0.459903
-0.212815
0.481826
-0.25645
0.505994
-0.302449
0.533422
0.564264
-0.35111
-0.00890664
0.131347
-0.0294289
0.287612
-0.0578789
0.384521
-0.0912941
0.440136
-0.127846
0.473817
-0.166643
0.498699
-0.207449
0.522633
-0.250362
0.548907
-0.295605
0.578665
0.612128
-0.343468
-0.00835501
0.139702
-0.0279222
0.307179
-0.0553588
0.411957
-0.0878461
0.472623
-0.123566
0.509537
-0.161586
0.536719
-0.201627
0.562674
-0.243761
0.591041
-0.288189
0.623093
0.659135
-0.335197
-0.00776933
0.147472
-0.0263129
0.325722
-0.0526558
0.4383
-0.0841378
0.504105
-0.118956
0.544355
-0.156137
0.5739
-0.195357
0.601894
-0.236656
0.63234
-0.280214
0.666652
0.70523
-0.326309
-0.00715246
0.154624
-0.0246066
0.343176
-0.0497765
0.46347
-0.080176
0.534504
-0.114024
0.578203
-0.150304
0.61018
-0.188645
0.640235
-0.229054
0.672749
-0.271691
0.709288
0.750354
-0.316815
-0.00650746
0.161132
-0.0228095
0.359478
-0.0467287
0.48739
-0.0759682
0.563744
-0.108775
0.61101
-0.144093
0.645498
-0.181498
0.67764
-0.220966
0.712217
-0.262628
0.75095
0.794448
-0.306722
-0.00583761
0.166969
-0.0209283
0.374569
-0.0435205
0.509982
-0.0715226
0.591746
-0.103218
0.642706
-0.137512
0.679791
-0.173924
0.714052
-0.212398
0.750691
-0.253034
0.791587
0.837448
-0.296034
-0.00514637
0.172116
-0.0189705
0.388393
-0.0401611
0.531172
-0.0668483
0.618433
-0.0973619
0.673219
-0.130568
0.712997
-0.165931
0.749416
-0.203359
0.788118
-0.242918
0.831146
0.87927
-0.28474
-0.00443743
0.176553
-0.0169437
0.400899
-0.0366603
0.550889
-0.0619551
0.643728
-0.0912147
0.702479
-0.12327
0.745052
-0.157527
0.783673
-0.193855
0.824446
-0.232272
0.869563
0.91982
-0.272821
-0.00371466
0.180268
-0.0148564
0.412041
-0.0330291
0.569062
-0.0568541
0.667553
-0.0847871
0.730412
-0.115627
0.775892
-0.148721
0.816767
-0.183897
0.859621
-0.221098
0.906764
0.959092
-0.26037
-0.00298211
0.18325
-0.0127176
0.421777
-0.0292791
0.585623
-0.0515573
0.689831
-0.0780901
0.756944
-0.107651
0.805453
-0.139525
0.848641
-0.173504
0.893601
-0.209895
0.943155
0.99846
-0.249264
-0.00224406
0.185494
-0.0105367
0.430069
-0.0254232
0.60051
-0.046078
0.710486
-0.0711361
0.782003
-0.0993507
0.833667
-0.129948
0.879239
-0.162662
0.926314
-0.19774
0.978234
1.03619
-0.235466
-0.00150507
0.186999
-0.00832377
0.436888
-0.021475
0.613661
-0.0404305
0.729442
-0.0639385
0.805511
-0.0907394
0.860468
-0.119998
0.908498
-0.151378
0.957695
-0.185028
1.01188
1.07225
-0.221096
-0.000770467
0.187769
-0.0060893
0.442207
-0.0174493
0.625021
-0.0346308
0.746623
-0.0565124
0.827392
-0.0818302
0.885786
-0.109687
0.936354
-0.139669
0.987677
-0.171809
1.04402
1.10659
-0.206142
-5.59997e-05
0.187825
-0.00384371
0.445995
-0.0133617
0.634539
-0.0286964
0.761958
-0.0488743
0.84757
-0.0726385
0.90955
-0.0990284
0.962744
-0.127551
1.0162
-0.158125
1.0746
1.13916
-0.1907
0.000687872
0.187138
-0.0015939
0.448276
-0.00922903
0.642174
-0.0226462
0.775375
-0.0410424
0.865966
-0.0631809
0.931689
-0.08804
0.987603
-0.115041
1.0432
-0.143999
1.10356
1.16997
-0.174803
0.00138654
0.185751
0.000637119
0.449026
-0.00506836
0.647879
-0.0165008
0.786807
-0.033037
0.882503
-0.0534761
0.952128
-0.0767397
1.01087
-0.102161
1.06862
-0.129457
1.13085
1.19898
-0.158474
0.00206168
0.183689
0.0028155
0.448272
-0.000883872
0.651579
-0.0102826
0.796206
-0.0248804
0.8971
-0.0435447
0.970792
-0.0651477
1.03247
-0.0889331
1.09241
-0.114528
1.15645
1.2262
-0.141741
0.00271403
0.180975
0.00497305
0.446013
0.00325446
0.653297
-0.00401688
0.803477
-0.0165968
0.90968
-0.0334095
0.987605
-0.053286
1.05235
-0.0753819
1.1145
-0.0992381
1.1803
1.25159
-0.12463
0.00333759
0.177638
0.00708178
0.442269
0.00736454
0.653015
0.00227117
0.808571
-0.00821332
0.920165
-0.0230958
1.00249
-0.0411785
1.07043
-0.0615324
1.13486
-0.0836147
1.20238
1.27514
-0.107164
0.00392782
0.17371
0.00912563
0.437071
0.0114204
0.65072
0.00854936
0.811442
0.000240823
0.928473
-0.0126312
1.01536
-0.0288513
1.08665
-0.0474108
1.15342
-0.0676842
1.22266
1.29682
-0.0893692
0.00448071
0.169229
0.0110898
0.430462
0.0153959
0.646414
0.0147941
0.812044
0.00873452
0.934533
-0.00205109
1.02614
-0.0163327
1.10093
-0.0330453
1.17013
-0.0514732
1.24109
1.31662
-0.071271
0.00499268
0.164237
0.0129618
0.422493
0.0192665
0.640109
0.0209711
0.810339
0.0172336
0.938271
0.00862858
1.03475
-0.00365489
1.11321
-0.0184669
1.18494
-0.0350081
1.25763
1.33451
-0.0528967
0.00546049
0.158776
0.0147292
0.413224
0.0230074
0.631831
0.0270464
0.8063
0.0257
0.939617
0.019356
1.04109
0.00915763
1.12341
-0.00372737
1.19783
-0.0183123
1.27221
1.35047
-0.0342757
0.00588138
0.152895
0.0163803
0.402725
0.0265937
0.621617
0.0329844
0.799909
0.0340933
0.938508
0.030095
1.04509
0.0220635
1.13144
0.0112215
1.20867
-0.0013662
1.2848
1.36455
-0.0154468
0.00625301
0.146642
0.0179038
0.391074
0.0300006
0.609521
0.0387481
0.791162
0.0423703
0.934886
0.0408028
1.04666
0.0350213
1.13723
0.0262704
1.21742
0.0156048
1.29547
1.37661
0.00354744
0.00657357
0.140068
0.0192896
0.378358
0.0332037
0.595607
0.0442992
0.780066
0.0504845
0.928701
0.0514318
1.04571
0.0479872
1.14067
0.0413937
1.22401
0.0327742
1.30409
1.38655
0.0228301
0.0068418
0.133226
0.0205284
0.364672
0.0361792
0.579956
0.0495989
0.766647
0.0583869
0.919913
0.0619306
1.04217
0.0609146
1.14169
0.056557
1.22837
0.0500431
1.3106
1.39443
0.0421627
0.00705701
0.126169
0.0216125
0.350116
0.0389048
0.562663
0.0546074
0.750944
0.0660255
0.908494
0.0722431
1.03595
0.0737509
1.14018
0.071713
1.23041
0.0673645
1.31495
1.40022
0.0615759
0.00721908
0.11895
0.0225357
0.3348
0.0413594
0.54384
0.0592856
0.733018
0.0733463
0.894434
0.0823091
1.02699
0.0864379
1.13605
0.08681
1.23004
0.084695
1.31706
1.40388
0.0810371
0.00732852
0.111622
0.0232933
0.318835
0.0435242
0.523609
0.0635947
0.712947
0.0802931
0.877735
0.0920633
1.01522
0.0989111
1.1292
0.101791
1.22716
0.101985
1.31687
1.40536
0.100505
0.00738641
0.104235
0.0238826
0.302339
0.0453831
0.502108
0.0674977
0.690833
0.0868088
0.858424
0.101437
1.00059
0.1111
1.11954
0.116593
1.22166
0.119183
1.31428
1.40461
0.119935
0.00739441
0.0968409
0.024303
0.28543
0.0469228
0.479488
0.0709598
0.666796
0.0928356
0.836548
0.110356
0.98307
0.122927
1.10697
0.131144
1.21345
0.136225
1.3092
1.40156
0.139275
0.00735475
0.0894861
0.0245554
0.268229
0.0481336
0.45591
0.0739495
0.64098
0.0983164
0.812182
0.118744
0.962642
0.134309
1.0914
0.145365
1.20239
0.153045
1.30152
1.39614
0.158466
0.00727014
0.082216
0.0246434
0.250856
0.0490096
0.431544
0.0764394
0.61355
0.103196
0.785425
0.126523
0.939315
0.145154
1.07277
0.159165
1.18838
0.169562
1.29112
1.38826
0.177441
0.00714375
0.0750722
0.024572
0.233428
0.0495491
0.406567
0.0784074
0.584692
0.107423
0.756409
0.133612
0.913126
0.155365
1.05102
0.172448
1.1713
0.185689
1.27788
1.37782
0.196125
0.00697915
0.0680931
0.0243484
0.216059
0.0497549
0.38116
0.0798372
0.554609
0.110949
0.725297
0.139931
0.884144
0.164841
1.02611
0.185103
1.15103
0.201325
1.26166
1.36472
0.214432
0.00678021
0.0613129
0.0239816
0.198857
0.0496341
0.355508
0.0807196
0.523524
0.113735
0.692282
0.145404
0.852475
0.173475
0.998038
0.197012
1.1275
0.216354
1.24232
1.34881
0.232264
0.00655103
0.0547618
0.0234819
0.181926
0.0491981
0.329792
0.0810526
0.491669
0.115747
0.657588
0.149957
0.818264
0.181159
0.966836
0.208049
1.10061
0.23065
1.21971
1.32995
0.24951
0.00629583
0.048466
0.0228611
0.165361
0.0484626
0.30419
0.0808421
0.45929
0.116963
0.621467
0.153526
0.781701
0.187785
0.932577
0.218079
1.07031
0.244071
1.19372
1.30797
0.266044
0.00601887
0.0424471
0.0221318
0.149248
0.0474469
0.278875
0.080102
0.426635
0.117371
0.584198
0.156056
0.743016
0.19325
0.895383
0.226962
1.0366
0.25646
1.16422
1.2827
0.281727
0.00572433
0.0367228
0.0213073
0.133665
0.0461733
0.254009
0.078854
0.393954
0.116972
0.54608
0.157503
0.702485
0.197458
0.855427
0.234557
0.999502
0.26765
1.13113
1.25395
0.296406
0.00541622
0.0313066
0.020401
0.11868
0.0446667
0.229743
0.0771267
0.361494
0.115778
0.507429
0.157841
0.660422
0.200324
0.812945
0.240725
0.959102
0.277461
1.0944
1.22149
0.309922
0.00509826
0.0262083
0.0194262
0.104352
0.0429536
0.206216
0.074955
0.329493
0.113816
0.468567
0.157061
0.617178
0.201779
0.768226
0.245334
0.915547
0.285708
1.05402
1.18508
0.322112
0.00477381
0.0214345
0.0183958
0.0907304
0.0410613
0.183551
0.0723787
0.298175
0.111124
0.429822
0.15517
0.573132
0.201775
0.721622
0.248264
0.869058
0.292202
1.01008
1.14446
0.332822
0.00444578
0.0169887
0.0173217
0.0778545
0.0390167
0.161856
0.0694413
0.267751
0.107751
0.391512
0.152198
0.528685
0.200285
0.673534
0.249412
0.819931
0.296759
0.962737
1.0993
0.341927
0.00411657
0.0128722
0.0162146
0.0657565
0.0368461
0.141224
0.0661879
0.238409
0.103753
0.353947
0.14819
0.484248
0.197311
0.624413
0.248696
0.768545
0.299206
0.912226
1.04915
0.349351
0.00378805
0.00908413
0.0150839
0.0544606
0.0345738
0.121734
0.0626641
0.210319
0.0991953
0.317416
0.14321
0.440234
0.192879
0.574744
0.246054
0.71537
0.299397
0.858883
0.993439
0.355108
0.00346153
0.0056226
0.0139376
0.0439845
0.0322223
0.10345
0.0589145
0.183626
0.094146
0.282185
0.137336
0.397044
0.187043
0.525037
0.241443
0.660971
0.297227
0.803099
0.931355
0.359311
0.00313782
0.00248478
0.0127821
0.0343402
0.0298113
0.0864204
0.0549814
0.158456
0.0886755
0.248491
0.130659
0.35506
0.179886
0.47581
0.234833
0.606023
0.292392
0.74554
0.861867
0.36188
0.00281726
-0.00033248
0.0116223
0.0255351
0.0273578
0.0706849
0.050904
0.13491
0.0828539
0.216541
0.123281
0.314633
0.17152
0.427571
0.226303
0.55124
0.284723
0.68712
0.802865
0.343725
0.00249982
-0.0028323
0.0104622
0.0175727
0.0248765
0.0562706
0.046718
0.113069
0.0767494
0.186509
0.115309
0.276074
0.162091
0.380789
0.216036
0.497295
0.275203
0.627953
0.743172
0.334895
0.00218525
-0.00501755
0.00930456
0.0104534
0.02238
0.0431952
0.0424559
0.0929927
0.0704268
0.158538
0.106853
0.239648
0.151764
0.335878
0.204353
0.444706
0.263642
0.568664
0.682363
0.324451
0.00187318
-0.00689073
0.00815184
0.00417476
0.0198793
0.0314677
0.0381469
0.0747251
0.0639466
0.132739
0.0980185
0.205576
0.14069
0.293206
0.191449
0.393947
0.250077
0.510036
0.620806
0.311634
0.0015633
-0.00845404
0.00700632
-0.00126826
0.0173846
0.0210894
0.0338179
0.0582918
0.0573652
0.109191
0.0889062
0.174035
0.129018
0.253095
0.177499
0.345466
0.234714
0.452822
0.559188
0.296332
0.00125553
-0.00970957
0.00587063
-0.00588335
0.0149062
0.0120538
0.029495
0.0437031
0.0507362
0.0879501
0.0796123
0.145159
0.116899
0.215808
0.162699
0.299666
0.217811
0.397709
0.498327
0.278672
0.000950151
-0.0106597
0.00474817
-0.00968137
0.0124552
0.00434674
0.0252044
0.0309539
0.0441124
0.0690421
0.0702307
0.11904
0.104484
0.181555
0.147257
0.256893
0.199653
0.345313
0.439076
0.258905
0.000647941
-0.0113077
0.0036435
-0.0126769
0.0100444
-0.00205421
0.0209741
0.0200243
0.0375472
0.052469
0.060855
0.0957325
0.0919253
0.150485
0.131389
0.217429
0.180541
0.296161
0.382239
0.237378
0.000350383
-0.011658
0.00256258
-0.0148891
0.0076888
-0.00718043
0.0168345
0.0108786
0.0310967
0.0382067
0.0515806
0.0752486
0.0793773
0.122688
0.11532
0.181486
0.160794
0.250687
0.328531
0.214502
6.0958e-05
-0.011719
0.00151284