/*--------------------------------*- C++ -*----------------------------------*\
  =========                 |
  \\      /  F ield         | OpenFOAM: The Open Source CFD Toolbox
   \\    /   O peration     | Website:  https://openfoam.org
    \\  /    A nd           | Version:  9
     \\/     M anipulation  |
\*---------------------------------------------------------------------------*/
FoamFile
{
    format      ascii;
    class       volScalarField;
    location    "43.4";
    object      p;
}
// * * * * * * * * * * * * * * * * * * * * * * * * * * * * * * * * * * * * * //

dimensions      [0 2 -2 0 0 0 0];

internalField   nonuniform List<scalar> 
8500
(
-0.285382
-0.289596
-0.290432
-0.29218
-0.294266
-0.294513
-0.298267
-0.294643
-0.300816
-0.293502
-0.285647
-0.289799
-0.290629
-0.292346
-0.294464
-0.294607
-0.298564
-0.294578
-0.301229
-0.293389
-0.28617
-0.290201
-0.291017
-0.29267
-0.294853
-0.294784
-0.29915
-0.294433
-0.302051
-0.293161
-0.286937
-0.29079
-0.291583
-0.293137
-0.295415
-0.295025
-0.300004
-0.294177
-0.303269
-0.292816
-0.287931
-0.291552
-0.292307
-0.293724
-0.296125
-0.295303
-0.301091
-0.293774
-0.30486
-0.292347
-0.289128
-0.292466
-0.293169
-0.294406
-0.296948
-0.295591
-0.302359
-0.293187
-0.306783
-0.291737
-0.290502
-0.293513
-0.294141
-0.295152
-0.29784
-0.295868
-0.303731
-0.292389
-0.308983
-0.290928
-0.292028
-0.294671
-0.295196
-0.295935
-0.29875
-0.296118
-0.305113
-0.291366
-0.311368
-0.28991
-0.293678
-0.295918
-0.296305
-0.296728
-0.29962
-0.296339
-0.306387
-0.290192
-0.313498
-0.288891
-0.29543
-0.297235
-0.29744
-0.297512
-0.300394
-0.296545
-0.307337
-0.289097
-0.315298
-0.287497
-0.297265
-0.298607
-0.298577
-0.298268
-0.301013
-0.296823
-0.307829
-0.287975
-0.316725
-0.285881
-0.299169
-0.300022
-0.299697
-0.298991
-0.301373
-0.297218
-0.307876
-0.286897
-0.317373
-0.284521
-0.301136
-0.301475
-0.300788
-0.299697
-0.301499
-0.297602
-0.307477
-0.286185
-0.316695
-0.283973
-0.30317
-0.302966
-0.301842
-0.300363
-0.301444
-0.297921
-0.306566
-0.286
-0.314298
-0.284266
-0.305283
-0.304501
-0.302872
-0.300971
-0.301255
-0.298155
-0.305207
-0.286265
-0.310162
-0.284596
-0.307499
-0.306087
-0.303914
-0.301525
-0.300983
-0.298111
-0.303523
-0.286612
-0.304785
-0.28387
-0.309854
-0.307747
-0.304998
-0.302058
-0.300705
-0.297752
-0.301604
-0.286653
-0.298812
-0.281562
-0.312387
-0.30951
-0.306158
-0.302608
-0.30048
-0.297097
-0.299418
-0.286195
-0.292501
-0.277691
-0.315146
-0.311413
-0.307438
-0.303212
-0.300314
-0.296256
-0.296873
-0.285164
-0.285781
-0.272675
-0.31819
-0.313495
-0.308888
-0.303897
-0.300167
-0.295351
-0.293948
-0.283419
-0.278696
-0.267295
-0.321571
-0.315808
-0.31056
-0.304662
-0.300013
-0.29442
-0.290716
-0.280734
-0.271866
-0.262038
-0.325335
-0.318418
-0.312492
-0.305492
-0.299885
-0.293403
-0.287261
-0.277056
-0.265734
-0.255515
-0.329556
-0.321379
-0.31469
-0.306398
-0.299838
-0.292178
-0.283613
-0.27265
-0.25958
-0.248772
-0.334298
-0.324755
-0.317117
-0.307459
-0.299869
-0.290639
-0.279772
-0.267651
-0.253425
-0.241984
-0.339623
-0.328598
-0.319721
-0.308808
-0.299888
-0.288727
-0.275691
-0.262261
-0.247154
-0.235106
-0.345598
-0.332919
-0.322505
-0.310519
-0.299773
-0.286413
-0.27135
-0.256572
-0.240746
-0.228204
-0.352298
-0.337671
-0.325584
-0.312516
-0.299423
-0.283694
-0.26673
-0.250645
-0.234201
-0.221212
-0.359793
-0.342757
-0.329159
-0.314596
-0.298761
-0.280574
-0.261824
-0.244505
-0.227504
-0.214127
-0.368124
-0.348071
-0.333415
-0.316544
-0.297717
-0.277057
-0.256624
-0.238153
-0.220652
-0.20691
-0.377268
-0.353555
-0.338395
-0.318206
-0.296221
-0.273136
-0.251117
-0.231579
-0.213626
-0.199542
-0.387108
-0.359221
-0.343919
-0.319484
-0.294211
-0.268793
-0.245287
-0.224765
-0.206407
-0.191995
-0.397419
-0.365144
-0.349601
-0.320303
-0.291633
-0.263998
-0.239111
-0.21769
-0.198972
-0.184247
-0.407869
-0.371424
-0.354952
-0.320571
-0.288442
-0.258716
-0.232561
-0.210328
-0.191299
-0.176279
-0.41814
-0.378121
-0.359513
-0.320176
-0.284601
-0.252908
-0.225606
-0.202654
-0.183364
-0.16807
-0.427928
-0.385202
-0.362932
-0.318985
-0.280067
-0.246541
-0.218211
-0.194637
-0.175147
-0.159604
-0.436977
-0.392495
-0.364988
-0.316863
-0.274793
-0.23958
-0.210345
-0.186251
-0.166625
-0.150865
-0.445082
-0.399674
-0.365577
-0.313682
-0.26873
-0.231994
-0.201977
-0.17747
-0.15778
-0.141837
-0.452084
-0.406284
-0.364686
-0.309343
-0.261824
-0.223748
-0.19308
-0.168272
-0.148593
-0.132516
-0.457856
-0.411799
-0.362341
-0.303778
-0.254021
-0.214808
-0.183627
-0.158636
-0.139048
-0.122912
-0.462288
-0.415743
-0.358525
-0.296937
-0.245272
-0.205143
-0.173597
-0.148544
-0.129134
-0.113047
-0.465281
-0.417781
-0.353116
-0.288776
-0.235535
-0.194722
-0.162969
-0.137979
-0.118839
-0.102942
-0.466726
-0.417633
-0.346021
-0.279252
-0.224775
-0.183521
-0.151729
-0.126927
-0.108155
-0.0925714
-0.466493
-0.415098
-0.337179
-0.268325
-0.212965
-0.171521
-0.139864
-0.115375
-0.0970917
-0.0818761
-0.464426
-0.41004
-0.326546
-0.255972
-0.200084
-0.158707
-0.127358
-0.103315
-0.0856912
-0.0707755
-0.460337
-0.402369
-0.31407
-0.242191
-0.18612
-0.145065
-0.114203
-0.0907485
-0.0740001
-0.0592467
-0.45402
-0.392026
-0.299714
-0.226987
-0.171059
-0.130591
-0.100403
-0.0777143
-0.0619937
-0.0474225
-0.445258
-0.378976
-0.283458
-0.210359
-0.154887
-0.115306
-0.0859995
-0.0642935
-0.0495594
-0.0353946
-0.43384
-0.363203
-0.265292
-0.192305
-0.137611
-0.0992759
-0.0710551
-0.0504643
-0.0367059
-0.023169
-0.419574
-0.344705
-0.245211
-0.172845
-0.119316
-0.0825568
-0.0555279
-0.0362365
-0.0234792
-0.0107523
-0.402297
-0.3235
-0.223205
-0.152067
-0.100154
-0.0650509
-0.039459
-0.0216234
-0.00992734
0.00184206
-0.381894
-0.299647
-0.199272
-0.130123
-0.0800661
-0.0468133
-0.0228885
-0.00664948
0.00390683
0.0145873
-0.358298
-0.273273
-0.173496
-0.106985
-0.0590954
-0.0279036
-0.00586021
0.00865261
0.017982
0.0274469
-0.331496
-0.244547
-0.146066
-0.0825687
-0.0373007
-0.00838798
0.0115782
0.0242433
0.0322583
0.0403765
-0.301536
-0.213499
-0.117119
-0.0569909
-0.0147493
0.0116634
0.0293725
0.0400785
0.0466992
0.0533316
-0.268539
-0.179867
-0.0870474
-0.0303955
0.00848453
0.0321754
0.047462
0.0561129
0.0612735
0.0662686
-0.232679
-0.143956
-0.0558004
-0.0029323
0.0323142
0.0530683
0.065782
0.0723051
0.075949
0.0791169
-0.194058
-0.106176
-0.0234301
0.0252524
0.0566397
0.0742568
0.0842672
0.088621
0.0906702
0.0917031
-0.15264
-0.0671583
0.00993357
0.054016
0.0813499
0.0956514
0.102855
0.105027
0.105325
0.103691
-0.108912
-0.0270623
0.0441113
0.0832157
0.106326
0.117159
0.121486
0.121464
0.119737
0.114791
-0.0632319
0.0139207
0.0788987
0.112702
0.131441
0.138684
0.140091
0.137822
0.133746
0.125321
-0.0159794
0.0555535
0.114076
0.142319
0.156565
0.16013
0.158586
0.15396
0.147298
0.136599
0.0324434
0.0975724
0.149415
0.171903
0.181564
0.181396
0.176873
0.169767
0.160595
0.148407
0.0816174
0.139696
0.18468
0.201283
0.206303
0.202375
0.194858
0.18521
0.173686
0.160257
0.131112
0.181632
0.219634
0.230286
0.230643
0.222961
0.212445
0.200244
0.186516
0.171974
0.180489
0.223081
0.254039
0.258735
0.254447
0.243041
0.229547
0.214821
0.199013
0.183374
0.229309
0.263743
0.28766
0.286454
0.277576
0.262507
0.246076
0.228884
0.21111
0.194363
0.277134
0.303318
0.320263
0.313267
0.299893
0.281249
0.261949
0.24237
0.222738
0.204861
0.323537
0.341514
0.351623
0.339002
0.321265
0.299161
0.277084
0.255218
0.233835
0.214808
0.368095
0.378052
0.38152
0.363493
0.341561
0.31614
0.291403
0.267362
0.244339
0.224156
0.4104
0.412671
0.409747
0.386576
0.360655
0.332086
0.304827
0.278742
0.254194
0.232861
0.450076
0.445115
0.436105
0.408097
0.378429
0.346907
0.317285
0.289299
0.263344
0.240885
0.486825
0.475094
0.460405
0.427911
0.394769
0.360514
0.328708
0.298978
0.271738
0.248194
0.52035
0.502352
0.482471
0.44588
0.409572
0.372825
0.339033
0.307725
0.279328
0.254758
0.55036
0.526674
0.502143
0.461884
0.422742
0.383767
0.3482
0.315492
0.286071
0.260551
0.576593
0.547872
0.519278
0.475811
0.434195
0.393272
0.356159
0.322236
0.291927
0.26555
0.598816
0.565787
0.533752
0.487566
0.443856
0.401285
0.362863
0.327918
0.296861
0.269738
0.616835
0.580284
0.545459
0.497068
0.451661
0.407755
0.368274
0.332504
0.300845
0.273102
0.63049
0.591253
0.554315
0.504253
0.45756
0.412642
0.37236
0.335967
0.303853
0.275632
0.63966
0.598611
0.560256
0.50907
0.461515
0.415917
0.375098
0.338288
0.305869
0.27732
0.644266
0.602305
0.563236
0.511487
0.463499
0.41756
0.37647
0.339452
0.30688
0.278165
0.644266
0.602305
0.563236
0.511487
0.463499
0.41756
0.37647
0.339452
0.30688
0.278165
0.63966
0.598611
0.560256
0.50907
0.461515
0.415917
0.375098
0.338288
0.305869
0.27732
0.63049
0.591253
0.554316
0.504253
0.45756
0.412642
0.37236
0.335967
0.303853
0.275632
0.616835
0.580284
0.54546
0.497068
0.451661
0.407755
0.368274
0.332504
0.300845
0.273102
0.598816
0.565787
0.533752
0.487566
0.443856
0.401285
0.362863
0.327918
0.296861
0.269738
0.576593
0.547872
0.519278
0.475811
0.434195
0.393273
0.356159
0.322237
0.291927
0.26555
0.550361
0.526674
0.502143
0.461884
0.422742
0.383767
0.3482
0.315493
0.286071
0.260551
0.52035
0.502352
0.482471
0.445881
0.409572
0.372825
0.339033
0.307725
0.279328
0.254758
0.486825
0.475094
0.460405
0.427911
0.394769
0.360514
0.328709
0.298978
0.271738
0.248194
0.450077
0.445115
0.436105
0.408097
0.378429
0.346907
0.317286
0.289299
0.263344
0.240885
0.4104
0.412671
0.409747
0.386576
0.360655
0.332087
0.304827
0.278742
0.254194
0.232861
0.368095
0.378053
0.38152
0.363493
0.341561
0.31614
0.291403
0.267362
0.24434
0.224156
0.323537
0.341515
0.351623
0.339002
0.321265
0.299161
0.277085
0.255218
0.233835
0.214808
0.277134
0.303318
0.320264
0.313267
0.299893
0.281249
0.261949
0.242371
0.222738
0.204861
0.229309
0.263743
0.28766
0.286454
0.277576
0.262507
0.246076
0.228884
0.21111
0.194363
0.180489
0.223081
0.25404
0.258735
0.254447
0.243042
0.229547
0.214821
0.199013
0.183374
0.131112
0.181632
0.219634
0.230286
0.230643
0.222961
0.212446
0.200244
0.186516
0.171974
0.0816177
0.139696
0.18468
0.201283
0.206303
0.202376
0.194858
0.18521
0.173686
0.160258
0.0324437
0.0975726
0.149415
0.171903
0.181564
0.181396
0.176873
0.169767
0.160595
0.148407
-0.0159791
0.0555537
0.114076
0.14232
0.156565
0.16013
0.158586
0.15396
0.147298
0.136599
-0.0632316
0.013921
0.0788989
0.112703
0.131441
0.138685
0.140091
0.137823
0.133746
0.125322
-0.108912
-0.027062
0.0441116
0.083216
0.106326
0.117159
0.121486
0.121465
0.119738
0.114791
-0.15264
-0.067158
0.00993387
0.0540163
0.0813502
0.0956516
0.102856
0.105028
0.105325
0.103691
-0.194057
-0.106176
-0.0234298
0.0252527
0.0566399
0.0742571
0.0842675
0.0886213
0.0906704
0.0917033
-0.232679
-0.143956
-0.0558
-0.00293199
0.0323145
0.0530685
0.0657823
0.0723053
0.0759493
0.0791171
-0.268539
-0.179866
-0.0870471
-0.0303952
0.00848483
0.0321757
0.0474623
0.0561131
0.0612738
0.0662688
-0.301536
-0.213499
-0.117119
-0.0569906
-0.014749
0.0116636
0.0293727
0.0400787
0.0466995
0.0533318
-0.331496
-0.244547
-0.146066
-0.0825683
-0.0373004
-0.00838768
0.0115785
0.0242435
0.0322585
0.0403767
-0.358297
-0.273273
-0.173496
-0.106985
-0.0590951
-0.0279033
-0.00585993
0.00865287
0.0179822
0.0274471
-0.381894
-0.299646
-0.199271
-0.130123
-0.0800658
-0.046813
-0.0228882
-0.00664921
0.00390707
0.0145875
-0.402297
-0.323499
-0.223204
-0.152067
-0.100154
-0.0650505
-0.0394587
-0.0216231
-0.0099271
0.00184228
-0.419573
-0.344704
-0.245211
-0.172845
-0.119316
-0.0825565
-0.0555276
-0.0362362
-0.023479
-0.010752
-0.43384
-0.363202
-0.265291
-0.192304
-0.13761
-0.0992756
-0.0710548
-0.0504641
-0.0367056
-0.0231687
-0.445258
-0.378976
-0.283457
-0.210359
-0.154886
-0.115306
-0.0859992
-0.0642932
-0.0495591
-0.0353944
-0.454019
-0.392025
-0.299714
-0.226987
-0.171059
-0.13059
-0.100403
-0.077714
-0.0619934
-0.0474223
-0.460337
-0.402368
-0.31407
-0.24219
-0.186119
-0.145064
-0.114203
-0.0907482
-0.0739999
-0.0592465
-0.464425
-0.410039
-0.326545
-0.255971
-0.200083
-0.158706
-0.127358
-0.103315
-0.085691
-0.0707752
-0.466493
-0.415097
-0.337179
-0.268325
-0.212964
-0.17152
-0.139863
-0.115375
-0.0970914
-0.0818759
-0.466725
-0.417632
-0.34602
-0.279252
-0.224775
-0.18352
-0.151729
-0.126926
-0.108155
-0.0925712
-0.46528
-0.41778
-0.353115
-0.288776
-0.235534
-0.194721
-0.162969
-0.137978
-0.118839
-0.102941
-0.462287
-0.415743
-0.358524
-0.296936
-0.245271
-0.205142
-0.173596
-0.148543
-0.129134
-0.113047
-0.457855
-0.411799
-0.362341
-0.303777
-0.25402
-0.214808
-0.183627
-0.158636
-0.139048
-0.122911
-0.452084
-0.406283
-0.364685
-0.309343
-0.261823
-0.223747
-0.19308
-0.168271
-0.148593
-0.132516
-0.445081
-0.399673
-0.365577
-0.313681
-0.26873
-0.231993
-0.201977
-0.17747
-0.15778
-0.141837
-0.436976
-0.392494
-0.364987
-0.316862
-0.274793
-0.23958
-0.210344
-0.18625
-0.166625
-0.150864
-0.427928
-0.385201
-0.362931
-0.318985
-0.280066
-0.24654
-0.21821
-0.194637
-0.175146
-0.159604
-0.41814
-0.37812
-0.359512
-0.320175
-0.2846
-0.252908
-0.225605
-0.202653
-0.183364
-0.16807
-0.407868
-0.371423
-0.354951
-0.320571
-0.288442
-0.258715
-0.232561
-0.210328
-0.191298
-0.176278
-0.397418
-0.365143
-0.3496
-0.320302
-0.291632
-0.263998
-0.239111
-0.217689
-0.198972
-0.184247
-0.387107
-0.35922
-0.343919
-0.319484
-0.29421
-0.268792
-0.245287
-0.224765
-0.206406
-0.191994
-0.377267
-0.353555
-0.338395
-0.318205
-0.296221
-0.273136
-0.251116
-0.231579
-0.213625
-0.199542
-0.368123
-0.348071
-0.333415
-0.316543
-0.297716
-0.277056
-0.256623
-0.238152
-0.220652
-0.20691
-0.359792
-0.342756
-0.329158
-0.314596
-0.29876
-0.280574
-0.261824
-0.244505
-0.227504
-0.214127
-0.352297
-0.33767
-0.325583
-0.312515
-0.299422
-0.283694
-0.266729
-0.250645
-0.234201
-0.221212
-0.345598
-0.332919
-0.322505
-0.310518
-0.299772
-0.286413
-0.271349
-0.256571
-0.240746
-0.228204
-0.339622
-0.328597
-0.31972
-0.308808
-0.299887
-0.288726
-0.27569
-0.26226
-0.247154
-0.235106
-0.334298
-0.324754
-0.317116
-0.307459
-0.299868
-0.290638
-0.279771
-0.267651
-0.253424
-0.241984
-0.329556
-0.321378
-0.314689
-0.306397
-0.299837
-0.292177
-0.283612
-0.272649
-0.25958
-0.248772
-0.325334
-0.318417
-0.312491
-0.305492
-0.299884
-0.293402
-0.28726
-0.277055
-0.265734
-0.255515
-0.321571
-0.315807
-0.310559
-0.304661
-0.300012
-0.294419
-0.290715
-0.280734
-0.271865
-0.262038
-0.318189
-0.313495
-0.308887
-0.303896
-0.300166
-0.29535
-0.293947
-0.283418
-0.278696
-0.267295
-0.315146
-0.311412
-0.307437
-0.303212
-0.300313
-0.296255
-0.296872
-0.285163
-0.28578
-0.272675
-0.312386
-0.309509
-0.306157
-0.302607
-0.300479
-0.297096
-0.299417
-0.286194
-0.2925
-0.277691
-0.309853
-0.307746
-0.304997
-0.302057
-0.300704
-0.297751
-0.301603
-0.286652
-0.298811
-0.281562
-0.307499
-0.306087
-0.303914
-0.301525
-0.300983
-0.29811
-0.303522
-0.286611
-0.304784
-0.283869
-0.305282
-0.3045
-0.302871
-0.30097
-0.301254
-0.298154
-0.305206
-0.286264
-0.310161
-0.284596
-0.30317
-0.302965
-0.301842
-0.300363
-0.301443
-0.29792
-0.306565
-0.285999
-0.314297
-0.284265
-0.301136
-0.301475
-0.300787
-0.299696
-0.301498
-0.297601
-0.307476
-0.286184
-0.316694
-0.283972
-0.299168
-0.300022
-0.299696
-0.298991
-0.301373
-0.297217
-0.307875
-0.286896
-0.317372
-0.28452
-0.297264
-0.298607
-0.298576
-0.298268
-0.301012
-0.296822
-0.307828
-0.287974
-0.316724
-0.28588
-0.29543
-0.297235
-0.29744
-0.297511
-0.300393
-0.296544
-0.307336
-0.289096
-0.315297
-0.287496
-0.293678
-0.295917
-0.296304
-0.296728
-0.299619
-0.296338
-0.306386
-0.290191
-0.313497
-0.288891
-0.292028
-0.29467
-0.295195
-0.295934
-0.298749
-0.296117
-0.305112
-0.291365
-0.311367
-0.28991
-0.290502
-0.293513
-0.29414
-0.295151
-0.29784
-0.295867
-0.30373
-0.292388
-0.308983
-0.290928
-0.289128
-0.292466
-0.293168
-0.294405
-0.296948
-0.295591
-0.302358
-0.293187
-0.306783
-0.291737
-0.287931
-0.291551
-0.292307
-0.293724
-0.296125
-0.295302
-0.301091
-0.293773
-0.304859
-0.292347
-0.286937
-0.29079
-0.291583
-0.293136
-0.295415
-0.295025
-0.300003
-0.294176
-0.303269
-0.292815
-0.286169
-0.290201
-0.291017
-0.29267
-0.294853
-0.294784
-0.29915
-0.294433
-0.302051
-0.293161
-0.285647
-0.289799
-0.290629
-0.292346
-0.294464
-0.294607
-0.298564
-0.294578
-0.301229
-0.293389
-0.285382
-0.289596
-0.290432
-0.29218
-0.294266
-0.294513
-0.298267
-0.294643
-0.300816
-0.293502
-0.300842
-0.291226
-0.292154
-0.284116
-0.279819
-0.270985
-0.26295
-0.252056
-0.240629
-0.22701
-0.212238
-0.195795
-0.178039
-0.159524
-0.140117
-0.121361
-0.102739
-0.0861442
-0.0708609
-0.0580563
-0.047245
-0.0384175
-0.0314974
-0.0253848
-0.0212627
-0.0166452
-0.0139713
-0.00876425
-0.00606613
-0.0003572
-0.301083
-0.291363
-0.292254
-0.284236
-0.27992
-0.2711
-0.263061
-0.252175
-0.24075
-0.227137
-0.212365
-0.195924
-0.178164
-0.159643
-0.140225
-0.121459
-0.102824
-0.0862174
-0.0709249
-0.05811
-0.0472909
-0.0384547
-0.0315277
-0.0254073
-0.0212818
-0.0166626
-0.0139895
-0.00878153
-0.00608074
-0.000366465
-0.301534
-0.291618
-0.292448
-0.284467
-0.280123
-0.271322
-0.26328
-0.252407
-0.240987
-0.227383
-0.212613
-0.196174
-0.178407
-0.159877
-0.140441
-0.121656
-0.102995
-0.0863654
-0.0710534
-0.0582166
-0.0473814
-0.0385281
-0.0315884
-0.0254535
-0.0213213
-0.016698
-0.0140257
-0.00881549
-0.00610916
-0.000384739
-0.302151
-0.291963
-0.29272
-0.284792
-0.280398
-0.271642
-0.263592
-0.252743
-0.241328
-0.227738
-0.212973
-0.196537
-0.17876
-0.16022
-0.140756
-0.121943
-0.103253
-0.0865874
-0.0712464
-0.058377
-0.0475174
-0.0386389
-0.0316807
-0.0255246
-0.0213817
-0.0167518
-0.014079
-0.00886547
-0.00615033
-0.000411636
-0.302861
-0.292339
-0.29305
-0.285177
-0.280758
-0.272035
-0.263987
-0.253164
-0.24176
-0.228189
-0.213429
-0.197001
-0.179214
-0.16066
-0.141164
-0.12232
-0.103591
-0.0868821
-0.0715043
-0.0585926
-0.0477008
-0.038789
-0.0318058
-0.0256222
-0.0214638
-0.0168243
-0.0141487
-0.0089305
-0.00620275
-0.000446614
-0.303583
-0.29273
-0.293397
-0.285613
-0.281144
-0.272493
-0.264432
-0.253658
-0.242263
-0.22872
-0.213971
-0.197549
-0.179748
-0.161183
-0.141662
-0.122779
-0.104007
-0.0872482
-0.0718274
-0.0588652
-0.0479334
-0.0389804
-0.0319656
-0.0257482
-0.0215686
-0.0169157
-0.0142334
-0.00900938
-0.00626461
-0.000489025
-0.304288
-0.293002
-0.293763
-0.286023
-0.281571
-0.272958
-0.264935
-0.254184
-0.242823
-0.229304
-0.214567
-0.198164
-0.180362
-0.161783
-0.142233
-0.123313
-0.104498
-0.0876843
-0.0722165
-0.0591964
-0.0482174
-0.0392154
-0.0321618
-0.0259044
-0.0216967
-0.0170261
-0.0143318
-0.00910078
-0.00633396
-0.000538151
-0.304711
-0.293315
-0.294005
-0.286461
-0.281938
-0.273462
-0.265411
-0.254757
-0.243398
-0.229937
-0.215213
-0.198832
-0.181028
-0.162444
-0.142872
-0.123915
-0.105061
-0.0881895
-0.0726725
-0.0595881
-0.0485552
-0.0394962
-0.0323961
-0.0260922
-0.0218489
-0.0171556
-0.0144425
-0.00920324
-0.00640882
-0.000593243
-0.304765
-0.293583
-0.294088
-0.286861
-0.282244
-0.273934
-0.265884
-0.255318
-0.243986
-0.230581
-0.21588
-0.199533
-0.181736
-0.163154
-0.143569
-0.124581
-0.105692
-0.0887631
-0.073196
-0.0600421
-0.0489486
-0.0398246
-0.03267
-0.0263131
-0.0220255
-0.0173039
-0.0145639
-0.00931528
-0.0064873
-0.000653544
-0.304429
-0.293702
-0.294031
-0.287144
-0.282479
-0.274341
-0.266306
-0.255851
-0.244552
-0.231221
-0.216553
-0.20025
-0.182472
-0.163903
-0.144315
-0.125305
-0.10639
-0.089404
-0.0737874
-0.0605596
-0.0493991
-0.040202
-0.0329843
-0.0265676
-0.0222266
-0.0174704
-0.0146947
-0.00943547
-0.00656769
-0.000718312
-0.303415
-0.293674
-0.293748
-0.287285
-0.282574
-0.274655
-0.266655
-0.256326
-0.245074
-0.231832
-0.217209
-0.200966
-0.183221
-0.164679
-0.145105
-0.126081
-0.10715
-0.090111
-0.0744463
-0.0611408
-0.0499073
-0.040629
-0.0333394
-0.026856
-0.022452
-0.0176545
-0.0148335
-0.00956245
-0.00664855
-0.00078683
-0.301534
-0.293392
-0.293196
-0.287221
-0.282528
-0.274811
-0.266886
-0.256707
-0.245525
-0.232392
-0.21783
-0.201665
-0.183971
-0.165473
-0.145929
-0.126904
-0.10797
-0.0908823
-0.0751717
-0.0617854
-0.0504728
-0.0411053
-0.033735
-0.0271777
-0.0227011
-0.0178553
-0.0149793
-0.00969501
-0.00672872
-0.000858408
-0.298812
-0.292709
-0.292342
-0.286861
-0.282233
-0.27481
-0.266988
-0.256971
-0.245884
-0.232876
-0.218397
-0.202331
-0.18471
-0.166274
-0.146782
-0.12777
-0.108847
-0.0917153
-0.0759613
-0.0624915
-0.0510943
-0.0416297
-0.0341699
-0.0275317
-0.0229728
-0.0180718
-0.0151309
-0.00983206
-0.00680732
-0.000932393
-0.295644
-0.291428
-0.29109
-0.286193
-0.281723
-0.274515
-0.266871
-0.257077
-0.246119
-0.233265
-0.218896
-0.20295
-0.185428
-0.167076
-0.147657
-0.128674
-0.109775
-0.0926067
-0.0768119
-0.0632564
-0.0517692
-0.0422001
-0.0346424
-0.0279164
-0.0232659
-0.0183028
-0.0152877
-0.00997272
-0.00688379
-0.00100817
-0.292266
-0.289484
-0.289383
-0.285131
-0.280908
-0.274096
-0.266597
-0.257024
-0.246216
-0.233543
-0.219311
-0.203513
-0.186115
-0.167872
-0.148549
-0.129612
-0.110751
-0.0935521
-0.0777192
-0.0640761
-0.052494
-0.0428136
-0.0351501
-0.0283297
-0.023579
-0.018547
-0.0154489
-0.0101162
-0.00695783
-0.00108516
-0.288597
-0.286952
-0.287149
-0.283603
-0.279661
-0.273113
-0.265963
-0.256732
-0.246143
-0.233693
-0.219634
-0.204012
-0.186766
-0.168656
-0.149452
-0.130578
-0.111768
-0.0945463
-0.0786777
-0.0649458
-0.0532646
-0.0434666
-0.0356901
-0.0287691
-0.0239103
-0.0188033
-0.0156141
-0.0102621
-0.00702933
-0.00116282
-0.284771
-0.283792
-0.284403
-0.281676
-0.278216
-0.272299
-0.265262
-0.256298
-0.245922
-0.233715
-0.219857
-0.20444
-0.187376
-0.169424
-0.150364
-0.131569
-0.112823
-0.0955853
-0.079683
-0.0658607
-0.0540762
-0.0441549
-0.036259
-0.0292316
-0.0242578
-0.0190702
-0.0157829
-0.0104096
-0.00709838
-0.00124071
-0.28073
-0.280094
-0.281072
-0.279132
-0.276115
-0.270598
-0.26394
-0.255514
-0.245489
-0.233598
-0.21999
-0.204814
-0.187959
-0.170184
-0.151284
-0.132582
-0.113908
-0.0966579
-0.0807228
-0.0668096
-0.0549193
-0.0448712
-0.0368513
-0.0297134
-0.0246194
-0.0193467
-0.0159553
-0.010559
-0.00716555
-0.0013186
-0.27652
-0.276122
-0.277603
-0.276573
-0.274168
-0.269279
-0.263077
-0.254752
-0.24496
-0.233353
-0.22
-0.205076
-0.188455
-0.170885
-0.152172
-0.133586
-0.115002
-0.097755
-0.0817966
-0.067796
-0.0558007
-0.045622
-0.0374736
-0.0302191
-0.0249986
-0.0196349
-0.016133
-0.0107113
-0.00723132
-0.00139601
-0.272562
-0.271355
-0.272881
-0.272691
-0.270972
-0.266764
-0.260801
-0.253429
-0.244186
-0.233042
-0.220061
-0.205474
-0.189137
-0.171794
-0.153271
-0.134791
-0.116279
-0.0990057
-0.08299
-0.068873
-0.0567439
-0.0464155
-0.0381209
-0.0307409
-0.0253846
-0.0199259
-0.0163084
-0.0108596
-0.00729234
-0.00147043
-0.267393
-0.267629
-0.269371
-0.269808
-0.268583
-0.264991
-0.2599
-0.252138
-0.243044
-0.232112
-0.219338
-0.20496
-0.188836
-0.171692
-0.153372
-0.135057
-0.116699
-0.099522
-0.0835749
-0.0694716
-0.0573242
-0.0469449
-0.0385811
-0.0311323
-0.0256866
-0.0201603
-0.0164516
-0.0109809
-0.00734166
-0.00153546
-0.261745
-0.262775
-0.264718
-0.265672
-0.264807
-0.261502
-0.256238
-0.24946
-0.240811
-0.230244
-0.217799
-0.203735
-0.187924
-0.17107
-0.153048
-0.134981
-0.11686
-0.0998463
-0.0840231
-0.0699752
-0.0578393
-0.04743
-0.0390079
-0.0315005
-0.0259672
-0.0203783
-0.0165761
-0.0110886
-0.00737943
-0.00159431
-0.255826
-0.257473
-0.259669
-0.261185
-0.260795
-0.257991
-0.253427
-0.246806
-0.238459
-0.228233
-0.216114
-0.20237
-0.186886
-0.170339
-0.152633
-0.134833
-0.116967
-0.100132
-0.0844479
-0.0704675
-0.0583519
-0.0479187
-0.0394403
-0.031876
-0.0262524
-0.0206001
-0.0166986
-0.0111956
-0.00741308
-0.00165358
-0.249661
-0.251949
-0.254425
-0.25648
-0.256584
-0.254289
-0.250096
-0.24393
-0.235955
-0.226097
-0.21433
-0.200931
-0.185797
-0.169575
-0.152201
-0.134683
-0.117083
-0.100435
-0.084894
-0.0709838
-0.0588891
-0.0484311
-0.0398939
-0.0322699
-0.0265513
-0.0208326
-0.0168266
-0.0113071
-0.00744682
-0.00171443
-0.243198
-0.246234
-0.249008
-0.251558
-0.252156
-0.250348
-0.246582
-0.24086
-0.233283
-0.223819
-0.212432
-0.199401
-0.184639
-0.168764
-0.151742
-0.13452
-0.117198
-0.100748
-0.0853576
-0.0715218
-0.0594496
-0.0489668
-0.0403686
-0.0326823
-0.0268646
-0.0210764
-0.0169609
-0.0114236
-0.0074812
-0.00177678
-0.236483
-0.240351
-0.243441
-0.246444
-0.247534
-0.246215
-0.2429
-0.237626
-0.230463
-0.221409
-0.210423
-0.19778
-0.183412
-0.167901
-0.151249
-0.134338
-0.117307
-0.101064
-0.0858319
-0.0720759
-0.0600289
-0.0495222
-0.0408618
-0.0331115
-0.0271908
-0.0213306
-0.0171009
-0.0115449
-0.00751607
-0.00184025
-0.229588
-0.23433
-0.237759
-0.24118
-0.242759
-0.241934
-0.239071
-0.234251
-0.227515
-0.218887
-0.208318
-0.19608
-0.182122
-0.166992
-0.150722
-0.134136
-0.117407
-0.101381
-0.086314
-0.072643
-0.0606241
-0.0500949
-0.0413715
-0.0335558
-0.0275289
-0.0215948
-0.0172464
-0.0116708
-0.00755161
-0.00190453
-0.222568
-0.228198
-0.231993
-0.235802
-0.237862
-0.237531
-0.235122
-0.230758
-0.224461
-0.216268
-0.20613
-0.19431
-0.180776
-0.16604
-0.150165
-0.133916
-0.117498
-0.101697
-0.0868013
-0.0732206
-0.0612326
-0.0506829
-0.0418959
-0.034014
-0.0278779
-0.0218682
-0.0173976
-0.0118012
-0.0075881
-0.00196934
-0.215473
-0.221979
-0.226166
-0.230336
-0.232865
-0.233027
-0.231074
-0.227168
-0.221318
-0.213567
-0.203871
-0.19248
-0.179381
-0.165051
-0.14958
-0.133676
-0.117577
-0.102009
-0.087291
-0.0738058
-0.0618518
-0.0512838
-0.0424331
-0.0344846
-0.0282368
-0.0221505
-0.0175542
-0.0119362
-0.00762583
-0.00203436
-0.208349
-0.215695
-0.220297
-0.224807
-0.227789
-0.228441
-0.226946
-0.223498
-0.218099
-0.210798
-0.201552
-0.190599
-0.177942
-0.164026
-0.148967
-0.133418
-0.117643
-0.102316
-0.0877801
-0.0743956
-0.0624787
-0.0518951
-0.042981
-0.0349658
-0.0286046
-0.0224409
-0.0177162
-0.0120755
-0.00766506
-0.00209926
-0.201243
-0.209372
-0.214408
-0.219238
-0.222652
-0.223789
-0.222754
-0.219764
-0.214818
-0.207972
-0.199182
-0.188673
-0.176466
-0.162971
-0.148329
-0.133141
-0.117695
-0.102616
-0.0882659
-0.0749872
-0.0631103
-0.0525141
-0.0435373
-0.0354559
-0.02898
-0.0227385
-0.0178834
-0.0122189
-0.00770605
-0.00216369
-0.1942
-0.203038
-0.208519
-0.213655
-0.217475
-0.219087
-0.218513
-0.215977
-0.211488
-0.205099
-0.19677
-0.18671
-0.174956
-0.161889
-0.147667
-0.132846
-0.117732
-0.102905
-0.0887459
-0.0755777
-0.063744
-0.0531384
-0.0440999
-0.0359531
-0.0293617
-0.0230425
-0.0180556
-0.0123661
-0.00774899
-0.00222731
-0.187263
-0.19672
-0.202651
-0.208082
-0.212279
-0.214353
-0.214238
-0.212154
-0.208121
-0.202189
-0.194324
-0.184716
-0.173419
-0.160782
-0.146983
-0.132532
-0.117753
-0.103183
-0.0892175
-0.0761645
-0.0643767
-0.0537652
-0.0446664
-0.0364555
-0.0297483
-0.0233518
-0.0182322
-0.0125167
-0.00779406
-0.00228975
-0.180473
-0.190451
-0.196826
-0.202542
-0.207087
-0.209604
-0.209944
-0.208308
-0.204728
-0.199253
-0.191853
-0.182699
-0.17186
-0.159655
-0.146279
-0.132201
-0.117757
-0.103449
-0.0896784
-0.0767448
-0.0650059
-0.0543921
-0.0452345
-0.036961
-0.0301384
-0.0236653
-0.0184129
-0.0126702
-0.00784136
-0.00235068
-0.173867
-0.184261
-0.191068
-0.197059
-0.201921
-0.204858
-0.205647
-0.204454
-0.201323
-0.196302
-0.189365
-0.180666
-0.170283
-0.158512
-0.145556
-0.131853
-0.117744
-0.103699
-0.0901267
-0.0773161
-0.0656288
-0.0550162
-0.0458018
-0.0374677
-0.0305304
-0.0239819
-0.018597
-0.012826
-0.00789096
-0.00240972
-0.167475
-0.178184
-0.185399
-0.191657
-0.196808
-0.200139
-0.201366
-0.200608
-0.197919
-0.193349
-0.186871
-0.178624
-0.168695
-0.157356
-0.144819
-0.13149
-0.117714
-0.103935
-0.0905602
-0.077876
-0.0662426
-0.0556349
-0.0463658
-0.0379733
-0.0309226
-0.0243
-0.0187839
-0.0129833
-0.00794283
-0.00246655
-0.161328
-0.172252
-0.179845
-0.18636
-0.191773
-0.195469
-0.197119
-0.196789
-0.194534
-0.190406
-0.184382
-0.176584
-0.167103
-0.156193
-0.14407
-0.131113
-0.117667
-0.104153
-0.0909771
-0.0784217
-0.0668445
-0.0562451
-0.0469237
-0.0384752
-0.0313133
-0.0246182
-0.0189727
-0.0131414
-0.00799688
-0.00252083
-0.155452
-0.1665
-0.174434
-0.181194
-0.186846
-0.190876
-0.192929
-0.193015
-0.191184
-0.187489
-0.18191
-0.174555
-0.165515
-0.155029
-0.143313
-0.130724
-0.117604
-0.104354
-0.0913755
-0.0789508
-0.0674316
-0.0568439
-0.0474729
-0.038971
-0.0317004
-0.0249347
-0.0191626
-0.0132992
-0.00805293
-0.00257226
-0.14987
-0.160962
-0.169194
-0.176184
-0.182055
-0.186387
-0.18882
-0.189309
-0.187889
-0.184615
-0.179471
-0.172549
-0.163941
-0.153871
-0.142554
-0.130326
-0.117526
-0.104537
-0.0917538
-0.0794605
-0.0680009
-0.0574277
-0.0480102
-0.0394578
-0.0320817
-0.0252475
-0.0193522
-0.0134556
-0.00811073
-0.00262056
-0.144607
-0.155672
-0.164158
-0.171359
-0.177432
-0.182036
-0.184821
-0.185694
-0.184671
-0.181804
-0.17708
-0.170579
-0.162392
-0.152727
-0.141797
-0.129922
-0.117434
-0.104702
-0.0921102
-0.0799481
-0.0685492
-0.0579932
-0.0485322
-0.0399323
-0.0324548
-0.0255545
-0.0195404
-0.0136095
-0.00816989
-0.00266549
-0.139683
-0.150664
-0.159356
-0.166751
-0.173007
-0.177853
-0.18096
-0.182198
-0.181555
-0.179077
-0.174756
-0.168662
-0.160879
-0.151606
-0.141049
-0.129517
-0.117329
-0.104848
-0.0924432
-0.0804109
-0.069073
-0.0585364
-0.0490354
-0.0403911
-0.0328169
-0.0258532
-0.0197256
-0.0137594
-0.00822991
-0.0027069
-0.13512
-0.145971
-0.154823
-0.162391
-0.168814
-0.173875
-0.177272
-0.178849
-0.178567
-0.176458
-0.17252
-0.166813
-0.159417
-0.150519
-0.140319
-0.129116
-0.117216
-0.104975
-0.0927511
-0.0808457
-0.0695687
-0.059053
-0.0495158
-0.0408304
-0.033165
-0.0261408
-0.019906
-0.0139038
-0.00829013
-0.00274468
-0.130938
-0.141624
-0.150594
-0.158315
-0.164889
-0.170139
-0.173793
-0.175682
-0.175735
-0.173975
-0.170395
-0.165053
-0.158022
-0.149478
-0.139615
-0.128723
-0.117095
-0.105084
-0.0930326
-0.0812495
-0.0700324
-0.0595386
-0.0499689
-0.0412457
-0.0334954
-0.0264143
-0.0200795
-0.0140411
-0.00834969
-0.00277877
-0.127158
-0.137659
-0.146706
-0.154559
-0.161268
-0.166684
-0.170563
-0.172731
-0.173094
-0.171655
-0.168407
-0.163404
-0.156711
-0.148497
-0.138948
-0.128345
-0.116972
-0.105176
-0.0932861
-0.0816191
-0.0704597
-0.0599881
-0.0503898
-0.0416325
-0.0338044
-0.0266704
-0.0202438
-0.0141694
-0.00840755
-0.0028091
-0.123802
-0.134111
-0.1432
-0.151164
-0.157993
-0.163552
-0.167624
-0.170038
-0.170679