/*--------------------------------*- C++ -*----------------------------------*\
  =========                 |
  \\      /  F ield         | OpenFOAM: The Open Source CFD Toolbox
   \\    /   O peration     | Website:  https://openfoam.org
    \\  /    A nd           | Version:  9
     \\/     M anipulation  |
\*---------------------------------------------------------------------------*/
FoamFile
{
    format      ascii;
    class       volScalarField;
    location    "4.3";
    object      p;
}
// * * * * * * * * * * * * * * * * * * * * * * * * * * * * * * * * * * * * * //

dimensions      [0 2 -2 0 0 0 0];

internalField   nonuniform List<scalar> 
8500
(
-0.351049
-0.368637
-0.384603
-0.413257
-0.447386
-0.483788
-0.513679
-0.521289
-0.504778
-0.420087
-0.352825
-0.370032
-0.386074
-0.414837
-0.449305
-0.486259
-0.517413
-0.526184
-0.512631
-0.427523
-0.356242
-0.372696
-0.388862
-0.417796
-0.452859
-0.49077
-0.524251
-0.535086
-0.527043
-0.44136
-0.36105
-0.376397
-0.392681
-0.421757
-0.457526
-0.496537
-0.533018
-0.546413
-0.545604
-0.459759
-0.366911
-0.380824
-0.397148
-0.426221
-0.462619
-0.502569
-0.542166
-0.558195
-0.565209
-0.480075
-0.373442
-0.385628
-0.40183
-0.430627
-0.467378
-0.507837
-0.550041
-0.568424
-0.583333
-0.498885
-0.380254
-0.390462
-0.406295
-0.43443
-0.47108
-0.511428
-0.555186
-0.575272
-0.596377
-0.513662
-0.386993
-0.395023
-0.410161
-0.437163
-0.47313
-0.512696
-0.556619
-0.578188
-0.602422
-0.522868
-0.393365
-0.399076
-0.413139
-0.438492
-0.473135
-0.511381
-0.554
-0.576201
-0.601528
-0.525753
-0.399148
-0.402476
-0.415068
-0.438283
-0.470899
-0.507266
-0.547896
-0.569551
-0.594159
-0.522533
-0.404208
-0.405165
-0.415879
-0.436479
-0.466562
-0.500578
-0.53895
-0.559349
-0.581617
-0.514028
-0.408487
-0.407165
-0.41564
-0.433242
-0.460443
-0.491891
-0.527933
-0.5465
-0.565471
-0.501212
-0.411995
-0.408563
-0.414534
-0.428885
-0.45302
-0.481938
-0.515731
-0.531879
-0.547004
-0.485018
-0.414797
-0.409488
-0.412816
-0.42382
-0.444886
-0.471317
-0.502906
-0.516241
-0.52701
-0.466435
-0.417008
-0.410095
-0.410778
-0.418503
-0.436686
-0.460922
-0.489893
-0.500161
-0.505929
-0.446488
-0.418781
-0.410546
-0.408712
-0.413381
-0.428932
-0.450987
-0.476965
-0.483948
-0.484109
-0.426038
-0.420302
-0.411005
-0.4069
-0.408854
-0.422076
-0.441753
-0.464242
-0.467705
-0.461889
-0.405569
-0.421783
-0.41164
-0.405591
-0.405227
-0.416227
-0.433399
-0.451683
-0.451479
-0.439485
-0.385233
-0.423451
-0.412616
-0.405001
-0.402662
-0.411399
-0.425999
-0.439219
-0.435344
-0.417003
-0.365372
-0.425531
-0.414092
-0.405294
-0.40115
-0.407597
-0.4194
-0.426908
-0.419359
-0.394901
-0.34735
-0.428227
-0.41621
-0.406539
-0.400569
-0.404824
-0.413252
-0.41489
-0.403622
-0.374661
-0.33281
-0.431696
-0.419089
-0.408655
-0.400828
-0.402945
-0.40722
-0.40325
-0.38836
-0.35744
-0.320009
-0.436052
-0.422795
-0.411439
-0.401932
-0.401627
-0.401124
-0.392012
-0.3739
-0.342055
-0.307446
-0.441376
-0.427317
-0.414691
-0.403871
-0.400476
-0.394903
-0.38119
-0.360248
-0.32815
-0.295689
-0.447726
-0.43255
-0.418354
-0.406452
-0.399196
-0.388551
-0.370763
-0.347429
-0.315388
-0.284396
-0.455141
-0.438296
-0.422551
-0.409294
-0.397619
-0.382081
-0.360711
-0.335359
-0.303511
-0.273684
-0.463641
-0.444355
-0.427481
-0.411999
-0.395647
-0.375501
-0.350991
-0.323947
-0.292353
-0.263405
-0.473203
-0.450577
-0.433262
-0.414299
-0.393212
-0.368809
-0.341551
-0.313081
-0.28175
-0.25352
-0.483718
-0.456923
-0.439783
-0.41608
-0.390264
-0.361984
-0.332326
-0.30265
-0.271579
-0.243929
-0.49497
-0.463466
-0.446679
-0.417285
-0.386765
-0.354992
-0.323245
-0.292544
-0.261725
-0.234559
-0.506676
-0.470351
-0.453408
-0.417864
-0.382693
-0.347785
-0.314227
-0.282663
-0.25209
-0.225335
-0.518397
-0.477719
-0.459414
-0.417741
-0.378033
-0.340312
-0.305195
-0.272914
-0.242584
-0.216188
-0.529818
-0.485638
-0.46425
-0.416815
-0.372764
-0.332521
-0.296072
-0.263212
-0.233129
-0.207057
-0.540637
-0.494035
-0.467628
-0.414966
-0.366858
-0.324361
-0.286785
-0.253477
-0.223656
-0.197888
-0.550609
-0.502655
-0.469415
-0.412075
-0.360274
-0.315783
-0.277267
-0.243636
-0.214108
-0.188632
-0.559546
-0.511066
-0.469603
-0.408042
-0.352961
-0.306737
-0.267456
-0.233622
-0.204432
-0.179245
-0.567303
-0.5187
-0.468261
-0.402799
-0.344865
-0.29717
-0.257293
-0.223376
-0.19458
-0.169691
-0.57377
-0.524971
-0.465443
-0.396303
-0.335927
-0.287032
-0.246727
-0.21285
-0.18451
-0.159947
-0.578854
-0.529444
-0.461064
-0.388518
-0.326097
-0.276273
-0.235714
-0.202
-0.174185
-0.150009
-0.58247
-0.531777
-0.455014
-0.379404
-0.315326
-0.264848
-0.224212
-0.190788
-0.16357
-0.139883
-0.584514
-0.531712
-0.447221
-0.368918
-0.303573
-0.252719
-0.212189
-0.179179
-0.152639
-0.129559
-0.584854
-0.529079
-0.437638
-0.357024
-0.290805
-0.239853
-0.199614
-0.167141
-0.141384
-0.11896
-0.58332
-0.523766
-0.42622
-0.343704
-0.276996
-0.226223
-0.186458
-0.154646
-0.129835
-0.10799
-0.579709
-0.515702
-0.412914
-0.328961
-0.262127
-0.211802
-0.172695
-0.141684
-0.118024
-0.0966271
-0.573794
-0.504842
-0.397684
-0.312792
-0.246179
-0.196575
-0.158319
-0.128287
-0.10591
-0.0849931
-0.565333
-0.491153
-0.380508
-0.295189
-0.229124
-0.180554
-0.143362
-0.11453
-0.093377
-0.0731471
-0.554094
-0.47462
-0.361376
-0.276139
-0.210953
-0.163805
-0.127884
-0.100375
-0.080429
-0.0610783
-0.53986
-0.45524
-0.340277
-0.255656
-0.191746
-0.146387
-0.111826
-0.085818
-0.0671047
-0.0487843
-0.52245
-0.433028
-0.317183
-0.233825
-0.17168
-0.128163
-0.0952212
-0.0708665
-0.0534425
-0.0362741
-0.501728
-0.408036
-0.292066
-0.210801
-0.150685
-0.109188
-0.0781005
-0.0555392
-0.0394765
-0.0235677
-0.477613
-0.38038
-0.264998
-0.186573
-0.128783
-0.0895172
-0.060501
-0.0398627
-0.02524
-0.0106958
-0.450077
-0.35021
-0.236253
-0.160984
-0.10602
-0.0692107
-0.0424641
-0.0238712
-0.0107686
0.00230199
-0.419152
-0.317567
-0.205929
-0.13416
-0.0824545
-0.0483336
-0.0240382
-0.00760467
0.00390001
0.0153798
-0.38495
-0.282262
-0.174335
-0.106243
-0.0581553
-0.0269556
-0.00527876
0.00889204
0.0187295
0.0284927
-0.347648
-0.244477
-0.141493
-0.0773836
-0.0332032
-0.0051516
0.0137522
0.025573
0.0336888
0.0415965
-0.307372
-0.204586
-0.107435
-0.0477273
-0.00769316
0.0169979
0.0329884
0.0423964
0.0487471
0.0546214
-0.264064
-0.163249
-0.0722702
-0.0174158
0.0182681
0.0394064
0.0523633
0.0593289
0.0638522
0.0673939
-0.218127
-0.120721
-0.0361663
0.0134107
0.0445644
0.0619822
0.071814
0.0763389
0.0788948
0.0795693
-0.169946
-0.0771878
0.000677204
0.0446069
0.0710719
0.0846302
0.091279
0.0933678
0.0936945
0.0908351
-0.119909
-0.0328718
0.0380411
0.0760197
0.0976611
0.107253
0.110689
0.1103
0.108068
0.101491
-0.0684252
0.0119727
0.0756947
0.107488
0.124198
0.129752
0.129957
0.126985
0.121938
0.112876
-0.0159189
0.0570696
0.1134
0.138843
0.150547
0.152024
0.148985
0.143311
0.135545
0.124799
0.0371705
0.102128
0.150917
0.169911
0.17657
0.173962
0.167675
0.159247
0.148938
0.136798
0.0903959
0.146847
0.188002
0.200514
0.202127
0.195457
0.185931
0.174746
0.162065
0.14868
0.143306
0.190923
0.224415
0.230473
0.227078
0.216397
0.203663
0.189765
0.174849
0.160251
0.19545
0.23405
0.259917
0.25961
0.251283
0.23667
0.220786
0.204245
0.187223
0.17141
0.246384
0.275925
0.294274
0.287748
0.274606
0.256166
0.237215
0.218124
0.199117
0.182071
0.295673
0.316253
0.327258
0.314712
0.296911
0.27478
0.252867
0.231339
0.210466
0.192176
0.342893
0.354754
0.358651
0.340336
0.318068
0.292407
0.267663
0.243825
0.221209
0.201673
0.387632
0.391164
0.388245
0.364456
0.337951
0.308948
0.281527
0.255522
0.231286
0.210517
0.429509
0.425234
0.415841
0.386919
0.35644
0.324308
0.294386
0.266369
0.240641
0.21867
0.468218
0.456682
0.441252
0.407578
0.373424
0.3384
0.30617
0.27631
0.249222
0.226098
0.503477
0.485244
0.464303
0.426298
0.388797
0.351143
0.316815
0.285292
0.256982
0.232768
0.535001
0.510701
0.484833
0.442956
0.402466
0.362462
0.326265
0.293267
0.263874
0.238655
0.562526
0.532868
0.502702
0.457443
0.414346
0.372291
0.334465
0.30019
0.269859
0.243736
0.585824
0.551587
0.517785
0.469663
0.424361
0.380572
0.341371
0.30602
0.274902
0.247994
0.6047
0.566725
0.529979
0.479537
0.43245
0.387257
0.346944
0.310726
0.278972
0.251413
0.618997
0.578173
0.539199
0.487
0.438562
0.392306
0.351151
0.314279
0.282046
0.253985
0.628596
0.58585
0.545381
0.492003
0.442658
0.395689
0.35397
0.31666
0.284106
0.255701
0.633415
0.589702
0.548483
0.494512
0.444713
0.397385
0.355383
0.317854
0.285139
0.25656
0.633415
0.589702
0.548483
0.494512
0.444713
0.397385
0.355383
0.317854
0.285139
0.25656
0.628596
0.58585
0.545381
0.492003
0.442658
0.395689
0.35397
0.31666
0.284106
0.255701
0.618997
0.578173
0.539199
0.487
0.438562
0.392306
0.351151
0.314279
0.282046
0.253985
0.6047
0.566725
0.529979
0.479537
0.43245
0.387257
0.346944
0.310726
0.278972
0.251413
0.585824
0.551587
0.517785
0.469663
0.424361
0.380573
0.341371
0.30602
0.274902
0.247994
0.562526
0.532868
0.502702
0.457443
0.414346
0.372291
0.334465
0.30019
0.269859
0.243736
0.535001
0.510701
0.484833
0.442956
0.402466
0.362462
0.326265
0.293267
0.263874
0.238655
0.503477
0.485244
0.464303
0.426298
0.388797
0.351143
0.316815
0.285292
0.256982
0.232768
0.468218
0.456682
0.441252
0.407578
0.373424
0.3384
0.30617
0.27631
0.249223
0.226098
0.429509
0.425234
0.415841
0.386919
0.35644
0.324308
0.294386
0.266369
0.240641
0.21867
0.387632
0.391164
0.388245
0.364456
0.337951
0.308948
0.281528
0.255522
0.231286
0.210517
0.342893
0.354754
0.358652
0.340336
0.318068
0.292407
0.267664
0.243825
0.221209
0.201673
0.295673
0.316253
0.327258
0.314712
0.296911
0.27478
0.252867
0.231339
0.210467
0.192176
0.246384
0.275925
0.294274
0.287748
0.274606
0.256166
0.237215
0.218124
0.199117
0.182071
0.19545
0.23405
0.259917
0.25961
0.251283
0.23667
0.220786
0.204245
0.187223
0.17141
0.143306
0.190923
0.224415
0.230474
0.227078
0.216397
0.203663
0.189765
0.174849
0.160251
0.0903959
0.146847
0.188002
0.200514
0.202127
0.195457
0.185931
0.174747
0.162065
0.14868
0.0371706
0.102128
0.150917
0.169911
0.17657
0.173963
0.167675
0.159247
0.148938
0.136798
-0.0159189
0.0570697
0.1134
0.138843
0.150548
0.152024
0.148985
0.143311
0.135545
0.124799
-0.0684251
0.0119728
0.0756948
0.107488
0.124198
0.129752
0.129957
0.126985
0.121938
0.112876
-0.119909
-0.0328717
0.0380412
0.0760198
0.0976612
0.107253
0.110689
0.1103
0.108068
0.101491
-0.169946
-0.0771878
0.000677291
0.044607
0.071072
0.0846303
0.0912791
0.093368
0.0936946
0.0908352
-0.218127
-0.120721
-0.0361662
0.0134108
0.0445645
0.0619823
0.0718141
0.076339
0.0788949
0.0795694
-0.264064
-0.163249
-0.0722702
-0.0174157
0.0182682
0.0394065
0.0523634
0.059329
0.0638523
0.0673941
-0.307372
-0.204586
-0.107435
-0.0477272
-0.00769306
0.016998
0.0329885
0.0423965
0.0487472
0.0546215
-0.347648
-0.244477
-0.141492
-0.0773835
-0.0332031
-0.00515149
0.0137523
0.0255731
0.0336889
0.0415966
-0.38495
-0.282262
-0.174335
-0.106243
-0.0581552
-0.0269555
-0.00527864
0.00889217
0.0187297
0.0284928
-0.419152
-0.317567
-0.205929
-0.13416
-0.0824544
-0.0483335
-0.0240381
-0.00760455
0.00390015
0.01538
-0.450076
-0.35021
-0.236253
-0.160984
-0.10602
-0.0692106
-0.042464
-0.023871
-0.0107684
0.00230214
-0.477613
-0.38038
-0.264997
-0.186573
-0.128783
-0.0895171
-0.0605009
-0.0398626
-0.0252399
-0.0106956
-0.501728
-0.408036
-0.292065
-0.210801
-0.150685
-0.109188
-0.0781004
-0.0555391
-0.0394763
-0.0235676
-0.52245
-0.433028
-0.317183
-0.233825
-0.17168
-0.128163
-0.095221
-0.0708664
-0.0534424
-0.0362739
-0.53986
-0.455239
-0.340277
-0.255656
-0.191746
-0.146387
-0.111826
-0.0858179
-0.0671045
-0.0487842
-0.554094
-0.474619
-0.361376
-0.276139
-0.210953
-0.163805
-0.127884
-0.100375
-0.0804289
-0.0610781
-0.565333
-0.491153
-0.380508
-0.295189
-0.229123
-0.180554
-0.143362
-0.11453
-0.0933769
-0.0731469
-0.573794
-0.504841
-0.397684
-0.312792
-0.246179
-0.196574
-0.158318
-0.128287
-0.10591
-0.084993
-0.579709
-0.515702
-0.412914
-0.328961
-0.262127
-0.211802
-0.172695
-0.141684
-0.118024
-0.096627
-0.58332
-0.523765
-0.42622
-0.343704
-0.276996
-0.226222
-0.186458
-0.154646
-0.129835
-0.10799
-0.584854
-0.529078
-0.437638
-0.357024
-0.290805
-0.239853
-0.199614
-0.16714
-0.141384
-0.11896
-0.584514
-0.531712
-0.447221
-0.368918
-0.303573
-0.252719
-0.212189
-0.179178
-0.152639
-0.129559
-0.58247
-0.531777
-0.455014
-0.379404
-0.315325
-0.264848
-0.224212
-0.190788
-0.16357
-0.139883
-0.578854
-0.529444
-0.461064
-0.388518
-0.326096
-0.276273
-0.235714
-0.202
-0.174185
-0.150009
-0.57377
-0.524971
-0.465443
-0.396303
-0.335927
-0.287032
-0.246727
-0.21285
-0.18451
-0.159947
-0.567303
-0.5187
-0.468261
-0.402799
-0.344865
-0.29717
-0.257293
-0.223376
-0.19458
-0.169691
-0.559546
-0.511066
-0.469603
-0.408042
-0.352961
-0.306737
-0.267455
-0.233622
-0.204431
-0.179245
-0.550609
-0.502655
-0.469415
-0.412074
-0.360274
-0.315783
-0.277267
-0.243636
-0.214108
-0.188632
-0.540637
-0.494034
-0.467628
-0.414965
-0.366858
-0.324361
-0.286785
-0.253477
-0.223656
-0.197888
-0.529818
-0.485638
-0.46425
-0.416815
-0.372764
-0.332521
-0.296071
-0.263212
-0.233129
-0.207057
-0.518397
-0.477719
-0.459414
-0.417741
-0.378032
-0.340312
-0.305195
-0.272914
-0.242584
-0.216188
-0.506676
-0.470351
-0.453408
-0.417864
-0.382693
-0.347785
-0.314227
-0.282663
-0.25209
-0.225335
-0.49497
-0.463466
-0.446679
-0.417285
-0.386765
-0.354991
-0.323245
-0.292544
-0.261725
-0.234559
-0.483718
-0.456922
-0.439783
-0.41608
-0.390264
-0.361984
-0.332326
-0.302649
-0.271579
-0.243929
-0.473203
-0.450577
-0.433262
-0.414299
-0.393212
-0.368808
-0.341551
-0.313081
-0.28175
-0.25352
-0.463641
-0.444355
-0.427481
-0.411999
-0.395647
-0.375501
-0.350991
-0.323947
-0.292353
-0.263405
-0.45514
-0.438295
-0.422551
-0.409294
-0.397619
-0.382081
-0.360711
-0.335359
-0.303511
-0.273684
-0.447726
-0.43255
-0.418354
-0.406452
-0.399196
-0.388551
-0.370763
-0.347429
-0.315388
-0.284396
-0.441376
-0.427317
-0.414691
-0.403871
-0.400476
-0.394903
-0.38119
-0.360248
-0.32815
-0.295689
-0.436052
-0.422795
-0.411438
-0.401932
-0.401627
-0.401124
-0.392012
-0.373899
-0.342055
-0.307446
-0.431696
-0.419089
-0.408654
-0.400828
-0.402945
-0.40722
-0.40325
-0.38836
-0.35744
-0.320009
-0.428227
-0.41621
-0.406539
-0.400569
-0.404824
-0.413251
-0.41489
-0.403622
-0.374661
-0.33281
-0.425531
-0.414092
-0.405294
-0.40115
-0.407597
-0.4194
-0.426908
-0.419359
-0.394901
-0.34735
-0.423451
-0.412616
-0.405001
-0.402662
-0.411399
-0.425999
-0.439219
-0.435344
-0.417002
-0.365372
-0.421783
-0.41164
-0.405591
-0.405227
-0.416227
-0.433399
-0.451683
-0.451479
-0.439484
-0.385233
-0.420302
-0.411005
-0.4069
-0.408854
-0.422075
-0.441753
-0.464242
-0.467704
-0.461888
-0.405569
-0.418781
-0.410546
-0.408712
-0.413381
-0.428932
-0.450987
-0.476965
-0.483948
-0.484109
-0.426038
-0.417008
-0.410095
-0.410778
-0.418503
-0.436686
-0.460922
-0.489893
-0.500161
-0.505929
-0.446488
-0.414797
-0.409488
-0.412816
-0.42382
-0.444886
-0.471317
-0.502906
-0.516241
-0.52701
-0.466435
-0.411995
-0.408562
-0.414534
-0.428885
-0.45302
-0.481938
-0.515731
-0.531879
-0.547004
-0.485018
-0.408487
-0.407165
-0.41564
-0.433242
-0.460443
-0.49189
-0.527933
-0.5465
-0.565471
-0.501212
-0.404208
-0.405165
-0.415879
-0.436479
-0.466562
-0.500578
-0.53895
-0.559349
-0.581617
-0.514028
-0.399148
-0.402476
-0.415068
-0.438283
-0.470899
-0.507266
-0.547896
-0.569551
-0.594159
-0.522533
-0.393365
-0.399076
-0.413139
-0.438492
-0.473135
-0.511381
-0.554
-0.576201
-0.601528
-0.525753
-0.386993
-0.395023
-0.410161
-0.437162
-0.47313
-0.512696
-0.556619
-0.578188
-0.602422
-0.522868
-0.380254
-0.390462
-0.406295
-0.43443
-0.47108
-0.511428
-0.555186
-0.575272
-0.596377
-0.513662
-0.373441
-0.385628
-0.40183
-0.430627
-0.467378
-0.507837
-0.550041
-0.568424
-0.583333
-0.498885
-0.366911
-0.380824
-0.397148
-0.426221
-0.462619
-0.502569
-0.542166
-0.558195
-0.565209
-0.480075
-0.36105
-0.376397
-0.392681
-0.421757
-0.457526
-0.496537
-0.533018
-0.546413
-0.545604
-0.459759
-0.356242
-0.372696
-0.388862
-0.417796
-0.452859
-0.49077
-0.524251
-0.535086
-0.527043
-0.44136
-0.352825
-0.370032
-0.386074
-0.414837
-0.449305
-0.486259
-0.517413
-0.526184
-0.512631
-0.427523
-0.351049
-0.368637
-0.384603
-0.413257
-0.447386
-0.483788
-0.513679
-0.521289
-0.504778
-0.420087
-0.307008
-0.149257
-0.0386023
0.034019
0.0623053
0.0705693
0.065764
0.0563025
0.0457632
0.0358212
0.0272489
0.0202969
0.0148954
0.0108116
0.00777226
0.00553283
0.003899
0.00271257
0.00186324
0.00126049
0.000839019
0.000548915
0.000352501
0.000222027
0.000136907
8.25093e-05
4.8216e-05
2.69766e-05
1.33159e-05
4.15218e-06
-0.313379
-0.154327
-0.0420753
0.0316599
0.060724
0.0694483
0.0650108
0.0558017
0.0454463
0.0356304
0.0271387
0.0202348
0.0148604
0.0107915
0.00776033
0.00552545
0.00389412
0.00270938
0.00186115
0.00125908
0.000838076
0.000548284
0.000352084
0.000221755
0.000136732
8.23993e-05
4.81491e-05
2.6938e-05
1.32965e-05
4.14608e-06
-0.325512
-0.163877
-0.0488984
0.0269941
0.0575781
0.0672224
0.0635196
0.0548135
0.0448201
0.0352529
0.0269202
0.0201112
0.0147907
0.0107514
0.00773649
0.0055107
0.00388437
0.00270303
0.00185695
0.00125627
0.00083619
0.000547024
0.000351249
0.000221211
0.000136383
8.21797e-05
4.80154e-05
2.68604e-05
1.32573e-05
4.13341e-06
-0.342215
-0.177001
-0.0586774
0.0201089
0.0529215
0.0639282
0.0613149
0.0533595
0.0439004
0.0346965
0.0265969
0.0199277
0.0146868
0.0106914
0.0077008
0.0054886
0.0038698
0.00269353
0.00185066
0.00125205
0.000833361
0.000545133
0.000349998
0.000220395
0.000135859
8.18505e-05
4.78148e-05
2.6744e-05
1.31986e-05
4.11444e-06
-0.361902
-0.192562
-0.0708601
0.0111768
0.0468387
0.0596308
0.0584301
0.0514758
0.0427073
0.0339717
0.0261734
0.0196861
0.0145494
0.0106119
0.00765335
0.00545919
0.00385046
0.00268091
0.00184226
0.00124642
0.000829589
0.000542613
0.000348329
0.000219307
0.000135161
8.14118e-05
4.75476e-05
2.65889e-05
1.31202e-05
4.08921e-06
-0.381812
-0.210068
-0.0848257
0.000546044
0.0393955
0.0544177
0.0549308
0.0491989
0.0412638
0.033091
0.0256558
0.0193889
0.0143794
0.0105132
0.00759424
0.0054225
0.00382639
0.00266521
0.00183176
0.00123939
0.000824876
0.000539464
0.000346245
0.000217948
0.000134289
8.08639e-05
4.72139e-05
2.63953e-05
1.30224e-05
4.05774e-06
-0.400078
-0.228032
-0.0999372
-0.0114716
0.0308315
0.0483875
0.0508811
0.0465696
0.0395952
0.0320682
0.0250505
0.0190389
0.014178
0.0103956
0.00752359
0.00537857
0.00379766
0.00264646
0.00181914
0.00123095
0.00081922
0.000535685
0.000343744
0.000216318
0.000133243
8.02071e-05
4.6814e-05
2.61633e-05
1.29052e-05
4.02008e-06
-0.414281
-0.245548
-0.11554
-0.0244715
0.0213643
0.0416626
0.046355
0.0436308
0.0377271
0.030917
0.0243643
0.018639
0.0139463
0.0102595
0.00744154
0.00532745
0.00376428
0.00262502
0.00180441
0.0012211
0.000812624
0.000531278
0.000340828
0.000214419
0.000132024
7.94419e-05
4.63481e-05
2.5893e-05
1.27686e-05
3.97628e-06
-0.423332
-0.261548
-0.131065
-0.0380544
0.0112231
0.0343825
0.0414267
0.0404243
0.0356843
0.0296511
0.0236038
0.0181921
0.0136854
0.0101054
0.0073482
0.00526917
0.0037264
0.00259938
0.00178749
0.00120983
0.000805086
0.000526243
0.000337498
0.000212249
0.000130633
7.85686e-05
4.58165e-05
2.55848e-05
1.26128e-05
3.92639e-06
-0.426961
-0.275219
-0.14603
-0.0518478
0.000636658
0.0266875
0.0361763
0.0369862
0.0334891
0.0282825
0.0227752
0.0177011
0.0133964
0.00993366
0.00724372
0.00520377
0.00368392
0.00257413
0.00176856
0.00119716
0.000796607
0.00052058
0.000333754
0.000209811
0.00012907
7.75878e-05
4.52197e-05
2.52387e-05
1.24378e-05
3.87048e-06
-0.425582
-0.286018
-0.160059
-0.0655343
-0.0101863
0.0187093
0.0306988
0.0333484
0.0311605
0.0268218
0.0218836
0.0171682
0.0130803
0.00974458
0.0071282
0.0051313
0.003637
0.00254335
0.00174721
0.00118306
0.000787185
0.00051429
0.000329596
0.000207104
0.000127336
7.65e-05
4.45581e-05
2.48552e-05
1.22438e-05
3.80862e-06
-0.420293
-0.293444
-0.172834
-0.07886
-0.0210662
0.0105587
0.0250224
0.0295434
0.0287141
0.0252777
0.0209334
0.0165954
0.0127379
0.00953848
0.00700174
0.00505175
0.00358604
0.00250881
0.00172371
0.00116753
0.000776821
0.000507374
0.000325026
0.000204131
0.000125432
7.53059e-05
4.3832e-05
2.44344e-05
1.20309e-05
3.7409e-06
-0.411807
-0.297878
-0.184077
-0.0916245
-0.0318564
0.00232615
0.019195
0.0256005
0.0261619
0.0236568
0.0199282
0.0159844
0.0123699
0.00931559
0.00686443
0.00496515
0.00353005
0.00246749
0.00169828
0.00115054
0.000765507
0.00049983
0.000320045
0.00020089
0.000123358
7.40062e-05
4.30421e-05
2.39768e-05
1.17992e-05
3.66741e-06
-0.401191
-0.29971
-0.193625
-0.103678
-0.0424445
-0.00591403
0.0132733
0.0215423
0.0235113
0.0219643
0.0188704
0.0153364
0.0119767
0.00907611
0.00671633
0.00487152
0.00346948
0.00242946
0.00167087
0.00113216
0.000753253
0.00049166
0.000314651
0.000197384
0.000121114
7.26014e-05
4.21888e-05
2.34827e-05
1.1549e-05
3.58825e-06
-0.389447
-0.299453
-0.201444
-0.114883
-0.0527434
-0.0141039
0.00729893
0.0174182
0.0207651
0.0202035
0.0177624
0.0146523
0.0115587
0.00882014
0.00655745
0.00477087
0.0034044
0.00238563
0.00164449
0.00111214
0.000740008
0.000482854
0.000308843
0.000193612
0.000118703
7.10922e-05
4.12725e-05
2.29524e-05
1.12804e-05
3.50352e-06
-0.377441
-0.297478
-0.207864
-0.125163
-0.0626892
-0.0221978
0.00129816
0.0132195
0.0179292
0.0183735
0.0166045
0.013933
0.0111165
0.00854803
0.00638798
0.00466329
0.00333472
0.00234001
0.00161361
0.00109052
0.000725715
0.000473409
0.000302621
0.000189573
0.000116123
6.94794e-05
4.02942e-05
2.23864e-05
1.09936e-05
3.41335e-06
-0.365884
-0.294359
-0.212893
-0.134463
-0.0722205
-0.0301737
-0.00472644
0.00894036
0.0150249
0.0164828
0.015396
0.0131766
0.0106489
0.00825918
0.00620769
0.00454876
0.00326055
0.00229112
0.0015795
0.00106904
0.000710965
0.000463369
0.00029601
0.000185273
0.000113378
6.77653e-05
3.92556e-05
2.1786e-05
1.06891e-05
3.31793e-06
-0.355387
-0.290522
-0.216957
-0.142939
-0.0813947
-0.0380179
-0.0107173
0.00464098
0.0120535
0.0145509
0.0141586
0.0123931
0.0101592
0.00795395
0.00601597
0.00442648
0.00318113
0.00223863
0.00154506
0.00104678
0.000692774
0.000452335
0.000288917
0.000180688
0.000110462
6.59494e-05
3.81572e-05
2.11516e-05
1.03674e-05
3.21752e-06
-0.345852
-0.286546
-0.219521
-0.150012
-0.0896393
-0.045407
-0.0166082
0.000252995
0.00892647
0.0124345
0.0128437
0.0115812
0.00965919
0.00764535
0.0058234
0.00430409
0.00310174
0.0021862
0.00150958
0.00102195
0.000680184
0.000441118
0.000280809
0.000175707
0.000107331
6.40027e-05
3.69819e-05
2.04753e-05
1.00257e-05
3.11174e-06
-0.338282
-0.282695
-0.222992
-0.158357
-0.0994496
-0.0542338
-0.0234435
-0.00458983
0.00568265
0.0102415
0.0113354
0.0105994
0.0090328
0.00724926
0.00557296
0.00414465
0.00299918
0.00211945
0.00146572
0.000993184
0.000659016
0.000429808
0.000274274
0.000170658
0.00010398
6.18867e-05
3.57044e-05
1.97444e-05
9.65827e-06
2.99917e-06
-0.329135
-0.275627
-0.21812
-0.157016
-0.10041
-0.0563346
-0.0259127
-0.00691664
0.00373887
0.00882168
0.0103927
0.00998646
0.00863818
0.00699367
0.00540466
0.00403152
0.00292173
0.00206576
0.0014283
0.00096705
0.000641386
0.000417068
0.000265666
0.000165482
0.0001008
5.99326e-05
3.45247e-05
1.90605e-05
9.30782e-06
2.8905e-06
-0.309609
-0.260882
-0.208706
-0.152866
-0.100045
-0.0580493
-0.0284319
-0.00947006
0.001525
0.00704786
0.0090428
0.008998
0.0079372
0.00650784
0.00507327
0.00380791
0.00277211
0.00196639
0.00136279
0.00092426
0.000613826
0.000399392
0.00025453
0.000158643
9.66621e-05
5.74843e-05
3.3119e-05
1.82867e-05
8.93058e-06
2.77557e-06
-0.292693
-0.247981
-0.200099
-0.148902
-0.0995886
-0.0596096
-0.0308474
-0.011989
-0.000719872
0.00520702
0.00761861
0.00794317
0.00718105
0.00597834
0.00470862
0.00355979
0.0026049
0.00185469
0.00128885
0.000875838
0.000582493
0.000379436
0.000242008
0.000150911
9.19857e-05
5.47239e-05
3.15398e-05
1.74222e-05
8.51141e-06
2.64813e-06
-0.276274
-0.235524
-0.19166
-0.144839
-0.0989548
-0.0609952
-0.033133
-0.0144391
-0.00294431
0.00336292
0.00618213
0.00687272
0.00640906
0.00543459
0.00433207
0.00330223
0.00243051
0.00173769
0.00121111
0.000824738
0.000549335
0.000358226
0.000228657
0.000142667
8.6997e-05
5.17748e-05
2.98492e-05
1.64948e-05
8.06068e-06
2.51098e-06
-0.260222
-0.223426
-0.183337
-0.140636
-0.0981091
-0.0621866
-0.035281
-0.0168181
-0.00514753
0.00151063
0.00472251
0.00577398
0.00560964
0.00486725
0.0039367
0.0030304
0.0022457
0.00161331
0.00112826
0.000770176
0.000513886
0.000335509
0.000214344
0.000133828
8.16461e-05
4.86096e-05
2.80334e-05
1.5498e-05
7.57585e-06
2.36333e-06
-0.244699
-0.211743
-0.175178
-0.136324
-0.0970591
-0.06318
-0.0372826
-0.019116
-0.00732301
-0.000348401
0.00323762
0.00464324
0.00477873
0.00427258
0.00351936
0.00274185
0.00204865
0.00148024
0.00103942
0.000711569
0.000475763
0.000311064
0.000198935
0.000124307
7.58808e-05
4.51987e-05
2.60763e-05
1.44236e-05
7.05335e-06
2.20419e-06
-0.229767
-0.200475
-0.167202
-0.131922
-0.0958104
-0.0639719
-0.0391281
-0.0213204
-0.00946007
-0.00220628
0.00173282
0.00348377
0.00391802
0.0036512
0.0030801
0.00243635
0.00183906
0.0013382
0.000944331
0.000648729
0.000434828
0.000284796
0.000182368
0.000114064
6.96764e-05
4.15272e-05
2.39695e-05
1.32671e-05
6.49089e-06
2.03289e-06
-0.215419
-0.18961
-0.159418
-0.127452
-0.0943686
-0.0645599
-0.0408094
-0.0234198
-0.0115478
-0.00405435
0.000214269
0.00229946
0.00302966
0.00300414
0.00261927
0.00211391
0.00161678
0.00118701
0.000842835
0.000581517
0.000390979
0.000256632
0.000164591
0.000103067
6.30131e-05
3.75832e-05
2.17057e-05
1.20243e-05
5.88649e-06
1.84891e-06
-0.20167
-0.179143
-0.151837
-0.122935
-0.0927422
-0.0649433
-0.04232
-0.0254039
-0.0135758
-0.00588409
-0.00131199
0.0010941
0.00211573
0.00233233
0.00213714
0.00177445
0.00138161
0.00102644
0.000734731
0.00050978
0.000344105
0.000226495
0.000145555
9.12843e-05
5.58705e-05
3.33542e-05
1.92779e-05
1.06914e-05
5.23822e-06
1.6517e-06
-0.188538
-0.169069
-0.144466
-0.118394
-0.0909417
-0.0651234
-0.043655
-0.0272631
-0.0155337
-0.00768681
-0.00283955
-0.000128093
0.0011787
0.00163701
0.00163419
0.00141805
0.00113344
0.00085631
0.000619856
0.000433381
0.000294103
0.000194312
0.000125212
7.86839e-05
4.82295e-05
2.88288e-05
1.66793e-05
9.2646e-06
4.54427e-06
1.44081e-06
-0.176033
-0.159384
-0.137314
-0.113851
-0.0889801
-0.0651034
-0.0448112
-0.0289894
-0.0174115
-0.00945359
-0.00436151
-0.00136235
0.000221547
0.000919862
0.00111123
0.00104501
0.0008723
0.000676563
0.000498105
0.000352223
0.000240896
0.000160026
0.000103522
6.52405e-05
4.00738e-05
2.39972e-05
1.39041e-05
7.74078e-06
3.80312e-06
1.21583e-06
-0.164158
-0.150086
-0.130385
-0.109327
-0.0868729
-0.0648884
-0.0457868
-0.0305759
-0.0191998
-0.0111754
-0.00587053
-0.00260334
-0.000752206
0.000182986
0.00056941
0.000655885
0.000598414
0.000487238
0.000369451
0.000266258
0.000184437
0.000123601
8.04585e-05
5.09358e-05
3.13916e-05
1.88519e-05
1.0948e-05
6.11754e-06
3.01358e-06
9.76535e-07
-0.152917
-0.141172
-0.123685
-0.104843
-0.0846381
-0.0644861
-0.0465817
-0.0320174
-0.0208898
-0.0128431
-0.00735894
-0.00384522
-0.00173852
-0.000571035
1.02476e-05
0.000251493
0.000312187
0.000288512
0.000233955
0.000175495
0.000124715
8.50209e-05
5.60084e-05
3.57601e-05
2.21764e-05
1.33889e-05
7.80843e-06
4.39346e-06
2.175e-06
7.22807e-07
-0.142307
-0.132641
-0.117219
-0.100418
-0.082296
-0.0639062
-0.0471975
-0.0333104
-0.0224738
-0.014448
-0.0088188
-0.00508169
-0.00273281
-0.00133913
-0.000564326
-0.00016702
1.42571e-05
8.07252e-05
9.17876e-05
8.00139e-05
6.17689e-05
4.43012e-05
3.01777e-05
1.97153e-05
1.24284e-05
7.60809e-06
4.48527e-06
2.56844e-06
1.28732e-06
4.54748e-07
-0.132324
-0.124498
-0.110995
-0.0960715
-0.0798693
-0.063161
-0.0476382
-0.0344529
-0.0239452
-0.0159816
-0.010242
-0.00630602
-0.00372998
-0.0021177
-0.00115194
-0.000598165
-0.000294476
-0.000135598
-5.67518e-05
-2.00165e-05
-4.30924e-06
1.49413e-06
2.99524e-06
2.81778e-06
2.15677e-06
1.51441e-06
9.81237e-07
6.43977e-07
3.51262e-07
1.72696e-07
-0.122962
-0.116745
-0.105019
-0.0918217
-0.077382
-0.0622656
-0.0479099
-0.0354448
-0.0252989
-0.0174359
-0.0116205
-0.00751111
-0.0047244
-0.00290264
-0.00174974
-0.00104006
-0.000612815
-0.000359715
-0.000211211
-0.000124324
-7.3356e-05
-4.33034e-05
-2.54813e-05
-1.48986e-05
-8.61873e-06
-4.8807e-06
-2.69726e-06
-1.37642e-06
-6.31437e-07
-1.22712e-07
-0.114215
-0.109391
-0.0993012
-0.0876869
-0.0748593
-0.0612378
-0.048021
-0.0362876
-0.0265311
-0.0188038
-0.0129462
-0.00868961
-0.00570998
-0.00368928
-0.00235438
-0.0014904
-0.000939228
-0.000590633
-0.000370958
-0.000232513
-0.000145125
-8.99404e-05
-5.516e-05
-3.33784e-05
-1.98652e-05
-1.1558e-05
-6.53933e-06
-3.48677e-06
-1.65785e-06
-4.30483e-07
-0.106075
-0.102443
-0.0938513
-0.0836854
-0.0723273
-0.0600981
-0.0479824
-0.0369845
-0.02764
-0.0200793
-0.0142114
-0.009834
-0.00668022
-0.00447242
-0.00296198
-0.00194642
-0.00127181
-0.000827076
-0.000535157
-0.000344043
-0.000219275
-0.000138201
-8.59076e-05
-5.25402e-05
-3.15339e-05
-1.8489e-05
-1.05287e-05
-5.67811e-06
-2.72361e-06
-7.49198e-07
-0.0985346
-0.0959103
-0.0886807
-0.0798353
-0.0698119
-0.0588694
-0.0478077
-0.0375407
-0.0286252
-0.0212575
-0.0154089
-0.0109367
-0.00762821
-0.00524635
-0.00356809
-0.00240484
-0.00160824
-0.00106745
-0.000702735
-0.00045821
-0.000295347
-0.000187796
-0.000117542
-7.22722e-05
-4.35575e-05
-2.56339e-05
-1.46425e-05
-7.93793e-06
-3.8226e-06
-1.07693e-06
-0.0915864
-0.0898026
-0.083802
-0.0761556
-0.0673395
-0.0575765
-0.0475128
-0.0379635
-0.0294883
-0.0223349
-0.016532
-0.01199
-0.0085467
-0.00600481
-0.00416771
-0.00286187
-0.00194575
-0.0013098
-0.000872357
-0.000574116
-0.000372754
-0.000238346
-0.000149825
-9.24268e-05
-5.58466e-05
-3.29398e-05
-1.88505e-05
-1.02495e-05
-4.94666e-06
-1.41119e-06
-0.0852237
-0.0841307
-0.0792288
-0.0726658
-0.0649365
-0.0562458
-0.0471163
-0.0382629
-0.0302323
-0.0233092
-0.0175747
-0.0129864
-0.00942815
-0.00674104
-0.00475523
-0.00331314
-0.00228108
-0.00155179
-0.00104239
-0.000690653
-0.000450759
-0.000289373
-0.000182453
-0.000112815
-6.82864e-05
-4.03387e-05
-2.31135e-05
-1.25915e-05
-6.08531e-06
-1.74878e-06
-0.0794408
-0.0789063
-0.0749765
-0.0693863
-0.0626296
-0.0549051
-0.046639
-0.0384508
-0.0308615