/*--------------------------------*- C++ -*----------------------------------*\
  =========                 |
  \\      /  F ield         | OpenFOAM: The Open Source CFD Toolbox
   \\    /   O peration     | Website:  https://openfoam.org
    \\  /    A nd           | Version:  9
     \\/     M anipulation  |
\*---------------------------------------------------------------------------*/
FoamFile
{
    format      ascii;
    class       volVectorField;
    location    "4.3";
    object      U;
}
// * * * * * * * * * * * * * * * * * * * * * * * * * * * * * * * * * * * * * //

dimensions      [0 1 -1 0 0 0 0];

internalField   nonuniform List<vector> 
8500
(
(-0.0315245 0.01123 0)
(-0.121608 0.0167268 -8.11273e-23)
(-0.236182 0.0178291 -4.54392e-24)
(-0.338256 0.0175989 9.38918e-37)
(-0.437459 0.0166009 -1.54131e-23)
(-0.523038 0.0142559 1.28339e-23)
(-0.591082 0.0101338 -9.51338e-23)
(-0.623566 0.00265455 -1.51869e-22)
(-0.624183 -0.00630341 -1.326e-22)
(-0.539735 -0.0206396 -6.32662e-24)
(-0.0317891 0.0332439 2.28141e-22)
(-0.119738 0.0497252 7.60588e-23)
(-0.231039 0.0530934 3.18868e-22)
(-0.32931 0.0524106 0)
(-0.423704 0.0494284 0)
(-0.503331 0.0424579 2.76791e-23)
(-0.564896 0.0302996 7.20225e-23)
(-0.589598 0.00815731 1.61781e-22)
(-0.585135 -0.0185232 1.01208e-22)
(-0.490669 -0.0611274 2.57227e-23)
(-0.0322859 0.0539447 -2.02643e-22)
(-0.116094 0.0813718 0)
(-0.221003 0.0871851 -2.99556e-22)
(-0.311864 0.0860719 0)
(-0.396925 0.081137 -6.24724e-23)
(-0.465008 0.0697298 5.20181e-23)
(-0.514148 0.050126 0)
(-0.523938 0.0143049 0)
(-0.510426 -0.0295809 0)
(-0.397841 -0.0988605 0)
(-0.0329542 0.0725398 4.16084e-22)
(-0.110862 0.110813 -3.10222e-22)
(-0.206561 0.119349 -7.63872e-23)
(-0.286768 0.117843 -5.04639e-22)
(-0.358516 0.110992 -5.4665e-22)
(-0.410152 0.0954403 5.67701e-23)
(-0.441848 0.069254 -4.73999e-23)
(-0.430691 0.0216644 5.98066e-22)
(-0.405555 -0.0385876 5.31171e-24)
(-0.269223 -0.131512 5.09313e-22)
(-0.0337134 0.0883556 -4.16083e-22)
(-0.10431 0.137263 -4.09499e-22)
(-0.188403 0.148871 1.16951e-22)
(-0.255221 0.147026 6.78837e-22)
(-0.310427 0.13828 -6.40687e-23)
(-0.341701 0.118933 8.93178e-22)
(-0.35211 0.0870839 0)
(-0.31535 0.030648 -6.82378e-22)
(-0.27717 -0.0451058 -1.36015e-22)
(-0.113479 -0.156928 -7.21376e-22)
(-0.0344733 0.100875 1.07543e-22)
(-0.0967694 0.16003 6.74719e-22)
(-0.167381 0.175088 -5.44468e-22)
(-0.218685 0.172979 -5.20489e-24)
(-0.255013 0.162324 -5.72301e-22)
(-0.263264 0.139544 2.31964e-22)
(-0.249974 0.102719 -9.73784e-23)
(-0.184874 0.0412746 8.84248e-22)
(-0.132808 -0.049888 -1.49094e-22)
(0.0598899 -0.173153 4.26338e-22)
(-0.0351456 0.109767 5.43356e-23)
(-0.0886233 0.178538 0)
(-0.144457 0.197398 -6.44092e-24)
(-0.178792 0.195134 0)
(-0.194846 0.182523 9.96266e-22)
(-0.178862 0.156682 -9.00964e-22)
(-0.141061 0.115063 0)
(-0.0477642 0.0533595 6.03169e-24)
(0.0193717 -0.0539787 0)
(0.240827 -0.180342 0)
(-0.0356556 0.114901 -8.92058e-22)
(-0.0802802 0.192346 -9.43368e-23)
(-0.120658 0.215275 7.089e-22)
(-0.137251 0.213003 1.45195e-22)
(-0.132523 0.198371 -1.01453e-21)
(-0.0925709 0.169931 -6.78642e-22)
(-0.0308712 0.123077 -9.84189e-23)
(0.0876055 0.0649191 8.95748e-22)
(0.170352 -0.0569169 -1.52755e-22)
(0.419078 -0.181095 1.04242e-22)
(-0.0359503 0.116352 1.00524e-21)
(-0.0721527 0.20117 -7.49849e-22)
(-0.0970158 0.228277 -2.42715e-22)
(-0.0957721 0.226176 1.35908e-22)
(-0.0704986 0.209426 1.00451e-21)
(-0.00808314 0.178844 1.02262e-21)
(0.0750407 0.126446 -9.80602e-23)
(0.214641 0.0727076 1.7098e-22)
(0.31471 -0.059619 -2.98923e-22)
(0.586638 -0.178348 1.2316e-22)
(-0.0360069 0.114401 9.18344e-22)
(-0.0646279 0.204903 7.52106e-22)
(-0.0745088 0.236032 -1.12007e-21)
(-0.055979 0.234242 -1.36201e-22)
(-0.0111298 0.215356 0)
(0.0716354 0.183043 0)
(0.172489 0.125338 0)
(0.328435 0.075021 -2.80995e-21)
(0.451377 -0.0638305 -1.21835e-21)
(0.739665 -0.173998 9.02629e-22)
(-0.03584 0.109502 -1.84736e-21)
(-0.0580481 0.203625 0)
(-0.0540254 0.238276 2.57031e-21)
(-0.0192961 0.236841 1.11224e-21)
(0.0435396 0.215921 1.19596e-22)
(0.144014 0.182385 0)
(0.259443 0.119915 -1.57463e-21)
(0.429042 0.0706867 1.39454e-21)
(0.582483 -0.0698624 1.21832e-21)
(0.877056 -0.168552 -9.02597e-22)
(-0.035502 0.102252 1.04558e-21)
(-0.0526778 0.197631 -9.56753e-23)
(-0.0362961 0.234938 -1.28559e-21)
(0.0130945 0.233774 -1.25484e-21)
(0.0919983 0.210913 0)
(0.207298 0.176589 1.72142e-21)
(0.33642 0.110412 3.42696e-23)
(0.522298 0.0598824 1.16057e-21)
(0.71129 -0.0766708 1.2966e-21)
(0.998585 -0.16159 -8.58749e-22)
(-0.0350845 0.093338 -4.6127e-25)
(-0.0486747 0.18743 1.63188e-21)
(-0.0218049 0.226163 -1.59002e-22)
(0.0404234 0.224992 9.49701e-22)
(0.133521 0.200317 5.88604e-22)
(0.2615 0.165212 3.89883e-22)
(0.407785 0.0970832 1.54971e-21)
(0.617192 0.0448025 -1.4937e-21)
(0.838654 -0.0821723 -8.84479e-22)
(1.10328 -0.152414 6.33346e-22)
(-0.0347129 0.0834797 0)
(-0.0460694 0.17373 -1.3423e-21)
(-0.0106895 0.212347 -1.58879e-22)
(0.0625718 0.210674 -1.3277e-23)
(0.16861 0.184419 9.53108e-22)
(0.309554 0.148336 -1.47014e-21)
(0.481757 0.0810896 1.4737e-21)
(0.720618 0.0288837 -1.57248e-22)
(0.961134 -0.0841833 0)
(1.18968 -0.140869 0)
(-0.0345341 0.0733701 1.19173e-22)
(-0.0447483 0.157395 -1.54001e-21)
(-0.00264055 0.194167 0)
(0.0803612 0.191332 -1.49887e-22)
(0.199712 0.163905 1.13332e-22)
(0.358409 0.126993 0)
(0.567241 0.0649849 -1.4652e-21)
(0.832583 0.0154274 -1.2156e-21)
(1.07247 -0.0815202 2.47546e-22)
(1.257 -0.127479 -2.08031e-22)
(-0.0346941 0.0636172 -1.18574e-22)
(-0.0444356 0.139378 1.63734e-21)
(0.00319816 0.172581 0)
(0.0958385 0.167892 -1.19832e-21)
(0.231615 0.140019 1.11643e-22)
(0.41775 0.103802 -1.57801e-21)
(0.668552 0.0518413 -1.77194e-22)
(0.946186 0.00642447 1.36388e-21)
(1.16693 -0.0742939 0)
(1.30586 -0.113185 1.44823e-21)
(-0.0353073 0.0546999 -1.80636e-21)
(-0.0446725 0.120647 -9.75669e-23)
(0.00829981 0.148774 -1.57628e-22)
(0.112473 0.141717 1.30381e-22)
(0.271388 0.114777 -1.77965e-21)
(0.495708 0.0828271 1.57799e-21)
(0.781849 0.0436926 1.35171e-21)
(1.0521 0.00227545 1.13537e-21)
(1.24157 -0.0634028 1.86782e-21)
(1.33823 -0.0988945 -1.27939e-21)
(-0.0364223 0.0469382 1.92523e-21)
(-0.0448027 0.102091 0)
(0.0147502 0.124056 1.40992e-21)
(0.134991 0.114558 -1.29613e-22)
(0.326659 0.0910923 3.53661e-21)
(0.594117 0.0675931 0)
(0.897345 0.0407752 -1.35169e-21)
(1.14327 0.00236272 -3.99705e-23)
(1.29649 -0.0498223 -2.08221e-21)
(1.35687 -0.0852601 1.80183e-22)
(-0.037994 0.0404801 0)
(-0.0439793 0.0844402 1.55141e-21)
(0.0251259 0.0997147 -1.25322e-21)
(0.168763 0.0885365 0)
(0.402459 0.0722951 -1.75695e-21)
(0.706783 0.0594464 0)
(1.00493 0.0420501 1.27818e-21)
(1.21668 0.00586053 -1.09538e-21)
(1.33374 -0.0342972 -1.68242e-21)
(1.36476 -0.0731916 -1.24129e-21)
(-0.0398694 0.0353072 -2.40145e-22)
(-0.0412138 0.0681992 -1.3543e-21)
(0.0422533 0.0768798 0)
(0.218613 0.0660798 0)
(0.498373 0.0606824 0)
(0.822964 0.0575763 -1.86889e-22)
(1.09814 0.0461617 -1.27802e-21)
(1.2726 0.0122165 -1.30724e-22)
(1.35642 -0.0178356 1.68242e-21)
(1.36545 -0.064117 1.39072e-21)
(-0.041797 0.031259 0)
(-0.0354572 0.0536031 -1.56753e-21)
(0.0689031 0.0564768 0)
(0.287257 0.0495734 0)
(0.608136 0.0564705 0)
(0.932755 0.0602911 1.82945e-22)
(1.17466 0.0521033 -1.51119e-21)
(1.31299 0.0209892 1.14348e-22)
(1.36829 -0.00253327 1.13121e-21)
(1.36235 -0.0600945 1.15879e-21)
(-0.0434601 0.0280742 0)
(-0.0256745 0.0406075 1.56753e-21)
(0.107449 0.0393465 -1.2679e-21)
(0.373977 0.0405667 0)
(0.722481 0.0581914 -1.70793e-21)
(1.03005 0.0660654 0)
(1.2349 0.0593473 1.20734e-21)
(1.34045 0.031229 -9.41518e-22)
(1.37296 0.00896999 -1.51707e-21)
(1.36337 -0.0352806 -1.13805e-21)
(-0.0445236 0.0254362 2.00604e-21)
(-0.0108788 0.0289432 0)
(0.159481 0.0264314 1.1106e-21)
(0.474409 0.0390266 1.30099e-22)
(0.832973 0.0639971 3.41058e-21)
(1.11245 0.0738497 0)
(1.28058 0.0675466 -1.14102e-21)
(1.35768 0.0415065 -1.84832e-21)
(1.3739 0.0219249 -1.22008e-21)
(1.3582 -0.0220925 -1.77324e-23)
(-0.0446652 0.0230077 -2.13029e-21)
(0.00988012 0.0182586 1.01985e-22)
(0.225361 0.0187379 1.58309e-22)
(0.581942 0.0434998 -1.30939e-22)
(0.934078 0.0725029 -1.70265e-21)
(1.17995 0.0829706 1.38471e-21)
(1.31392 0.076274 1.14102e-21)
(1.36746 0.0521851 9.06803e-22)
(1.37098 0.0326607 1.38882e-21)
(1.35219 -0.00603588 -1.13092e-21)
(-0.0435781 0.02046 1.25913e-22)
(0.0375406 0.00834312 1.53087e-21)
(0.303879 0.0169277 0)
(0.689874 0.052137 -9.14257e-22)
(1.02312 0.082854 -1.0694e-22)
(1.23373 0.0929524 -1.38471e-21)
(1.33725 0.0854 1.3272e-22)
(1.37153 0.06253 7.32284e-22)
(1.36611 0.0436796 0)
(1.34499 0.007505 1.01112e-21)
(-0.0409516 0.017505 -1.30072e-22)
(0.0729765 -0.000610098 -1.63421e-21)
(0.392277 0.0208703 0)
(0.792999 0.0635417 1.21988e-22)
(1.09939 0.0945155 -1.0714e-22)
(1.27548 0.103486 0)
(1.3526 0.0947003 -1.05028e-21)
(1.37165 0.0728282 -8.43378e-22)
(1.35971 0.0538371 -1.49936e-22)
(1.3372 0.0206549 -1.2611e-22)
(-0.0364284 0.0139314 0)
(0.116848 -0.00785877 -1.88414e-21)
(0.486786 0.0296544 1.68669e-22)
(0.888048 0.0768849 -6.39977e-24)
(1.16327 0.107116 -8.37253e-22)
(1.307 0.114343 -1.47633e-21)
(1.36177 0.104128 1.18455e-21)
(1.36891 0.0828585 0)
(1.35247 0.0638412 0)
(1.32928 0.0329795 0)
(-0.0295655 0.0096341 3.04078e-24)
(0.169367 -0.012233 1.58033e-21)
(0.583436 0.0420819 1.70991e-22)
(0.973385 0.0916758 1.18582e-21)
(1.21571 0.120369 7.29963e-22)
(1.33001 0.125385 -1.33387e-22)
(1.3662 0.113609 1.00474e-21)
(1.36423 0.0927531 -6.59241e-22)
(1.34472 0.0734653 -7.12389e-22)
(1.32121 0.0446718 5.50431e-22)
(-0.019831 0.00465449 9.84128e-22)
(0.230068 -0.0125278 1.10509e-22)
(0.678706 0.0571628 -1.37041e-21)
(1.04849 0.107606 -1.06559e-21)
(1.25789 0.134064 0)
(1.34604 0.136521 1.29165e-21)
(1.36707 0.123141 -2.70157e-23)
(1.35822 0.102477 8.49495e-22)
(1.3367 0.0828861 4.98742e-22)
(1.31321 0.0558542 -4.33466e-22)
(-0.0066508 -0.000776864 -2.26377e-21)
(0.297757 -0.00797087 0)
(0.769844 0.0742702 2.76186e-21)
(1.1135 0.12448 9.36796e-22)
(1.29108 0.148047 1.06904e-22)
(1.35642 0.147706 0)
(1.36526 0.132713 -9.67476e-22)
(1.35131 0.112087 7.10519e-22)
(1.32852 0.0920837 5.32399e-22)
(1.3052 0.0665356 -4.00725e-22)
(0.010533 -0.00622171 1.145e-21)
(0.370696 0.00154644 8.89532e-22)
(0.854905 0.0930392 -1.56021e-21)
(1.16891 0.142155 1.39585e-22)
(1.31649 0.162207 0)
(1.36227 0.158915 0)
(1.36146 0.142336 0)
(1.34378 0.121586 -1.3968e-21)
(1.32026 0.101103 -5.32404e-22)
(1.29722 0.0768063 4.00708e-22)
(0.0320907 -0.011006 1.05555e-21)
(0.446885 0.0155969 -8.82451e-22)
(0.932654 0.113225 9.06482e-23)
(1.21539 0.160492 0)
(1.33525 0.176467 7.96872e-22)
(1.36449 0.170144 5.23096e-22)
(1.35618 0.152009 5.97213e-23)
(1.33581 0.130993 -5.58271e-23)
(1.31193 0.109951 1.26594e-22)
(1.28923 0.0866741 -5.01214e-23)
(0.0581279 -0.0143239 -1.19823e-21)
(0.524312 0.033501 1.1155e-22)
(1.00244 0.134625 7.13788e-22)
(1.25365 0.179339 -1.97233e-22)
(1.34838 0.190772 -5.97917e-22)
(1.36382 0.181392 -7.42458e-22)
(1.34975 0.161731 5.81686e-23)
(1.32751 0.140307 3.43136e-22)
(1.30352 0.118637 0)
(1.28118 0.0961781 -4.21598e-23)
(0.0885333 -0.0153925 -7.72511e-23)
(0.601133 0.0546101 0)
(1.06407 0.157068 3.9927e-24)
(1.28447 0.198541 0)
(1.35676 0.205089 7.71768e-22)
(1.36084 0.192664 -5.65744e-22)
(1.34242 0.17149 0)
(1.31892 0.149526 1.20906e-23)
(1.295 0.127161 0)
(1.27304 0.105324 0)
(0.12295 -0.013582 -1.54129e-22)
(0.675734 0.0784141 1.01304e-21)
(1.11767 0.180404 -8.09776e-22)
(1.30855 0.217946 1.32671e-22)
(1.36114 0.219392 -3.54666e-22)
(1.35598 0.203957 -5.93874e-23)
(1.33437 0.18127 0)
(1.31006 0.15864 2.3611e-22)
(1.28636 0.135517 5.95008e-23)
(1.26478 0.114122 1.6024e-22)
(0.160819 -0.00852013 -6.44054e-22)
(0.746746 0.104522 -4.10379e-22)
(1.16355 0.204493 -1.32633e-22)
(1.32661 0.237417 5.27762e-22)
(1.36213 0.233659 4.2514e-23)
(1.34959 0.215265 5.5018e-22)
(1.32569 0.191047 0)
(1.30092 0.167634 -2.82267e-22)
(1.27756 0.143694 4.98754e-23)
(1.25636 0.122572 -3.54145e-22)
(0.201432 -0.000112476 -6.44053e-22)
(0.813037 0.132599 4.25033e-22)
(1.20217 0.229189 -5.55925e-24)
(1.33929 0.256838 -6.13386e-22)
(1.36024 0.24787 -3.20525e-22)
(1.3419 0.226574 -3.07505e-23)
(1.31643 0.200793 2.56754e-23)
(1.29148 0.176487 3.14662e-22)
(1.26855 0.15168 -3.4914e-24)
(1.24775 0.130672 1.14845e-22)
(0.243991 0.0115192 -3.29392e-22)
(0.87374 0.16231 0)
(1.23404 0.254338 -3.58077e-22)
(1.34721 0.276122 0)
(1.35589 0.262 -4.02817e-22)
(1.3331 0.237859 3.45637e-23)
(1.30664 0.210474 0)
(1.28172 0.185173 0)
(1.25932 0.159456 0)
(1.23893 0.138415 0)
(0.287656 0.026136 2.88866e-22)
(0.928316 0.193306 1.4075e-22)
(1.25956 0.279774 3.58079e-22)
(1.35089 0.295207 0)
(1.34938 0.276019 0)
(1.32329 0.249086 -1.42035e-23)
(1.29631 0.22005 5.4285e-23)
(1.27162 0.193663 6.06537e-23)
(1.24984 0.167002 5.4291e-23)
(1.2299 0.145787 -8.86033e-24)
(0.331578 0.0434527 -5.20173e-24)
(0.976553 0.225267 -1.31726e-22)
(1.27914 0.305347 5.98619e-24)
(1.3508 0.314031 6.97696e-24)
(1.34099 0.28989 -1.06262e-23)
(1.31256 0.260211 4.02574e-24)
(1.28546 0.229476 -4.72327e-23)
(1.26115 0.201928 -5.66311e-23)
(1.24006 0.17429 -4.12831e-23)
(1.22066 0.152772 1.46957e-24)
(0.374937 0.0631894 0)
(1.01839 0.257909 -1.31622e-22)
(1.29317 0.3309 -3.97019e-24)
(1.34733 0.332525 8.19859e-24)
(1.33091 0.303567 1.4587e-37)
(1.30097 0.271183 -1.01574e-37)
(1.27406 0.238705 -4.25213e-23)
(1.25028 0.209932 -4.96842e-23)
(1.22998 0.181284 -3.8086e-23)
(1.21121 0.159355 0)
(0.416954 0.085094 3.74682e-22)
(1.05386 0.290972 1.08031e-22)
(1.30204 0.356271 3.53182e-22)
(1.34082 0.350621 -1.59709e-23)
(1.3193 0.316992 0)
(1.28854 0.281943 1.22004e-23)
(1.26211 0.247688 2.7801e-23)
(1.239 0.217643 5.34796e-23)
(1.21959 0.187948 2.96157e-23)
(1.20152 0.165538 7.11895e-24)
(0.456914 0.108936 -3.33836e-22)
(1.08308 0.324209 0)
(1.30612 0.381304 -3.33877e-22)
(1.33156 0.368251 0)
(1.30629 0.3301 -3.35752e-23)
(1.27529 0.292427 2.79568e-23)
(1.24959 0.256374 0)
(1.22728 0.225019 0)
(1.20889 0.194261 0)
(1.19149 0.17133 0)
(0.494183 0.134486 6.59287e-22)
(1.10621 0.357386 -4.23957e-22)
(1.30574 0.405843 -8.123e-23)
(1.3198 0.385342 -3.32948e-22)
(1.29197 0.34282 -3.09253e-22)
(1.26125 0.302568 2.13612e-23)
(1.23649 0.264711 -1.78356e-23)
(1.21511 0.232006 1.46608e-22)
(1.19794 0.200217 2.92682e-24)
(1.18108 0.176725 1.00574e-22)
(0.528214 0.161499 -6.59288e-22)
(1.12344 0.390274 -5.09027e-22)
(1.30121 0.429735 1.1303e-22)
(1.30578 0.401815 3.98144e-22)
(1.27641 0.355076 -1.98197e-23)
(1.2464 0.312297 3.33338e-22)
(1.22279 0.272642 0)
(1.20251 0.238549 -1.66763e-22)
(1.18671 0.205806 -2.48775e-23)
(1.1704 0.181715 -1.27029e-22)
(0.558554 0.189701 1.56575e-22)
(1.13497 0.422645 8.72294e-22)
(1.29282 0.452821 -5.0772e-22)
(1.28967 0.417586 -9.66073e-23)
(1.25966 0.366785 -2.34569e-22)
(1.23078 0.321541 5.26198e-23)
(1.20853 0.280106 -3.00735e-23)
(1.18955 0.244607 1.65037e-22)
(1.17511 0.210977 -2.7083e-23)
(1.1595 0.186287 6.88524e-23)
(0.58485 0.218786 7.91738e-23)
(1.14102 0.454265 0)
(1.28084 0.474949 3.10996e-23)
(1.27161 0.432563 0)
(1.24176 0.377854 4.67159e-22)
(1.21443 0.330222 -3.04379e-22)
(1.19376 0.287044 0)
(1.17621 0.250157 -1.77359e-23)
(1.16313 0.215702 0)
(1.14838 0.190407 0)
(0.606838 0.248421 -1.21434e-21)
(1.14182 0.484896 -9.40908e-23)
(1.26551 0.495962 6.19917e-22)
(1.25174 0.446654 7.21026e-23)
(1.22279 0.388183 -4.90853e-22)
(1.19744 0.338257 -1.76292e-22)
(1.17846 0.293402 -2.39992e-23)
(1.16247 0.255174 1.02335e-22)
(1.15079 0.219941 -1.99433e-23)
(1.13704 0.194047 9.86963e-24)
(0.624343 0.278248 1.35163e-21)
(1.13759 0.514295 -8.13061e-22)
(1.24705 0.515693 -1.80564e-22)
(1.23022 0.459757 8.88521e-23)
(1.2029 0.397692 3.85798e-22)
(1.17975 0.345559 2.67565e-22)
(1.16262 0.299127 -2.0778e-23)
(1.14837 0.259617 -1.80628e-23)
(1.13813 0.223672 -2.79714e-23)
(1.1255 0.197179 9.86646e-24)
(0.637275 0.307898 1.1195e-21)
(1.12859 0.542222 7.89163e-22)
(1.22565 0.533955 -7.63177e-22)
(1.20725 0.471759 -8.11379e-23)
(1.18214 0.406304 0)
(1.16133 0.352057 0)
(1.14628 0.304151 0)
(1.1339 0.263448 -2.74037e-22)
(1.12517 0.226862 -6.70689e-23)
(1.11378 0.199777 2.98312e-23)
(0.645621 0.336998 -2.17997e-21)
(1.1151 0.568457 0)
(1.20151 0.550555 1.63626e-21)
(1.18296 0.482534 4.44488e-22)
(1.16048 0.413935 0)
(1.14227 0.357686 0)
(1.12949 0.308416 -1.51985e-22)
(1.1191 0.26663 1.17867e-22)
(1.11195 0.229483 6.70695e-23)
(1.10191 0.201815 -2.98301e-23)
(0.649444 0.365167 1.17567e-21)
(1.09743 0.59279 -9.45604e-23)
(1.17496 0.565371 -7.7499e-22)
(1.15737 0.491903 -4.87677e-22)
(1.138 0.420506 3.5847e-23)
(1.12261 0.362377 2.07805e-22)
(1.11228 0.311866 5.38227e-23)
(1.10401 0.269124 3.34271e-23)
(1.09848 0.231505 1.16992e-23)
(1.08992 0.203271 1.53934e-23)
(0.64887 0.392026 -1.36526e-23)
(1.07586 0.614963 1.16287e-21)
(1.14625 0.578299 -1.02436e-22)
(1.13053 0.499728 2.72355e-22)
(1.11476 0.425902 1.43186e-22)
(1.10241 0.366064 -2.90814e-23)
(1.09471 0.314447 9.05674e-23)
(1.08865 0.270895 -4.39161e-23)
(1.08482 0.232897 2.28581e-24)
(1.07784 0.204123 -1.13335e-23)
(0.644089 0.417229 0)
(1.0505 0.63464 -1.01707e-21)
(1.11568 0.589246 -8.9466e-23)
(1.10263 0.505932 -7.26127e-23)
(1.09085 0.430027 -1.49273e-22)
(1.08173 0.368683 -1.25714e-22)
(1.07683 0.316113 -1.92009e-23)
(1.07307 0.271908 0)
(1.07098 0.23363 0)
(1.06573 0.204344 0)
(0.635329 0.440531 9.93521e-23)
(1.02156 0.651501 -8.42732e-22)
(1.08352 0.598066 0)
(1.07378 0.510457 -9.29201e-23)
(1.06634 0.43279 1.50094e-23)
(1.06066 0.370174 0)
(1.05869 0.316818 1.2508e-23)
(1.05731 0.272133 8.39777e-23)
(1.05701 0.23367 -1.93941e-23)
(1.05361 0.203893 1.62894e-23)
(0.622815 0.461708 -7.4028e-23)
(0.989458 0.665365 9.03502e-22)
(1.04994 0.604549 0)
(1.04415 0.513233 -1.69236e-22)
(1.04135 0.434111 7.65741e-24)
(1.03926 0.370481 9.97198e-23)
(1.04036 0.316524 1.38136e-23)
(1.04143 0.271539 -9.55403e-23)
(1.04293 0.232985 0)
(1.04154 0.202727 -2.12415e-22)
(0.60667 0.480422 -1.04051e-21)
(0.954752 0.67619 -5.08233e-23)
(1.01516 0.608534 -1.79456e-23)
(1.01387 0.514186 1.48442e-23)
(1.01595 0.433924 1.33411e-22)
(1.01762 0.369551 -9.97206e-23)
(1.02191 0.315197 -1.83306e-22)
(1.02545 0.270099 -1.67623e-22)
(1.02879 0.231548 -2.95887e-22)
(1.02965 0.200839 1.85659e-22)
(0.587057 0.496225 1.10242e-21)
(0.917859 0.683828 0)
(0.979366 0.609934 5.98239e-23)
(0.9831 0.513239 -4.09534e-24)
(0.990278 0.43217 -3.78942e-22)
(0.995834 0.367341 0)
(1.0034 0.312808 1.83307e-22)
(1.0094 0.267776 -4.20568e-23)
(1.01469 0.229333 3.36938e-22)
(1.01823 0.198267 -3.44728e-23)
(0.564422 0.508883 0)
(0.879133 0.688124 2.06548e-22)
(0.942796 0.608677 -5.48733e-23)
(0.951987 0.510321 0)
(0.964435 0.428803 2.45532e-22)
(0.973988 0.363814 0)
(0.984889 0.309333 -2.98141e-22)
(0.993351 0.264533 2.09682e-22)
(1.00079 0.2263 4.18219e-22)
(1.00762 0.195076 3.3478e-22)
(0.539197 0.518199 -4.51418e-23)
(0.838916 0.688939 -1.69494e-22)
(0.905683 0.604706 0)
(0.920694 0.505371 0)
(0.938544 0.423784 0)
(0.952179 0.358944 4.81228e-23)
(0.966437 0.304758 2.17181e-22)
(0.977381 0.26035 3.4134e-23)
(0.987303 0.222399 -4.18222e-22)
(0.997718 0.191214 -3.76081e-22)
(0.511801 0.524012 0)
(0.79756 0.686168 1.29572e-22)
(0.868269 0.597982 0)
(0.889387 0.498341 0)
(0.912733 0.417085 0)
(0.930503 0.35271 -5.73936e-23)
(0.948125 0.299068 5.07138e-22)
(0.961624 0.255236 -1.16686e-22)
(0.974319 0.217659 -4.08185e-22)
(0.987855 0.18524 -4.14501e-22)
(0.482648 0.526201 0)
(0.75543 0.679736 -1.29573e-22)
(0.8308 0.588481 4.08697e-22)
(0.858235 0.489197 0)
(0.887131 0.40869 6.94588e-22)
(0.909058 0.3451 0)
(0.930044 0.292251 -4.11777e-22)
(0.9462 0.2492 3.73834e-22)
(0.961573 0.212523 5.33728e-22)
(0.976676 0.181088 4.13837e-22)
(0.452155 0.524683 -2.91656e-22)
(0.712889 0.669601 0)
(0.793523 0.576197 -3.46901e-22)
(0.827412 0.477923 -5.11178e-23)
(0.861869 0.398592 -1.49871e-21)
(0.887947 0.336109 0)
(0.912289 0.284297 5.22e-22)
(0.931177 0.242168 3.88409e-23)
(0.949183 0.206274 5.70463e-22)
(0.965825 0.175511 1.78122e-24)
(0.420732 0.519418 3.25078e-22)
(0.670306 0.655751 -2.7434e-23)
(0.756682 0.561144 -7.49535e-23)
(0.797093 0.464518 -6.19999e-23)
(0.837079 0.386797 8.04119e-22)
(0.867273 0.325745 -7.28177e-22)
(0.894946 0.275226 -5.22003e-22)
(0.91656 0.234241 -4.1268e-22)
(0.937005 0.199389 -6.44675e-22)
(0.95497 0.169666 6.03187e-22)
(0.388786 0.5104 -4.73551e-23)
(0.628042 0.638204 -7.58694e-22)
(0.720519 0.543353 0)
(0.767451 0.448996 5.5365e-22)
(0.812894 0.373322 6.07484e-23)
(0.847143 0.31402 7.28181e-22)
(0.878107 0.26504 -7.27413e-23)
(0.902421 0.22537 -4.25955e-22)
(0.925179 0.191664 0)
(0.944405 0.163076 -5.37902e-22)
(0.356714 0.497666 5.58578e-23)
(0.586455 0.617012 7.97569e-22)
(0.685272 0.522873 0)
(0.738661 0.431389 -8.50153e-24)
(0.789446 0.358196 6.78652e-23)
(0.827663 0.300961 0)
(0.861852 0.253771 6.7612e-22)
(0.888795 0.215613 4.86841e-22)
(0.913732 0.183235 9.31508e-23)
(0.934202 0.1559 -7.82433e-23)
(0.324902 0.481285 0)
(0.545894 0.59225 1.24489e-21)
(0.651169 0.499773 -1.10003e-22)
(0.710893 0.411745 7.04779e-23)
(0.766866 0.341458 6.06785e-22)
(0.808936 0.286601 1.04803e-21)
(0.84626 0.241443 -7.67363e-22)
(0.875746 0.20498 0)
(0.902734 0.174083 0)
(0.924444 0.148095 0)
(0.293723 0.461363 2.76595e-24)
(0.506693 0.564027 -1.0322e-21)
(0.618437 0.47414 1.24257e-22)
(0.684312 0.390125 -8.68528e-22)
(0.745282 0.32316 -5.25482e-22)
(0.791064 0.270982 1.80962e-22)
(0.831411 0.228095 -7.76458e-22)
(0.86333 0.19351 5.1215e-22)
(0.89224 0.164251 5.52006e-22)
(0.91519 0.139698 -4.30728e-22)
(0.263532 0.438044 -7.35521e-22)
(0.469174 0.532472 -8.175e-23)
(0.587288 0.446078 1.15492e-21)
(0.659081 0.366607 9.0147e-22)
(0.724819 0.303366 0)
(0.774146 0.254159 -1.00284e-21)
(0.817379 0.213771 -4.23105e-23)
(0.851604 0.181239 -6.59141e-22)
(0.882307 0.153762 -3.87007e-22)
(0.906489 0.130731 3.42876e-22)
(0.234667 0.411513 1.76924e-21)
(0.433633 0.497731 0)
(0.557929 0.415705 -2.39828e-21)
(0.635351 0.341284 -7.88929e-22)
(0.705596 0.282149 -9.34209e-23)
(0.758274 0.236191 0)
(0.804235 0.198521 8.10753e-22)
(0.840625 0.16821 -6.44862e-22)
(0.872988 0.142649 -4.89138e-22)
(0.898383 0.121226 3.73641e-22)
(0.20744 0.381999 -9.3413e-22)
(0.400346 0.459967 -8.27582e-22)
(0.530559 0.383155 1.39884e-21)
(0.61327 0.314261 -1.28615e-22)
(0.687727 0.259594 0)
(0.743539 0.21715 0)
(0.792049 0.182401 0)
(0.830448 0.154471 1.31541e-21)
(0.864334 0.13095 4.8914e-22)
(0.890907 0.111221 -3.73641e-22)
(0.182124 0.349737 -9.7855e-22)
(0.369577 0.419388 8.24447e-22)
(0.505371 0.348576 8.68673e-23)
(0.592975 0.285658 0)
(0.671319 0.235796 -8.09274e-22)
(0.730023 0.197111 -5.38166e-22)
(0.780885 0.165476 -5.9639e-23)
(0.821122 0.140073 1.04784e-22)
(0.856394 0.118706 -1.30027e-22)
(0.884096 0.100755 5.1863e-23)
(0.158949 0.314938 1.11081e-21)
(0.341576 0.376254 -1.11525e-22)
(0.48254 0.312135 -9.11999e-22)
(0.574596 0.255607 2.02035e-22)
(0.656472 0.210859 6.02331e-22)
(0.717803 0.17616 7.65626e-22)
(0.770802 0.147814 -6.1808e-23)
(0.812698 0.125072 -3.36492e-22)
(0.84921 0.105962 0)
(0.877976 0.0898728 4.8797e-23)
(0.138135 0.27783 7.64497e-23)
(0.31657 0.330838 0)
(0.462222 0.274017 -2.96885e-23)
(0.558248 0.224253 0)
(0.643275 0.184895 -8.67239e-22)
(0.70695 0.154389 6.49566e-22)
(0.761853 0.129488 0)
(0.80522 0.109526 9.20375e-24)
(0.842826 0.0927679 0)
(0.872573 0.0786228 0)
(0.119887 0.23867 1.58773e-22)
(0.29476 0.283417 -1.082e-21)
(0.444551 0.234423 8.56566e-22)
(0.544036 0.19175 -1.46855e-22)
(0.631809 0.158025 3.75296e-22)
(0.697527 0.131893 1.03203e-22)
(0.754088 0.110579 0)
(0.798727 0.0935027 -2.78345e-22)
(0.837278 0.0791774 -7.40721e-23)
(0.867906 0.0670543 -2.14044e-22)
(0.104389 0.197743 6.80488e-22)
(0.276316 0.234277 -1.6052e-21)
(0.429644 0.193561 1.4747e-22)
(0.532052 0.158259 -6.14538e-22)
(0.622144 0.130376 -6.91091e-23)
(0.689587 0.108776 -6.65579e-22)
(0.747549 0.0911684 0)
(0.793258 0.077069 3.81039e-22)
(0.8326 0.0652472 -6.79374e-23)
(0.863993 0.0552173 4.88492e-22)
(0.0917972 0.155347 -6.80488e-22)
(0.261384 0.183712 5.8916e-22)
(0.417599 0.15165 -1.02022e-22)
(0.52237 0.12395 7.20645e-22)
(0.61434 0.102081 3.9416e-22)
(0.683179 0.0851446 4.06921e-23)
(0.742273 0.0713436 -3.39757e-23)
(0.788843 0.060297 -4.26716e-22)
(0.828821 0.0510379 3.8579e-24)
(0.860847 0.043163 -1.62284e-22)
(0.0822402 0.111796 3.56554e-22)
(0.250082 0.132029 0)
(0.408496 0.108915 4.19277e-22)
(0.515055 0.0889986 0)
(0.608444 0.0732805 5.53088e-23)
(0.678339 0.0611087 -4.60531e-23)
(0.738289 0.0511938 0)
(0.785508 0.0432599 0)
(0.825964 0.036611 0)
(0.858479 0.0309435 0)
(0.0758146 0.0674126 -3.1236e-22)
(0.242497 0.0795413 -1.20049e-22)
(0.402393 0.065587 -4.19278e-22)
(0.510151 0.0535851 0)
(0.604493 0.0441149 0)
(0.675096 0.0367821 2.07753e-23)
(0.73562 0.0308102 -8.27972e-23)
(0.783273 0.0260324 -9.80046e-23)
(0.824048 0.0220287 -9.12869e-23)
(0.856896 0.0186099 1.4728e-23)
(0.0725855 0.0225268 -5.65706e-24)
(0.23869 0.0265679 1.29531e-22)
(0.399332 0.0219021 -5.74811e-24)
(0.507692 0.0178927 1.98676e-23)
(0.602512 0.0147295 -7.81432e-24)
(0.67347 0.0122802 0)
(0.734282 0.0102857 6.54509e-23)
(0.782152 0.00869023 9.80046e-23)
(0.823087 0.00735326 6.9353e-23)
(0.856103 0.00621047 1.0356e-23)
(0.0725855 -0.0225268 -5.65706e-24)
(0.23869 -0.0265679 1.29531e-22)
(0.399332 -0.0219021 -5.74811e-24)
(0.507692 -0.0178927 1.98676e-23)
(0.602512 -0.0147295 -7.81432e-24)
(0.67347 -0.0122802 0)
(0.734282 -0.0102857 5.76621e-23)
(0.782152 -0.00869023 1.04524e-22)
(0.823087 -0.00735326 7.37521e-23)
(0.856103 -0.00621047 0)
(0.0758146 -0.0674126 -4.00748e-22)
(0.242497 -0.0795413 -1.55737e-22)
(0.402393 -0.065587 -4.44417e-22)
(0.510151 -0.0535851 2.07945e-23)
(0.604493 -0.0441149 0)
(0.675096 -0.0367821 -2.07753e-23)
(0.73562 -0.0308102 -4.81046e-23)
(0.783273 -0.0260324 -9.80046e-23)
(0.824048 -0.0220287 -5.62172e-23)
(0.856896 -0.0186099 -1.4728e-23)
(0.0822402 -0.111796 3.56554e-22)
(0.250082 -0.132029 0)
(0.408496 -0.108915 4.19277e-22)
(0.515055 -0.0889986 0)
(0.608444 -0.0732805 5.53088e-23)
(0.678339 -0.0611087 -4.60531e-23)
(0.738289 -0.0511938 0)
(0.785508 -0.0432599 0)
(0.825964 -0.036611 0)
(0.858479 -0.0309435 0)
(0.0917972 -0.155347 -6.80488e-22)
(0.261384 -0.183712 4.60265e-22)
(0.417599 -0.15165 1.02022e-22)
(0.52237 -0.12395 4.93465e-22)
(0.61434 -0.102081 5.15553e-22)
(0.683179 -0.0851446 -4.06921e-23)
(0.742273 -0.0713436 3.39757e-23)
(0.788843 -0.060297 -3.35364e-22)
(0.828821 -0.0510379 -3.8579e-24)
(0.860847 -0.043163 -2.72487e-22)
(0.104389 -0.197743 6.80488e-22)
(0.276316 -0.234277 5.55776e-22)
(0.429644 -0.193561 -1.47471e-22)
(0.532052 -0.158259 -5.9957e-22)
(0.622144 -0.130376 4.98866e-23)
(0.689587 -0.108776 -6.65579e-22)
(0.747549 -0.0911684 0)
(0.793258 -0.077069 3.8104e-22)
(0.8326 -0.0652472 6.79374e-23)
(0.863993 -0.0552173 3.74367e-22)
(0.119887 -0.23867 -1.58773e-22)
(0.29476 -0.283417 1.082e-21)
(0.444551 -0.234423 6.70475e-22)
(0.544036 -0.19175 1.46855e-22)
(0.631809 -0.158025 4.68699e-22)
(0.697527 -0.131893 -1.49516e-22)
(0.754088 -0.110579 6.54061e-23)
(0.798727 -0.0935027 -4.54955e-22)
(0.837278 -0.0791774 7.40721e-23)
(0.867906 -0.0670543 -2.14044e-22)
(0.138135 -0.27783 -7.64497e-23)
(0.31657 -0.330838 0)
(0.462222 -0.274017 -2.96885e-23)
(0.558248 -0.224253 0)
(0.643275 -0.184895 -8.67239e-22)
(0.70695 -0.154389 6.49566e-22)
(0.761853 -0.129488 0)
(0.80522 -0.109526 9.20375e-24)
(0.842826 -0.0927679 0)
(0.872573 -0.0786228 0)
(0.158949 -0.314938 1.11081e-21)
(0.341576 -0.376254 1.11525e-22)
(0.48254 -0.312135 -6.41942e-22)
(0.574596 -0.255607 -1.30663e-22)
(0.656472 -0.210859 1.01622e-21)
(0.717803 -0.17616 4.53566e-22)
(0.770802 -0.147814 6.1808e-23)
(0.812698 -0.125072 -4.20489e-22)
(0.84921 -0.105962 7.04589e-23)
(0.877976 -0.0898728 -4.8797e-23)
(0.182124 -0.349737 -1.24308e-21)
(0.369577 -0.419388 8.30722e-22)
(0.505371 -0.348576 7.75771e-23)
(0.592975 -0.285658 -1.36025e-22)
(0.671319 -0.235796 -8.09274e-22)
(0.730023 -0.197111 -6.81023e-22)
(0.780885 -0.165476 5.9639e-23)
(0.821122 -0.140073 -5.80184e-23)
(0.856394 -0.118706 1.30027e-22)
(0.884096 -0.100755 -5.1863e-23)
(0.20744 -0.381999 -9.3413e-22)
(0.400346 -0.459967 -8.27583e-22)
(0.530559 -0.383155 1.08787e-21)
(0.61327 -0.314261 1.28615e-22)
(0.687727 -0.259594 0)
(0.743539 -0.21715 0)
(0.792049 -0.182401 0)
(0.830448 -0.154471 1.31541e-21)
(0.864334 -0.13095 4.8914e-22)
(0.890907 -0.111221 -3.73641e-22)
(0.234667 -0.411513 1.76924e-21)
(0.433633 -0.497731 0)
(0.557929 -0.415705 -2.39828e-21)
(0.635351 -0.341284 -9.01474e-22)
(0.705596 -0.282149 0)
(0.758274 -0.236191 0)
(0.804235 -0.198521 8.10753e-22)
(0.840625 -0.16821 -6.44862e-22)
(0.872988 -0.142649 -4.89138e-22)
(0.898383 -0.121226 3.73641e-22)
(0.263532 -0.438044 -9.34701e-22)
(0.469174 -0.532472 8.175e-23)
(0.587288 -0.446078 1.15492e-21)
(0.659081 -0.366607 1.00694e-21)
(0.724819 -0.303366 -8.75485e-23)
(0.774146 -0.254159 -1.00284e-21)
(0.817379 -0.213771 -4.23105e-23)
(0.851604 -0.181239 -5.15105e-22)
(0.882307 -0.153762 -5.07828e-22)
(0.906489 -0.130731 3.42877e-22)
(0.293723 -0.461363 -2.76595e-24)
(0.506693 -0.564027 -1.19056e-21)
(0.618437 -0.47414 -1.24257e-22)
(0.684312 -0.390125 -6.72629e-22)
(0.745282 -0.32316 -5.3602e-22)
(0.791064 -0.270982 -1.79436e-22)
(0.831411 -0.228095 -7.60415e-22)
(0.86333 -0.19351 6.62092e-22)
(0.89224 -0.164251 3.42825e-22)
(0.91519 -0.139698 -2.55026e-22)
(0.324902 -0.481285 0)
(0.545894 -0.59225 9.77863e-22)
(0.651169 -0.499773 1.10003e-22)
(0.710893 -0.411745 7.04779e-23)
(0.766866 -0.341458 6.06785e-22)
(0.808936 -0.286601 8.29477e-22)
(0.84626 -0.241443 -6.69103e-22)
(0.875746 -0.20498 7.04912e-23)
(0.902734 -0.174083 0)
(0.924444 -0.148095 0)
(0.356714 -0.497666 -5.58578e-23)
(0.586455 -0.617012 7.97569e-22)
(0.685272 -0.522873 0)
(0.738661 -0.431389 1.55014e-22)
(0.789446 -0.358196 -6.78653e-23)
(0.827663 -0.300961 0)
(0.861852 -0.253771 6.7612e-22)
(0.888795 -0.215613 4.86841e-22)
(0.913732 -0.183235 -9.31509e-23)
(0.934202 -0.1559 7.82433e-23)
(0.388786 -0.5104 4.73551e-23)
(0.628042 -0.638204 -8.36438e-22)
(0.720519 -0.543353 0)
(0.767451 -0.448996 7.00018e-22)
(0.812894 -0.373322 -6.07484e-23)
(0.847143 -0.31402 7.28182e-22)
(0.878107 -0.26504 7.27413e-23)