/*--------------------------------*- C++ -*----------------------------------*\
  =========                 |
  \\      /  F ield         | OpenFOAM: The Open Source CFD Toolbox
   \\    /   O peration     | Website:  https://openfoam.org
    \\  /    A nd           | Version:  9
     \\/     M anipulation  |
\*---------------------------------------------------------------------------*/
FoamFile
{
    format      ascii;
    class       volScalarField;
    location    "3";
    object      p;
}
// * * * * * * * * * * * * * * * * * * * * * * * * * * * * * * * * * * * * * //

dimensions      [1 -1 -2 0 0 0 0];

internalField   nonuniform List<scalar> 
252
(
1
1
1.8721
8.58696
10.9127
11.4272
1
1
1.60374
7.97389
10.5596
11.3154
1
1
1.09133
6.55137
9.19196
7.95108
1
1
1.00182
4.14935
7.90093
7.15767
1
1
0.999984
1.7345
6.31518
7.07389
1
1
0.999996
1.05861
3.69874
6.85554
1
1
0.999999
1.00038
1.52778
5.07133
1
1
1
1
1.02348
2.5645
1
1
1
1
1.00017
1.19803
1
1
1
1
1
1.00603
2.54469
1.2818
0.843109
0.880138
0.951095
1.06411
1.19858
1.40566
3.13599
6.10976
6.30531
5.86608
5.40349
4.95796
4.53399
4.16052
3.80955
3.5121
3.27319
3.06647
2.88844
2.71749
2.5705
2.33251
3.91648
2.56807
1.86401
1.57721
1.37542
1.26547
1.3336
1.75734
2.72991
4.55843
5.43176
5.36035
5.03872
4.73721
4.39461
4.04755
3.7417
3.48971
3.27264
3.07683
2.89858
2.72449
2.57359
2.32914
4.78428
3.30949
2.50266
1.93016
1.55492
1.4202
1.73382
2.66193
2.94854
3.1573
3.81107
4.40438
4.67099
4.68157
4.42441
4.06763
3.79186
3.55455
3.30373
3.08812
2.89213
2.70132
2.53943
2.2904
5.29401
3.89671
3.04846
2.32922
2.00249
2.32389
3.24353
3.60474
3.32147
3.00565
2.75656
2.91379
3.37737
3.75218
3.82472
3.82353
3.7644
3.58242
3.30503
3.05893
2.8288
2.62139
2.45789
2.23322
5.57169
4.53794
3.45769
2.8115
3.3033
4.3346
4.48273
4.05912
3.5374
3.06451
2.66982
2.44415
2.38601
2.57308
2.90963
3.17139
3.34318
3.32491
3.21418
3.00253
2.78382
2.59731
2.42905
2.22622
4.86464
4.7417
4.00458
4.68845
6.12188
6.16012
5.47273
4.57981
3.83846
3.26988
2.82237
2.45142
2.20672
2.07811
2.05881
2.20407
2.54486
2.72958
2.77428
2.77103
2.72478
2.60895
2.49021
2.35475
3.03988
4.07071
5.92309
8.47319
7.71605
6.64058
5.61081
4.72573
4.01737
3.45222
2.98681
2.6039
2.26789
1.99533
1.85898
1.74959
1.77336
1.88859
2.08856
2.34552
2.407
2.4633
2.58658
2.74576
1.41603
3.36145
10.0175
13.3086
9.81502
7.35122
5.80694
4.80041
4.08965
3.5371
3.06752
2.69718
2.36387
2.04584
1.8167
1.62888
1.51091
1.45311
1.50165
1.70064
2.08178
2.53281
2.87705
3.30278
)
;

boundaryField
{
    inlet
    {
        type            fixedValue;
        value           uniform 1;
    }
    outlet
    {
        type            zeroGradient;
    }
    bottom
    {
        type            symmetryPlane;
    }
    top
    {
        type            symmetryPlane;
    }
    obstacle
    {
        type            zeroGradient;
    }
    defaultFaces
    {
        type            empty;
    }
}


// ************************************************************************* //
