/*--------------------------------*- C++ -*----------------------------------*\
  =========                 |
  \\      /  F ield         | OpenFOAM: The Open Source CFD Toolbox
   \\    /   O peration     | Website:  https://openfoam.org
    \\  /    A nd           | Version:  9
     \\/     M anipulation  |
\*---------------------------------------------------------------------------*/
FoamFile
{
    format      ascii;
    class       volVectorField;
    location    "3";
    object      U;
}
// * * * * * * * * * * * * * * * * * * * * * * * * * * * * * * * * * * * * * //

dimensions      [0 1 -1 0 0 0 0];

internalField   nonuniform List<vector> 
252
(
(3 2.11653e-15 0)
(3 1.52951e-14 0)
(2.59901 0.0310455 0)
(0.811469 0.0621721 0)
(0.476769 0.073189 0)
(0.278977 0.161264 0)
(3 2.61272e-15 0)
(3 1.10499e-15 0)
(2.76154 0.130102 0)
(0.896665 0.284863 0)
(0.442039 0.326182 0)
(0.309088 0.574239 0)
(3 2.80883e-15 0)
(3 -2.78453e-14 0)
(3.031 0.031982 0)
(1.2036 0.485021 0)
(0.701095 0.574196 0)
(0.774716 0.898962 0)
(3 9.4808e-15 0)
(3 -1.07987e-14 0)
(3.00538 0.000185144 0)
(1.77971 0.593268 0)
(0.972189 0.755585 0)
(1.05865 0.808459 0)
(3 5.23298e-15 0)
(3 9.18644e-15 0)
(3.00005 4.99296e-08 0)
(2.87125 0.306488 0)
(1.3781 0.833228 0)
(1.28107 0.825555 0)
(3 5.97381e-15 0)
(3 4.03419e-14 0)
(3 -2.14616e-06 0)
(3.04834 0.0159673 0)
(2.10956 0.686446 0)
(1.41345 0.875026 0)
(3 1.58141e-14 0)
(3 8.39943e-15 0)
(3 -4.49248e-07 0)
(3.00107 0.000624548 0)
(2.98507 0.197078 0)
(1.74582 0.856575 0)
(3 -1.0235e-14 0)
(3 -1.10357e-14 0)
(3 -4.42695e-08 0)
(3 1.11196e-06 0)
(3.01489 0.0109371 0)
(2.51482 0.52112 0)
(3 -8.10044e-15 0)
(3 -4.73286e-14 0)
(3 -1.61189e-09 0)
(3 -1.31946e-09 0)
(3.0001 0.000163494 0)
(2.96968 0.0904489 0)
(3 -1.89896e-15 0)
(3 -1.99188e-14 0)
(3 -1.06036e-11 0)
(3 -2.96776e-10 0)
(3 1.55817e-07 0)
(2.99922 0.00360093 0)
(1.64779 0.944236 0)
(2.14323 0.794929 0)
(2.38734 0.665325 0)
(2.36759 0.311727 0)
(2.42088 0.123229 0)
(2.44347 -0.0118431 0)
(2.41624 -0.0742908 0)
(2.35028 -0.0976867 0)
(1.69766 -0.225283 0)
(1.18046 -0.187054 0)
(1.23577 -0.127131 0)
(1.39151 -0.0937609 0)
(1.55221 -0.0534152 0)
(1.65006 -0.0309547 0)
(1.74495 -0.0106405 0)
(1.83132 0.00610759 0)
(1.91349 0.017826 0)
(1.98426 0.0250519 0)
(2.04627 0.0258272 0)
(2.1063 0.0263295 0)
(2.16199 0.02665 0)
(2.21504 0.0278133 0)
(2.25471 0.0301045 0)
(2.31114 0.031876 0)
(1.66658 0.704999 0)
(2.07657 0.402256 0)
(2.2861 0.169296 0)
(2.39629 -0.095781 0)
(2.45689 -0.168742 0)
(2.48891 -0.231682 0)
(2.44955 -0.278168 0)
(2.26983 -0.433643 0)
(2.01971 -0.709592 0)
(1.62089 -0.351106 0)
(1.46289 -0.104434 0)
(1.50272 -0.0237365 0)
(1.62885 0.0153483 0)
(1.71113 0.0380554 0)
(1.78503 0.0494107 0)
(1.85371 0.0714809 0)
(1.92686 0.0923399 0)
(1.99381 0.100563 0)
(2.05655 0.0953595 0)
(2.1166 0.0881974 0)
(2.17437 0.083763 0)
(2.23107 0.0826754 0)
(2.27562 0.0846779 0)
(2.33862 0.089964 0)
(1.67362 0.713769 0)
(1.98235 0.554209 0)
(2.1662 0.399804 0)
(2.32934 0.202209 0)
(2.39957 0.186268 0)
(2.40448 0.0198244 0)
(2.29009 -0.225916 0)
(2.02699 -0.572721 0)
(2.00971 -0.811674 0)
(1.94029 -0.705299 0)
(1.87554 -0.442866 0)
(1.79194 -0.184512 0)
(1.78792 -0.0518912 0)
(1.85082 0.0313325 0)
(1.89485 0.0740104 0)
(1.95463 0.102453 0)
(2.00579 0.0986508 0)
(2.05763 0.0970829 0)
(2.11754 0.107837 0)
(2.16766 0.110991 0)
(2.21604 0.112291 0)
(2.26737 0.118438 0)
(2.31126 0.129633 0)
(2.37607 0.143887 0)
(1.66073 0.812707 0)
(1.90409 0.696425 0)
(2.10704 0.536247 0)
(2.27015 0.443478 0)
(2.33633 0.294323 0)
(2.2204 -0.0582545 0)
(2.08397 -0.419562 0)
(1.96467 -0.682348 0)
(2.02786 -0.702036 0)
(2.11302 -0.698843 0)
(2.17032 -0.656115 0)
(2.15232 -0.484943 0)
(2.09395 -0.266695 0)
(2.08584 -0.0713882 0)
(2.04303 0.0482952 0)
(2.05817 0.118856 0)
(2.08795 0.178768 0)
(2.12818 0.205619 0)
(2.18502 0.21732 0)
(2.22155 0.216224 0)
(2.25644 0.210257 0)
(2.29624 0.210305 0)
(2.33549 0.221282 0)
(2.3971 0.230944 0)
(1.69432 0.861553 0)
(1.8651 0.777533 0)
(2.08036 0.662801 0)
(2.21075 0.562329 0)
(2.1092 0.183087 0)
(1.99764 -0.228807 0)
(1.92967 -0.545554 0)
(1.99509 -0.571401 0)
(2.09251 -0.579022 0)
(2.19272 -0.569224 0)
(2.27754 -0.565452 0)
(2.32458 -0.546809 0)
(2.34701 -0.452717 0)
(2.35667 -0.321193 0)
(2.29139 -0.132865 0)
(2.23685 0.0260384 0)
(2.23404 0.15783 0)
(2.23193 0.218983 0)
(2.24082 0.269598 0)
(2.2739 0.290087 0)
(2.31548 0.28898 0)
(2.35484 0.274408 0)
(2.39332 0.277267 0)
(2.44406 0.273971 0)
(1.85389 0.864304 0)
(1.85797 0.87804 0)
(1.9802 0.812331 0)
(1.9432 0.420397 0)
(1.82826 0.00055648 0)
(1.8623 -0.24681 0)
(1.91091 -0.319204 0)
(2.02033 -0.363019 0)
(2.13055 -0.383794 0)
(2.22689 -0.389461 0)
(2.31206 -0.407599 0)
(2.38323 -0.406053 0)
(2.4289 -0.405907 0)
(2.47092 -0.378628 0)
(2.47784 -0.282122 0)
(2.46484 -0.144313 0)
(2.44176 0.0225092 0)
(2.37561 0.191979 0)
(2.33166 0.286799 0)
(2.35661 0.342368 0)
(2.36856 0.372076 0)
(2.3967 0.376529 0)
(2.40763 0.388564 0)
(2.45051 0.339529 0)
(2.41582 0.590865 0)
(2.09846 0.952976 0)
(1.78703 0.571451 0)
(1.4467 0.0154972 0)
(1.60778 -0.207646 0)
(1.75093 -0.24778 0)
(1.90931 -0.240955 0)
(2.04691 -0.229565 0)
(2.16032 -0.227084 0)
(2.25638 -0.227098 0)
(2.33971 -0.240524 0)
(2.41508 -0.240801 0)
(2.48456 -0.257842 0)
(2.53222 -0.272195 0)
(2.57135 -0.234993 0)
(2.61242 -0.193661 0)
(2.60527 -0.0982122 0)
(2.59351 0.0447653 0)
(2.5606 0.175174 0)
(2.52354 0.287442 0)
(2.47885 0.406095 0)
(2.47453 0.410266 0)
(2.45584 0.392894 0)
(2.42754 0.272554 0)
(2.87245 0.120397 0)
(2.35968 0.553305 0)
(1.58026 0.451642 0)
(1.31871 0.238235 0)
(1.60763 0.0454435 0)
(1.82058 -0.0450498 0)
(1.98993 -0.0740622 0)
(2.12076 -0.0816832 0)
(2.22352 -0.0822561 0)
(2.31218 -0.0808273 0)
(2.39342 -0.0843056 0)
(2.46357 -0.0840895 0)
(2.53463 -0.0854397 0)
(2.60935 -0.102857 0)
(2.65998 -0.0986276 0)
(2.7025 -0.0906169 0)
(2.71078 -0.116783 0)
(2.72659 -0.0606768 0)
(2.71011 -0.0167706 0)
(2.65793 0.0583783 0)
(2.57699 0.167186 0)
(2.51557 0.206372 0)
(2.47797 0.218707 0)
(2.44495 0.195033 0)
)
;

boundaryField
{
    inlet
    {
        type            fixedValue;
        value           uniform (3 0 0);
    }
    outlet
    {
        type            inletOutlet;
        inletValue      uniform (3 0 0);
        value           nonuniform List<vector> 8((2.31114 0.031876 0) (2.33862 0.089964 0) (2.37607 0.143887 0) (2.3971 0.230944 0) (2.44406 0.273971 0) (2.45051 0.339529 0) (2.42754 0.272554 0) (2.44495 0.195033 0));
    }
    bottom
    {
        type            symmetryPlane;
    }
    top
    {
        type            symmetryPlane;
    }
    obstacle
    {
        type            slip;
    }
    defaultFaces
    {
        type            empty;
    }
}


// ************************************************************************* //
