/*--------------------------------*- C++ -*----------------------------------*\
  =========                 |
  \\      /  F ield         | OpenFOAM: The Open Source CFD Toolbox
   \\    /   O peration     | Website:  https://openfoam.org
    \\  /    A nd           | Version:  9
     \\/     M anipulation  |
\*---------------------------------------------------------------------------*/
FoamFile
{
    format      ascii;
    class       volVectorField;
    location    "20";
    object      U;
}
// * * * * * * * * * * * * * * * * * * * * * * * * * * * * * * * * * * * * * //

dimensions      [0 1 -1 0 0 0 0];

internalField   nonuniform List<vector> 
8500
(
(-0.0065975 0.00263409 0)
(-0.0295802 0.00453935 -6.88255e-23)
(-0.0621244 0.00501753 -3.78425e-24)
(-0.0904603 0.00486799 7.16913e-37)
(-0.118507 0.00457433 -1.05479e-23)
(-0.139642 0.00399925 8.78277e-24)
(-0.164508 0.00400115 -5.9468e-23)
(-0.176468 0.00274775 -9.22251e-23)
(-0.198406 0.00390041 -8.43588e-23)
(-0.207468 0.00174817 -4.38508e-24)
(-0.00689169 0.00784815 1.98833e-22)
(-0.0298266 0.013541 6.43037e-23)
(-0.0619716 0.0149745 2.58067e-22)
(-0.0897221 0.0145296 0)
(-0.117147 0.0136483 0)
(-0.137236 0.0119287 1.76915e-23)
(-0.161447 0.0119215 4.46965e-23)
(-0.171519 0.00816052 9.8439e-23)
(-0.192743 0.011629 6.34862e-23)
(-0.199217 0.00506267 1.75481e-23)
(-0.00747171 0.012902 -1.76695e-22)
(-0.0303163 0.0223132 0)
(-0.0616727 0.024698 -2.42857e-22)
(-0.0882588 0.0239688 0)
(-0.114448 0.0224968 -4.22504e-23)
(-0.132448 0.0196535 3.51799e-23)
(-0.155362 0.0195905 0)
(-0.161641 0.0133373 0)
(-0.18152 0.0191509 0)
(-0.182918 0.00785367 0)
(-0.00832145 0.0176963 3.55167e-22)
(-0.0310432 0.0307093 -2.58194e-22)
(-0.0612401 0.0340356 -6.08949e-23)
(-0.0860954 0.0330384 -3.79656e-22)
(-0.110447 0.0309656 -3.81116e-22)
(-0.125325 0.0270462 3.54825e-23)
(-0.146316 0.026823 -2.9626e-23)
(-0.146855 0.0181572 3.43014e-22)
(-0.164884 0.0263598 -3.51554e-26)
(-0.15887 0.00984978 3.4668e-22)
(-0.00941823 0.0221421 -3.55167e-22)
(-0.031998 0.0385914 -3.33647e-22)
(-0.0606906 0.042839 9.16026e-23)
(-0.0832672 0.041594 5.06668e-22)
(-0.105189 0.0388957 -4.30615e-23)
(-0.115933 0.0339899 5.64065e-22)
(-0.134374 0.0334058 0)
(-0.127153 0.0225422 -3.92856e-22)
(-0.142949 0.0331877 -8.3831e-23)
(-0.127236 0.0109182 -4.81884e-22)
(-0.0107345 0.0261645 8.95107e-23)
(-0.0331688 0.045834 5.54922e-22)
(-0.0600426 0.0509659 -4.2886e-22)
(-0.0798166 0.0494948 -3.10199e-25)
(-0.0987167 0.0461234 -3.84163e-22)
(-0.104352 0.0403811 1.42433e-22)
(-0.119575 0.0390875 -5.95089e-23)
(-0.102463 0.0264568 4.9126e-22)
(-0.115702 0.0395779 -8.38873e-23)
(-0.087709 0.0111951 2.75884e-22)
(-0.0122396 0.0297055 4.48416e-23)
(-0.0345402 0.0523267 0)
(-0.0593119 0.0582803 -1.58221e-24)
(-0.0757876 0.0566055 0)
(-0.0910537 0.0524833 6.81386e-22)
(-0.0906619 0.0461305 -5.64533e-22)
(-0.101891 0.043572 0)
(-0.0726387 0.029918 -1.19889e-24)
(-0.0829507 0.0453261 0)
(-0.0391208 0.0113277 0)
(-0.0139023 0.0327253 -7.22911e-22)
(-0.0360941 0.057976 -7.46618e-23)
(-0.0585068 0.0646564 5.53245e-22)
(-0.0712172 0.0627968 1.02547e-22)
(-0.0821854 0.057814 -6.85254e-22)
(-0.0749174 0.0511674 -4.22774e-22)
(-0.0811457 0.0465074 -5.97912e-23)
(-0.0374546 0.0330442 4.87545e-22)
(-0.0443144 0.0497082 -8.41595e-23)
(0.020888 0.0124322 6.98293e-23)
(-0.0156928 0.0352038 8.13814e-22)
(-0.0378079 0.0627076 -6.0008e-22)
(-0.0576217 0.0699812 -1.85395e-22)
(-0.0661228 0.0679444 1.0228e-22)
(-0.0720302 0.0619651 6.85164e-22)
(-0.0571191 0.0554541 6.37091e-22)
(-0.0568841 0.0474911 -5.99174e-23)
(0.00346213 0.0360167 9.75176e-23)
(0.000374482 0.052028 -1.68717e-22)
(0.0965545 0.0150051 7.10034e-23)
(-0.0175845 0.0371396 7.30979e-22)
(-0.0396534 0.066467 6.00404e-22)
(-0.0566294 0.0741586 -8.69808e-22)
(-0.060485 0.0719304 -1.02589e-22)
(-0.0604003 0.0647969 0)
(-0.037171 0.0590033 0)
(-0.0283316 0.0463514 0)
(0.0512341 0.0388866 -1.54584e-21)
(0.0508525 0.0514705 -7.04661e-22)
(0.191707 0.0196812 5.41536e-22)
(-0.0195556 0.038549 -1.46626e-21)
(-0.0415935 0.0692203 0)
(-0.0554723 0.0771133 1.99115e-21)
(-0.0542293 0.0746461 8.23654e-22)
(-0.0469541 0.0661836 8.5721e-23)
(-0.0146667 0.0617468 0)
(0.00551277 0.0433304 -9.7864e-22)
(0.107223 0.0420655 7.71483e-22)
(0.109009 0.0466568 7.04651e-22)
(0.308081 0.0270695 -5.41515e-22)
(-0.0215897 0.0394634 8.2758e-22)
(-0.0435785 0.0709535 -7.57591e-23)
(-0.0540498 0.0787946 -9.97315e-22)
(-0.047202 0.0760009 -9.2709e-22)
(-0.0312614 0.0661361 0)
(0.0113034 0.0634179 1.13444e-21)
(0.0464265 0.0389184 6.64483e-25)
(0.172258 0.0463656 6.65987e-22)
(0.180385 0.0379116 7.90598e-22)
(0.444105 0.0362596 -5.37182e-22)
(-0.0236753 0.0399255 4.17174e-26)
(-0.04554 0.0716716 1.29815e-21)
(-0.0522026 0.0791788 -1.2544e-22)
(-0.0390756 0.0759039 7.23599e-22)
(-0.012799 0.0647617 4.32283e-22)
(0.0419649 0.0638016 2.87891e-22)
(0.0972718 0.0339833 9.76204e-22)
(0.246794 0.0515824 -8.6551e-22)
(0.273439 0.0293102 -5.37895e-22)
(0.593538 0.0460333 3.95569e-22)
(-0.0258051 0.0399861 0)
(-0.0473848 0.0713963 -1.06921e-21)
(-0.0497148 0.0782776 -1.25935e-22)
(-0.0293247 0.0742939 1.5932e-24)
(0.00928513 0.0621416 6.89735e-22)
(0.0788663 0.0628085 -9.91713e-22)
(0.16125 0.030165 9.70502e-22)
(0.331473 0.0561863 -9.89602e-23)
(0.394572 0.0267927 0)
(0.745863 0.0563851 0)
(-0.0279741 0.0396991 9.39376e-23)
(-0.0489834 0.0701647 -1.23361e-21)
(-0.0462898 0.076144 0)
(-0.0172451 0.0712223 -1.02285e-22)
(0.0362251 0.0584291 8.61058e-23)
(0.124172 0.0603309 0)
(0.240742 0.0295098 -9.72347e-22)
(0.427872 0.059098 -7.66011e-22)
(0.541146 0.0335813 1.66793e-22)
(0.888822 0.0680712 -1.4017e-22)
(-0.0301736 0.0391134 -9.43769e-23)
(-0.0501668 0.0680328 1.31107e-21)
(-0.0415073 0.0728513 0)
(-0.00191722 0.0668567 -9.33983e-22)
(0.0696137 0.0539676 8.61443e-23)
(0.18061 0.0567166 -1.13581e-21)
(0.336223 0.0333223 -1.17725e-22)
(0.53788 0.0617356 8.64526e-22)
(0.69981 0.0482174 0)
(1.01189 0.080818 1.06865e-21)
(-0.0323826 0.0382678 -1.43479e-21)
(-0.0507218 0.065068 -7.79432e-23)
(-0.0348059 0.0684966 -1.26375e-22)
(0.0178482 0.0614644 1.04531e-22)
(0.111446 0.0493559 -1.37535e-21)
(0.251058 0.0532496 1.13579e-21)
(0.445834 0.0415797 9.56063e-22)
(0.660168 0.0671712 7.65834e-22)
(0.852597 0.066909 1.32234e-21)
(1.10908 0.0932229 -9.34938e-22)
(-0.0345653 0.0371911 1.52974e-21)
(-0.0503774 0.0613385 0)
(-0.0254837 0.0632182 1.14759e-21)
(0.0435196 0.0554015 -1.04808e-22)
(0.163992 0.0454248 2.74981e-21)
(0.337501 0.0519806 0)
(0.5656 0.0535641 -9.56042e-22)
(0.787437 0.0769432 -1.93419e-24)
(0.984989 0.0864131 -1.48246e-21)
(1.17945 0.103864 1.34594e-22)
(-0.0366661 0.0358994 0)
(-0.0488009 0.056913 1.26052e-21)
(-0.0126937 0.0571934 -1.02088e-21)
(0.0768059 0.049142 0)
(0.229419 0.0432424 -1.37445e-21)
(0.439431 0.0549347 0)
(0.689494 0.0685317 9.40703e-22)
(0.908847 0.0900428 -7.63869e-22)
(1.08983 0.104838 -1.26631e-21)
(1.22602 0.11178 -1.02295e-21)
(-0.0386035 0.0343933 -1.93993e-22)
(-0.0455983 0.0518633 -1.10128e-21)
(0.00456119 0.0506396 0)
(0.11957 0.0433497 0)
(0.309042 0.0440565 0)
(0.552848 0.0630483 -1.4051e-22)
(0.810042 0.0854925 -9.42768e-22)
(1.01523 0.104633 -9.64455e-23)
(1.16663 0.121067 1.26631e-21)
(1.25419 0.116266 1.15075e-21)
(-0.0402673 0.0326629 0)
(-0.0403127 0.046263 -1.27808e-21)
(0.0274293 0.0438273 0)
(0.173618 0.0389805 0)
(0.402333 0.0489941 0)
(0.670837 0.0757924 1.39607e-22)
(0.920209 0.103093 -1.15215e-21)
(1.10187 0.119376 8.96692e-23)
(1.2192 0.133916 9.04307e-22)
(1.27084 0.116759 9.88448e-22)
(-0.0415328 0.0307026 0)
(-0.0324116 0.0401722 1.27808e-21)
(0.0572047 0.0371249 -1.04197e-21)
(0.240252 0.0372953 0)
(0.506189 0.0585275 -1.37203e-21)
(0.78565 0.0916576 0)
(1.01532 0.120159 9.21468e-22)
(1.16818 0.133224 -7.36295e-22)
(1.25321 0.142351 -1.21014e-21)
(1.29487 0.127227 -9.83572e-22)
(-0.0422579 0.0284971 1.62523e-21)
(-0.0212944 0.0336404 0)
(0.0952779 0.0310982 9.12812e-22)
(0.319594 0.0395955 1.06823e-22)
(0.615216 0.0721473 2.74397e-21)
(0.890987 0.108975 0)
(1.09353 0.136 -8.99686e-22)
(1.21633 0.145167 -1.46074e-21)
(1.27738 0.150415 -1.01466e-21)
(1.30367 0.133206 -5.30795e-24)
(-0.042269 0.0260177 -1.72619e-21)
(-0.00628461 0.0267315 8.28757e-23)
(0.142966 0.0266212 1.29843e-22)
(0.40994 0.046679 -1.07396e-22)
(0.723199 0.0886295 -1.37195e-21)
(0.983093 0.126459 1.10604e-21)
(1.15524 0.150223 8.99682e-22)
(1.25044 0.155693 7.24449e-22)
(1.29127 0.156763 1.15844e-21)
(1.3066 0.138951 -1.02403e-21)
(-0.0413746 0.0232355 1.02297e-22)
(0.0133996 0.0195538 1.24563e-21)
(0.201171 0.0248814 0)
(0.507703 0.0584027 -7.46868e-22)
(0.824808 0.106638 -8.70128e-23)
(1.0606 0.143299 -1.10603e-21)
(1.20234 0.162888 1.07864e-22)
(1.27317 0.164757 6.0723e-22)
(1.29873 0.162409 0)
(1.30636 0.14395 9.11366e-22)
(-0.0393667 0.0201214 -1.05504e-22)
(0.0386453 0.0123445 -1.32959e-21)
(0.269924 0.0271126 0)
(0.608165 0.0737972 1.00323e-22)
(0.91653 0.125137 -8.72382e-23)
(1.12382 0.159105 0)
(1.23701 0.174116 -8.61873e-22)
(1.28748 0.172716 -6.97516e-22)
(1.30145 0.16738 -1.33422e-22)
(1.30296 0.148498 -1.12233e-22)
(-0.0360065 0.016646 0)
(0.070379 0.00559867 -1.53202e-21)
(0.34803 0.0341031 1.3739e-22)
(0.70666 0.091625 -5.23314e-24)
(0.996666 0.143474 -6.8422e-22)
(1.17398 0.173741 -1.21089e-21)
(1.26161 0.184127 9.72083e-22)
(1.29548 0.179794 0)
(1.30086 0.171952 0)
(1.2985 0.152841 0)
(-0.0309979 0.0127888 2.30244e-24)
(0.10941 0.000172426 1.28447e-21)
(0.433092 0.0458327 1.39089e-22)
(0.799503 0.110851 9.67313e-22)
(1.06486 0.161289 5.96538e-22)
(1.21274 0.187225 -1.18318e-22)
(1.27818 0.193139 8.39289e-22)
(1.29892 0.186242 -5.66897e-22)
(1.29814 0.176265 -6.37323e-22)
(1.29286 0.157049 5.12173e-22)
(-0.0239603 0.00856154 7.97046e-22)
(0.156198 -0.002753 8.96839e-23)
(0.521937 0.0615609 -1.11134e-21)
(0.884329 0.130771 -8.71409e-22)
(1.12157 0.178409 0)
(1.24184 0.199655 1.06701e-21)
(1.28854 0.201374 -1.59776e-23)
(1.29909 0.19225 7.3024e-22)
(1.2939 0.180439 4.45672e-22)
(1.28676 0.161209 -4.05961e-22)
(-0.0144248 0.00404497 -1.83442e-21)
(0.210628 -0.00191966 0)
(0.611256 0.0802644 2.239e-21)
(0.959951 0.150955 7.65559e-22)
(1.16774 0.194773 8.7856e-23)
(1.26293 0.211172 0)
(1.29414 0.209029 -8.16596e-22)
(1.29693 0.197976 6.19428e-22)
(1.28868 0.184554 4.81606e-22)
(1.28021 0.165362 -3.79917e-22)
(-0.00186199 -0.000567626 9.28109e-22)
(0.271892 0.00362288 7.23971e-22)
(0.698124 0.10104 -1.2652e-21)
(1.02603 0.171169 1.13761e-22)
(1.20451 0.210388 0)
(1.27747 0.221928 0)
(1.29613 0.216278 0)
(1.2931 0.203532 -1.22155e-21)
(1.28275 0.188661 -4.81611e-22)
(1.27341 0.169524 3.799e-22)
(0.0142464 -0.00492704 8.59016e-22)
(0.338578 0.0142245 -7.18211e-22)
(0.780272 0.123248 7.37092e-23)
(1.08275 0.191301 0)
(1.23304 0.225303 6.64609e-22)
(1.28674 0.232077 4.41537e-22)
(1.29539 0.223258 5.0732e-23)
(1.28808 0.208999 -5.34144e-23)
(1.27632 0.192793 1.15385e-22)
(1.26636 0.173706 -4.66614e-23)
(0.0342797 -0.00850151 -9.75033e-22)
(0.408899 0.0296151 9.0845e-23)
(0.856124 0.146465 5.83845e-22)
(1.1306 0.211287 -1.62932e-22)
(1.2545 0.239588 -4.98526e-22)
(1.29178 0.241754 -6.27445e-22)
(1.2926 0.230076 4.96376e-23)
(1.28216 0.214428 3.01429e-22)
(1.26948 0.196965 0)
(1.25909 0.177898 -4.16026e-23)
(0.0584022 -0.0106276 -6.31579e-23)
(0.480957 0.0491275 0)
(0.924729 0.170395 6.12421e-24)
(1.17021 0.231074 0)
(1.26993 0.25332 6.48066e-22)
(1.29344 0.251081 -4.8156e-22)
(1.28822 0.236807 0)
(1.27556 0.219849 9.7626e-24)
(1.2623 0.201179 0)
(1.2516 0.18209 0)
(0.0865478 -0.0106135 -1.26234e-22)
(0.552943 0.0719975 8.24832e-22)
(0.985647 0.194822 -6.65465e-22)
(1.20229 0.250603 1.1018e-22)
(1.28027 0.266576 -2.96068e-22)
(1.29238 0.260152 -5.15555e-23)
(1.2826 0.2435 0)
(1.26838 0.225272 2.0883e-22)
(1.2548 0.205429 5.37854e-23)
(1.24389 0.186263 1.54307e-22)
(0.118414 -0.00786097 -5.31427e-22)
(0.623245 0.0975536 -3.3301e-22)
(1.03882 0.219586 -1.09612e-22)
(1.22754 0.269815 4.40027e-22)
(1.2863 0.279428 3.63957e-23)
(1.28914 0.269044 4.69698e-22)
(1.27598 0.250179 0)
(1.26071 0.230697 -2.52085e-22)
(1.24699 0.209702 4.69226e-23)
(1.23593 0.190398 -3.40267e-22)
(0.153499 -0.00197478 -5.31426e-22)
(0.690482 0.125265 3.46152e-22)
(1.08443 0.244563 -4.13677e-24)
(1.24666 0.28865 -5.12293e-22)
(1.2887 0.291935 -2.7086e-22)
(1.28411 0.277805 -2.6549e-23)
(1.26852 0.256851 2.21673e-23)
(1.25257 0.236109 2.81467e-22)
(1.23887 0.213978 -2.34576e-24)
(1.22771 0.194469 1.10721e-22)
(0.191156 0.00718858 -2.73666e-22)
(0.753511 0.154705 0)
(1.12284 0.269647 -2.99038e-22)
(1.26029 0.307059 0)
(1.28802 0.304142 -3.41145e-22)
(1.27759 0.286468 2.9445e-23)
(1.26032 0.263508 0)
(1.244 0.241488 0)
(1.23043 0.218235 0)
(1.21922 0.198449 0)
(0.230643 0.0195459 2.40027e-22)
(0.811427 0.185494 1.16108e-22)
(1.1545 0.29473 2.99039e-22)
(1.26905 0.325006 0)
(1.28471 0.316078 0)
(1.2698 0.29504 -1.22896e-23)
(1.25144 0.270128 4.73199e-23)
(1.23498 0.246807 5.4249e-23)
(1.22166 0.222445 5.03343e-23)
(1.21047 0.202306 -8.34293e-24)
(0.271172 0.0348656 -4.3411e-24)
(0.863591 0.217267 -1.08666e-22)
(1.17987 0.319695 4.97985e-24)
(1.27348 0.342471 5.90226e-24)
(1.27913 0.327754 -9.02744e-24)
(1.26089 0.303514 3.43732e-24)
(1.24192 0.27668 -4.13002e-23)
(1.22553 0.252035 -5.06996e-23)
(1.21255 0.226575 -3.80892e-23)
(1.20148 0.206007 1.54443e-24)
(0.311943 0.0528502 0)
(0.909674 0.249682 -1.09546e-22)
(1.19934 0.34442 -3.39323e-24)
(1.27407 0.359441 6.91072e-24)
(1.27157 0.339169 1.23999e-37)
(1.25098 0.311865 -8.72723e-38)
(1.23179 0.283127 -3.71158e-23)
(1.21564 0.257135 -4.43521e-23)
(1.2031 0.230583 -3.50569e-23)
(1.19226 0.209517 0)
(0.352177 0.0731842 3.14475e-22)
(0.949583 0.282448 8.98216e-23)
(1.21328 0.368791 2.98237e-22)
(1.27122 0.375887 -1.34899e-23)
(1.26225 0.350303 0)
(1.24012 0.320055 1.05379e-23)
(1.22106 0.289422 2.43216e-23)
(1.20529 0.262071 4.76972e-23)
(1.19329 0.23442 2.71225e-23)
(1.18281 0.212814 6.66897e-24)
(0.39113 0.0955686 -2.80261e-22)
(0.983318 0.315304 0)
(1.22209 0.392685 -2.81931e-22)
(1.2653 0.391771 0)
(1.25135 0.361122 -2.86365e-23)
(1.22838 0.328034 2.38445e-23)
(1.20973 0.295519 0)
(1.19448 0.2668 0)
(1.18314 0.238045 0)
(1.17308 0.215879 0)
(0.428118 0.119726 5.55602e-22)
(1.01097 0.348011 -3.56908e-22)
(1.22614 0.415978 -6.86207e-23)
(1.2566 0.40705 -2.81945e-22)
(1.23901 0.371576 -2.62252e-22)
(1.21579 0.335747 1.8348e-23)
(1.19779 0.301366 -1.53198e-23)
(1.1832 0.271276 1.28858e-22)
(1.17268 0.241431 2.13893e-24)
(1.16301 0.218686 9.5833e-23)
(0.462527 0.145391 -5.55603e-22)
(1.03267 0.380342 -4.31106e-22)
(1.22577 0.438544 9.56625e-23)
(1.24539 0.421674 3.37189e-22)
(1.22534 0.381606 -1.61541e-23)
(1.20238 0.343129 2.82849e-22)
(1.18525 0.306909 0)
(1.17145 0.275441 -1.46899e-22)
(1.16194 0.244567 -2.297e-23)
(1.15255 0.221244 -1.21266e-22)
(0.493829 0.172292 1.32307e-22)
(1.04861 0.412082 7.36612e-22)
(1.2213 0.460253 -4.30431e-22)
(1.23192 0.435583 -8.17307e-23)
(1.21042 0.391145 -1.96688e-22)
(1.18816 0.350115 4.27008e-23)
(1.17211 0.31209 -2.55377e-23)
(1.15927 0.279231 1.43103e-22)
(1.15093 0.247435 -2.38494e-23)
(1.14181 0.223568 6.51888e-23)
(0.521583 0.200138 6.69851e-23)
(1.059 0.443015 0)
(1.21303 0.480974 2.67239e-23)
(1.21636 0.448707 0)
(1.19432 0.400117 3.93386e-22)
(1.17317 0.356632 -2.56471e-22)
(1.15839 0.316849 0)
(1.14672 0.282605 -1.6865e-23)
(1.13956 0.249975 0)
(1.13088 0.225523 0)
(0.545444 0.228619 -1.02911e-21)
(1.06404 0.472925 -7.97693e-23)
(1.20124 0.500571 5.25131e-22)
(1.19888 0.46097 6.0385e-23)
(1.17708 0.408436 -4.07629e-22)
(1.15746 0.362608 -1.44529e-22)
(1.14417 0.321124 -1.99163e-23)
(1.13381 0.285535 8.33618e-23)
(1.1278 0.252143 -1.70165e-23)
(1.11976 0.227116 9.32522e-24)
(0.565159 0.257397 1.1456e-21)
(1.06398 0.50159 -6.90519e-22)
(1.18617 0.518906 -1.52296e-22)
(1.17963 0.472287 7.47024e-23)
(1.15882 0.416011 3.19907e-22)
(1.1411 0.367962 2.19967e-22)
(1.12943 0.32486 -1.6928e-23)
(1.12051 0.287989 -1.96701e-23)
(1.11571 0.253897 -2.3558e-23)
(1.10848 0.228293 8.49557e-24)
(0.580564 0.286122 9.49614e-22)
(1.05905 0.528785 6.70149e-22)
(1.16806 0.535832 -6.40881e-22)
(1.15878 0.482566 -6.7829e-23)
(1.13966 0.422769 0)
(1.12407 0.372609 0)
(1.11417 0.327997 0)
(1.10687 0.289926 -2.13753e-22)
(1.10331 0.255203 -5.10025e-23)
(1.09704 0.22903 2.30976e-23)
(0.591575 0.314432 -1.84873e-21)
(1.04951 0.554294 0)
(1.14711 0.551182 1.36868e-21)
(1.13653 0.491708 3.6011e-22)
(1.11964 0.428631 0)
(1.10636 0.376478 0)
(1.09845 0.330473 -1.06765e-22)
(1.09289 0.291304 8.85678e-23)
(1.09064 0.256027 5.10029e-23)
(1.08547 0.229291 -2.30967e-23)
(0.598192 0.341965 9.96641e-22)
(1.03566 0.577913 -8.00545e-23)
(1.12357 0.564787 -6.45798e-22)
(1.113 0.499596 -3.94175e-22)
(1.09878 0.433514 2.82734e-23)
(1.08803 0.379502 1.41501e-22)
(1.08231 0.332227 5.09683e-23)
(1.07861 0.292082 1.02278e-23)
(1.07773 0.256334 -5.1609e-24)
(1.0738 0.22905 2.16845e-23)
(0.600487 0.368352 -1.17331e-23)
(1.01782 0.599453 9.74456e-22)
(1.0977 0.57653 -8.5311e-23)
(1.08824 0.506066 2.08406e-22)
(1.07714 0.437342 9.98031e-23)
(1.06916 0.381613 -4.07616e-23)
(1.06579 0.333205 4.96621e-23)
(1.06406 0.292222 -1.41503e-23)
(1.06462 0.25609 -1.49397e-23)
(1.06206 0.228278 -1.53326e-23)
(0.598599 0.393229 0)
(0.996271 0.618685 -8.55044e-22)
(1.06978 0.586319 -7.36577e-23)
(1.06234 0.510992 -6.68787e-23)
(1.05481 0.440011 -1.01895e-22)
(1.04979 0.382748 -7.06443e-23)
(1.04895 0.333356 -5.47069e-23)
(1.04929 0.291686 0)
(1.05134 0.255262 0)
(1.0503 0.226938 0)
(0.592731 0.416273 8.32636e-23)
(0.97111 0.635266 -6.91773e-22)
(1.04014 0.594101 0)
(1.03547 0.514296 -8.01651e-23)
(1.03187 0.441432 9.03013e-24)
(1.03001 0.382846 0)
(1.03185 0.332632 4.93552e-23)
(1.03433 0.290442 1.05314e-22)
(1.03793 0.253812 -2.18449e-23)
(1.03855 0.224988 1.83484e-23)
(0.583104 0.437264 -6.10128e-23)
(0.94257 0.648904 7.41859e-22)
(1.00905 0.599731 0)
(1.00775 0.515938 -1.01506e-22)
(1.00841 0.441519 2.18201e-24)
(1.00988 0.38185 1.48285e-22)
(1.01454 0.330993 1.74342e-23)
(1.01923 0.288456 -1.19907e-22)
(1.0244 0.251707 0)
(1.02686 0.222385 -2.22807e-22)
(0.569933 0.455979 -8.45588e-22)
(0.911126 0.65948 -4.10902e-23)
(0.976665 0.603004 -8.69192e-24)
(0.979342 0.51585 7.18974e-24)
(0.984538 0.4402 2.0051e-22)
(0.989497 0.379708 -1.48287e-22)
(0.997095 0.328401 -2.12403e-22)
(1.00403 0.285698 -1.86011e-22)
(1.0108 0.248918 -3.17203e-22)
(1.01535 0.219125 1.95028e-22)
(0.553339 0.472061 8.95649e-22)
(0.877338 0.666978 0)
(0.943218 0.603791 -1.90476e-23)
(0.950388 0.513964 2.80576e-24)
(0.960346 0.437415 -5.06706e-22)
(0.968935 0.376374 0)
(0.979572 0.324826 2.12405e-22)
(0.988764 0.282131 -4.06278e-23)
(0.99725 0.245419 3.60273e-22)
(1.00431 0.215246 -3.61694e-23)
(0.533543 0.485097 0)
(0.841589 0.671245 1.0741e-22)
(0.90891 0.602028 1.56557e-23)
(0.921044 0.510212 0)
(0.935951 0.433111 3.06196e-22)
(0.948287 0.371809 0)
(0.962028 0.320242 -3.22463e-22)
(0.973474 0.277714 2.26642e-22)
(0.983907 0.241169 4.36487e-22)
(0.994033 0.210814 3.43481e-22)
(0.511027 0.494917 -2.80538e-23)
(0.804222 0.672143 -8.43825e-23)
(0.873971 0.597655 0)
(0.891466 0.504533 0)
(0.911471 0.427249 0)
(0.927644 0.365983 5.20521e-23)
(0.944523 0.31463 2.35645e-22)
(0.958258 0.272421 3.62917e-23)
(0.970967 0.23611 -4.3649e-22)
(0.984415 0.205778 -3.85698e-22)
(0.486208 0.501351 0)
(0.765584 0.669557 2.0525e-22)
(0.838639 0.590629 0)
(0.861816 0.496877 0)
(0.887027 0.419797 0)
(0.9071 0.358873 -6.09278e-23)
(0.927131 0.307973 5.32323e-22)
(0.943238 0.266257 -1.21579e-22)
(0.95851 0.230255 -4.19726e-22)
(0.974788 0.198643 -4.2313e-22)
(0.459498 0.504265 0)
(0.726034 0.663411 -2.05251e-22)
(0.803158 0.580923 4.49494e-22)
(0.83226 0.487208 0)
(0.862744 0.410735 7.31946e-22)
(0.886749 0.350465 0)
(0.909942 0.300259 -4.31672e-22)
(0.928526 0.259236 3.85572e-22)
(0.946287 0.224061 5.49376e-22)
(0.963876 0.19349 4.21786e-22)
(0.431307 0.503567 -3.86284e-22)
(0.685936 0.653654 0)
(0.76777 0.568527 -3.83447e-22)
(0.802967 0.475505 -5.46351e-23)
(0.83875 0.400052 -1.56826e-21)
(0.866691 0.34075 0)
(0.893047 0.291474 5.37857e-22)
(0.914188 0.251281 3.7694e-23)
(0.934417 0.216809 5.82264e-22)
(0.95339 0.186886 2.41821e-24)
(0.402045 0.499205 4.24324e-22)
(0.645654 0.640272 -3.12245e-23)
(0.73272 0.553449 -7.84981e-23)
(0.774107 0.461761 -6.49319e-23)
(0.815174 0.387752 8.36317e-22)
(0.847027 0.329732 -7.47942e-22)
(0.876529 0.281634 -5.3786e-22)
(0.900229 0.242489 -4.23271e-22)
(0.92274 0.208982 -6.57898e-22)
(0.942888 0.180059 6.10117e-22)
(0.372116 0.491164 -5.11082e-23)
(0.605551 0.623276 -7.90662e-22)
(0.698246 0.535716 0)
(0.745853 0.445986 5.67108e-22)
(0.792146 0.373845 6.24294e-23)
(0.827861 0.317421 7.47946e-22)
(0.860479 0.270741 -7.4238e-23)
(0.886721 0.232812 -4.33179e-22)
(0.911404 0.200371 0)
(0.932688 0.172537 -5.44323e-22)
(0.341918 0.479469 5.93437e-23)
(0.565983 0.60271 8.32618e-22)
(0.664585 0.515372 0)
(0.718374 0.428206 -1.35475e-23)
(0.769795 0.358356 6.92219e-23)
(0.809295 0.30384 0)
(0.844972 0.258822 6.86716e-22)
(0.873697 0.222303 4.95318e-22)
(0.900427 0.191109 9.42252e-23)
(0.922838 0.164477 -7.91465e-23)
(0.311837 0.464182 0)
(0.527298 0.578648 1.2656e-21)
(0.631967 0.492481 -1.12035e-22)
(0.691839 0.408463 6.73017e-23)
(0.748249 0.341322 6.14e-22)
(0.791432 0.289016 1.06129e-21)
(0.830089 0.245898 -7.7925e-22)
(0.861219 0.210969 0)
(0.88988 0.181175 0)
(0.913424 0.155838 0)
(0.282248 0.445403 2.42519e-24)
(0.489832 0.551188 -1.05006e-21)
(0.600614 0.467125 1.25576e-22)
(0.666412 0.386815 -8.78354e-22)
(0.727633 0.322789 -5.31925e-22)
(0.77437 0.272991 1.79926e-22)
(0.815905 0.232006 -7.8418e-22)
(0.84934 0.198847 5.17075e-22)
(0.879815 0.170608 5.56772e-22)
(0.904498 0.146654 -4.3357e-22)
(0.253507 0.423267 -7.40599e-22)
(0.453906 0.520453 -8.24293e-23)
(0.570741 0.4394 1.15749e-21)
(0.64225 0.363332 9.04727e-22)
(0.708071 0.302817 0)
(0.758206 0.255813 -1.01224e-21)
(0.802494 0.217186 -4.09958e-23)
(0.838119 0.18597 -6.655e-22)
(0.870285 0.159429 -3.904e-22)
(0.896108 0.136944 3.44994e-22)
(0.225956 0.397956 1.77589e-21)
(0.419816 0.486583 0)
(0.542553 0.409422 -2.39949e-21)
(0.619505 0.338102 -7.91855e-22)
(0.68968 0.281474 -9.36966e-23)
(0.743031 0.237539 0)
(0.789925 0.201485 8.17073e-22)
(0.827608 0.172379 -6.49095e-22)
(0.861344 0.14767 -4.92152e-22)
(0.888292 0.12674 3.7529e-22)
(0.199909 0.369691 -9.34878e-22)
(0.38784 0.449737 -8.23588e-22)
(0.516249 0.377317 1.39726e-21)
(0.598324 0.311225 -1.28417e-22)
(0.672573 0.25884 0)
(0.728934 0.218235 0)
(0.778266 0.184955 0)
(0.817861 0.158117 1.32322e-21)
(0.853039 0.135364 4.92154e-22)
(0.881086 0.116077 -3.75289e-22)
(0.175635 0.338694 -9.7134e-22)
(0.358245 0.410124 8.20509e-22)
(0.492023 0.343228 8.63835e-23)
(0.578842 0.282816 0)
(0.656854 0.235006 -8.08728e-22)
(0.715996 0.197974 -5.38945e-22)
(0.76758 0.167658 -5.98177e-23)
(0.808929 0.143232 1.04573e-22)
(0.845416 0.12255 -1.30605e-22)
(0.87452 0.10499 5.2077e-23)
(0.153374 0.305168 1.10282e-21)
(0.331284 0.367999 -1.10675e-22)
(0.470048 0.30732 -9.05424e-22)
(0.561188 0.253002 2.01279e-22)
(0.642622 0.210072 6.02121e-22)
(0.704293 0.176837 7.66726e-22)
(0.757925 0.149657 -6.19187e-23)
(0.800856 0.127778 -3.38244e-22)
(0.838518 0.10927 0)
(0.86862 0.0935234 4.88819e-23)
(0.133349 0.269341 7.5619e-23)
(0.307186 0.323626 0)
(0.450478 0.269772 -2.84913e-23)
(0.545476 0.221922 0)
(0.629966 0.184144 -8.64636e-22)
(0.693895 0.154911 6.49263e-22)
(0.749354 0.131024 0)
(0.793688 0.111811 8.97275e-24)
(0.832387 0.0955713 0)
(0.863411 0.0817196 0)
(0.115772 0.231472 1.56813e-22)
(0.28615 0.277273 -1.06893e-21)
(0.433448 0.230779 8.49229e-22)
(0.531811 0.189724 -1.45895e-22)
(0.618965 0.15734 3.74348e-22)
(0.684862 0.132288 1.02492e-22)
(0.741914 0.111833 0)
(0.787464 0.0953909 -2.79112e-22)
(0.827057 0.0815029 -7.42605e-23)
(0.858912 0.0696251 -2.14447e-22)
(0.100829 0.191844 6.7073e-22)
(0.268349 0.229223 -1.58538e-21)
(0.419074 0.190544 1.46041e-22)
(0.520282 0.156565 -6.09769e-22)
(0.609688 0.129781 -6.84347e-23)
(0.67725 0.109068 -6.64768e-22)
(0.735647 0.0921639 0)
(0.782219 0.0785832 3.81673e-22)
(0.822562 0.0671179 -6.80764e-23)
(0.85514 0.0572867 4.89362e-22)
(0.0886791 0.150753 -6.70731e-22)
(0.253931 0.179764 5.81571e-22)
(0.407456 0.149282 -1.00917e-22)
(0.510966 0.122611 7.15306e-22)
(0.602195 0.101598 3.92513e-22)
(0.671103 0.0853512 4.06463e-23)
(0.730589 0.0720987 -3.39375e-23)
(0.777985 0.0614555 -4.27427e-22)
(0.818929 0.0524728 3.86216e-24)
(0.852106 0.0447512 -1.62563e-22)
(0.0794521 0.108511 3.50961e-22)
(0.243013 0.1292 0)
(0.398672 0.107212 4.14512e-22)
(0.503925 0.08803 0)
(0.596533 0.0729242 5.50905e-23)
(0.666461 0.0612456 -4.58714e-23)
(0.72677 0.0517227 0)
(0.774785 0.0440771 0)
(0.816182 0.0376252 0)
(0.849823 0.0320664 0)
(0.0732459 0.0654406 -3.07453e-22)
(0.235684 0.0778404 -1.18344e-22)
(0.392783 0.0645605 -4.14513e-22)
(0.499204 0.0529991 0)
(0.592739 0.0438966 0)
(0.66335 0.03686 2.07397e-23)
(0.724211 0.0311234 -8.27305e-23)
(0.772641 0.0265185 -9.80955e-23)
(0.81434 0.0226329 -9.14236e-23)
(0.848296 0.0192791 1.47487e-23)
(0.0701263 0.0218693 -5.56595e-24)
(0.232004 0.0260003 1.27666e-22)
(0.389828 0.0215592 -5.70887e-24)
(0.496836 0.0176966 1.96921e-23)
(0.590835 0.014656 -7.75791e-24)
(0.661789 0.0123055 0)
(0.722928 0.0103895 6.5414e-23)
(0.771566 0.00885158 9.80955e-23)
(0.813416 0.00755391 6.94593e-23)
(0.847531 0.00643276 1.03646e-23)
(0.0701263 -0.0218693 -5.56595e-24)
(0.232004 -0.0260003 1.27666e-22)
(0.389828 -0.0215592 -5.70887e-24)
(0.496836 -0.0176966 1.96921e-23)
(0.590835 -0.014656 -7.75791e-24)
(0.661789 -0.0123055 0)
(0.722928 -0.0103895 5.76248e-23)
(0.771566 -0.00885158 1.04615e-22)
(0.813416 -0.00755391 7.38642e-23)
(0.847531 -0.00643276 0)
(0.0732459 -0.0654406 -3.94469e-22)
(0.235684 -0.0778404 -1.53492e-22)
(0.392783 -0.0645605 -4.39397e-22)
(0.499204 -0.0529991 2.05837e-23)
(0.592739 -0.0438966 0)
(0.66335 -0.03686 -2.07397e-23)
(0.724211 -0.0311234 -4.80974e-23)
(0.772641 -0.0265185 -9.80955e-23)
(0.81434 -0.0226329 -5.63049e-23)
(0.848296 -0.0192791 -1.47487e-23)
(0.0794521 -0.108511 3.50961e-22)
(0.243013 -0.1292 0)
(0.398672 -0.107212 4.14512e-22)
(0.503925 -0.08803 0)
(0.596533 -0.0729242 5.50905e-23)
(0.666461 -0.0612456 -4.58714e-23)
(0.72677 -0.0517227 0)
(0.774785 -0.0440771 0)
(0.816182 -0.0376252 0)
(0.849823 -0.0320664 0)
(0.0886791 -0.150753 -6.70731e-22)
(0.253931 -0.179764 4.54243e-22)
(0.407456 -0.149282 1.00917e-22)
(0.510966 -0.122611 4.89819e-22)
(0.602195 -0.101598 5.13132e-22)
(0.671103 -0.0853512 -4.06463e-23)
(0.730589 -0.0720987 3.39375e-23)
(0.777985 -0.0614555 -3.3592e-22)
(0.818929 -0.0524728 -3.86216e-24)
(0.852106 -0.0447512 -2.72909e-22)
(0.100829 -0.191844 6.7073e-22)
(0.268349 -0.229223 5.4957e-22)
(0.419074 -0.190544 -1.46041e-22)
(0.520282 -0.156565 -5.95354e-22)
(0.609688 -0.129781 4.98711e-23)
(0.67725 -0.109068 -6.64768e-22)
(0.735647 -0.0921639 0)
(0.782219 -0.0785832 3.81673e-22)
(0.822562 -0.0671179 6.80764e-23)
(0.85514 -0.0572867 3.75003e-22)
(0.115772 -0.231472 -1.56813e-22)
(0.28615 -0.277273 1.06893e-21)
(0.433448 -0.230779 6.64608e-22)
(0.531811 -0.189724 1.45895e-22)
(0.618965 -0.15734 4.6785e-22)
(0.684862 -0.132288 -1.49824e-22)
(0.741914 -0.111833 6.54063e-23)
(0.787464 -0.0953909 -4.56171e-22)
(0.827057 -0.0815029 7.42605e-23)
(0.858912 -0.0696251 -2.14447e-22)
(0.133349 -0.269341 -7.5619e-23)
(0.307186 -0.323626 0)
(0.450478 -0.269772 -2.84913e-23)
(0.545476 -0.221922 0)
(0.629966 -0.184144 -8.64636e-22)
(0.693895 -0.154911 6.49263e-22)
(0.749354 -0.131024 0)
(0.793688 -0.111811 8.97276e-24)
(0.832387 -0.0955713 0)
(0.863411 -0.0817196 0)
(0.153374 -0.305168 1.10282e-21)
(0.331284 -0.367999 1.10675e-22)
(0.470048 -0.30732 -6.37238e-22)
(0.561188 -0.253002 -1.30295e-22)
(0.642622 -0.210072 1.01534e-21)
(0.704293 -0.176837 4.54453e-22)
(0.757925 -0.149657 6.19187e-23)
(0.800856 -0.127778 -4.22566e-22)
(0.838518 -0.10927 7.07314e-23)
(0.86862 -0.0935234 -4.88819e-23)
(0.175635 -0.338694 -1.2343e-21)
(0.358245 -0.410124 8.26672e-22)
(0.492023 -0.343228 7.7451e-23)
(0.578842 -0.282816 -1.35521e-22)
(0.656854 -0.235006 -8.08728e-22)
(0.715996 -0.197974 -6.8223e-22)
(0.76758 -0.167658 5.98177e-23)
(0.808929 -0.143232 -5.90013e-23)
(0.845416 -0.12255 1.30605e-22)
(0.87452 -0.10499 -5.2077e-23)
(0.199909 -0.369691 -9.34878e-22)
(0.38784 -0.449737 -8.23588e-22)
(0.516249 -0.377317 1.08676e-21)
(0.598324 -0.311225 1.28417e-22)
(0.672573 -0.25884 0)
(0.728934 -0.218235 0)
(0.778266 -0.184955 0)
(0.817861 -0.158117 1.32322e-21)
(0.853039 -0.135364 4.92154e-22)
(0.881086 -0.116077 -3.75289e-22)
(0.225956 -0.397956 1.77589e-21)
(0.419816 -0.486583 0)
(0.542553 -0.409422 -2.39949e-21)
(0.619505 -0.338102 -9.04731e-22)
(0.68968 -0.281474 0)
(0.743031 -0.237539 0)
(0.789925 -0.201485 8.17073e-22)
(0.827608 -0.172379 -6.49095e-22)
(0.861344 -0.14767 -4.92152e-22)
(0.888292 -0.12674 3.7529e-22)
(0.253507 -0.423267 -9.41434e-22)
(0.453906 -0.520453 8.24293e-23)
(0.570741 -0.4394 1.15749e-21)
(0.64225 -0.363332 1.01082e-21)
(0.708071 -0.302817 -8.80616e-23)
(0.758206 -0.255813 -1.01224e-21)
(0.802494 -0.217186 -4.09958e-23)
(0.838119 -0.18597 -5.20243e-22)
(0.870285 -0.159429 -5.12245e-22)
(0.896108 -0.136944 3.44994e-22)
(0.282248 -0.445403 -2.42519e-24)
(0.489832 -0.551188 -1.2092e-21)
(0.600614 -0.467125 -1.25576e-22)
(0.666412 -0.386815 -6.80594e-22)
(0.727633 -0.322789 -5.42436e-22)
(0.77437 -0.272991 -1.84343e-22)
(0.815905 -0.232006 -7.67962e-22)
(0.84934 -0.198847 6.68663e-22)
(0.879815 -0.170608 3.45869e-22)
(0.904498 -0.146654 -2.56419e-22)
(0.311837 -0.464182 0)
(0.527298 -0.578648 9.93643e-22)
(0.631967 -0.492481 1.12035e-22)
(0.691839 -0.408463 6.73017e-23)
(0.748249 -0.341322 6.14e-22)
(0.791432 -0.289016 8.39651e-22)
(0.830089 -0.245898 -6.79552e-22)
(0.861219 -0.210969 7.14478e-23)
(0.88988 -0.181175 0)
(0.913424 -0.155838 0)
(0.341918 -0.479469 -5.93437e-23)
(0.565983 -0.60271 8.32618e-22)
(0.664585 -0.515372 0)
(0.718374 -0.428206 1.53236e-22)
(0.769795 -0.358356 -6.92219e-23)
(0.809295 -0.30384 0)
(0.844972 -0.258822 6.86716e-22)
(0.873697 -0.222303 4.95318e-22)
(0.900427 -0.191109 -9.42252e-23)
(0.922838 -0.164477 7.91465e-23)
(0.372116 -0.491164 5.11082e-23)
(0.605551 -0.623276 -8.74567e-22)