/*--------------------------------*- C++ -*----------------------------------*\
  =========                 |
  \\      /  F ield         | OpenFOAM: The Open Source CFD Toolbox
   \\    /   O peration     | Website:  https://openfoam.org
    \\  /    A nd           | Version:  9
     \\/     M anipulation  |
\*---------------------------------------------------------------------------*/
FoamFile
{
    format      ascii;
    class       volVectorField;
    location    "53.9";
    object      U;
}
// * * * * * * * * * * * * * * * * * * * * * * * * * * * * * * * * * * * * * //

dimensions      [0 1 -1 0 0 0 0];

internalField   nonuniform List<vector> 
8500
(
(-0.00648217 0.00259033 0)
(-0.0291122 0.0044681 -6.17106e-23)
(-0.0611396 0.00493083 -3.39324e-24)
(-0.088934 0.00476734 6.4316e-37)
(-0.116328 0.00445163 -9.46489e-24)
(-0.136736 0.00385091 7.88096e-24)
(-0.160623 0.00379986 -5.33849e-23)
(-0.171473 0.00249497 -8.26219e-23)
(-0.19173 0.00352514 -7.56396e-23)
(-0.198825 0.00125369 -3.92364e-24)
(-0.00677578 0.0077207 1.7806e-22)
(-0.0293699 0.01333 5.7662e-23)
(-0.061019 0.0147144 2.31454e-22)
(-0.0882577 0.0142253 0)
(-0.11507 0.0132757 0)
(-0.134501 0.0114775 1.58774e-23)
(-0.157824 0.011311 4.01281e-23)
(-0.166956 0.0073955 8.81906e-23)
(-0.186701 0.0105013 5.69538e-23)
(-0.191581 0.00357601 1.57034e-23)
(-0.00735484 0.0126971 -1.5823e-22)
(-0.0298815 0.0219709 0)
(-0.0607825 0.0242744 -2.17811e-22)
(-0.0869138 0.0234736 0)
(-0.112568 0.0218934 -3.79175e-23)
(-0.130041 0.0189284 3.15721e-23)
(-0.152231 0.0186184 0)
(-0.157883 0.0121293 0)
(-0.176648 0.0173815 0)
(-0.177116 0.0055124 0)
(-0.00820351 0.0174238 3.18204e-22)
(-0.0306396 0.030249 -2.31612e-22)
(-0.0604382 0.0334642 -5.46297e-23)
(-0.0849189 0.0323731 -3.4072e-22)
(-0.108841 0.0301616 -3.42184e-22)
(-0.123369 0.0260911 3.18539e-23)
(-0.143851 0.0255621 -2.65963e-23)
(-0.144167 0.0166108 3.07283e-22)
(-0.161543 0.0241164 1.9064e-26)
(-0.155403 0.00686445 3.09737e-22)
(-0.00929947 0.0218147 -3.18204e-22)
(-0.031633 0.0380309 -2.99443e-22)
(-0.0599972 0.0421409 8.21993e-23)
(-0.0822967 0.0407853 4.54732e-22)
(-0.103914 0.0379295 -3.87352e-23)
(-0.114512 0.0328584 5.06256e-22)
(-0.132678 0.0319458 0)
(-0.125664 0.020783 -3.51972e-22)
(-0.141286 0.0306705 -7.50967e-23)
(-0.126219 0.0075459 -4.30291e-22)
(-0.0106155 0.0257971 8.0259e-23)
(-0.0328472 0.0451944 4.97935e-22)
(-0.0594709 0.050166 -3.84978e-22)
(-0.0790758 0.0485737 -2.95929e-25)
(-0.097804 0.0450391 -3.45186e-22)
(-0.103504 0.0391306 1.27989e-22)
(-0.118677 0.0375243 -5.34523e-23)
(-0.10217 0.0246146 4.40235e-22)
(-0.115656 0.0369909 -7.52693e-23)
(-0.0889036 0.00770313 2.46466e-22)
(-0.0121213 0.0293137 4.02137e-23)
(-0.0342647 0.0516309 0)
(-0.058868 0.0574066 -1.56633e-24)
(-0.0752858 0.0556057 0)
(-0.0905123 0.0513274 6.12134e-22)
(-0.0903816 0.0448167 -5.0675e-22)
(-0.101754 0.0419973 0)
(-0.0734248 0.0281077 -1.12506e-24)
(-0.0843045 0.0428597 0)
(-0.0420632 0.00794587 0)
(-0.0137859 0.0323247 -6.48791e-22)
(-0.0358645 0.0572482 -6.70526e-23)
(-0.0581896 0.0637384 4.96804e-22)
(-0.07095 0.0617526 9.21389e-23)
(-0.0820028 0.0566331 -6.15997e-22)
(-0.0751646 0.0498403 -3.79525e-22)
(-0.0816919 0.0450039 -5.37426e-23)
(-0.0391392 0.0313497 4.36763e-22)
(-0.0467718 0.047551 -7.55799e-23)
(0.0167147 0.00932213 6.24572e-23)
(-0.0155796 0.034809 7.30426e-22)
(-0.0376219 0.0619714 -5.39211e-22)
(-0.0574237 0.0690487 -1.66571e-22)
(-0.0660735 0.0668901 9.18968e-23)
(-0.0721778 0.0608035 6.15929e-22)
(-0.0578277 0.0541553 5.7215e-22)
(-0.0580203 0.0461333 -5.38746e-23)
(0.00106186 0.0345218 8.74179e-23)
(-0.00285116 0.0502598 -1.5153e-22)
(0.0914098 0.0123456 6.37502e-23)
(-0.0174755 0.0367631 6.56776e-22)
(-0.0395065 0.0657448 5.39531e-22)
(-0.0565382 0.0732404 -7.81968e-22)
(-0.0606276 0.0708985 -9.22063e-23)
(-0.0608401 0.0636972 0)
(-0.0382581 0.0577634 0)
(-0.0299522 0.0451797 0)
(0.0482185 0.0376443 -1.38369e-21)
(0.0471877 0.0501034 -6.36108e-22)
(0.185731 0.0175753 4.8355e-22)
(-0.0194517 0.0382009 -1.31782e-21)
(-0.0414797 0.0685319 0)
(-0.0554721 0.076236 1.79037e-21)
(-0.0545312 0.0736667 7.40604e-22)
(-0.0476478 0.0651886 7.70908e-23)
(-0.0160622 0.0606005 0)
(0.00351094 0.0423508 -8.81959e-22)
(0.103674 0.0410554 6.9047e-22)
(0.104995 0.0457542 6.36099e-22)
(0.301302 0.0254952 -4.83532e-22)
(-0.0214911 0.0391507 7.44066e-22)
(-0.0434909 0.0703157 -6.81433e-23)
(-0.0541236 0.0779816 -8.96926e-22)
(-0.047627 0.0751002 -8.3365e-22)
(-0.0321662 0.0652743 0)
(0.00963941 0.0624106 1.01941e-21)
(0.0440718 0.0381407 5.17761e-25)
(0.168243 0.0455598 5.95284e-22)
(0.175836 0.0374312 7.13918e-22)
(0.436544 0.035226 -4.79256e-22)
(-0.0235817 0.0396522 4.56277e-26)
(-0.0454715 0.0710975 1.16872e-21)
(-0.0523347 0.0784495 -1.12894e-22)
(-0.0395961 0.0751074 6.50992e-22)
(-0.0138722 0.0640468 3.89189e-22)
(0.0400584 0.0629709 2.5923e-22)
(0.0945076 0.0334047 8.79635e-22)
(0.242344 0.0510218 -7.74571e-22)
(0.267974 0.0290548 -4.86843e-22)
(0.585381 0.045534 3.52034e-22)
(-0.0257156 0.0397529 0)
(-0.047329 0.070895 -9.62607e-22)
(-0.0498902 0.0776453 -1.13391e-22)
(-0.0299263 0.0736244 1.63007e-24)
(0.00805925 0.0615889 6.20767e-22)
(0.0767128 0.0621886 -8.91179e-22)
(0.157969 0.0297424 8.74232e-22)
(0.326555 0.0559555 -8.88731e-23)
(0.387914 0.0265559 0)
(0.737499 0.056374 0)
(-0.0278869 0.0395045 8.46498e-23)
(-0.048936 0.0697414 -1.11177e-21)
(-0.0464985 0.0756169 0)
(-0.0179232 0.0706918 -9.18787e-23)
(0.0348303 0.0580481 7.74984e-23)
(0.121718 0.0599463 0)
(0.236838 0.0291847 -8.76119e-22)
(0.42236 0.0592226 -6.8524e-22)
(0.533456 0.0333259 1.49726e-22)
(0.880722 0.0684852 -1.25827e-22)
(-0.0300867 0.0389541 -8.50935e-23)
(-0.0501257 0.0676882 1.18162e-21)
(-0.0417491 0.0724348 0)
(-0.00268486 0.0664687 -8.40703e-22)
(0.0679985 0.0537516 7.75416e-23)
(0.177742 0.0565671 -1.02121e-21)
(0.33164 0.0330774 -1.05694e-22)
(0.531647 0.0621158 7.73689e-22)
(0.691699 0.0480778 0)
(1.00448 0.0816354 9.53103e-22)
(-0.0322944 0.0381393 -1.29541e-21)
(-0.0506873 0.0647997 -7.03225e-23)
(-0.0350903 0.068192 -1.13844e-22)
(0.016955 0.0612173 9.41662e-23)
(0.109523 0.0492851 -1.23778e-21)
(0.247626 0.0532969 1.0212e-21)
(0.440586 0.04144 8.60229e-22)
(0.653311 0.0676807 6.85182e-22)
(0.844803 0.0670489 1.18777e-21)
(1.10256 0.0944481 -8.33838e-22)
(-0.0344743 0.037088 1.38108e-21)
(-0.0503545 0.0611422 0)
(-0.0258307 0.0630223 1.03478e-21)
(0.0424411 0.0552898 -9.44445e-23)
(0.161645 0.0454692 2.4747e-21)
(0.333384 0.0521494 0)
(0.559797 0.0535583 -8.60211e-22)
(0.780356 0.0775559 -1.83502e-24)
(0.978042 0.0869309 -1.33096e-21)
(1.17381 0.105475 1.20356e-22)
(-0.0365717 0.0358163 0)
(-0.0487985 0.0567827 1.13864e-21)
(-0.0131346 0.0571001 -9.20596e-22)
(0.0754612 0.0491538 0)
(0.226526 0.0433631 -1.23692e-21)
(0.434618 0.0551559 0)
(0.683373 0.0686813 8.4515e-22)
(0.902053 0.0908134 -6.83319e-22)
(1.08392 0.105761 -1.13215e-21)
(1.22111 0.113723 -9.08851e-22)
(-0.0385058 0.0343254 -1.75414e-22)
(-0.0456297 0.0517926 -9.9465e-22)
(0.00398337 0.0506409 0)
(0.117861 0.0434642 0)
(0.305515 0.044211 0)
(0.547485 0.0632984 -1.26211e-22)
(0.803928 0.0858305 -8.47241e-22)
(1.00909 0.10561 -8.64327e-23)
(1.1617 0.122373 1.13214e-21)
(1.24984 0.118457 1.02239e-21)
(-0.0401678 0.0326062 0)
(-0.0403956 0.0462457 -1.15611e-21)
(0.0266602 0.0439134 0)
(0.171442 0.0391632 0)
(0.398172 0.0491509 0)
(0.665195 0.0760976 1.25318e-22)
(0.914406 0.103655 -1.03298e-21)
(1.09655 0.120576 7.96776e-23)
(1.21504 0.135547 8.04166e-22)
(1.26694 0.119054 8.75668e-22)
(-0.0414341 0.0306546 0)
(-0.0325674 0.0402038 1.15611e-21)
(0.0561794 0.0372832 -9.41584e-22)
(0.237526 0.0374994 0)
(0.501508 0.0586853 -1.23459e-21)
(0.780031 0.0920673 0)
(1.01002 0.120958 8.26168e-22)
(1.16364 0.134639 -6.56588e-22)
(1.24963 0.14419 -1.07647e-21)
(1.29172 0.129638 -8.7078e-22)
(-0.0421643 0.0284568 1.47621e-21)
(-0.0215483 0.0337183 0)
(0.0939239 0.0313091 8.24964e-22)
(0.316288 0.0397761 9.64524e-23)
(0.610225 0.0723382 2.4691e-21)
(0.88563 0.10953 0)
(1.08881 0.137022 -8.0464e-22)
(1.21245 0.146757 -1.30157e-21)
(1.27431 0.152396 -8.98397e-22)
(1.301 0.13572 -5.29223e-24)
(-0.0421859 0.0259855 -1.56787e-21)
(-0.00666642 0.0268558 7.52345e-23)
(0.141212 0.0268539 1.173e-22)
(0.406108 0.046817 -9.7021e-23)
(0.718136 0.0888988 -1.23451e-21)
(0.978141 0.127178 9.91943e-22)
(1.15109 0.151438 8.04635e-22)
(1.24711 0.157417 6.4498e-22)
(1.28859 0.158841 1.02554e-21)
(1.30425 0.141489 -8.98913e-22)
(-0.041308 0.023213 9.29803e-23)
(0.0128545 0.0197252 1.13099e-21)
(0.198963 0.0250947 0)
(0.503477 0.0585161 -6.74259e-22)
(0.819869 0.107021 -7.84158e-23)
(1.0561 0.144177 -9.91935e-22)
(1.19869 0.164255 9.6028e-23)
(1.27027 0.166574 5.38106e-22)
(1.29636 0.164537 0)
(1.30427 0.146497 8.0017e-22)
(-0.0393235 0.0201115 -9.6169e-23)
(0.0378963 0.0125605 -1.2073e-21)
(0.267245 0.0272679 0)
(0.60372 0.0739272 9.00044e-23)
(0.911846 0.125649 -7.86406e-23)
(1.11978 0.160124 0)
(1.2338 0.175598 -7.67315e-22)
(1.28492 0.174591 -6.18484e-22)
(1.29931 0.169532 -1.16968e-22)
(1.30106 0.151021 -9.83922e-23)
(-0.035995 0.0166529 0)
(0.0693823 0.00584766 -1.39426e-21)
(0.344913 0.0341837 1.24799e-22)
(0.702166 0.0918108 -5.21335e-24)
(0.992302 0.144112 -6.15626e-22)
(1.17036 0.174877 -1.08308e-21)
(1.25876 0.185688 8.65683e-22)
(1.29318 0.181698 0)
(1.29891 0.1741 0)
(1.29675 0.155324 0)
(-0.0310288 0.0128175 2.28909e-24)
(0.108125 0.000429174 1.16962e-21)
(0.429616 0.0458521 1.26488e-22)
(0.795092 0.111116 8.73936e-22)
(1.06083 0.162042 5.36538e-22)
(1.2095 0.188451 -1.04337e-22)
(1.27563 0.19475 7.45031e-22)
(1.29682 0.188149 -4.98301e-22)
(1.29633 0.178394 -5.55532e-22)
(1.29124 0.159478 4.43641e-22)
(-0.0240483 0.00861649 7.3138e-22)
(0.154598 -0.00252552 8.20065e-23)
(0.518211 0.0615527 -1.0105e-21)
(0.880088 0.131123 -7.88419e-22)
(1.11788 0.179258 0)
(1.23891 0.200945 9.53548e-22)
(1.28622 0.203008 -1.57948e-23)
(1.29715 0.194143 6.42032e-22)
(1.29221 0.182535 3.88422e-22)
(1.28524 0.163574 -3.51181e-22)
(-0.0145884 0.00412872 -1.68428e-21)
(0.208703 -0.00175994 0)
(0.607392 0.0802635 2.03721e-21)
(0.955927 0.15139 6.92909e-22)
(1.16437 0.195697 7.92739e-23)
(1.26026 0.212503 0)
(1.292 0.210667 -7.2258e-22)
(1.29511 0.199838 5.41348e-22)
(1.28709 0.186605 4.165e-22)
(1.27879 0.167656 -3.25464e-22)
(-0.00212325 -0.00045621 8.52985e-22)
(0.26966 0.00368869 6.6259e-22)
(0.694223 0.10107 -1.15167e-21)
(1.02224 0.171676 1.03356e-22)
(1.20141 0.211369 0)
(1.27503 0.223281 0)
(1.29414 0.217902 0)
(1.29139 0.205354 -1.06555e-21)
(1.28124 0.190661 -4.16503e-22)
(1.27207 0.171741 3.25449e-22)
(0.0138659 -0.00479534 7.93107e-22)
(0.336075 0.0141908 -6.5686e-22)
(0.776413 0.123321 6.73901e-23)
(1.0792 0.191866 0)
(1.2302 0.226323 5.96424e-22)
(1.28449 0.233432 3.92209e-22)
(1.29353 0.224855 4.48634e-23)
(1.28646 0.210772 -4.38757e-23)
(1.27489 0.194735 9.91611e-23)
(1.26509 0.175842 -3.98607e-23)
(0.0337625 -0.00836355 -8.99743e-22)
(0.406176 0.0294952 8.31716e-23)
(0.852364 0.146583 5.33389e-22)
(1.12728 0.211897 -1.47426e-22)
(1.25187 0.24063 -4.47383e-22)
(1.28968 0.243099 -5.57005e-22)
(1.29083 0.231636 4.37793e-23)
(1.28061 0.216147 2.62476e-22)
(1.26811 0.198845 0)
(1.25789 0.179951 -3.48661e-23)
(0.057736 -0.0105024 -5.84479e-23)
(0.478068 0.0489434 0)
(0.921106 0.170556 6.16997e-24)
(1.16711 0.231714 0)
(1.26749 0.254369 5.80087e-22)
(1.29146 0.252403 -4.25394e-22)
(1.28653 0.238323 0)
(1.27407 0.221509 9.68955e-24)
(1.26099 0.202994 0)
(1.25047 0.184058 0)
(0.0857276 -0.0105216 -1.16822e-22)
(0.549942 0.0717704 7.59371e-22)
(0.982183 0.195018 -6.08747e-22)
(1.19939 0.251262 9.98509e-23)
(1.27798 0.267619 -2.66218e-22)
(1.29051 0.261442 -4.46073e-23)
(1.28099 0.244965 0)
(1.26695 0.226871 1.79747e-22)
(1.25355 0.207177 4.56959e-23)
(1.24281 0.188146 1.27387e-22)
(0.117442 -0.00782045 -4.93746e-22)
(0.620181 0.0972992 -3.06067e-22)
(1.03552 0.219809 -1.00187e-22)
(1.22483 0.270483 3.98772e-22)
(1.28415 0.280454 3.2191e-23)
(1.28735 0.270294 4.13627e-22)
(1.27443 0.25159 0)
(1.25933 0.232232 -2.13494e-22)
(1.24579 0.21138 3.88981e-23)
(1.23491 0.192195 -2.79728e-22)
(0.152382 -0.00199732 -4.93745e-22)
(0.6874 0.124993 3.19164e-22)
(1.0813 0.244805 -4.10479e-24)
(1.24411 0.289318 -4.63376e-22)
(1.28666 0.292936 -2.41231e-22)
(1.2824 0.27901 -2.30648e-23)
(1.26702 0.258205 1.92582e-23)
(1.25125 0.237579 2.38069e-22)
(1.23772 0.215586 -2.32042e-24)
(1.22674 0.19618 9.05602e-23)
(0.189906 0.00709872 -2.54841e-22)
(0.750451 0.15442 0)
(1.11987 0.269899 -2.73963e-22)
(1.25789 0.307719 0)
(1.28609 0.30511 -3.0311e-22)
(1.27595 0.287623 2.59405e-23)
(1.25887 0.264802 0)
(1.24272 0.242893 0)
(1.22932 0.219773 0)
(1.2183 0.200075 0)
(0.229275 0.0193906 2.23553e-22)
(0.808422 0.1852 1.07444e-22)
(1.15169 0.294984 2.73965e-22)
(1.26678 0.325651 0)
(1.28287 0.317007 0)
(1.26822 0.296143 -1.05532e-23)
(1.25004 0.271362 4.0096e-23)
(1.23376 0.248147 4.46453e-23)
(1.2206 0.223913 4.0328e-23)
(1.20959 0.203848 -6.66382e-24)
(0.269705 0.0346503 -4.04724e-24)
(0.860664 0.216967 -1.00488e-22)
(1.1772 0.319944 4.58616e-24)
(1.27134 0.343094 5.26514e-24)
(1.27738 0.32864 -7.97425e-24)
(1.25937 0.304562 3.00073e-24)
(1.24057 0.277853 -3.4807e-23)
(1.22435 0.253309 -4.16976e-23)
(1.21153 0.227974 -3.05792e-23)
(1.20063 0.207467 1.13048e-24)
(0.310396 0.0525814 0)
(0.906839 0.249377 -1.01391e-22)
(1.1968 0.344658 -3.0099e-24)
(1.27204 0.360037 6.26853e-24)
(1.26989 0.340008 1.09055e-37)
(1.2495 0.312857 -7.49242e-38)
(1.23049 0.284238 -3.06407e-23)
(1.21449 0.258345 -3.53753e-23)
(1.20211 0.231913 -2.70664e-23)
(1.19145 0.210896 0)
(0.350568 0.0728681 2.93365e-22)
(0.946848 0.282137 8.31048e-23)
(1.21088 0.369013 2.71798e-22)
(1.26929 0.376451 -1.2208e-23)
(1.26063 0.351093 0)
(1.2387 0.320991 8.80952e-24)
(1.2198 0.290473 2.00076e-23)
(1.20418 0.263216 3.81192e-23)
(1.19234 0.235682 2.11228e-23)
(1.18204 0.214114 4.99564e-24)
(0.38948 0.0952097 -2.61495e-22)
(0.98069 0.314986 0)
(1.21981 0.392887 -2.57041e-22)
(1.26346 0.3923 0)
(1.24979 0.361862 -2.44629e-23)
(1.227 0.328914 2.03693e-23)
(1.2085 0.29651 0)
(1.19341 0.267883 0)
(1.18223 0.239241 0)
(1.17235 0.217099 0)
(0.426446 0.119328 5.1816e-22)
(1.00845 0.347684 -3.30185e-22)
(1.22398 0.416156 -6.24089e-23)
(1.25484 0.407541 -2.48968e-22)
(1.23751 0.372265 -2.24642e-22)
(1.21446 0.336571 1.49013e-23)
(1.1966 0.302298 -1.24419e-23)
(1.18217 0.272298 9.54496e-23)
(1.17179 0.24256 2.11673e-24)
(1.16231 0.219827 6.25608e-23)
(0.460851 0.144956 -5.18161e-22)
(1.03026 0.380005 -3.96959e-22)
(1.22372 0.438695 8.63848e-23)
(1.24372 0.422125 2.96646e-22)
(1.22389 0.382244 -1.20245e-23)
(1.20109 0.3439 2.27672e-22)
(1.1841 0.307783 0)
(1.17046 0.276404 -1.08726e-22)
(1.16108 0.245629 -1.50295e-23)
(1.15189 0.222316 -7.47366e-23)
(0.492164 0.17182 1.22986e-22)
(1.04631 0.411731 6.7955e-22)
(1.21936 0.460376 -3.8724e-22)
(1.23031 0.435992 -7.16077e-23)
(1.20903 0.391733 -1.59337e-22)
(1.18691 0.350833 2.89948e-23)
(1.171 0.312908 -1.97986e-23)
(1.15832 0.280138 9.54961e-23)
(1.1501 0.248432 -1.58728e-23)
(1.14117 0.224604 3.85976e-23)
(0.519944 0.199633 6.23243e-23)
(1.05681 0.44265 0)
(1.21118 0.481066 2.66052e-23)
(1.21482 0.449074 0)
(1.19298 0.400656 3.26807e-22)
(1.17196 0.357299 -2.01377e-22)
(1.15733 0.317613 0)
(1.14579 0.283455 -1.68318e-23)
(1.13876 0.250909 0)
(1.13025 0.226496 0)
(0.543843 0.228082 -9.54787e-22)
(1.06196 0.472544 -7.22582e-23)
(1.19948 0.500632 4.69724e-22)
(1.19741 0.461294 5.03462e-23)
(1.17579 0.408925 -3.24664e-22)
(1.15629 0.363224 -1.03343e-22)
(1.14314 0.321836 -1.41931e-23)
(1.13291 0.286332 3.58754e-23)
(1.12703 0.253018 -9.05365e-24)
(1.11915 0.228033 2.69033e-24)
(0.563607 0.256832 1.06204e-21)
(1.062 0.501193 -6.30236e-22)
(1.18451 0.518936 -1.33916e-22)
(1.17822 0.47257 6.46036e-23)
(1.15757 0.416452 2.53554e-22)
(1.13998 0.368529 1.58188e-22)
(1.12844 0.325521 -1.12125e-23)
(1.11964 0.288735 -2.90845e-23)
(1.11497 0.254715 -7.67964e-24)
(1.10788 0.229151 1.83947e-24)
(0.579067 0.285531 8.75676e-22)
(1.05718 0.528372 6.09954e-22)
(1.16649 0.535832 -5.55377e-22)
(1.15743 0.482809 -5.77543e-23)
(1.13845 0.423164 0)
(1.12299 0.37313 0)
(1.11321 0.32861 0)
(1.10603 0.290621 -6.1842e-23)
(1.10259 0.255968 1.24455e-23)
(1.09646 0.229833 -2.99951e-23)
(0.590142 0.31382 -1.70107e-21)
(1.04774 0.553863 0)
(1.14563 0.551152 1.17356e-21)
(1.13524 0.491914 2.80115e-22)
(1.11848 0.428981 0)
(1.10532 0.376953 0)
(1.09753 0.331039 -1.58006e-23)
(1.09208 0.291951 1.26452e-23)
(1.08995 0.25674 -1.24456e-23)
(1.0849 0.230042 2.99939e-23)
(0.596826 0.341335 9.13768e-22)
(1.03399 0.577464 -7.2542e-23)
(1.12216 0.564727 -5.48364e-22)
(1.11177 0.499768 -3.04215e-22)
(1.09767 0.433823 2.00031e-23)
(1.08704 0.379934 3.22474e-23)
(1.08142 0.332749 5.0873e-23)
(1.07783 0.292683 -5.61052e-23)
(1.07706 0.256999 -7.64699e-23)
(1.07325 0.22975 7.47357e-23)
(0.59919 0.36771 -1.16839e-23)
(1.01625 0.598991 8.48292e-22)
(1.09637 0.57644 -7.31077e-23)
(1.08707 0.506207 1.38689e-22)
(1.07607 0.437613 4.21709e-23)
(1.0682 0.382003 -6.79243e-23)
(1.06493 0.333685 -4.11685e-23)
(1.06331 0.292779 7.11339e-23)
(1.06398 0.256709 -9.41246e-23)
(1.06154 0.22893 -5.50983e-23)
(0.597375 0.392577 0)
(0.994807 0.618218 -7.50972e-22)
(1.06851 0.586196 -6.14908e-23)
(1.06122 0.511101 -6.67199e-23)
(1.05379 0.440246 -3.60863e-23)
(1.04887 0.383099 2.4861e-23)
(1.04813 0.333796 -1.45358e-22)
(1.04856 0.292201 0)
(1.05072 0.255836 0)
(1.04979 0.227546 0)
(0.591581 0.41561 7.4155e-23)
(0.96975 0.634797 -5.73752e-22)
(1.03894 0.593952 0)
(1.0344 0.514373 -7.01026e-23)
(1.0309 0.441633 8.05521e-25)
(1.02913 0.38316 0)
(1.03105 0.333034 1.40045e-22)
(1.03363 0.290916 1.80939e-22)
(1.03733 0.254344 -3.76444e-23)
(1.03806 0.225552 3.1619e-23)
(0.582032 0.436594 -5.19859e-23)
(0.9413 0.648429 6.16428e-22)
(1.00792 0.599564 0)
(1.00674 0.515985 -1.22645e-23)
(1.00748 0.441689 -6.0282e-24)
(1.00904 0.38213 2.56998e-22)
(1.01378 0.331359 2.87401e-23)
(1.01856 0.288893 -2.04996e-22)
(1.02382 0.252199 0)
(1.02638 0.222909 -3.28755e-22)
(0.568941 0.455308 -7.10209e-22)
(0.909939 0.658999 -3.37057e-23)
(0.975598 0.602822 3.2998e-24)
(0.978378 0.515869 -2.72951e-24)
(0.983649 0.440341 3.31303e-22)
(0.988688 0.379957 -2.57e-22)
(0.996366 0.328733 -3.02841e-22)
(1.00339 0.286099 -2.61533e-22)
(1.01024 0.249372 -4.43616e-22)
(1.01489 0.219611 2.87738e-22)
(0.552427 0.471399 7.51273e-22)
(0.876232 0.666494 0)
(0.942217 0.603595 -1.26842e-22)
(0.949475 0.513958 1.27036e-23)
(0.9595 0.437529 -7.68101e-22)
(0.968161 0.376593 0)
(0.978873 0.325127 3.02843e-22)
(0.988142 0.282498 -4.05779e-23)
(0.996709 0.245838 5.02467e-22)
(1.00386 0.215695 -4.94223e-23)
(0.532705 0.484444 0)
(0.840561 0.670762 -9.23796e-24)
(0.907971 0.60182 1.11485e-22)
(0.920179 0.510185 0)
(0.935146 0.433202 4.368e-22)
(0.947548 0.372 0)
(0.961357 0.320514 -4.12748e-22)
(0.972877 0.278049 3.02115e-22)
(0.983386 0.241554 5.62782e-22)
(0.993599 0.211229 4.49333e-22)
(0.51026 0.494276 -1.02393e-23)
(0.803271 0.671663 1.76429e-23)
(0.873091 0.597438 0)
(0.890649 0.504487 0)
(0.910705 0.427319 0)
(0.926939 0.366149 6.55765e-23)
(0.943881 0.314873 3.03367e-22)
(0.957685 0.272726 4.57259e-23)
(0.970464 0.236464 -5.62785e-22)
(0.983992 0.206162 -5.04771e-22)
(0.485509 0.500726 0)
(0.764706 0.669085 3.21251e-22)
(0.837817 0.590406 0)
(0.861045 0.496816 0)
(0.886299 0.419847 0)
(0.906427 0.359017 -7.44399e-23)
(0.926516 0.308191 6.45012e-22)
(0.942688 0.266534 -1.49831e-22)
(0.958025 0.230579 -5.14366e-22)
(0.974374 0.198996 -5.28995e-22)
(0.458864 0.503659 0)
(0.725225 0.662947 -3.21253e-22)
(0.802389 0.580696 5.4448e-22)
(0.831532 0.487134 0)
(0.862053 0.410768 8.61861e-22)
(0.886108 0.350588 0)
(0.909353 0.300454 -5.21816e-22)
(0.927998 0.259487 4.60868e-22)
(0.94582 0.224356 6.75572e-22)
(0.963473 0.193815 5.27627e-22)
(0.430735 0.502983 -5.27639e-22)
(0.685193 0.653202 0)
(0.767054 0.568298 -4.66584e-22)
(0.802281 0.475419 -6.44366e-23)
(0.838095 0.400071 -1.82794e-21)
(0.86608 0.340854 0)
(0.892484 0.291647 6.27873e-22)
(0.913681 0.251507 3.76554e-23)
(0.933967 0.217078 6.92616e-22)
(0.953001 0.187184 2.43921e-24)
(0.401531 0.498644 5.74479e-22)
(0.644973 0.639833 -3.84477e-23)
(0.732052 0.553221 -9.03272e-23)
(0.773462 0.461667 -7.47166e-23)
(0.814553 0.387757 9.66081e-22)
(0.846445 0.329819 -8.55777e-22)
(0.87599 0.281787 -6.27877e-22)
(0.899743 0.242693 -4.98529e-22)
(0.922306 0.209226 -7.84007e-22)
(0.942511 0.180331 7.29101e-22)
(0.371657 0.490629 -5.98838e-23)
(0.604929 0.622853 -8.98327e-22)
(0.697625 0.535491 0)
(0.745246 0.445886 6.35398e-22)
(0.791557 0.37384 7.05299e-23)
(0.827306 0.317494 8.55782e-22)
(0.859963 0.270876 -8.54745e-23)
(0.886253 0.232995 -4.98962e-22)
(0.910985 0.200592 0)
(0.932322 0.172785 -6.50095e-22)
(0.341509 0.478962 6.81115e-23)
(0.565416 0.602305 9.47487e-22)
(0.664008 0.515152 0)
(0.717804 0.428103 -2.33941e-23)
(0.769236 0.358342 7.73128e-23)
(0.808766 0.303898 0)
(0.844478 0.258939 7.76566e-22)
(0.873247 0.222467 5.70506e-22)
(0.900023 0.191308 1.09969e-22)
(0.922485 0.164702 -9.23707e-23)
(0.311476 0.463706 0)
(0.526782 0.578262 1.3943e-21)
(0.63143 0.492268 -1.2382e-22)
(0.691303 0.408359 6.7209e-23)
(0.747719 0.341301 6.78618e-22)
(0.790928 0.289064 1.18234e-21)
(0.829616 0.246001 -8.80331e-22)
(0.860786 0.211114 0)
(0.889489 0.181354 0)
(0.913081 0.156041 0)
(0.281929 0.444957 2.4159e-24)
(0.489364 0.550824 -1.15733e-21)
(0.600115 0.466919 1.37342e-22)
(0.665907 0.38671 -9.65939e-22)
(0.727131 0.322763 -5.8847e-22)
(0.773889 0.273029 1.93298e-22)
(0.815451 0.232095 -8.73942e-22)
(0.848924 0.198976 5.82783e-22)
(0.879437 0.170768 6.35469e-22)
(0.904166 0.146836 -4.99631e-22)
(0.253229 0.422854 -8.01435e-22)
(0.453481 0.520112 -8.95658e-23)
(0.570277 0.439205 1.25138e-21)
(0.641775 0.36323 9.82421e-22)
(0.707594 0.302787 0)
(0.757746 0.255842 -1.11976e-21)
(0.802058 0.217263 -4.09542e-23)
(0.837717 0.186084 -7.49982e-22)
(0.86992 0.159572 -4.4549e-22)
(0.895786 0.137108 3.97837e-22)
(0.225714 0.397577 1.91481e-21)
(0.419431 0.486267 0)
(0.542121 0.409239 -2.58717e-21)
(0.619058 0.338003 -8.5984e-22)
(0.689227 0.281442 -1.01756e-22)
(0.742591 0.237561 0)
(0.789506 0.20155 9.0679e-22)
(0.82722 0.172478 -7.24145e-22)
(0.86099 0.147797 -5.55083e-22)
(0.887979 0.126886 4.28117e-22)
(0.199699 0.369347 -1.00426e-21)
(0.387491 0.449447 -8.80414e-22)
(0.515847 0.377147 1.50276e-21)
(0.597901 0.311131 -1.38112e-22)
(0.67214 0.258807 0)
(0.728512 0.218251 0)
(0.777862 0.185011 0)
(0.817486 0.158203 1.4733e-21)
(0.852695 0.135475 5.55085e-22)
(0.880781 0.116205 -4.28116e-22)
(0.175454 0.338384 -1.03183e-21)
(0.357928 0.409861 8.77336e-22)
(0.491648 0.343072 9.22337e-23)
(0.578442 0.282729 0)
(0.656441 0.234974 -8.73115e-22)
(0.71559 0.197986 -5.85884e-22)
(0.76719 0.167705 -6.54187e-23)
(0.808565 0.143307 1.13929e-22)
(0.845082 0.122647 -1.46332e-22)
(0.874223 0.105103 5.86807e-23)
(0.153218 0.304894 1.17196e-21)
(0.330996 0.367765 -1.17768e-22)
(0.469696 0.30718 -9.63872e-22)
(0.560808 0.252922 2.15807e-22)
(0.642226 0.21004 6.50418e-22)
(0.703902 0.176845 8.33781e-22)
(0.757547 0.149697 -6.75176e-23)
(0.800503 0.127842 -3.75758e-22)
(0.838193 0.109354 0)
(0.86833 0.0936207 5.5481e-23)
(0.133215 0.269102 7.99308e-23)
(0.306923 0.323421 0)
(0.450147 0.269649 -2.84564e-23)
(0.545114 0.22185 0)
(0.629585 0.184115 -9.28961e-22)
(0.693516 0.154916 7.02871e-22)
(0.748987 0.131057 0)
(0.793344 0.111865 8.96532e-24)
(0.832069 0.095642 0)
(0.863127 0.0818024 0)
(0.115657 0.23127 1.65428e-22)
(0.285908 0.277099 -1.12905e-21)
(0.433135 0.230673 9.01791e-22)
(0.531463 0.189662 -1.55567e-22)
(0.618597 0.157313 4.02497e-22)
(0.684495 0.132291 1.09173e-22)
(0.741556 0.111859 0)
(0.787127 0.0954353 -3.0723e-22)
(0.826746 0.0815615 -8.21211e-23)
(0.858633 0.0696941 -2.40846e-22)
(0.100729 0.191678 7.05137e-22)
(0.268126 0.229079 -1.67378e-21)
(0.418776 0.190457 1.54795e-22)
(0.519947 0.156514 -6.48429e-22)
(0.609331 0.129759 -7.24401e-23)
(0.676892 0.109069 -7.1836e-22)
(0.735297 0.0921845 0)
(0.781889 0.0786188 4.19151e-22)
(0.822256 0.0671651 -7.59348e-23)
(0.854865 0.0573424 5.48759e-22)
(0.0885916 0.150624 -7.05137e-22)
(0.253722 0.179652 6.13382e-22)
(0.40717 0.149213 -1.06749e-22)
(0.510642 0.12257 7.61223e-22)
(0.601847 0.10158 4.2064e-22)
(0.670753 0.0853517 4.39957e-23)
(0.730245 0.0721141 -3.67341e-23)
(0.777659 0.0614827 -4.69589e-22)
(0.818627 0.0525091 3.86267e-24)
(0.851835 0.044794 -1.82361e-22)
(0.0793738 0.108419 3.68143e-22)
(0.242814 0.12912 0)
(0.398395 0.107162 4.37829e-22)
(0.503608 0.0880004 0)
(0.596191 0.0729109 5.91088e-23)
(0.666116 0.0612457 -4.92172e-23)
(0.726431 0.0517335 0)
(0.774464 0.0440962 0)
(0.815884 0.0376508 0)
(0.849554 0.0320968 0)
(0.0731738 0.0653849 -3.22488e-22)
(0.235492 0.0777919 -1.24523e-22)
(0.392511 0.0645305 -4.3783e-22)
(0.498892 0.0529812 0)
(0.592401 0.0438885 0)
(0.663008 0.0368599 2.2414e-23)
(0.723875 0.0311297 -8.97222e-23)
(0.772323 0.0265299 -1.07463e-22)
(0.814044 0.0226482 -1.01246e-22)
(0.848028 0.0192973 1.63985e-23)
(0.0700572 0.0218506 -5.83433e-24)
(0.231816 0.025984 1.34285e-22)
(0.389559 0.021549 -6.07413e-24)
(0.496527 0.0176905 2.08995e-23)
(0.5905 0.0146532 -8.25943e-24)
(0.66145 0.0123054 0)
(0.722593 0.0103915 7.10078e-23)
(0.771248 0.00885534 1.07463e-22)
(0.813121 0.00755899 7.6826e-23)
(0.847265 0.00643881 1.16017e-23)
(0.0700572 -0.021851 -5.83433e-24)
(0.231816 -0.0259844 1.34285e-22)
(0.389559 -0.0215494 -6.07413e-24)
(0.496527 -0.0176908 2.08995e-23)
(0.5905 -0.0146534 -8.25942e-24)
(0.66145 -0.0123055 0)
(0.722593 -0.0103916 6.25192e-23)
(0.771248 -0.00885536 1.14568e-22)
(0.813121 -0.00755897 8.1722e-23)
(0.847265 -0.00643876 0)
(0.0731738 -0.0653853 -4.13799e-22)
(0.235492 -0.0777924 -1.61434e-22)
(0.392511 -0.0645309 -4.64172e-22)
(0.498892 -0.0529814 2.17901e-23)
(0.592401 -0.0438887 0)
(0.663008 -0.03686 -2.2414e-23)
(0.723875 -0.0311298 -5.22933e-23)
(0.772323 -0.0265299 -1.07463e-22)
(0.814044 -0.0226481 -6.21984e-23)
(0.848029 -0.0192972 -1.63985e-23)
(0.0793739 -0.108419 3.68143e-22)
(0.242814 -0.12912 0)
(0.398395 -0.107162 4.37829e-22)
(0.503608 -0.0880007 0)
(0.596192 -0.0729111 5.91088e-23)
(0.666116 -0.0612458 -4.92172e-23)
(0.726431 -0.0517335 0)
(0.774464 -0.0440962 0)
(0.815884 -0.0376508 0)
(0.849554 -0.0320968 0)
(0.0885917 -0.150624 -7.05137e-22)
(0.253722 -0.179653 4.78982e-22)
(0.40717 -0.149213 1.06749e-22)
(0.510642 -0.12257 5.21237e-22)
(0.601847 -0.10158 5.49286e-22)
(0.670753 -0.0853518 -4.39957e-23)
(0.730246 -0.0721142 3.67341e-23)
(0.77766 -0.0614827 -3.68713e-22)
(0.818627 -0.0525091 -3.86267e-24)
(0.851835 -0.044794 -3.05905e-22)
(0.100729 -0.191678 7.05136e-22)
(0.268126 -0.22908 5.81421e-22)
(0.418776 -0.190457 -1.54795e-22)
(0.519948 -0.156514 -6.34028e-22)
(0.609331 -0.129759 5.38962e-23)
(0.676892 -0.109069 -7.1836e-22)
(0.735297 -0.0921845 0)
(0.781889 -0.0786188 4.1915e-22)
(0.822256 -0.0671651 7.59347e-23)
(0.854865 -0.0573423 4.21198e-22)
(0.115657 -0.23127 -1.65428e-22)
(0.285908 -0.277099 1.12905e-21)
(0.433135 -0.230673 7.05485e-22)
(0.531464 -0.189662 1.55567e-22)
(0.618597 -0.157314 5.0405e-22)
(0.684495 -0.132291 -1.63237e-22)
(0.741556 -0.111859 7.10017e-23)
(0.787127 -0.0954353 -5.0303e-22)
(0.826746 -0.0815615 8.2121e-23)
(0.858633 -0.0696941 -2.40845e-22)
(0.133215 -0.269103 -7.99307e-23)
(0.306923 -0.323421 0)
(0.450147 -0.269649 -2.84565e-23)
(0.545114 -0.221851 0)
(0.629585 -0.184115 -9.28961e-22)
(0.693517 -0.154916 7.0287e-22)
(0.748987 -0.131057 0)
(0.793344 -0.111865 8.96539e-24)
(0.832069 -0.0956419 0)
(0.863127 -0.0818023 0)
(0.153218 -0.304894 1.17196e-21)
(0.330997 -0.367765 1.17767e-22)
(0.469697 -0.30718 -6.78148e-22)
(0.560808 -0.252922 -1.39984e-22)
(0.642226 -0.21004 1.09582e-21)
(0.703902 -0.176845 4.94692e-22)
(0.757547 -0.149697 6.75175e-23)
(0.800503 -0.127842 -4.69453e-22)
(0.838193 -0.109353 7.85947e-23)
(0.86833 -0.0936206 -5.54809e-23)
(0.175454 -0.338385 -1.31208e-21)
(0.357928 -0.409862 8.83495e-22)
(0.491648 -0.343073 8.33102e-23)
(0.578442 -0.282729 -1.45206e-22)
(0.656441 -0.234974 -8.73114e-22)
(0.715591 -0.197986 -7.42584e-22)
(0.76719 -0.167705 6.54186e-23)
(0.808565 -0.143307 -6.83966e-23)
(0.845082 -0.122647 1.46332e-22)
(0.874223 -0.105103 -5.86807e-23)
(0.199699 -0.369347 -1.00426e-21)
(0.387491 -0.449447 -8.80413e-22)
(0.515848 -0.377147 1.16882e-21)
(0.597902 -0.311132 1.38112e-22)
(0.672141 -0.258807 0)
(0.728512 -0.218251 0)
(0.777863 -0.185011 0)
(0.817486 -0.158203 1.4733e-21)
(0.852696 -0.135475 5.55084e-22)
(0.880782 -0.116205 -4.28115e-22)
(0.225714 -0.397577 1.91481e-21)
(0.419432 -0.486268 0)
(0.542122 -0.409239 -2.58717e-21)
(0.619058 -0.338003 -9.82423e-22)
(0.689227 -0.281442 0)
(0.742591 -0.237561 0)
(0.789506 -0.20155 9.06788e-22)
(0.82722 -0.172478 -7.24144e-22)
(0.86099 -0.147796 -5.55082e-22)
(0.887979 -0.126886 4.28116e-22)
(0.253229 -0.422854 -1.01966e-21)
(0.453481 -0.520113 8.95655e-23)
(0.570278 -0.439206 1.25138e-21)
(0.641775 -0.36323 1.09822e-21)
(0.707595 -0.302787 -9.61276e-23)
(0.757746 -0.255842 -1.11976e-21)
(0.802058 -0.217263 -4.09544e-23)
(0.837717 -0.186084 -5.85957e-22)
(0.869921 -0.159572 -5.83075e-22)
(0.895786 -0.137107 3.97836e-22)
(0.28193 -0.444958 -2.41592e-24)
(0.489364 -0.550824 -1.33072e-21)
(0.600116 -0.46692 -1.37341e-22)
(0.665907 -0.38671 -7.48723e-22)
(0.727132 -0.322763 -5.9898e-22)
(0.773889 -0.273029 -2.113e-22)
(0.815452 -0.232095 -8.57713e-22)
(0.848924 -0.198976 7.53151e-22)
(0.879437 -0.170768 3.93092e-22)
(0.904166 -0.146836 -2.96044e-22)
(0.311476 -0.463706 0)
(0.526783 -0.578263 1.09373e-21)
(0.631431 -0.492268 1.2382e-22)
(0.691303 -0.408359 6.72092e-23)
(0.74772 -0.341301 6.78616e-22)
(0.790928 -0.289064 9.33789e-22)
(0.829616 -0.246001 -7.69394e-22)
(0.860786 -0.211114 8.0843e-23)
(0.88949 -0.181354 0)
(0.913081 -0.156041 0)
(0.34151 -0.478963 -6.81111e-23)
(0.565416 -0.602306 9.47482e-22)
(0.664009 -0.515152 0)
(0.717804 -0.428103 1.62884e-22)
(0.769237 -0.358342 -7.73125e-23)
(0.808767 -0.303898 0)
(0.844479 -0.258939 7.76564e-22)
(0.873247 -0.222466 5.70504e-22)
(0.900023 -0.191308 -1.09968e-22)
(0.922485 -0.164702 9.23704e-23)
(0.371657 -0.49063 5.98834e-23)