/*--------------------------------*- C++ -*----------------------------------*\
  =========                 |
  \\      /  F ield         | OpenFOAM: The Open Source CFD Toolbox
   \\    /   O peration     | Website:  https://openfoam.org
    \\  /    A nd           | Version:  9
     \\/     M anipulation  |
\*---------------------------------------------------------------------------*/
FoamFile
{
    format      ascii;
    class       volScalarField;
    location    "8";
    object      p;
}
// * * * * * * * * * * * * * * * * * * * * * * * * * * * * * * * * * * * * * //

dimensions      [0 2 -2 0 0 0 0];

internalField   nonuniform List<scalar> 
8500
(
-0.328579
-0.33666
-0.340915
-0.349646
-0.361255
-0.374833
-0.394285
-0.40971
-0.436009
-0.446957
-0.329221
-0.337122
-0.341383
-0.350074
-0.36175
-0.375207
-0.395098
-0.41006
-0.437498
-0.448015
-0.330468
-0.338014
-0.34228
-0.350879
-0.362682
-0.375865
-0.396611
-0.410596
-0.440201
-0.44987
-0.332252
-0.33928
-0.343536
-0.35197
-0.363941
-0.376647
-0.398604
-0.411049
-0.443621
-0.452056
-0.334479
-0.34084
-0.345053
-0.353221
-0.365373
-0.37736
-0.400765
-0.411113
-0.44712
-0.453988
-0.337038
-0.342605
-0.346717
-0.354495
-0.366793
-0.377814
-0.40273
-0.410517
-0.450054
-0.45499
-0.339811
-0.344481
-0.348414
-0.355653
-0.368005
-0.377852
-0.404131
-0.40908
-0.451868
-0.454492
-0.342686
-0.346383
-0.350038
-0.356576
-0.368825
-0.377375
-0.404642
-0.406818
-0.451874
-0.45244
-0.345559
-0.348238
-0.351497
-0.357176
-0.369093
-0.376388
-0.403836
-0.403934
-0.450285
-0.448201
-0.348348
-0.349994
-0.35272
-0.35742
-0.368635
-0.375036
-0.401821
-0.40018
-0.447398
-0.442131
-0.350992
-0.351618
-0.353652
-0.357374
-0.367456
-0.373122
-0.398853
-0.395768
-0.443271
-0.435144
-0.353456
-0.353102
-0.354303
-0.356959
-0.36574
-0.37071
-0.395019
-0.391123
-0.437775
-0.428268
-0.355735
-0.354453
-0.354719
-0.356219
-0.363594
-0.368
-0.390449
-0.386775
-0.430562
-0.421939
-0.357846
-0.355698
-0.354958
-0.355263
-0.361154
-0.365164
-0.385427
-0.382877
-0.421551
-0.415676
-0.359834
-0.35688
-0.355098
-0.354216
-0.358608
-0.36231
-0.380252
-0.37931
-0.411193
-0.408203
-0.361766
-0.358054
-0.355232
-0.353207
-0.356169
-0.359517
-0.375138
-0.375699
-0.400278
-0.398742
-0.363728
-0.359288
-0.355462
-0.352362
-0.35403
-0.356854
-0.370133
-0.371723
-0.38922
-0.387366
-0.365819
-0.360656
-0.355894
-0.351792
-0.352304
-0.354403
-0.365154
-0.367209
-0.377924
-0.374619
-0.368148
-0.362236
-0.356628
-0.351577
-0.350987
-0.352222
-0.36013
-0.361998
-0.366081
-0.361131
-0.370823
-0.364108
-0.35775
-0.351749
-0.350017
-0.3503
-0.355077
-0.355917
-0.353806
-0.347521
-0.373941
-0.366351
-0.359323
-0.352278
-0.349352
-0.348534
-0.350002
-0.348944
-0.342021
-0.334287
-0.377584
-0.369036
-0.361364
-0.353102
-0.348996
-0.346747
-0.344847
-0.341249
-0.331164
-0.321485
-0.381833
-0.372221
-0.363817
-0.354205
-0.348929
-0.344751
-0.33954
-0.333198
-0.32068
-0.30924
-0.386752
-0.375951
-0.366572
-0.355653
-0.349026
-0.342416
-0.334044
-0.324936
-0.31057
-0.297781
-0.392396
-0.380236
-0.369541
-0.357531
-0.349093
-0.339681
-0.32832
-0.316621
-0.300766
-0.28684
-0.398821
-0.385032
-0.372744
-0.359799
-0.348954
-0.336523
-0.32237
-0.308307
-0.291209
-0.276421
-0.406084
-0.390231
-0.376343
-0.362256
-0.34849
-0.332943
-0.316195
-0.300021
-0.281878
-0.266364
-0.414236
-0.395705
-0.38056
-0.364633
-0.347615
-0.328952
-0.309803
-0.291754
-0.272717
-0.256609
-0.423282
-0.401351
-0.385535
-0.366722
-0.346256
-0.324557
-0.303192
-0.283482
-0.263687
-0.247061
-0.433146
-0.407143
-0.391202
-0.3684
-0.344348
-0.319754
-0.296355
-0.275173
-0.254732
-0.237658
-0.443659
-0.413143
-0.397254
-0.369595
-0.341843
-0.314526
-0.289274
-0.266789
-0.245806
-0.228333
-0.454512
-0.419464
-0.403208
-0.370236
-0.338704
-0.308847
-0.28192
-0.258292
-0.236856
-0.219034
-0.465365
-0.426215
-0.40855
-0.370228
-0.334905
-0.302687
-0.274264
-0.249641
-0.227836
-0.20971
-0.475889
-0.433434
-0.412852
-0.369453
-0.330416
-0.296014
-0.266267
-0.240796
-0.218703
-0.200318
-0.485796
-0.441032
-0.415822
-0.367779
-0.325205
-0.288797
-0.257893
-0.231713
-0.209418
-0.190819
-0.494852
-0.448757
-0.417307
-0.365078
-0.31923
-0.281008
-0.249105
-0.222354
-0.199946
-0.181177
-0.502874
-0.456198
-0.417268
-0.361238
-0.312444
-0.272613
-0.239869
-0.212684
-0.190252
-0.171363
-0.509721
-0.462828
-0.415736
-0.356182
-0.304797
-0.263579
-0.230152
-0.20267
-0.180306
-0.161358
-0.515278
-0.468101
-0.41274
-0.34986
-0.296239
-0.25387
-0.219924
-0.192283
-0.170081
-0.15116
-0.519447
-0.471605
-0.408197
-0.342231
-0.286725
-0.243453
-0.209159
-0.181496
-0.159553
-0.140782
-0.52213
-0.473018
-0.401993
-0.333252
-0.276217
-0.232297
-0.197834
-0.170288
-0.148699
-0.130225
-0.523216
-0.472094
-0.394054
-0.322883
-0.264683
-0.220378
-0.185931
-0.158639
-0.137509
-0.119438
-0.522564
-0.468666
-0.384331
-0.311092
-0.252097
-0.207676
-0.17343
-0.146531
-0.126002
-0.108342
-0.519999
-0.462621
-0.372777
-0.297865
-0.238441
-0.194172
-0.160314
-0.133947
-0.114223
-0.096874
-0.515322
-0.453888
-0.359344
-0.283208
-0.223701
-0.179854
-0.146576
-0.120881
-0.102197
-0.0850646
-0.508312
-0.44242
-0.344001
-0.267122
-0.207863
-0.164724
-0.132231
-0.107376
-0.0898405
-0.0730395
-0.498744
-0.428189
-0.326732
-0.249605
-0.190918
-0.148816
-0.117316
-0.0935355
-0.0770468
-0.0608294
-0.486402
-0.411185
-0.307528
-0.230659
-0.172901
-0.132191
-0.101845
-0.079318
-0.0638608
-0.0484313
-0.471095
-0.391412
-0.286378
-0.21032
-0.153923
-0.114842
-0.0858173
-0.0647181
-0.0503312
-0.0358482
-0.452668
-0.368902
-0.263267
-0.188688
-0.134057
-0.0967326
-0.069268
-0.0497454
-0.0365006
-0.0230946
-0.431015
-0.343733
-0.23822
-0.165888
-0.11326
-0.0779119
-0.0522353
-0.0344238
-0.0224067
-0.0101975
-0.406081
-0.316028
-0.211388
-0.141841
-0.0915893
-0.058437
-0.034761
-0.018786
-0.00808667
0.0028063
-0.377867
-0.2859
-0.182937
-0.11654
-0.0691062
-0.0383726
-0.0168917
-0.00287151
0.00642206
0.0158738
-0.346443
-0.253317
-0.153059
-0.0901042
-0.0458781
-0.0177884
0.00131868
0.0132758
0.0210847
0.0289613
-0.311945
-0.21823
-0.121974
-0.0626769
-0.0219815
0.00324099
0.01981
0.0296107
0.0358716
0.0420258
-0.274529
-0.180936
-0.0896938
-0.0344051
0.00249434
0.0246354
0.0385176
0.0460923
0.050752
0.0549979
-0.234254
-0.141911
-0.0562977
-0.00543355
0.0274474
0.0463095
0.0573763
0.0626874
0.0656727
0.0677045
-0.191252
-0.101636
-0.021929
0.0240956
0.0527653
0.0681729
0.0763243
0.079364
0.0805229
0.0798053
-0.145953
-0.0603001
0.0132265
0.0540381
0.0783272
0.0901322
0.095301
0.0960636
0.0951258
0.0910022
-0.098727
-0.0181116
0.0489597
0.0842427
0.104006
0.112091
0.114238
0.112674
0.109311
0.101609
-0.049966
0.0246857
0.0850474
0.114551
0.129671
0.133952
0.133051
0.129051
0.123017
0.112959
-8.13829e-05
0.0678232
0.121258
0.144797
0.155187
0.155614
0.151642
0.145082
0.136461
0.124842
0.0504998
0.111016
0.157353
0.174809
0.180417
0.176972
0.169915
0.160737
0.149692
0.136776
0.10134
0.153968
0.193095
0.204412
0.205223
0.197915
0.187775
0.17597
0.162658
0.14858
0.151995
0.196378
0.228244
0.233429
0.229466
0.218333
0.205133
0.190734
0.175285
0.160066
0.202022
0.237944
0.262562
0.261682
0.253008
0.238116
0.221902
0.204973
0.187505
0.171138
0.250979
0.278365
0.295817
0.288994
0.275712
0.257154
0.238
0.218625
0.19925
0.181714
0.298435
0.317347
0.327782
0.315194
0.297442
0.275342
0.253344
0.231625
0.210457
0.191734
0.343967
0.354609
0.358237
0.340112
0.318069
0.292576
0.267855
0.243912
0.221064
0.20115
0.387164
0.389891
0.386975
0.363588
0.337467
0.308756
0.281457
0.255423
0.231014
0.209918
0.427649
0.422937
0.413796
0.385467
0.355517
0.323789
0.294076
0.2661
0.240251
0.217999
0.46512
0.453462
0.438513
0.405601
0.372105
0.337586
0.305644
0.275886
0.248724
0.22536
0.499285
0.481205
0.460948
0.423856
0.387128
0.350067
0.316097
0.284729
0.256385
0.231969
0.529854
0.505949
0.480943
0.440109
0.400491
0.361157
0.325377
0.292582
0.26319
0.237802
0.556565
0.527509
0.498354
0.454249
0.412109
0.37079
0.333433
0.299398
0.269099
0.242836
0.579186
0.545724
0.513058
0.466181
0.421907
0.378908
0.340218
0.30514
0.274078
0.247053
0.597523
0.56046
0.524949
0.475825
0.429822
0.385462
0.345693
0.309775
0.278097
0.25044
0.611416
0.571608
0.533942
0.483116
0.435804
0.390413
0.349828
0.313275
0.281133
0.252987
0.620746
0.579086
0.539974
0.488004
0.439813
0.393731
0.352598
0.31562
0.283167
0.254687
0.625431
0.582839
0.543
0.490457
0.441824
0.395394
0.353986
0.316796
0.284187
0.255538
0.625431
0.582839
0.543
0.490457
0.441824
0.395394
0.353986
0.316796
0.284187
0.255538
0.620746
0.579086
0.539974
0.488004
0.439813
0.393731
0.352598
0.31562
0.283167
0.254687
0.611416
0.571608
0.533942
0.483116
0.435804
0.390413
0.349828
0.313275
0.281133
0.252987
0.597523
0.56046
0.524949
0.475825
0.429822
0.385462
0.345693
0.309775
0.278097
0.25044
0.579186
0.545724
0.513058
0.466181
0.421907
0.378908
0.340218
0.30514
0.274078
0.247053
0.556565
0.527509
0.498354
0.454249
0.412109
0.37079
0.333433
0.299398
0.269099
0.242836
0.529854
0.505949
0.480943
0.440109
0.400491
0.361157
0.325377
0.292582
0.26319
0.237802
0.499285
0.481205
0.460948
0.423856
0.387128
0.350067
0.316097
0.284729
0.256385
0.231969
0.46512
0.453462
0.438513
0.405601
0.372105
0.337586
0.305644
0.275886
0.248724
0.22536
0.427649
0.422937
0.413796
0.385467
0.355517
0.323789
0.294076
0.2661
0.240251
0.217999
0.387164
0.389891
0.386975
0.363588
0.337467
0.308756
0.281457
0.255423
0.231014
0.209918
0.343967
0.354609
0.358237
0.340112
0.318069
0.292576
0.267855
0.243912
0.221064
0.20115
0.298435
0.317347
0.327782
0.315194
0.297442
0.275342
0.253344
0.231625
0.210457
0.191734
0.250979
0.278365
0.295817
0.288994
0.275712
0.257154
0.238
0.218625
0.19925
0.181714
0.202022
0.237944
0.262562
0.261682
0.253008
0.238116
0.221902
0.204973
0.187505
0.171138
0.151995
0.196378
0.228244
0.233429
0.229466
0.218333
0.205132
0.190734
0.175285
0.160066
0.10134
0.153968
0.193095
0.204412
0.205223
0.197915
0.187775
0.17597
0.162658
0.14858
0.0504998
0.111016
0.157353
0.174809
0.180417
0.176972
0.169915
0.160737
0.149692
0.136776
-8.13961e-05
0.0678231
0.121258
0.144797
0.155187
0.155614
0.151642
0.145082
0.136461
0.124842
-0.049966
0.0246857
0.0850474
0.114551
0.129671
0.133952
0.133051
0.129051
0.123017
0.112959
-0.098727
-0.0181116
0.0489597
0.0842427
0.104006
0.112091
0.114238
0.112674
0.109311
0.101609
-0.145953
-0.0603001
0.0132265
0.054038
0.0783272
0.0901321
0.095301
0.0960635
0.0951258
0.0910021
-0.191252
-0.101636
-0.021929
0.0240956
0.0527652
0.0681729
0.0763243
0.079364
0.0805228
0.0798052
-0.234254
-0.141911
-0.0562977
-0.00543357
0.0274474
0.0463095
0.0573763
0.0626874
0.0656727
0.0677044
-0.274529
-0.180936
-0.0896938
-0.0344051
0.00249432
0.0246354
0.0385176
0.0460923
0.050752
0.0549979
-0.311945
-0.21823
-0.121974
-0.0626769
-0.0219815
0.00324097
0.01981
0.0296107
0.0358715
0.0420258
-0.346443
-0.253317
-0.153059
-0.0901042
-0.0458781
-0.0177884
0.00131866
0.0132757
0.0210847
0.0289613
-0.377867
-0.2859
-0.182937
-0.11654
-0.0691062
-0.0383726
-0.0168917
-0.00287153
0.00642204
0.0158738
-0.406081
-0.316028
-0.211388
-0.141841
-0.0915893
-0.058437
-0.034761
-0.018786
-0.0080867
0.00280627
-0.431015
-0.343733
-0.23822
-0.165888
-0.11326
-0.0779119
-0.0522354
-0.0344239
-0.0224067
-0.0101975
-0.452668
-0.368902
-0.263267
-0.188688
-0.134057
-0.0967327
-0.069268
-0.0497454
-0.0365006
-0.0230946
-0.471095
-0.391412
-0.286379
-0.21032
-0.153923
-0.114842
-0.0858173
-0.0647181
-0.0503312
-0.0358482
-0.486402
-0.411185
-0.307528
-0.230659
-0.172901
-0.132191
-0.101845
-0.0793181
-0.0638608
-0.0484313
-0.498744
-0.428189
-0.326732
-0.249605
-0.190918
-0.148816
-0.117316
-0.0935355
-0.0770468
-0.0608294
-0.508312
-0.44242
-0.344001
-0.267122
-0.207863
-0.164724
-0.132231
-0.107376
-0.0898406
-0.0730395
-0.515322
-0.453888
-0.359344
-0.283208
-0.223701
-0.179854
-0.146576
-0.120881
-0.102197
-0.0850646
-0.519999
-0.462621
-0.372777
-0.297865
-0.238441
-0.194172
-0.160314
-0.133947
-0.114223
-0.0968741
-0.522564
-0.468666
-0.384331
-0.311092
-0.252097
-0.207676
-0.17343
-0.146531
-0.126002
-0.108342
-0.523216
-0.472094
-0.394054
-0.322883
-0.264683
-0.220378
-0.185931
-0.158639
-0.137509
-0.119438
-0.52213
-0.473018
-0.401993
-0.333252
-0.276217
-0.232297
-0.197834
-0.170288
-0.148699
-0.130225
-0.519447
-0.471605
-0.408197
-0.342231
-0.286725
-0.243453
-0.209159
-0.181496
-0.159553
-0.140782
-0.515278
-0.468101
-0.41274
-0.34986
-0.296239
-0.25387
-0.219924
-0.192283
-0.170081
-0.15116
-0.509721
-0.462828
-0.415736
-0.356182
-0.304797
-0.263579
-0.230152
-0.20267
-0.180306
-0.161358
-0.502874
-0.456198
-0.417268
-0.361238
-0.312444
-0.272613
-0.239869
-0.212684
-0.190252
-0.171363
-0.494852
-0.448757
-0.417307
-0.365078
-0.31923
-0.281008
-0.249105
-0.222354
-0.199946
-0.181177
-0.485796
-0.441032
-0.415822
-0.367779
-0.325205
-0.288797
-0.257893
-0.231713
-0.209418
-0.190819
-0.475889
-0.433434
-0.412852
-0.369453
-0.330416
-0.296014
-0.266267
-0.240796
-0.218703
-0.200318
-0.465365
-0.426215
-0.40855
-0.370228
-0.334905
-0.302687
-0.274264
-0.249641
-0.227836
-0.20971
-0.454512
-0.419464
-0.403208
-0.370236
-0.338705
-0.308847
-0.28192
-0.258292
-0.236856
-0.219034
-0.443659
-0.413143
-0.397254
-0.369595
-0.341843
-0.314526
-0.289274
-0.266789
-0.245806
-0.228333
-0.433146
-0.407143
-0.391202
-0.3684
-0.344348
-0.319754
-0.296355
-0.275173
-0.254732
-0.237658
-0.423282
-0.401351
-0.385535
-0.366722
-0.346256
-0.324557
-0.303192
-0.283482
-0.263687
-0.247061
-0.414236
-0.395705
-0.38056
-0.364633
-0.347615
-0.328952
-0.309803
-0.291754
-0.272717
-0.256609
-0.406084
-0.390231
-0.376344
-0.362256
-0.34849
-0.332943
-0.316195
-0.300021
-0.281878
-0.266364
-0.398821
-0.385032
-0.372744
-0.359799
-0.348954
-0.336523
-0.32237
-0.308307
-0.291209
-0.276422
-0.392396
-0.380236
-0.369541
-0.357531
-0.349093
-0.339681
-0.32832
-0.316621
-0.300766
-0.28684
-0.386752
-0.375951
-0.366572
-0.355653
-0.349026
-0.342416
-0.334044
-0.324936
-0.31057
-0.297781
-0.381833
-0.372221
-0.363817
-0.354205
-0.348929
-0.344751
-0.33954
-0.333198
-0.32068
-0.30924
-0.377584
-0.369036
-0.361364
-0.353102
-0.348996
-0.346747
-0.344847
-0.341249
-0.331164
-0.321485
-0.373941
-0.366351
-0.359323
-0.352278
-0.349352
-0.348534
-0.350002
-0.348944
-0.342021
-0.334287
-0.370823
-0.364108
-0.35775
-0.351749
-0.350017
-0.3503
-0.355077
-0.355917
-0.353806
-0.347521
-0.368148
-0.362236
-0.356628
-0.351577
-0.350987
-0.352222
-0.36013
-0.361998
-0.366081
-0.361131
-0.365819
-0.360656
-0.355894
-0.351792
-0.352304
-0.354403
-0.365154
-0.367209
-0.377924
-0.374619
-0.363728
-0.359288
-0.355462
-0.352362
-0.35403
-0.356854
-0.370133
-0.371723
-0.38922
-0.387366
-0.361766
-0.358054
-0.355232
-0.353207
-0.356169
-0.359517
-0.375138
-0.375699
-0.400278
-0.398742
-0.359834
-0.35688
-0.355098
-0.354216
-0.358608
-0.36231
-0.380252
-0.37931
-0.411193
-0.408203
-0.357846
-0.355698
-0.354958
-0.355263
-0.361154
-0.365164
-0.385427
-0.382877
-0.421551
-0.415676
-0.355735
-0.354453
-0.354719
-0.356219
-0.363594
-0.368
-0.390449
-0.386775
-0.430562
-0.421939
-0.353456
-0.353102
-0.354303
-0.356959
-0.36574
-0.37071
-0.395019
-0.391123
-0.437775
-0.428268
-0.350992
-0.351618
-0.353652
-0.357374
-0.367456
-0.373122
-0.398853
-0.395768
-0.443271
-0.435144
-0.348348
-0.349994
-0.35272
-0.35742
-0.368635
-0.375036
-0.401821
-0.40018
-0.447398
-0.442131
-0.345559
-0.348238
-0.351497
-0.357176
-0.369093
-0.376388
-0.403836
-0.403934
-0.450285
-0.448201
-0.342686
-0.346383
-0.350038
-0.356576
-0.368825
-0.377375
-0.404642
-0.406818
-0.451874
-0.45244
-0.339811
-0.344481
-0.348414
-0.355653
-0.368005
-0.377852
-0.404131
-0.40908
-0.451868
-0.454492
-0.337038
-0.342605
-0.346717
-0.354495
-0.366793
-0.377814
-0.40273
-0.410517
-0.450054
-0.45499
-0.334479
-0.34084
-0.345053
-0.353221
-0.365373
-0.37736
-0.400765
-0.411113
-0.44712
-0.453988
-0.332252
-0.33928
-0.343536
-0.35197
-0.363941
-0.376647
-0.398604
-0.411049
-0.443621
-0.452056
-0.330468
-0.338014
-0.34228
-0.350879
-0.362682
-0.375865
-0.396611
-0.410596
-0.440201
-0.44987
-0.329221
-0.337122
-0.341383
-0.350074
-0.36175
-0.375207
-0.395098
-0.41006
-0.437498
-0.448015
-0.328579
-0.33666
-0.340915
-0.349646
-0.361255
-0.374833
-0.394285
-0.40971
-0.436009
-0.446957
-0.474942
-0.459085
-0.417914
-0.331401
-0.22015
-0.106458
-0.023624
0.0292674
0.0507325
0.0562609
0.0518879
0.0440346
0.0355544
0.0278644
0.0214832
0.0164128
0.0124072
0.00919685
0.00661809
0.00460245
0.00309895
0.00203184
0.00129951
0.00081857
0.000503679
0.000303305
0.000177083
9.93146e-05
4.88607e-05
1.57155e-05
-0.477267
-0.462003
-0.421074
-0.334926
-0.223324
-0.108847
-0.0253489
0.0281041
0.0499484
0.0557135
0.0515204
0.0437829
0.0353809
0.0277417
0.0213945
0.0163487
0.0123626
0.00916754
0.00660001
0.00459184
0.00309288
0.00202836
0.00129758
0.000817369
0.000502962
0.000302874
0.000176828
9.91688e-05
4.87878e-05
1.56912e-05
-0.481372
-0.467221
-0.426866
-0.341462
-0.229309
-0.113486
-0.0287302
0.0257538
0.0483608
0.0546032
0.0507761
0.0432755
0.0350329
0.0274976
0.021219
0.0162226
0.0122747
0.00910966
0.00656418
0.00457075
0.00308081
0.00202141
0.00129373
0.000814969
0.00050153
0.000302014
0.000176318
9.88774e-05
4.86424e-05
1.56415e-05
-0.486298
-0.47361
-0.434489
-0.350088
-0.237592
-0.120024
-0.0336904
0.0222222
0.0459434
0.0529083
0.0496405
0.0425061
0.0345099
0.0271345
0.0209606
0.0160377
0.0121459
0.00902455
0.00651125
0.00453945
0.00306282
0.00201104
0.00128797
0.000811373
0.000499383
0.000300724
0.000175554
9.84406e-05
4.84243e-05
1.5567e-05
-0.490892
-0.480082
-0.442779
-0.359932
-0.247367
-0.128175
-0.0400578
0.0175204
0.0426837
0.0506147
0.0480977
0.0414711
0.0338126
0.0266561
0.020624
0.0157985
0.0119794
0.00891404
0.0064421
0.00449832
0.00303907
0.0019973
0.00128034
0.000806589
0.000496524
0.000299007
0.000174536
9.78587e-05
4.81338e-05
1.54679e-05
-0.494298
-0.485484
-0.45091
-0.369818
-0.257865
-0.13761
-0.0476556
0.0117222
0.0385675
0.0477251
0.0461476
0.0401721
0.0329442
0.0260671
0.0202147
0.01551
0.0117787
0.00878022
0.00635778
0.00444781
0.00300974
0.00198026
0.00127086
0.000800622
0.000492958
0.000296863
0.000173266
9.71324e-05
4.7771e-05
1.53444e-05
-0.495681
-0.489219
-0.457647
-0.379207
-0.268649
-0.147855
-0.0562667
0.00492532
0.0336485
0.0442581
0.0438033
0.0386171
0.0319112
0.0253737
0.0197384
0.0151769
0.0115474
0.00862528
0.00625943
0.00438845
0.00297504
0.00196001
0.0012596
0.000793482
0.000488688
0.000294295
0.000171743
9.6262e-05
4.73362e-05
1.51967e-05
-0.494349
-0.490922
-0.462593
-0.387394
-0.279028
-0.158547
-0.0656552
-0.00273936
0.0280136
0.0402535
0.0410896
0.0368211
0.0307238
0.024583
0.0192007
0.0148038
0.0112887
0.00845134
0.00614821
0.00432079
0.00293521
0.00193666
0.00124648
0.000785172
0.000483718
0.000291304
0.00016997
9.52484e-05
4.68297e-05
1.50251e-05
-0.490405
-0.490355
-0.465263
-0.393955
-0.288601
-0.169324
-0.0755808
-0.0111033
0.0217569
0.0357714
0.0380427
0.0348056
0.0293948
0.0237031
0.0186072
0.0143948
0.0110057
0.00826039
0.00602527
0.00424539
0.00289048
0.0019103
0.00123203
0.000775704
0.000478055
0.000287894
0.000167948
9.40924e-05
4.62519e-05
1.483e-05
-0.483795
-0.487348
-0.465488
-0.398567
-0.297017
-0.179877
-0.0858106
-0.0199933
0.0149916
0.030884
0.0347049
0.0325947
0.0279387
0.0227423
0.017963
0.0139535
0.010701
0.00805422
0.00589167
0.00416279
0.00284111
0.00188107
0.00121941
0.000765061
0.000471701
0.000284066
0.000165678
9.27948e-05
4.56031e-05
1.46118e-05
-0.474502
-0.482217
-0.463356
-0.400896
-0.304022
-0.189948
-0.0961317
-0.0292359
0.00783442
0.025667
0.0311207
0.0302139
0.0263705
0.0217092
0.0172731
0.013483
0.0103768
0.00783439
0.00574837
0.00407351
0.00278732
0.00184903
0.00119732
0.00075325
0.000464663
0.000279824
0.000163162
9.13568e-05
4.48838e-05
1.43708e-05
-0.463057
-0.474865
-0.458746
-0.40111
-0.309397
-0.199334
-0.106359
-0.0386694
0.000398456
0.020194
0.0273315
0.0276871
0.0247043
0.0206116
0.0165419
0.012986
0.010035
0.00760224
0.00559624
0.00397803
0.00272933
0.00181421
0.00117429
0.000740404
0.000456945
0.00027517
0.000160403
8.97795e-05
4.40946e-05
1.41077e-05
-0.45006
-0.465375
-0.451939
-0.399273
-0.313035
-0.207855
-0.116339
-0.0481514
-0.00721311
0.0145343
0.0233804
0.0250348
0.0229529
0.0194568
0.0157733
0.012465
0.00967726
0.00735892
0.00543604
0.00387677
0.00266737
0.00177674
0.00115146
0.00072658
0.000448551
0.000270108
0.000157401
8.80641e-05
4.32359e-05
1.38228e-05
-0.436141
-0.453798
-0.44303
-0.395429
-0.315145
-0.215376
-0.125942
-0.0575623
-0.0149113
0.00874856
0.0193168
0.0222744
0.0211272
0.0182508
0.0149708
0.0119218
0.00930486
0.00710538
0.00526841
0.00377013
0.00260163
0.00173674
0.00112688
0.000711743
0.000439482
0.000264641
0.00015416
8.62119e-05
4.23085e-05
1.35169e-05
-0.421936
-0.440492
-0.43247
-0.390031
-0.315855
-0.221873
-0.135078
-0.0668094
-0.0226233
0.00288501
0.0151527
0.0194225
0.0192358
0.016999
0.0141372
0.0113583
0.00891892
0.00684242
0.00509391
0.00365845
0.00253229
0.00169432
0.00110069
0.000696133
0.000429748
0.000258769
0.00015068
8.4224e-05
4.13129e-05
1.31905e-05
-0.407608
-0.425759
-0.420321
-0.383119
-0.315366
-0.22729
-0.143662
-0.0758169
-0.0302886
-0.00301948
0.0109067
0.0164951
0.0172838
0.0157047
0.0132749
0.0107757
0.00852035
0.00657069
0.004913
0.00354202
0.00245953
0.00164954
0.00107314
0.000679814
0.000419309
0.000252499
0.000146965
8.21025e-05
4.02501e-05
1.28442e-05
-0.39346
-0.410834
-0.407821
-0.375605
-0.314047
-0.231866
-0.151642
-0.0845391
-0.0378792
-0.00894722
0.00660395
0.0135132
0.0152826
0.0143709
0.0123845
0.0101745
0.00810945
0.00629049
0.00472594
0.00342101
0.00238344
0.00160244
0.00104423
0.000662209
0.000408175
0.000245827
0.000143019
7.98503e-05
3.91215e-05
1.2479e-05
-0.38019
-0.394549
-0.393758
-0.36669
-0.311688
-0.235719
-0.159056
-0.0929636
-0.0453387
-0.0148278
0.00229423
0.0104761
0.0132479
0.0130137
0.0114742
0.00955853
0.0076886
0.0060035
0.00453402
0.0032964
0.00230469
0.00155346
0.00101394
0.000642624
0.000396494
0.000238686
0.000138817
7.74632e-05
3.79271e-05
1.20957e-05
-0.367924
-0.381608
-0.381914
-0.358908
-0.309288
-0.238565
-0.165539
-0.100723
-0.0524861
-0.0206546
-0.00209676
0.00732145
0.0110768
0.011601
0.0105399
0.00892918
0.00725883
0.00570981
0.00433662
0.00316731
0.00222249
0.00150203
0.000982011
0.000623141
0.000385172
0.000231145
0.0001343
7.49168e-05
3.66573e-05
1.16929e-05
-0.356609
-0.363866
-0.366052
-0.348445
-0.306124
-0.242403
-0.173162
-0.109829
-0.0607672
-0.0271979
-0.00681756
0.00408791
0.00884715
0.0100545
0.00950521
0.00823585
0.00678887
0.00538952
0.00412051
0.00302473
0.00213074
0.00144417
0.000946012
0.000600966
0.000371122
0.000223458
0.000129747
7.22271e-05
3.53062e-05
1.12683e-05
-0.347969
-0.356797
-0.356794
-0.339884
-0.29953
-0.238787
-0.172445
-0.111245
-0.0632761
-0.0299934
-0.00939389
0.00194721
0.0072376
0.00890119
0.00867855
0.00764783
0.00637906
0.00511359
0.00394245
0.00291411
0.00206332
0.00140278
0.000919959
0.000584159
0.000360235
0.00021629
0.000125424
6.97432e-05
3.40379e-05
1.08645e-05
-0.336358
-0.34158
-0.341576
-0.325612
-0.287953
-0.231519
-0.169411
-0.111547
-0.0654333
-0.0328207
-0.0121562
-0.000405072
0.00537832
0.00750124
0.00765734
0.00691722
0.00586147
0.00475058
0.00369238
0.00274639
0.00195418
0.0013337
0.000877225
0.000558214
0.00034477
0.000207155
0.000120211
6.68817e-05
3.26497e-05
1.04299e-05
-0.324595
-0.329297
-0.327462
-0.312124
-0.277021
-0.224591
-0.166449
-0.111749
-0.0674696
-0.0355855
-0.0149202
-0.0028124
0.00343764
0.00601734
0.00656189
0.00612472
0.00529407
0.00434841
0.00341238
0.00255666
0.00182962
0.00125438
0.000828006
0.000528353
0.000327006
0.0001968
0.000114327
6.36674e-05
3.11003e-05
9.94661e-06
-0.312674
-0.316057
-0.313468
-0.298899
-0.266301
-0.217714
-0.163416
-0.111818
-0.0693874
-0.0382739
-0.0176572
-0.00523001
0.00147022
0.00450205
0.00543546
0.0053049
0.00470479
0.00393002
0.00312097
0.00235913
0.00169976
0.00117146
0.000776358
0.000496872
0.000308184
0.000185773
0.000108041
6.02252e-05
2.94368e-05
9.42735e-06
-0.300399
-0.303048
-0.299688
-0.28588
-0.255721
-0.210833
-0.160267
-0.111721
-0.0711653
-0.0408766
-0.0203641
-0.00765616
-0.000525854
0.00295062
0.00427327
0.00445399
0.00409066
0.00349285
0.00281586
0.00215181
0.00156305
0.00108387
0.00072161
0.000463392
0.00028811
0.000173977
0.000101305
5.65327e-05
2.765e-05
8.86916e-06
-0.287947
-0.290157
-0.286197
-0.273138
-0.245338
-0.203988
-0.157021
-0.11146
-0.0727939
-0.043382
-0.0230309
-0.0100848
-0.00254926
0.00136137
0.00307245
0.00356885
0.00344863
0.00303408
0.00249457
0.00193272
0.00141803
0.000990603
0.000663112
0.000427522
0.000266562
0.000161297
9.40603e-05
5.25588e-05
2.57262e-05
8.26801e-06
-0.275445
-0.277425
-0.273048
-0.260724
-0.23519
-0.197205
-0.153692
-0.111035
-0.0742656
-0.0457782
-0.0256452
-0.0125064
-0.00459354
-0.000261875
0.00183489
0.00265006
0.00277857
0.00255331
0.00215668
0.00170147
0.00126437
0.000891403
0.000600685
0.000389138
0.000243458
0.000147685
8.62749e-05
4.82861e-05
2.36569e-05
7.62152e-06
-0.26296
-0.2649
-0.26027
-0.248666
-0.225296
-0.190501
-0.150289
-0.11045
-0.0755738
-0.0480547
-0.0281954
-0.0149109
-0.00665131
-0.00191429
0.000563359
0.00169903
0.00208109
0.00205073
0.00180218
0.00145798
0.00110197
0.000786164
0.000534233
0.000348164
0.000218743
0.000133103
7.79257e-05
4.37012e-05
2.14352e-05
6.92774e-06
-0.250566
-0.252609
-0.24788
-0.236986
-0.215668
-0.183891
-0.146824
-0.109706
-0.0767136
-0.0502017
-0.0306705
-0.0172884
-0.0087151
-0.0035909
-0.000739213
0.000717256
0.00135682
0.00152651
0.00143103
0.00120211
0.000930662
0.00067474
0.00046364
0.000304513
0.000192357
0.000117512
6.89889e-05
3.87905e-05
1.90544e-05
6.18477e-06
-0.238335
-0.240582
-0.235891
-0.225702
-0.20632
-0.177388
-0.143307
-0.10881
-0.0776817
-0.0522109
-0.0330597
-0.0196288
-0.0107771
-0.00528633
-0.0020695
-0.000293418
0.00060666
0.000980997
0.00104326
0.000933781
0.000750326
0.000557007
0.000388799
0.000258105
0.000164245
0.000100875
5.94424e-05
3.35413e-05
1.65081e-05
5.3909e-06
-0.226332
-0.228848
-0.224318
-0.21483
-0.197264
-0.171004
-0.139752
-0.107768
-0.0784767
-0.054075
-0.0353531
-0.0219223
-0.012829
-0.00699461
-0.00342362
-0.00133068
-0.000168159
0.000414776
0.000639132
0.000653041
0.000560923
0.000432894
0.000309639
0.000208882
0.000134362
8.31629e-05
4.92679e-05
2.7943e-05
1.3791e-05
4.54479e-06
-0.214619
-0.217435
-0.213169
-0.204382
-0.188509
-0.164752
-0.13617
-0.106588
-0.0790988
-0.0557882
-0.0375413
-0.0241589
-0.0148623
-0.00870924
-0.0047971
-0.00239172
-0.000965976
-0.000171242
0.000219085
0.000360093
0.000362519
0.000302401
0.000226135
0.000156811
0.000102683
6.43569e-05
3.84526e-05
2.19881e-05
1.08992e-05
3.64557e-06
-0.203249
-0.206371
-0.202454
-0.194367
-0.180065
-0.158643
-0.132575
-0.10528
-0.0795505
-0.0573459
-0.039616
-0.0263286
-0.016868
-0.0104231
-0.00618486
-0.00347314
-0.00178468
-0.000775806
-0.000216166
5.53176e-05
0.000155304
0.000165608
0.000138311
0.000101894
6.91999e-05
4.44487e-05
2.69901e-05
1.56726e-05
7.83052e-06
2.69296e-06
-0.192272
-0.195681
-0.192179
-0.184792
-0.171942
-0.152686
-0.128979
-0.103856
-0.079836
-0.0587451
-0.0415696
-0.0284222
-0.0188369
-0.0121287
-0.0075812
-0.00457099
-0.00262167
-0.00139727
-0.000665616
-0.000260691
-6.03856e-05
2.26982e-05
4.62593e-05
4.41741e-05
3.39311e-05
2.34452e-05
1.48826e-05
8.99709e-06
4.58511e-06
1.68742e-06
-0.181727
-0.18539
-0.182352
-0.175661
-0.16415
-0.146896
-0.125399
-0.10233
-0.0799617
-0.0599843
-0.0433958
-0.0304304
-0.0207598
-0.0138178
-0.00897977
-0.00568065
-0.00347377
-0.00203354
-0.00112792
-0.000587088
-0.000284036
-0.000126028
-4.98491e-05
-1.62565e-05
-3.0743e-06
1.3719e-06
2.14326e-06
1.96832e-06
1.16596e-06
6.30338e-07
-0.17165
-0.175524
-0.172979
-0.16698
-0.156699
-0.141284
-0.121848
-0.100715
-0.079936
-0.0610642
-0.0450894
-0.0323449
-0.0226273
-0.0154818
-0.0103736
-0.00679685
-0.00433721
-0.00268203
-0.00160135
-0.000922745
-0.000514926
-0.000280126
-0.000149749
-7.92434e-05
-4.17291e-05
-2.17228e-05
-1.12019e-05
-5.3998e-06
-2.42035e-06
-4.75795e-07
-0.162071
-0.166108
-0.16407
-0.158752
-0.1496
-0.135866
-0.118344
-0.0990297
-0.0797694
-0.061987
-0.0466466
-0.0341578
-0.0244298
-0.0171118
-0.0117549
-0.00791358
-0.00520757
-0.00333959
-0.00208373
-0.0012662
-0.000752099
-0.000438985
-0.000253063
-0.00014456
-8.19009e-05
-4.57633e-05
-2.51108e-05
-1.30845e-05
-6.16291e-06
-1.62716e-06
-0.153016
-0.157167
-0.155636
-0.150981
-0.142866
-0.130658
-0.114904
-0.0972909
-0.0794747
-0.0627572
-0.048065
-0.0358621
-0.0261584
-0.0186985
-0.0131156
-0.00902414
-0.0060797
-0.00400246
-0.00257239
-0.00161561
-0.00099432
-0.0006018
-0.000359282
-0.000211894
-0.000123403
-7.06408e-05
-3.95219e-05
-2.10521e-05
-1.00455e-05
-2.81836e-06
-0.144508
-0.148726
-0.147689
-0.143673
-0.136509
-0.125679
-0.111549
-0.0955183
-0.0790663
-0.0633814
-0.0493434
-0.0374518
-0.027804
-0.0202321
-0.0144467
-0.010121
-0.00694772
-0.00466622
-0.00306414
-0.00196872
-0.00124004
-0.000767546
-0.000467747
-0.000280833
-0.000165986
-9.62082e-05
-5.43514e-05
-2.92567e-05
-1.40459e-05
-4.04218e-06
-0.136567
-0.140807
-0.140241
-0.136833
-0.130539
-0.120949
-0.108299
-0.0937327
-0.0785611
-0.0638683
-0.0504824
-0.0389219
-0.029358
-0.0217027
-0.0157387
-0.011196
-0.00780494
-0.00532572
-0.00355515
-0.00232281
-0.00148738
-0.000934947
-0.000577626
-0.000350853
-0.000209328
-0.000122274
-6.94887e-05
-3.76372e-05
-1.81342e-05
-5.28923e-06
-0.129212
-0.133432
-0.133308
-0.130472
-0.12497
-0.116489
-0.105178
-0.0919564
-0.0779776
-0.0642286
-0.0514843
-0.0402685
-0.0308125
-0.0231005
-0.0169815
-0.01224
-0.00864383
-0.00597503
-0.00404096
-0.00267461
-0.00173402
-0.00110244
-0.000687889
-0.000421294
-0.000253022
-0.000148593
-8.47927e-05
-4.61154e-05
-2.22724e-05
-6.54771e-06
-0.122459
-0.126623
-0.126905
-0.124602
-0.119818
-0.112321
-0.102209
-0.0902133
-0.0773359
-0.064475
-0.0523528
-0.0414888
-0.0321598
-0.0244151
-0.0181643
-0.0132431
-0.00945594
-0.00660739
-0.00451639
-0.0030203
-0.00197726
-0.00126815
-0.000797287
-0.000491355
-0.000296567
-0.000174864
-0.000100087
-5.45938e-05
-2.64126e-05
-7.80302e-06
-0.116324