/*--------------------------------*- C++ -*----------------------------------*\
  =========                 |
  \\      /  F ield         | OpenFOAM: The Open Source CFD Toolbox
   \\    /   O peration     | Website:  https://openfoam.org
    \\  /    A nd           | Version:  9
     \\/     M anipulation  |
\*---------------------------------------------------------------------------*/
FoamFile
{
    format      ascii;
    class       surfaceScalarField;
    location    "8";
    object      phi;
}
// * * * * * * * * * * * * * * * * * * * * * * * * * * * * * * * * * * * * * //

dimensions      [0 3 -1 0 0 0 0];

internalField   nonuniform List<scalar> 
16735
(
-0.00606779
0.00606779
1.98652e-10
-0.0177363
0.0116685
6.40648e-10
-0.0334368
0.0157005
1.10289e-09
-0.0524872
0.0190503
1.61182e-09
-0.0752962
0.022809
2.25944e-09
-0.101681
0.0263843
3.01719e-09
-0.133259
0.0315781
3.85732e-09
-0.16676
0.0335012
4.61538e-09
-0.207369
0.040609
5.14982e-09
0.0374951
5.27346e-09
-0.244864
-0.00586058
0.0119284
-0.0171831
0.0229911
-0.032398
0.0309154
-0.0507566
0.0374089
-0.0725834
0.0446357
-0.0975141
0.0513151
-0.127124
0.0611881
-0.157746
0.0641232
-0.194661
0.0775241
0.0698242
-0.22699
-0.00545873
0.0173871
-0.0161063
0.0336386
-0.0303732
0.0451823
-0.0473859
0.0544216
-0.0673058
0.0645557
-0.0894472
0.0734564
-0.115266
0.0870071
-0.140468
0.0893254
-0.170458
0.107514
0.0926945
-0.193329
-0.00488651
0.0222736
-0.0145633
0.0433154
-0.0274647
0.0580838
-0.0425494
0.0695063
-0.0597456
0.0817519
-0.0779796
0.0916904
-0.0984469
0.107474
-0.116264
0.107143
-0.136881
0.128131
0.103279
-0.147465
-0.00417828
0.0264519
-0.012636
0.0517731
-0.0238182
0.069266
-0.0364939
0.082182
-0.0502945
0.0955526
-0.0637923
0.105188
-0.0776847
0.121367
-0.0868281
0.116286
-0.0964938
0.137796
0.100408
-0.0936233
-0.00337619
0.0298281
-0.0104258
0.0588227
-0.0196147
0.0784549
-0.0295214
0.0920887
-0.039425
0.105456
-0.047687
0.11345
-0.0541555
0.127835
-0.0540273
0.116158
-0.0518521
0.135621
0.0844084
-0.0358522
-0.00252736
0.0323554
-0.00804745
0.0643428
-0.0150551
0.0854626
-0.0219697
0.0990033
-0.0276569
0.111143
-0.0305251
0.116318
-0.0290916
0.126402
-0.0198582
0.106924
-0.00505058
0.120814
0.0561714
0.0231864
-0.00168068
0.0340361
-0.00562244
0.0682845
-0.0103512
0.0901913
-0.0141915
0.102844
-0.01552
0.112472
-0.0131779
0.113976
-0.0035348
0.116759
0.0142368
0.0891528
0.0399444
0.095106
0.014186
0.0819298
-0.000883623
0.0349197
-0.00327126
0.0706721
-0.00571683
0.0926369
-0.00653667
0.103663
-0.00348817
0.109423
0.00364782
0.10684
0.0204128
0.0999938
0.046887
0.0626786
0.0826037
0.0593893
-0.0413073
0.138097
-0.000179138
0.0350989
-0.00110564
0.0715987
-0.00134621
0.0928775
0.000659476
0.101658
0.00771201
0.102371
0.0198222
0.0947299
0.0429396
0.0768764
0.0763215
0.0292967
0.12183
0.013881
-0.110884
0.191406
0.000398475
0.0347004
0.000777223
0.0712199
0.00254035
0.0911144
0.007343
0.0968551
0.0179057
0.0918081
0.0343963
0.0782394
0.063654
0.0476187
0.102807
-0.00985621
0.158523
-0.0418354
-0.195088
0.242728
0.000823707
0.0338767
0.00230971
0.0697339
0.00583601
0.0875881
0.013109
0.0895821
0.026948
0.0779691
0.0475164
0.057671
0.0826569
0.0124782
0.127877
-0.0550766
0.195354
-0.109312
-0.293056
0.293321
0.00108542
0.0327913
0.00345109
0.0673682
0.00848487
0.0825543
0.0179429
0.080124
0.0348183
0.0610938
0.0597155
0.0327738
0.100775
-0.0285813
0.154072
-0.108374
0.235058
-0.190298
-0.400972
0.342974
0.00118551
0.0316058
0.00420137
0.0643524
0.0104952
0.0762605
0.0219474
0.0686718
0.0418014
0.0412398
0.0719228
0.00265232
0.119569
-0.0762273
0.183802
-0.172607
0.278248
-0.284744
-0.511972
0.389248
0.00113999
0.0304658
0.00460224
0.0608901
0.0119715
0.0688912
0.0254058
0.0552376
0.0485386
0.0181069
0.0852993
-0.0341083
0.140964
-0.131892
0.217756
-0.249399
0.322142
-0.38913
-0.618406
0.428576
0.000978315
0.0294875
0.0047379
0.0571305
0.0131163
0.0605128
0.0287895
0.0395644
0.0560151
-0.00911868
0.101003
-0.0790961
0.166232
-0.197121
0.254169
-0.337337
0.361681
-0.496641
-0.714676
0.457951
0.000741518
0.028746
0.00473058
0.0531415
0.0142193
0.051024
0.0327208
0.0210629
0.0653805
-0.0417784
0.119855
-0.133571
0.194867
-0.272133
0.289387
-0.431856
0.392363
-0.599618
-0.798511
0.476198
0.000478881
0.0282671
0.00473105
0.0488893
0.0156322
0.0401228
0.0378839
-0.00118875
0.0775909
-0.0814854
0.141848
-0.197828
0.224468
-0.354753
0.31944
-0.526828
0.412231
-0.692408
-0.870171
0.48389
0.000243267
0.0280238
0.00490357
0.044229
0.0177307
0.0272957
0.0448983
-0.0283564
0.0929831
-0.12957
0.165777
-0.270622
0.251858
-0.440833
0.34167
-0.61664
0.421691
-0.772429
-0.93136
0.48288
8.49901e-05
0.0279388
0.00540827
0.0389057
0.0208718
0.0118321
0.0541685
-0.0616531
0.111013
-0.186415
0.189478
-0.349087
0.274427
-0.525782
0.355307
-0.69752
0.422439
-0.839561
-0.984346
0.475425
4.18056e-05
0.027897
0.0063843
0.0325632
0.0253482
-0.00713181
0.0657279
-0.102033
0.130337
-0.251024
0.210661
-0.429411
0.290731
-0.605852
0.361312
-0.768101
0.418411
-0.89666
-1.03024
0.464301
0.000135889
0.0277611
0.00794096
0.0247582
0.0313344
-0.0305252
0.0791384
-0.149837
0.149205
-0.32109
0.227695
-0.507902
0.300521
-0.678678
0.361048
-0.828628
0.410961
-0.946574
-1.06973
0.450457
0.000389609
0.0273715
0.0101585
0.0149892
0.0388252
-0.0591919
0.0935313
-0.204543
0.166013
-0.393572
0.239868
-0.581756
0.304469
-0.74328
0.356404
-0.880562
0.39907
-0.98924
-1.10351
0.432843
0.000809359
0.0265622
0.0130893
0.00270926
0.047592
-0.0936945
0.107804
-0.264755
0.179668
-0.465435
0.247212
-0.649301
0.303652
-0.799719
0.348042
-0.924952
0.384995
-1.02619
-1.13398
0.415466
0.00139263
0.0251695
0.0167496
-0.0126477
0.0572002
-0.134145
0.120881
-0.328436
0.189675
-0.53423
0.250195
-0.709821
0.299
-0.848525
0.337107
-0.963059
0.369397
-1.05848
-1.16119
0.396608
0.00213927
0.0230303
0.0210969
-0.0316053
0.0670878
-0.180136
0.131936
-0.393284
0.196022
-0.598315
0.24944
-0.763239
0.291421
-0.890506
0.324268
-0.995906
0.352701
-1.08692
-1.18596
0.377474
0.00306142
0.0199688
0.0260143
-0.0545582
0.0766481
-0.23077
0.140503
-0.457139
0.198979
-0.65679
0.245613
-0.809873
0.281627
-0.926521
0.310102
-1.02438
0.335358
-1.11217
-1.2085
0.357898
0.00418741
0.0157814
0.0313164
-0.0816872
0.0853008
-0.284754
0.146445
-0.518284
0.198952
-0.709297
0.239328
-0.850249
0.270203
-0.957396
0.295013
-1.04919
0.317536
-1.1347
-1.22905
0.338086
0.0055523
0.0102291
0.0367766
-0.112911
0.092585
-0.340563
0.149855
-0.575554
0.196387
-0.755829
0.231121
-0.884983
0.257594
-0.983869
0.279291
-1.07089
0.299419
-1.15482
-1.24772
0.318085
0.0071746
0.00305453
0.0421621
-0.147899
0.0982327
-0.396633
0.150947
-0.628268
0.191724
-0.796607
0.221441
-0.914699
0.244141
-1.00657
0.263143
-1.08989
0.281089
-1.17277
-1.26456
0.297932
0.00903302
-0.00597849
0.0472501
-0.186116
0.10216
-0.451543
0.149986
-0.676094
0.185363
-0.831984
0.210652
-0.939989
0.230096
-1.02601
0.246709
-1.1065
0.262618
-1.18868
-1.27961
0.277664
0.0110628
-0.0170412
0.0518279
-0.226881
0.104407
-0.504122
0.147253
-0.71894
0.177652
-0.862383
0.199045
-0.961382
0.215644
-1.04261
0.230089
-1.12095
0.244049
-1.20264
-1.29285
0.257297
0.0131713
-0.0302126
0.055703
-0.269413
0.105087
-0.553505
0.143021
-0.756874
0.168888
-0.88825
0.186847
-0.979341
0.200921
-1.05669
0.213351
-1.13338
0.225416
-1.2147
-1.3043
0.236856
0.0152644
-0.045477
0.058726
-0.312875
0.10435
-0.59913
0.137542
-0.790065
0.159313
-0.910022
0.174232
-0.99426
0.186025
-1.06848
0.196544
-1.1439
0.206743
-1.2249
-1.31391
0.216359
0.0172626
-0.0627396
0.0608092
-0.356421
0.102363
-0.640683
0.131046
-0.818748
0.149128
-0.928104
0.161335
-1.00647
0.171028
-1.07817
0.179699
-1.15257
0.188052
-1.23325
-1.32169
0.195826
0.0191028
-0.0818423
0.0619273
-0.399246
0.0992931
-0.678049
0.123736
-0.843191
0.138496
-0.942864
0.148257
-1.01623
0.155983
-1.0859
0.162848
-1.15943
0.169363
-1.23977
-1.3276
0.175278
0.02073
-0.102572
0.0621046
-0.44062
0.095303
-0.711247
0.11579
-0.863678
0.127548
-0.954622
0.135078
-1.02376
0.140931
-1.09175
0.146016
-1.16452
0.150695
-1.24445
-1.33164
0.154737
0.0220915
-0.124664
0.0613949
-0.479924
0.0905399
-0.740392
0.10736
-0.880498
0.116392
-0.963654
0.121856
-1.02922
0.125905
-1.0958
0.129225
-1.16784
0.132067
-1.24729
-1.3338
0.134227
0.0231375
-0.147801
0.0598552
-0.516641
0.0851373
-0.765674
0.0985736
-0.893934
0.105114
-0.970195
0.108639
-1.03275
0.11093
-1.09809
0.112495
-1.16941
0.113501
-1.24829
-1.33408
0.113774
0.0238292
-0.17163
0.0576583
-0.55047
0.0792194
-0.787236
0.0895364
-0.904251
0.0937805
-0.974439
0.0954634
-1.03443
0.096029
-1.09865
0.095844
-1.16922
0.0950182
-1.24747
-1.33247
0.0934129
0.0241442
-0.195775
0.054915
-0.581241
0.0728993
-0.80522
0.0803344
-0.911686
0.082446
-0.97655
0.0823592
-1.03434
0.0812228
-1.09752
0.079289
-1.16729
0.076639
-1.24482
-1.32902
0.0731907
0.0240778
-0.219852
0.0516913
-0.608855
0.0662745
-0.819803
0.0710393
-0.916451
0.0711528
-0.976664
0.0693512
-1.03254
0.0665301
-1.0947
0.0628499
-1.16361
0.0583749
-1.24034
-1.32371
0.053059
0.023643
-0.243495
0.048062
-0.633274
0.0594306
-0.831172
0.0617111
-0.918732
0.059935
-0.974888
0.0564605
-1.02907
0.0519683
-1.0902
0.0465497
-1.15819
0.0402556
-1.23405
-1.31648
0.0330266
0.0228678
-0.266363
0.0441001
-0.654506
0.0524349
-0.839506
0.0523978
-0.918695
0.0488201
-0.97131
0.043706
-1.02395
0.0375523
-1.08405
0.0304077
-1.15104
0.022324
-1.22597
-1.30727
0.0131136
0.0217909
-0.288154
0.0398748
-0.67259
0.0453363
-0.844968
0.0431384
-0.916497
0.0378314
-0.966003
0.0311049
-1.01723
0.0232968
-1.07624
0.0144245
-1.14217
0.00465753
-1.2162
-1.296
-0.00660437
0.0204558
-0.30861
0.0354497
-0.687584
0.0381934
-0.847712
0.0339656
-0.912269
0.0269883
-0.959026
0.0186704
-1.00891
0.00921713
-1.06679
-0.00143116
-1.13152
-0.0128916
-1.20474
-1.28295
-0.0259448
0.0189072
-0.327517
0.0308831
-0.69956
0.0310546
-0.847883
0.0249074
-0.906122
0.0163042
-0.950422
0.00640353
-0.999008
-0.00464746
-1.05574
-0.0168423
-1.11933
-0.0302252
-1.19136
-1.26812
-0.0450548
0.0171874
-0.344705
0.0262266
-0.708599
0.0239597
-0.845616
0.0159876
-0.89815
0.00577498
-0.94021
-0.00562611
-0.987607
-0.0182457
-1.04312
-0.0320887
-1.10549
-0.0472804
-1.17616
-1.2515
-0.063902
0.0153356
-0.36004
0.0215261
-0.714789
0.016941
-0.841031
0.00722115
-0.88843
-0.00451753
-0.928471
-0.0173999
-0.974724
-0.0316168
-1.0289
-0.0470995
-1.09
-0.0640476
-1.15922
-1.23309
-0.0824526
0.0133873
-0.373428
0.0168215
-0.718223
0.0100215
-0.834231
-0.00138574
-0.877023
-0.0145265
-0.91533
-0.0289637
-0.960287
-0.0447388
-1.01313
-0.0618458
-1.0729
-0.0805121
-1.14055
-1.21292
-0.100684
0.0113748
-0.384802
0.0121487
-0.718997
0.00319896
-0.825281
-0.00970297
-0.864121
-0.0243427
-0.900691
-0.0402894
-0.944341
-0.0575967
-0.99582
-0.076305
-1.05419
-0.096656
-1.1202
-1.19101
-0.118568
0.00932598
-0.394128
0.0075431
-0.717215
-0.00340583
-0.814332
-0.0178522
-0.849674
-0.0339358
-0.884607
-0.0513613
-0.926915
-0.0701755
-0.977006
-0.090457
-1.03391
-0.112461
-1.09819
-1.16739
-0.136083
0.00726354
-0.401392
0.00304668
-0.712998
-0.0097727
-0.801513
-0.025793
-0.833654
-0.0432921
-0.867108
-0.0621664
-0.908041
-0.0824607
-0.956711
-0.104284
-1.01208
-0.12791
-1.07457
-1.14209
-0.153207
0.00520613
-0.406598
-0.00138315
-0.706408
-0.0159918
-0.786904
-0.0335117
-0.816134
-0.0524012
-0.848218
-0.072693
-0.887749
-0.0944381
-0.934966
-0.117771
-0.988749
-0.142985
-1.04936
-1.11516
-0.169919
0.0031763
-0.409774
-0.0058507
-0.697381
-0.0220416
-0.770714
-0.0409971
-0.797179
-0.0612528
-0.827963
-0.0829302
-0.866072
-0.106094
-0.911802
-0.130904
-0.963939
-0.157671
-1.02259
-1.08664
-0.18619
0.00121368
-0.410988
-0.0101194
-0.686048
-0.0279082
-0.752925
-0.0482421
-0.776845
-0.0698372
-0.806368
-0.0928673
-0.843042
-0.117416
-0.887253
-0.143669
-0.937687
-0.171949
-0.994308
-1.05659
-0.201994
-0.000764004
-0.410224
-0.0142239
-0.672588
-0.0335813
-0.733567
-0.0552417
-0.755184
-0.0781454
-0.783464
-0.102494
-0.818693
-0.128393
-0.861353
-0.156055
-0.910025
-0.185804
-0.964559
-1.02506
-0.217337
-0.00284774
-0.407376
-0.0181753
-0.657261
-0.0390491
-0.712694
-0.0619906
-0.732243
-0.0861687
-0.759286
-0.111799
-0.793063
-0.139016
-0.834137
-0.168064
-0.880977
-0.199228
-0.933394
-0.992103
-0.232186
-0.00481522
-0.402561
-0.0219726
-0.640104
-0.0443021
-0.690364
-0.0684836
-0.708061
-0.0938992
-0.73387
-0.120774
-0.766188
-0.149275
-0.805636
-0.17969
-0.850563
-0.212179
-0.900905
-0.95798
-0.246303
-0.00669722
-0.395864
-0.0256134
-0.621187
-0.049335
-0.666643
-0.0747154
-0.682681
-0.101329
-0.707256
-0.12941
-0.738107
-0.159162
-0.775883
-0.190886
-0.818839
-0.224669
-0.867122
-0.923105
-0.259543
-0.00849845
-0.387365
-0.0290951
-0.600591
-0.0541437
-0.641594
-0.0806813
-0.656143
-0.108452
-0.679486
-0.137699
-0.70886
-0.168662
-0.74492
-0.201594
-0.785907
-0.236179
-0.832538
-0.886047
-0.273238
-0.0102191
-0.377146
-0.0324148
-0.578395
-0.0587251
-0.615284
-0.0863766
-0.628492
-0.115261
-0.650602
-0.145633
-0.678488
-0.17775
-0.712802
-0.21178
-0.751877
-0.247612
-0.796705
-0.847399
-0.28626
-0.0118579
-0.365288
-0.0355698
-0.554683
-0.0630768
-0.587777
-0.0917971
-0.599771
-0.121751
-0.620648
-0.153204
-0.647035
-0.18643
-0.679576
-0.221581
-0.716726
-0.258775
-0.759511
-0.807423
-0.298752
-0.0134131
-0.351875
-0.0385577
-0.529538
-0.0671966
-0.559138
-0.0969388
-0.570029
-0.127914
-0.589673
-0.1604
-0.614549
-0.194675
-0.645302
-0.230896
-0.680505
-0.269296
-0.72111
-0.766196
-0.310523
-0.0148829
-0.336992
-0.0413764
-0.503045
-0.0710826
-0.529431
-0.101798
-0.539314
-0.133747
-0.557724
-0.167217
-0.581079
-0.202493
-0.610025
-0.239757
-0.643241
-0.2793
-0.681568
-0.723839
-0.321657
-0.016265
-0.320727
-0.0440238
-0.475286
-0.0747329
-0.498722
-0.106371
-0.507676
-0.139243
-0.524852
-0.173643
-0.546679
-0.209868
-0.5738
-0.248121
-0.604987
-0.288727
-0.640963
-0.680422
-0.332144
-0.0175573
-0.30317
-0.0464985
-0.446345
-0.0781459
-0.467075
-0.110654
-0.475168
-0.144396
-0.49111
-0.179674
-0.511401
-0.216795
-0.536679
-0.255984
-0.565798
-0.297583
-0.599365
-0.636016
-0.341988
-0.0187568
-0.284413
-0.0487989
-0.416303
-0.0813199
-0.434554
-0.114645
-0.441843
-0.149202
-0.456553
-0.185303
-0.4753
-0.223263
-0.498719
-0.26333
-0.525731
-0.305853
-0.556842
-0.590687
-0.351182
-0.01986
-0.264553
-0.0509235
-0.385239
-0.0842535
-0.401224
-0.11834
-0.407757
-0.153657
-0.421236
-0.190522
-0.438434
-0.229266
-0.459975
-0.27015
-0.484847
-0.313529
-0.513462
-0.5445
-0.359716
-0.0208604
-0.243693
-0.0528708
-0.353229
-0.0869458
-0.367149
-0.121736
-0.372966
-0.157755
-0.385217
-0.195327
-0.400862
-0.234795
-0.420507
-0.276433
-0.443209
-0.3206
-0.469295
-0.497522
-0.367579
-0.0217427
-0.22195
-0.0546396
-0.320332
-0.0893964
-0.332392
-0.124832
-0.337531
-0.161493
-0.348556
-0.199712
-0.362643
-0.239843
-0.380376
-0.282172
-0.40088
-0.327058
-0.424409
-0.449821
-0.374759
-0.0225491
-0.199401
-0.0562319
-0.286649
-0.091605
-0.297019
-0.127625
-0.301511
-0.164868
-0.311312
-0.203672
-0.32384
-0.244404
-0.339644
-0.287358
-0.357926
-0.332892
-0.378875
-0.401466
-0.381246
-0.023285
-0.176116
-0.057649
-0.252285
-0.093571
-0.261097
-0.130112
-0.26497
-0.167876
-0.273549
-0.207202
-0.284513
-0.248472
-0.298374
-0.291985
-0.314412
-0.338095
-0.332766
-0.352532
-0.387029
-0.0239366
-0.152179
-0.0588903
-0.217332
-0.0952936
-0.224694
-0.132292
-0.227972
-0.170514
-0.235327
-0.2103
-0.244727
-0.252042
-0.256632
-0.296047
-0.270407
-0.34266
-0.286153
-0.303091
-0.3921
-0.0244989
-0.127681
-0.0599555
-0.181875
-0.0967719
-0.187877
-0.134164
-0.19058
-0.172779
-0.196711
-0.212961
-0.204546
-0.25511
-0.214483
-0.299536
-0.225981
-0.34658
-0.239109
-0.25322
-0.396452
-0.0249694
-0.102711
-0.0608439
-0.146001
-0.098005
-0.150716
-0.135725
-0.152859
-0.174671
-0.157766
-0.215182
-0.164034
-0.257671
-0.171995
-0.302448
-0.181204
-0.349848
-0.191709
-0.202991
-0.400077
-0.0253468
-0.0773643
-0.0615551
-0.109792
-0.0989923
-0.113279
-0.136976
-0.114876
-0.176186
-0.118556
-0.216962
-0.123258
-0.259723
-0.129234
-0.304779
-0.136147
-0.352462
-0.144026
-0.152481
-0.402972
-0.0256304
-0.0517339
-0.0620889
-0.0733337
-0.0997333
-0.0756347
-0.137915
-0.0766938
-0.177323
-0.0791482
-0.218299
-0.0822824
-0.261263
-0.0862695
-0.30653
-0.0908811
-0.354422
-0.0961331
-0.101765
-0.405139
-0.0258196
-0.0259143
-0.0624448
-0.0367085
-0.100228
-0.0378519
-0.138541
-0.0383799
-0.178082
-0.0396073
-0.21919
-0.0411744
-0.262291
-0.0431688
-0.307697
-0.0454754
-0.355729
-0.0481011
-0.0509149
-0.406579
-0.0259143
5.35549e-11
-0.0626228
8.7202e-11
-0.100475
9.18463e-11
-0.138855
9.19126e-11
-0.178462
9.46634e-11
-0.219636
9.67973e-11
-0.262805
9.84992e-11
-0.308281
9.96975e-11
-0.356382
1.00151e-10
9.96514e-11
-0.407297
-0.0259143
0.0259143
-0.0626228
0.0367085
-0.100475
0.0378519
-0.138855
0.0383799
-0.178462
0.0396073
-0.219636
0.0411744
-0.262805
0.0431688
-0.308281
0.0454754
-0.356382
0.0481011
0.0509149
-0.407297
-0.0258196
0.0517339
-0.0624448
0.0733337
-0.100228
0.0756347
-0.138541
0.0766938
-0.178082
0.0791482
-0.21919
0.0822824
-0.262291
0.0862695
-0.307697
0.0908811
-0.355729
0.0961331
0.101765
-0.406579
-0.0256304
0.0773643
-0.0620889
0.109792
-0.0997333
0.113279
-0.137915
0.114876
-0.177323
0.118556
-0.218299
0.123258
-0.261263
0.129234
-0.30653
0.136147
-0.354422
0.144026
0.152481
-0.405139
-0.0253468
0.102711
-0.0615551
0.146001
-0.0989923
0.150716
-0.136976
0.152859
-0.176186
0.157766
-0.216962
0.164034
-0.259723
0.171995
-0.304779
0.181204
-0.352462
0.191709
0.202991
-0.402972
-0.0249694
0.127681
-0.0608439
0.181875
-0.098005
0.187877
-0.135725
0.19058
-0.174671
0.196711
-0.215182
0.204546
-0.257671
0.214483
-0.302448
0.225981
-0.349848
0.239109
0.25322
-0.400077
-0.0244989
0.152179
-0.0599555
0.217332
-0.0967719
0.224694
-0.134164
0.227972
-0.172779
0.235327
-0.212961
0.244727
-0.25511
0.256632
-0.299536
0.270407
-0.34658
0.286153
0.303091
-0.396452
-0.0239366
0.176116
-0.0588903
0.252285
-0.0952936
0.261097
-0.132292
0.26497
-0.170514
0.273549
-0.2103
0.284513
-0.252042
0.298374
-0.296047
0.314412
-0.34266
0.332766
0.352532
-0.3921
-0.023285
0.199401
-0.057649
0.286649
-0.093571
0.297019
-0.130112
0.301511
-0.167876
0.311312
-0.207202
0.32384
-0.248472
0.339644
-0.291985
0.357926
-0.338095
0.378875
0.401466
-0.387029
-0.0225491
0.22195
-0.0562319
0.320332
-0.091605
0.332392
-0.127625
0.337531
-0.164868
0.348556
-0.203672
0.362643
-0.244404
0.380376
-0.287358
0.40088
-0.332892
0.424409
0.449821
-0.381246
-0.0217427
0.243693
-0.0546396
0.353229
-0.0893964
0.367149
-0.124832
0.372966
-0.161493
0.385217
-0.199712
0.400862
-0.239843
0.420507
-0.282172
0.443209
-0.327058
0.469295
0.497522
-0.374759
-0.0208604
0.264553
-0.0528708
0.385239
-0.0869458
0.401224
-0.121736
0.407757
-0.157755
0.421236
-0.195327
0.438434
-0.234795
0.459975
-0.276433
0.484847
-0.3206
0.513462
0.5445
-0.367579
-0.01986
0.284413
-0.0509235
0.416303
-0.0842535
0.434554
-0.11834
0.441843
-0.153657
0.456553
-0.190522
0.4753
-0.229266
0.498719
-0.27015
0.525731
-0.313529
0.556842
0.590687
-0.359716
-0.0187568
0.30317
-0.0487989
0.446345
-0.0813199
0.467075
-0.114645
0.475168
-0.149202
0.49111
-0.185303
0.511401
-0.223263
0.536679
-0.26333
0.565798
-0.305853
0.599365
0.636016
-0.351182
-0.0175573
0.320727
-0.0464985
0.475286
-0.0781459
0.498722
-0.110654
0.507676
-0.144396
0.524852
-0.179674
0.546679
-0.216795
0.5738
-0.255984
0.604987
-0.297583
0.640963
0.680422
-0.341988
-0.016265
0.336992
-0.0440238
0.503045
-0.0747329
0.529431
-0.106371
0.539314
-0.139243
0.557724
-0.173643
0.581079
-0.209868
0.610025
-0.248121
0.643241
-0.288727
0.681568
0.723839
-0.332144
-0.0148829
0.351875
-0.0413764
0.529538
-0.0710826
0.559138
-0.101798
0.570029
-0.133747
0.589673
-0.167217
0.614549
-0.202493
0.645302
-0.239757
0.680505
-0.2793
0.72111
0.766196
-0.321657
-0.0134131
0.365288
-0.0385577
0.554683
-0.0671966
0.587777
-0.0969388
0.599771
-0.127914
0.620648
-0.1604
0.647035
-0.194675
0.679576
-0.230896
0.716726
-0.269296
0.759511
0.807423
-0.310523
-0.0118579
0.377146
-0.0355698
0.578395
-0.0630768
0.615284
-0.0917971
0.628492
-0.121751
0.650602
-0.153204
0.678488
-0.18643
0.712802
-0.221581
0.751877
-0.258775
0.796705
0.847399
-0.298752
-0.0102191
0.387365
-0.0324148
0.600591
-0.0587251
0.641594
-0.0863766
0.656143
-0.115261
0.679486
-0.145633
0.70886
-0.17775
0.74492
-0.21178
0.785907
-0.247612
0.832538
0.886047
-0.28626
-0.00849845
0.395864
-0.0290951
0.621187
-0.0541437
0.666643
-0.0806813
0.682681
-0.108452
0.707256
-0.137699
0.738107
-0.168662
0.775883
-0.201594
0.818839
-0.236179
0.867122
0.923105
-0.273238
-0.00669722
0.402561
-0.0256134
0.640104
-0.049335
0.690364
-0.0747154
0.708061
-0.101329
0.73387
-0.12941
0.766188
-0.159162
0.805636
-0.190886
0.850563
-0.224669
0.900905
0.95798
-0.259543
-0.00481522
0.407376
-0.0219726
0.657261
-0.0443021
0.712694
-0.0684836
0.732243
-0.0938992
0.759286
-0.120774
0.793063
-0.149275
0.834137
-0.17969
0.880977
-0.212179
0.933394
0.992103
-0.246303
-0.00284774
0.410224
-0.0181753
0.672588
-0.0390491
0.733567
-0.0619906
0.755184
-0.0861687
0.783464
-0.111799
0.818693
-0.139016
0.861353
-0.168064
0.910025
-0.199228
0.964559
1.02506
-0.232186
-0.000764004
0.410988
-0.0142239
0.686048
-0.0335813
0.752925
-0.0552417
0.776845
-0.0781454
0.806368
-0.102494
0.843042
-0.128393
0.887253
-0.156055
0.937687
-0.185804
0.994308
1.05659
-0.217337
0.00121368
0.409774
-0.0101194
0.697381
-0.0279082
0.770714
-0.0482421
0.797179
-0.0698372
0.827963
-0.0928673
0.866072
-0.117416
0.911802
-0.143669
0.963939
-0.171949
1.02259
1.08664
-0.201994
0.0031763
0.406598
-0.0058507
0.706408
-0.0220416
0.786904
-0.0409971
0.816134
-0.0612528
0.848218
-0.0829302
0.887749
-0.106094
0.934966
-0.130904
0.988749
-0.157671
1.04936
1.11516
-0.18619
0.00520613
0.401392
-0.00138315
0.712998
-0.0159918
0.801513
-0.0335117
0.833654
-0.0524012
0.867108
-0.072693
0.908041
-0.0944381
0.956711
-0.117771
1.01208
-0.142985
1.07457
1.14209
-0.169919
0.00726354
0.394128
0.00304668
0.717215
-0.0097727
0.814332
-0.025793
0.849674
-0.0432921
0.884607
-0.0621664
0.926915
-0.0824607
0.977006
-0.104284
1.03391
-0.12791
1.09819
1.16739
-0.153207
0.00932598
0.384802
0.0075431
0.718997
-0.00340583
0.825281
-0.0178522
0.864121
-0.0339358
0.900691
-0.0513613
0.944341
-0.0701755
0.99582
-0.090457
1.05419
-0.112461
1.1202
1.19101
-0.136083
0.0113748
0.373428
0.0121487
0.718223
0.00319896
0.834231
-0.00970297
0.877023
-0.0243427
0.91533
-0.0402894
0.960287
-0.0575967
1.01313
-0.076305
1.0729
-0.096656
1.14055
1.21292
-0.118568
0.0133873
0.36004
0.0168215
0.714789
0.0100215
0.841031
-0.00138574
0.88843
-0.0145265
0.928471
-0.0289637
0.974724
-0.0447388
1.0289
-0.0618458
1.09
-0.0805121
1.15922
1.23309
-0.100684
0.0153356
0.344705
0.0215261
0.708599
0.016941
0.845616
0.00722115
0.89815
-0.00451753
0.94021
-0.0173999
0.987607
-0.0316168
1.04312
-0.0470995
1.10549
-0.0640476
1.17616
1.2515
-0.0824526
0.0171874
0.327517
0.0262266
0.69956
0.0239597
0.847883
0.0159876
0.906122
0.00577498
0.950422
-0.00562611
0.999008
-0.0182457
1.05574
-0.0320887
1.11933
-0.0472804
1.19136
1.26812
-0.063902
0.0189072
0.30861
0.0308831
0.687584
0.0310546
0.847712
0.0249074
0.912269
0.0163042
0.959026
0.00640353
1.00891
-0.00464746
1.06679
-0.0168423
1.13152
-0.0302252
1.20474
1.28295
-0.0450548
0.0204558
0.288154
0.0354497
0.67259
0.0381934
0.844968
0.0339656
0.916497
0.0269883
0.966003
0.0186704
1.01723
0.00921713
1.07624
-0.00143116
1.14217
-0.0128916
1.2162
1.296
-0.0259448
0.0217909
0.266363
0.0398748
0.654506
0.0453363
0.839506
0.0431384
0.918695
0.0378314
0.97131
0.0311049
1.02395
0.0232968
1.08405
0.0144245
1.15104
0.00465753
1.22597
1.30727
-0.00660437
0.0228678
0.243495
0.0441001
0.633274
0.0524349
0.831172
0.0523978
0.918732
0.0488201
0.974888
0.043706
1.02907
0.0375523
1.0902
0.0304077
1.15819
0.022324
1.23405
1.31648
0.0131136
0.023643
0.219852
0.048062
0.608855
0.0594306
0.819803
0.0617111
0.916451
0.059935
0.976664
0.0564605
1.03254
0.0519683
1.0947
0.0465497
1.16361
0.0402556
1.24034
1.32371
0.0330266
0.0240778
0.195775
0.0516913
0.581241
0.0662745
0.80522
0.0710393
0.911686
0.0711528
0.97655
0.0693512
1.03434
0.0665301
1.09752
0.0628499
1.16729
0.0583749
1.24482
1.32902
0.053059
0.0241442
0.17163
0.054915
0.55047
0.0728993
0.787236
0.0803344
0.904251
0.082446
0.974439
0.0823592
1.03443
0.0812228
1.09865
0.079289
1.16922
0.076639
1.24747
1.33247
0.0731907
0.0238292
0.147801
0.0576583
0.516641
0.0792194
0.765674
0.0895364
0.893934
0.0937805
0.970195
0.0954634
1.03275
0.096029
1.09809
0.095844
1.16941
0.0950182
1.24829
1.33408
0.0934129
0.0231375
0.124664
0.0598552
0.479924
0.0851373
0.740392
0.0985736
0.880498
0.105114
0.963654
0.108639
1.02922
0.11093
1.0958
0.112495
1.16784
0.113501
1.24729
1.3338
0.113774
0.0220915
0.102572
0.0613949
0.44062
0.0905399
0.711247
0.10736
0.863678
0.116392
0.954622
0.121856
1.02376
0.125905
1.09175
0.129225
1.16452
0.132067
1.24445
1.33164
0.134227
0.02073
0.0818423
0.0621046
0.399246
0.095303
0.678049
0.11579
0.843191
0.127548
0.942864
0.135078
1.01623
0.140931
1.0859
0.146016
1.15943
0.150695
1.23977
1.3276
0.154737
0.0191028
0.0627396
0.0619273
0.356421
0.0992931
0.640683
0.123736
0.818748
0.138496
0.928104
0.148257
1.00647
0.155983
1.07817
0.162848
1.15257
0.169363
1.23325
1.32169
0.175278
0.0172626
0.045477
0.0608092
0.312875
0.102363
0.59913
0.131046
0.790065
0.149128
0.910022
0.161335
0.99426
0.171028
1.06848
0.179699
1.1439
0.188052
1.2249
1.31391
0.195826
0.0152644
0.0302126
0.058726
0.269413
0.10435
0.553505
0.137542
0.756874
0.159313
0.88825
0.174232
0.979341
0.186025
1.05669
0.196544
1.13338
0.206743
1.2147
1.3043
0.216359
0.0131713
0.0170412
0.055703
0.226881
0.105087
0.504122
0.143021
0.71894
0.168888
0.862383
0.186847
0.961382
0.200921
1.04261
0.213351
1.12095
0.225416
1.20264
1.29285
0.236856
0.0110628
0.00597849
0.0518279
0.186116
0.104407
0.451543
0.147253
0.676094
0.177652
0.831984
0.199045
0.939989
0.215644
1.02601
0.230089
1.1065
0.244049
1.18868
1.27961
0.257297
0.00903302
-0.00305453
0.0472501
0.147899
0.10216
0.396633
0.149986
0.628268
0.185363
0.796607
0.210652
0.914699
0.230096
1.00657
0.246709
1.08989
0.262618
1.17277
1.26456
0.277664
0.0071746
-0.0102291
0.0421621
0.112911
0.0982327
0.340563
0.150947
0.575554
0.191724
0.755829
0.221441
0.884983
0.244141
0.983869
0.263143
1.07089
0.281089
1.15482
1.24772
0.297932
0.0055523
-0.0157814
0.0367766
0.0816872
0.092585
0.284754
0.149855
0.518284
0.196387
0.709297
0.231121
0.850249
0.257594
0.957396
0.279291
1.04919
0.299419
1.1347
1.22905
0.318085
0.00418741
-0.0199688
0.0313164
0.0545582
0.0853008
0.23077
0.146445
0.457139
0.198952
0.65679
0.239328
0.809873
0.270203
0.926521
0.295013
1.02438
0.317536
1.11217
1.2085
0.338086
0.00306142
-0.0230303
0.0260143
0.0316053
0.0766481
0.180136
0.140503
0.393284
0.198979
0.598315
0.245613
0.763239
0.281627
0.890506
0.310102
0.995906
0.335358
1.08692
1.18596
0.357898
0.00213927
-0.0251695
0.0210969
0.0126477
0.0670878
0.134145
0.131936
0.328436
0.196022
0.53423
0.24944
0.709821
0.291421
0.848525
0.324268
0.963059
0.352701
1.05848
1.16119
0.377474
0.00139263
-0.0265622
0.0167496
-0.00270926
0.0572002
0.0936945
0.120881
0.264755
0.189675
0.465435
0.250195
0.649301
0.299
0.799719
0.337107
0.924952
0.369397
1.02619
1.13398
0.396608
0.000809359
-0.0273715
0.0130893
-0.0149892
0.047592
0.0591919
0.107804
0.204543
0.179668
0.393572
0.247212
0.581756
0.303652
0.74328
0.348042
0.880562
0.384995
0.98924
1.10351
0.415466
0.000389609
-0.0277611
0.0101585
-0.0247582
0.0388252
0.0305252
0.0935313
0.149837
0.166013
0.32109
0.239868
0.507902
0.304469
0.678678
0.356404
0.828628
0.39907
0.946574
1.06973
0.432843
0.000135889
-0.027897
0.00794096
-0.0325632
0.0313344
0.00713181
0.0791384
0.102033
0.149205
0.251024
0.227695
0.429411
0.300521
0.605852
0.361048
0.768101
0.410961
0.89666
1.03024
0.450457
4.18056e-05
-0.0279388
0.0063843
-0.0389057
0.0253482
-0.0118321
0.0657279
0.0616531
0.130337
0.186415
0.210661
0.349087
0.290731
0.525782
0.361312
0.69752
0.418411
0.839561
0.984346
0.464301
8.49901e-05
-0.0280238
0.00540827
-0.044229
0.0208718
-0.0272957
0.0541685
0.0283564
0.111013
0.12957
0.189478
0.270622
0.274427
0.440833
0.355307
0.61664
0.422439
0.772429
0.93136
0.475425
0.000243267
-0.0282671
0.00490357
-0.0488893
0.0177307
-0.0401228
0.0448983
0.00118875
0.0929831
0.0814854
0.165777
0.197828
0.251858
0.354753
0.34167
0.526828
0.421691
0.692408
0.870171
0.48288
0.000478881
-0.028746
0.00473105
-0.0531415
0.0156322
-0.051024
0.0378839
-0.0210629
0.0775909
0.0417784
0.141848
0.133571
0.224468
0.272133
0.31944
0.431856
0.412231
0.599618
0.798511
0.48389
0.000741518
-0.0294875
0.00473058
-0.0571305
0.0142193
-0.0605128
0.0327208
-0.0395644
0.0653805
0.00911868
0.119855
0.0790961
0.194867
0.197121
0.289387
0.337337
0.392363
0.496641
0.714676
0.476198
0.000978315
-0.0304658
0.0047379
-0.0608901
0.0131163
-0.0688912
0.0287895
-0.0552376
0.0560151
-0.0181069
0.101003
0.0341083
0.166232
0.131892
0.254169
0.249399
0.361681
0.38913
0.618406
0.457951
0.00113999
-0.0316058
0.00460224
-0.0643524
0.0119715
-0.0762605
0.0254058
-0.0686718
0.0485386
-0.0412398
0.0852993
-0.00265232
0.140964
0.0762273
0.217756
0.172607
0.322142
0.284744
0.511972
0.428576
0.00118551
-0.0327913
0.00420137
-0.0673682
0.0104952
-0.0825543
0.0219474
-0.080124
0.0418014
-0.0610938
0.0719228
-0.0327738
0.119569
0.0285813
0.183802
0.108374
0.278248
0.190298
0.400972
0.389248
0.00108542
-0.0338767
0.00345109
-0.0697339
0.00848487
-0.0875881
0.0179429
-0.0895821
0.0348183
-0.0779691
0.0597155
-0.057671
0.100775
-0.0124782
0.154072
0.0550766
0.235058
0.109312
0.293056
0.342974
0.000823707
-0.0347004
0.00230971
-0.0712199
0.00583601
-0.0911144
0.013109
-0.0968551
0.026948
-0.0918081
0.0475164
-0.0782394
0.0826569
-0.0476187
0.127877
0.00985621
0.195354
0.0418354
0.195088
0.293321
0.000398475
-0.0350989
0.000777223
-0.0715987
0.00254035
-0.0928775
0.007343
-0.101658
0.0179057
-0.102371
0.0343963
-0.0947299
0.063654
-0.0768765
0.102807
-0.0292967
0.158523
-0.013881
0.110884
0.242728
-0.000179138
-0.0349197
-0.00110564
-0.0706721
-0.00134621
-0.0926369
0.000659477
-0.103663
0.00771202