/*--------------------------------*- C++ -*----------------------------------*\
  =========                 |
  \\      /  F ield         | OpenFOAM: The Open Source CFD Toolbox
   \\    /   O peration     | Website:  https://openfoam.org
    \\  /    A nd           | Version:  9
     \\/     M anipulation  |
\*---------------------------------------------------------------------------*/
FoamFile
{
    format      ascii;
    class       volVectorField;
    location    "8";
    object      U;
}
// * * * * * * * * * * * * * * * * * * * * * * * * * * * * * * * * * * * * * //

dimensions      [0 1 -1 0 0 0 0];

internalField   nonuniform List<vector> 
8500
(
(-0.0137949 0.00526716 0)
(-0.0581656 0.0087055 -7.40642e-23)
(-0.12015 0.00990593 -4.09088e-24)
(-0.178151 0.01029 7.94354e-37)
(-0.238149 0.0106243 -1.21975e-23)
(-0.294485 0.0106348 1.01563e-23)
(-0.355075 0.0112382 -7.28283e-23)
(-0.405342 0.00999737 -1.18458e-22)
(-0.463773 0.0110463 -1.12855e-22)
(-0.502607 0.00750432 -6.00585e-24)
(-0.0140927 0.0156185 2.12185e-22)
(-0.057713 0.025892 6.92667e-23)
(-0.118229 0.0294999 2.80958e-22)
(-0.174387 0.0306423 0)
(-0.232135 0.0316223 0)
(-0.285166 0.0316031 2.12483e-23)
(-0.342404 0.0333839 5.50867e-23)
(-0.386782 0.0295908 1.26607e-22)
(-0.440349 0.0327334 8.45021e-23)
(-0.470194 0.0220478 2.40929e-23)
(-0.0146703 0.0254312 -1.8853e-22)
(-0.0568383 0.0424128 0)
(-0.114484 0.0484448 -2.64265e-22)
(-0.167029 0.0503179 0)
(-0.220406 0.0518724 -4.89544e-23)
(-0.26699 0.051689 4.07621e-23)
(-0.317845 0.0545394 0)
(-0.350852 0.0480404 0)
(-0.395459 0.0532428 0)
(-0.408542 0.0353061 0)
(-0.0154932 0.0343808 3.81085e-22)
(-0.0556004 0.0578496 -2.7906e-22)
(-0.109103 0.0663232 -6.65618e-23)
(-0.156407 0.0688849 -4.21555e-22)
(-0.203528 0.07089 -4.34582e-22)
(-0.24084 0.0703705 4.27628e-23)
(-0.282843 0.0740493 -3.57048e-23)
(-0.299731 0.0647536 4.42035e-22)
(-0.332538 0.0719034 -2.74241e-24)
(-0.323126 0.0467138 4.94102e-22)
(-0.0165147 0.0421919 -3.81084e-22)
(-0.0540829 0.0718218 -3.6242e-22)
(-0.102355 0.0827403 1.00561e-22)
(-0.142992 0.0859391 5.64107e-22)
(-0.182284 0.0882085 -4.91465e-23)
(-0.207954 0.0872087 6.67536e-22)
(-0.239316 0.0912617 0)
(-0.236288 0.0793111 -5.07886e-22)
(-0.255803 0.0881815 -1.16685e-22)
(-0.220433 0.0560808 -6.92454e-22)
(-0.01768 0.0486531 9.66946e-23)
(-0.0523895 0.0840001 6.01458e-22)
(-0.0945717 0.0973335 -4.69671e-22)
(-0.127367 0.101111 -1.58454e-24)
(-0.157605 0.103386 -4.42342e-22)
(-0.169842 0.10186 1.68729e-22)
(-0.189453 0.105528 -7.18806e-23)
(-0.163825 0.0914437 6.38857e-22)
(-0.169703 0.101564 -1.11198e-22)
(-0.106651 0.0638334 3.95883e-22)
(-0.0189327 0.0536288 4.85565e-23)
(-0.0506368 0.0941185 0)
(-0.0861253 0.109779 -2.56766e-24)
(-0.110202 0.114072 0)
(-0.130494 0.116014 7.8005e-22)
(-0.128194 0.11408 -6.67954e-22)
(-0.135503 0.116183 0)
(-0.0858908 0.101031 -2.28498e-24)
(-0.0787102 0.111088 0)
(0.0131011 0.0708679 0)
(-0.0202207 0.0570638 -7.8676e-22)
(-0.0489475 0.101984 -8.16585e-23)
(-0.0774052 0.119795 6.07227e-22)
(-0.092215 0.124542 1.15853e-22)
(-0.101948 0.125717 -7.86143e-22)
(-0.0847867 0.123745 -4.97632e-22)
(-0.0795307 0.122507 -7.20021e-23)
(-0.00589964 0.108013 6.29854e-22)
(0.0122337 0.11597 -1.10911e-22)
(0.135855 0.0764418 1.02218e-22)
(-0.0215027 0.0589849 8.85874e-22)
(-0.0474436 0.107484 -6.54473e-22)
(-0.068788 0.127156 -2.04498e-22)
(-0.0741407 0.132301 1.13237e-22)
(-0.072877 0.132156 7.83346e-22)
(-0.0413455 0.130782 7.52289e-22)
(-0.0234249 0.124317 -7.18347e-23)
(0.0741393 0.111987 1.23319e-22)
(0.0976401 0.115631 -2.26719e-22)
(0.259397 0.0791659 9.78251e-23)
(-0.0227537 0.0594951 7.99441e-22)
(-0.0462371 0.110593 6.55163e-22)
(-0.0606059 0.131702 -9.5494e-22)
(-0.0566745 0.137181 -1.1348e-22)
(-0.044103 0.135183 0)
(0.000956247 0.134823 0)
(0.0309948 0.121926 0)
(0.152828 0.113097 -1.97668e-21)
(0.175455 0.109008 -9.22958e-22)
(0.383147 0.0785899 7.63996e-22)
(-0.0239684 0.0587631 -1.60472e-21)
(-0.0454216 0.11137 0)
(-0.0531278 0.133386 2.1867e-21)
(-0.0403078 0.138957 9.1354e-22)
(-0.0164394 0.134864 9.61034e-23)
(0.0414242 0.135513 0)
(0.0834906 0.115458 -1.17173e-21)
(0.228835 0.112265 9.83282e-22)
(0.249175 0.096169 9.22943e-22)
(0.510067 0.0747028 -7.63967e-22)
(-0.0251628 0.0570086 9.06244e-22)
(-0.0450533 0.109965 -8.28741e-23)
(-0.0465625 0.132259 -1.09457e-21)
(-0.0252837 0.137486 -1.02898e-21)
(0.00974607 0.13126 0)
(0.0797107 0.132849 1.30585e-21)
(0.135846 0.105429 1.24048e-23)
(0.301847 0.109664 8.3337e-22)
(0.328444 0.0797166 1.00682e-21)
(0.644105 0.0686618 -7.40369e-22)
(-0.0263728 0.0544822 -1.72298e-25)
(-0.0451412 0.106601 1.41573e-21)
(-0.0409681 0.128456 -1.37053e-22)
(-0.0116239 0.132867 7.94884e-22)
(0.0347171 0.124459 4.79796e-22)
(0.116439 0.126772 3.19113e-22)
(0.191623 0.0935471 1.16303e-21)
(0.374141 0.104283 -1.081e-21)
(0.426046 0.0646002 -6.7881e-22)
(0.784365 0.0628282 5.54659e-22)
(-0.0276481 0.051444 0)
(-0.0456389 0.101568 -1.16597e-21)
(-0.0362041 0.122213 -1.37351e-22)
(0.00103872 0.125341 -2.56111e-24)
(0.059445 0.114833 7.69333e-22)
(0.153784 0.117225 -1.13042e-21)
(0.255378 0.082244 1.13358e-21)
(0.451667 0.0955628 -1.18658e-22)
(0.550179 0.0558847 0)
(0.922902 0.0595614 0)
(-0.0290423 0.0481429 1.02835e-22)
(-0.0464285 0.0951981 -1.34166e-21)
(-0.0318995 0.113873 0)
(0.0135916 0.115295 -1.16539e-22)
(0.0857693 0.10308 9.45508e-23)
(0.195736 0.104666 0)
(0.331574 0.0736131 -1.13006e-21)
(0.542485 0.0854681 -9.32651e-22)
(0.696482 0.0555223 2.12299e-22)
(1.04838 0.0599095 -1.78408e-22)
(-0.0306011 0.0447963 -1.02888e-22)
(-0.0473056 0.087843 1.42611e-21)
(-0.0274213 0.103867 0)
(0.0275119 0.103279 -1.01805e-21)
(0.1165 0.0901857 9.41034e-23)
(0.247768 0.0906081 -1.26631e-21)
(0.423364 0.0688508 -1.38512e-22)
(0.651398 0.0780618 1.04856e-21)
(0.848735 0.0617993 0)
(1.15158 0.0629843 1.36901e-21)
(-0.0323473 0.0415742 -1.56459e-21)
(-0.0479673 0.0798466 -8.48327e-23)
(-0.0218581 0.0926893 -1.36829e-22)
(0.0448621 0.0900002 1.13178e-22)
(0.155295 0.077353 -1.49954e-21)
(0.315483 0.0776952 1.2663e-21)
(0.531239 0.0685316 1.08517e-21)
(0.774281 0.0764306 9.12755e-22)
(0.988268 0.0716403 1.58971e-21)
(1.22874 0.0670007 -1.19918e-21)
(-0.0342678 0.0385875 1.66794e-21)
(-0.0480067 0.0715189 0)
(-0.0140348 0.0808612 1.23843e-21)
(0.0681822 0.076292 -1.13164e-22)
(0.206174 0.0659601 2.9926e-21)
(0.402326 0.0689773 0)
(0.651452 0.0728932 -1.08515e-21)
(0.899018 0.0804639 -1.20117e-23)
(1.10296 0.0826769 -1.78466e-21)
(1.28117 0.0707147 1.63863e-22)
(-0.0363017 0.0358825 0)
(-0.0469193 0.0631144 1.36308e-21)
(-0.00256127 0.0688933 -1.10162e-21)
(0.100281 0.0631079 0)
(0.27257 0.057561 -1.49305e-21)
(0.507317 0.0666232 0)
(0.77582 0.0814007 1.0555e-21)
(1.01275 0.0881054 -9.00712e-22)
(1.18921 0.0936746 -1.49175e-21)
(1.31306 0.0730332 -1.23418e-21)
(-0.0383362 0.0334439 -2.10146e-22)
(-0.0441186 0.0548143 -1.19058e-21)
(0.0140978 0.0572548 0)
(0.143927 0.0515609 0)
(0.356037 0.0537155 0)
(0.624373 0.0709559 -1.55791e-22)
(0.894477 0.0925315 -1.0544e-21)
(1.10769 0.0975462 -1.09768e-22)
(1.24925 0.103731 1.49174e-21)
(1.32989 0.0735031 1.38739e-21)
(-0.0402127 0.0312083 0)
(-0.0389589 0.0467149 -1.38004e-21)
(0.0375497 0.0463663 0)
(0.201379 0.0429686 0)
(0.454995 0.05547 0)
(0.744253 0.0805517 1.54318e-22)
(0.999733 0.104607 -1.28321e-21)
(1.18171 0.107684 1.05559e-22)
(1.28835 0.111644 1.0406e-21)
(1.33721 0.0716209 1.14983e-21)
(-0.0417422 0.0290812 0)
(-0.0307543 0.0388224 1.38004e-21)
(0.0694065 0.0366561 -1.12117e-21)
(0.273704 0.038741 0)
(0.564397 0.0627655 -1.48158e-21)
(0.858077 0.0932813 0)
(1.08777 0.116585 1.02541e-21)
(1.23624 0.117552 -8.33056e-22)
(1.31221 0.116429 -1.39497e-21)
(1.34778 0.0839412 -1.14331e-21)
(-0.0427148 0.0269446 1.75719e-21)
(-0.0187929 0.0310701 0)
(0.111177 0.0287035 9.82296e-22)
(0.360025 0.0399461 1.14861e-22)
(0.677061 0.0744176 2.96318e-21)
(0.95983 0.107347 0)
(1.15808 0.127983 -9.94021e-22)
(1.27442 0.126256 -1.64596e-21)
(1.32725 0.122503 -1.14475e-21)
(1.34816 0.0896321 -6.98332e-24)
(-0.0429042 0.0246691 -1.86627e-21)
(-0.00232201 0.0233661 8.95311e-23)
(0.164035 0.0233808 1.39695e-22)
(0.457155 0.0467452 -1.15544e-22)
(0.786021 0.0888001 -1.4816e-21)
(1.04674 0.12163 1.20558e-21)
(1.2121 0.138516 9.94019e-22)
(1.30016 0.134397 8.12908e-22)
(1.33418 0.127274 1.30809e-21)
(1.34465 0.0967886 -1.14469e-21)
(-0.0420786 0.0221306 1.10506e-22)
(0.0194872 0.015677 1.3454e-21)
(0.228432 0.0217947 0)
(0.560144 0.0582579 -8.04245e-22)
(0.886239 0.104551 -9.38128e-23)
(1.11841 0.135528 -1.20558e-21)
(1.25223 0.148261 1.19088e-22)
(1.3162 0.141706 6.7222e-22)
(1.33607 0.13229 0)
(1.33935 0.102869 1.01911e-21)
(-0.0399994 0.0192195 -1.13976e-22)
(0.0475392 0.00816938 -1.43609e-21)
(0.303672 0.0248976 0)
(0.663572 0.07308 1.07342e-22)
(0.974967 0.120792 -9.41126e-23)
(1.17584 0.148789 0)
(1.28092 0.157257 -9.42344e-22)
(1.32515 0.148559 -7.71902e-22)
(1.33441 0.136973 -1.47243e-22)
(1.3321 0.108871 -1.23857e-22)
(-0.0363994 0.0158492 0)
(0.082728 0.00137185 -1.65488e-21)
(0.387735 0.0329913 1.48296e-22)
(0.762823 0.0899413 -6.18109e-24)
(1.05126 0.137033 -7.38816e-22)
(1.22064 0.161328 -1.31349e-21)
(1.3005 0.165652 1.06227e-21)
(1.32893 0.154996 0)
(1.33036 0.141706 0)
(1.32449 0.114707 0)
(-0.0309467 0.0119691 2.49043e-24)
(0.12575 -0.00374919 1.38769e-21)
(0.47755 0.045569 1.50181e-22)
(0.854715 0.107975 1.04346e-21)
(1.1153 0.153014 6.44191e-22)
(1.25466 0.173164 -1.26535e-22)
(1.31297 0.173564 9.11496e-22)
(1.32903 0.161212 -6.17499e-22)
(1.32485 0.146421 -6.93131e-22)
(1.31631 0.120465 5.5445e-22)
(-0.0232172 0.00759226 8.60988e-22)
(0.176849 -0.00592063 9.68696e-23)
(0.569611 0.0616413 -1.20079e-21)
(0.937485 0.126653 -9.39979e-22)
(1.16793 0.168601 0)
(1.27966 0.184368 1.15505e-21)
(1.31999 0.181132 -1.98453e-23)
(1.32653 0.167288 7.95193e-22)
(1.31832 0.151215 4.84784e-22)
(1.30807 0.126203 -4.38915e-22)
(-0.0127003 0.00283424 -1.9813e-21)
(0.235604 -0.00392255 0)
(0.660611 0.0802145 2.41968e-21)
(1.01044 0.145676 8.25834e-22)
(1.21027 0.183742 9.47417e-23)
(1.29729 0.195034 0)
(1.32289 0.188473 -8.84791e-22)
(1.32221 0.17332 6.69446e-22)
(1.3112 0.156092 5.18637e-22)
(1.29971 0.131925 -4.06061e-22)
(0.00116352 -0.00204721 1.0023e-21)
(0.30089 0.00299779 7.81205e-22)
(0.747848 0.100556 -1.36739e-21)
(1.0736 0.164892 1.22823e-22)
(1.24355 0.198433 0)
(1.30894 0.205268 0)
(1.3227 0.195691 0)
(1.31661 0.17936 -1.31805e-21)
(1.30365 0.161072 -5.18642e-22)
(1.29134 0.137647 4.06042e-22)
(0.0188703 -0.00660336 9.2635e-22)
(0.371044 0.0149264 -7.7505e-22)
(0.829351 0.122196 7.95781e-23)
(1.12736 0.18422 0)
(1.269 0.212699 7.14945e-22)
(1.3158 0.21517 4.75017e-22)
(1.32017 0.202864 5.46295e-23)
(1.31009 0.185445 -5.54542e-23)
(1.29582 0.166151 1.2346e-22)
(1.28293 0.14336 -4.9759e-23)
(0.0407311 -0.010202 -1.05153e-21)
(0.44414 0.0313884 9.80236e-23)
(0.903842 0.144821 6.2961e-22)
(1.17234 0.203595 -1.7544e-22)
(1.28776 0.226579 -5.36301e-22)
(1.31884 0.224833 -6.74996e-22)
(1.31589 0.210048 5.33633e-23)
(1.30291 0.191589 3.24522e-22)
(1.28776 0.171323 0)
(1.27448 0.149054 -4.36287e-23)
(0.0668301 -0.0121117 -6.79995e-23)
(0.518241 0.0516496 0)
(0.970634 0.168201 5.62064e-24)
(1.20924 0.222946 0)
(1.30086 0.24012 6.95864e-22)
(1.31882 0.234333 -5.16838e-22)
(1.31027 0.217278 0)
(1.2952 0.197794 1.10729e-23)
(1.2795 0.176571 0)
(1.26595 0.15471 0)
(0.0970068 -0.0116237 -1.35822e-22)
(0.591568 0.0749914 8.89343e-22)
(1.02949 0.192163 -7.16503e-22)
(1.2388 0.242194 1.1842e-22)
(1.30918 0.253371 -3.18269e-22)
(1.31635 0.24373 -5.47956e-23)
(1.30358 0.224567 0)
(1.28705 0.204053 2.23537e-22)
(1.27104 0.181875 5.72969e-23)
(1.25731 0.160307 1.62041e-22)
(0.130869 -0.00818365 -5.70255e-22)
(0.662569 0.100831 -3.59409e-22)
(1.08051 0.21657 -1.17813e-22)
(1.26174 0.261259 4.72235e-22)
(1.31347 0.266374 3.87967e-23)
(1.31191 0.253066 5.03587e-22)
(1.29603 0.231915 0)
(1.2785 0.210345 -2.68702e-22)
(1.26238 0.18721 4.94987e-23)
(1.24854 0.165823 -3.57208e-22)
(0.167841 -0.00148261 -5.70254e-22)
(0.729932 0.128718 3.73178e-22)
(1.12398 0.241309 -4.54137e-24)
(1.27875 0.280066 -5.49668e-22)
(1.31437 0.27916 -2.90358e-22)
(1.30585 0.262365 -2.84093e-23)
(1.28773 0.239309 2.37206e-23)
(1.26958 0.216645 2.99909e-22)
(1.25348 0.192547 -2.68916e-24)
(1.23959 0.171229 1.16098e-22)
(0.207217 0.00852677 -2.9292e-22)
(0.792589 0.158272 0)
(1.16034 0.266267 -3.20189e-22)
(1.29049 0.298552 0)
(1.31239 0.291751 -3.65437e-22)
(1.29843 0.271633 3.15244e-23)
(1.27877 0.246722 0)
(1.26028 0.222922 0)
(1.24434 0.197858 0)
(1.23047 0.176498 0)
(0.248213 0.021689 2.56899e-22)
(0.849723 0.189137 1.24666e-22)
(1.19007 0.291323 3.20191e-22)
(1.29754 0.316675 0)
(1.30794 0.304154 0)
(1.28983 0.280863 -1.31383e-23)
(1.2692 0.25412 5.05501e-23)
(1.2506 0.229141 5.77179e-23)
(1.23494 0.203107 5.31338e-23)
(1.22115 0.181596 -8.77244e-24)
(0.290013 0.0377382 -4.63891e-24)
(0.900827 0.220956 -1.16685e-22)
(1.21359 0.316345 5.33536e-24)
(1.30044 0.334409 6.31495e-24)
(1.30134 0.316364 -9.65868e-24)
(1.28018 0.290028 3.67768e-24)
(1.25903 0.261462 -4.41028e-23)
(1.24052 0.235264 -5.39334e-23)
(1.22525 0.208256 -4.02583e-23)
(1.21165 0.186489 1.57474e-24)
(0.331803 0.0563663 0)
(0.945701 0.253414 -1.17287e-22)
(1.23129 0.341209 -3.61882e-24)
(1.29964 0.35172 7.38488e-24)
(1.29285 0.32836 1.32681e-37)
(1.26958 0.299091 -9.33665e-38)
(1.24829 0.268702 -3.9663e-23)
(1.23005 0.24125 -4.72254e-23)
(1.21526 0.213257 -3.70735e-23)
(1.20198 0.19114 0)
(0.372796 0.0772699 3.3538e-22)
(0.984297 0.286235 9.62074e-23)
(1.24357 0.365786 3.18256e-22)
(1.29553 0.368567 -1.44069e-23)
(1.28269 0.34011 0)
(1.25808 0.308003 1.12755e-23)
(1.23698 0.275788 2.59865e-23)
(1.21915 0.247057 5.07934e-23)
(1.20496 0.21806 2.87209e-23)
(1.1921 0.195528 7.02021e-24)
(0.412252 0.100171 -2.98858e-22)
(1.01666 0.319168 0)
(1.25082 0.389942 -3.00841e-22)
(1.28845 0.384899 0)
(1.27101 0.351566 -3.06688e-23)
(1.24572 0.316707 2.55368e-23)
(1.22508 0.282667 0)
(1.20783 0.25264 0)
(1.19436 0.222627 0)
(1.18197 0.199639 0)
(0.449498 0.124811 5.9174e-22)
(1.04291 0.351978 -3.80662e-22)
(1.2534 0.413543 -7.32229e-23)
(1.27869 0.400664 -3.01427e-22)
(1.25794 0.362667 -2.81086e-22)
(1.23254 0.325138 1.96869e-23)
(1.21261 0.289282 -1.64377e-23)
(1.19606 0.257946 1.38161e-22)
(1.1835 0.226933 2.41001e-24)
(1.17151 0.203456 1.00697e-22)
(0.483937 0.150936 -5.91741e-22)
(1.0632 0.384441 -4.5902e-22)
(1.25164 0.436454 1.02068e-22)
(1.2665 0.415801 3.60618e-22)
(1.24357 0.373348 -1.76263e-23)
(1.21855 0.33323 3.04564e-22)
(1.19955 0.295576 0)
(1.18385 0.262908 -1.57408e-22)
(1.1724 0.230965 -2.43788e-23)
(1.16074 0.206983 -1.27574e-22)
(0.515061 0.178278 1.40836e-22)
(1.07774 0.416338 7.84991e-22)
(1.24586 0.458535 -4.59003e-22)
(1.2521 0.430241 -8.7433e-23)
(1.22797 0.383535 -2.12281e-22)
(1.20377 0.340909 4.7011e-23)
(1.18592 0.301492 -2.75618e-23)
(1.17122 0.26746 1.5471e-22)
(1.16103 0.234685 -2.56723e-23)
(1.14974 0.210177 6.88383e-23)
(0.542458 0.206544 7.12649e-23)
(1.08673 0.447451 0)
(1.23634 0.479646 2.8194e-23)
(1.23567 0.443906 0)
(1.21121 0.393143 4.23318e-22)
(1.18824 0.348099 -2.77136e-22)
(1.17174 0.30697 0)
(1.15824 0.271576 -1.73321e-23)
(1.1493 0.238028 0)
(1.13856 0.212999 0)
(0.565808 0.235417 -1.09453e-21)
(1.0904 0.477556 -8.50051e-23)
(1.22335 0.499646 5.60332e-22)
(1.21736 0.456713 6.50377e-23)
(1.19334 0.402082 -4.41712e-22)
(1.17202 0.354721 -1.58345e-22)
(1.15705 0.311936 -2.17469e-23)
(1.14493 0.275231 9.34157e-23)
(1.13719 0.240958 -1.86578e-23)
(1.12721 0.215402 1.00187e-23)
(0.584885 0.264554 1.21845e-21)
(1.08898 0.506426 -7.34888e-22)
(1.20714 0.518386 -1.62927e-22)
(1.19732 0.468568 8.01024e-23)
(1.17449 0.410263 3.46941e-22)
(1.15514 0.360696 2.40706e-22)
(1.14184 0.316336 -1.86611e-23)
(1.13126 0.278381 -1.86461e-23)
(1.12477 0.243441 -2.62728e-23)
(1.1157 0.217352 9.4657e-24)
(0.599548 0.293597 1.01015e-21)
(1.08272 0.533832 7.13393e-22)
(1.18791 0.535706 -6.8716e-22)
(1.17571 0.479366 -7.2937e-23)
(1.15475 0.41761 0)
(1.13758 0.365943 0)
(1.12613 0.320107 0)
(1.11724 0.280984 -2.45404e-22)
(1.11206 0.245443 -6.10483e-23)
(1.10404 0.218814 2.89861e-23)
(0.609741 0.322182 -1.96706e-21)
(1.07188 0.559554 0)
(1.16588 0.551432 1.47048e-21)
(1.15275 0.489006 3.9355e-22)
(1.13414 0.424036 0)
(1.11936 0.37039 0)
(1.10997 0.323187 -1.28413e-22)
(1.1029 0.282998 1.03989e-22)
(1.0991 0.24693 6.10488e-23)
(1.09226 0.219761 -2.8985e-23)
(0.615483 0.349938 1.06085e-21)
(1.05676 0.583384 -8.53224e-23)
(1.14132 0.565409 -6.95141e-22)
(1.1285 0.49735 -4.31328e-22)
(1.11269 0.429457 3.1356e-23)
(1.10053 0.373965 1.71148e-22)
(1.0934 0.325517 5.21704e-23)
(1.08827 0.284382 2.25165e-23)
(1.08591 0.247867 5.28267e-24)
(1.08039 0.220165 1.62627e-23)
(0.616866 0.376495 -1.236e-23)
(1.03767 0.605107 1.0448e-21)
(1.1145 0.577525 -9.1774e-23)
(1.10302 0.504245 2.34169e-22)
(1.09048 0.433788 1.18076e-22)
(1.08116 0.3766 -3.52498e-23)
(1.07646 0.327041 6.96162e-23)
(1.07337 0.285096 -2.99301e-23)
(1.07253 0.248221 -3.91759e-24)
(1.06846 0.220002 -1.15222e-23)
(0.614045 0.401495 0)
(1.01482 0.624454 -9.15204e-22)
(1.08569 0.587683 -7.96726e-23)
(1.07642 0.509578 -6.88867e-23)
(1.06758 0.436927 -1.22068e-22)
(1.06131 0.37823 -9.54119e-23)
(1.05921 0.327708 -3.6995e-23)
(1.05826 0.285106 0)
(1.059 0.247959 0)
(1.05651 0.219239 0)
(0.607228 0.424643 8.91487e-23)
(0.988392 0.641104 -7.4909e-22)
(1.05519 0.595787 0)
(1.04887 0.513279 -8.51404e-23)
(1.04408 0.438783 1.15422e-23)
(1.04105 0.378794 0)
(1.04171 0.327473 3.11887e-23)
(1.04298 0.284376 9.35323e-23)
(1.04532 0.247046 -2.00957e-23)
(1.04457 0.217834 1.6879e-23)
(0.596642 0.445707 -6.58774e-23)
(0.958667 0.654806 8.0317e-22)
(1.02325 0.601677 0)
(1.02049 0.51529 -1.296e-22)
(1.02008 0.439273 4.51385e-24)
(1.02046 0.378234 1.25426e-22)
(1.02401 0.326293 1.55345e-23)
(1.02756 0.282877 -1.06535e-22)
(1.03155 0.245447 0)
(1.03269 0.215746 -2.13614e-22)
(0.582472 0.464423 -9.18289e-22)
(0.926137 0.665458 -4.47648e-23)
(0.990037 0.605168 -1.24982e-23)
(0.99143 0.515541 1.03382e-23)
(0.995665 0.438325 1.70313e-22)
(0.99961 0.376499 -1.25427e-22)
(1.00618 0.324133 -1.97363e-22)
(1.01205 0.280578 -1.7551e-22)
(1.01772 0.243137 -3.03034e-22)
(1.021 0.212971 1.86876e-22)
(0.564868 0.480412 9.72827e-22)
(0.891306 0.672988 0)
(0.955784 0.606144 1.35503e-23)
(0.961845 0.513962 -7.82103e-26)
(0.970948 0.435879 -4.48661e-22)
(0.978602 0.373541 0)
(0.988287 0.320962 1.97364e-22)
(0.996474 0.277441 -4.12378e-23)
(1.00392 0.240088 3.44588e-22)
(1.00979 0.209547 -3.48955e-23)
(0.544128 0.493327 0)
(0.854548 0.67725 1.47154e-22)
(0.920697 0.604537 -1.34558e-23)
(0.931887 0.510481 0)
(0.946041 0.431883 2.78349e-22)
(0.957519 0.369324 0)
(0.970379 0.316755 -3.09317e-22)
(0.980884 0.273427 2.1675e-22)
(0.990346 0.236261 4.23763e-22)
(0.999361 0.205543 3.35281e-22)
(0.520706 0.502983 -3.47607e-23)
(0.816213 0.678106 -1.18622e-22)
(0.885009 0.600287 0)
(0.901714 0.50504 0)
(0.921062 0.426298 0)
(0.936454 0.363817 4.99921e-23)
(0.952521 0.311494 2.25691e-22)
(0.965373 0.268514 3.50588e-23)
(0.977177 0.231599 -4.23765e-22)
(0.989615 0.200908 -3.76544e-22)
(0.49502 0.509211 0)
(0.776649 0.675446 1.73612e-22)
(0.84896 0.593351 0)
(0.871489 0.497587 0)
(0.896136 0.419094 0)
(0.915501 0.357 -5.90192e-23)
(0.934787 0.305163 5.17946e-22)
(0.950068 0.262708 -1.18479e-22)
(0.964504 0.226124 -4.11175e-22)
(0.979875 0.194161 -4.15139e-22)
(0.467484 0.511883 0)
(0.736218 0.669191 -1.73613e-22)
(0.812794 0.583703 4.30796e-22)
(0.841378 0.488087 0)
(0.871388 0.41025 7.12604e-22)
(0.894757 0.348857 0)
(0.917267 0.297751 -4.20265e-22)
(0.935082 0.256019 3.77863e-22)
(0.95207 0.22029 5.37862e-22)
(0.968837 0.18935 4.14059e-22)
(0.438511 0.510909 -3.47152e-22)
(0.695284 0.659296 0)
(0.776755 0.571335 -3.66793e-22)
(0.811553 0.476521 -5.2944e-23)
(0.846947 0.399759 -1.53146e-21)
(0.87432 0.339382 0)
(0.900055 0.289243 5.28027e-22)
(0.920482 0.248374 3.81642e-23)
(0.939993 0.213375 5.73054e-22)
(0.958193 0.183091 2.17062e-24)
(0.408513 0.506241 3.83188e-22)
(0.654214 0.645745 -2.95795e-23)
(0.741087 0.556255 -7.67044e-23)
(0.782186 0.462883 -6.34481e-23)
(0.822944 0.387622 8.18859e-22)
(0.854294 0.328579 -7.35944e-22)
(0.883234 0.279658 -5.2803e-22)
(0.906274 0.239871 -4.16032e-22)
(0.928118 0.205863 -6.47467e-22)
(0.947541 0.176593 6.02451e-22)
(0.377895 0.497868 -4.94037e-23)
(0.613369 0.628553 -7.74557e-22)
(0.70603 0.538493 0)
(0.753449 0.447186 5.59218e-22)
(0.799508 0.373853 6.14617e-23)
(0.834783 0.31646 7.35948e-22)
(0.866895 0.268998 -7.31962e-23)
(0.892527 0.23046 -4.2767e-22)
(0.91659 0.197546 0)
(0.937188 0.169381 -5.37408e-22)
(0.347054 0.485817 5.77358e-23)
(0.573107 0.607765 8.15114e-22)
(0.671821 0.518093 0)
(0.725515 0.429456 -1.1298e-23)
(0.776771 0.358479 6.83715e-23)
(0.81589 0.303047 0)
(0.851114 0.257291 6.78926e-22)
(0.879277 0.220199 4.88937e-22)
(0.90543 0.188559 9.31611e-23)
(0.927194 0.161614 -7.82524e-23)
(0.316379 0.470155 0)
(0.533775 0.583455 1.25247e-21)
(0.638689 0.495122 -1.10783e-22)
(0.69855 0.409738 6.8444e-23)
(0.754861 0.341536 6.08521e-22)
(0.797718 0.288372 1.05116e-21)
(0.835973 0.244561 -7.70498e-22)
(0.866586 0.209093 0)
(0.894709 0.178881 0)
(0.91764 0.15325 0)
(0.286241 0.450982 2.54174e-24)
(0.495711 0.555725 -1.03891e-21)
(0.606858 0.469661 1.24576e-22)
(0.672721 0.388089 -8.70896e-22)
(0.733905 0.323074 -5.27084e-22)
(0.780367 0.272475 1.79744e-22)
(0.821547 0.230844 -7.77495e-22)
(0.854508 0.197182 5.1249e-22)
(0.88448 0.168554 5.51735e-22)
(0.908584 0.144325 -4.29797e-22)
(0.257 0.428437 -7.36071e-22)
(0.459235 0.524701 -8.18674e-23)
(0.576543 0.441812 1.15231e-21)
(0.648187 0.364585 9.00071e-22)
(0.714026 0.303152 0)
(0.763934 0.255407 -1.00413e-21)
(0.80791 0.216181 -4.15014e-23)
(0.843099 0.1845 -6.59594e-22)
(0.874797 0.157599 -3.86852e-22)
(0.900071 0.134859 3.42038e-22)
(0.228995 0.402703 1.76727e-21)
(0.424644 0.490524 0)
(0.547949 0.411689 -2.39054e-21)
(0.625099 0.339313 -7.87751e-22)
(0.695343 0.281841 -9.32383e-23)
(0.748511 0.237226 0)
(0.795133 0.200621 8.10931e-22)
(0.832415 0.171088 -6.44406e-22)
(0.865712 0.146049 -4.88451e-22)
(0.892141 0.124886 3.72536e-22)
(0.202538 0.374005 -9.31469e-22)
(0.392214 0.453353 -8.22404e-22)
(0.521276 0.379422 1.39303e-21)
(0.603604 0.312376 -1.2805e-22)
(0.677967 0.259223 0)
(0.734187 0.217999 0)
(0.783284 0.184218 0)
(0.82251 0.156992 1.3141e-21)
(0.857276 0.133939 4.88453e-22)
(0.88483 0.114439 -3.72535e-22)
(0.177903 0.342567 -9.71117e-22)
(0.362211 0.413399 8.19307e-22)
(0.496716 0.345155 8.62884e-23)
(0.583839 0.28389 0)
(0.662006 0.235389 -8.06099e-22)
(0.721043 0.197801 -5.36643e-22)
(0.772425 0.167035 -5.95138e-23)
(0.813433 0.142261 1.04279e-22)
(0.849533 0.121308 -1.29749e-22)
(0.878169 0.103557 5.17299e-23)
(0.155324 0.308597 1.10248e-21)
(0.33489 0.370918 -1.10653e-22)
(0.474443 0.309054 -9.05112e-22)
(0.565932 0.253984 2.00903e-22)
(0.647558 0.210442 6.00078e-22)
(0.709156 0.176714 7.63445e-22)
(0.762615 0.149136 -6.16404e-23)
(0.805232 0.126948 -3.36043e-22)
(0.842529 0.108201 0)
(0.872184 0.0922848 4.85868e-23)
(0.135025 0.272322 7.57142e-23)
(0.310477 0.326176 0)
(0.454613 0.271301 -2.89206e-23)
(0.549998 0.222799 0)
(0.634712 0.184489 -8.62765e-22)
(0.698596 0.154827 6.47083e-22)
(0.753908 0.130594 0)
(0.79795 0.111112 9.06273e-24)
(0.836303 0.0946651 0)
(0.8669 0.0806658 0)
(0.117214 0.234001 1.5711e-22)
(0.289172 0.279447 -1.0708e-21)
(0.43736 0.232091 8.4946e-22)
(0.536142 0.190485 -1.45808e-22)
(0.623547 0.157649 3.73451e-22)
(0.689425 0.132234 1.02467e-22)
(0.746351 0.111485 0)
(0.791628 0.0948143 -2.77672e-22)
(0.830892 0.0807506 -7.38708e-23)
(0.862337 0.0687479 -2.13243e-22)
(0.102077 0.193917 6.72591e-22)
(0.271148 0.231011 -1.58835e-21)
(0.422801 0.19163 1.46155e-22)
(0.524454 0.157201 -6.09753e-22)
(0.614134 0.130046 -6.85033e-23)
(0.681696 0.109034 -6.62779e-22)
(0.739986 0.0918894 0)
(0.786301 0.0781217 3.79908e-22)
(0.826328 0.0665124 -6.77095e-23)
(0.858511 0.0565788 4.86667e-22)
(0.0897728 0.152368 -6.72591e-22)
(0.256551 0.181161 5.82802e-22)
(0.411035 0.150134 -1.01047e-22)
(0.515011 0.123112 7.15178e-22)
(0.606532 0.101812 3.91886e-22)
(0.675457 0.0853323 4.05221e-23)
(0.73485 0.0718918 -3.38338e-23)
(0.782 0.0611029 -4.25443e-22)
(0.822641 0.052008 3.8587e-24)
(0.855434 0.0442068 -1.6167e-22)
(0.0804306 0.109667 3.52144e-22)
(0.245499 0.130202 0)
(0.40214 0.107824 4.15154e-22)
(0.507873 0.0883927 0)
(0.600788 0.0730806 5.49968e-23)
(0.670744 0.0612359 -4.57933e-23)
(0.730971 0.0515785 0)
(0.778751 0.0438286 0)
(0.819853 0.0372965 0)
(0.853118 0.0316809 0)
(0.0741477 0.0661343 -3.08492e-22)
(0.238081 0.0784424 -1.18665e-22)
(0.396176 0.0649298 -4.15154e-22)
(0.503089 0.0532184 0)
(0.596938 0.0439921 0)
(0.667586 0.0368557 2.06823e-23)
(0.728373 0.0310383 -8.2464e-23)
(0.776574 0.0263708 -9.76802e-23)
(0.817984 0.022437 -9.09784e-23)
(0.85157 0.0190491 1.4675e-23)
(0.0709898 0.0221006 -5.58575e-24)
(0.234357 0.0262012 1.28023e-22)
(0.393184 0.0216825 -5.70694e-24)
(0.500689 0.01777 1.97014e-23)
(0.595007 0.014688 -7.75615e-24)
(0.666002 0.0123043 0)
(0.72707 0.0103613 6.51954e-23)
(0.775482 0.00880256 9.76803e-23)
(0.817046 0.00748884 6.91237e-23)
(0.850794 0.00635631 1.03122e-23)
(0.0709898 -0.0221006 -5.58575e-24)
(0.234357 -0.0262012 1.28023e-22)
(0.393184 -0.0216825 -5.70694e-24)
(0.500689 -0.01777 1.97014e-23)
(0.595007 -0.014688 -7.75615e-24)
(0.666002 -0.0123043 0)
(0.72707 -0.0103613 5.74351e-23)
(0.775482 -0.00880256 1.04176e-22)
(0.817046 -0.00748884 7.35068e-23)
(0.850794 -0.00635631 0)
(0.0741477 -0.0661343 -3.95795e-22)
(0.238081 -0.0784424 -1.53923e-22)
(0.396176 -0.0649298 -4.40064e-22)
(0.503089 -0.0532184 2.06048e-23)
(0.596938 -0.0439921 0)
(0.667586 -0.0368557 -2.06823e-23)
(0.728373 -0.0310383 -4.79267e-23)
(0.776574 -0.0263708 -9.76802e-23)
(0.817984 -0.022437 -5.60351e-23)
(0.85157 -0.0190491 -1.4675e-23)
(0.0804306 -0.109667 3.52144e-22)
(0.245499 -0.130202 0)
(0.40214 -0.107824 4.15154e-22)
(0.507873 -0.0883927 0)
(0.600788 -0.0730806 5.49968e-23)
(0.670744 -0.0612359 -4.57933e-23)
(0.730971 -0.0515785 0)
(0.778751 -0.0438286 0)
(0.819853 -0.0372965 0)
(0.853118 -0.0316809 0)
(0.0897728 -0.152368 -6.72591e-22)
(0.256551 -0.181161 4.5524e-22)
(0.411035 -0.150134 1.01047e-22)
(0.515011 -0.123112 4.89727e-22)
(0.606532 -0.101812 5.12429e-22)
(0.675457 -0.0853323 -4.05221e-23)
(0.73485 -0.0718918 3.38338e-23)
(0.782 -0.0611029 -3.34374e-22)
(0.822641 -0.052008 -3.8587e-24)
(0.855434 -0.0442068 -2.71436e-22)
(0.102077 -0.193917 6.72591e-22)
(0.271148 -0.231011 5.50309e-22)
(0.422801 -0.19163 -1.46155e-22)
(0.524454 -0.157201 -5.9515e-22)
(0.614134 -0.130046 4.96965e-23)
(0.681696 -0.109034 -6.62779e-22)
(0.739986 -0.0918894 0)
(0.786301 -0.0781217 3.79908e-22)
(0.826328 -0.0665124 6.77095e-23)
(0.858511 -0.0565788 3.72924e-22)
(0.117214 -0.234001 -1.5711e-22)
(0.289172 -0.279447 1.0708e-21)
(0.43736 -0.232091 6.6484e-22)
(0.536142 -0.190485 1.45808e-22)
(0.623547 -0.157649 4.66579e-22)
(0.689425 -0.132234 -1.49133e-22)
(0.746351 -0.111485 6.51698e-23)
(0.791628 -0.0948143 -4.53802e-22)
(0.830892 -0.0807506 7.38708e-23)
(0.862337 -0.0687479 -2.13243e-22)
(0.135025 -0.272322 -7.57142e-23)
(0.310477 -0.326176 0)
(0.454613 -0.271301 -2.89206e-23)
(0.549998 -0.222799 0)
(0.634712 -0.184489 -8.62765e-22)
(0.698596 -0.154827 6.47083e-22)
(0.753908 -0.130594 0)
(0.79795 -0.111112 9.06273e-24)
(0.836303 -0.0946651 0)
(0.8669 -0.0806658 0)
(0.155324 -0.308597 1.10248e-21)
(0.33489 -0.370918 1.10653e-22)
(0.474443 -0.309054 -6.37058e-22)
(0.565932 -0.253984 -1.29998e-22)
(0.647558 -0.210442 1.01213e-21)
(0.709156 -0.176714 4.52401e-22)
(0.762615 -0.149136 6.16404e-23)
(0.805232 -0.126948 -4.19861e-22)
(0.842529 -0.108201 7.03088e-23)
(0.872184 -0.0922848 -4.85868e-23)
(0.177903 -0.342567 -1.23384e-21)
(0.362211 -0.413399 8.25506e-22)
(0.496716 -0.345155 7.72355e-23)
(0.583839 -0.28389 -1.35264e-22)
(0.662006 -0.235389 -8.06099e-22)
(0.721043 -0.197801 -6.792e-22)
(0.772425 -0.167035 5.95138e-23)
(0.813433 -0.142261 -5.82395e-23)
(0.849533 -0.121309 1.29749e-22)
(0.878169 -0.103557 -5.17299e-23)
(0.202538 -0.374005 -9.31469e-22)
(0.392214 -0.453353 -8.22404e-22)
(0.521276 -0.379422 1.08343e-21)
(0.603604 -0.312376 1.2805e-22)
(0.677967 -0.259223 0)
(0.734187 -0.217999 0)
(0.783284 -0.184218 0)
(0.82251 -0.156992 1.3141e-21)
(0.857276 -0.133939 4.88453e-22)
(0.88483 -0.114439 -3.72535e-22)
(0.228995 -0.402703 1.76727e-21)
(0.424644 -0.490524 0)
(0.547949 -0.411689 -2.39054e-21)
(0.625099 -0.339313 -9.00075e-22)
(0.695343 -0.281841 0)
(0.748511 -0.237226 0)
(0.795133 -0.200621 8.10931e-22)
(0.832415 -0.171088 -6.44406e-22)
(0.865712 -0.146049 -4.88451e-22)
(0.892141 -0.124886 3.72536e-22)
(0.257 -0.428437 -9.35537e-22)
(0.459235 -0.524701 8.18674e-23)
(0.576543 -0.441812 1.15231e-21)
(0.648187 -0.364585 1.0055e-21)
(0.714026 -0.303152 -8.7517e-23)
(0.763934 -0.255407 -1.00413e-21)
(0.80791 -0.216181 -4.15014e-23)
(0.843099 -0.1845 -5.15572e-22)
(0.874797 -0.157599 -5.07661e-22)
(0.900071 -0.134859 3.42038e-22)
(0.286241 -0.450982 -2.54174e-24)
(0.495711 -0.555725 -1.19711e-21)
(0.606858 -0.469661 -1.24576e-22)
(0.672721 -0.388089 -6.74675e-22)
(0.733905 -0.323074 -5.376e-22)
(0.780367 -0.272475 -1.81356e-22)
(0.821547 -0.230844 -7.61351e-22)
(0.854508 -0.197182 6.62671e-22)
(0.88448 -0.168554 3.42776e-22)
(0.908584 -0.144325 -2.54281e-22)
(0.316379 -0.470155 0)
(0.533775 -0.583455 9.83545e-22)
(0.638689 -0.495122 1.10783e-22)
(0.69855 -0.409738 6.8444e-23)
(0.754861 -0.341536 6.08521e-22)
(0.797718 -0.288372 8.31821e-22)
(0.835973 -0.244561 -6.7182e-22)
(0.866586 -0.209093 7.06921e-23)
(0.894709 -0.178881 0)
(0.91764 -0.15325 0)
(0.347054 -0.485817 -5.77358e-23)
(0.573107 -0.607765 8.15114e-22)
(0.671821 -0.518093 0)
(0.725515 -0.429456 1.53437e-22)
(0.776771 -0.358479 -6.83715e-23)
(0.81589 -0.303047 0)
(0.851114 -0.257291 6.78926e-22)
(0.879277 -0.220199 4.88937e-22)
(0.90543 -0.188559 -9.31611e-23)
(0.927194 -0.161614 7.82524e-23)
(0.377895 -0.497868 4.94037e-23)
(0.613369 -0.628553 -8.55664e-22)
(0.70603 -0.538493 0)
(0.753449 -0.447186 7.07304e-22)
(0.799508 -0.373853 -6.14617e-23)
(0.834783 -0.31646 7.35948e-22)