/*--------------------------------*- C++ -*----------------------------------*\
  =========                 |
  \\      /  F ield         | OpenFOAM: The Open Source CFD Toolbox
   \\    /   O peration     | Website:  https://openfoam.org
    \\  /    A nd           | Version:  9
     \\/     M anipulation  |
\*---------------------------------------------------------------------------*/
FoamFile
{
    format      ascii;
    class       volScalarField;
    location    "42.7";
    object      p;
}
// * * * * * * * * * * * * * * * * * * * * * * * * * * * * * * * * * * * * * //

dimensions      [0 2 -2 0 0 0 0];

internalField   nonuniform List<scalar> 
8500
(
-0.286733
-0.290947
-0.291783
-0.293531
-0.295617
-0.295864
-0.299619
-0.295995
-0.302169
-0.294855
-0.286998
-0.29115
-0.29198
-0.293697
-0.295815
-0.295958
-0.299916
-0.29593
-0.302582
-0.294742
-0.28752
-0.291552
-0.292368
-0.294021
-0.296204
-0.296136
-0.300502
-0.295785
-0.303403
-0.294514
-0.288288
-0.292141
-0.292934
-0.294488
-0.296766
-0.296376
-0.301355
-0.295528
-0.304621
-0.294168
-0.289282
-0.292903
-0.293658
-0.295075
-0.297476
-0.296654
-0.302443
-0.295125
-0.306212
-0.293699
-0.290479
-0.293817
-0.29452
-0.295757
-0.298299
-0.296943
-0.303711
-0.294539
-0.308136
-0.293089
-0.291853
-0.294864
-0.295492
-0.296503
-0.299192
-0.297219
-0.305083
-0.29374
-0.310336
-0.29228
-0.293379
-0.296022
-0.296547
-0.297286
-0.300101
-0.297469
-0.306464
-0.292717
-0.31272
-0.291262
-0.295029
-0.297269
-0.297656
-0.298079
-0.300971
-0.29769
-0.307739
-0.291543
-0.31485
-0.290243
-0.296781
-0.298586
-0.298791
-0.298863
-0.301745
-0.297896
-0.308689
-0.290448
-0.31665
-0.288848
-0.298616
-0.299958
-0.299928
-0.29962
-0.302364
-0.298174
-0.30918
-0.289326
-0.318077
-0.287232
-0.30052
-0.301374
-0.301048
-0.300342
-0.302725
-0.29857
-0.309228
-0.288248
-0.318725
-0.285872
-0.302487
-0.302826
-0.302139
-0.301048
-0.30285
-0.298953
-0.308828
-0.287536
-0.318047
-0.285325
-0.304522
-0.304317
-0.303193
-0.301714
-0.302795
-0.299272
-0.307918
-0.287351
-0.315649
-0.285618
-0.306634
-0.305852
-0.304223
-0.302322
-0.302606
-0.299506
-0.306558
-0.287616
-0.311512
-0.285948
-0.308851
-0.307438
-0.305265
-0.302876
-0.302334
-0.299462
-0.304874
-0.287963
-0.306135
-0.285221
-0.311205
-0.309098
-0.306349
-0.303409
-0.302056
-0.299103
-0.302955
-0.288004
-0.300162
-0.282913
-0.313738
-0.310861
-0.307509
-0.303959
-0.301831
-0.298448
-0.300768
-0.287546
-0.29385
-0.279041
-0.316498
-0.312764
-0.308789
-0.304563
-0.301665
-0.297607
-0.298223
-0.286514
-0.28713
-0.274025
-0.319541
-0.314847
-0.310239
-0.305248
-0.301518
-0.296702
-0.295298
-0.284769
-0.280045
-0.268643
-0.322923
-0.317159
-0.311911
-0.306013
-0.301364
-0.295771
-0.292066
-0.282084
-0.273214
-0.263386
-0.326687
-0.319769
-0.313843
-0.306843
-0.301236
-0.294753
-0.28861
-0.278405
-0.267082
-0.256862
-0.330908
-0.322731
-0.316041
-0.307749
-0.301189
-0.293529
-0.284962
-0.273998
-0.260928
-0.250118
-0.33565
-0.326106
-0.318468
-0.30881
-0.30122
-0.291989
-0.281121
-0.269
-0.254772
-0.24333
-0.340975
-0.329949
-0.321072
-0.310159
-0.301238
-0.290077
-0.27704
-0.263609
-0.248501
-0.236452
-0.34695
-0.334271
-0.323857
-0.31187
-0.301123
-0.287763
-0.272698
-0.257919
-0.242093
-0.22955
-0.35365
-0.339023
-0.326936
-0.313867
-0.300773
-0.285044
-0.268078
-0.251992
-0.235547
-0.222557
-0.361145
-0.344109
-0.330511
-0.315947
-0.300111
-0.281924
-0.263172
-0.245852
-0.22885
-0.215472
-0.369477
-0.349424
-0.334767
-0.317895
-0.299067
-0.278406
-0.257971
-0.2395
-0.221998
-0.208255
-0.378621
-0.354907
-0.339747
-0.319557
-0.297571
-0.274485
-0.252464
-0.232925
-0.214971
-0.200886
-0.388461
-0.360573
-0.345271
-0.320835
-0.295561
-0.270142
-0.246634
-0.226111
-0.207752
-0.193338
-0.398772
-0.366496
-0.350953
-0.321654
-0.292982
-0.265347
-0.240459
-0.219036
-0.200317
-0.185591
-0.409222
-0.372776
-0.356304
-0.321922
-0.289792
-0.260064
-0.233908
-0.211674
-0.192643
-0.177622
-0.419494
-0.379474
-0.360865
-0.321526
-0.28595
-0.254256
-0.226952
-0.203999
-0.184708
-0.169414
-0.429282
-0.386555
-0.364284
-0.320336
-0.281415
-0.247888
-0.219557
-0.195982
-0.176491
-0.160948
-0.43833
-0.393847
-0.366339
-0.318213
-0.276142
-0.240928
-0.211691
-0.187596
-0.16797
-0.152208
-0.446435
-0.401027
-0.366928
-0.315032
-0.270079
-0.233341
-0.203323
-0.178815
-0.159124
-0.14318
-0.453438
-0.407637
-0.366037
-0.310693
-0.263172
-0.225095
-0.194426
-0.169617
-0.149937
-0.133859
-0.459209
-0.413152
-0.363692
-0.305127
-0.255368
-0.216155
-0.184973
-0.159981
-0.140392
-0.124255
-0.463641
-0.417096
-0.359875
-0.298286
-0.246619
-0.206489
-0.174942
-0.149888
-0.130478
-0.11439
-0.466633
-0.419133
-0.354466
-0.290125
-0.236882
-0.196068
-0.164314
-0.139323
-0.120183
-0.104284
-0.468078
-0.418985
-0.347371
-0.280601
-0.226122
-0.184867
-0.153074
-0.128271
-0.109499
-0.0939141
-0.467846
-0.41645
-0.338529
-0.269673
-0.214311
-0.172867
-0.141209
-0.116719
-0.0984352
-0.0832187
-0.465778
-0.411391
-0.327895
-0.25732
-0.20143
-0.160052
-0.128703
-0.104659
-0.0870346
-0.072118
-0.461689
-0.40372
-0.315419
-0.243539
-0.187466
-0.14641
-0.115548
-0.0920925
-0.0753435
-0.0605892
-0.455372
-0.393377
-0.301063
-0.228335
-0.172405
-0.131936
-0.101748
-0.0790581
-0.0633369
-0.048765
-0.44661
-0.380326
-0.284806
-0.211706
-0.156233
-0.116652
-0.087344
-0.0656373
-0.0509026
-0.0367371
-0.435192
-0.364553
-0.26664
-0.193652
-0.138957
-0.100621
-0.0723994
-0.051808
-0.038049
-0.0245114
-0.420925
-0.346054
-0.246559
-0.174192
-0.120662
-0.0839017
-0.056872
-0.0375801
-0.0248223
-0.0120947
-0.403648
-0.324849
-0.224552
-0.153414
-0.1015
-0.0663955
-0.040803
-0.0229669
-0.0112703
0.000499628
-0.383245
-0.300996
-0.200619
-0.131469
-0.0814114
-0.0481578
-0.0242324
-0.00799288
0.00256391
0.0132449
-0.359648
-0.274622
-0.174843
-0.108331
-0.0604405
-0.0292479
-0.00720401
0.0073093
0.0166391
0.0261045
-0.332845
-0.245895
-0.147413
-0.0839141
-0.0386455
-0.00973216
0.0102345
0.0229
0.0309155
0.0390341
-0.302885
-0.214846
-0.118465
-0.0583361
-0.0160939
0.0103193
0.0280289
0.0387353
0.0453565
0.0519893
-0.269888
-0.181213
-0.0883933
-0.0317405
0.00714014
0.0308315
0.0461186
0.0547698
0.0599308
0.0649262
-0.234027
-0.145303
-0.0571459
-0.00427701
0.03097
0.0517245
0.0644387
0.0709621
0.0746064
0.0777746
-0.195405
-0.107522
-0.0247753
0.0239079
0.0552957
0.0729132
0.082924
0.0872781
0.0893276
0.0903608
-0.153987
-0.068504
0.00858869
0.0526718
0.0800061
0.0943079
0.101512
0.103685
0.103982
0.102348
-0.110258
-0.0284076
0.0427667
0.0818717
0.104982
0.115816
0.120143
0.120122
0.118395
0.113448
-0.0645779
0.0125758
0.0775544
0.111359
0.130097
0.137341
0.138748
0.13648
0.132404
0.123979
-0.0173249
0.0542089
0.112732
0.140976
0.155221
0.158787
0.157243
0.152617
0.145956
0.135257
0.0310983
0.0962282
0.148071
0.170559
0.180221
0.180053
0.17553
0.168424
0.159253
0.147065
0.0802728
0.138352
0.183337
0.19994
0.20496
0.201033
0.193516
0.183868
0.172343
0.158915
0.129768
0.180288
0.218291
0.228943
0.2293
0.221618
0.211103
0.198901
0.185174
0.170631
0.179145
0.221738
0.252696
0.257392
0.253104
0.241699
0.228204
0.213478
0.197671
0.182032
0.227965
0.2624
0.286317
0.285111
0.276233
0.261164
0.244733
0.227541
0.209767
0.193021
0.275791
0.301975
0.318921
0.311924
0.29855
0.279906
0.260607
0.241028
0.221396
0.203518
0.322194
0.340172
0.35028
0.33766
0.319922
0.297818
0.275742
0.253875
0.232493
0.213466
0.366752
0.37671
0.380178
0.36215
0.340218
0.314797
0.29006
0.26602
0.242997
0.222814
0.409058
0.411329
0.408405
0.385234
0.359313
0.330744
0.303485
0.2774
0.252852
0.231519
0.448734
0.443773
0.434763
0.406755
0.377087
0.345565
0.315943
0.287957
0.262002
0.239543
0.485484
0.473752
0.459063
0.426569
0.393427
0.359172
0.327366
0.297635
0.270396
0.246852
0.519009
0.50101
0.481129
0.444539
0.40823
0.371483
0.337691
0.306383
0.277986
0.253416
0.549019
0.525332
0.500801
0.460542
0.4214
0.382425
0.346858
0.31415
0.284729
0.259209
0.575251
0.546531
0.517936
0.474469
0.432853
0.39193
0.354817
0.320894
0.290585
0.264208
0.597475
0.564446
0.53241
0.486224
0.442514
0.399943
0.361521
0.326576
0.295519
0.268396
0.615494
0.578943
0.544118
0.495726
0.450319
0.406413
0.366932
0.331162
0.299503
0.27176
0.629149
0.589911
0.552974
0.502911
0.456219
0.4113
0.371018
0.334625
0.302511
0.27429
0.638319
0.59727
0.558914
0.507728
0.460173
0.414575
0.373756
0.336946
0.304527
0.275978
0.642925
0.600963
0.561895
0.510145
0.462157
0.416218
0.375128
0.33811
0.305538
0.276823
0.642925
0.600963
0.561895
0.510145
0.462157
0.416218
0.375128
0.33811
0.305538
0.276823
0.638319
0.59727
0.558914
0.507728
0.460173
0.414575
0.373756
0.336946
0.304527
0.275978
0.629149
0.589911
0.552974
0.502911
0.456219
0.4113
0.371018
0.334625
0.302511
0.27429
0.615493
0.578943
0.544118
0.495726
0.450319
0.406413
0.366932
0.331162
0.299503
0.27176
0.597475
0.564446
0.53241
0.486224
0.442514
0.399943
0.361521
0.326576
0.295519
0.268396
0.575251
0.546531
0.517936
0.474469
0.432853
0.39193
0.354817
0.320894
0.290585
0.264208
0.549019
0.525332
0.500801
0.460542
0.4214
0.382425
0.346858
0.31415
0.284729
0.259209
0.519009
0.50101
0.481129
0.444539
0.40823
0.371483
0.337691
0.306383
0.277986
0.253416
0.485484
0.473752
0.459063
0.426569
0.393427
0.359172
0.327366
0.297635
0.270396
0.246852
0.448734
0.443773
0.434763
0.406755
0.377087
0.345565
0.315943
0.287957
0.262002
0.239543
0.409058
0.411329
0.408405
0.385234
0.359313
0.330744
0.303485
0.2774
0.252852
0.231519
0.366752
0.37671
0.380178
0.36215
0.340218
0.314797
0.29006
0.26602
0.242997
0.222814
0.322194
0.340172
0.35028
0.33766
0.319922
0.297818
0.275742
0.253875
0.232493
0.213466
0.275791
0.301975
0.318921
0.311924
0.29855
0.279906
0.260607
0.241028
0.221396
0.203518
0.227965
0.2624
0.286317
0.285111
0.276233
0.261164
0.244733
0.227541
0.209767
0.193021
0.179145
0.221738
0.252696
0.257392
0.253104
0.241699
0.228204
0.213478
0.197671
0.182032
0.129768
0.180288
0.218291
0.228943
0.2293
0.221618
0.211103
0.198901
0.185174
0.170631
0.0802728
0.138352
0.183336
0.19994
0.20496
0.201033
0.193516
0.183868
0.172343
0.158915
0.0310983
0.0962281
0.148071
0.170559
0.180221
0.180053
0.17553
0.168424
0.159253
0.147065
-0.0173249
0.0542089
0.112732
0.140976
0.155221
0.158787
0.157243
0.152617
0.145956
0.135257
-0.0645779
0.0125757
0.0775544
0.111359
0.130097
0.137341
0.138748
0.13648
0.132404
0.123979
-0.110258
-0.0284076
0.0427667
0.0818717
0.104982
0.115816
0.120143
0.120122
0.118395
0.113448
-0.153987
-0.068504
0.00858868
0.0526718
0.0800061
0.0943079
0.101512
0.103685
0.103982
0.102348
-0.195405
-0.107522
-0.0247753
0.0239079
0.0552957
0.0729132
0.082924
0.0872781
0.0893276
0.0903608
-0.234027
-0.145303
-0.0571459
-0.00427701
0.03097
0.0517245
0.0644387
0.0709621
0.0746064
0.0777746
-0.269888
-0.181213
-0.0883933
-0.0317405
0.00714015
0.0308315
0.0461186
0.0547698
0.0599308
0.0649262
-0.302885
-0.214846
-0.118465
-0.0583361
-0.0160939
0.0103193
0.0280289
0.0387353
0.0453565
0.0519893
-0.332845
-0.245895
-0.147413
-0.0839141
-0.0386455
-0.00973215
0.0102345
0.0229
0.0309155
0.0390341
-0.359648
-0.274622
-0.174843
-0.108331
-0.0604404
-0.0292479
-0.007204
0.0073093
0.0166391
0.0261045
-0.383244
-0.300996
-0.200619
-0.131469
-0.0814113
-0.0481578
-0.0242324
-0.00799288
0.00256391
0.0132449
-0.403648
-0.324849
-0.224552
-0.153414
-0.1015
-0.0663955
-0.040803
-0.0229669
-0.0112703
0.000499614
-0.420925
-0.346054
-0.246559
-0.174192
-0.120661
-0.0839017
-0.056872
-0.0375801
-0.0248223
-0.0120947
-0.435192
-0.364553
-0.26664
-0.193652
-0.138957
-0.100621
-0.0723994
-0.051808
-0.038049
-0.0245114
-0.44661
-0.380326
-0.284806
-0.211706
-0.156233
-0.116652
-0.087344
-0.0656373
-0.0509026
-0.0367371
-0.455372
-0.393377
-0.301063
-0.228334
-0.172405
-0.131936
-0.101748
-0.0790582
-0.063337
-0.048765
-0.461689
-0.40372
-0.315419
-0.243539
-0.187466
-0.14641
-0.115548
-0.0920925
-0.0753435
-0.0605892
-0.465778
-0.411391
-0.327895
-0.25732
-0.20143
-0.160052
-0.128703
-0.104659
-0.0870346
-0.072118
-0.467846
-0.416449
-0.338529
-0.269673
-0.214311
-0.172867
-0.141209
-0.116719
-0.0984352
-0.0832188
-0.468078
-0.418984
-0.347371
-0.280601
-0.226122
-0.184867
-0.153074
-0.128271
-0.109499
-0.0939142
-0.466633
-0.419133
-0.354466
-0.290125
-0.236882
-0.196068
-0.164314
-0.139323
-0.120183
-0.104284
-0.463641
-0.417096
-0.359875
-0.298286
-0.246619
-0.206489
-0.174942
-0.149888
-0.130478
-0.11439
-0.459209
-0.413152
-0.363692
-0.305127
-0.255368
-0.216155
-0.184973
-0.159981
-0.140392
-0.124255
-0.453437
-0.407636
-0.366037
-0.310693
-0.263172
-0.225095
-0.194426
-0.169617
-0.149937
-0.133859
-0.446435
-0.401026
-0.366928
-0.315032
-0.270079
-0.233341
-0.203323
-0.178815
-0.159124
-0.14318
-0.43833
-0.393847
-0.366339
-0.318213
-0.276142
-0.240928
-0.211691
-0.187596
-0.16797
-0.152208
-0.429282
-0.386555
-0.364284
-0.320335
-0.281415
-0.247888
-0.219557
-0.195982
-0.176491
-0.160948
-0.419493
-0.379473
-0.360865
-0.321526
-0.28595
-0.254256
-0.226952
-0.203999
-0.184708
-0.169414
-0.409222
-0.372776
-0.356304
-0.321922
-0.289791
-0.260064
-0.233908
-0.211674
-0.192643
-0.177622
-0.398772
-0.366496
-0.350952
-0.321653
-0.292982
-0.265347
-0.240458
-0.219036
-0.200317
-0.185591
-0.388461
-0.360573
-0.345271
-0.320835
-0.295561
-0.270141
-0.246634
-0.226111
-0.207752
-0.193339
-0.378621
-0.354907
-0.339747
-0.319556
-0.297571
-0.274485
-0.252464
-0.232925
-0.214971
-0.200886
-0.369476
-0.349423
-0.334767
-0.317895
-0.299067
-0.278406
-0.257971
-0.2395
-0.221998
-0.208255
-0.361145
-0.344108
-0.33051
-0.315947
-0.300111
-0.281923
-0.263172
-0.245852
-0.22885
-0.215472
-0.35365
-0.339023
-0.326935
-0.313867
-0.300773
-0.285044
-0.268078
-0.251993
-0.235547
-0.222557
-0.34695
-0.334271
-0.323857
-0.31187
-0.301123
-0.287763
-0.272698
-0.257919
-0.242093
-0.22955
-0.340975
-0.329949
-0.321072
-0.310159
-0.301238
-0.290077
-0.27704
-0.263609
-0.248501
-0.236452
-0.33565
-0.326106
-0.318468
-0.30881
-0.30122
-0.291989
-0.281121
-0.269
-0.254772
-0.243331
-0.330908
-0.32273
-0.316041
-0.307749
-0.301189
-0.293528
-0.284962
-0.273998
-0.260928
-0.250119
-0.326687
-0.319769
-0.313843
-0.306843
-0.301235
-0.294753
-0.28861
-0.278405
-0.267083
-0.256862
-0.322923
-0.317159
-0.311911
-0.306013
-0.301363
-0.295771
-0.292066
-0.282084
-0.273215
-0.263386
-0.319541
-0.314846
-0.310239
-0.305248
-0.301518
-0.296701
-0.295298
-0.284769
-0.280045
-0.268644
-0.316498
-0.312764
-0.308788
-0.304563
-0.301664
-0.297607
-0.298223
-0.286514
-0.28713
-0.274026
-0.313738
-0.310861
-0.307509
-0.303959
-0.301831
-0.298447
-0.300768
-0.287546
-0.293851
-0.279042
-0.311205
-0.309098
-0.306349
-0.303408
-0.302055
-0.299103
-0.302954
-0.288004
-0.300162
-0.282914
-0.30885
-0.307438
-0.305265
-0.302876
-0.302334
-0.299462
-0.304874
-0.287963
-0.306135
-0.285222
-0.306634
-0.305852
-0.304223
-0.302322
-0.302605
-0.299505
-0.306558
-0.287616
-0.311512
-0.285949
-0.304521
-0.304317
-0.303193
-0.301714
-0.302794
-0.299271
-0.307917
-0.287351
-0.315649
-0.285619
-0.302487
-0.302826
-0.302138
-0.301047
-0.30285
-0.298953
-0.308828
-0.287536
-0.318047
-0.285326
-0.30052
-0.301373
-0.301048
-0.300342
-0.302724
-0.298569
-0.309227
-0.288248
-0.318725
-0.285873
-0.298616
-0.299958
-0.299928
-0.299619
-0.302364
-0.298174
-0.30918
-0.289326
-0.318077
-0.287233
-0.296781
-0.298586
-0.298791
-0.298862
-0.301745
-0.297896
-0.308689
-0.290448
-0.31665
-0.288849
-0.295029
-0.297268
-0.297656
-0.298079
-0.300971
-0.29769
-0.307739
-0.291544
-0.314851
-0.290244
-0.293379
-0.296021
-0.296547
-0.297286
-0.300101
-0.297469
-0.306464
-0.292717
-0.312721
-0.291263
-0.291853
-0.294864
-0.295492
-0.296503
-0.299191
-0.297219
-0.305083
-0.29374
-0.310336
-0.292281
-0.290479
-0.293817
-0.29452
-0.295757
-0.298299
-0.296943
-0.303711
-0.294539
-0.308136
-0.29309
-0.289282
-0.292903
-0.293658
-0.295075
-0.297476
-0.296654
-0.302443
-0.295125
-0.306213
-0.2937
-0.288288
-0.292141
-0.292934
-0.294488
-0.296766
-0.296376
-0.301356
-0.295529
-0.304622
-0.294168
-0.28752
-0.291552
-0.292368
-0.294021
-0.296204
-0.296136
-0.300502
-0.295785
-0.303404
-0.294514
-0.286998
-0.29115
-0.29198
-0.293697
-0.295815
-0.295958
-0.299916
-0.29593
-0.302582
-0.294742
-0.286733
-0.290947
-0.291783
-0.293531
-0.295617
-0.295864
-0.299619
-0.295995
-0.302169
-0.294855
-0.302196
-0.29258
-0.293509
-0.28547
-0.281175
-0.27234
-0.264304
-0.253407
-0.241977
-0.228351
-0.213571
-0.19711
-0.179342
-0.160793
-0.141376
-0.122568
-0.103942
-0.0872993
-0.072011
-0.0591827
-0.0484001
-0.0395562
-0.032593
-0.0265419
-0.0223748
-0.0176281
-0.0144552
-0.00883237
-0.00578654
-8.80234e-05
-0.302436
-0.292717
-0.293609
-0.285591
-0.281276
-0.272455
-0.264416
-0.253527
-0.242099
-0.228478
-0.213698
-0.197238
-0.179466
-0.160911
-0.141484
-0.122666
-0.104028
-0.0873742
-0.0720765
-0.0592371
-0.048446
-0.0395927
-0.0326224
-0.0265645
-0.0223956
-0.0176484
-0.0144759
-0.00885111
-0.00580155
-9.6901e-05
-0.302887
-0.292972
-0.293803
-0.285822
-0.281479
-0.272678
-0.264636
-0.25376
-0.242336
-0.228724
-0.213946
-0.197488
-0.179708
-0.161144
-0.141699
-0.122863
-0.104201
-0.0875242
-0.0722064
-0.0593444
-0.0485367
-0.0396659
-0.0326822
-0.0266113
-0.0224383
-0.0176892
-0.0145167
-0.0088879
-0.00583091
-0.000114512
-0.303504
-0.293316
-0.294074
-0.286147
-0.281755
-0.272999
-0.264948
-0.254097
-0.242678
-0.22908
-0.214306
-0.197851
-0.180061
-0.161486
-0.142015
-0.123151
-0.10446
-0.0877484
-0.072401
-0.0595057
-0.0486732
-0.0397769
-0.0327737
-0.0266835
-0.022503
-0.0177503
-0.0145765
-0.00894194
-0.00587356
-0.00014059
-0.304214
-0.293692
-0.294405
-0.286532
-0.282114
-0.273392
-0.265344
-0.254519
-0.243111
-0.229531
-0.214763
-0.198315
-0.180515
-0.161926
-0.142423
-0.123529
-0.1048
-0.0880455
-0.0726604
-0.0597222
-0.0488573
-0.0399276
-0.0328984
-0.0267825
-0.0225904
-0.0178315
-0.014654
-0.00901211
-0.00592806
-0.000174759
-0.304936
-0.294083
-0.294752
-0.286968
-0.282502
-0.273851
-0.265789
-0.255013
-0.243615
-0.230063
-0.215305
-0.198863
-0.18105
-0.162449
-0.142922
-0.123989
-0.105218
-0.088414
-0.0729852
-0.0599956
-0.0490908
-0.0401201
-0.033058
-0.0269102
-0.022701
-0.0179325
-0.0147477
-0.00909705
-0.00599269
-0.000216564
-0.30564
-0.294355
-0.295118
-0.287379
-0.282928
-0.274316
-0.266293
-0.25554
-0.244176
-0.230647
-0.215902
-0.199478
-0.181663
-0.16305
-0.143494
-0.124524
-0.105711
-0.0888528
-0.0733762
-0.0603279
-0.0493759
-0.0403566
-0.0332546
-0.0270682
-0.022835
-0.0180527
-0.0148556
-0.00919521
-0.00606558
-0.000265496
-0.306063
-0.294668
-0.295359
-0.287816
-0.283295
-0.27482
-0.266769
-0.256113
-0.244751
-0.231281
-0.216548
-0.200146
-0.18233
-0.163711
-0.144134
-0.125129
-0.106275
-0.0893608
-0.0738341
-0.0607208
-0.0497149
-0.0406393
-0.0334897
-0.027258
-0.0229927
-0.0181915
-0.014976
-0.00930499
-0.00614483
-0.000321004
-0.306117
-0.294936
-0.295443
-0.288216
-0.283601
-0.275293
-0.267243
-0.256675
-0.24534
-0.231926
-0.217216
-0.200848
-0.183039
-0.164423
-0.144832
-0.125797
-0.106909
-0.0899371
-0.0743596
-0.0611762
-0.0501094
-0.0409698
-0.0337647
-0.0274804
-0.0231741
-0.0183481
-0.0151071
-0.0094248
-0.00622867
-0.000382512
-0.305782
-0.295055
-0.295386
-0.2885
-0.283836
-0.2757
-0.267665
-0.257209
-0.245906
-0.232567
-0.217889
-0.201565
-0.183775
-0.165172
-0.14558
-0.126522
-0.107608
-0.0905808
-0.0749531
-0.0616951
-0.050561
-0.0413494
-0.0340805
-0.0277362
-0.023379
-0.0185215
-0.015247
-0.00955308
-0.00631547
-0.000449423
-0.304767
-0.295027
-0.295102
-0.28864
-0.283931
-0.276013
-0.268014
-0.257684
-0.246428
-0.233178
-0.218545
-0.202282
-0.184525
-0.165949
-0.146371
-0.1273
-0.10837
-0.0912905
-0.0756141
-0.062278
-0.05107
-0.0417786
-0.0344372
-0.0280253
-0.0236068
-0.0187107
-0.0153944
-0.00968841
-0.00640386
-0.000521119
-0.302886
-0.294745
-0.29455
-0.288576
-0.283885
-0.276169
-0.268246
-0.258065
-0.24688
-0.233737
-0.219167
-0.202981
-0.185276
-0.166744
-0.147196
-0.128125
-0.109192
-0.0920644
-0.0763416
-0.0629241
-0.0516361
-0.0422568
-0.0348344
-0.028347
-0.0238566
-0.0189145
-0.0155478
-0.00982951
-0.00649269
-0.000596967
-0.300163
-0.294061
-0.293696
-0.288216
-0.28359
-0.276168
-0.268347
-0.258329
-0.247238
-0.234221
-0.219734
-0.203647
-0.186016
-0.167546
-0.14805
-0.128994
-0.11007
-0.0928999
-0.0771333
-0.0636319
-0.0522578
-0.0427829
-0.0352707
-0.0287001
-0.0241275
-0.0191319
-0.0157063
-0.00997528
-0.00658112
-0.000676319
-0.296995
-0.29278
-0.292444
-0.287547
-0.283079
-0.275872
-0.268229
-0.258433
-0.247473
-0.23461
-0.220232
-0.204267
-0.186734
-0.168349
-0.148926
-0.1299
-0.110999
-0.0937936
-0.0779858
-0.0643984
-0.0529327
-0.0433546
-0.0357445
-0.0290829
-0.024418
-0.0193616
-0.0158689
-0.0101248
-0.00666854
-0.000758523
-0.293617
-0.290835
-0.290736
-0.286484
-0.282264
-0.275452
-0.267955
-0.25838
-0.24757
-0.234888
-0.220648
-0.204829
-0.187421
-0.169145
-0.149819
-0.130839
-0.111976
-0.094741
-0.0788947
-0.0652196
-0.053657
-0.0439689
-0.036253
-0.0294933
-0.0247268
-0.0196026
-0.0160351
-0.0102773
-0.00675455
-0.000842925
-0.289947
-0.288302
-0.288501
-0.284955
-0.281016
-0.27447
-0.267319
-0.258087
-0.247495
-0.235037
-0.22097
-0.205328
-0.188073
-0.16993
-0.150723
-0.131807
-0.112994
-0.095737
-0.0798548
-0.0660906
-0.0544267
-0.0446221
-0.0367934
-0.0299288
-0.0250524
-0.0198539
-0.0162045
-0.0104321
-0.00683895
-0.000928877
-0.286121
-0.285142
-0.285754
-0.283028
-0.27957
-0.273651
-0.26662
-0.257653
-0.247273
-0.235058
-0.221193
-0.205756
-0.188683
-0.170699
-0.151635
-0.1328
-0.11405
-0.0967774
-0.0808613
-0.0670068
-0.055237
-0.0453102
-0.0373621
-0.0303867
-0.0253927
-0.0201141
-0.0163766
-0.0105887
-0.00692169
-0.0010158
-0.282079
-0.281443
-0.282423
-0.280483
-0.277468
-0.271952
-0.265292
-0.256866
-0.246839
-0.23494
-0.221326
-0.20613
-0.189266
-0.171459
-0.152555
-0.133813
-0.115134
-0.0978513
-0.081902
-0.0679567
-0.0560785
-0.0460257
-0.0379539
-0.0308631
-0.025746
-0.0203825
-0.0165517
-0.0107472
-0.00700319
-0.00110334
-0.277869
-0.277471
-0.278952
-0.277923
-0.275519
-0.27063
-0.264435
-0.256104
-0.246309
-0.234694
-0.221335
-0.206391
-0.189762
-0.17216
-0.153443
-0.134819
-0.116229
-0.0989496
-0.0829767
-0.0689442
-0.0569582
-0.0467754
-0.0385751
-0.0313627
-0.026116
-0.0206617
-0.0167316
-0.0109087
-0.00708383
-0.00119088
-0.27391
-0.272702
-0.27423
-0.27404
-0.272322
-0.268113
-0.262143
-0.254779
-0.245534
-0.234381
-0.221395
-0.206789
-0.190444
-0.17307
-0.154542
-0.136025
-0.117506
-0.100201
-0.0841705
-0.0700218
-0.0578991
-0.047567
-0.0392207
-0.0318776
-0.0264917
-0.0209424
-0.0169082
-0.0110656
-0.00715972
-0.00127565
-0.268741
-0.268976
-0.270719
-0.271157
-0.269932
-0.266342
-0.261261
-0.253486
-0.24439
-0.233451
-0.220671
-0.206274
-0.190142
-0.172967
-0.154642
-0.136291
-0.117925
-0.100717
-0.0847553
-0.0706206
-0.0584777
-0.0480946
-0.0396793
-0.0322634
-0.0267848
-0.0211665
-0.0170502
-0.0111933
-0.00722207
-0.00135019
-0.263092
-0.264122
-0.266065
-0.267019
-0.266155
-0.26285
-0.257581
-0.250806
-0.242156
-0.23158
-0.219129
-0.205047
-0.189228
-0.172345
-0.154317
-0.136215
-0.118085
-0.101041
-0.0852027
-0.0711241
-0.0589906
-0.0485769
-0.0401038
-0.0326249
-0.0270548
-0.0213719
-0.0171717
-0.0113063
-0.00727219
-0.00141835
-0.257173
-0.258819
-0.261015
-0.262532
-0.262143
-0.259338
-0.254777
-0.248151
-0.239802
-0.229567
-0.217442
-0.20368
-0.188188
-0.171612
-0.153899
-0.136066
-0.118191
-0.101326
-0.0856263
-0.0716159
-0.0595006
-0.0490622
-0.0405333
-0.0329929
-0.027328
-0.0215793
-0.0172902
-0.0114183
-0.00731866
-0.00148749
-0.251007
-0.253294
-0.255771
-0.257826
-0.25793
-0.255635
-0.251442
-0.245272
-0.237296
-0.227429
-0.215656
-0.202239
-0.187096
-0.170847
-0.153466
-0.135915
-0.118305
-0.101628
-0.0860712
-0.0721316
-0.0600349
-0.0495708
-0.0409835
-0.0333784
-0.0276143
-0.0217966
-0.0174139
-0.011535
-0.0073657
-0.00155867
-0.244543
-0.247578
-0.250353
-0.252902
-0.253501
-0.251692
-0.247925
-0.2422
-0.234622
-0.225148
-0.213755
-0.200707
-0.185937
-0.170035
-0.153005
-0.135752
-0.118419
-0.10194
-0.0865332
-0.0726688
-0.0605922
-0.0501023
-0.0414543
-0.0337819
-0.0279142
-0.0220247
-0.0175437
-0.0116568
-0.00741377
-0.00163172
-0.237827
-0.241694
-0.244784
-0.247787
-0.248878
-0.247558
-0.244242
-0.238964
-0.231799
-0.222737
-0.211744
-0.199084
-0.184707
-0.169171
-0.152509
-0.135569
-0.118526
-0.102255
-0.0870058
-0.0732217
-0.061168
-0.0506531
-0.0419431
-0.0342014
-0.0282264
-0.0222625
-0.0176789
-0.0117833
-0.00746264
-0.0017062
-0.230932
-0.235672
-0.239102
-0.242523
-0.244101
-0.243275
-0.240412
-0.235587
-0.228849
-0.220212
-0.209636
-0.197382
-0.183415
-0.16826
-0.151981
-0.135366
-0.118624
-0.10257
-0.087486
-0.0737875
-0.0617594
-0.0512209
-0.0424478
-0.0346355
-0.0285499
-0.0225098
-0.0178195
-0.0119145
-0.00751236
-0.00178172
-0.223912
-0.22954
-0.233335
-0.237143
-0.239203
-0.23887
-0.23646
-0.232092
-0.225793
-0.21759
-0.207446
-0.19561
-0.182066
-0.167307
-0.151421
-0.135144
-0.118712
-0.102885
-0.0879712
-0.0743634
-0.062364
-0.0518036
-0.0429668
-0.0350829
-0.0288839
-0.0227661
-0.0179654
-0.0120502
-0.00756311
-0.00185791
-0.216815
-0.22332
-0.227507
-0.231676
-0.234205
-0.234365
-0.23241
-0.2285
-0.222647
-0.214887
-0.205184
-0.193778
-0.180669
-0.166316
-0.150833
-0.134903
-0.118789
-0.103195
-0.0884585
-0.0749467
-0.0629789
-0.0523988
-0.0434982
-0.0355423
-0.0292277
-0.0230309
-0.0181168
-0.0121903
-0.00761506
-0.00193435
-0.209691
-0.217035
-0.221637
-0.226145
-0.229127
-0.229777
-0.228281
-0.224829
-0.219425
-0.212116
-0.202863
-0.191894
-0.179227
-0.16529
-0.150218
-0.134644
-0.118853
-0.103501
-0.0889452
-0.0755345
-0.0636014
-0.0530041
-0.0440399
-0.0360119
-0.02958
-0.0233038
-0.0182735
-0.0123348
-0.00766838
-0.00201061
-0.202584
-0.210711
-0.215747
-0.220576
-0.223989
-0.225123
-0.224087
-0.221092
-0.216143
-0.209287
-0.20049
-0.189966
-0.177749
-0.164233
-0.149578
-0.134365
-0.118902
-0.103798
-0.0894285
-0.0761237
-0.0642285
-0.0536169
-0.0445896
-0.0364901
-0.0299399
-0.023584
-0.0184354
-0.0124832
-0.0077232
-0.00208628
-0.19554
-0.204376
-0.209857
-0.214992
-0.21881
-0.22042
-0.219844
-0.217303
-0.21281
-0.206412
-0.198076
-0.188001
-0.176237
-0.163149
-0.148913
-0.134068
-0.118937
-0.104086
-0.0899058
-0.0767117
-0.0648574
-0.0542347
-0.0451452
-0.0369752
-0.0303061
-0.0238708
-0.0186022
-0.0126352
-0.00777963
-0.0021609
-0.188602
-0.198058
-0.203988
-0.209417
-0.213613
-0.215684
-0.215567
-0.213478
-0.20944
-0.2035
-0.195627
-0.186005
-0.174697
-0.162041
-0.148227
-0.133753
-0.118956
-0.104362
-0.0903746
-0.0772957
-0.0654854
-0.0548549
-0.0457045
-0.0374653
-0.0306773
-0.0241632
-0.0187735
-0.0127905
-0.00783776
-0.00223405
-0.181812
-0.191787
-0.198162
-0.203875
-0.208419
-0.210933
-0.211271
-0.20963
-0.206045
-0.200562
-0.193153
-0.183986
-0.173135
-0.160912
-0.14752
-0.13342
-0.118957
-0.104625
-0.0908327
-0.0778731
-0.0661097
-0.0554749
-0.0462652
-0.0379585
-0.0310523
-0.0244602
-0.0189489
-0.0129485
-0.00789761
-0.00230531
-0.175204
-0.185597
-0.192402
-0.198391
-0.203252
-0.206186
-0.206972
-0.205774
-0.202638
-0.197609
-0.190663
-0.181951
-0.171555
-0.159766
-0.146795
-0.13307
-0.118942
-0.104873
-0.091278
-0.0784413
-0.0667276
-0.0560921
-0.0468248
-0.0384528
-0.0314294
-0.0247606
-0.0191279
-0.0131085
-0.00795918
-0.00237425
-0.168812
-0.179518
-0.186732
-0.192988
-0.198137
-0.201465
-0.202689
-0.201926
-0.199232
-0.194653
-0.188167
-0.179907
-0.169965
-0.158609
-0.146056
-0.132705
-0.11891
-0.105106
-0.0917085
-0.0789979
-0.0673363
-0.0567037
-0.047381
-0.0389461
-0.0318071
-0.0250632
-0.0193098
-0.0132699
-0.00802239
-0.00244049
-0.162664
-0.173585
-0.181177
-0.187691
-0.193102
-0.196794
-0.198441
-0.198104
-0.195844
-0.191707
-0.185675
-0.177864
-0.168371
-0.157444
-0.145304
-0.132326
-0.11886
-0.105323
-0.0921223
-0.0795402
-0.0679332
-0.0573068
-0.0479311
-0.0394359
-0.0321837
-0.0253664
-0.0194938
-0.0134317
-0.00808712
-0.00250366
-0.156786
-0.167832
-0.175765
-0.182523
-0.188173
-0.192199
-0.194249
-0.194329
-0.192492
-0.188788
-0.183201
-0.175833
-0.166781
-0.156278
-0.144545
-0.131935
-0.118795
-0.105521
-0.0925177
-0.0800657
-0.0685153
-0.0578983
-0.0484724
-0.0399198
-0.0325572
-0.0256686
-0.0196789
-0.013593
-0.00815315
-0.00256341
-0.151204
-0.162294
-0.170525
-0.177512
-0.183381
-0.187709
-0.190138
-0.190621
-0.189195
-0.185913
-0.18076
-0.173825
-0.165204
-0.155117
-0.143783
-0.131535
-0.118714
-0.105702
-0.0928929
-0.0805719
-0.0690796
-0.0584751
-0.0490018
-0.0403949
-0.0329255
-0.0259678
-0.0198641
-0.0137527
-0.00822021
-0.00261945
-0.14594
-0.157003
-0.165487
-0.172686
-0.178756
-0.183356
-0.186137
-0.187005
-0.185976
-0.1831
-0.178366
-0.171853
-0.163653
-0.153971
-0.143024
-0.13113
-0.118619
-0.105864
-0.0932462
-0.0810558
-0.0696229
-0.0590335
-0.0495161
-0.0408582
-0.0332862
-0.026262
-0.0200479
-0.0139096
-0.00828789
-0.00267151
-0.141016
-0.151994
-0.160684
-0.168077
-0.17433
-0.179172
-0.182275
-0.183506
-0.182857
-0.180371
-0.17604
-0.169934
-0.162138
-0.152848
-0.142274
-0.130722
-0.118513
-0.106007
-0.0935761
-0.0815149
-0.0701419
-0.0595698
-0.0500118
-0.0413062
-0.0336365
-0.0265486
-0.020229
-0.0140621
-0.00835569
-0.00271943
-0.136452
-0.1473
-0.15615
-0.163716
-0.170136
-0.175193
-0.178585
-0.180157
-0.179867
-0.17775
-0.173802
-0.168083
-0.160674
-0.151759
-0.141542
-0.130319
-0.118397
-0.106132
-0.0938811
-0.0819461
-0.0706329
-0.0600797
-0.0504848
-0.0417351
-0.0339734
-0.0268251
-0.0204055
-0.0142089
-0.00842293
-0.00276311
-0.132269
-0.142953
-0.15192
-0.159638
-0.166209
-0.171455
-0.175105
-0.176987
-0.177035
-0.175265
-0.171676
-0.166322
-0.159277
-0.150717
-0.140837
-0.129924
-0.118275
-0.106239
-0.0941598
-0.0823464
-0.0710921
-0.0605589
-0.0509309
-0.0421408
-0.0342936
-0.0270884
-0.0205754
-0.0143483
-0.00848876
-0.00280247
-0.128488
-0.138988
-0.148032
-0.155881
-0.162588
-0.167999
-0.171873
-0.174035
-0.174392
-0.172944
-0.169686
-0.164671
-0.157964
-0.149734
-0.140168
-0.129544
-0.118149
-0.106328
-0.0944106
-0.0827126
-0.0715152
-0.0610024
-0.0513453
-0.0425187
-0.0345932
-0.0273352
-0.0207364
-0.0144785
-0.00855212
-0.00283746
-0.125132
-0.135438
-0.144525
-0.152485
-0.159312
-0.164866
-0.168934
-0.171341
-0.171975
-0.170819
-0.167863